/*--------------------------------*- C++ -*----------------------------------*\
| =========                 |                                                 |
| \\      /  F ield         | OpenFOAM: The Open Source CFD Toolbox           |
|  \\    /   O peration     | Version:  2406                                  |
|   \\  /    A nd           | Website:  www.openfoam.com                      |
|    \\/     M anipulation  |                                                 |
\*---------------------------------------------------------------------------*/
FoamFile
{
    version     2.0;
    format      ascii;
    arch        "LSB;label=32;scalar=64";
    class       volScalarField;
    location    "24";
    object      epsilon;
}
// * * * * * * * * * * * * * * * * * * * * * * * * * * * * * * * * * * * * * //

dimensions      [0 2 -3 0 0 0 0];

internalField   nonuniform List<scalar> 
59516
(
0.0218662
0.021155
0.0174389
0.0160186
0.00963481
0.345882
0.0154593
0.0201771
0.0188257
0.0430647
0.00935409
0.0399756
0.0175953
0.129242
0.0362786
0.0424845
0.0101371
0.0453818
0.0201948
0.0103345
0.0479322
0.0126484
0.0116041
0.0588262
0.0113896
0.0323742
0.0580122
0.0571573
0.0349421
0.0998565
0.0465598
0.0521517
0.0148516
0.0185381
0.0144341
0.0124536
0.095433
0.0510338
0.0252784
0.0112576
0.0203978
0.0121311
0.0123037
0.0230461
0.013096
0.0432079
0.0149903
0.0100258
0.0129938
0.0119838
0.0272299
0.0479955
0.0165422
0.0159788
0.041771
0.0160704
0.0117482
0.0508232
0.0100921
0.0158135
0.0125078
0.0779215
0.0106743
0.0104144
0.0161889
0.0130715
0.0994939
0.048349
0.0206551
0.0149594
0.0472867
0.0111339
0.0756161
0.0133832
0.00935344
0.0110155
0.0102098
0.0125971
0.0445625
0.0121715
0.055966
0.0131598
0.0145627
0.0838608
0.0132635
0.00962604
0.0585781
0.0118373
0.0400685
0.0304552
0.0110077
0.0140944
0.00982262
0.0147493
0.011422
0.0110019
0.0142302
0.0437663
0.0423011
0.012643
0.0472946
0.0741079
0.073286
0.0395998
0.0149011
0.0130444
0.0567928
0.0207911
0.0214473
0.0321459
0.0211172
0.0426
0.0346233
0.0315986
0.0109772
0.0237306
0.0368896
0.0153749
0.070562
0.0127307
0.00900611
0.0108793
0.0115403
0.0108685
0.0169683
0.0276326
0.0691378
0.0154628
0.083256
0.00941655
0.00914775
0.0187908
0.0713713
0.0119644
0.0206702
0.0172967
0.0394099
0.0141287
0.0506226
0.0234716
0.046184
0.00919173
0.09498
0.016638
0.00975409
0.0128322
0.013594
0.0190888
0.255182
0.0189557
0.0221037
0.0547472
0.0103756
0.0116496
0.0252938
0.108408
0.0175756
0.0172155
0.0286155
0.0921499
0.0330726
0.0313324
0.0597442
0.110742
0.0220654
0.00991312
0.0339276
0.00942545
0.083197
0.0145386
0.0276067
0.046039
0.030424
0.0143247
0.0443897
0.0148967
0.0107481
0.0119747
0.0308493
0.0575834
0.0125577
0.0684868
0.0932006
0.0376491
0.00950551
0.0398598
0.0597703
0.0878624
0.0165276
0.0227444
0.0147176
0.0430072
0.0104608
0.0383438
0.0113111
0.0664336
0.0424034
0.054224
0.0199403
0.0114069
0.029972
0.00913529
0.0204236
0.0912065
0.0156988
0.0129601
0.00917464
0.0123675
0.0913165
0.0184935
0.0478963
0.0814576
0.0133121
0.0411627
0.0181894
0.0103905
0.0131391
0.0114107
0.0421271
0.0117719
0.0423185
0.0202352
0.0111757
0.0503445
0.0105984
0.0102245
0.0490802
0.0442947
0.0102241
0.0395903
0.0100567
0.010164
0.00921652
0.0598016
0.0606519
0.0561753
0.0389198
0.0209454
0.0116572
0.0448308
0.0090487
0.0852794
0.041282
0.0775536
0.00934112
0.0246242
0.0127821
0.0308553
0.0100733
0.0204096
0.0105541
0.0134245
0.00896357
0.0127333
0.0126516
0.0110415
0.0439969
0.01205
0.0450379
0.0364198
0.0153575
0.0111915
0.0184552
0.00965599
0.0233922
0.0407934
0.0111266
0.0247677
0.0399151
0.0451682
0.0243296
0.0103275
0.0206571
0.0246464
0.0107549
0.0242167
0.0705582
0.0109066
0.056187
0.0486085
0.00936924
0.0138474
0.065324
0.0174047
0.0162745
0.0102052
0.00943435
0.0701748
0.00945742
0.00909888
0.0101636
0.0149685
0.0146353
0.0231821
0.0101005
0.0432739
0.0111197
0.0129538
0.00908134
0.0103065
0.0169963
0.0375397
0.0725185
0.0433515
0.0106587
0.0890414
0.0297802
0.0447623
0.0102089
0.00952016
0.0112591
0.0378239
0.0206762
0.0513563
0.04693
0.0116598
0.0225956
0.0119407
0.0257102
0.0514751
0.0340083
0.0206624
0.00988747
0.00915636
0.00912501
0.0111769
0.0273003
0.0155449
0.0108161
0.0115687
0.0110491
0.0378151
0.072726
0.0125476
0.044222
0.0600652
0.0110445
0.0136236
0.0411596
0.0101989
0.0106762
0.00936604
0.0100248
0.0557896
0.0112663
0.00995693
0.0416994
0.00930755
0.010036
0.0153657
0.0159594
0.0122607
0.0129792
0.0355927
0.0679136
0.0502057
0.0226476
0.0556643
0.0995345
0.0309749
0.0191705
0.0140645
0.00946147
0.0112234
0.014469
0.0125599
0.0128231
0.0582455
0.0366313
0.0414794
0.0495118
0.052023
0.0116547
0.0228726
0.0112452
0.0800085
0.0157757
0.0509969
0.0110477
0.0495838
0.0350921
0.0192948
0.0093451
0.0864929
0.0388489
0.0146939
0.0671886
0.0171876
0.0188805
0.0143125
0.024617
0.0248409
0.0108359
0.0712667
0.00930313
0.0309556
0.0327954
0.033885
0.00952732
0.00946807
0.0449565
0.0144818
0.0238003
0.00937363
0.0094935
0.0404215
0.0157332
0.0127195
0.012628
0.011691
0.0717216
0.0737423
0.0152933
0.0098092
0.00928244
0.0560508
0.0107939
0.0184236
0.00986351
0.00954154
0.00913729
0.0100696
0.0101799
0.0251836
0.00963761
0.0344566
0.0106955
0.0202796
0.0122136
0.00993456
0.0126975
0.0131986
0.0485869
0.0597509
0.0773203
0.0109703
0.00887355
0.0138916
0.0158505
0.0598742
0.0788043
0.0186147
0.0123987
0.00981705
0.0115018
0.0135254
0.00885817
0.0135615
0.0560084
0.0162499
0.0410256
0.117805
0.011855
0.0228275
0.0130622
0.0824949
0.00941827
0.00940134
0.00980165
0.0255071
0.0125003
0.0101103
0.0166206
0.00941103
0.025656
0.0101948
0.0124478
0.0750081
0.00959553
0.017832
0.0421496
0.0241401
0.0104226
0.0153721
0.0296099
0.0781009
0.00989111
0.0151222
0.0111181
0.0155685
0.0534234
0.0132785
0.0788945
0.0111327
0.0170382
0.0105844
0.0390956
0.0205446
0.0230107
0.0532334
0.00896525
0.010239
0.0885571
0.0108154
0.00914439
0.0528903
0.0342001
0.0369183
0.0118287
0.00954763
0.106392
0.0435737
0.0404234
0.0190537
0.0093851
0.0672544
0.011183
0.0121197
0.00954122
0.114341
0.0100558
0.0624276
0.0105487
0.0758327
0.0363304
0.012638
0.0373319
0.0806905
0.0556411
0.0393077
0.0406655
0.012413
0.0459118
0.0341684
0.0137252
0.0105212
0.0514492
0.018994
0.0716181
0.0100449
0.0433707
0.0111116
0.0426897
0.0164401
0.00984834
0.041323
0.0102079
0.0632309
0.0968923
0.0124938
0.00940269
0.0157418
0.0162329
0.00932163
0.0375657
0.0102805
0.0369844
0.010161
0.0159668
0.0547219
0.0114599
0.0402707
0.0544239
0.012421
0.0501837
0.0141173
0.00948306
0.0145403
0.0386318
0.00939791
0.0269804
0.0090191
0.00938782
0.00925584
0.00950931
0.0478499
0.0431748
0.00968463
0.0113365
0.0654321
0.0112727
0.00925816
0.00953399
0.00921124
0.0178478
0.0829946
0.00974668
0.0216766
0.012489
0.0219609
0.0497924
0.00942664
0.0258631
0.0138524
0.00903036
0.0136263
0.0964122
0.0763918
0.00981542
0.010826
0.00907642
0.01267
0.0257067
0.0133054
0.00981113
0.0667285
0.00958947
0.0159912
0.0547464
0.0346709
0.0126829
0.0136596
0.0143717
0.0167913
0.0216305
0.00909089
0.0247128
0.00965081
0.010309
0.00900696
0.00980911
0.0494894
0.0105657
0.0648699
0.0960824
0.0366775
0.0119182
0.0141479
0.031088
0.0104592
0.00968742
0.0114994
0.0100938
0.0581729
0.0104723
0.0147282
0.00962685
0.0193455
0.0150143
0.00998226
0.0183694
0.0510107
0.0434557
0.0490719
0.0849818
0.0541837
0.0155723
0.0137827
0.0935636
0.0801805
0.00896156
0.0675726
0.056315
0.0132912
0.0196578
0.0148647
0.0558577
0.0417356
0.0190249
0.0102573
0.0121886
0.0615181
0.0629055
0.059827
0.0638398
0.0138766
0.0615925
0.0219404
0.00979449
0.00958664
0.0485599
0.0215749
0.0588816
0.06789
0.00986667
0.0912766
0.0108041
0.0415206
0.0118018
0.0135753
0.0801532
0.0401013
0.0129658
0.0540626
0.0114714
0.0446968
0.0203171
0.00941887
0.0549421
0.0736597
0.0421282
0.019317
0.0216256
0.0443206
0.0290677
0.0703283
0.0093353
0.0556631
0.0101743
0.0129727
0.0107051
0.0937887
0.011955
0.026209
0.011233
0.0472411
0.014311
0.0110946
0.0531365
0.00892504
0.0297567
0.0165305
0.0623608
0.0393033
0.00952366
0.0149829
0.0592564
0.0177878
0.0364534
0.0661036
0.00975915
0.0122392
0.0146428
0.0102985
0.00995533
0.0104985
0.0143801
0.0437873
0.0477358
0.00939379
0.0127754
0.0182581
0.0153961
0.0312541
0.0124273
0.011156
0.0219068
0.0211633
0.0572471
0.0266977
0.0596209
0.0122344
0.00986335
0.0253742
0.0217275
0.0831714
0.0308647
0.0434266
0.0101268
0.00985139
0.0129048
0.0113797
0.0304183
0.0160647
0.0143686
0.0820976
0.00985318
0.0472599
0.0141129
0.0685985
0.0100242
0.0106904
0.0117884
0.0184129
0.0133245
0.0127139
0.00934628
0.0514246
0.0387823
0.0722141
0.0100576
0.0116831
0.0149855
0.0111023
0.112921
0.0220306
0.0259496
0.0100148
0.0158786
0.0135142
0.0216321
0.00953498
0.0781434
0.0285654
0.0126853
0.0536516
0.0459084
0.0348311
0.0810053
0.0254984
0.0108699
0.0356321
0.0888149
0.0204091
0.0465825
0.0210068
0.00998635
0.00899228
0.0102664
0.0108749
0.00994502
0.0144815
0.060529
0.00982453
0.0155306
0.0272989
0.021897
0.0108558
0.0176502
0.0330153
0.01153
0.0547632
0.0256847
0.0247774
0.0354109
0.0117434
0.0431862
0.018955
0.060498
0.0699491
0.0380529
0.0807677
0.0156717
0.0125876
0.0159166
0.0330718
0.0152847
0.0134086
0.0765721
0.0121109
0.0113001
0.0486428
0.0787427
0.0187166
0.0188364
0.0624754
0.011067
0.0763443
0.00998963
0.0120146
0.0168911
0.0120184
0.0115897
0.0210447
0.0096326
0.109377
0.0596835
0.0225117
0.0227726
0.0909362
0.0138045
0.0141188
0.00962135
0.0108095
0.0315361
0.0123132
0.00898583
0.0261125
0.0428149
0.0104855
0.0225296
0.0522476
0.0113129
0.0101734
0.0118353
0.0235874
0.0149276
0.019724
0.0276996
0.0218846
0.0227141
0.0141831
0.037813
0.0118407
0.00984225
0.00944773
0.012766
0.0194669
0.0164252
0.0551907
0.0380819
0.0161726
0.0134783
0.0142995
0.00908745
0.0121892
0.00907682
0.00905415
0.231787
0.018328
0.009493
0.0728448
0.0132386
0.0127321
0.0704577
0.0115734
0.00978195
0.0214138
0.00975412
0.00919938
0.00979184
0.0363143
0.0107247
0.0476641
0.0182939
0.0102115
0.0643646
0.0457606
0.0393165
0.0168074
0.0489763
0.0125209
0.0101449
0.0104469
0.0113284
0.0271354
0.0373654
0.0117731
0.0106783
0.0179381
0.0279569
0.0120551
0.00957003
0.00924504
0.0585357
0.0095393
0.0238332
0.030285
0.0580849
0.0403546
0.0258695
0.00998159
0.045372
0.0105958
0.0104117
0.010781
0.00956162
0.0106161
0.00930307
0.00995175
0.0093427
0.00980145
0.0140707
0.0171735
0.0556215
0.0462783
0.0114237
0.015589
0.0585747
0.0106182
0.0211165
0.00910475
0.00904617
0.00948193
0.0133401
0.0261244
0.0095685
0.124748
0.0231467
0.00951723
0.071856
0.00991567
0.0551535
0.0272775
0.0114703
0.0305605
0.051621
0.0111703
0.0122041
0.0122786
0.0542664
0.0102838
0.0548947
0.0251385
0.0347325
0.0388086
0.0218899
0.00913122
0.0361297
0.0120174
0.0107944
0.0193702
0.00927202
0.00906903
0.0182497
0.00892883
0.0103362
0.0319428
0.00919794
0.0399606
0.0576137
0.0109399
0.0115922
0.0432426
0.00968398
0.0201019
0.0285722
0.010403
0.0888085
0.0101471
0.00995301
0.0188588
0.0649749
0.0435835
0.0227003
0.0419346
0.0142547
0.0149495
0.0212753
0.085013
0.0182124
0.0104715
0.0120636
0.00923819
0.00974265
0.0332717
0.011447
0.00939459
0.0184385
0.013268
0.0583931
0.0184042
0.0118656
0.0090379
0.0341099
0.011339
0.0244895
0.0193514
0.0727717
0.0181166
0.0275955
0.0520554
0.017498
0.0492706
0.0115171
0.0198731
0.00961637
0.0711611
0.0089497
0.0246422
0.0426908
0.0222771
0.0139687
0.0707474
0.0112476
0.0123744
0.0439999
0.101425
0.0450762
0.00899005
0.0127192
0.0101372
0.0216847
0.0462686
0.0130461
0.0682963
0.0209702
0.00962331
0.0129891
0.0429452
0.0125838
0.0736265
0.0273793
0.0119102
0.00925435
0.059733
0.0120258
0.0160844
0.0423473
0.0105936
0.0116456
0.00893215
0.0136778
0.0235528
0.0419903
0.0105464
0.0124714
0.0732739
0.0514289
0.0402959
0.0098873
0.0237985
0.0110861
0.0462366
0.0100601
0.0557446
0.0144709
0.020372
0.0105533
0.00963934
0.0131863
0.0144971
0.0682026
0.0612803
0.0133108
0.014815
0.07196
0.0592519
0.0108341
0.0117181
0.0112191
0.0213136
0.0142806
0.0100619
0.0104573
0.0377906
0.0280968
0.034544
0.012626
0.0268277
0.0594222
0.0566739
0.00975183
0.0194559
0.0238822
0.0112165
0.0110637
0.0674797
0.0104197
0.00983885
0.0505222
0.0730297
0.0102394
0.00914164
0.0726128
0.0961368
0.00973362
0.0217136
0.0780928
0.0336523
0.00968024
0.00990026
0.00999882
0.0131248
0.0107819
0.0690848
0.0580348
0.0096784
0.0104952
0.0226225
0.0120903
0.0453851
0.0418183
0.0451239
0.0119607
0.0922054
0.0119858
0.013119
0.0238741
0.0404313
0.078537
0.00922
0.00931229
0.0174047
0.00946637
0.0207765
0.0114574
0.0474375
0.0406058
0.213601
0.0196317
0.0135806
0.0213752
0.0426263
0.0256709
0.0178819
0.0133008
0.0229922
0.0121653
0.0101537
0.0208752
0.0419956
0.0651733
0.0112573
0.0685892
0.0178869
0.0164433
0.0268168
0.0722148
0.0127227
0.0365203
0.0937388
0.0771895
0.0149944
0.00956864
0.0156298
0.0151924
0.0279975
0.01949
0.0694793
0.0552945
0.049615
0.00919441
0.0214469
0.0129996
0.0201847
0.0207923
0.0153826
0.0755467
0.0171575
0.0747387
0.0110661
0.0194042
0.0687368
0.00931427
0.0247462
0.0149863
0.0264725
0.0421139
0.0763074
0.0115633
0.0470555
0.0095386
0.00914579
0.0167578
0.0338069
0.0683866
0.0114271
0.051354
0.0108946
0.0109033
0.010133
0.0454205
0.0111198
0.0111505
0.0116497
0.0111917
0.0795252
0.0472161
0.0104833
0.0195296
0.0358827
0.00918182
0.0166265
0.015932
0.0221128
0.0568562
0.140126
0.0478723
0.0116734
0.0102309
0.0168567
0.0702058
0.0545265
0.0125522
0.0179757
0.0337346
0.00921063
0.0113425
0.0107871
0.0101611
0.00929626
0.0109324
0.0130707
0.0190729
0.0179061
0.0191343
0.0305967
0.0357535
0.00915767
0.015657
0.0595409
0.0410187
0.0100342
0.0511493
0.0128334
0.0229417
0.0105965
0.0127817
0.0186715
0.00953593
0.0100568
0.0106331
0.0415989
0.0486777
0.0100526
0.00907798
0.075554
0.0274885
0.0164274
0.0100925
0.0139914
0.0945354
0.0217914
0.01458
0.0284272
0.009716
0.0174241
0.0816886
0.0161524
0.0695172
0.0243788
0.0916354
0.0114189
0.012242
0.00979812
0.0803224
0.0418445
0.0265856
0.0118521
0.0465652
0.0449887
0.0243562
0.00978486
0.0571269
0.00898335
0.0118509
0.0352938
0.036467
0.0478432
0.0106419
0.0093167
0.0131749
0.0171284
0.0228355
0.0210685
0.0231464
0.0662885
0.0637829
0.0531405
0.0251866
0.00910541
0.0583304
0.096477
0.0448744
0.0711786
0.0121141
0.0685847
0.0100102
0.00927109
0.012799
0.034788
0.0100857
0.0572605
0.0379163
0.00923574
0.0103851
0.0173312
0.00996346
0.0106318
0.0764389
0.0150689
0.0122563
0.0100222
0.0245292
0.0117605
0.00946961
0.0208986
0.053454
0.0678896
0.0213115
0.00929721
0.0629436
0.0284462
0.0103769
0.0534927
0.0586743
0.0225005
0.0532193
0.033241
0.0793169
0.0448191
0.0583006
0.0833054
0.053863
0.0855899
0.0204039
0.0289424
0.00953277
0.0838697
0.0098879
0.0157885
0.0125702
0.0176212
0.0125509
0.059105
0.0110278
0.010823
0.0241128
0.00910177
0.0151511
0.099396
0.0180057
0.0271213
0.0594425
0.0622597
0.0138909
0.0250101
0.0683709
0.0131729
0.0142212
0.00951026
0.010994
0.0479507
0.0180792
0.0275479
0.013408
0.0138883
0.0132541
0.0103975
0.0247172
0.0119184
0.015001
0.0123407
0.0207963
0.0201027
0.0169273
0.0260199
0.00950132
0.0152597
0.053363
0.0136378
0.0571967
0.126102
0.0419996
0.0134844
0.0143221
0.00960571
0.0120024
0.0184396
0.0300073
0.0189355
0.0875887
0.0734957
0.0652147
0.0411557
0.0446704
0.0107959
0.0467728
0.0182349
0.0667418
0.0633603
0.00907359
0.0415824
0.0117242
0.0153949
0.0106049
0.0544258
0.0473432
0.0163982
0.0127436
0.0838855
0.0135472
0.0395806
0.0206216
0.00973949
0.0117315
0.00976478
0.0221885
0.0229118
0.0272348
0.0346077
0.0550878
0.0469464
0.0659713
0.0199167
0.0103292
0.0310444
0.0388261
0.02157
0.0121055
0.0125102
0.0412012
0.0146552
0.0683211
0.0357909
0.0128139
0.0457147
0.0282597
0.023946
0.0173487
0.0202732
0.0127179
0.0243596
0.0217144
0.0108833
0.0195696
0.0110438
0.0756733
0.0756764
0.0162052
0.0208651
0.0123541
0.0200162
0.0229827
0.0825521
0.0149456
0.0151768
0.013245
0.0247051
0.0527728
0.0407518
0.0492168
0.0167987
0.036254
0.0206529
0.0765465
0.0180232
0.049602
0.0291218
0.0100215
0.0415997
0.0121296
0.0115639
0.0538881
0.06712
0.017613
0.0914923
0.0118895
0.0108902
0.0268036
0.0134959
0.0246757
0.017388
0.061503
0.0200995
0.0164666
0.00899249
0.0951074
0.0114496
0.0159577
0.0290513
0.0141885
0.0569781
0.0111763
0.0622304
0.0125407
0.0162695
0.0133368
0.0145224
0.0504227
0.0751844
0.00985222
0.00970307
0.0513507
0.0206057
0.0610121
0.0153547
0.0391648
0.083902
0.0235443
0.0128777
0.0260346
0.00955508
0.0184015
0.0132055
0.0622594
0.00941157
0.0586664
0.0298936
0.00978735
0.0095085
0.0165353
0.0769566
0.0464598
0.00908976
0.00915729
0.0139528
0.0124581
0.0127507
0.105486
0.0138353
0.0142126
0.0151069
0.0443465
0.0152128
0.0100707
0.0157057
0.0103938
0.00918574
0.0396233
0.0115641
0.048392
0.0122186
0.0246363
0.0157615
0.012172
0.0103282
0.0099089
0.0563954
0.00897949
0.0414068
0.0669478
0.0162952
0.0442917
0.011981
0.0814255
0.0436298
0.044485
0.02887
0.0168457
0.0602582
0.0614149
0.0135561
0.0241992
0.00998554
0.0218853
0.0740968
0.0263589
0.0514442
0.0195068
0.0125255
0.0429099
0.0125596
0.00994103
0.0114595
0.0110123
0.00985407
0.0115876
0.00983961
0.0125171
0.0421557
0.0879557
0.0131866
0.0877852
0.0165006
0.0167128
0.02746
0.00922874
0.0159409
0.0531232
0.00901824
0.0484106
0.0228707
0.0367363
0.0146991
0.00913232
0.0288129
0.0210053
0.0504728
0.0166908
0.0169162
0.0260643
0.0140553
0.0960892
0.067023
0.00969202
0.0159996
0.010282
0.0217873
0.110254
0.00903747
0.0359388
0.00892009
0.0115233
0.0582781
0.0119013
0.0107709
0.0585206
0.0415657
0.00906063
0.0227563
0.0733336
0.0118825
0.0407608
0.0724827
0.0241485
0.0097727
0.00934745
0.0133713
0.0104467
0.0127206
0.00974686
0.0187442
0.0210588
0.00994736
0.0129854
0.089044
0.0547436
0.0167046
0.0106217
0.0175303
0.075814
0.0681075
0.0129328
0.0489198
0.0122792
0.0106925
0.00931088
0.0485307
0.029373
0.00997478
0.0192223
0.0125613
0.0139488
0.0392382
0.0612027
0.0100705
0.0674077
0.0332818
0.0590322
0.0485164
0.0106325
0.00930439
0.0129803
0.0204473
0.024256
0.0253504
0.01051
0.0124343
0.0431663
0.00917236
0.0113838
0.0110727
0.0688743
0.016551
0.0715106
0.0249485
0.0474014
0.0116195
0.0135263
0.0117942
0.0624106
0.0273035
0.0371745
0.0917815
0.0123353
0.0721122
0.0408477
0.0102476
0.0107004
0.00918723
0.0530409
0.0197777
0.0446838
0.0094492
0.0113798
0.0103643
0.00996267
0.0500339
0.0131984
0.0177873
0.00926961
0.0107537
0.0104379
0.0109232
0.0092688
0.0820213
0.0494797
0.0179743
0.00911435
0.0129777
0.05153
0.00984831
0.0387856
0.0163769
0.0132566
0.0272387
0.0341109
0.0392199
0.0925385
0.0115097
0.0129586
0.0410551
0.0174335
0.0858153
0.0120902
0.00924338
0.0774684
0.016714
0.015219
0.0109123
0.093822
0.0895802
0.0635764
0.0345155
0.0372022
0.07217
0.0624557
0.0904407
0.0274975
0.0108291
0.0145818
0.0114941
0.0162609
0.0778425
0.0110802
0.0185927
0.0940983
0.0930737
0.0599117
0.0264136
0.0492299
0.0116389
0.0162848
0.00915242
0.0128522
0.0494543
0.0263835
0.0118119
0.00946817
0.0128188
0.0109444
0.0104527
0.0445041
0.0203739
0.012086
0.010975
0.103012
0.0178223
0.0203122
0.0157748
0.0176915
0.00966787
0.0398533
0.0581896
0.0814808
0.02236
0.00903508
0.00901237
0.0116685
0.0365888
0.0195241
0.0451186
0.0227543
0.0108505
0.0485453
0.0387542
0.010033
0.0132759
0.0117128
0.0111874
0.0262535
0.0339746
0.0130436
0.0217518
0.0168356
0.0133175
0.015441
0.0103508
0.0279333
0.0135213
0.0846763
0.0627748
0.0929948
0.0237283
0.0178211
0.0220856
0.0470489
0.0118197
0.0481048
0.0393729
0.08159
0.0176576
0.0093998
0.0104398
0.0814279
0.0392112
0.0482633
0.0699426
0.0405354
0.00963495
0.00915434
0.062908
0.0537273
0.0405037
0.00959474
0.00916592
0.0134243
0.0238602
0.0117117
0.0130317
0.0231263
0.0548161
0.008907
0.0134313
0.0136496
0.0166185
0.0132061
0.0104318
0.0318697
0.0169616
0.0339272
0.0113243
0.0104141
0.0101697
0.0944563
0.0103352
0.0720629
0.0111175
0.0120481
0.010535
0.01105
0.0425845
0.0747309
0.0432208
0.00965193
0.00966352
0.0161067
0.0104968
0.0669404
0.0248262
0.0111099
0.00982055
0.0193372
0.0517906
0.017763
0.0190369
0.0100208
0.0103764
0.0109233
0.00952802
0.0120852
0.0128057
0.0261747
0.0104442
0.0100482
0.013
0.0261921
0.057118
0.0778232
0.031076
0.0204051
0.00976035
0.00989863
0.0655915
0.0194653
0.0141273
0.0141878
0.0237065
0.0109383
0.0134758
0.0153484
0.00902789
0.0218173
0.0144968
0.044461
0.0194542
0.0135733
0.07291
0.0163002
0.0120906
0.0144108
0.0113506
0.00980633
0.0731134
0.0107313
0.0278119
0.00969058
0.0303092
0.0104577
0.0153484
0.024879
0.0166799
0.0756532
0.0157551
0.0475738
0.0537528
0.0131723
0.0678847
0.0100115
0.0110939
0.00975477
0.0454228
0.0218652
0.0753269
0.0147498
0.0551384
0.0233684
0.011806
0.010655
0.00984433
0.0127612
0.0119782
0.00970114
0.0124953
0.0118361
0.0123263
0.0482945
0.0226774
0.00901698
0.00918517
0.0393874
0.0129883
0.0109914
0.0101927
0.0727403
0.0146973
0.0771187
0.00936919
0.0650966
0.0531626
0.0178796
0.0147397
0.0141566
0.0178392
0.0588087
0.0110921
0.0599241
0.0584131
0.0121969
0.043451
0.0271394
0.015274
0.0115169
0.0800081
0.0381517
0.0584915
0.0101565
0.0112284
0.035654
0.0116088
0.0246323
0.0368008
0.00969563
0.0536993
0.0142651
0.012269
0.0102851
0.0107667
0.00994639
0.00959508
0.017022
0.00886559
0.011998
0.0100651
0.0209642
0.023271
0.0092969
0.0302756
0.0120326
0.0129465
0.0120206
0.0136073
0.00937602
0.0140545
0.0540594
0.0114861
0.00927601
0.0380717
0.017131
0.00918134
0.118841
0.0119079
0.0105769
0.0238455
0.0155662
0.0433461
0.018538
0.00983993
0.012586
0.0238142
0.0384722
0.0380232
0.0158668
0.0503593
0.0523513
0.0646572
0.0136972
0.0099982
0.00919031
0.0149031
0.0126204
0.014321
0.0374207
0.0194645
0.00952673
0.00926511
0.00894077
0.00904006
0.0674886
0.0989182
0.0847341
0.0330489
0.012343
0.0098968
0.00933105
0.0259153
0.0122887
0.0107707
0.0791725
0.00909829
0.0110902
0.00961003
0.00974057
0.0322078
0.0440635
0.0171893
0.0454631
0.0109845
0.0132406
0.0227386
0.0123341
0.0235654
0.0356359
0.0216856
0.009267
0.0267114
0.0153901
0.0100886
0.0220095
0.0507769
0.0102108
0.00932287
0.0415712
0.0533351
0.0249185
0.050059
0.00975005
0.0186182
0.0435732
0.00935
0.00920172
0.0102983
0.0161672
0.0110805
0.0120117
0.0115224
0.0131542
0.0269843
0.0131776
0.0328955
0.02875
0.0430297
0.0096933
0.0181024
0.0113763
0.0138688
0.0243019
0.0214245
0.079124
0.0214215
0.0791533
0.024333
0.0134141
0.0115266
0.0100953
0.0117316
0.058379
0.0455626
0.0104945
0.0284133
0.0345885
0.0154432
0.0480926
0.00991411
0.0126641
0.0110244
0.0181366
0.0103975
0.0170074
0.0118725
0.0543606
0.0102768
0.0576203
0.0606443
0.0352829
0.0144522
0.017678
0.00907898
0.0587453
0.00952683
0.0120025
0.0220835
0.0286399
0.0256794
0.0511438
0.0384102
0.0517404
0.0353849
0.00912328
0.0430212
0.0124322
0.0380818
0.0861075
0.023391
0.0490612
0.100281
0.0786166
0.0140885
0.01819
0.0103785
0.0357994
0.00898996
0.0576933
0.018897
0.0371236
0.0121415
0.0112254
0.0809821
0.0150935
0.0114508
0.0120914
0.014802
0.015382
0.0104082
0.0117565
0.0108087
0.0134586
0.0558449
0.0255243
0.0452789
0.0118353
0.0678973
0.0256664
0.0122618
0.0313986
0.0191971
0.0822749
0.0193479
0.0218446
0.00961742
0.0168106
0.0103448
0.0137854
0.0102994
0.0141742
0.00903723
0.0419151
0.0417178
0.0115492
0.0111361
0.0144216
0.0123256
0.0110162
0.0128202
0.012147
0.0577703
0.0117041
0.00931808
0.0624633
0.0158064
0.0594887
0.015497
0.0340984
0.0477144
0.0113365
0.0510811
0.0602969
0.077656
0.0640502
0.0550382
0.0100484
0.0163976
0.00934344
0.0143973
0.0383869
0.0110812
0.00926872
0.0107362
0.0773479
0.012796
0.0187571
0.0178362
0.0117125
0.0653528
0.0605238
0.0127761
0.055043
0.0097595
0.0467486
0.0169729
0.0328801
0.00897918
0.00902091
0.0116189
0.050556
0.0761964
0.0553048
0.0111989
0.0379811
0.0980744
0.0181898
0.0238205
0.0637669
0.0226832
0.0411801
0.0154273
0.0124755
0.00981557
0.0122074
0.119741
0.0198862
0.0737641
0.00928717
0.0121075
0.0166444
0.0113418
0.0244277
0.0192875
0.0761557
0.0131368
0.0219229
0.009361
0.00951774
0.0402313
0.0929647
0.0101672
0.0111925
0.0101465
0.0347844
0.0139025
0.0755405
0.0533236
0.0474316
0.010493
0.0629913
0.01901
0.0884225
0.0447463
0.0135163
0.043396
0.0561152
0.0589738
0.0125939
0.0123606
0.00987582
0.041657
0.0157808
0.0103603
0.0168901
0.0169615
0.0128553
0.0102037
0.00992217
0.0770792
0.0121044
0.018384
0.0333859
0.047152
0.00987898
0.0102968
0.0229447
0.013302
0.0912281
0.0183612
0.015796
0.0826653
0.0113174
0.0107828
0.0127759
0.0399209
0.00983916
0.0438788
0.00917101
0.0388924
0.0792738
0.00955985
0.0108241
0.0356389
0.0130066
0.0106343
0.0102512
0.00975938
0.0400475
0.0609286
0.0103162
0.0127406
0.0129281
0.0115944
0.0437642
0.0144266
0.0406058
0.0349802
0.0111357
0.00917076
0.0218785
0.0126629
0.0176741
0.054285
0.0696955
0.00944027
0.0112911
0.0441304
0.062993
0.0267567
0.0125699
0.0133113
0.0795033
0.0243321
0.0116724
0.0103947
0.0110609
0.0125622
0.0188879
0.00923702
0.0117938
0.0108351
0.0259641
0.0620108
0.0778557
0.0170804
0.0198253
0.0129089
0.0115892
0.0103461
0.0108685
0.00987056
0.0111979
0.0117051
0.0104331
0.0224092
0.0115348
0.0114556
0.0239529
0.0113954
0.0225302
0.0623206
0.0166518
0.0147592
0.0148185
0.0156848
0.0146491
0.025224
0.0438237
0.0127655
0.0116828
0.0132896
0.0171831
0.0679359
0.0115964
0.0209224
0.0715916
0.0134718
0.0590492
0.0168969
0.0122807
0.0133902
0.0143726
0.0184671
0.0529817
0.0706539
0.0755749
0.00939023
0.0444032
0.0115761
0.0109226
0.0487138
0.00892321
0.023017
0.00925137
0.0175959
0.0173376
0.0303084
0.00893643
0.00987317
0.09504
0.010973
0.0539015
0.0935504
0.0143075
0.0342219
0.0104165
0.0108903
0.00967045
0.02147
0.0271508
0.0133502
0.0111045
0.0129489
0.0410584
0.0689039
0.0176197
0.0115228
0.0189288
0.00955928
0.0266905
0.0230833
0.0109665
0.0106021
0.0107382
0.0246697
0.0195359
0.0263442
0.0146605
0.0128335
0.0187985
0.0206849
0.0553685
0.0122696
0.0130837
0.0113404
0.010674
0.0127701
0.00954745
0.0512871
0.016075
0.029422
0.0408009
0.0115835
0.0278012
0.00939276
0.010429
0.0125582
0.0757612
0.0215305
0.0129572
0.0101477
0.0368532
0.0112135
0.028681
0.0143948
0.027007
0.0189033
0.01166
0.0108683
0.0940808
0.0139402
0.0106082
0.0115595
0.0242907
0.0119668
0.0114922
0.133636
0.00897676
0.0483941
0.0125595
0.0101479
0.0108071
0.0178706
0.0234924
0.0305049
0.0388631
0.0557819
0.010416
0.0103295
0.0946424
0.0504443
0.0128154
0.0138566
0.041341
0.0203403
0.0131038
0.0138744
0.0130601
0.0799753
0.0115391
0.025717
0.0480199
0.0106151
0.0405582
0.0265395
0.0704719
0.047469
0.0267322
0.0414601
0.0166648
0.0394824
0.0188948
0.0553199
0.0726125
0.0159118
0.0626147
0.037757
0.0130163
0.0643321
0.0123645
0.0394715
0.032714
0.0409932
0.00989981
0.0634821
0.05823
0.0148541
0.0123165
0.0157935
0.0445924
0.0151141
0.0256379
0.0163349
0.0349128
0.0220027
0.00899032
0.0224106
0.00989112
0.0145948
0.0142377
0.0105699
0.0951738
0.0158639
0.0175035
0.0118498
0.0668489
0.0168447
0.0959779
0.0224545
0.0232296
0.0104998
0.0115231
0.017845
0.0125259
0.0208417
0.00936961
0.0112923
0.0277071
0.00905772
0.0343511
0.0115915
0.0151532
0.0363661
0.0155905
0.0344619
0.0103045
0.0131376
0.0355367
0.014909
0.016539
0.0830782
0.0111483
0.0801521
0.0455299
0.0185646
0.012575
0.0137106
0.042271
0.0103706
0.0113404
0.0208125
0.0381785
0.0261947
0.0589075
0.013069
0.0244778
0.0150543
0.0244919
0.00940582
0.0137307
0.0550313
0.0148421
0.00938934
0.0240142
0.0959502
0.0341547
0.0130517
0.0400731
0.0248668
0.0384387
0.0134535
0.0252404
0.0448709
0.0440419
0.00991424
0.0741944
0.0120353
0.0655855
0.0106138
0.0218868
0.0120328
0.056047
0.0132453
0.00962286
0.0109256
0.0103123
0.0226826
0.0849596
0.0840014
0.03221
0.0951674
0.0119793
0.0548937
0.00985393
0.0119764
0.0161328
0.0113565
0.0715912
0.0385281
0.0408402
0.0123431
0.0606689
0.0127516
0.0218352
0.0137141
0.0358979
0.0539245
0.063749
0.0116648
0.0420667
0.0107331
0.0159142
0.016562
0.0418361
0.0410055
0.0159496
0.0219879
0.0471675
0.0100328
0.0118222
0.0273684
0.0221993
0.0135158
0.0114955
0.0112565
0.00987988
0.0104548
0.0214557
0.0264255
0.0105572
0.0973155
0.0614182
0.0155038
0.0121451
0.00931057
0.064053
0.0464885
0.0091644
0.0221926
0.00900927
0.0523375
0.00931582
0.00993984
0.0123719
0.0383151
0.0264728
0.0669957
0.0744528
0.0171585
0.0814138
0.015878
0.0301167
0.0160595
0.0148791
0.0109834
0.0697873
0.104417
0.0106027
0.0159546
0.0577972
0.0110989
0.0113604
0.0576563
0.0796605
0.0858294
0.0495193
0.0293585
0.0772258
0.0259812
0.00949626
0.0556608
0.0721665
0.0158975
0.0118951
0.0106234
0.0132661
0.023094
0.0997978
0.0100448
0.0536143
0.0106317
0.0471213
0.0208109
0.0161886
0.0200274
0.0185362
0.0614868
0.0104716
0.0124973
0.00975151
0.0746969
0.0170252
0.0412499
0.0216793
0.0339028
0.0681797
0.0191952
0.0197094
0.017012
0.0291532
0.012477
0.0428334
0.0560181
0.0453871
0.0147321
0.0183018
0.0150002
0.0566544
0.018691
0.0687791
0.102669
0.013233
0.00979227
0.0431065
0.0533702
0.023559
0.0107307
0.017031
0.0113557
0.0164594
0.0140207
0.011006
0.0136719
0.00943457
0.0405022
0.0789328
0.0155434
0.00935438
0.00998306
0.0250339
0.0928972
0.0224188
0.0106229
0.0399027
0.0208837
0.0166135
0.0219207
0.010015
0.0119016
0.00941259
0.06089
0.0160649
0.0111791
0.0134646
0.0101496
0.018716
0.0409077
0.010261
0.023277
0.0811086
0.00974482
0.00961154
0.0187429
0.0249097
0.0122208
0.0103774
0.013071
0.00926423
0.0175562
0.0239647
0.0534816
0.0428532
0.0108199
0.0162757
0.00932865
0.0136996
0.0489692
0.0554256
0.0466167
0.0741613
0.0364238
0.068417
0.0113641
0.0717599
0.0159462
0.0277532
0.00985091
0.0577392
0.0116758
0.0540508
0.0111602
0.0934249
0.0466832
0.0444771
0.00907568
0.00994863
0.0292514
0.0250587
0.0877222
0.0702468
0.0101245
0.0155817
0.0170889
0.00985163
0.0100717
0.0129619
0.0129264
0.0106881
0.0390489
0.0171713
0.0343486
0.0411533
0.0783257
0.00970419
0.0357193
0.0756928
0.0101447
0.0396996
0.011464
0.0671222
0.0128188
0.0103773
0.0183533
0.0221366
0.0115479
0.0147275
0.073882
0.0113649
0.00974852
0.0495724
0.0510446
0.0122517
0.0181061
0.0852661
0.0325234
0.0117369
0.00943307
0.0174887
0.0116792
0.0171612
0.0192451
0.0092192
0.00910367
0.0241643
0.013887
0.0210244
0.0245792
0.0121145
0.0173378
0.0831066
0.00917679
0.0169581
0.0904289
0.0123249
0.0319374
0.0139701
0.08993
0.012707
0.0208385
0.0160737
0.0131142
0.0135775
0.0457737
0.0118677
0.0192875
0.0174969
0.0693105
0.0119898
0.0250242
0.0101541
0.0152866
0.0462546