/*--------------------------------*- C++ -*----------------------------------*\
| =========                 |                                                 |
| \\      /  F ield         | OpenFOAM: The Open Source CFD Toolbox           |
|  \\    /   O peration     | Version:  2406                                  |
|   \\  /    A nd           | Website:  www.openfoam.com                      |
|    \\/     M anipulation  |                                                 |
\*---------------------------------------------------------------------------*/
FoamFile
{
    version     2.0;
    format      ascii;
    arch        "LSB;label=32;scalar=64";
    class       volScalarField;
    location    "24";
    object      k;
}
// * * * * * * * * * * * * * * * * * * * * * * * * * * * * * * * * * * * * * //

dimensions      [0 2 -2 0 0 0 0];

internalField   nonuniform List<scalar> 
59516
(
0.00255641
0.00329445
0.00271169
0.00380829
0.00815361
0.0173918
0.00318018
0.00269258
0.00255264
0.0051925
0.00683841
0.00417587
0.00255
0.0103171
0.00440168
0.00441836
0.00588863
0.00490577
0.00272598
0.00501211
0.00605959
0.00389895
0.00432655
0.00644862
0.00429366
0.0041123
0.00631136
0.00682409
0.00446251
0.00880191
0.00713423
0.0064906
0.00360637
0.00319796
0.00420904
0.00348725
0.00849483
0.00490226
0.00281084
0.00457191
0.00263524
0.00488381
0.00400769
0.00326742
0.00373206
0.00456343
0.00302156
0.00577714
0.00784586
0.00520503
0.00904779
0.00581337
0.00252971
0.00285713
0.00586636
0.00310587
0.005712
0.00631738
0.00611287
0.00374905
0.00440998
0.00838838
0.00585111
0.0057031
0.00318982
0.004637
0.0104756
0.00573474
0.006435
0.00331835
0.00806006
0.00551965
0.0086793
0.00407929
0.00633817
0.00490332
0.00578376
0.0041374
0.00559837
0.00535947
0.00623811
0.00483746
0.00406786
0.00864783
0.00470674
0.00597248
0.00615133
0.00376979
0.00438287
0.00328193
0.00668592
0.00437667
0.00557048
0.0040624
0.00549357
0.00812746
0.00424256
0.00446054
0.0045555
0.00433677
0.00616236
0.00870917
0.00853377
0.0043264
0.00345975
0.00494866
0.00661755
0.00261369
0.00287384
0.00415814
0.00521957
0.00737175
0.00451386
0.00496724
0.00463951
0.00270432
0.00421276
0.00383072
0.00816404
0.00417784
0.00686327
0.00591606
0.00475606
0.00580283
0.00495068
0.00285201
0.00909968
0.00411359
0.0106354
0.00626258
0.0067982
0.00267542
0.00815948
0.00367589
0.00277505
0.00252741
0.00494985
0.00264009
0.00602875
0.00322445
0.00572327
0.00652771
0.00855939
0.00348681
0.0063616
0.00371682
0.00347082
0.00293774
0.0199299
0.00263222
0.00295305
0.00598817
0.00493966
0.00431225
0.00272037
0.00922763
0.00305036
0.00247237
0.00283007
0.00872491
0.00438612
0.004177
0.00642464
0.0103642
0.00262525
0.00549704
0.00410865
0.00605477
0.00840391
0.00437401
0.00276871
0.00439773
0.00348926
0.00374905
0.0051547
0.00311892
0.00593665
0.00415659
0.00411396
0.00581612
0.0038858
0.00678832
0.0102335
0.00381247
0.00636145
0.00420515
0.00575867
0.00879447
0.00264803
0.00285874
0.00396345
0.00442314
0.00501829
0.00356518
0.00397953
0.0062104
0.0042843
0.00567232
0.00339512
0.0039025
0.00368126
0.00695974
0.00250199
0.00862161
0.0031225
0.00378434
0.00621895
0.00525755
0.00895367
0.00306881
0.00505457
0.00910627
0.00400446
0.0046138
0.00291996
0.00564896
0.00365059
0.00434414
0.00464031
0.0047276
0.00471433
0.00329252
0.00586578
0.0063036
0.0059139
0.00588606
0.00749814
0.00546331
0.00571827
0.00444334
0.00568719
0.00592291
0.00690798
0.0077415
0.00631754
0.00571886
0.00391792
0.00254165
0.00497956
0.00493244
0.00679429
0.00886426
0.00418371
0.00915351
0.00650338
0.00246534
0.00442372
0.00420652
0.00531423
0.00253175
0.00503714
0.00402309
0.0069641
0.00418533
0.00403694
0.00456649
0.0045708
0.0047086
0.00564384
0.00443189
0.00319971
0.00525377
0.00282612
0.00577953
0.00266072
0.00404958
0.00505537
0.00275468
0.00587979
0.00423184
0.00321558
0.00610788
0.00236233
0.00297259
0.00536181
0.00253397
0.00777607
0.00490391
0.00773648
0.00576531
0.00673166
0.00383757
0.00825182
0.00301534
0.00299435
0.00589175
0.0065207
0.0088746
0.0066394
0.00708616
0.0062454
0.00362574
0.00403285
0.00282524
0.00537013
0.00736523
0.00519248
0.00348008
0.00693862
0.00590183
0.00245748
0.00396333
0.00832283
0.0068651
0.00446691
0.00877554
0.0045297
0.00492433
0.00532394
0.00509943
0.0039638
0.00409244
0.00294354
0.00636433
0.00453827
0.00539118
0.00270047
0.00839676
0.00319711
0.00561626
0.00450368
0.00291527
0.00628164
0.00670199
0.00693578
0.00469993
0.0032803
0.00344401
0.00586376
0.00515804
0.00495416
0.00411413
0.00834468
0.00452027
0.00530745
0.00620987
0.00526458
0.00424305
0.00422336
0.00613854
0.00524646
0.00677982
0.00605521
0.00579623
0.00469598
0.00665848
0.00440331
0.00672887
0.0063419
0.00355916
0.00342642
0.00485812
0.00383712
0.00323793
0.00663283
0.00602714
0.00291548
0.00634841
0.011314
0.00311515
0.00312443
0.00316567
0.00681643
0.00414465
0.00319349
0.00458673
0.00478198
0.00633011
0.00695307
0.00464378
0.00562447
0.00604194
0.00542919
0.00291108
0.00499631
0.00815592
0.00341238
0.00597165
0.00567728
0.00427024
0.0041503
0.00236521
0.00699864
0.00897444
0.00431998
0.00375667
0.00820429
0.00349303
0.00315695
0.00328256
0.00322937
0.0030476
0.00487142
0.00680374
0.00680975
0.00412353
0.0041557
0.00421447
0.00641437
0.0060569
0.00422416
0.00280763
0.00274171
0.00650143
0.00639528
0.00544503
0.00357446
0.00391394
0.0041566
0.00471032
0.00847806
0.00811931
0.00300815
0.0061306
0.00674839
0.00623436
0.00615724
0.00225473
0.00658035
0.00607889
0.00639194
0.00625067
0.00607737
0.00259889
0.00673911
0.00403112
0.00556657
0.00287883
0.00497756
0.00628833
0.00379488
0.00419115
0.00548062
0.00641707
0.00824686
0.00601885
0.00654714
0.00405131
0.00301772
0.00601797
0.0087374
0.00305588
0.00488815
0.00634765
0.00447394
0.0032376
0.00665215
0.00321497
0.00789948
0.00301385
0.00436216
0.0120045
0.00486801
0.00277703
0.00409356
0.00873063
0.0063305
0.00629044
0.00670377
0.00255323
0.00508694
0.00610098
0.00364636
0.00689155
0.00301591
0.0058254
0.00413902
0.00816196
0.00648368
0.00309756
0.00543249
0.00236027
0.00552439
0.00312282
0.00296665
0.00814455
0.0060858
0.00287972
0.00485704
0.0030791
0.00568413
0.00380962
0.00885005
0.00538233
0.00952755
0.00579234
0.00550156
0.00282798
0.00257711
0.00527013
0.0068963
0.00646718
0.00921103
0.00530945
0.00698718
0.00635032
0.00410146
0.00400307
0.00474793
0.00667298
0.0111954
0.00432264
0.00410257
0.00292674
0.00675081
0.00802537
0.00440082
0.00469575
0.00644373
0.0136637
0.0050323
0.00766078
0.00507224
0.00868951
0.00380752
0.00487403
0.00415284
0.00846697
0.00640022
0.00517796
0.00446453
0.00354411
0.00456732
0.00382942
0.00593144
0.00613586
0.00761697
0.0024007
0.00656223
0.00577865
0.00447193
0.00601535
0.00476867
0.00364371
0.0065678
0.00489377
0.00606827
0.00701241
0.00889801
0.0040869
0.00661965
0.00352791
0.00321474
0.00612685
0.00478072
0.00514035
0.00404453
0.00641745
0.00323168
0.00767929
0.0040133
0.00561854
0.00775289
0.00371223
0.00546159
0.00373327
0.00664554
0.00332862
0.00409005
0.00600419
0.00286175
0.00661844
0.00617359
0.00646805
0.00661668
0.00554088
0.00458988
0.00623102
0.00512947
0.00681436
0.00516984
0.00586878
0.00568832
0.0062018
0.00249003
0.00854497
0.00576703
0.00319337
0.0049943
0.0025634
0.00754633
0.00682917
0.00299474
0.00314638
0.00649024
0.00395638
0.00826934
0.00830391
0.00646242
0.0059279
0.00698343
0.00502458
0.0026288
0.00442629
0.00614564
0.00774612
0.00673451
0.0044599
0.00641541
0.00388222
0.00344764
0.00397596
0.00360209
0.00291479
0.00256114
0.00660884
0.00316355
0.00577169
0.00583195
0.00658422
0.0061357
0.00613383
0.00489192
0.00653706
0.0102625
0.0040227
0.00660859
0.00341905
0.00491964
0.00615547
0.005533
0.00429241
0.00590364
0.00612719
0.00962911
0.00756947
0.00639584
0.00271697
0.00443003
0.00634776
0.00270766
0.00565019
0.00395429
0.00705342
0.00924889
0.00816771
0.00328607
0.0040024
0.00935778
0.00844314
0.00709102
0.00826699
0.00633554
0.0040955
0.00250868
0.00351041
0.00645252
0.00440791
0.00275306
0.0058718
0.00430075
0.00649424
0.0077389
0.0101049
0.00834258
0.00331989
0.00804297
0.00297341
0.00656308
0.00556814
0.00558295
0.00282218
0.0059279
0.0084813
0.00636493
0.00846419
0.00566159
0.0056939
0.00478506
0.00395226
0.0084479
0.00427227
0.00437321
0.00587495
0.00562709
0.00471166
0.00242523
0.00676068
0.00602224
0.0081656
0.00543588
0.00793269
0.00266409
0.00442339
0.00247988
0.00652219
0.00681468
0.00769944
0.0050061
0.00349602
0.00582506
0.00859124
0.00368771
0.00281235
0.0045552
0.00496841
0.00847196
0.00443619
0.00563752
0.00689863
0.00808119
0.0027092
0.00632874
0.00551471
0.00662936
0.00300192
0.00620789
0.00247286
0.00407034
0.0081467
0.00635733
0.00913479
0.00288798
0.00593653
0.00623388
0.00575235
0.00323848
0.00545029
0.00577955
0.00624765
0.00861031
0.00264136
0.0032111
0.00304309
0.00388643
0.00537649
0.00283397
0.00245266
0.00694666
0.00394675
0.00682454
0.00459458
0.00570137
0.0026794
0.00251703
0.00841725
0.00306474
0.00475985
0.00638383
0.00631815
0.00893419
0.00534425
0.00272599
0.00956188
0.00362081
0.00957585
0.00635244
0.0045345
0.00381372
0.00895664
0.00585439
0.0095297
0.00483417
0.00265209
0.0045133
0.00411918
0.00686078
0.00594205
0.00564481
0.00629641
0.0064342
0.00483049
0.00395825
0.00450965
0.00943328
0.00315644
0.00308154
0.00624485
0.00326822
0.00455437
0.00326717
0.00680495
0.00823349
0.00279961
0.0051828
0.00783691
0.00520375
0.00405097
0.00843166
0.00346727
0.00591059
0.00404552
0.00851011
0.00257499
0.00703104
0.00241455
0.00607379
0.00699954
0.00599474
0.00498131
0.00624434
0.00288203
0.00600158
0.00598074
0.00311317
0.00274514
0.00331966
0.00535463
0.00256475
0.00369663
0.00439417
0.0060963
0.00273619
0.00299222
0.00420074
0.00479066
0.00740594
0.00338228
0.00629855
0.00873352
0.00403069
0.00855901
0.00293038
0.00513524
0.0033189
0.00412327
0.00413426
0.0048982
0.00889156
0.00530788
0.00669437
0.00540098
0.00867161
0.00287102
0.00244932
0.00793687
0.0048778
0.00853796
0.00622919
0.0049584
0.00347388
0.00461923
0.00470471
0.00293947
0.00668365
0.00928424
0.006216
0.00284322
0.00279579
0.00864281
0.00425074
0.00535864
0.0059125
0.00583146
0.00310185
0.00499421
0.00687852
0.00310672
0.00568939
0.00570662
0.00256278
0.00639363
0.00516677
0.00655257
0.0045257
0.00272374
0.00302068
0.00247998
0.00299225
0.00270238
0.00296478
0.00288204
0.00380824
0.00550746
0.00619386
0.00902515
0.00325827
0.00285692
0.003334
0.00637526
0.00493032
0.00316272
0.00362665
0.00330526
0.00679956
0.00410224
0.00674175
0.00628947
0.0174707
0.00307964
0.00605803
0.00844592
0.00364359
0.00472908
0.00668605
0.00461227
0.00640429
0.00277214
0.00619754
0.00693865
0.00584082
0.00416018
0.00929628
0.00608353
0.00239482
0.00611363
0.00822194
0.00471252
0.00410963
0.00306941
0.00537525
0.00466321
0.00588939
0.00595568
0.00452645
0.00305536
0.00543582
0.00481109
0.00498954
0.00299883
0.00319307
0.00479621
0.00667613
0.0063191
0.00658989
0.00646861
0.00280725
0.0034314
0.00674475
0.00425258
0.00253077
0.00619437
0.00504685
0.00570651
0.00565355
0.00565362
0.00669996
0.00589408
0.00581152
0.00582005
0.00679234
0.00888072
0.00331138
0.00322753
0.00643627
0.00463837
0.00531486
0.00289678
0.00663283
0.00545547
0.00276463
0.00715016
0.00712201
0.00669432
0.00446381
0.00277791
0.00638117
0.0152507
0.00266728
0.00661464
0.00757956
0.00670011
0.006053
0.00270808
0.00567352
0.00370538
0.00592978
0.00589772
0.00524944
0.00407252
0.00581846
0.00637055
0.0059343
0.0029277
0.00381988
0.00386526
0.0027439
0.00685519
0.00417954
0.00461945
0.00548919
0.00280083
0.00668471
0.00680434
0.00269294
0.00652875
0.00623634
0.00411645
0.00675354
0.00517861
0.00631854
0.00642007
0.005084
0.00756172
0.00630033
0.00267022
0.00255454
0.00604564
0.00938922
0.00534201
0.00637552
0.00265957
0.00858511
0.00621043
0.00285911
0.00537793
0.00344291
0.00327728
0.0028423
0.00835097
0.00240228
0.00554784
0.00527015
0.00710982
0.00659024
0.00362911
0.00505268
0.00637498
0.0026027
0.00406277
0.00631639
0.00317409
0.00494574
0.00673464
0.00376532
0.00500813
0.00277182
0.0029317
0.00815655
0.00327617
0.00293437
0.00596884
0.00325226
0.00613825
0.00525462
0.00265235
0.00644246
0.00813347
0.00662892
0.0030824
0.00411675
0.00277179
0.0039905
0.00801484
0.00536592
0.00457783
0.00417219
0.0100132
0.00597119
0.00685968
0.00439157
0.006407
0.00320976
0.0041626
0.00463932
0.00621006
0.00294232
0.00651561
0.00394003
0.00449016
0.00348729
0.00881253
0.00297588
0.00442398
0.00666597
0.00647901
0.00457871
0.00284174
0.00686421
0.00519917
0.00509068
0.00632309
0.00442403
0.00297877
0.00697668
0.00531256
0.00383898
0.00878527
0.00577641
0.00529503
0.00549026
0.0029476
0.00521332
0.00442581
0.00581939
0.00731747
0.00343622
0.00312086
0.00505779
0.00676399
0.00319972
0.00413196
0.00642741
0.00641922
0.00455121
0.00373345
0.00837622
0.00840251
0.00551696
0.00382098
0.00521198
0.00261891
0.00378277
0.00464475
0.00594469
0.00443239
0.00362827
0.00390568
0.00402956
0.00275008
0.00638697
0.00815211
0.00598274
0.00264641
0.00245789
0.0054585
0.00523312
0.00615646
0.00547655
0.0062914
0.00634087
0.00891505
0.00609458
0.00614061
0.00714119
0.0086927
0.00635291
0.00287862
0.00902593
0.00312383
0.00635017
0.00528615
0.00625044
0.00377344
0.00520368
0.00809433
0.00570954
0.00649286
0.00598511
0.00251674
0.00497519
0.00431456
0.00440501
0.00556019
0.00417879
0.00953935
0.00407393
0.00329111
0.00265333
0.0047847
0.00868663
0.00671467
0.00629291
0.0027661
0.0061484
0.00272397
0.00403362
0.00602519
0.00499066
0.0174504
0.0025158
0.00417348
0.00245582
0.00403743
0.00308286
0.0027813
0.00400658
0.00273312
0.00457849
0.0055832
0.00315218
0.0044687
0.00851218
0.00548254
0.00660507
0.00319199
0.00330149
0.0031479
0.00804493
0.00419983
0.00405632
0.00849616
0.00829206
0.00372089
0.00618224
0.00346437
0.00352437
0.00302034
0.00268138
0.00683412
0.00594532
0.00624252
0.00659091
0.00249684
0.0039505
0.00280281
0.00268249
0.00354616
0.00941686
0.00299153
0.00806577
0.00543385
0.00278308
0.0079048
0.00666234
0.00271496
0.00321834
0.00278931
0.00363045
0.00647823
0.00413696
0.00600919
0.0068671
0.0071056
0.00363785
0.00326722
0.00649094
0.00516187
0.00611999
0.00560069
0.00550955
0.0060029
0.00500896
0.00514804
0.0054567
0.0049304
0.00532237
0.00685757
0.00599791
0.00580143
0.00258014
0.0042891
0.00692762
0.00332516
0.00355099
0.00262864
0.00839724
0.0127763
0.00464461
0.00509374
0.00573062
0.00349597
0.00789213
0.00585967
0.00405575
0.00323246
0.00430667
0.00696029
0.0052165
0.00547866
0.00603414
0.00658969
0.00513777
0.00408142
0.00344439
0.00317051
0.00278149
0.00269401
0.00369316
0.00679856
0.00368752
0.00656056
0.00418066
0.00561256
0.0045666
0.00376485
0.00270093
0.00546626
0.0043621
0.0027427
0.0059769
0.00545636
0.00492655
0.00513998
0.00772587
0.00626694
0.0067204
0.00844423
0.00283997
0.00345979
0.00635848
0.0039032
0.00894545
0.00285903
0.00421898
0.00296419
0.0057703
0.00271219
0.00900877
0.00299888
0.00835198
0.00240532
0.00888936
0.0046255
0.00382338
0.00611925
0.00869686
0.00472915
0.00246193
0.00398126
0.00428201
0.00460147
0.00260609
0.0067006
0.0064292
0.00653886
0.00373074
0.00418947
0.00414336
0.00728167
0.00489833
0.00624361
0.0035371
0.00334331
0.00252146
0.00269802
0.00259074
0.00793518
0.00624485
0.00756266
0.00301348
0.00706938
0.00592348
0.00837713
0.00428816
0.00868113
0.00526163
0.00873344
0.00555491
0.00716542
0.00382657
0.00422293
0.00663559
0.00595734
0.00459292
0.00654936
0.00520608
0.00307445
0.00933476
0.00549654
0.00844914
0.00318539
0.0050272
0.0066956
0.0028999
0.00479428
0.00608608
0.00327552
0.00496811
0.00647184
0.0030717
0.00676108
0.00648176
0.00296157
0.00469026
0.00611205
0.00811103
0.0027064
0.00495214
0.00432872
0.00866487
0.00412926
0.00634
0.00823982
0.00607566
0.00909204
0.00263481
0.0027141
0.00656819
0.00844079
0.00596956
0.00301859
0.00400466
0.00272802
0.00529474
0.00610723
0.00494289
0.00918821
0.0030295
0.00702519
0.0031694
0.00864368
0.00348767
0.00272676
0.00847203
0.00614184
0.0034806
0.00271719
0.00770729
0.00464675
0.00415577
0.00672364
0.00545949
0.00584665
0.00257493
0.00310994
0.00484354
0.00369028
0.00359875
0.00601176
0.00265314
0.00463788
0.00337636
0.00532912
0.00252519
0.00276797
0.00293483
0.0030354
0.00685866
0.003765
0.0072902
0.00335111
0.00770809
0.0131479
0.00462377
0.00373373
0.00388229
0.00684478
0.00481327
0.00311003
0.00299497
0.00252168
0.00915738
0.00888088
0.00964706
0.00444934
0.00775707
0.00468647
0.00597255
0.00329919
0.0064197
0.0079053
0.00692462
0.00412277
0.0057075
0.00313775
0.00602158
0.00619065
0.00605144
0.00298324
0.00448435
0.00905012
0.0032243
0.00422598
0.00347126
0.00635446
0.00435712
0.00643372
0.00253189
0.00264294
0.00323347
0.00506797
0.00557383
0.00493912
0.00633906
0.00260563
0.00617339
0.00436196
0.00434717
0.00227349
0.00392671
0.00485583
0.00413408
0.00312503
0.00775311
0.00476088
0.00447979
0.0059173
0.00273581
0.00290117
0.00295521
0.0028175
0.00438814
0.00264869
0.00310858
0.00565128
0.00271492
0.00550684
0.00839741
0.00764724
0.00342979
0.00236945
0.00430727
0.00340981
0.00260372
0.00815504
0.00384383
0.00299712
0.00439997
0.00271629
0.00633747
0.00430448
0.00515253
0.00303212
0.00396082
0.00283871
0.00841422
0.00259798
0.00601801
0.00292431
0.00641302
0.0044801
0.00404668
0.00495434
0.00599589
0.00805607
0.00291164
0.00998892
0.00486073
0.00570039
0.00299258
0.0045746
0.0026852
0.00293547
0.0078262
0.00277834
0.00264548
0.00675816
0.00859787
0.00530323
0.00302628
0.00291797
0.00345101
0.00610255
0.00578832
0.00776004
0.00486601
0.00293723
0.00395004
0.00277531
0.00580837
0.00849744
0.00661739
0.00614009
0.00586839
0.00265341
0.00599107
0.00282133
0.00457906
0.00855438
0.0025156
0.0043381
0.00300235
0.00604714
0.00268294
0.00343394
0.00650594
0.006512
0.00797277
0.00362368
0.00607432
0.00649323
0.00365663
0.00933527
0.00560999
0.0072986
0.00716923
0.00480624
0.00381585
0.00506039
0.00911857
0.00287725
0.00450285
0.0035207
0.00485033
0.00297131
0.00616732
0.00393731
0.00573825
0.0072169
0.00405982
0.00441009
0.00570934
0.00533685
0.00303612
0.00384966
0.00467022
0.00530316
0.0061425
0.00610416
0.00692513
0.00444111
0.00825984
0.00331931
0.00580264
0.00473283
0.00845737
0.00578078
0.00435395
0.00353687
0.00356576
0.00569214
0.00795335
0.00397059
0.00331832
0.00608844
0.002802
0.00799494
0.00290883
0.0061116
0.00262372
0.00493361
0.00412592
0.00488752
0.00610872
0.00505868
0.00538067
0.00616658
0.0048373
0.00609754
0.00357565
0.00729935
0.00900498
0.00358503
0.00945485
0.00240756
0.00276905
0.0027742
0.00675168
0.00291271
0.00618929
0.00667355
0.0043193
0.00273123
0.00525856
0.00282742
0.00664072
0.00301294
0.00274511
0.0058219
0.00336429
0.00258702
0.0027959
0.00404448
0.00878239
0.00820577
0.0058802
0.003111
0.00586501
0.00292381
0.00995836
0.00711513
0.0038252
0.00660692
0.00531056
0.00622198
0.003982
0.00518246
0.00643246
0.0072453
0.00691661
0.0032164
0.00847075
0.00412953
0.00542316
0.00877485
0.0032768
0.00618585
0.00683116
0.00422981
0.00591091
0.00410415
0.0059632
0.00273732
0.0025817
0.00606474
0.00433656
0.00867552
0.00612554
0.00272927
0.00550449
0.0029233
0.00844364
0.00844424
0.00385525
0.00743177
0.00427684
0.00528254
0.00639567
0.00580992
0.00409599
0.00591523
0.00310447
0.00456006
0.00346539
0.00408096
0.00830248
0.00589522
0.00872097
0.00510319
0.0060552
0.00559627
0.00532914
0.00695307
0.00429411
0.00268008
0.00260105
0.00280399
0.00553482
0.00534147
0.00434885
0.00631134
0.00562908
0.00521905
0.00614401
0.00340818
0.00880175
0.00295678
0.00580331
0.00491345
0.00368913
0.00947694
0.00780407
0.00256105
0.00462333
0.00861295
0.00426836
0.00810327
0.00427295
0.00580187
0.00517711
0.00678501
0.00572016
0.00267636
0.00429356
0.00663811
0.00511501
0.00518728
0.00593211
0.00573595
0.00360926
0.00269067
0.00690073
0.00554129
0.00547593
0.00506917
0.00693838
0.00839304
0.00555949
0.00268198
0.0068075
0.00377618
0.00547374
0.00605113
0.00398294
0.00261471
0.00350583
0.00280031
0.00417114
0.00405152
0.00851839
0.00460522
0.00314628
0.00424854
0.0030067
0.00828167
0.00469113
0.00608787
0.00897521
0.00278892
0.00313178
0.00515641
0.0101274
0.00942637
0.00700645
0.00433159
0.00386844
0.00876181
0.00821672
0.00977113
0.00282579
0.0054226
0.00427095
0.00514474
0.00342801
0.00845277
0.00454499
0.00302507
0.00853626
0.00870821
0.00816496
0.00335591
0.00773079
0.00480297
0.00538458
0.00674515
0.003923
0.00540844
0.00253753
0.00464349
0.00664122
0.00385617
0.00475914
0.00610053
0.00444926
0.00266071
0.0042961
0.00524835
0.00850625
0.0030461
0.00265931
0.00253146
0.00256468
0.00595977
0.00401357
0.00589371
0.00908937
0.00247251
0.00694151
0.00653133
0.00506486
0.00517094
0.00234186
0.00449873
0.00242847
0.00555457
0.0053647
0.00542164
0.0059113
0.00452365
0.00488626
0.00531595
0.00336465
0.00363584
0.0040925
0.00278034
0.00293811
0.00406492
0.00338771
0.00648027
0.00260053
0.0034915
0.00847979
0.00566779
0.00957572
0.00244493
0.00294964
0.0029404
0.00419889
0.00384363
0.00518654
0.00400524
0.00818007
0.00271504
0.00611153
0.00579251
0.00820958
0.00515173
0.00497259
0.00820012
0.00556815
0.00602739
0.00657519
0.00781902
0.00609249
0.00411961
0.00681996
0.00640503
0.00399537
0.00261515
0.00465832
0.00330314
0.00279041
0.00594419
0.00646444
0.00359104
0.00355681
0.00296674
0.00378303
0.00563386
0.00357517
0.00310628
0.00457994
0.00586028
0.0048487
0.00587167
0.00871573
0.00603847
0.00831707
0.00410876
0.00435133
0.00530331
0.00513387
0.00428855
0.00883425
0.00448799
0.00690454
0.00608819
0.00356043
0.00529151
0.00671992
0.00321309
0.00500727
0.0057203
0.002735
0.00835809
0.00363324
0.002459
0.00538737
0.00613424
0.00566478
0.0057192
0.00428956
0.00395987
0.00253369
0.00582065
0.00594845
0.0040154
0.00321252
0.00789168
0.0082277
0.00295159
0.0025412
0.00600607
0.00616514
0.00823447
0.00291391
0.0034107
0.0036263
0.0029239
0.00506612
0.00356403
0.00364888
0.00643366
0.00248402
0.00304408
0.00538419
0.00281814
0.00374376
0.00835645
0.00282959
0.00426054
0.00358092
0.00455383
0.00623071
0.00671758
0.00539606
0.00312399
0.00541033
0.0028207
0.0057197
0.00270107
0.00301228
0.00270004
0.00844755
0.0026224
0.00568163
0.00619957
0.00378606
0.00794796
0.00610378
0.00485199
0.0058499
0.00417815
0.00287043
0.00828508
0.00326574
0.00576739
0.00272726
0.00444613
0.0046668
0.00584161
0.0043584
0.00474259
0.00662036
0.0050667
0.00504433
0.00489933
0.00602247
0.00339575
0.00677662
0.00637678
0.00435955
0.0039373
0.00534467
0.00577135
0.0080827
0.00380545
0.00882068
0.00648595
0.00812406
0.00559452
0.00319521
0.00318645
0.00380852
0.00273952
0.00722667
0.00557517
0.00807895
0.00736842
0.00424192
0.0046391
0.00276659
0.00306511
0.00474433
0.00850056
0.00418129
0.00611775
0.00590959
0.00550323
0.00393658
0.00422265
0.00286245
0.00408911
0.0062939
0.00771738
0.00383457
0.00507696
0.00640054
0.00445592
0.00608514
0.00589267
0.00267109
0.00661803
0.00406358
0.00614445
0.00307328
0.00323578
0.00616551
0.00315561
0.00501683
0.00422551
0.00497148
0.0045804
0.00650687
0.00414569
0.00624887
0.00530651
0.00653474
0.00390678
0.00279631
0.00666664
0.0111015
0.00510283
0.00607158
0.00280482
0.00307037
0.00559344
0.00249468
0.00552744
0.00492666
0.00289927
0.00414477
0.00428816
0.00309004
0.00579898
0.00582826
0.00888423
0.00341886
0.00544222
0.00647886
0.00364262
0.00384508
0.00410479
0.00493664
0.00275837
0.00608119
0.00639557
0.00684031
0.00709049
0.00663091
0.00919374
0.00867798
0.00375297
0.00509273
0.00635476
0.00632805
0.00300538
0.00457828
0.00577386
0.00852956
0.00717301
0.00553571
0.00572727
0.00669729
0.00430383
0.00492567
0.00251245
0.00561999
0.00490923
0.00393891
0.00294556
0.00441977
0.00269837
0.00367883
0.00266078
0.00655897
0.00261703
0.00332107
0.00603203
0.00372224
0.00590052
0.00578342
0.00662904
0.00435474
0.00636773
0.00271146
0.00637419
0.0060772
0.0035971
0.00541271
0.00675992
0.00665545
0.00537246
0.00322482
0.00581965
0.00466221
0.0054701
0.00413944
0.00308061
0.00453148
0.00395122
0.0031147
0.00431201
0.00635703
0.00301746
0.00593448
0.00375017
0.00282665
0.00304369
0.00824233
0.00318242
0.00817015
0.00299179
0.00413004
0.00404786
0.0057624
0.00454455
0.0061851
0.00610833
0.00540583
0.00258619
0.00468233
0.00308234
0.00575586
0.00570285
0.00318597
0.0047112
0.00283646
0.00530187
0.00288005
0.00504916
0.00574954
0.00611486
0.00644606
0.00617583
0.00414495
0.00316005
0.00310127
0.00687684
0.00637211
0.00668585
0.004449
0.00294103
0.00278574
0.00289567
0.0058056
0.00494999
0.00603725
0.00405793
0.00630507
0.00448361
0.00483099
0.00388834
0.00784402
0.00273532
0.00545046
0.00957456
0.00863588
0.00440676
0.00262098
0.00605113
0.00409257
0.00664692
0.00676765
0.0027636
0.00369894
0.00492582
0.00506056
0.0087596
0.00334932
0.00522928
0.00525532
0.00395576
0.00310382
0.00580389
0.00481867
0.00561406
0.00362936
0.00842235
0.00282335
0.00440156
0.00446056
0.00663881
0.00303423
0.00388343
0.00334045
0.0024638
0.00805951
0.00301216
0.00286164
0.00600579
0.00362384
0.00464962
0.00393405
0.00508263
0.00329764
0.00645758
0.00437521
0.00432616
0.00402954
0.00550833
0.0036494
0.00428163
0.00511669
0.00473756
0.00387098
0.00620631
0.00393472
0.00691108
0.00714466
0.00289373
0.00704485
0.00336272
0.0038082
0.00571843
0.00438431
0.00554622
0.0081386
0.00824193
0.00645414
0.00583953
0.00556861
0.00299358
0.00611065
0.00292593
0.00441847
0.00523546
0.00659355
0.00511754
0.00848258
0.00347988
0.00254578
0.00240866
0.00459127
0.00788319
0.00603365
0.00355593
0.00816047
0.006399
0.00597485
0.00307222
0.0035572
0.00690146
0.00695747
0.0051809
0.00596996
0.00801981
0.00615641
0.00408922
0.00393513
0.00809332
0.00277256
0.00280114
0.00793265
0.002816
0.00724362
0.00290824
0.00394205
0.00653342
0.00515321
0.0106445
0.00260764
0.00631112
0.00626159
0.00460046
0.00316929
0.00515627
0.00292972
0.00265349
0.00704628
0.00411306
0.00273479
0.00693991
0.00637086
0.0042698
0.00859221
0.00528325
0.00496241
0.00621219
0.00369775
0.00380805
0.00907451
0.00820568
0.0057603
0.00610728
0.00661485
0.00258457
0.00880629
0.0057409
0.00446173
0.00423665
0.00601612
0.00624871
0.00376401
0.00498626
0.00648912
0.0041779
0.00367885
0.00499047
0.00271245
0.00294496
0.00478433
0.006276
0.00611534
0.00891011
0.00440727
0.00299144
0.00408965
0.00706569
0.0062203
0.00581455
0.00264755
0.00467617
0.00924367
0.00265237
0.00322884
0.00876926
0.00458933
0.0050186
0.00417173
0.0052349
0.00583308
0.00538558
0.00643095
0.00401327
0.008223
0.00563085
0.00521661
0.00395097
0.00379335
0.00528462
0.00534333
0.00594735
0.00448626
0.00797616
0.00559652
0.00411555
0.00364172
0.00510881
0.00444591
0.00347485
0.00462375
0.00392208
0.00417148
0.00723833
0.00238626
0.00475166
0.00338481
0.00606529
0.00628643
0.00555632
0.00479072
0.00531099
0.00667739
0.00282123
0.00408924
0.00414201
0.00869064
0.00278286
0.00530347
0.00567728
0.00458003
0.00392475
0.00267406
0.00683985
0.00361984
0.00540913
0.00291137
0.00825051
0.00895946
0.00310573
0.00280099
0.00444296
0.00469131
0.00586842
0.0050078
0.00630545
0.00526709
0.00463897
0.00590558
0.0028836
0.0050365
0.00522257
0.002719
0.00529493
0.00262956
0.00763331
0.00278503
0.00386236
0.00342269
0.00287201
0.00326973
0.00277662
0.00594508
0.00376275
0.0050036
0.00424259
0.00265277
0.00593585
0.00535479
0.0024176
0.00903251
0.00398889
0.00629638
0.00294504
0.00429105
0.00359724
0.0033385
0.0022006
0.00579563
0.00846209
0.0106328
0.00647893
0.00582708
0.00458996
0.00527278
0.00566034
0.0068266
0.00240586
0.00594482
0.00308008
0.0029174
0.00312276
0.00672141
0.00519279
0.00899037
0.00530661
0.00599759
0.00896117
0.00421006
0.00367975
0.00521949
0.00500268
0.00596926
0.00300079
0.00286681
0.00428365
0.00485869
0.00386534
0.00489569
0.00715683
0.00318897
0.0044892
0.00310692
0.00655711
0.00265249
0.00270466
0.00445455
0.00483906
0.00487891
0.00296403
0.00277052
0.00331167
0.00285088
0.00370726
0.00288125
0.00281627
0.00635814
0.00384714
0.00350074
0.00424776
0.00593618
0.00354661
0.00580236
0.0059454
0.00277575
0.00398139
0.004981
0.00438299
0.00262696
0.00658323
0.00578826
0.00364433
0.00815381
0.00273528
0.0045857
0.0056427
0.00389174
0.00536748
0.00303528
0.00283174
0.00320832
0.00273206
0.00382575
0.00455473
0.00902184
0.00349569
0.00464107
0.00521556
0.00275471
0.00406001
0.00456293
0.0124761
0.0067121
0.00567398
0.00351822
0.00560252
0.00500013
0.00342772
0.00278826
0.00301694
0.00542256
0.00798278
0.00538658
0.00492606
0.00929358
0.00567263
0.0037128
0.00396155
0.0047625
0.00236353
0.0032245
0.00315858
0.00377667
0.00856209
0.00402176
0.00293298
0.00596147
0.0048116
0.00404147
0.00267298
0.00802185
0.00628936
0.00262796
0.00426889
0.00305844
0.00469379
0.00313118
0.00612412
0.00681823
0.00272885
0.00791857
0.00477386
0.00351941
0.00793158
0.00407681
0.0050288
0.0040374
0.00467192
0.00607874
0.00650325
0.00644212
0.00331557
0.00476701
0.00326412
0.00454028
0.00406013
0.00267473
0.00297675
0.00404244
0.0028472
0.0067082
0.00258972
0.00584493
0.00436853
0.00294491
0.00536325
0.0100884
0.00303529
0.00290344
0.00459248
0.00682676
0.00247103
0.00941251
0.00297131
0.00313456
0.00582727
0.00526805
0.00239066
0.00438828
0.00845779
0.00649195
0.00508326
0.00284823
0.0067138
0.00404864
0.00457781
0.00354548
0.00408481
0.00681434
0.00392087
0.00539853
0.00499612
0.00385883
0.00326353
0.00291614
0.00856418
0.00474659
0.00907847
0.00567191
0.00275634
0.00449438
0.00348566
0.00709719
0.00545805
0.00480962
0.00278798
0.00400199
0.00296231
0.00619697
0.00423299
0.00287181
0.00320533
0.00274046
0.00671438
0.0039034
0.00804987
0.00351191
0.00674836
0.00288227
0.0083694
0.0049286
0.00400535
0.00428245
0.00257825
0.00386492
0.0042234
0.00258085
0.00457056
0.00545124
0.00625382
0.00886177
0.004637
0.00695871
0.0052917
0.00266402
0.00434151
0.00574891
0.00398089
0.00560517
0.00527345
0.00590938
0.00310701
0.00876212
0.00843685
0.00604205
0.00831061
0.00466455
0.00606935
0.00574061
0.003605
0.00315448
0.00569633
0.00685557
0.00457407
0.00448606
0.00375198
0.00626468
0.00475426
0.00240708
0.0035505
0.00387172
0.00572589
0.00655751
0.00440251
0.00452827
0.00477348
0.0029804
0.00301809
0.00554139
0.00541186
0.00215238
0.00304589
0.00457372
0.00630739
0.00523164
0.00278317
0.0023531
0.00357
0.00418606
0.0052917
0.00593381
0.00617513
0.00264786
0.00351232
0.00618325