/*--------------------------------*- C++ -*----------------------------------*\
| =========                 |                                                 |
| \\      /  F ield         | OpenFOAM: The Open Source CFD Toolbox           |
|  \\    /   O peration     | Version:  2406                                  |
|   \\  /    A nd           | Website:  www.openfoam.com                      |
|    \\/     M anipulation  |                                                 |
\*---------------------------------------------------------------------------*/
FoamFile
{
    version     2.0;
    format      ascii;
    arch        "LSB;label=32;scalar=64";
    class       volVectorField;
    location    "24";
    object      momentum:momentum;
}
// * * * * * * * * * * * * * * * * * * * * * * * * * * * * * * * * * * * * * //

dimensions      [1 1 -1 0 0 0 0];

internalField   nonuniform List<vector> 
59516
(
(2.43588e-07 9.7296e-10 -9.33115e-10)
(1.80185e-07 1.44452e-11 -1.86807e-10)
(2.16041e-07 -3.21102e-09 -9.92949e-11)
(1.74429e-07 3.44596e-09 1.84661e-09)
(2.00323e-07 7.19752e-10 -7.49522e-09)
(5.03623e-08 -2.41088e-09 -5.36431e-09)
(2.18131e-07 2.39661e-10 -2.47514e-09)
(2.12153e-07 1.68058e-09 1.12358e-09)
(1.66537e-07 8.46203e-10 1.23374e-09)
(9.2479e-08 -1.74582e-09 4.14085e-09)
(1.94665e-07 9.42813e-10 -9.74025e-10)
(1.12794e-07 1.65825e-09 -5.49426e-09)
(3.40566e-07 3.08203e-09 -1.56039e-09)
(1.90452e-08 -4.41814e-11 -2.14245e-10)
(1.74902e-07 4.26295e-09 7.96546e-09)
(9.5981e-08 7.224e-09 -3.77363e-09)
(2.39855e-07 6.44898e-10 -7.03743e-11)
(1.62774e-07 8.45468e-09 -7.97525e-09)
(3.39388e-07 9.64532e-09 2.84762e-09)
(3.38034e-07 -1.95199e-09 4.70539e-10)
(1.08492e-07 4.79181e-10 -1.31958e-09)
(3.09367e-07 8.51829e-10 1.11088e-09)
(3.36442e-07 1.2658e-09 -3.1433e-10)
(4.09347e-08 -1.463e-09 -5.07629e-11)
(2.94671e-07 -1.67758e-09 2.82143e-09)
(2.25154e-07 4.50584e-09 4.78895e-09)
(6.11867e-08 9.80481e-10 -3.31153e-09)
(7.86794e-08 5.64428e-09 1.19592e-09)
(1.56631e-07 3.55181e-09 2.30842e-10)
(1.63616e-08 -2.61424e-09 5.97772e-10)
(1.89219e-07 -3.63187e-08 -7.85589e-09)
(8.86769e-08 5.82624e-09 -1.32465e-09)
(1.75345e-07 -1.31586e-10 1.34385e-09)
(1.82983e-07 -1.20582e-09 4.88939e-09)
(1.30262e-07 1.10354e-09 1.60497e-09)
(3.90106e-07 -1.31896e-09 5.40052e-10)
(1.56534e-08 -1.4312e-09 -2.50155e-09)
(1.34034e-07 5.28303e-09 -1.18207e-08)
(2.85081e-07 -6.23659e-09 3.54277e-10)
(2.6058e-07 -4.63872e-09 1.59617e-09)
(2.78529e-07 -2.3919e-09 4.82881e-10)
(3.99458e-07 -1.36368e-08 -1.3674e-08)
(3.35022e-07 -6.4578e-11 5.71283e-10)
(1.19619e-07 -1.5822e-09 1.10455e-09)
(2.65094e-07 -1.27835e-09 9.72897e-10)
(1.16325e-07 -2.81965e-09 -3.53897e-09)
(3.28171e-07 -6.84209e-10 -3.72661e-09)
(2.34419e-07 -3.38619e-10 6.62381e-11)
(2.51305e-07 -1.98111e-08 2.79906e-08)
(2.28029e-07 4.27559e-09 4.2118e-09)
(1.63821e-07 1.65915e-08 -2.29547e-08)
(8.81141e-08 -7.043e-09 4.77405e-09)
(3.31679e-07 1.74382e-09 -4.4249e-09)
(3.10318e-07 -6.55348e-11 -1.29488e-09)
(9.08012e-08 4.79246e-09 -1.9017e-11)
(2.49706e-07 -4.06853e-10 -6.29562e-10)
(1.95366e-07 8.21995e-09 8.87495e-09)
(9.23381e-08 7.22658e-09 -6.03581e-09)
(1.80304e-07 -1.82485e-09 3.79037e-10)
(1.4323e-07 4.25601e-09 5.27585e-09)
(1.99561e-07 -3.42859e-12 8.60109e-10)
(1.79302e-08 2.30291e-09 -6.51277e-10)
(2.32175e-07 -1.42044e-09 -1.11793e-09)
(3.02776e-07 2.19612e-10 -1.13929e-09)
(3.10907e-07 2.30876e-09 -1.23028e-09)
(2.04676e-07 1.83868e-09 1.92021e-09)
(2.24586e-08 -1.48061e-09 2.06613e-09)
(7.65479e-08 6.65907e-10 -2.39166e-10)
(1.97253e-07 -7.65656e-09 3.56344e-08)
(1.69724e-07 1.55827e-09 8.28055e-10)
(6.21446e-08 1.98046e-09 4.47195e-10)
(1.42224e-07 3.27167e-10 -4.21889e-10)
(2.766e-08 1.72603e-09 -4.64392e-09)
(1.8167e-07 -1.10548e-09 -4.46879e-10)
(3.16648e-07 -2.5844e-09 6.47975e-10)
(3.40195e-07 1.20402e-09 6.83006e-10)
(1.96891e-07 7.02062e-10 7.15807e-11)
(2.16612e-07 7.80236e-10 -9.69151e-10)
(9.83175e-08 -3.86661e-09 3.50528e-09)
(1.81003e-07 2.26807e-09 3.92826e-09)
(6.01072e-08 4.49675e-09 2.1571e-09)
(1.63011e-07 2.0454e-09 2.29895e-09)
(1.78189e-07 1.29756e-09 2.58563e-09)
(2.19986e-08 -8.72366e-10 3.33155e-09)
(2.05318e-07 2.13146e-09 3.0514e-09)
(3.27231e-07 -1.90264e-09 9.25798e-12)
(3.72171e-08 -1.56057e-09 5.3759e-10)
(4.86986e-07 -9.81732e-10 1.69176e-09)
(1.24766e-07 2.27732e-09 7.4434e-09)
(1.68665e-07 1.20354e-08 -7.00113e-09)
(1.81195e-07 -4.37173e-10 -1.30971e-08)
(1.80905e-07 2.19243e-09 2.81666e-10)
(2.25825e-07 -3.57203e-10 7.17174e-10)
(1.76359e-07 4.78787e-10 -4.24628e-10)
(1.6165e-07 -5.68194e-10 2.50951e-10)
(1.83392e-07 -1.72384e-08 6.98036e-09)
(1.21796e-07 -1.04118e-09 1.29139e-09)
(9.62981e-08 -3.0272e-09 -7.25446e-09)
(1.22644e-07 3.3356e-09 -4.7009e-10)
(1.99006e-07 -4.72394e-10 1.81208e-09)
(7.16589e-08 1.39898e-09 2.90954e-09)
(3.16455e-08 1.49333e-09 -3.72158e-09)
(2.80295e-08 9.13485e-10 4.07799e-09)
(9.85934e-08 -1.30538e-09 -4.71852e-09)
(2.34173e-07 6.56197e-10 -8.0683e-10)
(1.52836e-07 3.71781e-10 9.28741e-10)
(6.63127e-08 6.16115e-09 -2.44488e-09)
(1.4918e-07 4.00545e-10 -7.07296e-10)
(1.89592e-07 -1.34507e-09 -1.01668e-09)
(2.13546e-07 1.70104e-09 -9.57513e-09)
(2.78824e-07 2.71651e-08 -2.77451e-08)
(5.14511e-08 5.69263e-09 -7.11512e-10)
(2.10907e-07 2.84012e-09 -1.1299e-08)
(2.18727e-07 3.05649e-08 -1.51599e-08)
(2.04251e-07 -5.71918e-10 5.78098e-10)
(1.49041e-07 1.58683e-09 7.34369e-10)
(1.43877e-07 1.41858e-09 -6.48953e-09)
(1.43813e-07 8.35647e-10 8.18544e-10)
(2.16271e-08 -3.86117e-10 8.99547e-10)
(2.51756e-07 2.93001e-09 4.62782e-10)
(3.40443e-07 5.33616e-10 8.28375e-11)
(1.55775e-07 1.02088e-09 2.80439e-10)
(1.49881e-07 1.16151e-10 -1.84529e-10)
(1.61413e-07 4.42118e-10 4.51861e-10)
(1.32064e-07 -1.52185e-08 2.86791e-09)
(1.50344e-07 1.44073e-09 -2.70017e-09)
(4.28709e-08 -6.06334e-10 2.88351e-09)
(2.10251e-07 -1.51276e-08 -2.04615e-10)
(1.63283e-07 -4.80552e-09 2.35844e-08)
(1.34568e-07 4.33883e-10 5.99762e-10)
(2.35368e-07 7.51725e-10 2.34276e-09)
(3.46253e-07 3.74786e-09 4.99562e-09)
(2.67639e-08 1.60323e-09 -1.92063e-09)
(2.49062e-07 -4.09598e-11 1.17755e-09)
(3.43291e-07 2.11981e-09 1.06181e-09)
(2.08955e-07 -2.09954e-09 -2.43214e-09)
(1.52287e-07 1.68428e-08 -1.18667e-08)
(3.23587e-07 -1.00184e-09 2.14575e-09)
(6.09564e-08 4.06284e-09 2.22275e-10)
(1.73085e-07 1.4185e-09 -2.30802e-09)
(8.88443e-08 -1.74586e-09 -4.69481e-09)
(2.7474e-07 4.84956e-10 -3.22429e-10)
(1.63129e-08 6.90863e-10 1.46677e-09)
(1.54723e-07 -1.20292e-09 -7.96294e-10)
(1.8342e-07 4.99474e-10 1.76054e-10)
(2.76991e-07 2.78133e-09 -3.156e-11)
(2.03257e-07 -1.58487e-09 3.73793e-10)
(2.15579e-07 7.55589e-10 -3.60392e-09)
(6.40453e-08 -1.09124e-09 1.78318e-09)
(2.2162e-07 -1.12478e-09 -1.38756e-09)
(3.46897e-07 -1.19042e-09 -2.12857e-09)
(6.26819e-08 -2.37867e-09 -1.7135e-10)
(3.49452e-07 -1.29616e-09 2.80444e-09)
(2.06474e-07 -2.38668e-10 1.56596e-09)
(1.7618e-07 -1.05036e-09 2.97162e-09)
(1.75598e-08 -4.55323e-10 2.03307e-09)
(2.95509e-07 1.01451e-09 -8.64197e-10)
(3.5193e-07 2.75951e-09 -1.53419e-10)
(1.43753e-07 2.1709e-09 2.25209e-10)
(1.92004e-08 2.43269e-09 -2.60679e-09)
(1.01094e-07 1.79293e-09 -4.60919e-09)
(1.272e-07 -5.67553e-09 -4.16581e-09)
(4.73191e-08 -2.03946e-09 3.58236e-10)
(2.72622e-08 -4.01716e-10 -5.50538e-10)
(1.76478e-07 2.13199e-09 3.7518e-09)
(2.89663e-07 1.80909e-10 1.8898e-09)
(1.75076e-07 -1.97253e-09 6.06049e-10)
(2.39327e-07 7.17587e-10 4.82195e-10)
(2.08269e-08 -1.33414e-09 2.37216e-09)
(2.06149e-07 -4.40925e-10 8.45602e-10)
(9.64619e-08 1.49942e-09 1.35077e-09)
(7.76012e-08 1.11693e-09 -1.15688e-09)
(1.21002e-07 2.91405e-09 1.57161e-09)
(1.5028e-07 -8.15806e-10 9.06926e-10)
(9.84708e-08 -1.78344e-09 5.48272e-10)
(4.55436e-07 2.27085e-09 -6.04462e-09)
(2.1771e-07 3.57617e-10 -1.29129e-09)
(3.03501e-07 -2.17104e-09 -5.81198e-10)
(1.68288e-07 -3.42359e-09 7.78807e-09)
(7.24231e-08 -1.75894e-10 -9.12007e-10)
(2.98428e-07 3.06798e-09 2.42813e-09)
(4.99904e-08 -4.47367e-09 -1.59223e-09)
(3.55969e-08 -7.74775e-10 -2.93493e-09)
(1.18985e-07 -3.41935e-09 -2.95357e-10)
(1.74085e-07 -1.58783e-10 1.25337e-09)
(1.09283e-07 4.38331e-10 1.0871e-09)
(5.2991e-08 -1.04524e-09 -4.2665e-09)
(2.40502e-08 -1.97463e-10 4.30503e-10)
(1.98658e-07 3.92982e-10 1.09823e-09)
(2.44754e-07 -2.91551e-09 -4.42422e-10)
(1.55213e-07 -1.12923e-09 3.11696e-09)
(1.31898e-07 7.53335e-09 9.98136e-10)
(1.9638e-07 -6.37224e-10 8.89107e-11)
(1.087e-07 4.9889e-09 -6.32235e-11)
(3.22692e-07 -2.17619e-09 2.65534e-10)
(3.29371e-08 -6.20645e-11 1.06701e-09)
(1.10463e-07 1.22964e-09 -9.37355e-10)
(6.61579e-08 -1.71077e-09 1.80363e-10)
(1.97089e-07 4.70184e-09 5.64087e-09)
(2.50235e-07 1.57378e-10 6.58304e-10)
(8.52183e-08 -2.48086e-09 3.188e-10)
(1.60404e-07 3.598e-10 -4.44039e-10)
(3.38469e-07 -1.03179e-09 2.53632e-09)
(1.88094e-08 2.20933e-09 -1.39599e-09)
(2.2854e-07 -2.85701e-09 -9.45776e-10)
(2.32555e-07 -1.78529e-10 7.83527e-11)
(2.9486e-07 -8.72818e-10 4.23046e-10)
(1.81361e-07 8.09281e-10 2.48351e-10)
(2.12306e-08 -4.26029e-10 1.43943e-10)
(3.19302e-07 -4.05699e-09 -1.06416e-09)
(6.91493e-08 5.15159e-09 3.63338e-09)
(2.74131e-08 -4.25075e-09 -6.17536e-10)
(2.29107e-07 9.29997e-10 -2.44356e-09)
(1.08096e-07 -1.75887e-09 1.21681e-09)
(3.10869e-07 2.30786e-09 -2.80485e-10)
(2.55717e-07 -1.63933e-09 1.5061e-09)
(2.68418e-07 1.45111e-09 5.7232e-10)
(1.96475e-07 -9.05784e-10 4.59867e-10)
(9.44272e-08 4.29712e-09 -4.15779e-09)
(2.07307e-07 -7.79354e-10 6.58096e-10)
(1.37434e-07 5.74402e-09 3.3971e-09)
(2.061e-07 1.50547e-09 -5.01782e-10)
(1.60437e-07 8.0343e-10 1.32307e-09)
(8.84788e-08 -2.80991e-10 1.79658e-09)
(2.59522e-07 -3.01532e-09 1.11861e-09)
(2.71715e-07 7.87558e-10 -1.27586e-09)
(3.66339e-08 -4.2256e-10 1.67782e-09)
(7.57954e-08 2.82325e-09 -3.58316e-09)
(1.74929e-07 -9.13005e-10 1.54783e-09)
(1.34171e-07 8.01409e-10 -9.24233e-09)
(2.15172e-07 -1.39693e-09 4.12744e-10)
(1.57441e-07 7.56787e-10 -6.31454e-10)
(2.654e-07 3.78268e-10 2.13955e-09)
(3.10879e-08 -2.77122e-09 -1.80909e-09)
(3.62704e-08 1.00395e-09 -2.03994e-09)
(4.61995e-08 9.7894e-10 -1.61255e-09)
(1.23928e-07 5.10023e-10 1.84208e-09)
(1.88485e-07 -3.68804e-09 1.32529e-09)
(3.86948e-07 2.45258e-10 3.27394e-09)
(9.8078e-08 -2.41874e-09 2.47929e-09)
(2.08831e-07 6.69112e-11 1.66927e-09)
(2.2181e-08 4.91015e-10 3.44463e-09)
(1.23488e-07 -2.93481e-10 1.32653e-09)
(3.20376e-08 4.49462e-10 3.40417e-09)
(1.38594e-07 5.67854e-10 5.9746e-10)
(1.69772e-07 -6.18734e-10 -1.16235e-09)
(1.89033e-07 -3.81253e-10 7.81324e-10)
(2.10072e-07 -8.11907e-11 -5.01237e-09)
(2.50304e-07 -9.28296e-10 1.55422e-09)
(2.146e-07 5.82145e-10 3.31336e-10)
(3.48851e-07 -4.84653e-09 3.12943e-09)
(2.08625e-07 1.37387e-10 1.20134e-09)
(1.5967e-07 1.8373e-10 1.35908e-09)
(2.71244e-07 5.90804e-10 -3.51247e-10)
(2.71941e-07 1.89481e-09 9.42093e-10)
(2.79552e-07 4.32159e-10 8.55617e-10)
(1.2609e-07 8.35332e-10 -7.18683e-10)
(2.6565e-07 -4.6309e-10 1.93772e-09)
(9.32341e-08 -8.37603e-10 -5.35718e-09)
(1.09757e-07 6.69044e-10 3.66245e-09)
(2.22296e-07 1.53458e-09 -7.44867e-10)
(2.38696e-07 -1.5135e-09 1.87928e-09)
(2.52112e-07 3.57021e-09 3.17556e-09)
(2.47035e-07 -1.71197e-09 1.76148e-09)
(8.05292e-08 -4.67734e-10 1.75024e-09)
(1.20515e-07 5.42863e-09 -3.07831e-09)
(2.81972e-07 1.16603e-09 -6.68765e-10)
(2.36032e-07 1.8724e-09 1.99533e-09)
(7.05466e-08 -1.01366e-09 -7.903e-10)
(8.49092e-08 -4.30706e-10 -2.01143e-09)
(1.77812e-07 7.44894e-10 -4.32934e-09)
(1.62055e-07 -8.66271e-10 -4.51041e-10)
(3.35324e-07 -6.32999e-09 1.06381e-09)
(1.64046e-07 -1.51347e-09 1.57143e-09)
(3.02103e-07 -3.35267e-09 1.39557e-09)
(2.07379e-07 -1.45544e-09 6.23358e-09)
(2.30548e-08 2.90276e-09 -1.64046e-09)
(2.75253e-07 -1.43257e-09 2.22964e-09)
(3.38492e-08 2.12427e-09 -2.84273e-09)
(6.02769e-08 -2.61805e-09 1.87558e-09)
(2.94593e-07 -8.80841e-10 2.10659e-09)
(2.47365e-07 -1.62188e-09 2.73278e-10)
(3.1943e-08 3.49945e-09 3.69333e-09)
(3.11695e-07 2.25408e-09 -9.00082e-10)
(2.57862e-07 3.92602e-09 -1.11611e-10)
(2.22816e-07 1.12782e-09 -3.04932e-10)
(2.73135e-07 -6.72223e-10 5.02234e-10)
(2.77167e-08 3.45532e-09 6.79601e-10)
(2.34664e-07 -1.74897e-09 1.75981e-09)
(1.21958e-07 -1.55077e-09 -1.3271e-10)
(1.37587e-07 -4.2278e-10 1.04577e-09)
(2.5095e-07 -1.58863e-09 2.19057e-09)
(1.64526e-07 1.41854e-09 1.68492e-09)
(1.90338e-07 3.19541e-10 -9.64921e-10)
(2.38162e-07 1.05348e-09 1.41588e-10)
(4.4375e-08 -1.55738e-09 -2.39175e-09)
(2.5518e-07 -3.74045e-09 5.41067e-10)
(1.90658e-07 -1.62047e-09 -7.63812e-10)
(3.01188e-07 -3.01224e-09 1.3592e-09)
(2.31226e-07 -2.60652e-09 3.94819e-10)
(3.22683e-07 -1.90786e-09 1.67152e-10)
(1.54243e-07 1.06195e-09 3.52937e-09)
(2.28924e-08 -3.24299e-10 1.54453e-09)
(4.10604e-08 -1.08613e-09 8.20393e-10)
(4.74281e-07 -5.58108e-09 -7.56964e-11)
(2.1587e-08 -1.33699e-09 3.39214e-09)
(1.91534e-07 -5.67745e-10 -3.76412e-09)
(8.15946e-08 4.5972e-09 1.76166e-09)
(2.81007e-07 -2.07396e-09 6.75078e-10)
(3.29712e-07 9.39228e-10 -1.19806e-09)
(3.01269e-07 -1.62126e-09 -6.97239e-12)
(1.3637e-07 -1.14141e-09 -2.99743e-09)
(3.09858e-07 3.43284e-09 -4.66461e-09)
(7.72086e-08 -6.56972e-09 5.02335e-09)
(9.62811e-08 1.53935e-09 2.73702e-09)
(1.80282e-07 -1.66018e-09 -3.36383e-11)
(1.68609e-07 2.75382e-09 -1.45961e-09)
(2.69354e-07 3.13177e-08 9.12506e-09)
(2.0434e-07 -3.84902e-09 2.60226e-09)
(7.35187e-08 -5.48592e-10 -1.13472e-09)
(1.1423e-07 -1.68797e-09 3.01131e-09)
(2.18061e-07 -7.88549e-10 -2.40206e-09)
(1.86057e-07 -1.56955e-10 -3.80839e-12)
(3.5401e-07 2.616e-09 9.57905e-10)
(1.87536e-07 1.92932e-10 1.66431e-09)
(4.51398e-07 -5.7162e-09 1.19394e-09)
(1.70881e-07 3.43358e-09 6.39073e-09)
(3.38843e-07 3.8543e-09 4.23083e-10)
(2.42693e-07 2.6953e-09 -2.86891e-10)
(1.80816e-07 6.39855e-10 4.29162e-10)
(3.07587e-07 -4.93896e-10 1.62233e-09)
(1.17091e-07 2.37497e-09 -5.81518e-09)
(2.68764e-08 -1.69019e-09 -3.17755e-09)
(2.79491e-07 1.68041e-10 1.16918e-09)
(6.64485e-08 -2.90834e-09 3.51277e-09)
(3.29899e-08 2.79658e-10 -2.57262e-11)
(3.55588e-07 -5.01739e-10 3.13231e-09)
(1.93281e-07 -7.86501e-10 8.06132e-10)
(1.13095e-07 -3.23337e-09 -4.03188e-09)
(2.19561e-07 -9.21098e-10 1.04442e-09)
(2.9531e-07 -2.67866e-09 1.73213e-10)
(3.52846e-07 -6.92944e-10 -2.15257e-09)
(2.32734e-07 8.66479e-10 -6.26468e-10)
(3.51747e-08 1.49929e-09 3.28239e-10)
(2.9606e-07 1.02748e-09 -8.38967e-10)
(1.84763e-07 -9.30301e-10 7.41009e-10)
(1.10036e-07 -4.03321e-10 1.42674e-09)
(2.45508e-07 -1.06307e-09 2.15742e-09)
(2.15422e-07 5.65938e-10 5.15118e-10)
(1.74681e-07 1.50087e-11 -1.65912e-09)
(2.03143e-07 -5.73075e-11 -7.57491e-10)
(2.57228e-07 -5.8153e-10 1.25174e-09)
(1.96585e-07 -2.07553e-09 5.634e-10)
(8.62991e-08 -8.65111e-10 -1.58766e-10)
(2.28675e-08 8.04516e-10 -6.8055e-10)
(4.45162e-08 -3.69856e-09 9.30768e-11)
(2.38359e-07 7.78478e-10 1.97183e-09)
(2.68873e-07 -1.91385e-08 3.18656e-08)
(1.16081e-07 -6.35469e-09 -9.1938e-09)
(1.21566e-07 2.58851e-10 4.62823e-11)
(2.58679e-07 4.69978e-10 3.57171e-09)
(3.12251e-07 3.55852e-10 7.30359e-10)
(2.11103e-07 5.36017e-10 2.52585e-09)
(3.41657e-07 1.86645e-09 8.79972e-10)
(3.43325e-07 -1.02837e-09 -5.4743e-10)
(2.12417e-07 1.17841e-09 4.78022e-10)
(1.30435e-07 1.30705e-09 2.38877e-10)
(2.79651e-08 -8.75835e-10 -3.15544e-10)
(2.40574e-07 -4.66236e-08 6.01706e-09)
(9.7687e-08 3.04454e-09 1.24732e-09)
(7.2943e-08 -3.58867e-09 -1.27944e-09)
(7.72259e-08 2.20507e-09 3.35791e-10)
(1.58202e-07 7.30929e-10 5.19826e-10)
(1.87397e-07 -3.0129e-10 -8.89861e-12)
(2.18231e-07 7.24632e-10 -3.84815e-10)
(1.97501e-08 1.18028e-09 -1.66829e-09)
(1.72416e-07 -3.88068e-10 -1.43977e-10)
(7.47065e-08 1.8817e-09 -1.51526e-09)
(1.67518e-07 -1.12896e-09 -1.57094e-10)
(6.29265e-08 -1.08824e-09 -5.18742e-10)
(1.64977e-07 -2.78521e-09 2.94946e-09)
(2.3533e-07 -4.42026e-09 1.81285e-09)
(1.73918e-07 5.1437e-10 1.32597e-09)
(2.2482e-08 2.0701e-09 -2.41529e-09)
(1.26216e-07 -1.17591e-09 6.29889e-09)
(2.37394e-07 7.19469e-10 7.94884e-10)
(2.93267e-08 -1.86655e-09 -2.09785e-09)
(2.86819e-07 2.40709e-09 1.27058e-08)
(1.88545e-07 -7.59113e-10 3.22175e-09)
(3.05817e-07 1.3398e-09 -2.86128e-09)
(2.15991e-07 4.98463e-09 -3.73573e-09)
(1.01578e-07 -1.09888e-09 1.99312e-09)
(3.66551e-07 3.36683e-09 -9.98325e-10)
(1.42862e-07 -1.37228e-08 -1.2825e-08)
(2.75617e-07 3.49719e-09 9.65106e-10)
(1.55147e-07 1.07479e-08 1.16732e-08)
(1.59601e-07 -4.7717e-09 9.35839e-10)
(1.60748e-07 -1.13659e-09 -4.00407e-09)
(2.31874e-07 1.4801e-09 3.40592e-10)
(4.67349e-07 4.95523e-09 9.7519e-10)
(9.0353e-08 -8.47285e-10 4.23363e-10)
(3.44865e-07 2.08896e-09 -1.11484e-09)
(1.29365e-07 -1.05051e-09 -2.57708e-09)
(3.69512e-07 -2.00908e-09 1.25151e-09)
(2.81784e-07 -1.28047e-09 1.5039e-09)
(7.94047e-08 2.14769e-09 -5.5276e-09)
(2.18357e-07 -1.05289e-09 -4.12522e-10)
(3.71918e-07 -3.49761e-09 2.05601e-09)
(2.21125e-07 1.73323e-10 -2.22861e-11)
(2.09501e-07 4.62088e-11 1.09184e-10)
(2.75182e-08 -7.61804e-10 -3.92412e-09)
(2.29252e-08 1.29514e-09 -3.06943e-09)
(2.96904e-07 1.00092e-09 -3.10537e-09)
(2.44838e-07 3.93495e-10 -8.19111e-11)
(1.85727e-07 -9.8339e-10 -1.18109e-09)
(4.20485e-08 4.6734e-10 -2.79902e-09)
(7.77981e-08 -2.47363e-10 1.79644e-10)
(3.25682e-07 -3.95937e-09 1.88071e-09)
(1.41008e-07 8.52799e-10 7.91548e-10)
(2.68871e-07 2.46274e-09 -1.06557e-10)
(2.40589e-07 5.56725e-10 -4.61826e-10)
(1.90922e-07 1.90039e-09 1.15217e-09)
(2.05167e-07 2.42035e-09 1.26606e-09)
(1.34598e-07 5.73407e-10 2.1783e-10)
(1.79917e-07 2.19122e-09 3.55086e-10)
(9.94582e-08 -1.81363e-09 -5.23518e-09)
(2.5676e-07 -1.5067e-09 -4.60272e-10)
(2.01194e-07 5.59835e-10 -2.27849e-09)
(1.98721e-07 2.04557e-09 3.69518e-10)
(1.89519e-07 3.68441e-10 -2.11955e-10)
(3.38391e-07 7.02501e-10 -1.297e-09)
(2.57014e-07 2.33317e-09 6.90124e-11)
(7.78723e-08 4.54818e-09 3.89225e-09)
(5.14069e-08 1.24302e-09 8.75202e-10)
(2.32362e-08 2.1157e-09 -2.35691e-09)
(2.16384e-07 3.66529e-09 5.75918e-09)
(2.44942e-07 8.5441e-11 9.94829e-11)
(2.63737e-07 -9.78043e-10 1.00829e-09)
(1.97998e-07 3.13545e-09 1.01883e-09)
(3.46706e-08 2.52243e-10 1.25515e-09)
(2.63686e-08 -2.55546e-10 3.06916e-09)
(1.90224e-07 -1.05931e-10 3.12897e-09)
(2.15444e-07 1.78075e-10 1.81681e-09)
(2.66579e-07 1.02054e-09 1.19812e-09)
(3.05432e-07 2.4025e-09 -5.36052e-10)
(2.01755e-07 -3.69342e-10 -1.96971e-09)
(2.82224e-07 2.46645e-09 -2.36486e-10)
(3.79295e-07 3.03924e-09 7.70847e-11)
(3.70155e-08 -6.67177e-10 3.53439e-09)
(1.89253e-07 -1.1453e-09 5.66027e-10)
(8.28192e-08 8.01853e-10 3.91782e-09)
(9.77426e-08 -9.50895e-09 2.04109e-09)
(1.19021e-07 6.3263e-11 -6.21875e-10)
(1.57829e-07 -1.08643e-09 1.31733e-09)
(2.44121e-07 1.239e-09 -4.80597e-10)
(2.29186e-08 -4.32386e-09 -1.76118e-09)
(3.05908e-07 4.26365e-09 1.98954e-10)
(2.25946e-07 -6.95852e-11 1.53814e-11)
(1.8121e-07 1.93793e-09 4.90228e-10)
(2.22712e-07 2.55696e-09 6.31913e-10)
(1.5874e-07 4.69641e-10 7.12923e-10)
(2.23455e-07 1.59199e-09 9.65091e-10)
(2.51222e-07 2.65183e-10 7.0888e-10)
(2.50234e-07 1.01923e-09 4.90524e-10)
(1.74978e-07 5.14814e-09 -3.47473e-09)
(2.35929e-07 -6.74985e-10 -1.06025e-10)
(2.78942e-07 -3.31453e-09 -1.70098e-09)
(2.17433e-08 -1.30461e-09 1.31566e-09)
(2.5895e-07 -4.08121e-10 -1.89116e-09)
(1.96181e-07 2.61764e-09 -7.35038e-11)
(7.43419e-08 -1.90438e-09 6.20869e-09)
(1.89598e-07 1.11275e-09 -2.68504e-09)
(3.04655e-07 3.75014e-10 -1.68912e-09)
(2.2903e-07 -2.10795e-10 4.78261e-10)
(1.31509e-07 4.74881e-10 -3.58479e-09)
(2.13665e-08 -1.90338e-09 -2.36022e-09)
(2.21735e-07 -9.23114e-10 -1.13581e-09)
(3.43175e-07 5.66759e-09 -3.29801e-09)
(2.1759e-07 -4.87449e-10 7.86971e-11)
(1.93366e-07 4.57903e-10 8.09085e-10)
(6.61703e-08 3.25753e-09 3.53994e-09)
(2.44457e-07 -3.20304e-12 -1.39002e-09)
(2.88476e-08 2.39803e-09 -3.37052e-09)
(1.56943e-07 2.49352e-10 -1.01707e-10)
(2.08628e-07 2.32974e-08 -7.39984e-09)
(2.25057e-07 3.11849e-10 -1.6209e-10)
(1.0214e-07 -3.86202e-10 3.34757e-09)
(1.96653e-07 -1.35256e-09 -3.43591e-09)
(1.26124e-07 1.00484e-09 -2.04824e-09)
(5.52481e-08 3.63466e-09 2.8633e-09)
(3.78762e-07 2.03839e-09 9.07874e-10)
(1.78369e-07 1.69711e-09 3.24873e-10)
(2.11554e-08 6.36505e-10 1.94675e-09)
(2.50027e-07 -2.94655e-09 -1.42658e-10)
(2.30169e-07 -3.05458e-09 7.48232e-10)
(4.50396e-08 -5.09591e-12 -2.37392e-09)
(1.43348e-07 6.50073e-09 2.9011e-10)
(1.11575e-07 3.86996e-09 3.41286e-09)
(1.77101e-07 1.40246e-09 7.60252e-10)
(2.16067e-07 -1.61308e-09 2.23513e-10)
(3.70314e-08 -7.81838e-10 1.63157e-09)
(1.04631e-07 -3.41033e-09 -2.13477e-09)
(1.16121e-07 1.96963e-09 -2.79919e-10)
(1.83864e-07 2.21506e-09 5.03902e-11)
(2.7747e-07 -2.31705e-09 5.72609e-10)
(2.72313e-08 1.45089e-09 -3.95284e-09)
(3.40311e-07 -2.91489e-09 1.73703e-09)
(2.25858e-07 1.35041e-09 -8.38158e-11)
(2.27734e-07 1.44667e-09 1.07141e-09)
(1.14193e-07 4.90234e-09 -4.71646e-09)
(3.00487e-07 1.60244e-09 2.16108e-10)
(2.68497e-08 -3.14006e-10 -3.1766e-09)
(2.69671e-07 -2.16028e-09 -2.82902e-10)
(3.23377e-08 -6.19672e-10 -1.47566e-10)
(1.50046e-07 -5.5717e-09 -2.00215e-10)
(2.12397e-07 -3.31018e-10 2.09431e-10)
(1.54393e-07 -4.49046e-09 -1.46094e-09)
(2.27797e-08 2.74493e-09 2.33661e-09)
(5.9676e-08 1.24926e-09 -1.75914e-09)
(8.78576e-08 -4.45656e-09 2.00718e-09)
(1.50349e-07 3.11128e-09 -4.13244e-09)
(3.18019e-07 -1.47818e-09 -6.38779e-10)
(6.56216e-08 -1.61842e-09 -4.3751e-10)
(1.54849e-07 5.28698e-09 -2.94399e-09)
(2.23915e-07 -1.03106e-08 -2.1628e-08)
(1.83591e-07 1.66459e-09 4.02503e-10)
(3.39987e-08 2.46233e-09 2.26715e-10)
(2.39951e-07 -4.40865e-11 -2.50311e-09)
(1.479e-07 1.54316e-08 -5.42086e-09)
(1.76211e-07 -1.83806e-09 -3.43279e-10)
(1.14103e-07 -1.48637e-10 -2.58552e-09)
(1.53499e-07 1.70314e-09 1.55798e-10)
(1.21713e-07 -5.22201e-09 -2.6864e-09)
(1.64148e-07 6.82433e-10 1.02915e-09)
(1.35924e-07 1.15574e-09 -2.37558e-10)
(8.30054e-08 4.34158e-09 -7.41565e-09)
(2.56162e-07 5.16473e-10 2.26267e-10)
(7.32693e-08 2.44126e-09 3.48219e-09)
(1.86324e-08 2.94024e-09 9.96796e-10)
(3.03228e-07 5.95717e-10 1.71429e-09)
(1.58197e-07 1.39728e-09 1.23953e-10)
(2.97213e-07 1.87515e-09 -7.08019e-10)
(2.32966e-07 3.79183e-09 -7.96451e-10)
(3.92076e-07 -4.36904e-09 7.32255e-10)
(1.545e-07 3.18207e-09 -6.09076e-10)
(3.64147e-07 -4.11504e-09 3.8416e-10)
(1.11373e-07 -3.43715e-09 4.71656e-09)
(1.30432e-07 1.14015e-09 -1.31666e-10)
(3.12376e-07 -2.98047e-09 -2.27259e-09)
(3.7857e-08 1.04949e-09 -5.7259e-09)
(2.8929e-07 -5.36872e-10 -1.20861e-09)
(1.31308e-07 1.38895e-09 4.42117e-09)
(3.55516e-08 -2.86827e-09 -2.37704e-09)
(2.72827e-07 -2.88626e-11 1.1097e-10)
(7.11907e-08 -1.81613e-09 1.8625e-09)
(1.99118e-07 7.71321e-10 6.69103e-10)
(1.83606e-07 5.82456e-10 5.85858e-10)
(3.73781e-07 3.17524e-09 3.19412e-09)
(1.09737e-07 -5.88369e-09 -4.70681e-09)
(2.49244e-07 1.7365e-09 1.04391e-10)
(1.66771e-07 -1.60269e-09 1.62216e-09)
(2.67705e-07 -1.32442e-10 1.85627e-09)
(2.73981e-07 1.27291e-09 -6.98034e-10)
(2.41997e-07 1.58403e-09 6.01359e-10)
(1.4148e-07 1.04359e-09 1.66737e-10)
(5.57906e-08 -2.90658e-09 -2.69003e-09)
(7.86879e-08 -6.82558e-11 -1.14769e-09)
(1.54121e-07 1.16471e-09 -2.98494e-10)
(2.63354e-07 2.50489e-09 9.65825e-10)
(3.31972e-08 -2.40888e-09 -1.09372e-09)
(2.24375e-07 8.99871e-10 -7.10628e-10)
(4.12412e-07 -1.583e-10 2.80261e-09)
(3.05978e-07 -3.00555e-09 -1.12222e-09)
(3.21696e-07 -3.2587e-09 -9.97645e-10)
(2.63116e-07 -1.25923e-09 -1.9502e-09)
(2.3738e-08 2.34411e-09 1.9825e-09)
(2.00481e-07 3.46145e-10 9.37048e-10)
(1.56741e-07 -1.02482e-09 -2.76493e-09)
(2.46063e-07 -1.14258e-09 8.96378e-10)
(1.73242e-07 -1.47303e-10 -1.15932e-12)
(4.17459e-08 2.99037e-09 -1.21522e-10)
(1.75595e-07 1.74495e-09 -1.80504e-10)
(1.63214e-07 3.7753e-09 2.91719e-09)
(2.49744e-07 -1.33052e-09 -3.13805e-10)
(2.28632e-07 -2.61778e-09 -5.6952e-10)
(1.9545e-07 -1.29815e-09 -6.20017e-10)
(1.6071e-08 1.40763e-09 -1.95635e-09)
(2.39593e-08 -1.52612e-09 -2.44018e-09)
(1.58624e-07 -1.99188e-09 -1.87315e-10)
(2.6719e-07 4.84525e-10 6.00036e-10)
(1.93543e-07 1.74796e-09 8.98341e-10)
(1.68686e-07 1.18525e-09 2.21044e-10)
(1.73501e-07 -2.1467e-09 1.68016e-09)
(2.44764e-07 -2.49411e-09 -5.95625e-10)
(2.51285e-07 4.64385e-10 -4.50608e-10)
(2.29117e-08 1.99397e-09 4.28859e-10)
(1.25103e-07 -1.59394e-09 -6.29028e-11)
(1.72863e-07 -1.50286e-08 2.82238e-10)
(5.42277e-08 -1.69496e-09 2.88825e-09)
(9.49598e-08 -6.35687e-09 1.36394e-09)
(3.03255e-07 -1.61895e-09 -2.29172e-09)
(2.10817e-07 -2.00808e-09 2.7528e-10)
(1.96493e-07 1.12065e-09 -1.07153e-09)
(2.46233e-07 -6.40882e-10 6.91263e-10)
(1.49663e-07 -4.80813e-09 1.14421e-09)
(2.83099e-07 5.00431e-10 -3.22049e-10)
(1.93419e-07 2.66292e-09 -4.31762e-09)
(3.80624e-07 3.65142e-09 -2.07655e-10)
(1.91154e-07 -1.16965e-09 -6.03565e-10)
(2.02912e-07 -2.6025e-09 1.75127e-09)
(2.72879e-07 -2.79486e-09 -1.272e-10)
(5.51503e-08 -7.13542e-10 2.56518e-09)
(4.95892e-07 -3.35216e-09 7.54101e-10)
(3.90493e-08 8.10422e-10 -1.86345e-09)
(1.48902e-07 -1.42603e-08 8.47112e-09)
(1.30872e-07 3.17348e-09 3.09772e-09)
(1.60274e-07 -2.41048e-09 -1.43939e-08)
(2.17875e-07 -1.78464e-09 3.43347e-10)
(2.90603e-07 -4.49435e-08 -9.56562e-09)
(1.22177e-07 -3.10551e-11 -7.503e-11)
(2.86998e-07 3.88225e-10 5.92664e-10)
(3.19695e-07 8.64425e-10 -4.28116e-11)
(1.87895e-07 1.07682e-10 1.48832e-09)
(4.14176e-08 1.68952e-10 -1.02458e-09)
(1.18482e-07 -4.5594e-09 -3.05769e-09)
(2.09904e-07 -3.53676e-09 -2.97315e-08)
(1.86002e-07 8.03826e-11 2.48939e-10)
(1.06623e-07 -2.46629e-09 -3.67941e-10)
(2.16049e-07 -1.63681e-08 -5.27706e-09)
(2.21459e-07 -6.75404e-10 3.13986e-09)
(3.28386e-07 2.1514e-09 8.72471e-10)
(5.13293e-08 -1.32147e-09 1.96654e-09)
(6.1308e-08 -2.6854e-09 2.13801e-09)
(3.14491e-08 4.0472e-10 -7.68879e-10)
(2.36682e-08 1.93778e-10 -1.78184e-09)
(5.16804e-08 -2.04765e-10 2.31974e-10)
(2.22325e-07 -8.57076e-09 6.5774e-09)
(1.80189e-07 6.75599e-10 4.89448e-10)
(2.23855e-08 -8.53369e-10 3.11663e-09)
(2.45337e-08 1.88531e-09 2.81438e-09)
(2.97465e-07 1.91545e-09 -1.35855e-10)
(1.66266e-07 -2.11726e-08 1.44482e-08)
(5.39695e-08 2.57088e-09 1.13146e-09)
(2.20621e-07 3.22514e-10 1.73105e-10)
(1.15852e-07 -1.04968e-09 -1.74821e-09)
(2.03735e-07 -6.65424e-11 1.61256e-09)
(5.13987e-08 2.86434e-09 -1.83846e-09)
(1.0487e-07 2.44111e-09 -9.31219e-10)
(2.03951e-07 -1.57815e-09 4.38169e-10)
(2.38799e-07 6.25946e-10 -1.20605e-10)
(3.7954e-07 1.48403e-09 -1.1398e-09)
(5.12246e-08 4.43353e-09 -2.04834e-09)
(2.84991e-08 -2.24908e-09 1.50812e-09)
(2.01605e-07 -2.88228e-08 -2.12347e-08)
(3.29272e-08 -4.66013e-09 -2.16972e-10)
(3.12246e-07 -2.49432e-09 -2.99775e-09)
(3.41054e-08 2.22485e-09 -4.83467e-09)
(1.60662e-07 -9.59774e-10 3.58375e-09)
(2.6496e-07 -5.6423e-10 -2.48055e-10)
(3.84556e-07 -2.55881e-09 1.75928e-09)
(6.88109e-08 1.0212e-09 -2.24399e-09)
(1.50955e-07 -9.28995e-10 -1.6087e-09)
(4.51243e-08 1.68833e-09 -1.58514e-09)
(3.40582e-08 4.14069e-09 -1.47387e-09)
(2.2556e-07 -2.1072e-10 -1.27712e-09)
(1.77039e-08 -1.53858e-09 -2.41592e-09)
(1.61497e-07 -2.09703e-09 2.10142e-10)
(7.0723e-08 6.12377e-10 -3.49031e-09)
(3.05944e-07 -1.38704e-09 -8.96701e-11)
(2.23026e-07 -3.27678e-10 6.33235e-12)
(2.27744e-08 -6.38366e-10 3.78618e-09)
(1.54731e-07 -7.42754e-09 5.61098e-10)
(2.36455e-07 5.19655e-10 3.90041e-10)
(3.62646e-08 -1.99436e-09 -2.20666e-10)
(2.61073e-07 -1.22618e-09 -3.4255e-10)
(9.14088e-08 -3.80914e-09 5.82949e-09)
(2.30551e-07 7.11917e-10 -5.24185e-10)
(1.94045e-07 -3.35606e-11 -1.45837e-09)
(6.53605e-08 2.43888e-09 1.85957e-09)
(2.49361e-08 1.19375e-09 -3.6016e-09)
(1.07165e-07 1.22111e-09 -3.58958e-10)
(2.43251e-07 3.83153e-08 8.30011e-09)
(2.46426e-07 8.54306e-10 -3.44612e-10)
(8.88088e-08 -3.35483e-09 4.47552e-09)
(2.05495e-07 2.86988e-10 3.4132e-09)
(2.86959e-08 -1.18153e-09 7.08672e-10)
(1.71286e-07 1.25218e-10 -1.31985e-09)
(2.65873e-08 -2.77586e-10 -1.46557e-09)
(3.02747e-07 -3.73821e-09 3.63954e-10)
(2.96741e-07 -1.93262e-09 5.51757e-10)
(1.98521e-07 -6.3857e-10 3.21165e-10)
(1.7081e-08 1.85303e-09 1.62854e-10)
(3.29987e-07 -2.92607e-09 7.27734e-10)
(1.73993e-07 6.71709e-10 -7.149e-10)
(3.36115e-07 1.54778e-09 1.25676e-09)
(7.16926e-08 -2.43699e-10 -2.1397e-10)
(2.22285e-07 -2.68611e-08 1.38971e-08)
(2.45761e-07 -2.53446e-09 2.40905e-10)
(7.76367e-08 1.8532e-09 -1.37931e-09)
(2.12338e-07 -5.27745e-11 -7.62155e-11)
(2.09975e-07 3.95664e-09 -3.94748e-08)
(1.89398e-07 4.60804e-10 -5.31561e-10)
(3.82035e-08 8.31445e-10 -2.34436e-09)
(1.18723e-07 -1.09631e-09 -5.66176e-09)
(1.63027e-07 -8.32074e-11 3.58783e-10)
(2.21728e-07 2.22972e-09 -4.45014e-10)
(3.74255e-08 1.7843e-09 5.03247e-10)
(2.31566e-07 2.16361e-09 -1.83532e-09)
(1.79356e-07 -4.08747e-09 -5.63455e-09)
(2.96866e-08 -2.8207e-09 1.70038e-09)
(1.75563e-07 1.05522e-10 1.12109e-10)
(1.58187e-07 -2.01089e-09 1.57595e-08)
(3.343e-07 4.16357e-09 -5.06e-09)
(1.76969e-07 -1.22672e-10 3.42432e-10)
(1.58598e-07 8.04975e-11 6.69093e-10)
(2.74369e-07 -3.97447e-11 -1.11791e-09)
(2.61461e-07 1.24479e-09 2.40953e-09)
(8.22052e-08 2.83021e-09 1.0059e-09)
(8.36094e-08 -4.79363e-09 -4.42739e-09)
(3.2794e-07 3.55264e-09 6.67338e-11)
(2.24546e-07 -1.96432e-08 1.86189e-08)
(2.17295e-07 -1.46599e-09 7.5346e-10)
(1.94185e-07 -1.47018e-09 9.1118e-11)
(1.40712e-07 2.92998e-09 1.14534e-09)
(3.12862e-07 3.0231e-10 1.8414e-10)
(1.84938e-07 7.96944e-10 -3.64851e-10)
(1.96067e-07 -1.64668e-09 -3.60628e-09)
(2.41855e-07 5.02606e-09 -1.65942e-10)
(5.04227e-08 1.99374e-10 -3.26836e-09)
(1.89816e-07 2.75671e-09 -2.12316e-09)
(4.70284e-08 -1.9199e-09 -4.59121e-09)
(2.9685e-07 7.91077e-10 1.50586e-09)
(2.84609e-07 -1.14922e-09 1.49118e-09)
(1.81476e-07 2.14395e-09 -4.61539e-09)
(1.74084e-07 1.14256e-09 -9.8006e-10)
(2.07358e-08 2.32649e-09 -5.24426e-10)
(1.16825e-07 -4.28264e-10 -6.45843e-10)
(8.63579e-08 -3.46609e-09 -3.89231e-09)
(2.28612e-07 1.23317e-10 -1.36537e-09)
(2.04312e-07 -6.28001e-10 -1.30272e-09)
(2.20428e-07 -2.03132e-08 1.2965e-08)
(2.82363e-07 -3.82204e-10 2.40284e-09)
(9.14232e-08 -2.85976e-09 -1.63389e-09)
(1.3654e-07 -3.42686e-09 1.07648e-08)
(2.46562e-07 4.63923e-10 3.41749e-09)
(3.33072e-08 -2.81905e-09 -3.09382e-10)
(2.09574e-07 -1.36117e-10 -1.39085e-09)
(6.17227e-08 2.11584e-09 9.43254e-11)
(2.02361e-07 -4.87465e-10 1.22392e-09)
(3.78603e-08 5.47031e-09 -2.63881e-11)
(3.16061e-07 3.28169e-09 -1.74965e-09)
(2.03916e-07 -8.91869e-09 5.56446e-09)