/*--------------------------------*- C++ -*----------------------------------*\
| =========                 |                                                 |
| \\      /  F ield         | OpenFOAM: The Open Source CFD Toolbox           |
|  \\    /   O peration     | Version:  2406                                  |
|   \\  /    A nd           | Website:  www.openfoam.com                      |
|    \\/     M anipulation  |                                                 |
\*---------------------------------------------------------------------------*/
FoamFile
{
    version     2.0;
    format      ascii;
    arch        "LSB;label=32;scalar=64";
    class       volVectorField;
    location    "24";
    object      momentum:angularMomentum;
}
// * * * * * * * * * * * * * * * * * * * * * * * * * * * * * * * * * * * * * //

dimensions      [1 1 -1 0 0 0 0];

internalField   nonuniform List<vector> 
59516
(
(1.0878e-09 -7.96267e-10 2.43588e-07)
(1.81819e-10 -4.52473e-11 1.80185e-07)
(-2.43968e-10 3.20328e-09 2.16041e-07)
(-3.7585e-09 1.07625e-09 1.74429e-07)
(-7.52871e-09 1.22029e-10 2.00323e-07)
(-5.187e-09 2.77186e-09 5.03623e-08)
(-4.30871e-10 -2.44911e-09 2.18131e-07)
(5.22074e-10 -1.953e-09 2.12153e-07)
(-9.93414e-10 -1.11861e-09 1.66537e-07)
(4.09278e-09 1.85572e-09 9.2479e-08)
(-7.2139e-10 -1.1477e-09 1.94665e-07)
(-3.67178e-09 -4.41074e-09 1.12794e-07)
(-3.38898e-09 -6.69735e-10 3.40566e-07)
(1.33793e-10 -1.73067e-10 1.90452e-08)
(-1.60923e-10 -9.03302e-09 1.74902e-07)
(-2.62212e-09 7.71692e-09 9.5981e-08)
(6.05594e-10 -2.32598e-10 2.39855e-07)
(-1.09453e-08 -3.9099e-09 1.62774e-07)
(-9.32807e-09 -3.75878e-09 3.39388e-07)
(-1.42671e-09 1.41286e-09 3.38034e-07)
(-1.06271e-09 9.17356e-10 1.08492e-07)
(9.6286e-10 -1.01615e-09 3.09367e-07)
(4.98346e-10 -1.20529e-09 3.36442e-07)
(1.37199e-09 5.10483e-10 4.09347e-08)
(1.3436e-09 2.99491e-09 2.94671e-07)
(-3.25426e-09 5.71371e-09 2.25154e-07)
(-6.18422e-10 3.39782e-09 6.11867e-08)
(-4.89389e-09 -3.05581e-09 7.86794e-08)
(-2.94118e-09 -2.00452e-09 1.56631e-07)
(2.0456e-09 1.7341e-09 1.63616e-08)
(-3.7092e-08 2.22447e-09 1.89219e-07)
(-4.48227e-09 3.95082e-09 8.86769e-08)
(-1.01631e-09 -8.89021e-10 1.75345e-07)
(-4.77487e-09 -1.60026e-09 1.82983e-07)
(-1.83195e-09 -6.61578e-10 1.30262e-07)
(1.32448e-09 5.26363e-10 3.90106e-07)
(-2.66448e-09 1.09846e-09 1.56534e-08)
(-1.21607e-08 -4.44483e-09 1.34034e-07)
(-6.03739e-09 1.60327e-09 2.85081e-07)
(4.3299e-09 -2.30597e-09 2.6058e-07)
(2.42734e-10 -2.42806e-09 2.78529e-07)
(-1.9296e-08 -7.76974e-10 3.99458e-07)
(3.98634e-10 4.14277e-10 3.35022e-07)
(-1.52109e-09 1.1873e-09 1.19619e-07)
(-1.04063e-09 1.22385e-09 2.65094e-07)
(4.48351e-09 6.10618e-10 1.16325e-07)
(-3.51828e-09 -1.40623e-09 3.28171e-07)
(-3.00478e-10 1.69596e-10 2.34419e-07)
(-3.41107e-08 3.52378e-09 2.51305e-07)
(-5.98323e-09 -4.69963e-10 2.28029e-07)
(-2.83119e-08 7.96472e-10 1.63821e-07)
(-7.66171e-09 -3.70049e-09 8.81141e-08)
(4.95911e-10 -4.73019e-09 3.31679e-07)
(-9.41755e-10 -8.9112e-10 3.10318e-07)
(-4.64345e-09 1.18591e-09 9.08012e-08)
(3.26667e-10 6.7466e-10 2.49706e-07)
(-1.20944e-08 -2.40421e-10 1.95366e-07)
(-9.06622e-09 -2.54127e-09 9.23381e-08)
(1.30819e-09 1.32755e-09 1.80304e-07)
(-6.77616e-09 -1.78553e-10 1.4323e-07)
(5.32051e-10 6.75811e-10 1.99561e-07)
(-1.51701e-09 1.85101e-09 1.79302e-08)
(1.66629e-09 -7.00653e-10 2.32175e-07)
(5.09332e-10 1.04249e-09 3.02776e-07)
(-2.61477e-09 -8.34211e-11 3.10907e-07)
(-2.62016e-09 4.50216e-10 2.04676e-07)
(2.14446e-10 2.5328e-09 2.24586e-08)
(-5.00741e-10 4.99891e-10 7.65479e-08)
(-3.64327e-08 1.04461e-09 1.97253e-07)
(6.37091e-10 -1.64559e-09 1.69724e-07)
(-1.29612e-09 -1.56278e-09 6.21446e-08)
(-4.72138e-10 2.49227e-10 1.42224e-07)
(4.53026e-09 -2.00546e-09 2.766e-08)
(1.16898e-09 2.35132e-10 1.8167e-07)
(-2.37559e-09 1.20647e-09 3.16648e-07)
(1.25994e-09 -5.73341e-10 3.40195e-07)
(4.38697e-10 -5.52775e-10 1.96891e-07)
(-1.231e-09 -1.80703e-10 2.16612e-07)
(4.54566e-09 2.56411e-09 9.83175e-08)
(-4.41075e-09 1.05864e-09 1.81003e-07)
(-4.98735e-09 1.15895e-11 6.01072e-08)
(-3.01816e-09 5.99614e-10 1.63011e-07)
(-2.82189e-09 6.37236e-10 1.78189e-07)
(-3.01227e-09 1.66928e-09 2.19986e-08)
(-3.60556e-09 9.24192e-10 2.05318e-07)
(-1.55369e-09 1.09825e-09 3.27231e-07)
(6.952e-10 1.49702e-09 3.72171e-08)
(5.41911e-10 1.87941e-09 4.86986e-07)
(-6.83962e-09 -3.71618e-09 1.24766e-07)
(-1.3219e-08 -4.37328e-09 1.68665e-07)
(-1.3091e-08 -5.91865e-10 1.81195e-07)
(-1.92137e-09 1.0929e-09 1.80905e-07)
(7.36509e-10 -3.15413e-10 2.25825e-07)
(2.23418e-10 5.99692e-10 1.76359e-07)
(1.50942e-10 -6.02526e-10 1.6165e-07)
(-1.8594e-08 3.89304e-10 1.83392e-07)
(-1.21956e-09 -1.12446e-09 1.21796e-07)
(3.46559e-09 7.05555e-09 9.62981e-08)
(-2.68369e-09 -2.03593e-09 1.22644e-07)
(1.71137e-09 7.6026e-10 1.99006e-07)
(-2.51177e-09 2.0282e-09 7.16589e-08)
(3.63476e-09 1.69373e-09 3.16455e-08)
(3.63691e-09 2.05849e-09 2.80295e-08)
(-3.24443e-09 3.66635e-09 9.85934e-08)
(8.1262e-10 -6.49013e-10 2.34173e-07)
(-6.17286e-10 7.87235e-10 1.52836e-07)
(3.34185e-09 -5.72444e-09 6.63127e-08)
(-6.64537e-10 -4.68075e-10 1.4918e-07)
(-1.61092e-09 4.97801e-10 1.89592e-07)
(-5.38804e-09 8.09603e-09 2.13546e-07)
(-3.88161e-08 -1.02184e-09 2.78824e-07)
(4.28832e-09 -3.81086e-09 5.14511e-08)
(-7.55919e-09 8.86523e-09 2.10907e-07)
(-3.4117e-08 -2.4982e-10 2.18727e-07)
(-7.14977e-10 3.8742e-10 2.04251e-07)
(5.95331e-10 -1.64405e-09 1.49041e-07)
(-5.84554e-09 -3.15532e-09 1.43877e-07)
(-1.15888e-09 -1.59133e-10 1.43813e-07)
(-2.40657e-10 -9.4887e-10 2.16271e-08)
(-1.75403e-09 2.39218e-09 2.51756e-07)
(-2.42578e-10 -4.82456e-10 3.40443e-07)
(9.59144e-10 4.48205e-10 1.55775e-07)
(-1.63812e-10 -1.43901e-10 1.49881e-07)
(3.07348e-10 5.52435e-10 1.61413e-07)
(-1.5412e-08 1.5153e-09 1.32064e-07)
(-3.05619e-09 -1.62217e-10 1.50344e-07)
(-2.74442e-09 -1.0726e-09 4.28709e-08)
(-1.47636e-08 3.30516e-09 2.10251e-07)
(-2.3396e-08 5.652e-09 1.63283e-07)
(6.6706e-10 3.20937e-10 1.34568e-07)
(2.12179e-09 -1.24563e-09 2.35368e-07)
(3.60507e-09 5.09962e-09 3.46253e-07)
(-6.69943e-10 -2.41047e-09 2.67639e-08)
(6.98838e-10 9.48645e-10 2.49062e-07)
(2.05917e-09 1.17509e-09 3.43291e-07)
(-2.02163e-09 2.49728e-09 2.08955e-07)
(-2.05141e-08 1.91626e-09 1.52287e-07)
(1.52099e-09 1.81508e-09 3.23587e-07)
(-5.96658e-10 4.02493e-09 6.09564e-08)
(-2.34965e-09 1.34842e-09 1.73085e-07)
(-2.1949e-09 4.5024e-09 8.88443e-08)
(4.39615e-10 3.81944e-10 2.7474e-07)
(-7.58934e-10 -1.43273e-09 1.63129e-08)
(-7.54104e-10 1.2298e-09 1.54723e-07)
(-3.47261e-10 3.99849e-10 1.8342e-07)
(-2.36695e-09 1.46092e-09 2.76991e-07)
(-1.10346e-09 1.19746e-09 2.03257e-07)
(-2.81522e-09 2.37354e-09 2.15579e-07)
(1.03149e-09 -1.81839e-09 6.40453e-08)
(-3.45509e-10 1.75245e-09 2.2162e-07)
(-9.58746e-10 -2.24247e-09 3.46897e-07)
(9.01421e-11 2.38313e-09 6.26819e-08)
(2.66221e-09 1.56766e-09 3.49452e-07)
(1.56445e-09 -2.48342e-10 2.06474e-07)
(-4.11867e-10 -3.12476e-09 1.7618e-07)
(-1.83014e-09 9.9563e-10 1.75598e-08)
(1.18485e-09 -6.10075e-10 2.95509e-07)
(-2.44514e-09 1.2883e-09 3.5193e-07)
(-1.91028e-09 1.05563e-09 1.43753e-07)
(-2.88915e-09 -2.08954e-09 1.92004e-08)
(3.90088e-09 3.04011e-09 1.01094e-07)
(6.34668e-09 -3.04718e-09 1.272e-07)
(-9.81099e-10 1.82351e-09 4.73191e-08)
(-4.27039e-10 -5.31137e-10 2.72622e-08)
(4.25515e-09 7.17658e-10 1.76478e-07)
(-1.77961e-09 6.61118e-10 2.89663e-07)
(2.04976e-09 2.38024e-10 1.75076e-07)
(-4.62979e-10 -7.30132e-10 2.39327e-07)
(1.18772e-09 2.44875e-09 2.08269e-08)
(-8.8834e-10 -3.46856e-10 2.06149e-07)
(-1.52433e-09 -1.32259e-09 9.64619e-08)
(-1.28113e-09 9.71901e-10 7.76012e-08)
(-2.2893e-11 -3.31076e-09 1.21002e-07)
(6.35896e-10 -1.041e-09 1.5028e-07)
(1.04314e-09 1.54697e-09 9.84708e-08)
(-4.73783e-09 -4.38716e-09 4.55436e-07)
(-1.31383e-09 -2.63038e-10 2.1771e-07)
(-2.0866e-09 8.35064e-10 3.03501e-07)
(2.37311e-09 -8.16966e-09 1.68288e-07)
(7.43331e-10 5.56916e-10 7.24231e-08)
(-7.95798e-10 -3.8308e-09 2.98428e-07)
(1.69988e-09 4.43388e-09 4.99904e-08)
(-1.62448e-09 -2.5642e-09 3.55969e-08)
(5.66218e-10 3.38505e-09 1.18985e-07)
(5.9048e-10 -1.11691e-09 1.74085e-07)
(-6.06074e-10 1.00329e-09 1.09283e-07)
(-4.27824e-09 9.96086e-10 5.2991e-08)
(7.95048e-12 4.73562e-10 2.40502e-08)
(-4.22151e-10 -1.08735e-09 1.98658e-07)
(2.48701e-09 1.58453e-09 2.44754e-07)
(-3.22808e-09 -7.55023e-10 1.55213e-07)
(-1.30311e-09 -7.48662e-09 1.31898e-07)
(-6.24241e-10 -1.55831e-10 1.9638e-07)
(3.69333e-09 -3.35446e-09 1.087e-07)
(-3.98049e-10 2.15589e-09 3.22692e-07)
(7.44766e-10 7.66612e-10 3.29371e-08)
(1.50249e-09 -3.64936e-10 1.10463e-07)
(7.05583e-10 -1.56889e-09 6.61579e-08)
(-7.34322e-09 -6.15649e-11 1.97089e-07)
(3.4967e-10 5.79537e-10 2.50235e-07)
(-1.52174e-09 -1.98509e-09 8.52183e-08)
(5.52393e-10 1.4659e-10 1.60404e-07)
(1.33433e-09 2.39103e-09 3.38469e-07)
(1.7609e-09 -1.93111e-09 1.88094e-08)
(2.26093e-09 1.98625e-09 2.2854e-07)
(1.89435e-10 -4.61085e-11 2.32555e-07)
(6.6607e-10 7.05074e-10 2.9486e-07)
(-6.31745e-10 5.63483e-10 1.81361e-07)
(1.18345e-10 -4.33837e-10 2.12306e-08)
(3.14052e-09 2.78006e-09 3.19302e-07)
(1.161e-11 6.30398e-09 6.91493e-08)
(-4.19027e-09 9.44429e-10 2.74131e-08)
(-2.10484e-09 1.55098e-09 2.29107e-07)
(-4.14055e-10 2.09829e-09 1.08096e-07)
(-1.67944e-09 -1.60759e-09 3.10869e-07)
(-2.16692e-09 -5.10104e-10 2.55717e-07)
(-1.50047e-09 4.26444e-10 2.68418e-07)
(-7.06254e-10 7.30156e-10 1.96475e-07)
(-3.62525e-09 4.75499e-09 9.44272e-08)
(8.60417e-10 5.47874e-10 2.07307e-07)
(-3.49578e-09 -5.6845e-09 1.37434e-07)
(-3.54186e-10 1.54686e-09 2.061e-07)
(-9.01888e-10 -1.25802e-09 1.60437e-07)
(8.99631e-10 -1.58029e-09 8.84788e-08)
(-2.89257e-09 -1.40588e-09 2.59522e-07)
(4.03486e-10 1.44404e-09 2.71715e-07)
(-1.15144e-09 -1.29144e-09 3.66339e-08)
(-4.50716e-09 7.03764e-10 7.57954e-08)
(-1.47707e-09 1.02354e-09 1.74929e-07)
(-4.9664e-09 7.83567e-09 1.34171e-07)
(5.98867e-10 1.32783e-09 2.15172e-07)
(-9.03677e-10 3.93484e-10 1.57441e-07)
(-1.15006e-09 -1.8434e-09 2.654e-07)
(-1.79983e-09 -2.77725e-09 3.10879e-08)
(-1.77763e-09 -1.4175e-09 3.62704e-08)
(-1.87909e-09 1.66339e-10 4.61995e-08)
(1.66539e-09 -9.37998e-10 1.23928e-07)
(-3.69804e-09 -1.29712e-09 1.88485e-07)
(-3.07189e-09 -1.15857e-09 3.86948e-07)
(3.45619e-09 -2.27922e-10 9.8078e-08)
(1.65101e-09 2.55194e-10 2.08831e-07)
(2.88045e-09 1.95181e-09 2.2181e-08)
(8.43623e-10 1.06494e-09 1.23488e-07)
(3.05291e-09 1.57167e-09 3.20376e-08)
(6.40862e-10 5.18374e-10 1.38594e-07)
(-8.1783e-11 -1.31423e-09 1.69772e-07)
(-7.7972e-10 -3.84523e-10 1.89033e-07)
(6.41233e-10 4.97185e-09 2.10072e-07)
(1.26524e-09 1.2948e-09 2.50304e-07)
(-6.69466e-10 -2.21645e-11 2.146e-07)
(5.10472e-09 -2.68775e-09 3.48851e-07)
(-1.16566e-09 3.21468e-10 2.08625e-07)
(1.09339e-09 8.27857e-10 1.5967e-07)
(-3.68881e-11 6.8634e-10 2.71244e-07)
(-6.45627e-10 2.0152e-09 2.71941e-07)
(-4.02728e-10 8.69858e-10 2.79552e-07)
(-9.92371e-10 -4.79045e-10 1.2609e-07)
(-1.7133e-09 -1.01678e-09 2.6565e-07)
(2.78314e-09 4.6535e-09 9.32341e-08)
(-6.75916e-10 3.66119e-09 1.09757e-07)
(-1.70167e-09 1.18732e-10 2.22296e-07)
(-1.0452e-09 2.17484e-09 2.38696e-07)
(4.24592e-09 2.19152e-09 2.52112e-07)
(-7.32237e-10 2.34467e-09 2.47035e-07)
(1.71011e-09 5.98032e-10 8.05292e-08)
(4.50286e-10 -6.22441e-09 1.20515e-07)
(8.31656e-10 -1.05604e-09 2.81972e-07)
(2.21589e-09 1.60533e-09 2.36032e-07)
(-7.72402e-10 -1.02736e-09 7.05466e-08)
(1.08324e-10 2.05417e-09 8.49092e-08)
(-2.83741e-09 3.35367e-09 1.77812e-07)
(-7.45562e-10 -6.30873e-10 1.62055e-07)
(-3.22276e-09 5.55106e-09 3.35324e-07)
(-4.68752e-10 2.13079e-09 1.64046e-07)
(-3.11773e-09 1.86219e-09 3.02103e-07)
(1.90524e-10 6.3984e-09 2.07379e-07)
(-1.40952e-09 -3.02165e-09 2.30548e-08)
(3.94353e-10 2.62069e-09 2.75253e-07)
(2.80686e-09 -2.17145e-09 3.38492e-08)
(2.90955e-09 1.38077e-09 6.02769e-08)
(-8.41991e-10 -2.12242e-09 2.94593e-07)
(1.74631e-10 1.63545e-09 2.47365e-07)
(-4.57281e-09 2.23076e-09 3.1943e-08)
(-2.03496e-09 -1.32286e-09 3.11695e-07)
(-2.12268e-09 -3.30459e-09 2.57862e-07)
(1.00641e-09 5.9337e-10 2.22816e-07)
(2.48266e-10 -8.01553e-10 2.73135e-07)
(2.4882e-09 -2.49198e-09 2.77167e-08)
(-2.47939e-09 9.18897e-11 2.34664e-07)
(-5.89958e-10 -1.44029e-09 1.21958e-07)
(-3.19293e-11 -1.12755e-09 1.37587e-07)
(-1.41238e-09 -2.30814e-09 2.5095e-07)
(-2.08965e-09 6.96137e-10 1.64526e-07)
(-1.01645e-09 -1.82082e-12 1.90338e-07)
(4.68781e-11 -1.06192e-09 2.38162e-07)
(-2.4222e-10 2.84381e-09 4.4375e-08)
(2.31178e-09 -2.98988e-09 2.5518e-07)
(1.47086e-09 1.0227e-09 1.90658e-07)
(-1.16702e-09 -3.09177e-09 3.01188e-07)
(2.58593e-10 -2.62354e-09 2.31226e-07)
(1.89501e-09 -2.77117e-10 3.22683e-07)
(3.13384e-09 -1.93991e-09 1.54243e-07)
(-6.86643e-10 -1.42101e-09 2.28924e-08)
(1.19197e-09 6.57211e-10 4.10604e-08)
(-3.43399e-09 4.40022e-09 4.74281e-07)
(-3.36689e-09 1.39935e-09 2.1587e-08)
(-2.31599e-09 -3.02112e-09 1.91534e-07)
(-1.49625e-09 4.6903e-09 8.15946e-08)
(2.09365e-09 -6.11299e-10 2.81007e-07)
(1.79518e-10 -1.51171e-09 3.29712e-07)
(1.24704e-09 1.03606e-09 3.01269e-07)
(3.14792e-09 6.14826e-10 1.3637e-07)
(5.78293e-09 3.17341e-10 3.09858e-07)
(-1.17323e-10 8.26931e-09 7.72086e-08)
(1.52402e-09 -2.74558e-09 9.62811e-08)
(5.56255e-10 -1.56458e-09 1.80282e-07)
(1.62553e-09 -2.65926e-09 1.68609e-07)
(-3.23587e-08 -4.12075e-09 2.69354e-07)
(-1.42588e-10 -4.64396e-09 2.0434e-07)
(-1.25477e-09 -1.18691e-10 7.35187e-08)
(3.45206e-09 2.29987e-11 1.1423e-07)
(-4.15726e-10 -2.49376e-09 2.18061e-07)
(-5.39643e-11 1.47436e-10 1.86057e-07)
(-2.77893e-09 1.96396e-10 3.5401e-07)
(-1.08234e-09 1.27893e-09 1.87536e-07)
(2.34727e-10 5.83484e-09 4.51398e-07)
(-6.93214e-09 -2.13923e-09 1.70881e-07)
(-3.17137e-09 2.23093e-09 3.38843e-07)
(-8.88116e-10 2.56089e-09 2.42693e-07)
(-4.08014e-10 -6.53544e-10 1.80816e-07)
(1.61785e-09 -5.0837e-10 3.07587e-07)
(-4.65052e-09 -4.22249e-09 1.17091e-07)
(3.34983e-09 -1.31613e-09 2.68764e-08)
(1.55e-10 -1.17098e-09 2.79491e-07)
(1.93653e-09 4.12891e-09 6.64485e-08)
(-5.85139e-11 -2.74675e-10 3.29899e-08)
(-2.79763e-09 -1.49547e-09 3.55588e-07)
(9.01786e-10 6.74696e-10 1.93281e-07)
(-2.00878e-09 4.76188e-09 1.13095e-07)
(-1.12388e-09 -8.22277e-10 2.19561e-07)
(2.12847e-10 2.6758e-09 2.9531e-07)
(-1.98287e-09 -1.08718e-09 3.52846e-07)
(6.00973e-10 -8.84353e-10 2.32734e-07)
(1.82093e-10 -1.52396e-09 3.51747e-08)
(7.02636e-10 -1.12512e-09 2.9606e-07)
(-1.16187e-09 2.54179e-10 1.84763e-07)
(-7.32269e-11 1.48085e-09 1.10036e-07)
(6.92487e-10 -2.30327e-09 2.45508e-07)
(4.85233e-10 5.91761e-10 2.15422e-07)
(1.3179e-09 1.008e-09 1.74681e-07)
(6.09824e-10 4.52981e-10 2.03143e-07)
(-4.96836e-10 -1.28771e-09 2.57228e-07)
(1.0674e-09 1.86706e-09 1.96585e-07)
(-6.76059e-10 5.62643e-10 8.62991e-08)
(-3.5063e-10 9.93707e-10 2.28675e-08)
(8.39559e-10 3.60321e-09 4.45162e-08)
(7.09397e-10 1.99772e-09 2.38359e-07)
(-3.71618e-08 8.33114e-10 2.68873e-07)
(-1.11161e-08 1.15783e-09 1.16081e-07)
(4.49707e-11 -2.59082e-10 1.21566e-07)
(2.51898e-09 -2.57541e-09 2.58679e-07)
(-4.3677e-10 6.85045e-10 3.12251e-07)
(-2.09705e-09 1.50652e-09 2.11103e-07)
(1.67574e-09 -1.2041e-09 3.41657e-07)
(-6.11568e-10 -9.91564e-10 3.43325e-07)
(-1.191e-09 -4.45722e-10 2.12417e-07)
(-1.3232e-09 1.20764e-10 1.30435e-07)
(-4.06649e-10 8.37432e-10 2.79651e-08)
(-4.69685e-08 1.98065e-09 2.40574e-07)
(7.32645e-10 3.20753e-09 9.7687e-08)
(-2.31766e-09 3.02391e-09 7.2943e-08)
(2.19883e-09 3.74489e-10 7.72259e-08)
(-2.91851e-10 -8.48116e-10 1.58202e-07)
(-2.57898e-10 1.56023e-10 1.87397e-07)
(-7.91037e-10 -2.17794e-10 2.18231e-07)
(-1.3843e-09 1.50333e-09 1.97501e-08)
(3.99958e-10 1.06585e-10 1.72416e-07)
(2.0777e-09 -1.23286e-09 7.47065e-08)
(-4.27014e-10 1.05683e-09 1.67518e-07)
(-5.63723e-10 1.06563e-09 6.29265e-08)
(3.90124e-09 1.11223e-09 1.64977e-07)
(1.73192e-09 4.45259e-09 2.3533e-07)
(-8.29238e-10 1.15548e-09 1.73918e-07)
(3.18087e-09 -3.19645e-11 2.2482e-08)
(1.35832e-10 6.40627e-09 1.26216e-07)
(-8.90742e-10 -5.96703e-10 2.37394e-07)
(-9.571e-11 -2.80639e-09 2.93267e-08)
(-1.29291e-08 2.64919e-10 2.86819e-07)
(4.26311e-10 -3.2824e-09 1.88545e-07)
(1.5431e-09 -2.75696e-09 3.05817e-07)
(5.26807e-09 -3.3241e-09 2.15991e-07)
(2.17702e-09 6.638e-10 1.01578e-07)
(2.67658e-09 -2.27335e-09 3.66551e-07)
(-1.78214e-08 -5.93238e-09 1.42862e-07)
(-3.45247e-09 -1.11453e-09 2.75617e-07)
(-1.58496e-08 7.55728e-10 1.55147e-07)
(-3.74597e-09 3.10044e-09 1.59601e-07)
(-1.0685e-09 4.02278e-09 1.60748e-07)
(-6.2252e-10 -1.38534e-09 2.31874e-07)
(1.8287e-09 -4.70757e-09 4.67349e-07)
(9.03145e-10 -2.85406e-10 9.0353e-08)
(-2.72796e-10 -2.35206e-09 3.44865e-07)
(-2.44688e-09 1.32578e-09 1.29365e-07)
(2.23353e-09 -7.83587e-10 3.69512e-07)
(1.54785e-09 -1.22697e-09 2.81784e-07)
(-1.69782e-09 -5.68193e-09 7.94047e-08)
(-8.81148e-10 7.08757e-10 2.18357e-07)
(4.0296e-09 4.72013e-10 3.71918e-07)
(-9.1838e-11 -1.48672e-10 2.21125e-07)
(8.96514e-11 -7.75828e-11 2.09501e-07)
(3.66152e-09 -1.60385e-09 2.75182e-08)
(-3.20416e-09 -9.12228e-10 2.29252e-08)
(-1.61497e-09 2.83497e-09 2.96904e-07)
(2.59641e-10 -3.06814e-10 2.44838e-07)
(6.60611e-10 1.38767e-09 1.85727e-07)
(-2.53222e-09 1.28092e-09 4.20485e-08)
(1.56572e-10 -2.62575e-10 7.77981e-08)
(-2.54987e-09 3.56536e-09 3.25682e-07)
(-1.16348e-09 1.11696e-11 1.41008e-07)
(2.31616e-09 8.43703e-10 2.68871e-07)
(7.20247e-10 6.68522e-11 2.40589e-07)
(-4.22582e-10 -2.18183e-09 1.90922e-07)
(-8.56377e-11 -2.73014e-09 2.05167e-07)
(2.04396e-10 -5.78332e-10 1.34598e-07)
(-2.18888e-09 3.69219e-10 1.79917e-07)
(-3.6917e-09 4.13131e-09 9.94582e-08)
(7.28972e-10 1.39664e-09 2.5676e-07)
(-9.26125e-10 -2.15574e-09 2.01194e-07)
(-1.72622e-09 1.15804e-09 1.98721e-07)
(-3.36169e-10 -2.60123e-10 1.89519e-07)
(-5.24274e-10 -1.37872e-09 3.38391e-07)
(1.71419e-09 1.58431e-09 2.57014e-07)
(3.53256e-09 4.83286e-09 7.78723e-08)
(1.45051e-09 4.55085e-10 5.14069e-08)
(-2.18432e-09 -2.29346e-09 2.32362e-08)
(-6.81323e-09 4.27045e-10 2.16384e-07)
(-1.02632e-10 8.1631e-11 2.44942e-07)
(-1.3405e-09 4.19857e-10 2.63737e-07)
(1.82196e-10 -3.29178e-09 1.97998e-07)
(1.27592e-09 -1.05046e-10 3.46706e-08)
(6.33618e-10 -3.0139e-09 2.63686e-08)
(-1.77633e-09 -2.57805e-09 1.90224e-07)
(-1.02457e-09 1.51088e-09 2.15444e-07)
(-1.55322e-09 2.53941e-10 2.66579e-07)
(1.70116e-09 -1.77915e-09 3.05432e-07)
(-1.57404e-09 -1.2404e-09 2.01755e-07)
(-1.28805e-09 2.11666e-09 2.82224e-07)
(2.20372e-09 -2.09441e-09 3.79295e-07)
(-1.4862e-09 3.27539e-09 3.70155e-08)
(-7.18685e-10 1.05622e-09 1.89253e-07)
(3.43902e-09 -2.04094e-09 8.28192e-08)
(-9.66754e-09 -1.06059e-09 9.77426e-08)
(6.24735e-10 -2.0919e-11 1.19021e-07)
(-3.57865e-10 1.66962e-09 1.57829e-07)
(1.06237e-09 -7.98425e-10 2.44121e-07)
(-4.03865e-09 2.3424e-09 2.29186e-08)
(3.92746e-09 -1.67135e-09 3.05908e-07)
(-5.15439e-12 7.10782e-11 2.25946e-07)
(-1.84114e-09 7.78519e-10 1.8121e-07)
(2.1102e-09 -1.57621e-09 2.22712e-07)
(-5.64077e-10 -6.40811e-10 1.5874e-07)
(-1.82673e-09 -3.59001e-10 2.23455e-07)
(-6.51384e-10 3.85399e-10 2.51222e-07)
(-1.11176e-09 2.08372e-10 2.50234e-07)
(-6.08523e-09 -1.24383e-09 1.74978e-07)
(1.81894e-10 6.58606e-10 2.35929e-07)
(-3.70725e-09 3.68418e-10 2.78942e-07)
(1.46282e-09 -1.13715e-09 2.17433e-08)
(-5.60885e-10 1.85161e-09 2.5895e-07)
(1.73299e-09 1.96321e-09 1.96181e-07)
(-4.92936e-09 -4.22799e-09 7.43419e-08)
(-1.41154e-09 2.54071e-09 1.89598e-07)
(8.58648e-10 1.50216e-09 3.04655e-07)
(9.07967e-12 -5.22575e-10 2.2903e-07)
(1.286e-09 3.37971e-09 1.31509e-07)
(-2.58757e-09 1.5805e-09 2.13665e-08)
(-8.18043e-10 1.21367e-09 2.21735e-07)
(-4.45988e-10 6.54213e-09 3.43175e-07)
(-2.71473e-10 4.12434e-10 2.1759e-07)
(-8.97764e-10 2.4148e-10 1.93366e-07)
(-4.70164e-09 1.0185e-09 6.61703e-08)
(1.37377e-09 -2.11943e-10 2.44457e-07)
(-4.13552e-09 9.18176e-11 2.88476e-08)
(-2.0028e-10 1.80025e-10 1.56943e-07)
(-2.44164e-08 1.16913e-09 2.08628e-07)
(-2.80158e-10 2.12213e-10 2.25057e-07)
(-8.25978e-10 3.26698e-09 1.0214e-07)
(-3.03335e-09 2.10563e-09 1.96653e-07)
(-9.92632e-10 2.05418e-09 1.26124e-07)
(3.26396e-09 -3.27961e-09 5.52481e-08)
(2.2271e-09 1.38916e-10 3.78762e-07)
(-1.13426e-09 1.30352e-09 1.78369e-07)
(-1.8898e-09 -7.89707e-10 2.11554e-08)
(1.93892e-09 -2.22331e-09 2.50027e-07)
(-6.47784e-10 -3.07745e-09 2.30169e-07)
(-7.08037e-10 2.26588e-09 4.50396e-08)
(3.20335e-09 5.66411e-09 1.43348e-07)
(-3.42136e-09 3.86245e-09 1.11575e-07)
(-5.80794e-10 1.48578e-09 1.77101e-07)
(1.60695e-09 -2.64031e-10 2.16067e-07)
(-1.18058e-09 1.37096e-09 3.70314e-08)
(3.9565e-09 -7.30533e-10 1.04631e-07)
(-2.2986e-10 1.97609e-09 1.16121e-07)
(2.00408e-09 9.44819e-10 1.83864e-07)
(2.06917e-09 -1.18959e-09 2.7747e-07)
(-3.56275e-09 -2.2443e-09 2.72313e-08)
(2.61174e-09 2.16627e-09 3.40311e-07)
(-1.27774e-09 -4.44985e-10 2.25858e-07)
(-1.65813e-09 -7.00992e-10 2.27734e-07)
(-2.96893e-09 -6.12074e-09 1.14193e-07)
(1.56741e-09 3.97198e-10 3.00487e-07)
(1.53375e-09 -2.79947e-09 2.68497e-08)
(-2.16345e-09 2.57474e-10 2.69671e-07)
(3.1119e-10 -5.55815e-10 3.23377e-08)
(1.82578e-09 -5.26787e-09 1.50046e-07)
(1.68777e-10 3.53481e-10 2.12397e-07)
(-2.67477e-09 3.89154e-09 1.54393e-07)
(-3.05891e-09 1.90721e-09 2.27797e-08)
(6.7944e-10 -2.04782e-09 5.9676e-08)
(-9.11957e-11 4.88686e-09 8.78576e-08)
(2.16985e-09 -4.69563e-09 1.50349e-07)
(-7.48806e-10 1.42561e-09 3.18019e-07)
(-5.13899e-10 1.5958e-09 6.56216e-08)
(3.03079e-09 -5.2377e-09 1.54849e-07)
(-2.39592e-08 1.88169e-10 2.23915e-07)
(-1.58029e-09 6.59984e-10 1.83591e-07)
(2.46549e-09 -1.89282e-10 3.39987e-08)
(1.12124e-09 2.23838e-09 2.39951e-07)
(-1.42934e-08 -7.95103e-09 1.479e-07)
(1.8584e-09 2.06582e-10 1.76211e-07)
(-2.09476e-09 1.52283e-09 1.14103e-07)
(-1.22418e-09 1.19429e-09 1.53499e-07)
(3.44842e-09 4.75338e-09 1.21713e-07)
(-1.07752e-09 6.03169e-10 1.64148e-07)
(-7.9598e-10 -8.7097e-10 1.35924e-07)
(5.01516e-09 -6.97778e-09 8.30054e-08)
(4.82662e-10 2.91509e-10 2.56162e-07)
(-3.93947e-09 -1.60187e-09 7.32693e-08)
(2.57171e-09 -1.73924e-09 1.86324e-08)
(-1.33091e-09 -1.23383e-09 3.03228e-07)
(3.9421e-11 -1.40221e-09 1.58197e-07)
(-1.77079e-09 9.39019e-10 2.97213e-07)
(2.29062e-09 -3.12495e-09 2.32966e-07)
(4.42529e-09 -2.038e-10 3.92076e-07)
(3.20099e-09 -5.00194e-10 1.545e-07)
(4.13233e-09 7.04005e-11 3.64147e-07)
(2.47395e-09 5.28579e-09 1.11373e-07)
(-8.84214e-10 -7.3174e-10 1.30432e-07)
(3.55724e-09 1.18063e-09 3.12376e-07)
(-4.84181e-09 -3.23176e-09 3.7857e-08)
(-3.27101e-10 1.28139e-09 2.8929e-07)
(2.01868e-09 -4.17143e-09 1.31308e-07)
(2.12341e-09 3.06079e-09 3.55516e-08)
(5.04142e-11 1.02985e-10 2.72827e-07)
(-2.58147e-09 3.21271e-10 7.11907e-08)
(-5.79703e-10 8.40583e-10 1.99118e-07)
(6.81146e-10 4.67467e-10 1.83606e-07)
(-2.10816e-09 3.97998e-09 3.73781e-07)
(1.3324e-09 7.41597e-09 1.09737e-07)
(1.68818e-09 -4.19936e-10 2.49244e-07)
(2.24541e-09 3.97649e-10 1.66771e-07)
(-1.65964e-09 8.41958e-10 2.67705e-07)
(1.38006e-09 4.50561e-10 2.73981e-07)
(1.50266e-09 7.82817e-10 2.41997e-07)
(3.58454e-10 -9.94183e-10 1.4148e-07)
(3.74472e-09 -1.289e-09 5.57906e-08)
(1.11458e-09 2.82094e-10 7.86879e-08)
(-1.02585e-09 6.2711e-10 1.54121e-07)
(-1.99933e-09 -1.79163e-09 2.63354e-07)
(5.53931e-10 2.58691e-09 3.31972e-08)
(-1.08831e-09 -3.6102e-10 2.24375e-07)
(-8.08973e-10 2.68799e-09 4.12412e-07)
(1.63097e-09 2.76272e-09 3.05978e-07)
(1.86286e-09 2.8538e-09 3.21696e-07)
(-1.26608e-09 1.94576e-09 2.63116e-07)
(-1.75848e-09 2.51652e-09 2.3738e-08)
(5.78927e-11 9.97258e-10 2.00481e-07)
(2.18156e-09 -1.98391e-09 1.56741e-07)
(-1.02781e-09 -1.02596e-09 2.46063e-07)
(1.10099e-10 -9.7865e-11 1.73242e-07)
(-2.49787e-09 -1.64857e-09 4.17459e-08)
(-1.07071e-09 1.38961e-09 1.75595e-07)
(-2.42739e-09 4.1074e-09 1.63214e-07)
(1.3348e-09 2.95066e-10 2.49744e-07)
(1.25627e-09 2.3662e-09 2.28632e-07)
(-1.01559e-09 1.01891e-09 1.9545e-07)
(1.53051e-09 1.8618e-09 1.6071e-08)
(-2.61425e-09 1.20382e-09 2.39593e-08)
(-1.11719e-10 -1.99755e-09 1.58624e-07)
(-7.58651e-10 1.38769e-10 2.6719e-07)
(-2.35987e-10 1.95108e-09 1.93543e-07)
(-7.17329e-10 9.69082e-10 1.68686e-07)
(1.21683e-10 2.72331e-09 1.73501e-07)
(-3.13202e-10 2.54504e-09 2.44764e-07)
(5.53762e-10 -3.34735e-10 2.51285e-07)
(8.45771e-10 1.85594e-09 2.29117e-08)
(8.77699e-11 -1.59276e-09 1.25103e-07)
(-1.49457e-08 1.60127e-09 1.72863e-07)
(-8.5761e-10 3.23719e-09 5.42277e-08)
(-9.43601e-10 6.43271e-09 9.49598e-08)
(-7.16956e-11 2.80496e-09 3.03255e-07)
(2.02664e-09 2.99187e-11 2.10817e-07)
(-1.06004e-10 -1.54686e-09 1.96493e-07)
(7.30987e-10 -5.95173e-10 2.46233e-07)
(-4.22639e-09 2.56223e-09 1.49663e-07)
(-3.45525e-10 -4.8452e-10 2.83099e-07)
(2.29698e-09 -4.52293e-09 1.93419e-07)
(3.28525e-09 -1.60722e-09 3.80624e-07)
(2.66609e-10 -1.28891e-09 1.91154e-07)
(2.4941e-09 -1.90248e-09 2.02912e-07)
(2.3453e-09 -1.52545e-09 2.72879e-07)
(1.99974e-09 1.75794e-09 5.51503e-08)
(3.43036e-09 -1.95716e-10 4.95892e-07)
(-8.35264e-10 -1.85245e-09 3.90493e-08)
(-1.64425e-08 -2.18154e-09 1.48902e-07)
(3.85966e-09 -2.184e-09 1.30872e-07)
(-1.45875e-08 -4.48664e-10 1.60274e-07)
(1.77406e-09 -3.94404e-10 2.17875e-07)
(-4.59253e-08 1.51303e-09 2.90603e-07)
(7.2968e-11 3.56312e-11 1.22177e-07)
(5.23674e-10 4.77216e-10 2.86998e-07)
(-8.5667e-10 1.2321e-10 3.19695e-07)
(1.2863e-09 7.56385e-10 1.87895e-07)
(-1.03748e-09 -4.40894e-11 4.14176e-08)
(-5.48713e-09 1.70516e-10 1.18482e-07)
(-2.98903e-08 1.74402e-09 2.09904e-07)
(-6.61038e-11 -2.53105e-10 1.86002e-07)
(-5.39964e-10 2.43442e-09 1.06623e-07)
(-1.71259e-08 1.56964e-09 2.16049e-07)
(-2.76842e-09 1.62811e-09 2.21459e-07)
(1.79969e-09 1.46658e-09 3.28386e-07)
(-2.11982e-09 -1.05825e-09 5.13293e-08)
(2.10687e-09 2.7099e-09 6.1308e-08)
(-7.357e-10 -4.62297e-10 3.14491e-08)
(1.30946e-09 1.22385e-09 2.36682e-08)
(-2.96364e-10 -8.89312e-11 5.16804e-08)
(-1.06658e-08 1.72041e-09 2.22325e-07)
(-5.19622e-10 6.52677e-10 1.80189e-07)
(-2.11038e-09 -2.44702e-09 2.23855e-08)
(-3.25676e-09 9.32018e-10 2.45337e-08)
(1.28245e-09 1.42924e-09 2.97465e-07)
(-2.50241e-08 5.55193e-09 1.66266e-07)
(-2.80818e-09 6.11774e-11 5.39695e-08)
(8.90217e-11 -3.55044e-10 2.20621e-07)
(-1.86527e-09 8.23898e-10 1.15852e-07)
(1.60749e-09 -1.4404e-10 2.03735e-07)
(2.06506e-09 2.70554e-09 5.13987e-08)
(-1.60776e-09 -2.05944e-09 1.0487e-07)
(6.25474e-10 1.51371e-09 2.03951e-07)
(-5.23037e-11 6.3531e-10 2.38799e-07)
(-6.3445e-10 1.76039e-09 3.7954e-07)
(-2.46628e-09 4.21537e-09 5.12246e-08)
(-8.65765e-10 -2.56578e-09 2.84991e-08)
(-3.57968e-08 5.05965e-10 2.01605e-07)
(-3.99594e-09 2.40756e-09 3.29272e-08)
(-2.31356e-10 3.89289e-09 3.12246e-07)
(-5.05297e-09 -1.67078e-09 3.41054e-08)
(7.51686e-10 3.6331e-09 1.60662e-07)
(-5.13213e-10 -3.4132e-10 2.6496e-07)
(2.05668e-09 2.32651e-09 3.84556e-07)
(-1.41732e-09 -2.01731e-09 6.88109e-08)
(1.30221e-09 -1.32484e-09 1.50955e-07)
(-2.25548e-09 -5.25308e-10 4.51243e-08)
(-4.38448e-09 -3.06514e-10 3.40582e-08)
(4.86186e-10 -1.19961e-09 2.2556e-07)
(-2.58921e-09 1.22469e-09 1.77039e-08)
(1.77589e-09 -1.13486e-09 1.61497e-07)
(-1.47569e-09 -3.22175e-09 7.0723e-08)
(-1.13388e-10 1.3853e-09 3.05944e-07)
(-2.76642e-11 3.26569e-10 2.23026e-07)
(3.55807e-09 1.4432e-09 2.27744e-08)
(-2.6713e-09 -6.95323e-09 1.54731e-07)
(2.13513e-10 6.13666e-10 2.36455e-07)
(-4.47844e-10 1.95591e-09 3.62646e-08)
(3.68989e-10 -1.21849e-09 2.61073e-07)
(-2.39156e-09 6.54011e-09 9.14088e-08)
(8.77266e-10 -1.09544e-10 2.30551e-07)
(1.92608e-10 1.44599e-09 1.94045e-07)
(3.06562e-09 9.01504e-11 6.53605e-08)
(-3.7155e-09 -7.69172e-10 2.49361e-08)
(-1.1385e-09 -5.69015e-10 1.07165e-07)
(-3.92037e-08 1.43878e-10 2.43251e-07)
(-2.94323e-10 8.72909e-10 2.46426e-07)
(7.83305e-10 5.53819e-09 8.88088e-08)
(3.42468e-09 6.18109e-11 2.05495e-07)
(4.37069e-10 1.3066e-09 2.86959e-08)
(4.32094e-10 1.25338e-09 1.71286e-07)
(8.68469e-10 1.21272e-09 2.65873e-08)
(-5.66832e-10 3.71287e-09 3.02747e-07)
(9.22824e-10 1.78546e-09 2.96741e-07)
(5.40915e-10 4.67258e-10 1.98521e-07)
(-1.83477e-09 -3.06374e-10 1.7081e-08)
(2.27686e-09 1.97671e-09 3.29987e-07)
(2.35618e-11 9.80673e-10 1.73993e-07)
(2.41129e-10 1.97912e-09 3.36115e-07)
(-1.39808e-11 3.24001e-10 7.16926e-08)
(-3.02302e-08 8.87799e-10 2.22285e-07)
(-1.66268e-09 1.92795e-09 2.45761e-07)
(2.30843e-09 8.94009e-11 7.76367e-08)
(5.22828e-11 -7.65537e-11 2.12338e-07)
(-3.94161e-08 4.50386e-09 2.09975e-07)
(-4.75075e-10 -5.18847e-10 1.89398e-07)
(-1.18111e-09 -2.18913e-09 3.82035e-08)
(-2.55088e-09 5.17208e-09 1.18723e-07)
(3.28929e-10 1.65695e-10 1.63027e-07)
(4.60738e-10 -2.22652e-09 2.21728e-07)
(-1.02794e-09 1.54283e-09 3.74255e-08)
(1.79513e-10 -2.8315e-09 2.31566e-07)
(6.59361e-09 2.23155e-09 1.79356e-07)
(-2.27144e-09 2.385e-09 2.96866e-08)
(1.05723e-10 -1.11919e-10 1.75563e-07)
(-1.58687e-08 7.66711e-10 1.58187e-07)
(-2.404e-09 -6.09587e-09 3.343e-07)
(3.33737e-10 1.44662e-10 1.76969e-07)
(6.62006e-10 1.26148e-10 1.58598e-07)
(1.05539e-09 3.70727e-10 2.74369e-07)
(1.46761e-09 2.28067e-09 2.61461e-07)
(2.82454e-09 1.02171e-09 8.22052e-08)
(-9.54815e-10 6.45515e-09 8.36094e-08)
(3.54612e-09 -2.25227e-10 3.2794e-07)
(-2.705e-08 -9.01275e-10 2.24546e-07)
(3.60054e-10 1.60847e-09 2.17295e-07)
(1.42555e-09 -3.70865e-10 1.94185e-07)
(2.75374e-09 -1.52102e-09 1.40712e-07)
(2.66106e-10 2.33424e-10 3.12862e-07)
(-8.01609e-10 3.54485e-10 1.84938e-07)
(-3.3214e-09 -2.16451e-09 1.96067e-07)
(-3.01601e-09 4.024e-09 2.41855e-07)
(-1.44801e-09 2.93686e-09 5.04227e-08)
(-3.08576e-09 -1.60791e-09 1.89816e-07)
(-4.13401e-09 -2.7704e-09 4.70284e-08)
(-7.71428e-10 -1.51602e-09 2.9685e-07)
(-1.00036e-09 -1.59487e-09 2.84609e-07)
(4.67915e-11 5.08883e-09 1.81476e-07)
(-3.36749e-11 -1.50493e-09 1.74084e-07)
(1.26685e-09 -2.02056e-09 2.07358e-08)
(1.08186e-10 -7.67346e-10 1.16825e-07)
(-4.83732e-09 -1.94015e-09 8.63579e-08)
(-1.26987e-09 5.1661e-10 2.28612e-07)
(8.70696e-10 1.15471e-09 2.04312e-07)
(-2.40535e-08 -1.46427e-09 2.20428e-07)
(-2.0703e-09 1.2781e-09 2.82363e-07)
(-1.04689e-09 3.1228e-09 9.14232e-08)
(-1.1284e-08 5.42584e-10 1.3654e-07)
(-1.84006e-09 -2.91695e-09 2.46562e-07)
(2.52723e-09 1.28681e-09 3.33072e-08)
(4.95448e-10 1.30672e-09 2.09574e-07)
(-4.88773e-10 2.06077e-09 6.17227e-08)
(-1.2213e-09 -4.93976e-10 2.02361e-07)
(5.02738e-09 -2.15649e-09 3.78603e-08)
(3.28744e-09 1.73882e-09 3.16061e-07)
(-1.04984e-08 -5.38441e-10 2.03916e-07)