/*--------------------------------*- C++ -*----------------------------------*\
| =========                 |                                                 |
| \\      /  F ield         | OpenFOAM: The Open Source CFD Toolbox           |
|  \\    /   O peration     | Version:  2406                                  |
|   \\  /    A nd           | Website:  www.openfoam.com                      |
|    \\/     M anipulation  |                                                 |
\*---------------------------------------------------------------------------*/
FoamFile
{
    version     2.0;
    format      ascii;
    arch        "LSB;label=32;scalar=64";
    class       volScalarField;
    location    "24";
    object      nut;
}
// * * * * * * * * * * * * * * * * * * * * * * * * * * * * * * * * * * * * * //

dimensions      [0 2 -1 0 0 0 0];

internalField   nonuniform List<scalar> 
59516
(
6.47676e-05
9.3203e-05
9.19334e-05
0.000194453
0.00121405
0.000186229
0.000145471
7.49081e-05
7.44457e-05
0.000113476
0.00107522
8.84778e-05
8.0081e-05
0.000171592
0.000107634
9.16221e-05
0.00083281
0.000105648
8.24185e-05
0.000583794
0.000161162
0.000258028
0.000350232
0.00015484
0.00034848
0.000103044
0.000148351
0.000174807
0.000109312
0.000151246
0.000245759
0.000168002
0.000181967
0.000119108
0.000246685
0.000204072
0.000147105
9.68488e-05
6.3272e-05
0.000391202
7.32083e-05
0.000432524
0.000285022
0.000102035
0.00022286
9.30356e-05
0.000127133
0.00079488
0.000906991
0.000496902
0.00062607
0.000146258
8.24685e-05
0.000102004
0.000173741
0.000136289
0.000588804
0.000166776
0.000894013
0.000194422
0.000341945
0.00016518
0.000699763
0.000725042
0.000133962
0.000366381
0.000213498
0.000144335
0.000448989
0.000157505
0.000235493
0.000640996
0.000187718
0.000253403
0.00101429
0.000498256
0.000782092
0.000295229
0.000143347
0.000529779
0.000144297
0.000397482
0.000250888
0.000171624
0.000376361
0.000906359
0.000140853
0.000251077
9.61187e-05
7.62569e-05
0.000747818
0.000257629
0.000776973
0.000235685
0.000586536
0.00114816
0.000279888
9.33078e-05
9.72231e-05
0.000321853
0.000165035
0.000189057
0.000186123
9.22432e-05
0.000177938
0.000382732
0.000157916
7.09013e-05
8.3817e-05
0.000106726
0.000289604
0.000208274
0.00011243
0.000175911
0.000448156
7.11878e-05
9.5236e-05
0.000192584
0.000174688
0.00027711
0.00124811
0.000714207
0.000449702
0.000714644
0.000325053
5.79636e-05
0.000208637
0.000243102
0.000282304
0.000995768
0.00120474
8.23619e-05
0.00016621
0.000249316
7.43069e-05
7.71631e-05
0.000128888
0.000108622
0.000153903
8.91443e-05
0.00014909
0.00112098
0.000147314
0.00014361
0.00100077
0.000233188
0.000190467
9.85854e-05
0.000251587
7.71486e-05
7.78241e-05
0.000139049
0.000547314
0.000346646
6.09695e-05
0.000159882
0.000114826
7.67707e-05
5.86252e-05
0.000163879
0.000120429
0.000118227
0.000147617
0.000193837
6.99716e-05
0.000708935
9.70723e-05
0.000935164
0.000155746
0.00027053
5.9766e-05
8.53356e-05
8.42611e-05
0.000214994
0.000127868
0.000141061
0.000758043
0.000329284
0.000110165
0.000125347
0.0002587
0.000140165
0.000217807
8.11175e-05
0.00103637
8.91478e-05
0.000121371
0.000159926
8.65382e-05
7.52558e-05
0.000227108
9.00596e-05
0.000574699
6.87115e-05
0.000316984
0.00011945
9.0852e-05
0.000126468
0.000125891
0.000288368
9.10643e-05
0.00124542
6.38141e-05
0.000151664
0.000135212
0.000231418
0.00102394
0.000498698
0.000165938
0.000106805
0.000102931
0.000193306
0.000262073
0.0001006
0.000101879
0.000714509
0.000204788
0.000354613
0.000101594
0.000415738
0.000104658
0.000101388
0.000724148
0.000168445
0.00080448
0.000808613
0.000200798
0.000143925
0.000789082
9.65471e-05
0.000772122
0.00084258
0.00126096
0.000180872
0.00013948
0.000122783
8.12439e-05
6.90979e-05
0.000468929
0.000112382
0.00119275
0.000175392
8.74647e-05
0.000196138
0.00110006
5.27402e-05
0.00031648
0.000107612
0.000671663
6.82706e-05
0.000551721
0.000242706
0.0012838
0.000295751
0.000271308
0.000444614
0.00010091
0.00040503
0.000143499
0.00010783
0.00014218
0.00054643
9.5676e-05
0.000835057
6.77378e-05
8.10962e-05
0.000501838
6.2142e-05
0.000184103
8.20319e-05
8.29311e-05
0.000856866
5.66814e-05
6.87889e-05
0.000643276
5.64951e-05
0.000159546
0.000497695
0.000181322
0.000143568
0.00118057
0.000212238
0.000198636
0.000108271
0.000121258
0.00082564
0.00108425
0.0002041
0.00112394
0.00133811
0.000897359
0.000186143
0.000230964
6.83007e-05
0.000676016
0.000217045
0.000543422
0.000200621
0.00127163
0.000785893
7.479e-05
8.31983e-05
0.000174072
0.000187213
0.000441493
0.000171248
0.000143141
0.000105832
0.000639608
0.000628106
0.000316035
8.94097e-05
8.51889e-05
0.000158805
9.02016e-05
0.000553913
6.64979e-05
0.001114
7.98154e-05
0.000133075
0.00011598
9.18815e-05
0.000976902
0.00115281
0.00128379
0.000434078
7.96222e-05
0.000160736
0.000712032
0.000514604
0.000491785
9.00138e-05
0.000181489
0.000343525
0.000137096
0.000142611
0.000589234
0.000274586
8.95085e-05
0.000859545
0.000592803
0.00119711
0.000856614
0.000129288
0.000426776
0.00105452
9.21412e-05
0.00112371
0.000929886
0.000173455
0.000151863
0.000395553
0.000250272
5.81912e-05
0.000147658
0.000152629
7.59668e-05
0.000150148
0.000266138
6.28741e-05
0.000109412
0.000149979
0.00110539
0.000339511
0.000145018
0.000355441
0.000365406
0.000150412
0.000294347
0.000104242
0.00013516
0.000147538
0.000565751
7.2744e-05
0.000524582
0.000158539
0.000159979
0.000148616
0.0006705
7.67656e-05
9.28541e-05
6.43729e-05
0.00109979
0.000182732
9.46408e-05
0.00020992
0.000174665
0.000160916
0.000104286
0.000163423
8.38389e-05
7.70108e-05
0.000481181
0.000133255
0.00119303
0.000121634
0.000104489
0.00010429
0.00101207
0.000950102
8.20714e-05
0.000120885
7.00998e-05
0.00106745
0.00100801
0.000157702
0.000169646
0.000270699
0.000282275
0.000424856
0.00018596
0.000173946
0.000125112
0.000932148
0.00115923
0.000145857
0.000827723
6.09352e-05
0.00102053
0.000934383
0.00107091
0.000913274
0.000832994
5.93303e-05
0.00112284
9.70011e-05
0.0006675
9.05043e-05
0.000418387
0.000955911
0.000247843
0.000265301
0.000130195
0.000145262
0.000163477
0.000752984
0.00117293
0.000245213
0.000118389
0.000129367
0.000175039
0.000108236
0.000411065
0.000974496
0.000390177
0.000173163
0.00118566
0.000167096
0.000197223
0.000115178
9.44354e-05
0.000256883
0.000444771
6.60889e-05
0.000261411
0.000174182
0.00102548
0.0010283
0.00110613
5.44445e-05
0.000442508
0.000868462
0.000174507
0.00117602
7.10869e-05
0.000792916
0.000303012
0.000164528
0.00108535
0.000112384
0.000150113
5.08346e-05
0.000694694
0.000144095
6.42305e-05
0.000168249
0.000904029
0.000117618
0.000457248
0.000134404
0.000129448
0.000236404
0.000191068
0.000598573
0.000792628
0.000764957
0.000163325
8.31681e-05
6.34622e-05
0.0001086
0.00128947
0.000974907
0.00019119
0.000611014
0.00129056
0.000165849
0.000102318
8.80559e-05
0.000408828
0.00111109
0.000225365
8.79817e-05
8.41011e-05
9.41092e-05
0.001163
0.000183231
0.000384378
0.00041967
0.00102991
0.000233328
0.000602126
0.000168891
0.000594028
0.000171369
8.13975e-05
0.000414015
9.09371e-05
0.000173799
0.000159034
0.000147121
9.79573e-05
0.000219606
9.19849e-05
8.74946e-05
0.000542317
0.000848455
0.000193389
6.89139e-05
0.000125182
0.000774251
9.25117e-05
0.000752609
0.000102068
0.000167849
0.0010747
0.000121117
0.000841519
0.000162334
0.000158748
0.000274377
0.00110609
0.000169393
0.000131151
0.000953329
0.00011794
0.000608117
8.76649e-05
0.000994588
0.000141379
0.000191837
0.000313041
0.000160179
0.000192182
0.00023811
0.000130179
0.000203146
0.00111806
0.000157552
8.48583e-05
0.000938747
6.48767e-05
0.00118836
0.000976687
0.00108523
0.00112563
0.000139237
0.000100214
0.000978178
0.000535134
0.000152104
0.000552759
0.000915484
0.000832168
0.000986063
7.71466e-05
0.00016425
0.000796437
9.4187e-05
0.00044859
6.62339e-05
0.000198575
0.00118583
7.29658e-05
0.000163032
0.00109845
0.00023365
0.000133769
0.000174764
0.0010157
0.000722203
0.00127794
0.000429412
5.88561e-05
0.0003237
0.000926781
0.000160943
0.00115459
0.000272298
0.000159543
8.96113e-05
0.000195128
0.000236515
0.000192298
0.000106996
6.76828e-05
0.00116285
8.41356e-05
0.000829886
0.0007582
0.00116489
0.000920104
0.000166196
0.000520134
0.000142278
0.000208704
8.96396e-05
0.000723042
0.000176766
0.000176415
0.000866954
0.000741246
0.000351582
0.000828921
0.000142006
0.00147786
0.000739317
0.00104814
7.94103e-05
0.000291196
0.000926823
8.9293e-05
0.000131164
7.63056e-05
0.000181899
0.000190544
0.000210701
0.000150126
0.000242911
0.000182861
0.000175591
0.00136936
0.000213594
0.000146438
0.000269311
7.2425e-05
0.000162735
0.000163691
9.1649e-05
8.51334e-05
0.000778402
0.000317148
0.000144589
0.000171392
0.000391527
0.000203852
0.000171982
0.000193809
8.51829e-05
0.0010696
0.000794178
0.000137785
7.96942e-05
0.00012708
0.000200913
0.000981471
0.000155857
0.000682713
0.000165281
0.000419247
0.000249933
0.000167765
9.12721e-05
0.000316534
0.000141847
0.000625081
9.76624e-05
6.43995e-05
0.00118088
0.00013745
0.000173244
0.000147365
0.000678387
7.21177e-05
9.14427e-05
4.52979e-05
0.000128427
0.00120032
0.000184296
0.000559963
0.000196015
0.000736236
0.000159823
0.0002331
6.23961e-05
0.000418988
0.000104255
0.000898753
0.000402068
0.000123589
0.00127196
0.000492284
9.78768e-05
0.000136876
0.000167445
0.00112195
0.000126134
0.000140093
7.55013e-05
9.24451e-05
0.000183251
0.00101357
0.00124769
0.000124976
0.000820001
0.000958037
0.000723914
0.000159079
0.000141627
0.000145171
0.000993469
0.00100037
7.96959e-05
0.000152381
5.85737e-05
0.000245135
0.000593075
7.40286e-05
6.28458e-05
0.000180425
0.000115486
0.00016926
0.00037544
0.000775825
6.03228e-05
6.39213e-05
0.000154965
6.34178e-05
0.000102499
0.000979277
0.00100255
0.00118874
0.000589419
5.45192e-05
0.000837731
0.00019667
0.000199111
0.00100704
8.85186e-05
0.000203866
0.000204144
0.000819666
0.00134447
0.000449746
8.34026e-05
0.00034304
0.00027351
0.00119403
0.000153285
0.000171359
0.000120091
0.000976326
0.000448205
0.000211115
0.00041689
0.000149431
8.97463e-05
7.51442e-05
0.00095332
0.000142272
0.000318113
9.5689e-05
0.00118352
0.000170403
5.82757e-05
0.000468382
0.000199347
0.000124477
9.65804e-05
0.000171682
9.36248e-05
0.000725824
9.33263e-05
0.000159122
7.16913e-05
0.000181518
6.31956e-05
0.000869772
0.00133497
0.00083937
0.000520312
0.000922924
0.000121546
0.000129628
0.00088714
0.000142266
5.73942e-05
0.000100879
0.000619434
7.88667e-05
8.6101e-05
0.000341317
0.000146994
5.8617e-05
7.54242e-05
0.00010419
0.000399208
0.000269017
0.000134788
0.000138972
0.000204685
8.79376e-05
0.000165192
0.000113637
0.000455728
0.000142217
0.000108514
0.000214909
0.000380992
0.000181836
0.000489379
0.000765678
0.000126417
0.000179868
9.33552e-05
7.07964e-05
0.000181083
0.000501011
0.000174952
0.000943622
0.000456401
0.000148459
0.000362494
0.000441928
8.18013e-05
0.00108621
0.000157012
0.000145168
7.58718e-05
7.31377e-05
0.000156126
0.000286951
0.000433589
0.000853249
0.000735365
6.49231e-05
0.000447956
0.00124868
7.52123e-05
0.000162074
0.000756397
6.37573e-05
0.000164555
0.000550322
0.00101909
0.000378891
6.60343e-05
0.000130914
6.82258e-05
6.67325e-05
7.20482e-05
7.75082e-05
0.000127609
8.00594e-05
0.000561904
0.000915177
0.00160416
0.000176819
9.2496e-05
0.00014034
0.000161744
0.000136317
0.000130898
0.00020958
0.000166416
0.0011791
0.0002912
0.0011875
0.00104435
0.000225461
0.000114982
0.00091225
0.000173699
0.000206849
0.000380763
0.000136855
0.000399111
0.00102692
7.68714e-05
0.000960304
0.00127261
0.000830666
9.66165e-05
0.00144403
0.000159979
6.86291e-05
0.000882967
0.000189344
9.75336e-05
8.70651e-05
0.00011601
0.000125122
0.000391453
0.000826844
0.000830257
0.000394503
6.76184e-05
0.000170898
0.000423064
0.000548773
0.000107625
7.38839e-05
0.000411671
0.00112498
0.00103597
0.000164261
0.00104161
6.72511e-05
8.23209e-05
0.000165919
9.10595e-05
5.37954e-05
0.00094844
0.000114462
0.000745348
0.000721667
0.00067731
0.00115916
0.000790383
0.00087724
0.000803766
0.00120559
0.00144788
0.000167755
0.000132976
0.000155974
9.38744e-05
0.000574126
0.000117851
0.000155292
0.000676946
7.6832e-05
0.00134906
0.00134013
0.00115125
0.000327665
6.56636e-05
0.00104387
0.000295849
6.22838e-05
0.00112197
0.00016972
0.00105606
0.000138727
5.55284e-05
0.000638341
9.12873e-05
0.000146218
0.000659047
0.000512153
0.000293895
0.000132312
0.000927265
0.000134531
6.84549e-05
8.78363e-05
8.13182e-05
7.08675e-05
0.00124507
9.63187e-05
0.00038604
0.000647437
8.9782e-05
0.0011555
0.00123765
8.61703e-05
0.00113428
0.000924435
0.000101566
0.00119427
0.000144807
0.000142932
0.000854267
0.000516169
0.000223189
0.000985505
7.99699e-05
4.92565e-05
0.000785771
0.000184197
0.000673714
0.000945278
8.22277e-05
0.000197729
0.000184676
7.81319e-05
0.000143612
0.000184683
0.000142853
7.67032e-05
0.000157264
7.14124e-05
0.000687174
0.000542547
0.00129566
0.00108929
8.36999e-05
0.000511761
0.00103237
8.08571e-05
0.000261652
0.00014252
0.000112077
0.00045738
0.00121363
8.62038e-05
0.000507611
6.41364e-05
9.57683e-05
0.000166962
0.000123203
6.4902e-05
0.000144484
0.000124899
0.00015987
0.000525239
7.54338e-05
0.00103337
0.000191107
0.00117784
7.96164e-05
8.04394e-05
6.92542e-05
0.000233675
0.000169531
0.000567701
0.000373277
8.08045e-05
0.0001975
0.00016736
0.00124669
0.000310934
0.000967725
9.23351e-05
7.70469e-05
0.000333853
0.00011985
9.2707e-05
0.00105105
0.000265601
9.41313e-05
0.000204369
0.000193129
6.55829e-05
0.000339124
0.00115713
0.00014904
0.000366428
0.000109505
0.000193444
0.000584871
0.000469586
0.00109838
0.000311997
7.85381e-05
0.000199601
0.000621372
0.000239446
0.000191986
0.000135662
0.000143051
0.000715687
7.13333e-05
0.000554321
8.68777e-05
0.000813937
0.000177276
0.000179164
0.000110177
0.000563476
0.00114575
0.000163153
0.000237479
0.000133818
0.000141995
0.00035914
0.000183945
0.00017567
0.000210914
0.000626694
0.000270099
0.00054889
7.08897e-05
0.00022185
0.000489549
0.000811204
0.000105969
9.21777e-05
8.53929e-05
0.000275593
5.69697e-05
0.000142166
0.000198026
0.000874553
7.8552e-05
5.64968e-05
0.000619071
0.00056221
0.000115739
0.000672699
0.000985016
0.000166909
0.000193376
0.000859877
0.00100396
0.000152263
0.000148562
0.000942261
8.21891e-05
0.000199969
5.88673e-05
0.00100404
0.00065454
0.000928886
0.000233297
0.000558308
0.000173168
0.000119833
0.00103586
0.000791714
6.08848e-05
0.000449949
8.52528e-05
9.17328e-05
0.000146266
0.000330596
0.00019663
0.000302411
0.000185144
6.06847e-05
0.0001113
0.000172982
0.00120717
0.00104657
9.44974e-05
0.000949669
7.8484e-05
0.000322466
0.000162689
0.000117116
0.00024171
7.14106e-05
0.000267252
6.29275e-05
7.97597e-05
7.10108e-05
8.95576e-05
0.000262568
6.73075e-05
0.000388369
0.000718885
0.000100814
9.61289e-05
0.000203769
0.000580996
0.000140129
0.000123276
0.000136051
7.82789e-05
0.000166018
0.000292765
9.0695e-05
0.000142899
0.000163022
0.00018138
0.000926643
0.000168622
0.000166813
6.98321e-05
8.17149e-05
0.000140198
0.000139601
0.000163438
0.00110607
6.3178e-05
0.000250837
8.61601e-05
7.2371e-05
0.000170291
0.000224576
0.000108199
0.000161323
0.000626407
8.78161e-05
0.000169153
0.00114335
6.26242e-05
0.000144105
5.94004e-05
6.85196e-05
0.000120272
0.000309647
0.000164493
0.00120734
0.00131618
0.00016444
6.81279e-05
0.000135436
0.000517371
0.000154361
0.000672326
0.000650288
0.000844583
0.000110525
0.000558872
0.000599657
0.000473617
0.000565932
0.000126878
0.000158983
0.000733357
7.62337e-05
0.000100066
0.0012653
0.000143712
0.000174698
6.51884e-05
0.000207523
0.000204143
9.05816e-05
0.000502929
0.000779041
0.000153942
0.000163198
0.000130845
0.000296533
0.000122719
0.000107152
0.0012431
0.000566885
0.000651698
0.000869607
0.00108944
0.000561771
0.000263608
0.000125968
0.000118587
8.61033e-05
4.99129e-05
7.76312e-05
0.00116671
0.000168766
0.000152693
8.73388e-05
0.000741164
8.41555e-05
0.000238338
6.94193e-05
0.000635905
0.000329937
8.49836e-05
0.000913684
0.000678036
0.000519206
0.000135864
0.000210889
0.000954519
0.00115984
0.000170137
6.17758e-05
0.000161197
0.000946536
0.000225518
0.000158339
8.01499e-05
0.000246369
6.13909e-05
0.000844756
9.32983e-05
0.000184217
0.000119212
0.000177015
5.0845e-05
0.000168457
0.000424749
0.000263716
0.000925584
0.000179959
0.000102282
4.76531e-05
0.000288433
7.86997e-05
9.68688e-05
5.91195e-05
0.0010957
0.000154481
0.00116472
0.000273687
0.000102114
9.83852e-05
0.00019876
0.000510928
0.00101391
0.000212323
0.000132202
6.14804e-05
7.82776e-05
5.99327e-05
0.00016654
0.000131012
0.00019457
7.2275e-05
0.00133538
0.000130268
0.00013455
8.46576e-05
0.000194353
0.000488272
0.000195683
0.000740329
0.00135337
0.000240695
0.000101581
0.00103206
0.000134842
0.000109419
0.00112727
0.000619821
0.000113807
0.00172342
0.000675395
0.000174753
0.000146168
0.000470336
0.00100324
7.14271e-05
0.000444894
0.00095372
9.96807e-05
8.9062e-05
0.000134934
9.4464e-05
0.00118596
0.00014403
6.36932e-05
0.000464806
0.000145004
0.000212643
7.35595e-05
9.5954e-05
0.000113253
0.000179126
7.64614e-05
0.000152319
0.000152397
0.000146601
0.000176332
7.6429e-05
5.22876e-05
0.00111099
0.000162601
0.0008638
0.000134084
0.000294549
8.75396e-05
0.000502387
0.000138473
0.000498333
0.00141481
7.53679e-05
0.00132064
0.000141399
0.000152308
0.000135084
5.4938e-05
0.000218525
0.000131703
0.000177876
6.28403e-05
0.000161059
0.000355459
0.00024047
0.00114828
0.000644214
0.000149245
7.86836e-05
7.3866e-05
0.000386914
0.000206282
0.000201779
0.000816116
6.14108e-05
0.000407982
0.000167484
0.000492347
6.72174e-05
8.53962e-05
0.000104651
7.41454e-05
0.00120116
0.000198722
0.000208862
0.000180949
0.000218271
0.000231033
0.000101321
0.000208109
0.000233841
0.000985181
0.000423305
0.000112269
5.82115e-05
7.44245e-05
0.000183399
0.000194869
0.000231231
9.66559e-05
0.000224007
0.000478392
0.000164137
0.000127763
0.000132168
0.000172295
0.00124385
8.6922e-05
0.00064981
0.000139007
0.00083488
0.000151725
0.000164049
0.000111491
0.00032479
0.000188344
0.000167018
9.21343e-05
0.000111635
0.000985438
0.000363818
0.00104079
6.47661e-05
6.6743e-05
7.93575e-05
0.000160016
0.000122074
0.000102567
0.000128951
7.42638e-05
0.000870355
0.000123873
9.65313e-05
5.32767e-05
0.000270249
0.000411776
8.64747e-05
0.000145553
0.000164612
0.000122773
0.00034295
0.000160917
5.61521e-05
7.36432e-05
0.000102472
7.87046e-05
0.000311517
5.81609e-05
8.31514e-05
0.000671233
8.20743e-05
0.000649129
0.000181126
0.000142347
0.000150615
5.49963e-05
0.000339488
0.000110301
6.33188e-05
0.000155195
0.000208629
0.000127999
0.000325335
6.38292e-05
0.000162443
9.03175e-05
0.000113415
0.000117759
8.8929e-05
8.27136e-05
0.000180236
7.97962e-05
0.000149376
6.37837e-05
0.000988252
0.000101748
0.00030543
0.000473662
0.000141849
0.000186606
0.000106718
0.000203096
0.000439528
0.000704274
6.76074e-05
0.000341735
6.52893e-05
0.000107037
0.000183559
8.62991e-05
8.60756e-05
0.00120638
0.00015322
0.000566919
0.000123453
6.31134e-05
0.000177661
0.000136493
0.000705525
0.000174529
0.000435291
0.000118838
0.00025064
0.000113891
0.000140403
0.000174849
0.00104434
0.000948182
0.000142736
7.35933e-05
0.000129115
0.000112554
0.000108143
0.000157662
5.91741e-05
0.000323845
7.03536e-05
0.000944209
8.25316e-05
0.000188762
0.000149417
0.00108746
0.000206359
8.92454e-05
0.000906801
0.0010514
0.000172363
0.000217556
0.00014177
0.00137535
0.00136265
0.000350589
0.000253196
0.000442968
0.000147116
0.000130987
0.000284332
0.000168426
0.000106334
0.000125846
0.000928526
0.000212804
0.000746654
0.00136707
8.44911e-05
0.000352265
0.000135631
0.000504779
7.89081e-05
0.000198809
0.000378616
0.000637488
0.000933033
0.000140753
0.00128293
9.71806e-05
0.0001886
0.00014164
0.0001624
0.000417546
0.000175902
0.000158742
8.36897e-05
8.63088e-05
0.000156725
0.000112308
0.000196291
0.000234819
8.40754e-05
0.000873573
8.07243e-05
0.000164347
6.63829e-05
0.000155645
7.93375e-05
0.000438121
8.15086e-05
0.000397081
0.0009086
0.000499686
0.000605402
0.000903703
0.000446877
0.000882712
0.000219244
0.000213195
0.000181913
0.000188255
0.000199355
7.56592e-05
9.75728e-05
5.69927e-05
0.00116226
0.000113518
0.000151634
0.0011984
7.95509e-05
6.82098e-05
0.000156442
0.00011486
0.00111648
6.6256e-05
7.53765e-05
0.000146377
0.000134702
8.39471e-05
6.1196e-05
0.00026245
0.000156487
0.000176241
0.000856367
0.000124829
0.000800145
8.31469e-05
0.000177407
0.00133808
8.47637e-05
0.00118848
0.00051954
0.000139703
0.000294914
0.000571143
0.000152851
0.000219484
0.00127921
8.93733e-05
0.000178974
0.000328317
0.000157103
0.00019444
8.77499e-05
0.000964853
0.00123493
0.000288626
0.000751456
0.000275344
0.000879997
8.64226e-05
7.28418e-05
0.000894812
0.000305937
0.000156246
0.000145466
9.39363e-05
0.000649087
0.000103995
0.000170721
0.000187557
0.000258707
0.000204109
0.000316915
0.000620137
0.00107977
0.000145304
0.000116517
0.000845186
9.95263e-05
0.000376654
0.000187688
8.71743e-05
0.000210531
0.00085028
0.000202542
0.000165542
0.000133471
0.000140196
0.000631683
0.00123491
0.000302152
7.91597e-05
5.90177e-05
6.97969e-05
0.000698071
0.000487324
8.9161e-05
0.0010596
0.000606746
0.000547961
0.000119032
0.000140641
0.000203002
7.13976e-05
0.000150676
0.000460121
0.000208625
0.00116621
0.000168154
5.10345e-05
0.000109918
0.000162185
0.000331404
0.000166327
8.99447e-05
0.000785888
0.000572757
0.00120236
0.00013169
7.90928e-05
8.36564e-05
0.00111937
0.000527345
0.000596776
0.000866296
0.000142608
0.000206741
8.61672e-05
0.00124146
0.000648637
0.000672473
0.000545087
0.00124939
0.000170519
0.000130122
8.66348e-05
0.00122713
0.000246887
0.000123136
0.000919237
8.40708e-05
9.34635e-05
0.000208337
5.87005e-05
0.000102439
8.60078e-05
0.00015312
0.000379217
0.000164028
8.92004e-05
0.000115416
0.00015668
0.000408075
0.000963827
0.000198272
0.000103522
0.000140184
0.000546707
0.000226602
0.00018538
0.000162928
0.00010205
8.37177e-05
0.000198445
0.000189259
0.000194336
6.02365e-05
0.000623403
0.000248177
0.000501648
0.000143324
0.000171254
0.000432164
0.000101456
0.000147015
0.000157296
0.00020872
8.11396e-05
0.000217031
0.000436835
0.000389268
0.00115607
0.000272729
0.000126004
5.13019e-05
0.000386906
0.00111319
0.000245597
0.000492214
0.000832147
9.21524e-05
7.45972e-05
0.000340521
0.000591879
0.000139773
0.000118824
7.90772e-05
8.56573e-05
8.15895e-05
0.000884514
8.25154e-05
0.0001258
0.00019225
5.62038e-05
0.00125088
0.00113428
0.000508781
0.000147816
6.34509e-05
9.02644e-05
5.76355e-05
0.000678005
0.000126777
0.00016179
0.000828705
0.000327765
0.0004307
0.000551565
8.47906e-05
7.84186e-05
0.000261185
7.60858e-05
0.000106021
0.000255865
0.000154093
0.00100042
5.25648e-05
0.000188558
0.000161951
0.000110818
0.000194887
5.60545e-05
0.000107843
7.84758e-05
7.81167e-05
0.000259111
0.000117487
8.54162e-05
0.000162285
8.24877e-05
0.000963772
0.000765057
0.000153667
0.000144626
9.97848e-05
0.000178113
0.000162157
0.000904407
0.00114764
0.000175908
0.000149464
8.62652e-05
0.00119649
0.00105835
0.000251517
5.88248e-05
0.000422689
0.000179696
6.83172e-05
0.000141285
0.00108363
0.000201127
0.000198296
0.000114035
0.000239931
0.000717768
8.16169e-05
0.000125283
0.000119391
0.000623339
0.000519214
0.000774154
0.000148857
0.00082043
0.000183105
0.000352306
0.000354095
0.000617344
0.000543361
8.80741e-05
0.000195155
9.45109e-05
0.00119824
0.000903976
0.000165638
0.000611001
0.000149103
8.23555e-05
0.000496179
0.000806379
8.29308e-05
0.000237025
0.000163633
6.81403e-05
0.000706709
0.000846334
0.000655927
0.00083017
0.000322538
0.000254024
5.30169e-05
0.000768283
0.000867419
0.000277755
7.68731e-05
0.000188214
0.000164024
5.77843e-05
6.93731e-05
0.000901462
0.000938962
0.000191224
0.000100275
0.000167166
0.000193962
7.13574e-05
0.00051606
0.000190771
0.00017775
0.00112414
6.20042e-05
0.000131618
0.000138355
8.82548e-05
0.000207681
0.000170544
0.000101811
0.000325618
0.000185808
0.000397772
0.00095197
0.000136098
0.000631422
7.25717e-05
0.000740627
5.51337e-05
0.000727231
0.00010288
7.11551e-05
9.09148e-05
0.000172663
9.36303e-05
0.000146134
0.000150722
0.00021704
0.000165924
0.000910357
0.000498805
0.000860871
7.71438e-05
7.39299e-05
0.000172313
0.000161849
0.000127256
6.63908e-05
0.000357164
0.000460624
0.000839731
0.000315445
0.000396323
0.00110754
0.000431249
0.0004659
0.000421884
0.000158206
9.95705e-05
0.00121832
0.0010888
9.93417e-05
0.000260727
0.000614955
0.00078541
0.000161487
0.000211314
0.000183498
0.00109248
0.000192043
0.000125401
0.000120398
0.00014361
0.00022478
9.41368e-05
0.000167158
0.000651948
0.000198843
0.000170432
0.000314946
0.000101307
6.21285e-05
0.000131906
0.000424149
0.000169834
9.32232e-05
0.000140442
0.000819088
0.000623404
8.80303e-05
0.000321036
6.70614e-05
9.25784e-05
0.000986518
0.000189854
0.000218093
0.000475594
0.000973071
0.00040708
0.000886221
0.000889298
9.03646e-05
0.00119183
0.000296795
0.000880144
9.24208e-05
8.80782e-05
0.000999309
6.71595e-05
0.00046617
0.000289411
0.000439884
0.000336003
0.00109849
0.000253381
0.000152649
0.000552722
0.00109895
8.44743e-05
9.50737e-05
0.00115403
0.000195185
0.000474386
0.000831378
7.04432e-05
0.00012681
0.000157103
7.49053e-05
0.000732647
0.000410796
7.12685e-05
9.09812e-05
9.57432e-05
0.000124841
0.0001445
0.000138305
0.000220395
0.000185689
0.000703532
0.00110277
0.000195567
0.000270697
0.000258715
0.000129723
8.51748e-05
0.000928962
0.00106235
0.00126714
0.00134099
0.000139735
0.000165692
0.000174845
9.00016e-05
0.000467848
0.000991398
0.00104627
7.11127e-05
0.000347856
0.000746063
0.000175811
0.001328
0.000593082
0.000839836
0.00106692
0.000114924
0.000110017
7.82498e-05
0.00014441
0.000482546
0.00025016
8.38967e-05
0.000351504
6.38363e-05
8.05459e-05
6.74571e-05
0.00111514
5.6234e-05
0.000149071
0.000870966
0.000136371
0.000144794
0.000758789
0.00113504
9.35552e-05
0.000162092
6.23798e-05
0.000169585
0.000909692
0.000141511
0.00014133
0.00116604
0.00111155
0.000654686
0.000134236
0.000691677
0.000434234
0.000598708
0.000257882
7.32416e-05
0.000321904
9.73919e-05
6.98979e-05
8.70231e-05
0.0010032
0.000102754
0.000708457
0.000223433
6.90624e-05
8.80217e-05
0.000165244
9.55417e-05
0.000160554
7.48782e-05
0.00025496
0.000309318
0.000799616
0.00038773
0.000138388
0.000173617
0.000639296
5.09683e-05
0.000131734
0.000123046
0.000145313
0.000773943
0.000169236
0.000471707
9.5023e-05
0.000658497
0.000105545
0.000455923
0.000129943
0.000839291
0.000149788
0.000136135
9.87981e-05
0.000141177
0.000108687
0.00124152
0.000147673
0.00100804
0.000335011
8.30392e-05
5.24301e-05
6.71082e-05
0.000141576
0.000133869
0.000150196
9.47134e-05
0.00106567
9.10646e-05
0.000410902
8.27758e-05
0.000140669
6.70385e-05
0.000128907
0.000173193
0.000171276
0.000273134
7.7848e-05
0.000823256
9.98692e-05
0.00113121
0.000180491
8.72675e-05
7.81849e-05
0.00041508
0.00053609
0.000172817
0.00015491
0.000546631
0.000487865
0.000228479
0.000134991
0.000762164
0.00044711
0.000675978
0.000202319
0.000213353
6.29677e-05
8.83293e-05
0.00038345
0.000137186
6.99982e-05
0.0002699
7.147e-05
7.02093e-05
0.00015528
0.000100627
8.32124e-05
0.000906782
0.000157107
0.000490114
0.000248775
0.000597355
0.000167723
0.00111751
9.44477e-05
9.15508e-05
0.000297193
0.000633754
0.000194202
0.000312974
0.000543361
0.000397505
0.000252656
0.00014423
0.00030305
0.00124917
0.000179198
0.00011239
0.000185985
0.00016297
8.79188e-05
0.000145787
0.000377893
0.000127508
0.000189873
0.000154955
0.000143031
0.000137064
0.000709983
0.000114257
0.000970584
0.000127638
9.94687e-05
0.000575685
0.00110629
0.000546712
0.000175676
0.000198433
7.64427e-05
7.2513e-05
0.000410573
0.00017103
0.000128314
0.000213692
0.000212615
0.00098831
0.000165355
0.000123494
8.04777e-05
0.00127618
0.00126257
0.000494345
0.000146348
0.000155522
0.000147125
0.000342787
8.52433e-05
0.000130352
8.64978e-05
6.69698e-05
0.000175414
7.42558e-05
0.000201795
0.000114586
0.000250175
0.00105523
0.00047238
0.000190641
7.58539e-05
0.000116761
0.00104187
0.00038026
0.000126515
0.000531471
7.23832e-05
8.01409e-05
0.000137005
0.000262765
7.28113e-05
0.00124966
0.00101901
9.09709e-05
0.000154904
0.000649364
0.000488189
0.000890403
8.07314e-05
0.000202606
0.000202705
0.00023321
0.000144061
0.000857152
0.000148677
7.72966e-05
0.000175386
0.000156249
0.000282818
8.37248e-05
0.00013452
0.000137599
0.000250259
0.000435971
0.00103031
8.42833e-05
0.000179538
0.000560727
9.43028e-05
0.00010981
0.000399963
0.000908498
0.000919727
0.000193533
0.000353263
0.000102093
0.000100712
0.000189033
0.000908286
0.000764967
6.63043e-05
0.000361212
0.000187279
8.26135e-05
0.000133094
0.000166948
0.000436622
0.000532904
0.00030001
0.000147801
0.000834265
0.000137549
0.00110456
8.63904e-05
0.000166696
0.000770354
0.000575492
8.63479e-05
0.000246827
0.000587361
0.000649362
0.000874057
9.81667e-05
0.000187743
0.000737301
0.000271813
0.000215681
0.000487099
9.1048e-05
0.000180446
0.000101226
8.73877e-05
0.000347094
0.00135126
5.68153e-05
0.000406614
0.000141209
0.00014134
0.000120212
0.000759806
0.000455309
0.000137157
0.00015255
6.14279e-05
0.000285577
0.00027986
0.000179187
6.68852e-05
0.00056999
0.000729899
0.000404177
0.000252652
7.94319e-05
0.00119848
0.000232592
0.000601213
6.6064e-05
0.000195343
0.000191655
0.00011052
8.00708e-05
0.00033812
0.000435953
0.000764052
0.000505953
0.000947297
0.000561257
0.000391007
0.00076594
7.72563e-05
0.000484645
0.000544318
6.39221e-05
0.000541859
6.25231e-05
0.000166236
9.36185e-05
0.000203993
0.000167788
0.000117708
0.000152797
6.50088e-05
0.000168745
0.000232943
0.000477304
0.000287494
8.78712e-05
0.000111866
0.000581134
6.26453e-05
0.000203277
0.000246878
0.000145358
0.000108587
0.000298799
0.000196063
0.000166205
5.75578e-05
0.000134847
0.000191859
0.000262095
0.00108007
0.00016397
0.000403106
0.000568641
0.000142569
0.00126647
5.62888e-05
0.000911281
0.000113634
9.98711e-05
6.88896e-05
0.00121792
0.000644078
0.000158363
0.000610051
0.000143293
0.000159994
0.000240273
8.22852e-05
0.000622515
0.000490473
0.000860797
8.18659e-05
6.51715e-05
0.000273974
0.000495102
0.000232906
0.000125452
0.00016028
0.000129709
0.00037191
0.000113737
0.0010716
5.32064e-05
6.28505e-05
0.000405688
0.00050673
0.00051797
7.19017e-05
8.59001e-05
8.16109e-05
0.000125357
0.000226518
9.54749e-05
8.20958e-05
0.000153477
0.000247107
0.000202383
0.000332511
0.000749776
0.000205838
0.000867426