/*--------------------------------*- C++ -*----------------------------------*\
| =========                 |                                                 |
| \\      /  F ield         | OpenFOAM: The Open Source CFD Toolbox           |
|  \\    /   O peration     | Version:  2406                                  |
|   \\  /    A nd           | Website:  www.openfoam.com                      |
|    \\/     M anipulation  |                                                 |
\*---------------------------------------------------------------------------*/
FoamFile
{
    version     2.0;
    format      ascii;
    arch        "LSB;label=32;scalar=64";
    class       volScalarField;
    location    "24";
    object      p;
}
// * * * * * * * * * * * * * * * * * * * * * * * * * * * * * * * * * * * * * //

dimensions      [0 2 -2 0 0 0 0];

internalField   nonuniform List<scalar> 
59516
(
0.301139
0.0154597
0.0161457
0.00182772
0.318132
0.338962
0.301838
0.257473
0.0718599
-0.00108044
0.312161
0.30482
0.188227
0.30035
0.276046
0.0733809
0.303148
0.31373
0.308286
0.298509
0.307305
0.257073
0.302186
0.169301
0.064246
0.161579
0.0904148
0.311162
0.30573
0.275245
0.321645
0.311184
0.117142
0.00161907
0.308653
0.238366
0.0630784
0.316705
0.306592
0.013874
0.0154685
0.312469
0.307641
0.00129848
0.305586
0.0429542
0.307096
0.307705
0.319922
0.309824
0.326288
0.00108551
0.118348
0.265206
0.306163
0.30517
0.314103
0.00138832
0.168686
0.310553
0.00148956
0.231667
0.169903
0.303632
0.00301477
0.306383
0.00890325
0.244366
0.320238
0.305875
0.250122
0.299066
0.0459806
0.300469
0.245775
0.305225
0.306805
0.0314614
0.193037
0.309482
0.000847734
0.309012
0.307997
0.103877
0.309151
0.297513
0.0721746
0.298772
0.11832
0.313552
0.316531
0.252398
0.29114
0.24821
0.249065
0.319575
0.275194
0.259016
0.308828
0.184834
0.0782195
0.14834
0.268213
0.0104705
0.045817
0.00656832
0.00666249
0.0678197
0.123687
0.194547
0.318781
0.0843636
0.25367
0.319344
0.286227
0.222464
0.0345834
0.266168
0.265762
0.0352378
0.268427
0.262789
0.0592892
0.265325
0.317006
0.309197
0.285884
0.314106
0.325669
0.289494
0.285972
0.0167005
0.244837
0.290246
0.290853
0.241488
0.317538
0.280657
0.149659
0.295047
0.0856448
0.108569
0.25832
0.0853964
0.296876
0.293441
0.306311
0.299967
0.325067
0.291595
0.296572
0.00290152
0.287243
0.00300491
0.288992
0.00516551
0.00365881
0.290289
0.291843
0.276839
0.296324
0.296072
0.275723
0.00369545
0.220326
0.0332188
0.0719278
0.293293
0.294823
0.00424413
0.289252
0.289263
0.282564
0.284109
0.283073
0.307896
0.224701
0.308621
0.0160044
0.221238
0.286812
0.128578
0.15634
0.285167
0.286953
0.0795857
0.11099
0.0613696
0.288056
0.284156
0.000485335
0.127067
0.293259
0.283961
0.295015
0.0225678
0.149854
0.149586
0.00387057
0.281386
-0.000695183
0.0612317
0.26021
0.187222
0.231362
0.127816
0.294513
0.00336483
0.175817
0.272397
0.0441233
0.310905
0.270686
0.232606
0.272142
0.09087
0.292256
0.0222967
0.207962
0.272143
0.272091
0.292779
0.282617
0.00407191
0.276631
0.224323
0.17509
0.185763
0.281899
0.0390831
0.276443
0.126021
0.283077
0.134649
0.141206
0.282515
0.281045
0.0515611
0.280399
0.0558134
0.287795
0.128925
0.12314
0.0028785
0.288996
0.287603
0.28448
0.0141293
0.28293
0.287463
0.0140556
0.283693
0.288178
0.156723
0.286441
0.287151
0.0735665
0.279009
0.199942
0.274841
0.177703
0.276649
0.278534
0.279327
0.237625
0.0567098
0.210842
0.065992
0.275631
0.165859
0.302736
0.231069
0.0710834
0.16978
0.277416
0.238323
0.165756
0.275631
0.277625
0.0912517
0.282287
0.187575
0.170647
0.273349
0.271069
0.302027
0.28716
0.007936
0.279773
0.239709
0.278854
0.273452
0.248838
0.0319969
0.253107
0.12309
0.241991
0.235357
0.275413
0.240127
0.239791
0.0604637
0.0962515
0.230754
0.244396
0.160737
0.0222679
0.240311
0.24174
0.0785814
0.0648581
0.241335
0.157097
0.145386
0.305891
0.244119
0.261138
0.320345
0.243408
0.0622169
0.126108
0.2599
0.135944
0.264784
0.187253
0.244326
0.311053
0.261374
0.1745
0.263594
0.025396
0.297317
0.170919
0.263622
0.202933
0.273502
0.279678
0.229601
0.310529
0.271362
0.232951
0.229983
0.265241
0.0524794
0.101637
0.271005
0.0943295
0.278936
0.265767
0.200411
0.281698
0.283561
0.0402643
0.11749
0.175042
0.0533533
0.0078953
0.318233
0.323109
0.222292
0.036296
0.291048
0.310335
0.253932
0.0369558
0.26375
0.263075
0.291708
0.322143
0.269068
0.0833914
0.0816994
0.262049
0.180756
0.216417
0.261343
0.264105
0.255961
0.195945
0.246407
0.292641
0.00115884
0.311466
0.0105477
0.0216075
0.263898
0.00773011
0.310817
0.262865
0.0156227
0.0147905
0.0571286
0.256329
0.316805
0.260278
0.317241
0.0127356
0.0727325
0.256114
0.257416
0.27393
0.252561
0.197999
0.274939
0.277098
0.0596759
0.14718
0.277202
0.274385
0.273154
0.0429698
0.0254001
0.0277216
0.13338
0.231984
0.012432
0.0397969
0.0678505
0.00498306
0.25493
0.251513
0.260547
0.260111
0.277357
0.259986
0.18415
0.251099
0.154
0.261229
0.205688
0.266216
0.258974
0.238238
0.135373
0.273668
0.311549
0.0260068
0.267348
0.178822
0.0809175
0.183097
0.208787
0.269427
0.266759
0.261217
0.2587
0.0782945
0.258617
0.186534
0.0319526
0.21224
0.323216
0.154275
0.0628992
0.261952
0.202011
0.257514
0.142169
0.25796
0.0623507
0.259941
0.00409088
0.00772658
0.253188
0.307522
0.249956
0.225836
0.0408649
0.230712
0.228373
0.0457702
0.240942
0.228201
0.221392
0.220687
0.0986301
0.231651
0.223849
0.138775
0.220834
0.086611
0.217904
0.311371
0.217141
0.325577
0.219033
0.280909
0.0847076
0.0972735
0.182695
0.00438268
0.00307794
0.202925
0.238388
0.244302
0.173564
0.224908
0.0529907
0.252792
0.24957
0.313108
0.150043
0.129145
0.187462
0.249016
0.0236944
0.241591
0.301623
0.00481908
0.345023
0.2512
0.0653387
0.296569
0.200727
0.304755
0.229471
0.190821
0.217433
0.255077
0.194815
0.255378
0.291265
0.0749834
0.0755351
0.317578
0.00302841
0.253175
0.240221
0.317502
0.236872
0.296086
0.00104545
0.24344
0.0851787
0.000559156
0.167814
0.0429587
0.314455
0.264664
0.0697535
0.0028582
0.274791
0.131759
0.24068
0.27265
0.239535
0.292217
0.000839732
0.105276
0.0688062
0.23982
0.0397653
0.160888
0.252907
0.138469
0.250626
0.00248002
0.257046
0.0655834
0.251401
0.183135
0.117394
0.109096
0.254738
0.00216626
0.0466259
0.239048
0.0808711
0.175315
0.209078
0.124634
0.11969
0.23732
0.236513
0.28516
0.235546
0.118342
0.237816
0.234767
0.114162
0.100917
0.00101669
0.237675
0.235842
0.238196
0.0959819
0.226186
0.0119311
0.239849
0.00608109
0.255125
0.000801526
0.0280073
0.193245
0.12822
0.0115801
0.240534
0.315171
0.00280869
0.0196616
0.235194
0.230544
0.0371011
0.233239
0.234443
0.143102
0.0433308
0.255454
0.244395
0.0157141
0.238263
0.238062
0.159878
0.23176
0.324325
0.238697
0.317436
0.196134
0.319847
0.199358
0.0260745
0.295467
0.00569053
0.00644534
0.321566
0.320266
0.201989
0.237774
0.314334
0.310583
0.131581
0.103624
0.181947
0.0633252
0.197077
0.12197
0.311254
0.201158
0.204012
0.227612
0.21163
0.322215
0.185532
0.216464
0.0559685
0.217974
0.151
0.021169
0.217787
0.216933
0.218109
0.151661
0.087986
0.330528
0.122814
0.127057
0.154495
0.274037
0.21905
0.063825
0.196782
0.156262
0.0163945
0.0680785
0.221885
0.266019
0.165051
0.15111
0.220796
0.220648
0.0787646
0.283378
0.234332
0.137839
0.230971
0.173156
0.245699
0.227093
0.011577
0.0293167
0.201055
0.322865
0.149116
0.137078
0.00323967
0.159936
0.226507
0.116349
0.240713
0.233986
0.0871846
0.121649
0.238134
0.296035
0.25557
0.177886
0.322159
0.237439
0.0391291
0.251164
0.325052
0.0248482
0.119365
0.275062
0.219796
0.0761381
0.211548
0.0266152
0.0196089
0.176789
0.220472
0.322136
0.258537
0.219816
0.219164
0.228118
0.0883101
0.011959
0.0656234
0.2557
0.321563
0.153585
0.223858
0.136641
0.0578474
0.21899
0.0614371
0.220311
0.302767
0.12159
0.00239953
0.264327
0.0937299
0.229323
0.0200847
0.0753501
0.157546
0.268624
0.226209
0.228601
0.322866
0.269188
0.0422985
0.324842
0.00340356
-0.00166787
0.227691
0.0448221
0.110855
0.157219
0.106206
0.322329
0.222607
0.263076
0.217733
0.0476079
0.171548
0.0543343
0.124551
0.260324
0.216153
0.219524
0.216707
0.0712987
0.287879
0.199193
0.0638697
0.217659
0.216065
0.215307
0.195723
0.21751
0.0217369
0.0139866
0.216381
0.00322835
0.117958
0.138434
0.0121559
0.147087
0.176524
0.298927
0.202246
0.250108
0.182137
0.126697
0.219519
0.221805
0.221908
0.106891
0.220945
0.289319
0.0185001
0.00253845
0.133934
0.112586
0.00288416
0.220317
0.215584
0.217345
0.0204517
0.0335072
0.2147
0.273947
0.032919
0.0416593
0.322387
0.313079
0.223425
0.0424939
0.238262
0.202565
0.245039
0.178458
0.211493
0.316316
0.178696
0.177916
0.0845771
0.179973
0.31728
0.0361801
0.208797
0.178443
0.100542
0.233891
0.243902
0.0857486
0.232361
0.270017
0.236745
0.177626
0.304863
0.054151
0.177422
0.261357
0.0171981
0.194728
0.0682119
0.173774
0.090001
0.316294
0.18295
0.00305212
0.175174
0.174009
0.18845
0.175894
0.159158
0.00457647
0.0451331
0.233094
0.192355
0.151614
0.235492
0.106237
0.270813
0.026704
0.190838
0.0783515
0.169035
0.237286
0.0171395
0.195161
0.19022
0.318384
0.0279758
0.245406
0.277604
0.0434273
0.18564
0.0452527
0.14349
0.220454
0.243236
0.185109
0.183401
0.182562
0.322371
0.0342634
0.24182
0.104733
0.0213372
0.186513
0.25008
0.200981
0.200119
0.036013
0.20442
0.206633
0.0979343
0.281327
0.320792
0.299745
0.14329
0.206121
0.00406336
0.309985
0.180704
0.203044
0.160461
0.205711
0.203771
0.210268
0.235221
0.210356
0.243988
0.204574
0.294844
0.297914
0.203228
0.230292
0.202187
0.243448
0.244459
0.0143551
0.122074
0.149703
0.0141539
0.219456
0.206793
0.222725
0.102445
0.00611073
0.108502
0.202337
0.227098
0.227295
0.119369
0.141318
0.223975
0.318992
0.208891
0.00839553
0.0222235
0.256519
0.211124
0.113442
0.158144
0.207253
0.123301
0.196299
0.196896
0.196639
0.160241
0.230682
0.196035
0.323504
0.0272017
0.195736
0.32361
0.196506
0.279662
0.0446315
0.193962
0.113777
0.0858555
0.196236
0.195029
0.111655
0.113499
0.194085
0.0944698
0.191464
0.19264
0.202046
0.105579
0.189296
0.0349069
0.193333
0.192658
0.119576
0.190015
0.190849
0.301264
0.183128
0.148478
0.185946
0.18808
0.123156
0.058541
0.104048
0.310743
0.191173
0.192624
0.154619
0.0600357
0.311465
0.158111
0.16173
0.157541
0.154796
0.0121495
0.0061736
0.0521285
0.0991119
0.192365
0.19209
0.00578986
0.257134
0.17842
0.0754007
0.311401
0.150775
0.15031
0.314225
0.154429
0.245648
0.0479885
0.151698
0.237706
0.215801
0.152216
0.107844
0.0420853
0.152926
0.256901
0.221795
0.113809
0.0550384
0.0859286
0.160495
0.0892044
0.256282
0.0854465
0.157875
0.170498
0.318193
0.117456
0.0109567
0.0594413
0.0869511
0.154003
0.254672
0.169187
0.169107
0.0230736
0.128963
0.00804215
0.171962
0.171839
0.0879454
0.0132588
0.217093
0.0417763
0.286729
0.197315
0.193072
0.309569
0.0860153
0.238845
0.252329
0.151527
0.0168273
0.193268
0.305919
0.190753
0.187443
0.1541
0.07605
0.192101
0.0187964
0.307949
0.258602
0.118768
0.192098
0.180197
0.255965
0.299521
0.240639
0.0336257
0.0772483
0.188217
0.199665
0.233146
0.116058
0.228028
0.312729
0.186507
0.231183
0.0687646
0.195352
0.137362
0.0827829
0.19495
0.195652
0.194353
0.230439
0.189427
0.0443576
0.190767
0.0762166
0.225982
0.022418
0.188176
0.230392
0.00376464
0.0260157
0.183721
0.0643217
0.0479492
0.0686132
0.0591196
0.105268
0.0416216
0.186863
0.184768
0.0342032
0.183281
0.184964
0.229193
0.00967342
0.186788
0.177322
0.00230717
0.0273192
0.17334
0.0945614
0.00281523
0.0135553
0.174064
0.117776
0.181006
0.303561
0.0194559
0.22775
0.158271
0.18012
0.17605
0.155103
0.212853
0.190509
0.183824
0.163211
0.30778
0.260728
0.180479
0.1847
0.276548
0.0382817
0.257555
0.21253
0.116411
0.110553
0.183885
0.07809
0.0215759
0.166305
0.172558
0.324337
0.141066
0.173554
0.170043
0.206634
0.0772396
0.17025
0.171406
0.294332
0.172025
0.0729767
0.17678
0.176784
0.134981
0.12114
0.149705
0.17607
0.173314
0.176187
0.111337
0.144391
0.180782
0.153225
0.111674
0.118474
0.11931
0.119318
0.14057
0.174478
0.146402
0.311433
0.279184
0.0448232
0.0994055
0.103912
0.143196
0.141821
0.146499
0.197342
0.140273
0.141947
0.0825145
0.103682
0.215002
0.0811216
0.0374223
0.145603
0.144119
0.147017
0.284216
0.0146796
0.00706205
0.0970747
0.156696
0.152953
0.257936
0.0390547
0.143421
0.311909
0.0434378
0.154481
0.155002
0.191713
0.00153239
0.151702
0.152928
0.151759
0.166952
0.0049771
0.00792456
0.167701
0.167171
0.163396
0.165464
0.173092
0.161586
0.0770062
0.0188867
0.3175
0.221127
0.168401
0.166052
0.119662
0.30091
0.290381
0.263774
0.00100031
0.264815
0.168984
0.169705
0.167132
0.167861
0.16896
0.167152
0.250256
0.135337
0.2429
0.14487
0.0753149
0.015183
0.170341
0.120246
0.00380047
0.146464
0.176263
0.307722
0.178071
0.114916
0.110652
0.218405
0.125152
0.173702
0.182427
0.17925
0.139321
0.152513
0.30221
0.173277
0.239759
0.073456
0.0616085
0.170761
0.0632517
0.0255863
0.176946
0.17617
0.122645
0.0824605
0.0947896
0.280489
0.175315
0.0525196
0.00602637
0.152816
0.0308244
0.117133
0.168532
0.220365
0.15307
0.0285213
0.28813
0.0172248
0.276728
0.132052
0.258652
0.158112
0.0466477
0.170506
0.150136
0.0915423
0.111933
0.171084
0.171533
0.288738
0.223205
0.24108
0.296424
0.231524
0.220664
0.221152
0.247587
0.166955
0.165444
0.12465
0.0618965
0.0706085
0.0193553
0.26024
0.125584
0.16241
0.160701
0.160905
0.0466469
0.158647
0.243599
0.00483423
0.157385
0.162876
0.193415
0.319794
0.244846
0.243097
0.158522
0.01303
0.259023
0.160804
0.205713
0.170864
0.2116
0.227541
0.145436
0.255125
0.16503
0.223332
0.16978
0.0220472
0.245686
0.255998
0.128467
0.314999
0.0711719
0.0811481
0.0713519
0.145257
0.237693
0.0581852
0.204996
0.0596738
0.166254
0.166272
0.138734
0.1737
0.153967
0.274735
0.213033
0.151593
0.219865
0.160199
0.320881
0.252559
0.160302
0.154541
0.211942
0.268671
0.156217
0.0297906
0.204116
0.274221
0.152843
0.136824
0.158133
0.161343
0.163867
0.16464
0.00347073
0.0710989
0.166174
0.314613
0.164845
0.130374
0.232543
0.127744
0.110217
0.27478
0.314941
0.246503
0.24685
0.249393
0.0381182
0.152751
0.190799
0.312961
0.29685
0.315022
0.319189
0.296245
0.133683
0.129772
0.313898
0.0571358
0.134253
0.219917
0.130585
0.24632
0.226766
0.313361
0.286403
0.24627
0.0708217
0.133876
0.149101
0.14256
0.151865
0.249501
0.220751
0.15018
0.144751
0.147599
0.0175119
0.268381
0.0445797
0.152391
0.186295
0.158712
0.154349
0.147339
0.0451366
0.156171
0.134356
0.155195
0.154134
0.255874
0.138801
0.0766551
0.0476441
0.235942
0.10597
0.105346
0.228318
0.0869055
0.0512961
0.0451814
0.0357202
0.223376
0.0657455
0.137581
0.178478
0.0350549
0.263895
0.26549
0.0927687
0.090143
0.292349
0.143495
0.0173663
0.171157
0.0357062
0.216266
0.033961
0.0509158
0.0213399
0.0102975
0.0786489
0.258138
0.0490494
0.0275679
0.0284108
0.15041
0.0327482
0.148294
0.265859
0.153167
0.15038
0.223005
0.0488644
0.155939
0.154592
0.0135784
0.071182
0.259449
0.156267
0.157004
0.226019
0.267422
0.250371
0.266287
0.0566733
0.302201
0.312924
0.156656
0.157452
0.0130993
0.278087
0.312028
0.153963
0.112565
0.153237
0.0198517
0.251231
0.00686839
0.0485279
0.143225
0.195393
0.144604
0.11603
0.261811
0.105378
0.244139
0.143248
0.144613
0.0687672
0.13531
0.120708
0.307625
0.261337
0.213237
0.143939
0.268372
0.0764808
0.0469925
0.0633579
0.0158271
0.144903
0.264246
0.14324
0.0159225
0.0126161
0.255845
0.145532
0.0679974
0.279786
0.146106
0.146741
0.257274
0.0230035
0.254151
0.147565
0.151181
0.151346
0.161211
0.151938
0.248589
0.242568
0.15169
0.290726
0.16526
0.242943
0.195218
0.149898
0.2654
0.146527
0.113833
0.294202
0.16933
0.148975
0.0123578
0.152591
0.15155
0.110602
0.144968
0.217502
0.0574655
0.261233
0.138306
0.231858
0.24817
0.148775
0.166059
0.0102759
0.0668504
0.0556625
0.146796
0.26224
0.0218759
0.145249
0.294827
0.0555707
0.228598
0.053504
0.146201
0.185625
0.143361
0.00129088
0.202998
0.263143
0.110744
0.0399186
0.0560243
0.107193
0.109028
0.116233
0.25821
0.0109327
0.0406566
0.122214
0.121932
0.240927
0.218809
0.124792
0.129902
0.117977
0.195395
0.29633
0.272116
0.164073
0.03354
0.237994
0.236321
0.0925866
0.0511041
0.211337
0.087636
0.122075
0.223304
0.163747
0.168059
0.141416
0.117402
0.12916
0.128869
0.127409
0.229417
0.131916
0.18832
0.290634
0.263122
0.219765
0.251596
0.118847
0.0853578
0.259766
0.133039
0.223557
0.161616
0.233502
0.305317
0.122724
0.00708563
0.134279
0.136765
0.145227
0.258022
0.134154
0.141445
0.16809
0.144888
0.167648
0.137136
0.00144334
0.166719
0.14277
0.141121
0.00513153
0.221551
0.29963
0.165507
0.175716
0.125024
0.142697
0.141607
0.0590446
0.296952
0.143417
0.142759
0.145213
0.0381525
0.258355
0.1561
0.12737
0.166389
0.0811366
0.108301
0.239311
0.131939
0.127532
0.102284
0.127735
0.141807
0.0851188
0.132195
0.258053
0.153269
0.0741153
0.25663
0.258144
0.113003
0.115308
0.0960453
0.1327
0.0575259
0.136264
0.0632319
0.32299
0.234494
0.183949
0.0808546
0.0238789
0.272937
0.0214832
0.0246335
0.131427
0.00174489
0.131879
0.0346079
0.185702
0.0902226
0.13041
0.216586
0.186935
0.131567
0.029356
0.0241954
0.180829
0.129271
0.0420308
0.133051
0.131348
0.152402
0.137865
0.303775
0.224612
0.272561
0.182314
0.216631
0.132004
0.223081
0.184331
0.132449
0.274704
0.307891
0.215302
0.20824
0.13242
0.248452
0.127809
0.272923
0.177141
0.221433
0.0213158
0.0437625
0.205968
0.0113849
0.261837
0.322661
0.277551
0.0130719
0.056652
0.0209297
0.255519
0.270311
0.00710164
0.187241
0.123307
0.248106
0.193859
0.122571
0.133422
0.0353051
0.210293
0.215289
0.0538363
0.303366
0.271591
0.144153
0.124805
0.317673
0.123987
0.310069
0.213359
0.210923
0.12528
0.286243
0.111279
0.283354
0.257437
0.288837
0.00742122
0.12883
0.300825
0.0667146
0.312402
0.130259
0.29155
0.0959362
0.0948516
0.101779
0.304965
0.235957
0.287317
0.234516
0.108638
0.300257
0.301448
0.0967628
0.303271
0.11268
0.224676
0.106972
0.23586
0.141018
0.0922447
0.132875
0.089508
0.134501
0.0231375
0.114777
0.104734
0.274059
0.101874
0.2142
0.150487
0.18531
0.112685
0.0430987
0.0831375
0.215744
0.107118
0.273158
0.0715452
0.116523
0.283668
0.222205
0.118086
0.247059
0.116535
0.10686
0.104617
0.140133
0.112127
0.00191092
0.0428719
0.0443133
0.107696
0.107872
0.219796
0.0491237
0.031089
0.101555
0.0672227
0.270809
0.239297
0.0382546
0.120018
0.188651
0.114389
0.121467
0.0961615
0.119579
0.238806
0.119009
0.174236
0.000413889
0.26644
0.170616
0.314626
0.123406
0.118734
0.0245174
0.274574
0.0897833
0.124107
0.224904
0.128197
0.123685
0.115862
0.115322
0.0343281
0.127051
0.121165
0.121874
0.116278
0.139958
0.118337
0.265596
0.0977263
0.123422
0.270632
0.314172
0.180922
0.101462
0.208042
0.121519
0.110605
0.104863
0.0574333
0.0979097
0.0897826
0.297371
0.100058
0.140256
0.138038
0.0370458
0.0978738
0.264745
0.113444
0.116236
0.168304
0.157095
0.111526
0.190235
0.140435
0.114758
0.111054
0.129127
0.112166
0.262816
0.250554
0.101386
0.0970806
0.108347
0.0468535
0.114257
0.14028
0.218986
0.111746
0.115801
0.104683
0.11778
0.266731
0.0970959
0.255563
0.115809
0.111467
0.102804
0.112182
0.085752
0.108304
0.0881256
0.0774311
0.109711
0.292534
0.127125
0.289775
0.169985
0.0729446
0.0280452
0.095414
0.265884
0.112866
0.111464
0.0816407
0.112913
0.0810582
0.268899
0.266605
0.0852274
0.0854115
0.089337
0.0897183
0.199329
0.148786
0.087648
0.0880738
0.0665592
0.109217
0.089517
0.0893622
0.0532197
0.0521207
0.00263836
0.0896652
0.201687
0.0349729
0.149071
0.0930826
0.0954713
0.100808
0.130951
0.262502
0.114464
0.0818117
0.0143854
0.0218639
0.150735
0.0941106
0.0895571
0.124936
0.0364807
0.0246285
0.0953353
0.26452
0.10671
0.109298
0.0520098
0.101201
0.306307
0.10441
0.102121
0.146871
0.103419
0.107337
0.264625
0.10765
0.123019
0.0219214
0.00429306
0.192693
0.0422258
0.0244206
0.111407
0.0911044
0.264821
0.109965
0.27808
0.278393
0.106472
0.262648
0.00798976
0.102522
0.109749
0.0389735
0.11036
0.279081
0.314665
0.0542235
0.272861
0.109464
0.217281
0.247299
0.109687
0.114516
0.275986
0.108229
0.304189
0.108679
0.135259
0.119016
0.305091
0.272297
0.136118
0.11174
0.10815
0.228934
0.13451
0.229933
0.272613
0.266906
0.112637
0.014147
0.113026
0.104602
0.227645
0.0841519
0.228465
0.0471786
0.24677
0.000439067
0.266255
0.136399
0.0934143
0.103247
0.271087
0.101022
0.265195
0.255331
0.27029
0.0163814
0.00294929
0.231759
0.00358203
0.101018
0.13364
0.190655
0.0988716
0.25615
0.157302
0.26186
0.09617
0.2588
0.204292
0.227187
0.315956
0.14052
0.296418
0.0956204
0.0117318
0.1569
0.0122519
0.312692
0.0502941
0.149917
0.228045
0.105918
0.100701
0.016602
0.03963
0.10258
0.235525
0.26934
0.00694684
0.279689
0.135251
0.302608
0.0618521
0.237759
0.10245
0.204308
0.271816
0.201066
0.184715
0.214869
0.240901
0.26244
0.182073
0.0468167
0.221781
0.105076
0.10496
0.10478
0.0646487
0.295201
0.296889
0.224859
0.114903
0.256416
0.266317
0.114663
0.105798
0.104605
0.100586
0.294945
0.0516177
0.0981429
0.163761
0.100759
0.221951
0.200164
0.121434
0.0603291
0.101933
0.100052
0.146519
0.311237
0.173739
0.100251
0.258501
0.0714953
0.0553828
0.28905
0.00502179
0.0712118
0.0162405
0.0711217
0.0709051
0.259789
0.0985106
0.203347
0.257757
0.124416
0.10513
0.271866
0.0750741
0.267592
0.0940076
0.0974348
0.0981091
0.226469
0.182112
0.266851
0.233915
0.252975
0.0837204
0.152
0.272504
0.248679
0.106122
0.247215
0.0729441
0.222602
0.0514904
0.22633
0.100669
0.195939
0.0885177
0.140365
0.247984
0.0705206
0.249342
0.0574525
0.109513
0.0868989
0.0352254
0.0912332
0.0858582
0.123487
0.266845
0.0896032
0.044587
0.0208389
0.228268
0.0224457
0.251241
0.00387411
0.0933672
0.0528125
0.092596
0.248902
0.254119
0.0489939
0.293272
0.0374367
0.00238614
0.226149
0.19851
0.0913485
0.248716
0.0694563
0.0225405
0.119686
0.00233558
0.157083
0.215796
0.144513
0.0937094
0.308692
0.0950225
0.161041
0.226708
0.129192
0.253057
0.0912825
0.140997
0.0905423
0.146969
0.292813
0.0977797
0.0842322
0.148577
0.0910771
0.168187
0.0902594
0.0610318
0.089763
0.292559
0.0895718
0.0861678
0.0886546
0.282884
0.113451
0.26832
0.298332
0.29516
0.189845
0.052246
0.0652315
0.201877
0.249371
0.0260078
0.0628848
0.0884791
0.0871248
0.251564
0.313154
0.00314648
0.0359373
0.0808594
0.269299
0.0372264
0.13041
0.252789
0.086275
0.0848441
0.086124
0.0837289
0.0866097
0.192091
0.108029
0.246053
0.0268102
0.0895466
0.0869267
0.284911
0.139948
0.278007
0.300717
0.0512725
0.0868089
0.0651544
0.283229
0.28597
0.278281
0.275697
0.122333
0.0643037
0.269818
0.0506137
0.0870223
0.241749
0.0971855
0.0861736
0.0680589
0.0841522
0.239301
0.23663
0.0866431
0.161029
0.0981009
0.0973069
0.309785
0.0290207
0.0569676
0.0870931
0.0876784
0.00893562
0.0874865
0.0671038
0.0923903
0.231794
0.0873654
0.0192191
0.0939976
0.0083196
0.286448
0.276609
0.123588
0.0897825
0.0920783
0.108605
0.079408
0.0715572
0.109691
0.0763346
0.0751001
0.0660734
0.0762414
0.289046
0.248067
0.13016
0.226924
0.0800894
0.236583
0.0637938
0.227109
0.178287
0.214464
0.0781099
0.150939
0.0203586
0.237158
0.263057
0.0890189
0.318964
0.080913
0.0827767
0.14357
0.023775
0.10878
0.0835293
0.235782
0.0626097
0.0887654
0.0867047
0.0612172
0.184967
0.0615206
0.0609512
0.0615564
0.0627945
0.0613374
0.230113
0.231216
0.239346
0.226637
0.0416229
0.0618597
0.280696
0.0672265
0.0411672
0.0666129
0.0660934
0.0432818
0.0670124
0.0646991
0.066425
0.0834265
0.0801133
0.153541
0.0914842
0.103709
0.136946
0.116748
0.107307
0.042909
0.083809
0.0831511
0.0630621
0.067865
0.0817105
0.171504
0.0197192
0.212776
0.309194
0.157083
0.29404
0.0820884
0.0210691
0.0228319
0.0230077
0.112651
0.0240075
0.0793597
0.0814605
0.269909
0.317918
0.143496
0.0730697
0.276389
0.127531
0.163077
0.0808045
0.166208
0.080886
0.172656
0.0675996
0.0414736
0.0474883
0.0771435
0.00118162
0.0831764
0.273635
0.0618781
0.209024
0.0282878
0.074201
0.0765693
0.249771
0.104842
0.17379
0.118517
0.17143
0.0753514
0.0166255
0.277612
0.0905552
0.158077
0.271828
0.272032
0.0764642
0.0657679
0.0782635
0.120641
0.0773541
0.168327
0.249124
0.123385
0.0787651
0.0793657
0.128495
0.150885
0.195054
0.0787567
0.0803059
0.0809382
0.27414
0.0797099
0.0812936
0.0330092
0.0709969
0.0423242
0.0163123
0.0410905
0.026497
0.0695713
0.071387
0.0131743
0.0578137
0.0125489
0.269308
0.0728522
0.0445046
0.270317
0.190437
0.110499
0.0642866
0.0762587
0.0139139
0.0742518
0.179642
0.11818
0.0729524
0.279521
0.0402745
0.00396249
0.0741049
0.326019
0.116769
0.16014
0.0153197
0.0745272
0.0737344
0.194155
0.0152738
0.115502
0.153297
0.0681137
0.0741641
0.0764793
0.317739
0.289855
0.280318
0.112362
0.0407456
0.0172893
0.0152853
0.283302
0.0157095
0.05028
0.0773104
0.313103
0.0904106
0.078619
0.244474
0.281222
0.179577
0.168678
0.0770798
0.0743217
0.270453
0.220724
0.237655
0.025674
0.213815
0.0536252
0.106426
0.0442743
0.074544
0.11906
0.289221
0.120023
0.118056
0.301691
0.0701091
0.272493
0.05413
0.166795
0.205493
0.287983
0.120098
0.277597
0.0666822
0.0578194
0.037055
0.0713068
0.279218
0.0550629
0.051667
0.1493
0.0560713
0.0570642
0.0599215
0.0224655
0.110549
0.0716617
0.0852506
0.0526512
0.0648216
0.0601828
0.044476
0.282159
0.174924
0.0549361
0.0737289
0.323151
0.143715
0.0707515
0.156841
0.0712159
0.136437
0.069656
0.279923
0.0531384
0.31987
0.0492359
0.0445172
0.151151
0.0562191
0.16851
0.144253
0.181357
0.0253753
-0.00208655
0.0347022
0.0288909
0.0492538
0.01902
0.0542667
0.0500344
0.0494427
0.299563
0.0346886
0.282716
0.283501
0.0401274
0.264768
0.0749291
0.274248
0.248333
0.0550038
0.268104
0.0551261
0.00198161
0.180382
0.108519
0.256312
0.247349
0.118568
0.0208429
0.0369461
0.18343
0.205274
0.0564635
0.0549351
0.0695863
0.211378
0.235477
0.158835
0.0217507
0.0163756
0.0694106
0.188016
0.212348
0.239121
0.300077
0.0708916
0.257519
0.228915
0.15733
0.320672
0.108277
0.143608
0.190896
0.0669622
0.286046
0.0131118
0.104291
0.227758
0.199428
0.247144
0.284076
0.0244891
0.1041
0.0691874
0.12553
0.0702845
0.116377
0.129133
0.124095
0.0882275
0.0695122
0.0684122
0.0666553
0.0903183
0.298101
0.098156
0.0877816
0.0936094
0.276853
0.233616
0.0232795
0.285414
0.0692778
0.0664943
0.144828
0.0594764
0.0605117
0.0820654
0.0236395
0.0596505
0.0633414
0.0162578
0.0561135
0.055914
0.0602455
0.0777265
0.0652481
0.0657976
0.28184
0.0470613
0.0536785
0.0432781
0.0709758
0.0421753
0.0397857
0.0680416
0.017992
0.0194173
0.0965647
0.0430601
0.0389295
0.284005
0.0680576
0.0557559
0.0505871
0.0220094
0.0473524
0.0672155
0.0692354
0.0631303
0.109007
0.156646
0.185639
0.130616
0.0205526
0.0637328
0.062087
0.0640004
0.221066
0.0944554
0.0687588
0.307273
0.0622539
0.0938355
0.0615426
0.0632723
0.176342
0.184488
0.0611524
0.100733
0.24925
0.247371
0.0951059
0.0618497
0.280826
0.0619408
0.134376
0.0620869
0.314441
0.0623182
0.217066
0.061038
0.175814
0.226018
0.273882
0.241434
0.0595096
0.230706
0.153886
0.175348
0.061152
0.028596
0.107512
0.156378
0.0612402
0.0606611
0.0614228
0.107579
0.0573595
0.301503
0.195522
0.026919
0.282294
0.0599442
0.271975
0.0263195
0.0552431
0.0583151
0.220686
0.0622273
0.181284
0.298269
0.0561089
0.0580646
0.0917233
0.290644
0.220993
0.219223
0.0587782
0.235134
0.190977
0.0573912
0.094652
0.0796384
0.0565787
0.0566804
0.181523
0.238845
0.0620915
0.0969815
0.0785482
0.278374
0.271644
0.277593
0.0614895
0.280204
0.0457024
0.204365
0.24748
0.125748
0.17763
0.0615599
0.287051
0.0343261
0.0370773
0.0397061
0.102238
0.0400648
0.110609
0.108498
0.0950861
0.119458
0.212856
0.0971928
0.150381
0.0096917
0.0452003
0.0822247
0.142103
0.0602233
0.16217
0.252539
0.113073
0.208826
0.196882
0.0124719
0.0401416
0.173355
0.0459105
-6.84869e-06
0.286242
0.221707
0.269142
0.0380795
0.285649
0.090853
0.266513
0.0870822
0.272504
0.0854036
0.280625
0.0428182
0.236605
0.0572474
0.190581
0.0880584
0.198695
0.0905936
0.328994
0.0589279
0.0759914
0.212444
0.191535
0.0562967
0.120002
0.19186
0.0579685
0.16635
0.0259479
0.165711
0.0550003
0.0533372
0.0769471
0.284924
0.058319
0.0398559
0.0579889
0.0581768
0.103597
0.224756
0.0655018
0.0585882
0.102614
0.103952
0.00432489
0.274476
0.0571205
0.072899
0.136412
0.201742
0.00121573
0.0590205
0.28256
0.0490411
0.0494939
0.150811
0.0308625
0.0446479
0.24723
0.0605326
0.279124
0.108404
0.0408585
0.0492967
0.120765
0.0473679
0.0579036
0.0814303
0.0557733
0.0563104
0.05588
0.0262288
0.144662
0.0540349
0.0729647
0.0534934
0.06634
0.0745178
0.0548234
0.0511245
0.273482
0.0544457
0.0494885
0.0522332
0.281627
0.0573533
0.0511977
0.0648887
0.189688
0.0698431
0.0535392
0.0589673
0.052489
0.00315117
0.278982
0.0716792
0.0533374
0.0398818
0.290782
0.0942679
0.0293483
0.0515147
0.0104233
0.103125
0.277338
0.0512624
0.274738
0.0478135
0.0332967
0.281164
0.276754
0.288924
0.0387041
0.283572
0.0170993
0.0203621
0.0521982
0.0293044
0.0251789
0.0606555
0.191877
0.282598
0.267097
0.295955
0.263063
0.144359
0.10181
0.0422211
0.0490078
0.0549744
0.135299
0.155132
0.0909975
0.221849
0.0701339
0.0525526
0.169643
0.0646887
0.264643
0.265007
0.0317892
0.266848
0.156223
0.234561
0.291199
0.049619
0.207884
0.157703
0.169963
0.157391
0.0502552
0.115366
0.269762
0.293157
0.0580354
0.260442
0.290855
0.276832
0.216567
0.044289
0.295297
0.0463227
0.251564
0.251785
0.045799
0.050632
0.0416809
0.136486
0.28517
0.0970812
0.157084
0.0428536
0.178191
0.285337
0.0530365
0.218921
0.0516241
0.223879
0.265426
0.296309
0.263126
0.0809372
0.0897197
0.107767
0.209982
0.0530388
0.242683
0.243507
0.0515781
0.226637
0.116703
0.0512684
0.157739
0.231144
0.051389
0.269494
0.0445741
0.238581
0.301904
0.0484911
0.129664
0.0490725
0.161843
0.0507813
0.0256462
0.285527
0.164647
0.0766469
0.104321
0.135179
0.127995
0.0211673
0.118893
0.11712
0.268754
0.170516
0.305627
0.251612
0.0632541
0.276198
0.0274218
0.028183
0.180627
0.148708
0.226798
0.226235
0.0300665
0.0261726
0.115896
0.280458
0.211483
0.251338
0.302349
0.0296404
0.214861
0.166411
0.216026
0.224786
0.1529
0.286183
0.2304
0.237672
0.0592922
0.0646448
0.300468
0.029878
0.0262883
0.0466876
0.256263
0.282
0.286508
0.0457494
0.0442661
0.19048
0.0445775
0.0468959
0.197292
0.2941
0.223703
0.0647012
0.266128
0.116895
0.220663
0.223148
0.295404
0.0446078
0.149956
0.150887
0.0461153
0.0434939
0.042075
0.0441221
0.161889
0.0453001
0.294935
0.215826
0.193927
0.0453246
0.0409387
0.0832195
0.208111
0.297739
0.112882
0.101522
0.292545
0.0211481
0.0371124
0.0661222
0.104904
0.0367171
0.0458116
0.0469958
0.0806635
0.0472171
0.292016
0.294623
0.0883638
0.292448
0.146881
0.0803614
0.042881
0.0639069
0.0600997
0.0709354
0.0457419
0.039711
0.0489696
0.054922
0.041711
0.0629938
0.0664677
0.209584
0.0421783
0.0451651
0.0709662
0.0283656
0.0464711