/*--------------------------------*- C++ -*----------------------------------*\
| =========                 |                                                 |
| \\      /  F ield         | OpenFOAM: The Open Source CFD Toolbox           |
|  \\    /   O peration     | Version:  2406                                  |
|   \\  /    A nd           | Website:  www.openfoam.com                      |
|    \\/     M anipulation  |                                                 |
\*---------------------------------------------------------------------------*/
FoamFile
{
    version     2.0;
    format      ascii;
    arch        "LSB;label=32;scalar=64";
    class       surfaceScalarField;
    location    "24";
    object      phi;
}
// * * * * * * * * * * * * * * * * * * * * * * * * * * * * * * * * * * * * * //

dimensions      [0 3 -1 0 0 0 0];

oriented        oriented;

internalField   nonuniform List<scalar> 
113358
(
-1.60409e-05
3.34784e-05
-2.30084e-05
5.57003e-06
2.38375e-05
3.98625e-07
-6.52246e-06
-1.77166e-05
-2.7157e-05
2.09973e-05
-3.45274e-06
9.60347e-06
-2.39626e-05
-6.77741e-06
2.41961e-05
6.56852e-06
-1.72484e-05
1.01204e-06
3.01239e-05
-1.38887e-05
1.36167e-05
-1.41966e-05
-7.96006e-06
8.53966e-06
-7.50302e-06
3.59098e-05
-2.58797e-05
-2.53567e-06
-9.11853e-07
-3.44715e-05
1.88928e-05
1.64877e-05
9.1023e-06
5.002e-07
1.88158e-05
-2.84193e-05
8.57555e-06
4.43948e-06
-1.26624e-05
-3.10717e-07
-5.95123e-06
2.1894e-05
-2.00467e-05
4.10401e-06
-1.62855e-05
-2.23546e-07
-2.77193e-07
1.67833e-05
-4.75726e-05
3.70952e-06
1.32895e-05
3.05766e-05
1.45118e-06
-3.14309e-06
1.69056e-06
2.26469e-06
-1.56091e-06
2.25097e-05
-2.32005e-05
1.28145e-06
3.22556e-07
1.32966e-05
-1.48935e-05
9.64177e-06
3.1068e-05
-2.60815e-05
-1.46293e-05
-1.9769e-05
1.11015e-05
7.11611e-06
1.55115e-06
1.45352e-05
-3.90637e-05
3.37339e-05
-9.20661e-06
2.29752e-05
3.13089e-06
2.60313e-05
-5.21345e-05
2.03824e-05
4.90411e-07
-4.56207e-07
-2.04175e-05
-1.13337e-05
4.50076e-05
4.15995e-06
-3.78213e-05
-4.10672e-07
-4.31384e-05
4.61684e-05
-2.62244e-06
-1.09127e-06
5.24795e-06
3.68865e-07
-4.52964e-06
-4.51201e-05
1.98229e-05
-3.64435e-06
2.89464e-05
-2.49957e-05
5.80565e-06
2.0727e-05
-1.52022e-06
-1.09267e-05
1.06208e-05
-2.09284e-07
5.14623e-07
-2.20803e-06
-7.9042e-06
5.84836e-06
4.26344e-06
2.07843e-05
-2.77148e-07
-1.26968e-07
-2.74379e-06
2.73074e-06
1.20746e-08
-5.372e-06
-2.58864e-05
2.73773e-05
3.88078e-06
5.54028e-06
-3.87139e-07
-8.56455e-06
3.41043e-06
2.05959e-05
-1.15717e-06
1.03551e-06
-2.04736e-05
-2.89183e-05
1.29319e-05
-3.04846e-06
1.90852e-05
1.75202e-05
1.7169e-06
-1.98041e-05
5.6595e-07
-3.33958e-05
8.09153e-06
-1.1683e-05
3.69989e-05
-3.98111e-08
-2.60327e-06
2.64354e-06
9.2763e-06
1.11509e-05
1.92139e-06
-2.23461e-05
7.2683e-06
-3.93767e-05
3.2338e-05
-2.30325e-07
-3.17006e-06
4.75942e-06
3.41514e-05
-3.57218e-05
-2.0831e-05
1.71266e-05
-2.126e-05
2.49585e-05
1.56856e-06
-2.31618e-05
-3.10653e-05
5.26564e-05
-3.32765e-07
4.23643e-05
-1.15267e-05
-3.05054e-05
5.54148e-06
-1.96181e-05
-8.1837e-06
-5.31318e-06
3.2454e-05
-5.21994e-07
-2.66197e-05
-2.54087e-06
1.78795e-05
-1.20466e-05
-3.29178e-06
-3.06273e-05
-1.12583e-05
4.15495e-05
-9.49187e-06
3.29506e-05
7.82761e-07
-2.42415e-05
-3.40482e-05
4.21307e-06
-5.51131e-06
3.53454e-05
3.34809e-05
1.43542e-05
-4.46185e-05
-3.21672e-06
2.32035e-05
-1.61824e-05
1.56498e-06
-8.58658e-06
-1.22032e-05
3.72837e-06
1.20894e-05
-3.59691e-06
3.1104e-05
-7.86339e-06
1.74986e-05
-4.07334e-05
-1.04407e-05
-3.94639e-05
4.23509e-05
7.55103e-06
-2.29498e-06
8.57075e-06
-9.74468e-06
3.46783e-06
2.91359e-05
-1.27753e-05
2.06147e-05
-3.6976e-05
-2.02644e-05
4.28257e-06
3.59353e-05
-1.99548e-05
1.40266e-05
-6.98317e-06
5.69032e-06
-1.27363e-05
3.36051e-05
-8.52069e-06
-2.58821e-05
8.03806e-07
-1.23502e-05
-1.4624e-05
7.50192e-06
1.94718e-05
-3.0116e-05
-4.65958e-06
1.44159e-05
2.03405e-05
-3.34306e-06
3.89245e-06
-5.48391e-07
3.17032e-05
-5.29327e-06
-3.07878e-05
4.37609e-06
-1.39888e-05
-3.86031e-05
1.44442e-05
3.81475e-05
-4.42575e-06
4.76603e-06
-3.74009e-05
3.7062e-05
2.15214e-06
2.10884e-05
1.74112e-06
-2.49825e-05
4.39925e-06
-3.62476e-06
-7.62118e-07
6.64116e-09
1.23613e-08
1.34648e-05
-1.34786e-05
6.10373e-06
-2.99875e-05
3.25164e-05
-8.63169e-06
1.06127e-05
-2.42842e-05
2.25751e-05
-8.90468e-06
8.90986e-06
-9.09235e-06
1.77879e-07
-1.7612e-05
-5.84406e-06
3.06414e-05
-7.18478e-06
-2.79276e-07
4.81299e-06
-4.53378e-06
6.83945e-06
-2.87833e-05
9.53054e-06
1.24112e-05
3.99453e-05
-3.16744e-06
-2.87337e-06
-3.39105e-05
-2.61605e-05
-3.07164e-05
3.35357e-05
2.33362e-05
2.84233e-06
-3.44583e-05
5.4556e-06
3.45237e-05
-2.7354e-05
-1.00563e-06
-6.16517e-06
1.69649e-07
2.39402e-07
-1.75909e-05
1.71712e-05
7.23467e-06
6.86746e-06
1.17998e-05
-2.59023e-05
9.33543e-06
-4.84329e-06
3.84415e-06
-8.27791e-06
-1.55014e-05
-1.02596e-05
2.66969e-05
-9.36163e-07
-2.10183e-05
2.58144e-05
-1.80947e-05
1.32987e-05
-3.69308e-06
1.38384e-08
3.68115e-06
-2.9285e-05
2.92127e-05
-2.94801e-05
2.32421e-05
-3.43502e-06
-1.14704e-06
-7.04106e-07
5.28564e-06
6.14508e-05
-5.93355e-05
1.84482e-06
-3.94903e-06
-1.32087e-05
4.14239e-06
1.29585e-05
-3.88826e-06
-4.46487e-06
2.57982e-05
-2.86744e-05
7.34307e-06
-1.74637e-05
-2.10284e-05
3.1133e-05
7.35806e-06
8.74311e-06
-1.2379e-05
1.79878e-05
-1.43544e-05
6.95592e-06
2.15368e-05
-4.53064e-05
1.68153e-05
-3.28456e-05
1.17125e-05
1.39833e-05
7.14625e-06
7.45761e-07
-2.67478e-05
2.16477e-05
4.35472e-06
-2.71207e-05
2.6054e-06
9.62046e-06
1.48946e-05
2.31548e-05
-1.98263e-05
6.94868e-06
-1.02681e-05
1.56307e-06
1.37317e-05
-1.50084e-05
-2.78709e-07
1.84536e-05
-2.42743e-06
-3.03624e-06
-1.29912e-05
1.54414e-05
1.75306e-05
-1.48862e-05
-1.80846e-05
2.76736e-06
-9.44142e-07
5.09495e-06
-6.91996e-06
5.61973e-06
-3.63997e-07
-5.25973e-06
6.06175e-08
4.70216e-06
-4.76455e-06
-5.12347e-07
3.35202e-06
-1.51931e-05
1.23519e-05
-1.99987e-05
4.15133e-05
4.28137e-07
-2.19532e-05
4.62225e-06
-2.05829e-05
1.59321e-05
4.73245e-08
-3.66003e-06
-4.92599e-06
1.38653e-06
7.20023e-06
-6.25952e-06
-1.51976e-05
3.86856e-06
1.75933e-05
-3.15655e-06
2.12636e-05
9.05359e-06
-2.71491e-05
4.67087e-06
4.38152e-06
-2.07027e-05
1.16493e-05
-2.8436e-06
2.79803e-05
-3.21454e-05
7.00678e-06
-8.81387e-06
9.09259e-06
-2.6851e-07
2.08277e-05
-2.56899e-05
3.92536e-06
9.45611e-07
1.87116e-05
1.0522e-05
-3.23833e-05
3.14852e-06
-2.53269e-05
-1.36448e-05
6.88675e-06
3.20839e-05
-2.58559e-06
-2.27115e-05
9.93908e-07
2.43058e-05
1.45833e-05
-1.51289e-05
4.7745e-08
4.98788e-07
1.63751e-05
-2.82397e-05
-5.62509e-06
1.74843e-05
-4.10123e-06
2.70441e-07
3.83223e-06
-4.14261e-06
-1.40632e-06
2.83771e-05
-2.28224e-05
-1.27116e-05
7.94713e-06
4.02963e-05
-3.55289e-05
-9.52716e-06
1.9051e-05
-2.86821e-05
1.91546e-05
1.57574e-06
-2.42798e-05
1.92727e-05
3.42346e-06
-3.53807e-06
-8.24462e-06
2.94228e-05
-1.76405e-05
2.30792e-05
-1.02101e-05
-9.87113e-06
-2.99834e-06
-2.56946e-06
-1.31809e-05
1.85965e-05
-2.84847e-06
7.24448e-06
-3.55294e-06
-3.69278e-06
-1.10921e-06
-2.55618e-05
-5.92811e-06
3.25975e-05
-1.48061e-05
2.06574e-05
5.91633e-06
-1.1768e-05
4.77414e-06
-1.19883e-05
2.06217e-05
-1.34082e-05
-3.92739e-05
9.08257e-06
-6.56262e-07
3.08441e-05
-2.6694e-06
-4.46485e-05
4.00629e-05
7.27351e-06
2.3376e-08
-4.71219e-06
4.68148e-06
2.1088e-05
-3.20611e-05
5.35696e-07
1.04365e-05
3.83762e-05
4.3404e-06
-4.10969e-05
-1.62203e-06
1.19797e-05
1.14868e-06
-2.77374e-05
1.46031e-05
-9.30034e-06
1.29179e-05
1.50941e-05
-2.75007e-05
-2.28476e-05
1.29738e-05
3.73834e-05
6.84661e-06
3.56391e-06
-4.79732e-06
7.39101e-06
-5.77947e-06
-2.81881e-05
2.65752e-05
5.35529e-06
1.6469e-05
-7.58159e-06
-1.42455e-05
-6.35474e-06
1.38181e-05
2.88595e-05
-3.63215e-05
1.98933e-07
2.88865e-06
-3.08561e-06
-2.30391e-05
3.69163e-06
1.40554e-05
5.2891e-06
2.97457e-05
-1.58564e-05
-2.01653e-05
6.27592e-06
3.22812e-05
-7.86019e-06
-3.65152e-06
-2.07701e-05
-2.91481e-05
-2.11911e-07
-9.76646e-07
3.0334e-05
2.61441e-05
1.25523e-05
-3.69239e-05
-1.7705e-06
6.9206e-06
4.84444e-06
-1.17652e-05
1.80068e-06
-2.71765e-05
-1.32768e-07
2.55135e-05
4.35791e-05
-3.35235e-05
-3.32927e-06
-6.72977e-06
5.52269e-06
-7.22009e-07
-4.42893e-06
-3.62815e-07
-3.0476e-05
4.30572e-05
1.74985e-05
-3.00847e-05
1.78239e-05
-2.82595e-05
-2.76378e-06
1.32036e-05
-2.62008e-05
2.83913e-05
-9.10421e-07
-1.28885e-06
-3.75074e-06
1.8573e-06
1.90407e-06
3.76411e-05
-4.08209e-06
1.00763e-05
-4.36301e-05
-2.73846e-05
3.66686e-05
-3.54915e-05
1.46143e-07
2.80638e-06
2.0717e-05
-2.36726e-05
3.29703e-06
-3.17523e-06
-1.20479e-07
-1.29249e-05
-6.96991e-06
1.19845e-06
1.86943e-05
-9.46092e-06
2.42921e-05
-1.87844e-05
3.95121e-06
1.80792e-06
-5.87472e-06
3.65514e-06
4.09102e-07
-2.35647e-06
-2.23993e-06
4.60914e-06
-2.50122e-05
2.46936e-05
2.46254e-05
-2.4303e-05
4.65202e-05
-1.20264e-05
-1.00321e-05
-2.4465e-05
1.49223e-05
8.3069e-07
-5.57092e-07
-1.51994e-05
3.07442e-05
-3.75072e-05
5.12166e-06
1.64129e-06
3.75497e-06
-4.65048e-08
-3.70864e-06
-5.72604e-06
2.75891e-05
-2.65544e-05
4.70639e-06
-1.55277e-05
1.62221e-05
-1.80213e-06
1.10754e-06
-1.22452e-05
1.07618e-05
7.27524e-07
7.56521e-07
2.98157e-06
-2.28837e-05
8.03261e-06
1.18723e-05
-1.11378e-05
-1.07494e-05
2.59978e-05
-4.11046e-06
-1.7186e-05
1.68254e-05
3.31727e-07
2.84306e-08
-3.14216e-05
-3.50675e-05
3.5859e-05
-1.04677e-05
3.26174e-05
1.0209e-05
-3.23605e-05
5.62259e-06
3.10384e-05
5.73094e-06
-4.23919e-05
-1.53961e-05
6.56277e-06
2.10722e-05
-1.22443e-05
-1.05589e-08
4.38826e-08
1.26137e-05
-1.2656e-05
1.57743e-06
3.73147e-05
-5.60865e-06
-3.32859e-05
-4.63553e-06
-3.04542e-06
5.12733e-06
2.55176e-06
5.16762e-06
-4.87602e-06
-2.93458e-07
-4.24332e-06
-1.40518e-05
1.10812e-06
-2.55122e-05
2.83233e-07
-5.04459e-06
3.02735e-05
-1.71141e-05
1.54217e-05
4.10963e-07
1.28223e-06
-5.41206e-07
9.70705e-06
-1.67986e-07
-8.99419e-06
-3.4781e-06
3.45731e-06
1.66687e-08
3.4856e-06
-8.46052e-07
2.17604e-05
-2.43962e-05
3.11496e-05
3.31507e-06
-2.67637e-05
-7.70445e-06
-3.27482e-06
-1.53593e-05
-1.03375e-05
1.61265e-05
-1.77184e-05
1.09467e-06
5.03897e-07
6.85389e-06
-2.92333e-05
3.45801e-05
-1.22014e-05
1.29206e-05
2.72063e-06
-6.8905e-06
-8.75904e-06
-1.56796e-05
-3.72733e-05
9.03813e-06
4.39218e-05
5.49948e-09
3.12644e-06
-2.20443e-07
-2.93136e-06
1.14164e-05
-7.48512e-07
1.90009e-06
-1.25769e-05
-1.16713e-05
1.85733e-07
1.15362e-05
-5.78638e-08
2.3585e-05
3.9651e-06
-2.97717e-05
2.21062e-06
-2.9337e-05
-1.71609e-05
3.79405e-05
8.55713e-06
-7.82338e-06
3.27291e-06
-7.34879e-06
5.8721e-06
2.47437e-05
-3.16187e-05
1.0049e-06
-2.4439e-05
-2.49732e-05
1.03745e-05
3.90233e-05
-3.34758e-06
3.65634e-06
-3.06515e-07
1.86756e-05
1.0746e-05
-2.26196e-06
-2.71711e-05
-7.61085e-07
-4.33172e-06
-2.8359e-05
3.34566e-05
-1.90782e-05
4.86107e-06
4.64425e-05
-3.22225e-05
2.54563e-05
-1.89488e-05
-9.74133e-06
3.21654e-06
3.11192e-06
-5.45681e-08
-3.05308e-06
4.54486e-05
-2.20117e-05
3.12451e-06
-2.65588e-05
1.0964e-05
-1.17799e-05
1.38064e-06
-5.72642e-07
2.69885e-06
2.52646e-06
-5.22579e-06
-1.62038e-05
-2.14051e-05
4.23935e-06
3.33771e-05
-1.33493e-05
3.12579e-07
1.38412e-05
-8.12828e-07
2.21774e-05
-4.63326e-05
5.74798e-07
2.35818e-05
-1.91232e-05
-2.42837e-05
3.18054e-05
1.16028e-05
-1.31428e-05
1.70931e-05
2.83303e-05
5.24981e-06
2.70125e-05
-2.83671e-05
-3.89363e-06
2.23092e-06
1.66147e-06
-1.48675e-05
1.09723e-05
-3.20748e-05
1.43218e-05
1.13253e-05
6.42439e-06
1.58248e-05
4.20456e-06
-1.82932e-06
-1.81893e-05
-3.62014e-06
-2.73118e-05
2.88885e-06
2.80407e-05
6.26111e-06
-2.42438e-06
2.43267e-05
-2.81638e-05
-2.64455e-06
4.52534e-08
-6.40712e-06
9.04855e-06
6.8527e-07
9.81606e-06
-3.61031e-05
2.56012e-05
-1.275e-05
-2.55284e-05
-1.16351e-06
3.94455e-05
3.76276e-07
5.96993e-06
-6.34874e-06
9.89413e-08
-2.75294e-07
1.29589e-05
-1.27788e-05
2.39101e-06
1.50243e-05
1.29296e-05
-3.03454e-05
3.6709e-07
-1.6966e-05
9.60984e-08
1.65046e-05
3.89415e-06
-1.89964e-05
-1.43858e-05
2.9487e-05
1.38001e-05
1.69241e-05
-1.46007e-05
-1.61209e-05
2.8144e-05
1.68076e-05
-3.79196e-05
-7.03063e-06
1.96265e-07
-5.31545e-06
5.1183e-06
3.26328e-06
1.58662e-06
6.8712e-09
-4.855e-06
2.44317e-06
3.07267e-06
4.22133e-07
-5.93456e-06
3.14146e-06
-3.55707e-06
1.72406e-05
1.71636e-07
-3.12402e-05
1.16711e-05
1.93919e-05
5.35416e-05
5.94004e-06
-1.10519e-05
-4.84195e-05
-9.4127e-06
1.25035e-05
-2.9497e-06
-1.38195e-07
-1.44197e-05
1.37944e-05
-2.30949e-05
2.37164e-05
3.78097e-06
7.84844e-08
-3.85617e-06
1.29311e-06
9.75735e-06
-1.86457e-05
7.59569e-06
3.79441e-06
-5.79098e-06
1.99182e-06
2.41783e-05
-1.28975e-05
-6.50705e-06
-1.82615e-05
6.66637e-06
-1.69302e-05
2.85248e-05
3.17631e-05
-3.08339e-05
4.88579e-06
-5.81748e-06
1.66344e-05
5.83071e-06
-1.99129e-05
-2.55925e-06
2.83179e-06
-3.59156e-05
1.20865e-05
2.09954e-05
2.92833e-05
-5.8991e-06
5.00008e-06
4.53935e-05
-5.10794e-05
2.52632e-06
-3.15122e-05
2.46699e-06
3.26865e-05
-3.64036e-06
-2.53794e-05
-1.64135e-05
2.73713e-05
-1.19078e-05
-1.13448e-05
-1.59471e-05
3.91981e-05
-1.21355e-06
4.49406e-06
3.75655e-05
-4.0852e-05
1.43888e-06
2.66589e-05
-4.69583e-05
1.88601e-05
-1.59113e-07
1.31518e-07
2.05316e-05
-2.04999e-05
-3.92008e-05
6.46489e-06
3.25757e-06
2.94912e-05
1.41574e-05
-1.41774e-05
4.93594e-06
-4.92474e-06
8.49702e-07
1.28836e-05
-1.64191e-05
2.68518e-06
-2.38611e-05
3.60303e-05
-4.46026e-06
-7.70992e-06
-3.30902e-05
2.44377e-05
1.56079e-06
7.09733e-06
-3.01869e-05
2.92198e-05
3.87217e-05
-3.77579e-05
2.98057e-05
-2.41554e-05
1.29853e-06
-6.94817e-06
-1.43062e-05
1.86e-05
-1.13308e-05
7.0371e-06
-8.45171e-06
1.96895e-05
1.81665e-06
-1.30638e-05
-3.50517e-05
2.66155e-06
3.83192e-05
-5.92792e-06
-5.18133e-06
-2.7109e-05
4.19446e-07
3.18571e-05
2.76617e-06
-9.82418e-06
7.90638e-06
1.1202e-05
9.24189e-07
-1.0565e-05
-1.56607e-06
1.05262e-05
2.01542e-05
-2.34424e-05
-7.24036e-06
-9.36927e-06
1.27678e-05
2.18268e-05
-2.52213e-05
1.07279e-06
4.57014e-06
-3.95184e-05
3.38668e-05
1.87836e-05
-2.84745e-05
9.25526e-06
4.2667e-07
-3.72097e-05
-6.0425e-06
1.01586e-05
-3.61225e-06
-9.25705e-07
-2.68085e-05
3.13501e-05
-4.01793e-06
9.64866e-08
3.91978e-06
-4.72473e-06
-6.39647e-06
4.03228e-05
-2.92013e-05
6.32619e-06
-5.99613e-06
-3.38432e-07
2.73521e-07
2.81881e-07
-1.10586e-05
1.05004e-05
-1.7009e-05
1.61287e-05
2.90247e-05
6.02614e-06
3.23303e-05
-2.34171e-05
-1.4941e-05
5.30387e-06
-5.32233e-06
2.12009e-08
-4.63189e-06
5.20122e-05
-2.93324e-05
-1.80593e-05
-2.76757e-05
3.0209e-05
1.96457e-05
-2.14062e-06
2.27093e-05
1.0674e-05
-3.12433e-05
-2.93165e-05
-1.09265e-05
3.91974e-05
1.04372e-06
-5.78029e-06
5.24614e-06
5.32939e-07
2.86164e-05
-3.06229e-05
-1.0381e-07
2.10506e-06
-1.8485e-05
-1.1475e-05
1.65056e-05
1.34527e-05
-3.47505e-06
1.54991e-06
-1.98149e-05
2.17376e-05
-2.81862e-05
-7.91058e-06
8.57676e-07
3.52397e-05
-1.74082e-05
-8.54093e-06
-6.89736e-06
1.6964e-05
-3.90005e-05
-3.35746e-06
2.54128e-05
7.4921e-06
-3.17459e-05
-9.51988e-06
3.37787e-05
8.73435e-06
-8.34035e-06
-3.92819e-07
-2.6785e-05
4.50492e-05
-6.43611e-06
-1.18374e-05
-6.25178e-06
-2.69909e-05
3.05209e-05
2.72124e-06
-3.98414e-05
4.08439e-05
-4.86063e-06
3.85837e-06
-2.39485e-05
-6.07622e-06
1.68859e-05
1.31367e-05
-2.78079e-05
-6.06468e-06
3.38319e-05
2.46163e-08
-4.06657e-07
1.94602e-07
-1.46061e-05
1.48196e-05
4.13279e-06
1.42279e-07
-4.27462e-06
-7.54929e-06
7.58231e-06
-2.9521e-08
4.14836e-05
-3.44629e-05
-4.77721e-05
4.07708e-05
3.53969e-06
1.20496e-07
-3.66091e-06
-3.24634e-05
3.1983e-05
-4.48036e-07
9.22262e-07
-1.2147e-05
1.02404e-05
3.26966e-07
1.57171e-06
4.16112e-06
4.60584e-05
-2.47061e-05
-2.55135e-05
-2.59078e-05
-8.2151e-06
3.42504e-06
3.0708e-05
3.28875e-05
1.4355e-05
-1.45689e-05
-3.26718e-05
1.47837e-05
-5.50998e-06
1.97487e-06
-1.12487e-05
3.8749e-05
-3.51797e-06
-2.78405e-05
-7.37952e-06
-4.69542e-06
7.04705e-06
-7.68114e-06
5.33469e-06
-3.14417e-06
9.50792e-06
3.5871e-06
-9.9542e-06
-1.32607e-05
-6.67432e-06
3.75628e-05
-1.76334e-05
7.11661e-06
2.6564e-05
-2.62589e-05
-7.42041e-06
-2.25242e-05
2.32535e-05
1.49722e-05
-1.57017e-05
2.48626e-05
-2.24534e-05
-3.06994e-06
6.48274e-07
-1.27174e-07
-1.27968e-05
-4.33094e-08
1.29575e-05
-8.20052e-06
1.52264e-05
-1.47919e-06
-5.54624e-06
-3.46129e-05
-1.19645e-05
1.75264e-05
2.90569e-05
2.15762e-05
-1.82918e-05
-3.64281e-06
3.5555e-07
8.27656e-06
-2.84888e-05
-3.18495e-05
5.20571e-05
1.78011e-05
-2.33567e-05
-1.13624e-05
1.69136e-05
-6.26025e-06
-5.10219e-05
1.43603e-05
4.29258e-05
1.85298e-05
-1.66656e-05
2.19323e-06
-4.05868e-06
3.13544e-05
-1.15029e-05
-3.64405e-05
1.66008e-05
1.21546e-05
1.96813e-05
-4.61874e-05
1.4356e-05
-7.57368e-06
2.9035e-05
-2.53491e-05
3.88871e-06
-2.78952e-05
3.11655e-05
3.17106e-05
-3.49829e-05
-1.83217e-07
-1.60307e-05
1.3993e-05
2.21929e-06
4.90396e-06
-4.57981e-06
-3.33002e-07
3.65144e-05
-4.54274e-05
1.33925e-06
-4.81606e-06
6.60363e-06
3.38698e-06
-5.1771e-06
-3.59938e-06
1.46735e-07
-1.70899e-06
5.15872e-06
1.67967e-05
-2.45707e-06
1.78948e-05
-2.70023e-05
1.1333e-06
7.97361e-06
-9.7824e-06
-2.28736e-06
9.49792e-06
2.24942e-05
-2.9791e-05
1.70437e-05
-9.74809e-06
-2.56604e-05
-3.73403e-06
3.0827e-05
-1.43416e-06
-4.88e-05
-7.72751e-06
4.32338e-05
1.3303e-05
-3.73487e-05
9.9637e-06
8.31555e-07
2.65521e-05
-4.86506e-06
3.67838e-07
9.84094e-07
3.51761e-06
-2.53955e-05
-3.01812e-05
2.35992e-05
3.19737e-05
1.68993e-05
1.48247e-05
-2.53738e-05
-6.35422e-06
2.34355e-07
1.63776e-05
-1.38674e-05
-2.7423e-06
-2.46972e-07
-1.68191e-05
3.29952e-05
-1.5929e-05
3.51129e-05
-2.51998e-05
-1.34512e-05
2.81872e-05
-3.19801e-05
6.60943e-06
-2.81187e-06
-3.90496e-06
-2.67686e-05
2.88825e-05
1.7872e-06
3.80157e-05
-2.54847e-06
-3.93772e-05
2.31756e-05
-2.57742e-05
6.17579e-06
-3.57072e-06
2.02561e-06
-1.3101e-05
-1.13405e-06
1.22087e-05
-2.92622e-06
2.82491e-06
-3.46597e-06
3.5667e-06
-2.02555e-06
5.19389e-06
1.64466e-06
-4.80216e-06
-8.04824e-06
-2.07648e-05
-1.3724e-06
3.01911e-05
1.11162e-05
8.4307e-06
-2.98592e-05
1.03111e-05
-1.8754e-05
5.6615e-07
6.67864e-06
1.15093e-05
-2.03758e-06
-1.97632e-05
1.92092e-05
-2.45554e-05
2.86014e-05
9.00028e-06
-1.30571e-05
-3.44984e-05
3.94393e-05
-1.20872e-05
7.1431e-06
-5.28424e-06
-1.85333e-05
2.55686e-06
2.12601e-05
1.43676e-06
3.36047e-05
-3.92236e-05
4.18621e-06
1.7329e-05
-5.58538e-05
1.22607e-05
2.62719e-05
4.83793e-06
-3.65802e-05
2.0042e-05
1.16967e-05
1.40516e-06
1.97453e-05
-6.72702e-06
-1.4426e-05
-4.69722e-06
2.18301e-06
4.60731e-06
-2.09479e-06
-3.82014e-06
7.84083e-06
-2.92651e-05
2.52443e-05
-1.70299e-06
-1.27709e-05
3.80853e-07
1.40941e-05
1.1826e-07
1.30213e-05
-2.11226e-07
-1.29234e-05
1.88834e-07
3.00715e-07
1.32413e-05
-1.37438e-05
-8.78829e-06
-1.50305e-05
2.64053e-05
-2.58996e-06
3.68799e-06
-3.52898e-05
1.90401e-05
1.2555e-05
3.14151e-05
8.37358e-07
2.33851e-06
-3.45886e-05
3.21477e-06
-3.32202e-06
1.05958e-07
1.08409e-05
2.21642e-05
-2.81687e-05
-1.295e-05
6.39098e-08
1.54277e-07
1.2723e-05
1.9591e-06
-2.5167e-05
9.06233e-06
1.4145e-05
1.00615e-06
8.51822e-06
-8.57263e-06
-9.48296e-07
-6.36562e-06
-1.36619e-05
2.58091e-05
-5.78481e-06
3.09009e-05
-3.2849e-05
2.81585e-05
-2.62035e-05
1.83669e-05
-8.33496e-06
-3.0874e-05
2.08421e-05
-2.36737e-06
-2.22782e-06
4.58272e-06
1.32443e-05
3.00806e-06
-3.88358e-06
-1.23754e-05
-2.49578e-05
3.72055e-05
3.41549e-06
2.8938e-06
-6.30332e-06
1.16225e-06
-3.02063e-05
-6.54867e-08
2.91092e-05
-3.74842e-07
7.77541e-07
2.17592e-05
-9.75943e-07
2.32523e-05
-4.50995e-05
2.28112e-05
-7.62925e-06
-2.21547e-05
-3.20877e-06
3.29943e-05
6.04733e-06
-1.02952e-05
1.04523e-05
-6.20065e-06
-6.83217e-06
-3.31968e-05
-4.19169e-06
4.42137e-05
1.99832e-05
3.54577e-06
-2.28587e-05
-6.7064e-07
5.60347e-06
2.70881e-05
-4.49424e-05
1.22546e-05
-2.27548e-06
-1.44858e-05
-8.21254e-06
2.49748e-05
-2.16164e-05
-6.72432e-06
1.10314e-05
1.73188e-05
-1.2513e-06
-1.19115e-06
-1.47046e-05
1.71478e-05
3.47689e-05
-1.45717e-05
-8.45524e-06
-1.17448e-05
-2.1646e-05
5.30359e-05
-2.9671e-05
-1.71753e-06
1.27816e-05
3.22742e-07
3.82411e-07
-1.3478e-05
3.04564e-05
-3.59275e-05
3.62958e-05
-3.08193e-05
-5.66404e-06
1.77683e-05
-1.44383e-05
2.33387e-06
1.27704e-05
-4.69821e-05
2.01435e-06
3.21955e-05
8.89536e-06
4.15012e-05
-3.57421e-05
-1.46559e-05
7.43312e-06
-7.13714e-06
-1.17103e-05
1.14087e-05
-2.28784e-05
-1.35078e-05
4.03199e-05
-3.92816e-06
3.4849e-05
-2.7462e-05
-4.24321e-05
3.50524e-05
1.74476e-05
1.50475e-05
-9.14838e-06
-2.33571e-05
2.56888e-07
-1.48854e-05
1.18806e-07
4.48726e-06
-4.61326e-06
-3.95212e-06
3.84658e-06
1.10533e-07
2.61576e-05
-2.47611e-05
-2.31675e-05
2.17836e-05
-6.54977e-06
8.16706e-06
-2.35529e-05
2.19406e-05
3.43401e-05
-2.69187e-05
-5.59611e-06
-1.82415e-06
-5.62497e-06
1.36134e-06
3.74314e-06
-7.78399e-06
2.72655e-05
-7.47667e-06
-1.20063e-05
-4.55625e-05
1.18444e-06
1.55044e-05
2.88925e-05
1.31021e-05
-5.56041e-06
-1.29986e-05
5.45777e-06
7.28063e-06
3.39723e-05
-3.16689e-05
-9.58773e-06
-1.91547e-05
-3.91639e-06
3.67521e-05
-1.36815e-05
2.17752e-06
2.16769e-05
4.64959e-06
-2.85042e-05
7.47714e-06
2.39645e-05
-2.92628e-05
2.09278e-05
-1.55958e-05
-7.98334e-06
2.65596e-06
2.00468e-05
-2.58176e-05
1.13749e-05
-1.48799e-05
9.55742e-06
8.69838e-06
-3.37554e-06
8.61637e-06
1.06973e-05
2.06724e-05
-3.99912e-05
4.82837e-06
-2.8667e-05
-4.4478e-06
2.82983e-05
6.21353e-07
2.55895e-05
2.35558e-06
-2.85699e-05
1.13192e-05
2.17764e-05
-3.60607e-05
2.96622e-06
-5.47668e-05
4.51761e-05
-8.47435e-07
-5.68522e-08
3.77675e-05
-3.02912e-06
-3.4675e-05
-3.91746e-06
8.38247e-06
-1.15823e-05
7.10911e-06
-9.42434e-07
-4.21083e-06
3.17299e-07
4.83069e-06
-4.08439e-06
3.93943e-06
1.46558e-07
-5.19777e-06
-7.20465e-06
3.53987e-05
-2.29964e-05
-2.66997e-05
4.02943e-06
-1.17087e-05
3.43806e-05
4.27003e-05
-1.05088e-05
-1.37083e-05
-1.84953e-05
3.62015e-06
-3.25103e-05
1.15012e-05
1.73843e-05
4.01177e-06
-3.65668e-06
-1.36252e-06
1.01225e-06
-4.72598e-06
4.50967e-06
2.13767e-07
2.00214e-06
2.86504e-05
-5.313e-06
-2.53448e-05
-5.15868e-06
2.47867e-05
-3.25879e-05
1.29539e-05
1.08183e-05
1.78474e-05
-4.14289e-05
1.27618e-05
-2.18745e-06
2.54924e-05
1.84772e-05
-4.17809e-05
-4.23001e-05
2.2115e-05
2.49804e-05
-4.79552e-06
3.38561e-05
-3.44357e-05
6.74276e-06
-6.16419e-06
-3.16679e-05
-7.36423e-07
-9.89799e-06
2.5199e-07
6.23403e-06
-6.48505e-06
3.08837e-05
4.15474e-06
-2.52326e-05
-9.7914e-06
-1.99436e-06
-3.15557e-06
1.46455e-05
-9.49591e-06
2.98833e-06
5.39061e-07
1.00467e-05
-1.35756e-05
-3.19915e-05
1.40158e-05
1.56411e-05
2.33514e-06
1.48972e-05
-2.35662e-05
-3.36097e-06
1.2038e-05
-2.40321e-05
5.75596e-06
3.93597e-05
-2.10849e-05
-3.71693e-06
-2.56072e-07
3.98177e-06
-1.34611e-05
3.44234e-05
2.36853e-05
-4.46471e-05
2.95483e-05
8.13763e-07
-4.71907e-05
1.68271e-05
-2.08159e-06
3.0192e-05
-2.72234e-06
-2.53886e-05
2.03484e-05
-1.59323e-05
1.21365e-05
-1.65658e-05
-1.23168e-06
-2.2622e-05
2.55318e-05
-1.67897e-06
-1.89455e-05
-2.90838e-06
-1.3458e-05
3.52981e-05
-8.2206e-06
-8.37225e-06
-1.5097e-05
3.16652e-05
-1.1584e-06
3.0996e-05
-3.41063e-06
-2.64284e-05
2.43153e-05
-2.38681e-05
1.23691e-07
-5.7231e-07
3.42945e-05
5.54393e-08
-2.3634e-05
-1.07183e-05
-8.43385e-06
-4.04403e-06
-2.42995e-05
3.67814e-05
-3.23587e-07
-3.69843e-06
4.02642e-06
-2.7899e-05
4.19732e-05
-3.25992e-06
-1.08154e-05
2.71229e-06
1.93972e-05
6.3882e-06
-2.84877e-05
-4.98248e-06
1.14858e-05
4.17779e-06
-1.0673e-05
-1.7668e-05
-4.45348e-06
1.83888e-05
3.71816e-06
1.88085e-05
1.36912e-05
-4.81206e-05
1.56205e-05
1.24627e-05
-9.41952e-06
3.17142e-05
-3.4764e-05
-2.67306e-06
2.17514e-05
1.88948e-06
-2.09715e-05
3.52563e-06
-3.45025e-06
-7.49848e-08
2.38239e-06
2.89149e-05
1.37135e-06
-3.26678e-05
2.92092e-05
-4.68897e-06
-2.79895e-05
3.46545e-06
-5.08092e-06
6.39433e-06
-2.8946e-05
2.76243e-05
-2.94431e-05
-4.45634e-06
2.30643e-05
1.0819e-05
1.22159e-05
-1.15214e-05
-1.38244e-07
-5.51265e-07
-4.156e-05
2.6616e-05
-1.70939e-06
1.66505e-05
-5.2274e-06
4.44237e-06
7.84244e-07
1.27412e-05
-1.10061e-05
1.65653e-05
-1.82955e-05
1.95612e-05
1.64021e-05
-8.54767e-06
1.31586e-05
-3.57765e-05
-1.55421e-05
3.81672e-05
1.60688e-07
-1.77106e-05
1.78435e-05
-2.89389e-07
9.19112e-06
-1.53037e-05
-1.75413e-05
2.36477e-05
1.52903e-05
6.55124e-06
-2.38357e-06
-1.946e-05
-4.97576e-06
1.20392e-06
6.35242e-06
-2.58193e-06
-3.68936e-06
4.82604e-05
-1.64347e-05
-2.81164e-05
1.33084e-05
1.5651e-05
-6.24012e-07
-2.8337e-05
2.06602e-07
3.62197e-06
-3.82964e-06
-1.20414e-06
5.25578e-06
3.00684e-05
-3.41251e-05
3.53423e-05
4.71562e-06
-1.69529e-05
-2.31072e-05
-1.21037e-06
6.65803e-06
-5.22324e-06
-2.20469e-07
1.55339e-05
-1.52763e-06
-1.66779e-05
2.66145e-06
-4.54459e-06
-1.47417e-05
7.472e-06
1.18085e-05
-5.60849e-06
2.60703e-05
4.39389e-06
-2.48535e-05
2.61249e-05
-3.26111e-06
-2.87252e-05
5.85968e-06
-3.17729e-06
6.17845e-06
-3.00155e-06
2.97433e-06
-1.28543e-05
1.14387e-05
-1.55729e-06
7.89917e-07
1.21797e-05
-1.29772e-05
1.07578e-08
1.14455e-05
1.33161e-05
-1.55065e-06
-2.32091e-05
1.87252e-05
2.48233e-05
-1.74232e-05
-1.5909e-07
4.5955e-06
-4.43047e-06
-3.83396e-05
1.93924e-05
3.52588e-05
-1.6303e-05
3.84985e-05
6.58137e-06
-4.01897e-05
-4.88842e-06
2.43089e-05
-1.60512e-05
-2.71985e-05
8.3368e-06
1.43316e-05
-3.21145e-05
-1.74305e-06
-7.03632e-06
4.08919e-05
-1.73803e-07
4.58388e-06
-4.40628e-06
3.60914e-05
-1.36656e-06
-3.94067e-06
-3.07833e-05
4.87689e-06
-4.82911e-06
-5.09909e-08
-1.35059e-05
3.48805e-06
-8.49183e-06
1.85081e-05
-2.08887e-05
-1.70704e-05
1.57834e-05
2.21735e-05
2.32864e-05
-1.79996e-05
-4.76225e-06
-5.26975e-07
-3.07386e-08
3.79116e-06
-3.75168e-06
-8.31065e-07
-4.93781e-06
5.2803e-10
5.76365e-06
8.97444e-06
3.55163e-06
-6.17311e-06
-6.35133e-06
-1.38792e-05
1.49301e-05
-1.88267e-06
-7.95452e-08
4.06334e-05
-1.2545e-06
-3.92993e-05
-8.38219e-06
-8.72943e-07
1.09929e-05
-1.73488e-06
3.99889e-06
-1.60387e-05
1.27898e-05
-7.49179e-07
1.08199e-05
-2.03735e-05
1.39865e-05
-4.43377e-06
7.82965e-06
1.811e-05
2.84774e-06
-2.87824e-05
6.6011e-06
-6.7918e-06
1.91846e-07
1.64445e-05
-1.34471e-05
-3.47365e-05
3.17541e-05
9.01365e-07
1.27346e-06
1.61317e-05
-1.83083e-05
3.70691e-06
1.71812e-05
-2.17312e-05
8.4343e-07
1.35323e-05
-6.26595e-07
-2.10795e-06
-1.07979e-05
9.56591e-06
1.98667e-05
-2.95251e-05
8.50476e-08
1.64907e-05
-4.13903e-08
-1.47688e-06
-1.49746e-05
-2.6441e-05
9.66155e-06
1.31102e-06
1.54745e-05
-1.09652e-05
-1.01466e-05
-1.23558e-06
1.16956e-05
-2.01249e-05
1.50319e-05
-6.59315e-06
-3.91074e-06
-1.60673e-05
-2.42735e-05
4.42531e-05
-6.28259e-06
7.92791e-06
-1.85874e-06
2.13228e-07
6.82299e-08
3.11804e-06
-3.18354e-06
-7.27634e-06
3.84355e-05
1.21705e-05
-4.33239e-05
2.67039e-05
1.11682e-05
-1.00251e-05
-2.78586e-05
2.74054e-05
-2.36625e-05
2.76699e-05
-3.14173e-05
3.6067e-05
-3.99353e-05
4.57304e-06
-7.0477e-07
-5.00351e-05
2.16359e-05
9.0455e-06
1.93547e-05
-1.36399e-05
-1.75451e-06
1.48885e-05
5.05673e-07
3.11139e-05
-4.17009e-05
1.47343e-05
-4.14806e-06
1.23118e-05
-1.35358e-05
4.25943e-06
-3.03633e-06
-1.55005e-05
1.39516e-05
-9.40995e-06
-1.52726e-05
4.97122e-05
5.56408e-06
-4.00175e-05
-6.53457e-06
2.17951e-07
6.3199e-06
-4.74138e-06
1.04747e-05
-3.9123e-05
-2.29042e-05
-3.774e-07
2.05444e-07
2.30798e-05
5.72317e-06
5.30597e-08
-5.78365e-06
8.20977e-06
-4.6007e-07
-3.05327e-05
2.27792e-05
-4.13615e-08
-2.76362e-07
1.2327e-05
-1.2004e-05
8.35395e-06
1.77085e-05
-2.99526e-05
3.88617e-06
2.31948e-05
1.57626e-06
1.62868e-06
-2.63889e-05
-3.07342e-06
5.98344e-06
3.99527e-05
-4.28677e-05
-1.02222e-05
-1.23254e-06
-3.82543e-07
1.18343e-05
-8.46538e-06
7.19034e-06
-2.84074e-05
2.96855e-05
-1.67249e-06
2.7666e-05
-2.38384e-05
-2.15835e-06
3.36079e-05
1.02447e-05
-1.5516e-05
-2.834e-05
7.37004e-06
-4.0262e-05
2.65383e-05
-3.39921e-05
4.33943e-05
-2.12148e-06
1.87407e-05
-7.27205e-06
1.52284e-05
-1.56086e-05
-3.95931e-06
7.68752e-06
1.1881e-05
-8.30303e-06
9.68517e-07
7.58628e-06
-2.47658e-07
-1.11844e-05
2.73924e-05
-1.91334e-05
2.92937e-06
-3.20747e-05
2.80713e-05
2.9682e-05
-2.56788e-05
-4.03231e-06
3.68065e-06
1.76946e-07
1.73445e-07
3.08492e-05
-4.5777e-05
-1.68954e-05
3.18291e-05
-4.09124e-05
-1.5816e-05
2.74224e-05
2.93071e-05
3.64029e-05
3.86717e-06
2.05611e-06
-4.23223e-05
3.10919e-05
-2.06166e-05
2.59284e-05
-4.05143e-05
-3.72962e-06
1.62935e-05
2.79411e-05
3.92368e-06
3.58526e-07
-4.28465e-06
3.49159e-05
-3.2329e-05
-1.09491e-05
8.36298e-06
-2.1928e-05
-7.74646e-06
6.54537e-06
2.31393e-05
1.50085e-05
2.50322e-05
-1.41401e-05
-2.5899e-05
7.50323e-06
2.39936e-05
-2.32405e-05
-8.26129e-06
5.69382e-07
-7.64363e-06
7.07227e-06
-1.57107e-05
-1.35094e-05
1.34269e-05
1.58011e-05
1.97817e-06
2.1812e-05
-5.33061e-06
-1.84519e-05
-3.573e-05
3.59672e-05
-6.48179e-06
-2.77798e-06
3.38049e-05
-3.29464e-05
1.91779e-06
1.97286e-05
4.12026e-06
1.11808e-05
-3.50332e-05
-9.30032e-08
-2.70117e-06
2.79073e-06
-3.97655e-06
3.95163e-06
3.3322e-08
-2.21674e-05
-1.10091e-05
1.31658e-05
2.00079e-05
-2.89154e-05
-6.84988e-07
3.51042e-05
-5.49579e-06
-8.56878e-06
3.13545e-05
-3.25122e-05
9.72641e-06
-2.48644e-05
2.01583e-05
-8.90914e-06
1.36103e-05
4.32296e-07
2.25904e-05
-2.54871e-05
2.46905e-06
-3.48082e-05
8.07278e-06
2.23958e-05
4.34107e-06
1.84525e-06
4.27171e-05
-1.61628e-05
-2.83947e-05
2.64719e-06
-5.01473e-06
-2.03478e-05
-1.02363e-05
8.41692e-06
1.98238e-05
-1.3848e-06
4.06887e-06
-2.25082e-05
-2.30041e-06
-5.62485e-06
7.07092e-06
8.80468e-07
1.55651e-05
-4.7767e-06
-1.10132e-05
2.31735e-07
1.30307e-05
-4.34719e-05
4.16883e-05
-1.12531e-05
-1.72798e-05
3.00658e-05
4.30856e-06
-1.70996e-05
-3.69597e-06
4.08731e-06
2.84727e-05
-2.8859e-05
-3.97106e-05
2.95668e-06
2.93199e-07
3.64459e-05
-2.28637e-05
2.92875e-06
1.81524e-05
1.78083e-06
-2.29664e-05
1.4194e-05
3.23854e-05
-2.36156e-05
-1.54829e-05
-2.84818e-05
8.12368e-06
3.58331e-05
4.62369e-06
-3.78176e-05
-4.27407e-06
3.7464e-05
-2.80929e-05
3.94592e-06
-1.60654e-06
2.5755e-05
-2.88562e-05
-1.81025e-06
-2.19329e-06
3.28654e-05
6.72531e-06
-3.46394e-06
3.14816e-05
-3.47476e-05
8.32432e-06
-4.83294e-06
-5.14558e-08
-3.44204e-06
4.51064e-06
-4.62019e-05
-7.09857e-06
4.87928e-05
-4.92846e-06
3.08399e-06
2.53331e-06
-6.84042e-07
-2.88093e-05
-7.55183e-06
1.58322e-05
2.05284e-05
-1.63926e-06
1.59889e-05
3.10548e-06
-1.74561e-05
-1.30941e-05
-1.40361e-05
9.66614e-06
-6.15233e-06
2.45852e-06
3.23031e-05
-2.86135e-05