/*--------------------------------*- C++ -*----------------------------------*\
| =========                 |                                                 |
| \\      /  F ield         | OpenFOAM: The Open Source CFD Toolbox           |
|  \\    /   O peration     | Version:  2406                                  |
|   \\  /    A nd           | Website:  www.openfoam.com                      |
|    \\/     M anipulation  |                                                 |
\*---------------------------------------------------------------------------*/
FoamFile
{
    version     2.0;
    format      ascii;
    arch        "LSB;label=32;scalar=64";
    class       volVectorField;
    location    "24";
    object      U;
}
// * * * * * * * * * * * * * * * * * * * * * * * * * * * * * * * * * * * * * //

dimensions      [0 1 -1 0 0 0 0];

internalField   nonuniform List<vector> 
59516
(
(0.112835 0.000450694 -0.000432238)
(0.103516 8.29876e-06 -0.00010732)
(0.118077 -0.00175498 -5.42694e-05)
(0.128907 0.00254664 0.00136469)
(0.113854 0.000409072 -0.00425992)
(0.101086 -0.00483905 -0.0107671)
(0.132289 0.000145347 -0.00150109)
(0.108955 0.00086309 0.000577032)
(0.117606 0.000597573 0.000871241)
(0.0615772 -0.00116245 0.00275719)
(0.14387 0.000696801 -0.000719869)
(0.0663059 0.000974798 -0.00322979)
(0.124431 0.00112607 -0.000570112)
(0.023469 -5.44439e-05 -0.00026401)
(0.0682097 0.0016625 0.00310644)
(0.0574844 0.00432656 -0.00226008)
(0.150923 0.000405786 -4.42813e-05)
(0.0713549 0.00370626 -0.00349609)
(0.11768 0.00334442 0.000987385)
(0.150336 -0.000868121 0.000209267)
(0.0586483 0.000259033 -0.000713331)
(0.144374 0.000397528 0.00051842)
(0.147977 0.000556739 -0.000138252)
(0.0384638 -0.00137469 -4.76988e-05)
(0.151819 -0.000864316 0.00145365)
(0.0719009 0.0014389 0.00152931)
(0.0476606 0.000763733 -0.00257947)
(0.0469992 0.00337162 0.000714384)
(0.0708181 0.0016059 0.000104371)
(0.0205801 -0.00328826 0.000751892)
(0.108222 -0.020772 -0.00449308)
(0.048244 0.00316972 -0.000720664)
(0.132909 -9.97398e-05 0.00101861)
(0.116014 -0.000764506 0.00309994)
(0.135947 0.0011517 0.00167501)
(0.142594 -0.000482114 0.000197403)
(0.0196048 -0.00179248 -0.00313301)
(0.0711888 0.00280595 -0.00627825)
(0.101626 -0.00222323 0.000126293)
(0.147611 -0.00262771 0.000904184)
(0.108085 -0.000928198 0.000187386)
(0.141383 -0.00482657 -0.00483973)
(0.144845 -2.79199e-05 0.000246991)
(0.11425 -0.00151118 0.00105498)
(0.142763 -0.000688441 0.000523943)
(0.061187 -0.00148314 -0.0018615)
(0.133804 -0.000278971 -0.00151944)
(0.150469 -0.000217353 4.25169e-05)
(0.111635 -0.00880053 0.0124341)
(0.142898 0.00267937 0.0026394)
(0.103996 0.0105325 -0.0145719)
(0.0492863 -0.00393948 0.00267035)
(0.124768 0.000655971 -0.00166452)
(0.130306 -2.75189e-05 -0.000543734)
(0.0521929 0.00275473 -1.0931e-05)
(0.131466 -0.000214202 -0.000331454)
(0.139198 0.00585672 0.00632341)
(0.0543037 0.00424993 -0.00354964)
(0.149833 -0.00151645 0.00031498)
(0.132827 0.00394689 0.00489266)
(0.142795 -2.45332e-06 0.000615448)
(0.0217086 0.00278819 -0.000788519)
(0.145329 -0.00088912 -0.000699765)
(0.146969 0.000106601 -0.000553014)
(0.129221 0.000959584 -0.000511338)
(0.14026 0.00126001 0.00131588)
(0.0310421 -0.00204648 0.00285578)
(0.0460745 0.000400812 -0.000143955)
(0.120866 -0.00469153 0.0218348)
(0.136143 0.00124995 0.000664219)
(0.0424899 0.00135409 0.000305759)
(0.14737 0.000339005 -0.000437154)
(0.026474 0.00165202 -0.00444481)
(0.139237 -0.000847272 -0.000342501)
(0.151754 -0.00123857 0.000310542)
(0.149225 0.000528138 0.000299597)
(0.150417 0.00053635 5.46851e-05)
(0.141926 0.000511218 -0.000634996)
(0.0514482 -0.00202334 0.00183426)
(0.142187 0.00178169 0.00308586)
(0.0438639 0.00328155 0.00157417)
(0.139636 0.0017521 0.00196929)
(0.136166 0.000991549 0.00197585)
(0.0234175 -0.000928633 0.00354643)
(0.139995 0.00145332 0.00208058)
(0.150624 -0.000875784 4.26144e-06)
(0.0371291 -0.00155688 0.000536318)
(0.14524 -0.000292795 0.000504555)
(0.0600226 0.00109557 0.00358087)
(0.108334 0.0077304 -0.00449684)
(0.129952 -0.000313537 -0.00939314)
(0.132879 0.00161039 0.00020689)
(0.150283 -0.000237713 0.000477269)
(0.132577 0.000359926 -0.000319212)
(0.14262 -0.000501307 0.000221409)
(0.109912 -0.0103315 0.00418355)
(0.137141 -0.00117236 0.0014541)
(0.0589666 -0.00185366 -0.00444216)
(0.0685687 0.00186489 -0.000262822)
(0.142026 -0.000337137 0.00129324)
(0.0421019 0.000821947 0.00170945)
(0.0283451 0.00133759 -0.00333344)
(0.0268703 0.000875708 0.00390934)
(0.0613603 -0.000812413 -0.0029366)
(0.13496 0.000378183 -0.000464997)
(0.137526 0.000334538 0.000835703)
(0.0461592 0.00428867 -0.00170184)
(0.112553 0.0003022 -0.000533636)
(0.107788 -0.000764712 -0.000578014)
(0.0728581 0.000580364 -0.00326686)
(0.124288 0.0121091 -0.0123676)
(0.0354751 0.00392502 -0.000490582)
(0.0733112 0.000987226 -0.00392754)
(0.117772 0.0164574 -0.00816275)
(0.147868 -0.000414043 0.000418517)
(0.107802 0.00114776 0.000531172)
(0.0600287 0.000591867 -0.00270759)
(0.132862 0.000772009 0.000756209)
(0.0250061 -0.000446443 0.00104009)
(0.140902 0.00163986 0.000259008)
(0.151352 0.000237231 3.68273e-05)
(0.148438 0.000972796 0.00026723)
(0.148588 0.000115149 -0.000182937)
(0.146945 0.000402491 0.000411362)
(0.13139 -0.0151408 0.00285327)
(0.0939782 0.000900584 -0.00168785)
(0.0344762 -0.000487607 0.00231889)
(0.137036 -0.00985977 -0.000133363)
(0.0898805 -0.00264523 0.0129822)
(0.149932 0.000483422 0.000668241)
(0.149683 0.000478062 0.00148988)
(0.11961 0.00129466 0.00172568)
(0.0266778 0.00159808 -0.00191445)
(0.144504 -2.37646e-05 0.000683206)
(0.109854 0.000678341 0.00033978)
(0.122125 -0.00122709 -0.00142148)
(0.107844 0.0119275 -0.00840362)
(0.133789 -0.000414216 0.000887172)
(0.0449401 0.00299533 0.000163872)
(0.106515 0.000872933 -0.00142033)
(0.0495966 -0.000974611 -0.00262084)
(0.15095 0.000266449 -0.000177152)
(0.0212463 0.000899796 0.00191035)
(0.128505 -0.000999079 -0.00066136)
(0.148082 0.000403245 0.000142136)
(0.138395 0.00138966 -1.57686e-05)
(0.14064 -0.00109662 0.000258639)
(0.123446 0.00043267 -0.0020637)
(0.0621399 -0.00105877 0.00173013)
(0.113701 -0.000577064 -0.000711879)
(0.111909 -0.000384029 -0.000686677)
(0.0405111 -0.00153732 -0.000110743)
(0.150637 -0.000558728 0.0012089)
(0.145885 -0.000168631 0.00110643)
(0.0982525 -0.000585764 0.00165722)
(0.0216868 -0.000562335 0.00251089)
(0.119877 0.000411548 -0.000350571)
(0.120767 0.000946943 -5.26465e-05)
(0.0913631 0.00137973 0.000143133)
(0.0226012 0.00286358 -0.00306852)
(0.0720201 0.00127729 -0.00328361)
(0.0743502 -0.00331741 -0.00243497)
(0.0400757 -0.00172727 0.000303399)
(0.0294661 -0.000434192 -0.000595045)
(0.10711 0.00129397 0.00227709)
(0.151921 9.48825e-05 0.000991157)
(0.0673358 -0.000758654 0.000233092)
(0.149623 0.000448623 0.00030146)
(0.0230529 -0.00147673 0.0026257)
(0.130717 -0.000279586 0.000536187)
(0.0919945 0.00142998 0.00128821)
(0.0583507 0.00083985 -0.00086989)
(0.0711061 0.00171242 0.000923543)
(0.135592 -0.000736067 0.000818282)
(0.0560916 -0.00101589 0.00031231)
(0.135648 0.000676354 -0.00180034)
(0.148021 0.000243144 -0.000877952)
(0.146363 -0.00104698 -0.000280282)
(0.0740096 -0.00150562 0.00342503)
(0.0458251 -0.000111295 -0.000577065)
(0.141497 0.00145465 0.00115127)
(0.0376532 -0.0033696 -0.00119928)
(0.0330192 -0.00071867 -0.0027224)
(0.0710198 -0.00204094 -0.000176292)
(0.149361 -0.000136232 0.00107536)
(0.0642991 0.000257901 0.000639618)
(0.0392121 -0.000773454 -0.00315711)
(0.0262021 -0.000215131 0.000469022)
(0.126086 0.000249422 0.000697033)
(0.107451 -0.00127995 -0.00019423)
(0.132248 -0.000962153 0.00265579)
(0.0575082 0.00328459 0.000435194)
(0.149081 -0.000483746 6.74963e-05)
(0.0635184 0.00291525 -3.69444e-05)
(0.146858 -0.000990386 0.000120845)
(0.0325864 -6.14037e-05 0.00105565)
(0.0626868 0.000697807 -0.00053194)
(0.0455958 -0.00117906 0.000124306)
(0.115455 0.00275434 0.00330442)
(0.145423 9.14588e-05 0.000382569)
(0.0874768 -0.0025466 0.000327249)
(0.149683 0.000335752 -0.000414361)
(0.110024 -0.000335395 0.000824461)
(0.0220108 0.00258537 -0.00163359)
(0.132093 -0.00165131 -0.000546646)
(0.141198 -0.000108396 4.75727e-05)
(0.150479 -0.000445434 0.000215898)
(0.139518 0.000622569 0.000191053)
(0.0257809 -0.000517339 0.000174794)
(0.119457 -0.0015178 -0.000398121)
(0.0556437 0.00414543 0.00292375)
(0.0257746 -0.00399668 -0.000580625)
(0.141785 0.000575535 -0.00151222)
(0.0613593 -0.000998401 0.00069071)
(0.121933 0.000905221 -0.000110016)
(0.150178 -0.000962748 0.000884504)
(0.13752 0.000743459 0.000293221)
(0.14843 -0.000684287 0.000347413)
(0.0596618 0.00271504 -0.00262701)
(0.148079 -0.000556692 0.000470077)
(0.0618031 0.00258305 0.00152765)
(0.109631 0.000800807 -0.000266914)
(0.145752 0.000729891 0.00120197)
(0.0453782 -0.000144112 0.000921412)
(0.146319 -0.00170004 0.000630673)
(0.148241 0.000429673 -0.000696076)
(0.0312236 -0.000360154 0.00143003)
(0.0524454 0.0019535 -0.00247931)
(0.147766 -0.000771232 0.00130748)
(0.0599777 0.000358249 -0.00413154)
(0.151593 -0.000984169 0.000290787)
(0.148809 0.000715297 -0.000596835)
(0.147387 0.000210067 0.00118817)
(0.027935 -0.00249016 -0.00162561)
(0.0366371 0.0010141 -0.00206057)
(0.038861 0.000823441 -0.00135641)
(0.0698901 0.00028763 0.00103885)
(0.103259 -0.00202044 0.000726045)
(0.143709 9.10867e-05 0.00121591)
(0.0628397 -0.00154972 0.00158851)
(0.148957 4.77271e-05 0.00119068)
(0.0233309 0.00051647 0.00362321)
(0.0592264 -0.000140758 0.000636221)
(0.0284717 0.000399436 0.00302528)
(0.148884 0.000610015 0.000641818)
(0.101547 -0.000370086 -0.000695241)
(0.139647 -0.000281648 0.000577198)
(0.0717412 -2.77272e-05 -0.00171176)
(0.150962 -0.000559868 0.000937373)
(0.111411 0.000302223 0.000172015)
(0.150287 -0.00208791 0.00134817)
(0.137471 9.05294e-05 0.00079161)
(0.148363 0.00017072 0.00126284)
(0.139111 0.000303 -0.000180141)
(0.14115 0.000983496 0.00048899)
(0.146326 0.000226204 0.000447855)
(0.0609112 0.000403531 -0.00034718)
(0.143331 -0.00024986 0.0010455)
(0.047046 -0.000422655 -0.00270323)
(0.0656573 0.000400226 0.0021909)
(0.132222 0.00091277 -0.000443047)
(0.146606 -0.000929586 0.00115424)
(0.120694 0.00170917 0.00152024)
(0.150113 -0.00104029 0.00107038)
(0.105854 -0.000614827 0.00230066)
(0.0633454 0.00285341 -0.00161803)
(0.147204 0.000608731 -0.000349131)
(0.100747 0.000799206 0.000851678)
(0.0517985 -0.000744275 -0.000580274)
(0.0576122 -0.000292241 -0.00136478)
(0.10395 0.000435473 -0.00253097)
(0.147241 -0.000787085 -0.000409811)
(0.106262 -0.00200593 0.000337114)
(0.101135 -0.000933059 0.000968792)
(0.147824 -0.00164052 0.000682876)
(0.100109 -0.000702595 0.00300917)
(0.0243846 0.00307018 -0.00173508)
(0.148796 -0.000774417 0.0012053)
(0.0292594 0.00183623 -0.00245727)
(0.0455017 -0.00197631 0.00141583)
(0.146811 -0.000438968 0.00104982)
(0.137798 -0.000903494 0.000152233)
(0.0282393 0.00309369 0.00326509)
(0.126014 0.00091129 -0.000363889)
(0.130031 0.00197975 -5.62816e-05)
(0.148455 0.000751424 -0.000203166)
(0.148319 -0.000365033 0.000272725)
(0.0281523 0.00350961 0.00069028)
(0.147113 -0.00109645 0.00110324)
(0.146338 -0.00186076 -0.000159239)
(0.146971 -0.000451615 0.00111709)
(0.134071 -0.000848728 0.00117032)
(0.132624 0.00114348 0.00135821)
(0.102015 0.000171264 -0.000517168)
(0.152488 0.000674512 9.0654e-05)
(0.0316809 -0.00111187 -0.00170756)
(0.143648 -0.00210561 0.000304583)
(0.139731 -0.00118762 -0.000559788)
(0.148622 -0.0014864 0.000670701)
(0.144188 -0.00162537 0.000246201)
(0.121848 -0.000720425 6.31182e-05)
(0.066056 0.000454791 0.00151149)
(0.0261256 -0.000370102 0.00176268)
(0.0323632 -0.000856074 0.000646622)
(0.15197 -0.0017883 -2.42547e-05)
(0.0238551 -0.00147746 0.00374853)
(0.0695216 -0.000206076 -0.00136627)
(0.0571752 0.00322137 0.00123443)
(0.149027 -0.00109989 0.000358015)
(0.152761 0.000435159 -0.000555078)
(0.148113 -0.00079706 -3.42785e-06)
(0.0647002 -0.000541537 -0.00142211)
(0.107942 0.00119586 -0.00162496)
(0.0450788 -0.00383577 0.00293292)
(0.0600674 0.000960365 0.00170756)
(0.141739 -0.00130525 -2.64467e-05)
(0.105802 0.00172803 -0.00091591)
(0.107688 0.0125208 0.00364819)
(0.095697 -0.00180258 0.00121869)
(0.0485618 -0.000362365 -0.000749523)
(0.0705502 -0.00104252 0.00185984)
(0.11376 -0.000411377 -0.00125312)
(0.150399 -0.000126874 -3.07849e-06)
(0.151101 0.00111658 0.00040886)
(0.15019 0.000154512 0.00133288)
(0.149286 -0.00189046 0.00039486)
(0.0994388 0.00199806 0.00371888)
(0.127553 0.0014509 0.000159264)
(0.144997 0.00161031 -0.000171403)
(0.147371 0.000521505 0.000349782)
(0.148787 -0.00023891 0.000784762)
(0.0633567 0.00128507 -0.00314653)
(0.0255599 -0.0016074 -0.00302191)
(0.142967 8.59576e-05 0.000598068)
(0.0447179 -0.00195723 0.00236399)
(0.0366421 0.000310618 -2.85743e-05)
(0.145233 -0.000204926 0.00127934)
(0.141191 -0.000574536 0.000588877)
(0.0634952 -0.00181532 -0.00226363)
(0.148427 -0.000622677 0.000706047)
(0.149668 -0.00135758 8.77873e-05)
(0.149421 -0.000293444 -0.000911559)
(0.150377 0.000559858 -0.00040478)
(0.0365062 0.00155604 0.000340664)
(0.149293 0.000518124 -0.000423062)
(0.14772 -0.000743788 0.000592446)
(0.0637975 -0.000233841 0.000827212)
(0.148306 -0.000642181 0.00130326)
(0.148506 0.000390143 0.000355109)
(0.13245 1.13802e-05 -0.00125801)
(0.125188 -3.53161e-05 -0.000466808)
(0.141446 -0.000319775 0.000688315)
(0.14009 -0.00147905 0.000401487)
(0.0771543 -0.000773438 -0.000141942)
(0.0358076 0.00125977 -0.00106565)
(0.0392269 -0.0032591 8.20175e-05)
(0.102918 0.000336129 0.000851389)
(0.0865814 -0.0061629 0.0102612)
(0.0747936 -0.00409448 -0.0059238)
(0.0907694 0.000193275 3.45574e-05)
(0.119945 0.000217921 0.00165614)
(0.133396 0.000152023 0.000312015)
(0.145016 0.000368215 0.00173512)
(0.149583 0.00081716 0.000385266)
(0.134313 -0.000402308 -0.000214161)
(0.141656 0.000785853 0.000318782)
(0.140832 0.00141124 0.00025792)
(0.0364431 -0.00114136 -0.000411206)
(0.113683 -0.0220319 0.00284336)
(0.0649072 0.00202292 0.000828768)
(0.0467683 -0.00230092 -0.000820332)
(0.047135 0.00134587 0.00020495)
(0.147521 0.000681581 0.00048473)
(0.101493 -0.000163177 -4.81944e-06)
(0.148609 0.000493454 -0.000262048)
(0.0229906 0.00137394 -0.00194202)
(0.128829 -0.000289965 -0.00010758)
(0.0511201 0.00128761 -0.00103686)
(0.147955 -0.000997111 -0.000138748)
(0.0540111 -0.000934057 -0.000445247)
(0.0688706 -0.0011627 0.00123127)
(0.114287 -0.00214668 0.000880405)
(0.142463 0.000421341 0.00108616)
(0.0231831 0.00213466 -0.0024906)
(0.060677 -0.000565305 0.00302811)
(0.132656 0.000402038 0.00044418)
(0.0269341 -0.00171426 -0.00192669)
(0.129562 0.00108733 0.00573946)
(0.120211 -0.000483987 0.00205409)
(0.133086 0.000583059 -0.00124518)
(0.102066 0.00235547 -0.00176531)
(0.0956097 -0.00103431 0.00187601)
(0.15056 0.00138292 -0.000410059)
(0.0776549 -0.00745923 -0.00697122)
(0.150415 0.00190855 0.000526696)
(0.111118 0.00769778 0.00836045)
(0.0665619 -0.00199006 0.000390295)
(0.0696331 -0.000492352 -0.00173449)
(0.151222 0.000965282 0.000222125)
(0.153511 0.00162766 0.000320323)
(0.0586927 -0.000550391 0.000275014)
(0.136736 0.000828256 -0.000442026)
(0.105628 -0.00085776 -0.00210422)
(0.150331 -0.000817368 0.000509158)
(0.149818 -0.000680796 0.000799589)
(0.0513959 0.00139013 -0.00357782)
(0.133097 -0.000641778 -0.000251448)
(0.141899 -0.00133445 0.000784438)
(0.143714 0.000112646 -1.44842e-05)
(0.14804 3.26528e-05 7.71533e-05)
(0.0247806 -0.000686018 -0.00353373)
(0.024045 0.00135841 -0.00321936)
(0.128136 0.000431971 -0.00134019)
(0.150056 0.000241164 -5.02014e-05)
(0.150156 -0.000795049 -0.000954888)
(0.0400681 0.000445329 -0.00266719)
(0.146747 -0.00046659 0.000338855)
(0.114792 -0.00139554 0.000662889)
(0.14536 0.000879125 0.000815983)
(0.151948 0.00139178 -6.02189e-05)
(0.15105 0.000349531 -0.00028995)
(0.150367 0.00149671 0.000907427)
(0.150922 0.00178042 0.00093132)
(0.0976422 0.000415969 0.000158021)
(0.148976 0.00181438 0.000294019)
(0.0626317 -0.00114209 -0.00329675)
(0.148389 -0.000870767 -0.000266005)
(0.115382 0.00032106 -0.00130669)
(0.141988 0.00146158 0.000264025)
(0.148995 0.000289659 -0.000166634)
(0.144346 0.000299663 -0.000553259)
(0.139958 0.00127054 3.7581e-05)
(0.0456937 0.00266877 0.00228388)
(0.0383273 0.000926752 0.000652522)
(0.0248192 0.00225983 -0.00251747)
(0.142819 0.00241919 0.00380122)
(0.153597 5.3578e-05 6.23834e-05)
(0.135203 -0.000501388 0.000516895)
(0.129518 0.00205101 0.000666451)
(0.0351884 0.00025601 0.00127389)
(0.0272192 -0.000263789 0.00316816)
(0.119731 -6.66754e-05 0.00196944)
(0.141413 0.000116885 0.00119252)
(0.149499 0.000572323 0.000671911)
(0.147588 0.00116092 -0.000259027)
(0.137309 -0.000251365 -0.00134054)
(0.151 0.00131964 -0.000126529)
(0.135645 0.0010869 2.75673e-05)
(0.0303207 -0.000546509 0.00289514)
(0.126529 -0.000765713 0.000378428)
(0.0641856 0.000621443 0.00303634)
(0.0705973 -0.0068681 0.00147424)
(0.142687 7.58422e-05 -0.000745529)
(0.1026 -0.000706254 0.000856356)
(0.141511 0.000718222 -0.000278591)
(0.0238649 -0.0045024 -0.0018339)
(0.153366 0.00213757 9.97452e-05)
(0.151224 -4.65729e-05 1.02947e-05)
(0.148212 0.00158504 0.000400958)
(0.0999407 0.00114742 0.000283567)
(0.142186 0.000420665 0.000638578)
(0.147353 0.0010498 0.00063641)
(0.123068 0.000129908 0.000347265)
(0.147907 0.000602437 0.000289935)
(0.102636 0.00301974 -0.00203817)
(0.150179 -0.000429658 -6.74898e-05)
(0.14304 -0.00169968 -0.000872256)
(0.0235934 -0.00141561 0.0014276)
(0.150424 -0.000237077 -0.00109857)
(0.1191 0.00158915 -4.46235e-05)
(0.0517611 -0.00132594 0.00432284)
(0.0993513 0.00058309 -0.00140699)
(0.148181 0.000182403 -0.000821571)
(0.131152 -0.000120709 0.000273871)
(0.0923381 0.000333435 -0.00251704)
(0.0233388 -0.00207907 -0.00257808)
(0.150446 -0.000626329 -0.000770639)
(0.126705 0.00209255 -0.00121767)
(0.148336 -0.000332305 5.36496e-05)
(0.126945 0.000300614 0.000531166)
(0.0412732 0.00203186 0.00220801)
(0.13689 -1.79362e-06 -0.000778376)
(0.0280671 0.00233315 -0.00327933)
(0.146775 0.000233197 -9.51176e-05)
(0.102262 0.0114196 -0.00362716)
(0.148075 0.000205179 -0.000106646)
(0.058242 -0.000220219 0.00190885)
(0.113059 -0.000777605 -0.00197535)
(0.102546 0.000816988 -0.00166532)
(0.0392914 0.0025849 0.00203632)
(0.146672 0.000789347 0.000351566)
(0.144172 0.00137173 0.000262588)
(0.0253658 0.000763186 0.00233421)
(0.144374 -0.00170143 -8.23751e-05)
(0.146844 -0.00194877 0.000477358)
(0.0417869 -4.72789e-06 -0.00220247)
(0.0674209 0.00305748 0.000136447)
(0.0589167 0.00204352 0.00180215)
(0.143214 0.00113411 0.000614784)
(0.147524 -0.00110136 0.000152608)
(0.034326 -0.000724718 0.00151237)
(0.0601894 -0.00196182 -0.00122804)
(0.0626881 0.00106331 -0.000151114)
(0.119156 0.00143549 3.2656e-05)
(0.147486 -0.0012316 0.000304364)
(0.0261266 0.00139203 -0.00379248)
(0.148581 -0.00127266 0.000758397)
(0.144755 0.000865491 -5.37185e-05)
(0.148092 0.000940748 0.000696725)
(0.0900985 0.00386795 -0.00372129)
(0.15237 0.00081256 0.000109583)
(0.0257665 -0.000301338 -0.00304845)
(0.1496 -0.00119841 -0.00015694)
(0.0307524 -0.000589292 -0.000140331)
(0.0647106 -0.00240291 -8.63467e-05)
(0.144853 -0.000225753 0.000142831)
(0.0661419 -0.00192371 -0.000625864)
(0.023595 0.00284316 0.00242024)
(0.0418935 0.000877 -0.00123494)
(0.0507954 -0.00257659 0.00116047)
(0.0650275 0.00134566 -0.00178733)
(0.143065 -0.000664977 -0.000287362)
(0.0554418 -0.00136735 -0.00036964)
(0.0653763 0.00223213 -0.00124293)
(0.127184 -0.00585644 -0.0122847)
(0.145416 0.00131847 0.00031881)
(0.0270846 0.00196159 0.000180609)
(0.112137 -2.06031e-05 -0.00116979)
(0.081609 0.00851493 -0.00299115)
(0.149433 -0.00155875 -0.000291113)
(0.0647291 -8.43203e-05 -0.00146674)
(0.144263 0.00160067 0.000146424)
(0.0635838 -0.00272803 -0.0014034)
(0.124389 0.000517138 0.000779874)
(0.148742 0.00126473 -0.00025996)
(0.0566065 0.00296079 -0.00505719)
(0.151413 0.000305278 0.000133742)
(0.0490016 0.00163268 0.00232884)
(0.0221371 0.00349329 0.00118429)
(0.139767 0.000274584 0.000790167)
(0.147783 0.0013053 0.000115793)
(0.130513 0.000823421 -0.000310908)
(0.127341 0.00207265 -0.000435349)
(0.149776 -0.00166901 0.000279727)
(0.0662832 0.00136516 -0.000261304)
(0.149233 -0.00168641 0.000157435)
(0.0629406 -0.00194245 0.00266549)
(0.148788 0.00130061 -0.000150196)
(0.128116 -0.0012224 -0.000932067)
(0.0315478 0.000874586 -0.00477164)
(0.147072 -0.00027294 -0.000614442)
(0.0581402 0.000614991 0.00195759)
(0.0298798 -0.00241067 -0.00199781)
(0.146266 -1.54736e-05 5.94925e-05)
(0.0475532 -0.00121312 0.00124409)
(0.134855 0.000522385 0.000453157)
(0.146294 0.00046409 0.000466801)
(0.130477 0.00110839 0.00111498)
(0.0595514 -0.00319293 -0.00255427)
(0.153083 0.00106653 6.41156e-05)
(0.096781 -0.000930076 0.000941374)
(0.153857 -7.61177e-05 0.00106685)
(0.152062 0.000706478 -0.000387415)
(0.1524 0.000997563 0.000378713)
(0.148071 0.00109221 0.000174505)
(0.0489233 -0.00254881 -0.00235891)
(0.0562613 -4.88023e-05 -0.000820593)
(0.150648 0.00113846 -0.000291769)
(0.147967 0.00140739 0.000542657)
(0.0357423 -0.00259357 -0.00117757)
(0.145989 0.000585499 -0.000462368)
(0.154234 -5.92013e-05 0.00104813)
(0.151756 -0.00149066 -0.000556584)
(0.151354 -0.00153318 -0.000469381)
(0.121736 -0.00058261 -0.000902298)
(0.0242548 0.00239514 0.00202566)
(0.153786 0.000265523 0.000718796)
(0.10485 -0.000685538 -0.00184956)
(0.139602 -0.000648237 0.000508554)
(0.101628 -8.64115e-05 -6.80088e-07)
(0.0330033 0.00236411 -9.60718e-05)
(0.146673 0.00145754 -0.000150773)
(0.0972014 0.00224836 0.00173732)
(0.135257 -0.000720583 -0.000169951)
(0.150249 -0.00172032 -0.000374269)
(0.137544 -0.000913541 -0.000436323)
(0.0195309 0.00171067 -0.00237754)
(0.0252486 -0.00160824 -0.00257149)
(0.14554 -0.00182759 -0.000171865)
(0.143782 0.000260735 0.000322894)
(0.149901 0.00135382 0.000695775)
(0.139705 0.000981618 0.000183067)
(0.0977298 -0.0012092 0.000946402)
(0.142427 -0.0014513 -0.00034659)
(0.149949 0.000277112 -0.000268891)
(0.0228019 0.00198441 0.000426803)
(0.14548 -0.00185356 -7.31485e-05)
(0.134007 -0.0116504 0.000218796)
(0.0420418 -0.00131408 0.00223921)
(0.0591528 -0.00395985 0.000849631)
(0.142215 -0.000759224 -0.00107472)
(0.139472 -0.00132851 0.000182119)
(0.136518 0.000778593 -0.000744468)
(0.128203 -0.00033368 0.000359912)
(0.111156 -0.00357105 0.000849815)
(0.15055 0.000266125 -0.000171263)
(0.103594 0.00142625 -0.0023125)
(0.153601 0.00147354 -8.37995e-05)
(0.147023 -0.000899616 -0.000464222)
(0.15166 -0.00194515 0.00130892)
(0.147381 -0.00150949 -6.87002e-05)
(0.0444616 -0.00057525 0.00206802)
(0.149019 -0.00100735 0.000226613)
(0.0362202 0.000751708 -0.00172845)
(0.0944061 -0.00904124 0.00537081)
(0.0653047 0.00158355 0.00154575)
(0.126164 -0.00189747 -0.0113306)
(0.132116 -0.00108218 0.000208201)
(0.117406 -0.0181575 -0.00386457)
(0.14682 -3.73189e-05 -9.01635e-05)
(0.153894 0.000208173 0.000317798)
(0.144719 0.000391307 -1.93799e-05)
(0.147348 8.44451e-05 0.00116715)
(0.0379402 0.000154767 -0.000938555)
(0.100939 -0.00388433 -0.00260497)
(0.11228 -0.00189185 -0.0159037)
(0.147805 6.38754e-05 0.000197817)
(0.117473 -0.00271727 -0.000405384)
(0.135581 -0.0102718 -0.00331161)
(0.145627 -0.000444132 0.00206471)
(0.116482 0.000763126 0.000309475)
(0.0389632 -0.0010031 0.00149276)
(0.0588294 -0.00257684 0.00205157)
(0.0267555 0.000344318 -0.000654128)
(0.026475 0.000216758 -0.00199315)
(0.0383281 -0.000151861 0.00017204)
(0.134072 -0.00516855 0.00396646)
(0.135923 0.00050963 0.000369209)
(0.0267124 -0.00101832 0.00371905)
(0.0251887 0.00193564 0.00288952)
(0.149205 0.000960765 -6.81435e-05)
(0.0962067 -0.0122511 0.0083602)
(0.0406766 0.00193766 0.000852778)
(0.14245 0.00020824 0.00011177)
(0.111853 -0.00101345 -0.00168786)
(0.134089 -4.37954e-05 0.00106132)
(0.0459106 0.0025585 -0.00164216)
(0.0583148 0.00135742 -0.00051782)
(0.116256 -0.000899573 0.000249765)
(0.147645 0.000387011 -7.45677e-05)
(0.143548 0.000561281 -0.000431089)
(0.0401405 0.0034742 -0.00160511)
(0.0261769 -0.00206582 0.00138524)
(0.10623 -0.0151874 -0.0111891)
(0.0284023 -0.00401973 -0.000187156)
(0.134161 -0.00107172 -0.00128802)
(0.030112 0.00196434 -0.00426858)
(0.111165 -0.000664089 0.00247967)
(0.147983 -0.000315129 -0.000138541)
(0.155164 -0.00103245 0.000709851)
(0.0480533 0.000713145 -0.00156707)
(0.104007 -0.000640069 -0.00110838)
(0.0385649 0.00144291 -0.00135472)
(0.0308435 0.00374985 -0.00133476)
(0.148156 -0.000138409 -0.00083886)
(0.021441 -0.00186336 -0.00292589)
(0.145827 -0.00189355 0.000189752)
(0.0520134 0.000450374 -0.00256696)
(0.144833 -0.000656618 -4.24495e-05)
(0.13835 -0.000203269 3.92816e-06)
(0.0241339 -0.000676472 0.00401219)
(0.0618117 -0.00296714 0.000224146)
(0.140897 0.000309648 0.000232414)
(0.0369939 -0.00203446 -0.000225103)
(0.142809 -0.00067073 -0.000187377)
(0.0587165 -0.0024468 0.00374458)
(0.114271 0.000352857 -0.000259809)
(0.149211 -2.58064e-05 -0.00112141)
(0.0400913 0.00149598 0.00114064)
(0.0258194 0.00123604 -0.00372918)
(0.0549588 0.000626241 -0.00018409)
(0.110619 0.0174239 0.00377448)
(0.111667 0.000387124 -0.000156159)
(0.0607482 -0.00229482 0.0030614)
(0.0922547 0.00012884 0.00153231)
(0.0334177 -0.00137594 0.000825279)
(0.149 0.000108926 -0.00114812)
(0.0249954 -0.000260965 -0.00137781)
(0.151542 -0.00187118 0.000182179)
(0.142079 -0.000925338 0.000264181)
(0.148947 -0.000479111 0.000240966)
(0.0213882 0.00232029 0.000203919)
(0.144744 -0.00128348 0.00031921)
(0.0895152 0.000345579 -0.000367799)
(0.147045 0.00067713 0.000549816)
(0.0586284 -0.000199291 -0.000174979)
(0.108028 -0.0130543 0.00675387)
(0.148753 -0.00153404 0.000145814)
(0.0439158 0.00104827 -0.000780216)
(0.149781 -3.72266e-05 -5.37617e-05)
(0.108823 0.00205061 -0.0204586)
(0.121448 0.000295483 -0.000340855)
(0.0357607 0.000778281 -0.00219446)
(0.0558218 -0.000515468 -0.00266208)
(0.148894 -7.59938e-05 0.000327679)
(0.133693 0.00134443 -0.000268325)
(0.0351489 0.00167576 0.000472634)
(0.114712 0.0010718 -0.000909174)
(0.0652248 -0.00148646 -0.00204907)
(0.0274979 -0.00261274 0.00157502)
(0.149381 8.97855e-05 9.53895e-05)
(0.103257 -0.00131261 0.010287)
(0.133615 0.00166412 -0.00202241)
(0.148883 -0.000103203 0.000288086)
(0.14916 7.57069e-05 0.000629274)
(0.146935 -2.12848e-05 -0.000598682)
(0.13483 0.000641912 0.00124255)
(0.0475629 0.00163752 0.000581998)
(0.0433593 -0.00248595 -0.00229602)
(0.152886 0.00165624 3.11113e-05)
(0.107466 -0.00940108 0.00891085)
(0.125184 -0.00084456 0.000434071)
(0.131441 -0.00099514 6.16763e-05)
(0.0872823 0.00181743 0.000710439)
(0.143056 0.000138231 8.41983e-05)
(0.147206 0.000634348 -0.000290413)
(0.105164 -0.000883224 -0.00193429)
(0.109726 0.00228024 -7.52853e-05)
(0.0415213 0.000164178 -0.00269138)
(0.076901 0.00111684 -0.000860168)
(0.0486295 -0.00198526 -0.00474752)
(0.143142 0.000381461 0.000726133)
(0.150222 -0.000606581 0.000787073)
(0.100522 0.00118756 -0.00255652)
(0.104286 0.000684458 -0.000587113)
(0.0229269 0.00257233 -0.000579842)
(0.0854829 -0.000313368 -0.000472575)
(0.0632341 -0.00253798 -0.00285008)
(0.149174 8.04666e-05 -0.000890933)
(0.149528 -0.00045961 -0.000953409)
(0.104757 -0.0096537 0.0061615)
(0.145045 -0.000196332 0.0012343)
(0.0883882 -0.00276482 -0.00157965)
(0.101683 -0.00255204 0.0080167)
(0.133301 0.000250815 0.00184763)
(0.0298258 -0.00252439 -0.000277045)
(0.149389 -9.70266e-05 -0.000991423)
(0.0541009 0.00185456 8.26777e-05)
(0.136056 -0.000327743 0.000822889)
(0.0314744 0.00454763 -2.19372e-05)
(0.150711 0.00156485 -0.000834307)
(0.101625 -0.00444478 0.00277314)
(0.145635 2.8981e-05 -0.000256735)
(0.121193 0.00103638 0.000162982)
(0.139808 1.0768e-05 -0.000115481)
(0.144088 0.000244829 0.00010891)
(0.149033 -0.000614105 -0.000650754)
(0.0374334 -0.00217901 9.51878e-05)
(0.0524618 0.000743406 -0.00111877)
(0.0317445 -0.000882207 -0.000387341)
(0.147968 -1.68576e-05 0.000558852)
(0.14373 4.9027e-05 -0.000935445)
(0.134147 0.00149226 -0.000759379)
(0.149181 0.000163417 0.00051072)
(0.0236398 0.000454493 0.000611368)
(0.10399 0.000141637 -0.000193623)
(0.0954888 0.000816322 -0.00160452)
(0.148873 -0.000239304 0.000370112)
(0.128631 -0.000967863 -0.00050619)
(0.138726 -0.000336376 1.91102e-05)
(0.110453 -0.000253247 0.00162491)
(0.148513 1.23802e-05 0.000609341)
(0.022922 -0.00285585 -0.00303624)
(0.0919461 -0.00343039 0.000636572)
(0.141613 3.36064e-05 0.000386301)
(0.0289397 -0.00245114 0.0019829)
(0.0476112 -0.000872106 -0.00202827)
(0.0665479 -0.00118115 0.000600823)
(0.024411 0.00164036 -0.00269815)
(0.100686 0.000512079 -0.00119494)
(0.147623 0.00130884 -0.000166468)
(0.0654717 -0.0017652 -0.00174068)
(0.021567 -0.00291025 -0.00203264)
(0.111506 0.000260104 -0.000776922)
(0.0279808 0.000372523 0.000470453)
(0.104563 0.00147882 -0.000545122)
(0.147713 0.000119886 -0.000236742)
(0.148642 4.28103e-05 -0.000286138)
(0.148174 0.000403898 -0.000528704)
(0.148626 0.00168842 -0.000621707)
(0.147665 0.000209842 -0.000339591)
(0.133018 0.000465768 0.00127329)
(0.0517574 0.001272 -0.0013428)
(0.148015 0.00066873 0.000604892)
(0.128016 -4.24862e-05 0.000850143)
(0.0942223 0.000811111 -0.0014466)
(0.100281 -0.000551005 0.0017409)
(0.145735 2.11332e-05 -0.000350415)
(0.120291 -0.00144423 -0.000174454)
(0.0714361 -0.000121991 0.00205817)
(0.145319 -0.000918418 0.000734543)
(0.0363848 0.00116226 0.000552859)
(0.0938576 -0.000147489 0.00112494)
(0.10194 -0.00011901 8.01723e-05)
(0.0664463 0.000308069 0.00126849)
(0.147281 -5.92766e-05 9.80973e-05)
(0.105887 -0.0122848 0.013411)
(0.126715 0.00583256 0.00406604)
(0.0363325 0.00058803 -0.00294095)
(0.0297395 -0.00170445 0.00101699)
(0.0607821 0.00239073 -0.001013)
(0.0226894 -0.00170516 -0.00173696)
(0.128028 0.000440918 -0.000253863)
(0.140502 0.00181694 -0.000294553)
(0.130451 0.00140714 -0.000117804)
(0.110547 0.00941754 -0.0106178)
(0.129992 0.000812648 0.000124458)
(0.137311 0.00165934 -8.37559e-05)
(0.0280746 -0.00180987 0.00570037)
(0.141522 0.00161277 -3.3993e-05)
(0.125986 -0.00311235 0.0116003)
(0.0480571 0.00100419 -0.0013327)
(0.024899 -0.00430662 0.00095971)
(0.118794 4.52952e-05 0.00129517)
(0.116335 -0.000737379 -0.000850116)
(0.028787 -0.00205531 0.00326908)
(0.149153 -0.00127173 -0.000245126)
(0.0262008 -0.00328457 0.00218093)
(0.149008 -0.000715848 -0.000534133)