/*--------------------------------*- C++ -*----------------------------------*\
| =========                 |                                                 |
| \\      /  F ield         | OpenFOAM: The Open Source CFD Toolbox           |
|  \\    /   O peration     | Version:  2406                                  |
|   \\  /    A nd           | Website:  www.openfoam.com                      |
|    \\/     M anipulation  |                                                 |
\*---------------------------------------------------------------------------*/
FoamFile
{
    version     2.0;
    format      ascii;
    arch        "LSB;label=32;scalar=64";
    class       volVectorField;
    location    "24";
    object      U:Transformed;
}
// * * * * * * * * * * * * * * * * * * * * * * * * * * * * * * * * * * * * * //

dimensions      [0 1 -1 0 0 0 0];

internalField   nonuniform List<vector> 
59516
(
(0.000503892 -0.000368847 0.112835)
(0.000104455 -2.59945e-05 0.103516)
(-0.00013334 0.00175075 0.118077)
(-0.00277762 0.000795376 0.128907)
(-0.00427896 6.93552e-05 0.113854)
(-0.0104112 0.00556359 0.101086)
(-0.000261309 -0.0014853 0.132289)
(0.00026812 -0.001003 0.108955)
(-0.000701531 -0.000789942 0.117606)
(0.00272518 0.00123563 0.0615772)
(-0.000533155 -0.000848227 0.14387)
(-0.00215845 -0.00259285 0.0663059)
(-0.00123821 -0.000244698 0.124431)
(0.000164871 -0.000213267 0.023469)
(-6.27581e-05 -0.00352277 0.0682097)
(-0.00157043 0.00462178 0.0574844)
(0.000381055 -0.000146356 0.150923)
(-0.00479805 -0.00171397 0.0713549)
(-0.00323442 -0.00130332 0.11768)
(-0.00063451 0.00062835 0.150336)
(-0.000574475 0.000495901 0.0586483)
(0.000449344 -0.000474214 0.144374)
(0.000219188 -0.000530121 0.147977)
(0.00128917 0.000479669 0.0384638)
(0.000692242 0.00154303 0.151819)
(-0.00103922 0.00182463 0.0719009)
(-0.000481712 0.00264668 0.0476606)
(-0.00292337 -0.00182539 0.0469992)
(-0.00132981 -0.00090631 0.0708181)
(0.00257301 0.0021812 0.0205801)
(-0.0212143 0.00127226 0.108222)
(-0.00243855 0.00214942 0.048244)
(-0.000770343 -0.000673863 0.132909)
(-0.00302732 -0.00101458 0.116014)
(-0.0019119 -0.000690452 0.135947)
(0.000484132 0.0001924 0.142594)
(-0.00333707 0.00137574 0.0196048)
(-0.00645884 -0.00236076 0.0711888)
(-0.00215222 0.000571538 0.101626)
(0.00245277 -0.00130627 0.147611)
(9.41948e-05 -0.000942227 0.108085)
(-0.00682958 -0.000275 0.141383)
(0.000172347 0.00017911 0.144845)
(-0.00145282 0.00113401 0.11425)
(-0.00056042 0.000659088 0.142763)
(0.00235833 0.000321186 0.061187)
(-0.0014345 -0.000573359 0.133804)
(-0.000192871 0.00010886 0.150469)
(-0.0151527 0.00156534 0.111635)
(-0.00374949 -0.00029451 0.142898)
(-0.0179727 0.00050561 0.103996)
(-0.00428555 -0.00206986 0.0492863)
(0.000186547 -0.00177936 0.124768)
(-0.000395454 -0.000374192 0.130306)
(-0.00266908 0.000681665 0.0521929)
(0.000171985 0.000355198 0.131466)
(-0.00861727 -0.0001713 0.139198)
(-0.00533181 -0.00149451 0.0543037)
(0.00108711 0.00110319 0.149833)
(-0.006284 -0.000165584 0.132827)
(0.000380707 0.000483575 0.142795)
(-0.00183668 0.00224107 0.0217086)
(0.00104301 -0.00043857 0.145329)
(0.000247232 0.000506028 0.146969)
(-0.00108677 -3.4672e-05 0.129221)
(-0.00179554 0.000308523 0.14026)
(0.000296406 0.00350081 0.0310421)
(-0.000301398 0.000300886 0.0460745)
(-0.022324 0.000640079 0.120866)
(0.000511039 -0.00132 0.136143)
(-0.00088619 -0.00106851 0.0424899)
(-0.000489222 0.000258245 0.14737)
(0.00433602 -0.00191948 0.026474)
(0.000895936 0.000180212 0.139237)
(-0.0011385 0.000578199 0.151754)
(0.000552666 -0.000251493 0.149225)
(0.000335148 -0.0004223 0.150417)
(-0.000806564 -0.000118398 0.141926)
(0.00237868 0.00134176 0.0514482)
(-0.00346487 0.000831615 0.142187)
(-0.00363958 8.45758e-06 0.0438639)
(-0.00258537 0.000513633 0.139636)
(-0.00215639 0.000486954 0.136166)
(-0.00320655 0.00177695 0.0234175)
(-0.00245843 0.000630154 0.139995)
(-0.000715164 0.000505526 0.150624)
(0.000693555 0.00149348 0.0371291)
(0.000161621 0.00056052 0.14524)
(-0.00329041 -0.00178778 0.0600226)
(-0.00849061 -0.00280897 0.108334)
(-0.00938878 -0.000424481 0.129952)
(-0.00141129 0.000802763 0.132879)
(0.000490137 -0.000209903 0.150283)
(0.000167953 0.000450816 0.132577)
(0.000133173 -0.000531597 0.14262)
(-0.011144 0.000233322 0.109912)
(-0.00137322 -0.00126613 0.137141)
(0.0021221 0.00432036 0.0589666)
(-0.00150042 -0.00113827 0.0685687)
(0.00122137 0.000542581 0.142026)
(-0.00147575 0.00119163 0.0421019)
(0.00325568 0.00151709 0.0283451)
(0.0034865 0.00197336 0.0268703)
(-0.00201919 0.00228178 0.0613603)
(0.000468334 -0.000374042 0.13496)
(-0.000555448 0.000708373 0.137526)
(0.00232621 -0.00398469 0.0461592)
(-0.000501376 -0.00035315 0.112553)
(-0.000915854 0.000283014 0.107788)
(-0.0018383 0.00276222 0.0728581)
(-0.0173027 -0.000455495 0.124288)
(0.00295676 -0.00262755 0.0354751)
(-0.00262758 0.00308156 0.0733112)
(-0.0183701 -0.000134514 0.117772)
(-0.000517612 0.000280475 0.147868)
(0.000430605 -0.00118915 0.107802)
(-0.0024389 -0.00131647 0.0600287)
(-0.00107062 -0.000147015 0.132862)
(-0.000278256 -0.00109712 0.0250061)
(-0.000981687 0.00133884 0.140902)
(-0.000107844 -0.000214487 0.151352)
(0.000913967 0.000427094 0.148438)
(-0.000162399 -0.00014266 0.148588)
(0.0002798 0.000502921 0.146945)
(-0.0153334 0.00150757 0.13139)
(-0.00191039 -0.0001014 0.0939782)
(-0.00220703 -0.000862569 0.0344762)
(-0.00962248 0.00215422 0.137036)
(-0.0128785 0.00311118 0.0898805)
(0.000743222 0.00035758 0.149932)
(0.00134936 -0.000792166 0.149683)
(0.00124533 0.00176161 0.11961)
(-0.000667787 -0.00240271 0.0266778)
(0.000405461 0.000550397 0.144504)
(0.000658937 0.00037603 0.109854)
(-0.00118155 0.00145955 0.122125)
(-0.0145274 0.00135703 0.107844)
(0.000628863 0.000750454 0.133789)
(-0.000439886 0.00296738 0.0449401)
(-0.00144595 0.000829807 0.106515)
(-0.00122528 0.00251343 0.0495966)
(0.000241537 0.000209851 0.15095)
(-0.000988454 -0.00186602 0.0212463)
(-0.000626319 0.00102141 0.128505)
(-0.000280357 0.000322814 0.148082)
(-0.00118262 0.000729933 0.138395)
(-0.00076352 0.000828564 0.14064)
(-0.00161207 0.00135915 0.123446)
(0.00100081 -0.00176429 0.0621399)
(-0.000177262 0.000899084 0.113701)
(-0.000309293 -0.000723424 0.111909)
(5.82585e-05 0.00154021 0.0405111)
(0.00114758 0.000675764 0.150637)
(0.00110537 -0.000175466 0.145885)
(-0.000229691 -0.00174262 0.0982525)
(-0.00226027 0.00122963 0.0216868)
(0.000480649 -0.000247484 0.119877)
(-0.000839064 0.00044209 0.120767)
(-0.00121409 0.000670911 0.0913631)
(-0.00340089 -0.00245965 0.0226012)
(0.00277901 0.00216579 0.0720201)
(0.00370971 -0.00178111 0.0743502)
(-0.000830917 0.00154437 0.0400757)
(-0.000461562 -0.000574075 0.0294661)
(0.00258259 0.00043557 0.10711)
(-0.000933362 0.000346741 0.151921)
(0.000788358 9.15461e-05 0.0673358)
(-0.000289446 -0.000456466 0.149623)
(0.00131467 0.00271048 0.0230529)
(-0.000563287 -0.000219938 0.130717)
(-0.00145373 -0.00126134 0.0919945)
(-0.00096332 0.000730802 0.0583507)
(-1.34529e-05 -0.00194554 0.0711061)
(0.000573742 -0.000939255 0.135592)
(0.000594198 0.000881197 0.0560916)
(-0.00141113 -0.00130668 0.135648)
(-0.000893272 -0.00017884 0.148021)
(-0.00100626 0.000402709 0.146363)
(0.00104364 -0.00359285 0.0740096)
(0.000470336 0.000352383 0.0458251)
(-0.00037732 -0.00181634 0.141497)
(0.00128036 0.00333963 0.0376532)
(-0.00150685 -0.00237852 0.0330192)
(0.000337964 0.00202047 0.0710198)
(0.000506616 -0.000958277 0.149361)
(-0.000356596 0.000590308 0.0642991)
(-0.0031658 0.000737082 0.0392121)
(8.66185e-06 0.000515934 0.0262021)
(-0.000267935 -0.000690128 0.126086)
(0.00109184 0.000695632 0.107451)
(-0.00275048 -0.000643314 0.132248)
(-0.000568165 -0.00326422 0.0575082)
(-0.00047389 -0.000118298 0.149081)
(0.00215818 -0.00196017 0.0635184)
(-0.000181153 0.000981148 0.146858)
(0.000736837 0.00075845 0.0325864)
(0.000852646 -0.000207098 0.0626868)
(0.000486286 -0.00108128 0.0455958)
(-0.00430166 -3.60647e-05 0.115455)
(0.000203208 0.000336794 0.145423)
(-0.00156207 -0.0020377 0.0874768)
(0.000515473 0.000136793 0.149683)
(0.000433742 0.000777235 0.110024)
(0.00206061 -0.00225979 0.0220108)
(0.00130679 0.00114803 0.132093)
(0.000115018 -2.79953e-05 0.141198)
(0.000339922 0.000359828 0.150479)
(-0.000485993 0.00043348 0.139518)
(0.000143709 -0.000526821 0.0257809)
(0.00117493 0.00104007 0.119457)
(9.34243e-06 0.00507275 0.0556437)
(-0.00393981 0.000887979 0.0257746)
(-0.00130259 0.000959837 0.141785)
(-0.000235033 0.00119107 0.0613593)
(-0.000658735 -0.000630554 0.121933)
(-0.00127259 -0.000299574 0.150178)
(-0.000768749 0.000218483 0.13752)
(-0.00053355 0.000551606 0.14843)
(-0.00229054 0.00300434 0.0596618)
(0.000614595 0.000391346 0.148079)
(-0.00157203 -0.00255629 0.0618031)
(-0.000188403 0.000822824 0.109631)
(-0.000819336 -0.00114288 0.145752)
(0.000461395 -0.000810483 0.0453782)
(-0.00163083 -0.000792635 0.146319)
(0.000220132 0.000787834 0.148241)
(-0.000981387 -0.00110072 0.0312236)
(-0.00311866 0.000486958 0.0524454)
(-0.00124771 0.0008646 0.147766)
(-0.0022201 0.00350273 0.0599777)
(0.000421915 0.000935486 0.151593)
(-0.000854133 0.000371912 0.148809)
(-0.000638672 -0.00102371 0.147387)
(-0.00161729 -0.00249558 0.027935)
(-0.0017956 -0.00143183 0.0366371)
(-0.00158061 0.000139917 0.038861)
(0.000939209 -0.00052899 0.0698901)
(-0.00202592 -0.000710608 0.103259)
(-0.00114088 -0.000430284 0.143709)
(0.00221442 -0.000146032 0.0628397)
(0.00117765 0.000182028 0.148957)
(0.00302978 0.002053 0.0233309)
(0.000404613 0.000510763 0.0592264)
(0.00271311 0.00139674 0.0284717)
(0.000688444 0.000556861 0.148884)
(-4.89172e-05 -0.000786086 0.101547)
(-0.000576013 -0.000284064 0.139647)
(0.000218986 0.00169792 0.0717412)
(0.000763086 0.000780909 0.150962)
(-0.000347556 -1.15068e-05 0.111411)
(0.00219914 -0.0011579 0.150287)
(-0.000768096 0.000211827 0.137471)
(0.00101596 0.000769232 0.148363)
(-1.89185e-05 0.000351997 0.139111)
(-0.00033511 0.00104598 0.14115)
(-0.0002108 0.000455309 0.146326)
(-0.000479393 -0.000231416 0.0609112)
(-0.000924409 -0.0005486 0.143331)
(0.00140437 0.00234816 0.047046)
(-0.000404336 0.00219014 0.0656573)
(-0.00101215 7.06217e-05 0.132222)
(-0.000641955 0.00133578 0.146606)
(0.00203265 0.00104915 0.120694)
(-0.000444951 0.00142476 0.150113)
(0.00224791 0.000786101 0.105854)
(0.000236681 -0.00327169 0.0633454)
(0.000434169 -0.000551311 0.147204)
(0.000945819 0.000685209 0.100747)
(-0.000567132 -0.000754337 0.0517985)
(7.34991e-05 0.00139378 0.0576122)
(-0.00165878 0.00196059 0.10395)
(-0.00067741 -0.000573205 0.147241)
(-0.00102127 0.00175909 0.106262)
(-0.000288987 0.00131364 0.101135)
(-0.00152556 0.000911205 0.147824)
(9.19727e-05 0.00308874 0.100109)
(-0.00149082 -0.00319593 0.0243846)
(0.000213179 0.00141669 0.148796)
(0.00242626 -0.00187701 0.0292594)
(0.00219635 0.00104231 0.0455017)
(-0.000419607 -0.00105771 0.146811)
(9.72808e-05 0.00091105 0.137798)
(-0.00404259 0.0019721 0.0282393)
(-0.000822703 -0.000534812 0.126014)
(-0.00107039 -0.00166639 0.130031)
(0.000670537 0.000395341 0.148455)
(0.000134814 -0.000435262 0.148319)
(0.00252729 -0.00253114 0.0281523)
(-0.00155435 5.76065e-05 0.147113)
(-0.00070789 -0.0017282 0.146338)
(-3.4107e-05 -0.00120445 0.146971)
(-0.000754569 -0.00123313 0.134071)
(-0.00168445 0.000561153 0.132624)
(-0.000544788 -9.75904e-07 0.102015)
(3.00146e-05 -0.000679915 0.152488)
(-0.00017293 0.0020303 0.0316809)
(0.00130137 -0.00168309 0.143648)
(0.00107797 0.000749521 0.139731)
(-0.00057587 -0.00152564 0.148622)
(0.000161253 -0.00163598 0.144188)
(0.000715574 -0.000104642 0.121848)
(0.0013421 -0.000830785 0.066056)
(-0.000783622 -0.00162171 0.0261256)
(0.000939497 0.000518004 0.0323632)
(-0.00110032 0.00140992 0.15197)
(-0.00372064 0.00154637 0.0238551)
(-0.000840643 -0.00109658 0.0695216)
(-0.00104846 0.0032866 0.0571752)
(0.00111033 -0.000324191 0.149027)
(8.31734e-05 -0.000700398 0.152761)
(0.000613084 0.000509358 0.148113)
(0.00149351 0.000291701 0.0647002)
(0.00201453 0.000110548 0.107942)
(-6.84998e-05 0.00482809 0.0450788)
(0.000950798 -0.0017129 0.0600674)
(0.000437332 -0.00123009 0.141739)
(0.00102002 -0.00166869 0.105802)
(-0.012937 -0.00164747 0.107688)
(-6.6777e-05 -0.00217487 0.095697)
(-0.000828822 -7.83997e-05 0.0485618)
(0.00213205 1.42044e-05 0.0705502)
(-0.00021688 -0.00130097 0.11376)
(-4.36217e-05 0.000119179 0.150399)
(-0.00118612 8.38274e-05 0.151101)
(-0.000866807 0.00102425 0.15019)
(7.76288e-05 0.0019297 0.149286)
(-0.00403394 -0.00124486 0.0994388)
(-0.00119382 0.000839801 0.127553)
(-0.000530606 0.00153001 0.144997)
(-0.000332545 -0.000532661 0.147371)
(0.000782596 -0.000245911 0.148787)
(-0.00251634 -0.00228474 0.0633567)
(0.00318575 -0.00125166 0.0255599)
(7.9287e-05 -0.000598989 0.142967)
(0.00130322 0.00277863 0.0447179)
(-6.49919e-05 -0.000305084 0.0366421)
(-0.00114264 -0.000610796 0.145233)
(0.000658752 0.000492863 0.141191)
(-0.00112779 0.00267348 0.0634952)
(-0.000759759 -0.000555872 0.148427)
(0.000107874 0.00135614 0.149668)
(-0.000839695 -0.000460393 0.149421)
(0.000388307 -0.000571407 0.150377)
(0.000188987 -0.00158164 0.0365062)
(0.000354315 -0.000567358 0.149293)
(-0.000928932 0.00020322 0.14772)
(-4.24562e-05 0.00085858 0.0637975)
(0.000418317 -0.00139136 0.148306)
(0.000334508 0.000407945 0.148506)
(0.000999284 0.000764305 0.13245)
(0.000375807 0.000279152 0.125188)
(-0.000273203 -0.000708092 0.141446)
(0.000760645 0.00133049 0.14009)
(-0.00060442 0.000503022 0.0771543)
(-0.000549041 0.00155602 0.0358076)
(0.000739804 0.00317508 0.0392269)
(0.000306301 0.000862569 0.102918)
(-0.0119667 0.000268276 0.0865814)
(-0.00716238 0.000746018 0.0747936)
(3.3578e-05 -0.000193448 0.0907694)
(0.00116801 -0.00119417 0.119945)
(-0.000186592 0.000292656 0.133396)
(-0.00144056 0.0010349 0.145016)
(0.000733667 -0.000527174 0.149583)
(-0.000239253 -0.000387912 0.134313)
(-0.00079425 -0.000297241 0.141656)
(-0.00142868 0.000130391 0.140832)
(-0.00052993 0.00109131 0.0364431)
(-0.0221949 0.000935956 0.113683)
(0.000486799 0.00213121 0.0649072)
(-0.001486 0.00193881 0.0467683)
(0.00134206 0.00022857 0.047135)
(-0.000272146 -0.000790856 0.147521)
(-0.000139676 8.45011e-05 0.101493)
(-0.000538674 -0.000148312 0.148609)
(-0.00161143 0.00174999 0.0229906)
(0.000298849 7.96406e-05 0.128829)
(0.00142173 -0.000843618 0.0511201)
(-0.000377145 0.000933404 0.147955)
(-0.000483855 0.000914653 0.0540111)
(0.0016286 0.000464309 0.0688706)
(0.000841099 0.00216239 0.114287)
(-0.000679262 0.000946502 0.142463)
(0.00328006 -3.29612e-05 0.0231831)
(6.52994e-05 0.00307974 0.060677)
(-0.000497746 -0.000333437 0.132656)
(-8.79014e-05 -0.00257742 0.0269341)
(-0.00584032 0.000119669 0.129562)
(0.000271803 -0.00209276 0.120211)
(0.000671531 -0.00119978 0.133086)
(0.00248941 -0.00157079 0.102066)
(0.00204911 0.000624799 0.0956097)
(0.0010994 -0.000933771 0.15056)
(-0.00968709 -0.00322464 0.0776549)
(-0.00188415 -0.000608243 0.150415)
(-0.0113517 0.000541262 0.111118)
(-0.00156227 0.00129305 0.0665619)
(-0.000462854 0.0017426 0.0696331)
(-0.000405991 -0.000903482 0.151222)
(0.000600676 -0.0015463 0.153511)
(0.000586677 -0.000185398 0.0586927)
(-0.000108161 -0.000932575 0.136736)
(-0.00199791 0.00108252 0.105628)
(0.000908683 -0.000318792 0.150331)
(0.00082296 -0.000652353 0.149818)
(-0.00109894 -0.00367771 0.0513959)
(-0.000537093 0.000432014 0.133097)
(0.00153743 0.000180089 0.141899)
(-5.96873e-05 -9.66246e-05 0.143714)
(6.33508e-05 -5.48226e-05 0.14804)
(0.00329726 -0.0014443 0.0247806)
(-0.00336067 -0.000956788 0.024045)
(-0.000696975 0.00122349 0.128136)
(0.000159128 -0.000188039 0.150056)
(0.00053409 0.0011219 0.150156)
(-0.00241296 0.00122059 0.0400681)
(0.000295335 -0.000495284 0.146747)
(-0.000898746 0.00125667 0.114792)
(-0.0011994 1.15144e-05 0.14536)
(0.00130894 0.000476804 0.151948)
(0.000452196 4.19721e-05 0.15105)
(-0.000332817 -0.00171837 0.150367)
(-6.29954e-05 -0.0020083 0.150922)
(0.000148276 -0.000419542 0.0976422)
(-0.00181245 0.000305722 0.148976)
(-0.00232477 0.0026016 0.0626317)
(0.000421294 0.000807159 0.148389)
(-0.000531123 -0.0012363 0.115382)
(-0.00123341 0.000827433 0.141988)
(-0.000264288 -0.000204502 0.148995)
(-0.000223638 -0.000588115 0.144346)
(0.000933467 0.00086274 0.139958)
(0.00207283 0.00283581 0.0456937)
(0.00108145 0.000339296 0.0383273)
(-0.00233313 -0.0024497 0.0248192)
(-0.00449693 0.000281862 0.142819)
(-6.43583e-05 5.11889e-05 0.153597)
(-0.000687199 0.000215238 0.135203)
(0.000119181 -0.00215327 0.129518)
(0.00129498 -0.000106615 0.0351884)
(0.000654056 -0.00311112 0.0272192)
(-0.00111806 -0.00162268 0.119731)
(-0.000672505 0.000991712 0.141413)
(-0.000871055 0.000142411 0.149499)
(0.000822022 -0.000859708 0.147588)
(-0.00107125 -0.000844183 0.137309)
(-0.000689153 0.00113249 0.151)
(0.000788101 -0.00074901 0.135645)
(-0.0012174 0.00268299 0.0303207)
(-0.00048049 0.000706154 0.126529)
(0.00266527 -0.00158175 0.0641856)
(-0.00698265 -0.000766037 0.0705973)
(0.000748957 -2.50785e-05 0.142687)
(-0.000232637 0.00108537 0.1026)
(0.000615829 -0.000462828 0.141511)
(-0.00420541 0.00243912 0.0238649)
(0.00196902 -0.000837926 0.153366)
(-3.4498e-06 4.75722e-05 0.151224)
(-0.00150587 0.000636752 0.148212)
(0.000946938 -0.000707317 0.0999407)
(-0.000505254 -0.000573986 0.142186)
(-0.0012046 -0.000236736 0.147353)
(-0.000319099 0.000188799 0.123068)
(-0.000657133 0.000123163 0.147907)
(-0.0035694 -0.000729594 0.102636)
(0.000115784 0.000419232 0.150179)
(-0.00190107 0.000188924 0.14304)
(0.00158729 -0.00123391 0.0235934)
(-0.000325817 0.0010756 0.150424)
(0.00105208 0.00119185 0.1191)
(-0.0034321 -0.00294377 0.0517611)
(-0.000739662 0.00133136 0.0993513)
(0.000417637 0.000730636 0.148181)
(5.19938e-06 -0.000299247 0.131152)
(0.000902959 0.00237304 0.0923381)
(-0.00282642 0.00172639 0.0233388)
(-0.000555038 0.000823472 0.150446)
(-0.000164665 0.00241544 0.126705)
(-0.000185069 0.000281166 0.148336)
(-0.000589384 0.000158532 0.126945)
(-0.0029326 0.000635282 0.0412732)
(0.000769277 -0.000118683 0.13689)
(-0.00402363 8.93335e-05 0.0280671)
(-0.000187304 0.000168361 0.146775)
(-0.0119681 0.00057307 0.102262)
(-0.000184328 0.000139624 0.148075)
(-0.000470988 0.00186289 0.058242)
(-0.00174391 0.00121056 0.113059)
(-0.000807063 0.00167016 0.102546)
(0.00232126 -0.00233239 0.0392914)
(0.000862422 5.37939e-05 0.146672)
(-0.000916793 0.00105361 0.144172)
(-0.00226592 -0.000946878 0.0253658)
(0.00111959 -0.00128381 0.144374)
(-0.000413274 -0.00196336 0.146844)
(-0.000656903 0.00210224 0.0417869)
(0.00150663 0.002664 0.0674209)
(-0.00180664 0.00203955 0.0589167)
(-0.000469663 0.00120149 0.143214)
(0.00109718 -0.000180273 0.147524)
(-0.00109433 0.0012708 0.034326)
(0.00227601 -0.000420244 0.0601894)
(-0.000124091 0.0010668 0.0626881)
(0.00129877 0.000612302 0.119156)
(0.00109984 -0.000632314 0.147486)
(-0.00341821 -0.00215325 0.0261266)
(0.0011403 0.000945802 0.148581)
(-0.000818916 -0.000285196 0.144755)
(-0.00107826 -0.000455845 0.148092)
(-0.00234249 -0.00482926 0.0900985)
(0.000794794 0.000201409 0.15237)
(0.00147187 -0.00268653 0.0257665)
(-0.00120018 0.000142834 0.1496)
(0.000295933 -0.000528566 0.0307524)
(0.000787407 -0.00227188 0.0647106)
(0.000115105 0.000241072 0.144853)
(-0.00114587 0.00166713 0.0661419)
(-0.00316839 0.00197547 0.023595)
(0.000476978 -0.0014376 0.0418935)
(-5.27254e-05 0.00282537 0.0507954)
(0.000938481 -0.00203091 0.0650275)
(-0.000336859 0.000641325 0.143065)
(-0.000434178 0.00134825 0.0554418)
(0.00127958 -0.00221132 0.0653763)
(-0.0136088 0.00010688 0.127184)
(-0.00125169 0.000522752 0.145416)
(0.0019641 -0.000150789 0.0270846)
(0.000523992 0.00104607 0.112137)
(-0.00788688 -0.00438726 0.081609)
(0.00157599 0.000175189 0.149433)
(-0.00118833 0.000863882 0.0647291)
(-0.00115053 0.00112243 0.144263)
(0.00180148 0.00248321 0.0635838)
(-0.000816529 0.000457074 0.124389)
(-0.000871042 -0.000953105 0.148742)
(0.00342014 -0.00475858 0.0566065)
(0.000285293 0.000172306 0.151413)
(-0.00263466 -0.00107131 0.0490016)
(0.00305544 -0.00206638 0.0221371)
(-0.000613457 -0.00056871 0.139767)
(3.68259e-05 -0.0013099 0.147783)
(-0.000777597 0.000412345 0.130513)
(0.00125208 -0.00170813 0.127341)
(0.00169049 -7.78532e-05 0.149776)
(0.00137328 -0.000214592 0.0662832)
(0.0016935 2.88513e-05 0.149233)
(0.00139811 0.00298718 0.0629406)
(-0.00100866 -0.000834723 0.148788)
(0.00145895 0.000484217 0.128116)
(-0.00403488 -0.00269316 0.0315478)
(-0.000166294 0.000651445 0.147072)
(0.000893824 -0.00184701 0.0581402)
(0.00178464 0.00257248 0.0298798)
(2.70276e-05 5.52114e-05 0.146266)
(-0.00172435 0.000214599 0.0475532)
(-0.00039261 0.000569294 0.134855)
(0.000542725 0.000372469 0.146294)
(-0.000735899 0.0013893 0.130477)
(0.000723061 0.00402447 0.0595514)
(0.00103686 -0.00025792 0.153083)
(0.00130306 0.000230765 0.096781)
(-0.000953835 0.000483895 0.153857)
(0.000765943 0.000250065 0.152062)
(0.000946319 0.000492988 0.1524)
(0.000375154 -0.0010405 0.148071)
(0.00328378 -0.00113033 0.0489233)
(0.000796915 0.000201695 0.0562613)
(-0.00100274 0.000612979 0.150648)
(-0.00112334 -0.00100665 0.147967)
(0.000596399 0.00278524 0.0357423)
(-0.000708108 -0.000234897 0.145989)
(-0.000302541 0.00100526 0.154234)
(0.00080891 0.00137022 0.151756)
(0.000876455 0.00134268 0.151354)
(-0.000585777 0.000900245 0.121736)
(-0.00179677 0.00257131 0.0242548)
(4.44086e-05 0.000764983 0.153786)
(0.00145932 -0.00132711 0.10485)
(-0.000583123 -0.00058207 0.139602)
(6.4587e-05 -5.74102e-05 0.101628)
(-0.00197475 -0.00130331 0.0330033)
(-0.000894355 0.00116073 0.146673)
(-0.00144562 0.00244614 0.0972014)
(0.000722901 0.000159802 0.135257)
(0.000825579 0.00155499 0.150249)
(-0.000714698 0.000717036 0.137544)
(0.00186001 0.00226262 0.0195309)
(-0.00275494 0.0012686 0.0252486)
(-0.000102504 -0.00183278 0.14554)
(-0.000408249 7.46749e-05 0.143782)
(-0.000182775 0.00151113 0.149901)
(-0.000594088 0.000802588 0.139705)
(6.85416e-05 0.00153399 0.0977298)
(-0.00018225 0.00148094 0.142427)
(0.000330447 -0.000199746 0.149949)
(0.000841717 0.00184704 0.0228019)
(0.000102066 -0.00185219 0.14548)
(-0.0115862 0.00124133 0.134007)
(-0.00066489 0.00250973 0.0420418)
(-0.000587792 0.00400709 0.0591528)
(-3.36224e-05 0.00131542 0.142215)
(0.00134078 1.97936e-05 0.139472)
(-7.36486e-05 -0.00107472 0.136518)
(0.000380595 -0.000309882 0.128203)
(-0.00313898 0.00190299 0.111156)
(-0.000183747 -0.000257664 0.15055)
(0.00123025 -0.00242246 0.103594)
(0.00132577 -0.000648595 0.153601)
(0.000205058 -0.000991343 0.147023)
(0.00186412 -0.00142194 0.15166)
(0.00126669 -0.000823892 0.147381)
(0.00161217 0.00141723 0.0444616)
(0.00103085 -5.8814e-05 0.149019)
(-0.00077475 -0.00171824 0.0362202)
(-0.0104248 -0.00138313 0.0944061)
(0.00192596 -0.00108981 0.0653047)
(-0.0114829 -0.000353178 0.126164)
(0.00107576 -0.000239161 0.132116)
(-0.0185541 0.000611275 0.117406)
(8.76856e-05 4.2818e-05 0.14682)
(0.000280804 0.000255892 0.153894)
(-0.000387796 5.57746e-05 0.144719)
(0.00100872 0.000593161 0.147348)
(-0.000950372 -4.03877e-05 0.0379402)
(-0.0046747 0.00014527 0.100939)
(-0.0159886 0.000932892 0.11228)
(-5.25289e-05 -0.000201128 0.147805)
(-0.000594913 0.00268216 0.117473)
(-0.0107474 0.000985022 0.135581)
(-0.00182046 0.00107061 0.145627)
(0.000638368 0.000520213 0.116482)
(-0.00160912 -0.000803295 0.0389632)
(0.00202169 0.00260035 0.0588294)
(-0.000625901 -0.000393302 0.0267555)
(0.00146475 0.00136899 0.026475)
(-0.000219795 -6.59546e-05 0.0383281)
(-0.00643198 0.00103749 0.134072)
(-0.00039197 0.000492339 0.135923)
(-0.00251831 -0.00292001 0.0267124)
(-0.00334371 0.000956899 0.0251887)
(0.00064326 0.000716889 0.149205)
(-0.0144797 0.00321252 0.0962067)
(-0.00211652 4.61092e-05 0.0406766)
(5.74792e-05 -0.000229243 0.14245)
(-0.00180089 0.000795457 0.111853)
(0.00105798 -9.48012e-05 0.134089)
(0.00184456 0.00241665 0.0459106)
(-0.000894021 -0.00114519 0.0583148)
(0.000356532 0.000862843 0.116256)
(-3.23384e-05 0.0003928 0.147645)
(-0.000239958 0.000665803 0.143548)
(-0.00193262 0.00330324 0.0401405)
(-0.000795221 -0.00235672 0.0261769)
(-0.0188621 0.000266604 0.10623)
(-0.00344681 0.00207671 0.0284023)
(-9.94054e-05 0.00167263 0.134161)
(-0.00446132 -0.00147515 0.030112)
(0.000520108 0.00251382 0.111165)
(-0.000286635 -0.000190631 0.147983)
(0.000829848 0.000938718 0.155164)
(-0.000989772 -0.00140877 0.0480533)
(0.000897214 -0.000912801 0.104007)
(-0.00192761 -0.000448947 0.0385649)
(-0.00397063 -0.000277582 0.0308435)
(0.000319345 -0.000787947 0.148156)
(-0.00313576 0.00148321 0.021441)
(0.00160357 -0.00102475 0.145827)
(-0.0010853 -0.00236944 0.0520134)
(-5.36776e-05 0.000655795 0.144833)
(-1.7161e-05 0.000202581 0.13835)
(0.00377046 0.00152935 0.0241339)
(-0.00106712 -0.00277766 0.0618117)
(0.000127226 0.000365666 0.140897)
(-0.00045685 0.00199524 0.0369939)
(0.00020184 -0.000666521 0.142809)
(-0.00153622 0.00420104 0.0587165)
(0.000434812 -5.42946e-05 0.114271)
(0.000148106 0.00111189 0.149211)
(0.00188041 5.52972e-05 0.0400913)
(-0.00384712 -0.000796418 0.0258194)
(-0.000583875 -0.000291817 0.0549588)
(-0.0178279 6.54289e-05 0.110619)
(-0.000133371 0.000395554 0.111667)
(0.000535807 0.00378831 0.0607482)
(0.00153747 2.77493e-05 0.0922547)
(0.000508985 0.00152159 0.0334177)
(0.000375874 0.00109031 0.149)
(0.000816469 0.00114011 0.0249954)
(-0.000283731 0.0018585 0.151542)
(0.000441847 0.000854876 0.142079)
(0.000405841 0.000350577 0.148947)
(-0.00229743 -0.000383631 0.0213882)
(0.000998711 0.000867057 0.144744)
(1.2122e-05 0.000504534 0.0895152)
(0.00010549 0.000865837 0.147045)
(-1.14331e-05 0.00026496 0.0586284)
(-0.0146916 0.000431461 0.108028)
(-0.00100637 0.00116694 0.148753)
(0.00130578 5.05703e-05 0.0439158)
(3.68797e-05 -5.40002e-05 0.149781)
(-0.0204282 0.00233422 0.108823)
(-0.000304633 -0.000332702 0.121448)
(-0.00110559 -0.00204916 0.0357607)
(-0.00119939 0.00243184 0.0558218)
(0.000300413 0.00015133 0.148894)
(0.000277806 -0.0013425 0.133693)
(-0.000965407 0.00144898 0.0351489)
(8.89263e-05 -0.00140266 0.114712)
(0.00239784 0.000811531 0.0652248)
(-0.00210397 0.00220916 0.0274979)
(8.99562e-05 -9.52286e-05 0.149381)
(-0.0103583 0.000500471 0.103257)
(-0.000960847 -0.00243644 0.133615)
(0.000280772 0.000121704 0.148883)
(0.000622609 0.00011864 0.14916)
(0.000565204 0.000198538 0.146935)
(0.000756815 0.0011761 0.13483)
(0.00163424 0.000591145 0.0475629)
(-0.000495161 0.0033476 0.0433593)
(0.0016532 -0.000105001 0.152886)
(-0.0129459 -0.000431343 0.107466)
(0.000207428 0.000926646 0.125184)
(0.00096493 -0.000251033 0.131441)
(0.00170811 -0.000943474 0.0872823)
(0.000121677 0.000106733 0.143056)
(-0.000638061 0.000282161 0.147206)
(-0.00178149 -0.00116097 0.105164)
(-0.00136831 0.00182562 0.109726)
(-0.00119239 0.0024184 0.0415213)
(-0.00125015 -0.000651419 0.076901)
(-0.00427476 -0.00286472 0.0486295)
(-0.000371986 -0.000731032 0.143142)
(-0.000528009 -0.000841802 0.150222)
(2.59184e-05 0.00281876 0.100522)
(-2.01732e-05 -0.000901541 0.104286)
(0.00140072 -0.00223407 0.0229269)
(7.91619e-05 -0.00056148 0.0854829)
(-0.00354204 -0.00142064 0.0632341)
(-0.000828614 0.000337098 0.149174)
(0.000637229 0.000845086 0.149528)
(-0.0114313 -0.000695881 0.104757)
(-0.00106348 0.000656541 0.145045)
(-0.00101214 0.00301913 0.0883882)
(-0.0084034 0.000404071 0.101683)
(-0.000994811 -0.00157702 0.133301)
(0.00226307 0.00115231 0.0298258)
(0.000353166 0.000931455 0.149389)
(-0.000428417 0.00180629 0.0541009)
(-0.000821132 -0.00033212 0.136056)
(0.00417941 -0.00179275 0.0314744)
(0.00156759 0.000829143 0.150711)
(-0.00523206 -0.000268341 0.101625)
(-2.53345e-05 -0.000257121 0.145635)
(6.74816e-05 -0.00104694 0.121193)
(6.35809e-05 -9.70016e-05 0.139808)
(6.96253e-06 0.00026787 0.144088)
(0.000789304 0.000421432 0.149033)
(0.000331929 0.00215568 0.0374334)
(-5.98891e-05 -0.00134191 0.0524618)
(-0.000493192 0.000827698 0.0317445)
(0.00011553 0.00054704 0.147968)
(0.000775892 -0.000524836 0.14373)
(0.00166875 0.000136992 0.134147)
(6.57844e-05 0.000532177 0.149181)
(0.000253975 -0.000718214 0.0236398)
(-0.000222359 9.0042e-05 0.10399)
(0.00130499 -0.00124011 0.0954888)
(4.1917e-05 0.000438739 0.148873)
(-0.00104272 -0.000325143 0.128631)
(-0.000331535 -5.99884e-05 0.138726)
(-0.00148945 0.000697143 0.110453)
(0.000186111 0.000580356 0.148513)
(-0.00338478 0.00243267 0.022922)
(0.000533301 0.00344796 0.0919461)
(-9.02522e-05 0.00037711 0.141613)
(-0.000269857 0.0031412 0.0289397)
(0.000431222 0.00216529 0.0476112)
(-0.00114239 -0.000671607 0.0665479)
(-0.00287091 -0.0013148 0.024411)
(0.00129836 6.62051e-05 0.100686)
(-0.00128284 0.000308415 0.147623)
(-0.000669445 0.00238699 0.0654717)
(0.00273212 0.00226643 0.021567)
(-0.000404532 -0.000712472 0.111506)
(0.000599241 -3.17834e-05 0.0279808)
(-0.000193137 0.00156421 0.104563)
(0.000257404 6.45188e-05 0.147713)
(0.000206422 0.000202726 0.148642)
(0.000141192 0.000650174 0.148174)
(0.00146319 0.00104708 0.148626)
(0.000335273 0.000216673 0.147665)
(-0.000268676 0.00132892 0.133018)
(0.00137893 -0.00123274 0.0517574)
(0.000891702 -0.000134018 0.148015)
(-0.000166581 -0.000834744 0.128016)
(-0.000507144 -0.00157904 0.0942223)
(-0.00182519 -5.48734e-05 0.100281)
(0.000348183 -4.47856e-05 0.145735)
(-0.000942724 0.00110792 0.120291)
(0.000984879 0.00181134 0.0714361)
(0.000635488 -0.000989545 0.145319)
(0.000415959 -0.00121798 0.0363848)
(0.000824375 0.000779522 0.0938576)
(0.000118338 -8.11613e-05 0.10194)
(-0.0010642 0.000755943 0.0664463)
(4.99613e-05 0.000103154 0.147281)
(-0.018185 -0.000278665 0.105887)
(-0.00710985 3.8952e-05 0.126715)
(-0.000565866 0.0029453 0.0363325)
(0.00193603 -0.000437287 0.0297395)
(-0.00039295 0.00256658 0.0607821)
(0.0023092 -0.000769539 0.0226894)
(-0.000466621 0.00020278 0.128028)
(-0.000487818 0.00177484 0.140502)
(-0.000579671 0.0012876 0.130451)
(-0.014158 0.000989679 0.110547)
(-0.000375176 0.000731526 0.129992)
(-0.000370165 0.00161969 0.137311)
(0.00520452 0.00294665 0.0280746)
(-0.000716151 0.00144544 0.141522)
(-0.0120072 0.000283753 0.125986)
(-0.00159827 -0.000479602 0.0480571)
(0.00334465 0.00287772 0.024899)
(-0.000237803 -0.00127396 0.118794)
(-0.000856126 -0.000730393 0.116335)
(-0.00313156 -0.00225931 0.028787)
(0.000352256 0.00124631 0.149153)
(0.00327427 -0.00219637 0.0262008)