/*--------------------------------*- C++ -*----------------------------------*\
| =========                 |                                                 |
| \\      /  F ield         | OpenFOAM: The Open Source CFD Toolbox           |
|  \\    /   O peration     | Version:  2406                                  |
|   \\  /    A nd           | Website:  www.openfoam.com                      |
|    \\/     M anipulation  |                                                 |
\*---------------------------------------------------------------------------*/
FoamFile
{
    version     2.0;
    format      ascii;
    arch        "LSB;label=32;scalar=64";
    class       volScalarField;
    location    "12";
    object      epsilon;
}
// * * * * * * * * * * * * * * * * * * * * * * * * * * * * * * * * * * * * * //

dimensions      [0 2 -3 0 0 0 0];

internalField   nonuniform List<scalar> 
59516
(
0.036485
0.0350445
0.0264423
0.0208922
0.00937677
0.348688
0.0222616
0.0333769
0.0303627
0.0804009
0.00914635
0.0730838
0.0284974
0.258101
0.0655162
0.0806248
0.0104907
0.0689255
0.0308523
0.0117225
0.083875
0.0159109
0.0141377
0.116445
0.0136902
0.059975
0.113777
0.0964703
0.060296
0.190008
0.0500824
0.0912815
0.0196921
0.0283311
0.017395
0.0169818
0.197082
0.0742227
0.0428069
0.0137522
0.0341623
0.0128012
0.0153359
0.0354294
0.0171272
0.0836957
0.0209827
0.0104007
0.013054
0.0122546
0.0277594
0.0907744
0.0260011
0.0238768
0.0794918
0.0232054
0.011085
0.10061
0.0104482
0.0188872
0.0150271
0.15681
0.0108618
0.0110157
0.0244462
0.0149199
0.197659
0.097487
0.0215825
0.0196454
0.0921607
0.0116678
0.155756
0.0173107
0.00963012
0.0123702
0.0105244
0.0156152
0.083778
0.012341
0.111914
0.0142365
0.0177092
0.175873
0.0145952
0.0101572
0.113067
0.0154128
0.077328
0.0428546
0.0102725
0.0173222
0.0103249
0.0176866
0.0117587
0.0107479
0.0169211
0.0826344
0.0720216
0.0155201
0.095069
0.149838
0.14042
0.0733367
0.0200695
0.015133
0.110529
0.0322554
0.0351602
0.0609079
0.0225353
0.0927041
0.0630777
0.0353261
0.013257
0.0394775
0.0703447
0.019282
0.138046
0.0159003
0.0090304
0.0109746
0.0131959
0.0111154
0.0175543
0.0458618
0.125719
0.0174511
0.0925308
0.00963598
0.00925193
0.0301705
0.135638
0.0157642
0.0359397
0.0267484
0.0478088
0.0212156
0.101457
0.0389987
0.0934532
0.00931206
0.18376
0.022317
0.00977464
0.016897
0.0180901
0.0288153
0.270503
0.030423
0.0370568
0.102683
0.0114256
0.0144582
0.0435142
0.187035
0.0263099
0.0271351
0.0500838
0.167593
0.0569477
0.0553986
0.117773
0.198968
0.0376814
0.0108897
0.0675941
0.00968232
0.148193
0.0183635
0.0486002
0.0856346
0.0559283
0.017812
0.0833223
0.0202322
0.0109536
0.0141233
0.0572176
0.10922
0.0159944
0.131909
0.180088
0.0689803
0.00959852
0.0753562
0.113272
0.186365
0.0247489
0.0389323
0.019527
0.0805385
0.0121953
0.0716416
0.0141205
0.127567
0.0793463
0.105935
0.0296433
0.0148377
0.0506727
0.00916784
0.0348619
0.173262
0.0224981
0.0173494
0.00937731
0.0132849
0.180949
0.0282041
0.0932107
0.140557
0.0166612
0.0776365
0.0276302
0.010773
0.017363
0.0136143
0.0795459
0.0132743
0.0772382
0.0317486
0.0109895
0.0958265
0.0104546
0.010555
0.0983846
0.0876471
0.0107248
0.0763951
0.0104325
0.0104849
0.00921047
0.116269
0.120819
0.108456
0.0707351
0.0346309
0.0130149
0.0856971
0.00918069
0.164181
0.0775254
0.146376
0.00952404
0.0448208
0.0155147
0.0571381
0.0109193
0.032913
0.0120956
0.0176402
0.00909951
0.0159523
0.0159018
0.0135101
0.0852641
0.0139395
0.0881498
0.0665206
0.0213104
0.0121932
0.0297798
0.0102074
0.0371513
0.0806222
0.0126731
0.0444443
0.0774144
0.0869392
0.0402441
0.0104216
0.0375236
0.0420982
0.0113982
0.0420821
0.133575
0.0124139
0.111863
0.0968538
0.00937248
0.0176162
0.126363
0.0258968
0.0236106
0.0108545
0.00947388
0.141172
0.00941554
0.00917165
0.0100602
0.0202125
0.0176443
0.0390938
0.010832
0.0884396
0.0122841
0.0172392
0.00905911
0.0108033
0.0266629
0.0737649
0.144799
0.0865075
0.012574
0.17701
0.0573222
0.0842353
0.0109414
0.0107213
0.0144535
0.0706219
0.0338578
0.100856
0.0870305
0.0120979
0.0393048
0.0117919
0.0434811
0.102622
0.0635985
0.0339339
0.00997471
0.00913007
0.00909952
0.0126665
0.0431648
0.021769
0.0108744
0.0123608
0.011961
0.0689121
0.137688
0.0145005
0.0849294
0.112246
0.0118969
0.0161967
0.071865
0.0102508
0.0111922
0.00930375
0.0101298
0.112079
0.013488
0.00972777
0.0809977
0.00925724
0.00993425
0.0202182
0.0222608
0.0138537
0.0163052
0.0663745
0.140136
0.103672
0.0386701
0.0700904
0.114313
0.0541039
0.0291631
0.0212814
0.00926144
0.0138045
0.0207094
0.0143332
0.0144757
0.106485
0.0388502
0.0781814
0.0988419
0.104785
0.0121388
0.0396431
0.0125391
0.150512
0.0218169
0.0987949
0.0111426
0.0924154
0.0626046
0.031916
0.0091278
0.168074
0.0735612
0.0192839
0.127856
0.0219336
0.0281144
0.0202544
0.0421134
0.0436183
0.0124426
0.0887594
0.00923014
0.0382155
0.0625455
0.0665788
0.00958107
0.00978067
0.0811647
0.0211015
0.0388649
0.00938448
0.00949415
0.0836985
0.0214044
0.0163324
0.0153396
0.0130666
0.15792
0.142253
0.021849
0.00995974
0.00929215
0.107412
0.0106736
0.0325538
0.00972441
0.00994975
0.00938254
0.0100304
0.0102683
0.0424919
0.00943827
0.063806
0.0113037
0.0331768
0.013454
0.010005
0.016357
0.0162055
0.0930456
0.117396
0.143094
0.010471
0.00900867
0.0176488
0.0226889
0.120868
0.142445
0.0279482
0.0142121
0.00970726
0.0138466
0.019278
0.0089884
0.0194114
0.10701
0.0241776
0.0745254
0.133999
0.0135811
0.0411649
0.0165924
0.155325
0.00963885
0.00947076
0.00959252
0.0455006
0.01354
0.0102893
0.0238853
0.00928245
0.0424562
0.0105137
0.0153224
0.15259
0.00960557
0.0264289
0.0865376
0.041602
0.0111165
0.0219676
0.0519737
0.155873
0.0100242
0.0224688
0.0126056
0.0230563
0.107703
0.017831
0.139457
0.0118823
0.0171471
0.0109139
0.0758999
0.0322565
0.0391073
0.104174
0.00905593
0.00997139
0.166686
0.0118824
0.00921025
0.101574
0.0626626
0.0740212
0.0136308
0.00952556
0.170489
0.0835263
0.0795494
0.0284226
0.00935347
0.130613
0.0132295
0.0138731
0.00960078
0.11556
0.0112792
0.12725
0.0119117
0.145526
0.0677904
0.0138068
0.0685203
0.154299
0.103742
0.0763822
0.0747423
0.015914
0.0855743
0.0668973
0.0133464
0.0104656
0.0986072
0.0321406
0.0891262
0.0103691
0.077768
0.010913
0.0802519
0.0230223
0.00980393
0.0805966
0.0101922
0.0941366
0.185316
0.015492
0.00947993
0.020537
0.0235017
0.00963748
0.0700887
0.0113457
0.0677105
0.0100506
0.0234676
0.109111
0.0141944
0.0794482
0.109189
0.0160312
0.0970216
0.0188176
0.0094396
0.0211296
0.0789714
0.00979336
0.0475632
0.00904701
0.00958638
0.0094496
0.0095646
0.0967657
0.0817647
0.00966526
0.012046
0.13014
0.0122259
0.00949561
0.0100654
0.00945543
0.0281071
0.148442
0.00999149
0.034596
0.0133072
0.0374822
0.103745
0.00930125
0.0438704
0.0193847
0.00923741
0.0167679
0.182966
0.142899
0.00986365
0.0109716
0.0091454
0.0141903
0.0465762
0.015249
0.010093
0.126225
0.00954328
0.0171822
0.103089
0.0658107
0.0175478
0.017221
0.0195131
0.0250823
0.0357223
0.0091174
0.042319
0.0102569
0.0106943
0.00916818
0.0100082
0.09446
0.0121217
0.127262
0.103519
0.0665101
0.0111371
0.0196165
0.0347743
0.0103877
0.0103658
0.0142404
0.0105265
0.108175
0.0104508
0.0146669
0.00977555
0.0285171
0.0165211
0.00984095
0.02932
0.104281
0.0806802
0.0996365
0.15847
0.109731
0.0201721
0.0180473
0.176505
0.153132
0.0090138
0.076715
0.107708
0.0156898
0.0321636
0.0195745
0.110268
0.0777046
0.0288277
0.0106526
0.0148979
0.125895
0.129803
0.0610377
0.125746
0.0199276
0.121634
0.0348598
0.00961027
0.010073
0.093536
0.0363723
0.114029
0.142728
0.00987314
0.170908
0.0111207
0.0836067
0.0134589
0.0171137
0.163129
0.0752989
0.0150989
0.108602
0.0116087
0.0823201
0.0339809
0.00935626
0.111913
0.147688
0.0825443
0.0196774
0.0359204
0.0867704
0.0511928
0.131612
0.00929315
0.11932
0.011358
0.0167703
0.0110063
0.188637
0.0157506
0.045416
0.0135133
0.0893681
0.0144168
0.0132252
0.107102
0.00903755
0.0306346
0.0255532
0.123628
0.0741628
0.00949727
0.0215168
0.124131
0.0294646
0.0707505
0.125783
0.00978237
0.0123212
0.021595
0.0105116
0.0100043
0.0108064
0.0213529
0.0854206
0.0990439
0.00969202
0.0127915
0.0278448
0.0217927
0.0569865
0.0161151
0.0119073
0.0386653
0.0358734
0.108508
0.048833
0.12153
0.0138795
0.010309
0.0450396
0.03712
0.165087
0.0542579
0.0806145
0.0100326
0.0099042
0.0129623
0.0122997
0.0545681
0.016301
0.0195048
0.165239
0.00984736
0.09491
0.0182668
0.132446
0.0105273
0.0107003
0.0132647
0.0288557
0.0152691
0.0153649
0.00924183
0.105629
0.0739525
0.139751
0.00999687
0.0137611
0.0191366
0.0132175
0.208595
0.0385884
0.0470717
0.0101305
0.02221
0.0157217
0.0344974
0.00940013
0.151066
0.0477952
0.0134053
0.102291
0.0914167
0.0653858
0.14355
0.0428707
0.010574
0.0635306
0.182487
0.0331718
0.0949875
0.0358511
0.0102951
0.0090184
0.0104339
0.0122988
0.0100428
0.0226024
0.115061
0.0102758
0.0223778
0.0493473
0.0364638
0.0118852
0.0287162
0.0627926
0.0141667
0.105877
0.0461383
0.0394343
0.0648131
0.0135878
0.0467213
0.0237151
0.11805
0.142927
0.072457
0.161702
0.0226178
0.0131214
0.0223184
0.0408
0.0186247
0.0142773
0.158463
0.0126161
0.0107964
0.0919183
0.158726
0.0277133
0.0321729
0.119572
0.0123326
0.152452
0.00996771
0.0133709
0.0232636
0.0135231
0.0132253
0.0360914
0.00939475
0.22068
0.115615
0.0361241
0.0370929
0.184773
0.0164207
0.0141236
0.00998339
0.0109413
0.0549472
0.0135175
0.00902129
0.0439477
0.083152
0.0110834
0.0376609
0.103601
0.0120343
0.00992586
0.0131543
0.0418249
0.0219276
0.0334029
0.0475895
0.0357726
0.0387268
0.0208339
0.0717996
0.0122898
0.00977454
0.00940401
0.0176786
0.0312246
0.0236694
0.111159
0.0727199
0.0235831
0.017866
0.0200715
0.00921374
0.0146795
0.00907232
0.00924397
0.258534
0.0282047
0.00981226
0.152374
0.0176064
0.014135
0.13563
0.0139839
0.00985848
0.0355726
0.00997773
0.00922325
0.0102231
0.0672409
0.0106417
0.0903857
0.030862
0.0104887
0.118604
0.078479
0.0755007
0.0255423
0.0964595
0.0143534
0.0104384
0.010382
0.0134139
0.0469417
0.0727651
0.0132854
0.0122184
0.0270505
0.0475421
0.0136311
0.0095501
0.00948673
0.114413
0.00952823
0.0410726
0.0517196
0.114336
0.0738489
0.0466053
0.0100448
0.0869258
0.0111922
0.0108173
0.0112071
0.00945891
0.0108277
0.00963621
0.0101187
0.00926933
0.00969247
0.0202245
0.0253119
0.10598
0.0865464
0.0122427
0.0227067
0.116358
0.0114384
0.0335104
0.00911931
0.00908655
0.00941054
0.0154174
0.044845
0.0097218
0.138392
0.0394792
0.00945785
0.080975
0.00971385
0.103099
0.051771
0.0116383
0.0580217
0.103884
0.0114332
0.0128896
0.0150623
0.110006
0.0101119
0.110879
0.042365
0.0627132
0.0695455
0.0393882
0.0091215
0.0688234
0.0138268
0.0113026
0.0309151
0.00924566
0.00908183
0.0282955
0.00906382
0.0101935
0.0604822
0.00918785
0.0779765
0.113342
0.01075
0.0124993
0.0892142
0.00974551
0.0326572
0.0517048
0.0102888
0.181166
0.0113134
0.0100594
0.0292857
0.126306
0.0833706
0.0400462
0.0832915
0.0196785
0.0215969
0.0359927
0.172775
0.0309652
0.0109811
0.0124608
0.00922749
0.00969749
0.0472385
0.0128296
0.009636
0.0311401
0.0168567
0.11203
0.0270762
0.0132218
0.00914657
0.0663411
0.0126898
0.0430229
0.0296854
0.144281
0.0266291
0.0480012
0.103158
0.0243995
0.0923658
0.0121517
0.0329908
0.00954493
0.0926448
0.00903374
0.0409115
0.083301
0.0395212
0.0175263
0.143363
0.0118985
0.0143355
0.0817556
0.19273
0.086934
0.00901495
0.0150828
0.0100963
0.0363474
0.0886006
0.0153064
0.135508
0.0324426
0.00953238
0.0154651
0.0819209
0.0168834
0.142229
0.0477079
0.0139162
0.00924987
0.114753
0.0136525
0.023943
0.0876244
0.0117412
0.0126407
0.00912757
0.0159396
0.0380531
0.0874944
0.0113783
0.0156045
0.143236
0.0965714
0.0778429
0.0108731
0.0415785
0.011707
0.0842555
0.0103353
0.112345
0.0198347
0.0269221
0.0114588
0.0094783
0.0190925
0.0174161
0.135529
0.121077
0.0150111
0.0189165
0.141926
0.114144
0.0113477
0.0150849
0.0118902
0.0351202
0.018363
0.0115754
0.0105548
0.069728
0.0471126
0.0664642
0.0161592
0.0495298
0.120872
0.116773
0.0100184
0.0319616
0.0409965
0.0118947
0.0120102
0.142174
0.0112485
0.0099337
0.0961744
0.139053
0.0103563
0.00942527
0.143436
0.19363
0.00967531
0.0361529
0.149549
0.0607254
0.00961994
0.0105762
0.0100343
0.0174346
0.0117742
0.134248
0.111179
0.00959219
0.0102896
0.0371348
0.0136399
0.0832303
0.0776483
0.0855005
0.014126
0.172759
0.0143863
0.0178567
0.0411646
0.075938
0.151259
0.00929415
0.00939625
0.0270317
0.00971095
0.0340794
0.0144721
0.0961999
0.0745396
0.230391
0.0329394
0.0167216
0.0356983
0.0810073
0.0451661
0.0273707
0.0164558
0.0389754
0.0138523
0.0107031
0.0332987
0.0804382
0.140899
0.0114515
0.13453
0.0264961
0.0236799
0.0466043
0.144526
0.0156911
0.0694468
0.182891
0.145946
0.0195624
0.00959401
0.0215424
0.020944
0.0492517
0.0323191
0.120979
0.102105
0.103491
0.00932024
0.0363046
0.0163724
0.033046
0.0335691
0.0205528
0.150172
0.0259523
0.151546
0.0119356
0.0321305
0.137203
0.00936724
0.0416008
0.0212004
0.046781
0.0787852
0.149144
0.0149241
0.0964807
0.00947394
0.00916505
0.0230523
0.0646437
0.135524
0.0117874
0.103799
0.0114264
0.0115667
0.010113
0.0871897
0.0123317
0.011659
0.0129092
0.0119544
0.145978
0.0908201
0.0107021
0.0324192
0.0684549
0.00920822
0.023608
0.0218427
0.0393062
0.112616
0.173819
0.0885488
0.012531
0.0109831
0.0243545
0.12815
0.101742
0.0153566
0.0265423
0.0625028
0.00920462
0.0124517
0.0116439
0.0106911
0.00934638
0.0126709
0.0171817
0.0292765
0.0269028
0.0295969
0.0576116
0.070074
0.0091355
0.0201257
0.110926
0.0787747
0.0103313
0.0915145
0.0157776
0.0388183
0.0111994
0.0155324
0.0288524
0.00979149
0.0106873
0.011767
0.0840932
0.0991155
0.0100821
0.0090937
0.150912
0.0482157
0.0242382
0.00996786
0.018452
0.192542
0.0344974
0.0182148
0.050011
0.0100783
0.0280981
0.154477
0.0237449
0.145466
0.0420207
0.181592
0.013225
0.0149947
0.00998017
0.151121
0.0776434
0.047963
0.0139296
0.0862126
0.0830075
0.0435216
0.00958429
0.112419
0.00910165
0.0151263
0.0672125
0.0681439
0.100725
0.011893
0.00951652
0.0164615
0.0241156
0.0384478
0.0352524
0.0397568
0.131493
0.12535
0.10358
0.0431887
0.00918472
0.113996
0.192207
0.0824342
0.137986
0.0130446
0.137168
0.0111026
0.00918745
0.0172163
0.0666205
0.00991553
0.109542
0.068056
0.00937389
0.0120297
0.0255278
0.00990296
0.0111211
0.142223
0.0216011
0.013241
0.00972544
0.0429238
0.0133965
0.00970627
0.0344358
0.102329
0.130645
0.0334815
0.00941528
0.120335
0.049825
0.0118396
0.102519
0.116089
0.0377454
0.0806189
0.0620321
0.170244
0.0896317
0.11635
0.152363
0.110482
0.153886
0.0337373
0.0520633
0.00950259
0.175973
0.0100263
0.0222325
0.0152412
0.0287782
0.0126274
0.114265
0.0123903
0.0107793
0.0406708
0.00913794
0.0222013
0.206963
0.0259269
0.0475913
0.123213
0.120194
0.0182923
0.041989
0.132908
0.015077
0.017675
0.00936793
0.0114726
0.0900419
0.0276691
0.0479817
0.013626
0.0184847
0.0177887
0.0105249
0.0426468
0.0135741
0.0207387
0.0123309
0.034628
0.0328181
0.0256102
0.0455434
0.0094061
0.018911
0.0834902
0.0180705
0.0872259
0.151669
0.0772711
0.0177304
0.0177271
0.00923171
0.0134323
0.0280196
0.0545113
0.0299652
0.168996
0.141219
0.0988184
0.0735879
0.0898062
0.0123931
0.0924402
0.0269435
0.133041
0.123759
0.00916943
0.0788326
0.0120402
0.0222996
0.0106639
0.109983
0.0910649
0.023678
0.0151269
0.155103
0.0198853
0.0750796
0.0332463
0.00976882
0.0146223
0.00971384
0.0377556
0.0391853
0.0457645
0.0681112
0.110939
0.0921661
0.135098
0.0324201
0.0104232
0.0555554
0.075264
0.0404439
0.0157105
0.0132638
0.0772242
0.0206962
0.132421
0.0651706
0.01479
0.0884195
0.0501015
0.0425044
0.0260344
0.0351044
0.0150975
0.0421278
0.0356279
0.0112715
0.0312064
0.011485
0.151973
0.146068
0.0237422
0.036115
0.0149992
0.0326154
0.0389689
0.16663
0.0198859
0.0227257
0.016045
0.0436591
0.106075
0.0770974
0.0923115
0.0248821
0.0673957
0.0337298
0.142994
0.0272403
0.0967525
0.0503985
0.0100341
0.0781433
0.0150568
0.0127932
0.102848
0.140627
0.0270201
0.15938
0.0139929
0.0113429
0.0478321
0.0148237
0.036933
0.0268281
0.1246
0.0325909
0.0256217
0.00911935
0.182741
0.0120624
0.0229342
0.0502367
0.0202536
0.11553
0.0111314
0.126474
0.0140201
0.0246277
0.0169422
0.0218108
0.0992148
0.143895
0.00962014
0.00985235
0.0998842
0.0330104
0.11527
0.0238991
0.0738999
0.16067
0.0391715
0.0151597
0.0454244
0.00974671
0.0282226
0.018712
0.121359
0.00944075
0.128957
0.0554182
0.0100727
0.00957154
0.0217148
0.149247
0.09091
0.00908476
0.00916308
0.014756
0.0159882
0.0132407
0.193108
0.0200491
0.0158623
0.020134
0.0832492
0.0226008
0.0100215
0.0200791
0.0107433
0.00915296
0.076082
0.0140966
0.0951117
0.0130727
0.0419268
0.0191984
0.014079
0.0110694
0.00992383
0.107593
0.00904812
0.0766847
0.130977
0.0229701
0.0843482
0.0138007
0.167063
0.0837474
0.0913197
0.0500617
0.0222064
0.112396
0.123516
0.0178592
0.0395797
0.00996747
0.036311
0.146805
0.0478186
0.103125
0.0313715
0.0134259
0.0786855
0.0139058
0.0100015
0.0127586
0.0116794
0.00993778
0.013131
0.0100546
0.0165449
0.0861074
0.181905
0.0176728
0.17267
0.0270729
0.0259183
0.0510494
0.00931115
0.0235164
0.100328
0.00909548
0.0889739
0.0402964
0.0703105
0.0210088
0.00922354
0.0557868
0.0354528
0.0982084
0.0233543
0.0265707
0.0459465
0.0169051
0.18104
0.128848
0.00983801
0.0234259
0.0107216
0.0349336
0.225128
0.00909841
0.0661258
0.00905405
0.012367
0.113372
0.0145965
0.0114394
0.118963
0.080399
0.00911958
0.0375303
0.153465
0.0146859
0.0763789
0.142671
0.0400059
0.00990558
0.00932602
0.0157446
0.0107511
0.0162356
0.009869
0.0302912
0.0349163
0.0101437
0.0156195
0.170375
0.106519
0.02474
0.0110331
0.0280537
0.143864
0.132914
0.0168216
0.099956
0.0152088
0.0113327
0.00933977
0.0999489
0.0522533
0.0100943
0.027377
0.0143937
0.0184728
0.0711384
0.120947
0.0103993
0.13329
0.0670587
0.121462
0.090311
0.011445
0.00932472
0.016163
0.0327553
0.0422278
0.0423919
0.0111487
0.0131471
0.0858845
0.00930507
0.0117094
0.0122853
0.137916
0.0245984
0.146415
0.0427955
0.0928857
0.0130142
0.0174949
0.0118471
0.132298
0.0482715
0.0686747
0.180363
0.0144481
0.136579
0.0780042
0.0106117
0.012084
0.00923091
0.106
0.0331996
0.0834166
0.00945908
0.0127309
0.0113294
0.0103321
0.0988641
0.0173186
0.0276094
0.00928465
0.0110997
0.0112287
0.0123778
0.00923115
0.162137
0.0964683
0.0288898
0.00911816
0.0164492
0.0966303
0.0101069
0.0717721
0.0253858
0.0184443
0.0477051
0.0592036
0.0736513
0.175397
0.0139152
0.0179512
0.0769186
0.0259445
0.175318
0.0137814
0.00955281
0.156683
0.0268097
0.0233258
0.0117018
0.105476
0.16509
0.12599
0.065381
0.0702131
0.139357
0.114915
0.182888
0.0476835
0.0115223
0.0172808
0.012491
0.0234055
0.152405
0.0135094
0.0266411
0.174453
0.188584
0.119713
0.0434904
0.0977685
0.0132363
0.0166466
0.00919437
0.0152695
0.0949657
0.0479948
0.0138975
0.00961198
0.0162754
0.0126662
0.0104466
0.0829634
0.0329528
0.0150211
0.0118195
0.226707
0.0243304
0.0334889
0.0241272
0.0289894
0.00993239
0.077182
0.113574
0.165456
0.0388249
0.00905452
0.00918103
0.0130251
0.0709822
0.0338737
0.0831711
0.0388222
0.011353
0.0986852
0.0747187
0.0101723
0.0152133
0.0135185
0.0119763
0.045403
0.064314
0.0160089
0.0362519
0.0248437
0.0174312
0.020321
0.0100712
0.0498807
0.0181604
0.174573
0.121243
0.179348
0.0422736
0.0270065
0.0380968
0.0905747
0.0158228
0.090094
0.0746077
0.156905
0.0271194
0.00977335
0.0110404
0.155286
0.0797275
0.0903805
0.143877
0.0832684
0.00985682
0.00925348
0.12599
0.108443
0.0766024
0.0095411
0.00929695
0.0167235
0.040532
0.0141709
0.017557
0.0396816
0.110162
0.00904924
0.0179118
0.0177082
0.0252176
0.0163179
0.010642
0.0566624
0.024894
0.0622787
0.0108796
0.0118205
0.0101552
0.172833
0.0102944
0.144766
0.013567
0.0143819
0.0114284
0.012115
0.0842339
0.14704
0.0858659
0.00950367
0.0097228
0.0224948
0.0112165
0.129776
0.0418791
0.0122418
0.0102087
0.0308724
0.101604
0.0219931
0.0315024
0.0111844
0.0104981
0.0109397
0.0100112
0.0151867
0.0165769
0.0444428
0.0107062
0.0105553
0.0160611
0.0445296
0.111833
0.155921
0.0549658
0.033614
0.00993178
0.00987891
0.126646
0.0306572
0.0190407
0.0194303
0.0409142
0.0123321
0.0174591
0.0201812
0.00920121
0.0357147
0.0206915
0.0884632
0.0299184
0.0174902
0.1538
0.0250848
0.0143221
0.0189642
0.0130676
0.0097131
0.143022
0.0113613
0.0488086
0.0106111
0.0540897
0.0107261
0.0241183
0.042689
0.0258061
0.154262
0.0248818
0.0937574
0.106541
0.0170218
0.120069
0.0101585
0.0126452
0.0100613
0.090682
0.0369278
0.152761
0.0200653
0.113421
0.0420421
0.0135113
0.0123103
0.0101654
0.0152897
0.0136584
0.00961179
0.0134235
0.0126291
0.0133028
0.0957905
0.0371028
0.00914381
0.00939013
0.0728375
0.015845
0.0114402
0.0105639
0.14367
0.0190288
0.14127
0.00943626
0.132669
0.109596
0.0276348
0.0207225
0.0179104
0.0295595
0.116175
0.0112862
0.12675
0.117289
0.0149603
0.0781163
0.046243
0.0218899
0.0129529
0.156834
0.0726553
0.114289
0.01028
0.0115625
0.0668328
0.014112
0.0434837
0.0718613
0.00975669
0.10489
0.0192833
0.0135194
0.0102397
0.0133555
0.0100634
0.0100351
0.0255389
0.00901113
0.0153361
0.0100902
0.0338872
0.0379062
0.00948898
0.0519092
0.0135261
0.0158334
0.0128419
0.0154211
0.009497
0.0176183
0.0998393
0.0126965
0.00930616
0.0735366
0.0262146
0.00922141
0.155469
0.0126078
0.0105028
0.0415399
0.0231481
0.0820056
0.0312346
0.0104108
0.0139457
0.0413662
0.0724587
0.0754929
0.0230584
0.0993483
0.102566
0.125809
0.0188734
0.0106298
0.00931306
0.0199288
0.0162728
0.0172246
0.0697713
0.0316993
0.00984545
0.00945979
0.0090538
0.00914324
0.132437
0.197317
0.167031
0.061848
0.0128197
0.00986907
0.00946633
0.0442747
0.0140512
0.0114276
0.152287
0.00914363
0.0119474
0.010199
0.00957064
0.0591732
0.0802426
0.0273782
0.086459
0.0129851
0.0166212
0.0367819
0.0144322
0.041498
0.0677842
0.0374442
0.00924841
0.0461081
0.0224255
0.0103001
0.0260764
0.0992331
0.0108441
0.00924158
0.0795096
0.103564
0.0436083
0.0847165
0.00989268
0.0252373
0.085765
0.00937456
0.00940973
0.0112309
0.0232464
0.0114047
0.013394
0.0120242
0.0171296
0.0466247
0.0157253
0.0599651
0.0535399
0.0793786
0.00997399
0.0284414
0.0113178
0.0187221
0.0421701
0.0359354
0.149944
0.0354038
0.151849
0.0433884
0.0165805
0.0149745
0.0108114
0.0141838
0.120698
0.087723
0.0114028
0.0509451
0.0690946
0.0227429
0.0914978
0.0102653
0.0184565
0.0131679
0.028097
0.0115558
0.0263653
0.0128664
0.108381
0.0103446
0.113842
0.113552
0.0655013
0.0206082
0.0263498
0.00916232
0.112876
0.0093187
0.0145779
0.0362335
0.0498097
0.0451959
0.10806
0.0738907
0.097532
0.0661412
0.00935202
0.083096
0.0139818
0.0705999
0.170652
0.0401347
0.0915675
0.190828
0.16072
0.0168943
0.02841
0.0104631
0.0691421
0.00913504
0.118809
0.0300043
0.0707568
0.0138514
0.0120147
0.154155
0.0204019
0.0124731
0.0127288
0.0184827
0.0223066
0.0107523
0.0129459
0.0113136
0.0181788
0.106215
0.0456175
0.0826033
0.0141961
0.130882
0.0445204
0.0150805
0.0551269
0.0331021
0.175633
0.0285887
0.034256
0.00990586
0.0222156
0.011903
0.017895
0.0114304
0.0210886
0.0091969
0.0778688
0.0763164
0.0142503
0.0117317
0.0185876
0.0149787
0.0118117
0.0140896
0.0160249
0.117365
0.0150158
0.00926402
0.130901
0.0239853
0.114397
0.0209893
0.0624336
0.103476
0.0138828
0.100528
0.112827
0.154326
0.12498
0.107227
0.0106772
0.023385
0.00958932
0.0213477
0.0704682
0.0119639
0.00933324
0.0117839
0.15091
0.0173104
0.0308567
0.0290939
0.0135541
0.128939
0.116412
0.0171077
0.107873
0.00957905
0.0946787
0.0241332
0.0602218
0.00903445
0.00910746
0.0125778
0.0993085
0.153153
0.107475
0.013801
0.0692074
0.187522
0.029167
0.0430668
0.123651
0.0391181
0.0801053
0.0228945
0.0162526
0.00979989
0.0134237
0.187798
0.0328698
0.155788
0.00942865
0.0141748
0.0256246
0.0124376
0.0419129
0.0317548
0.151484
0.0164183
0.0360184
0.00934476
0.00950541
0.0776032
0.176937
0.01081
0.0124198
0.00991458
0.0645846
0.0180585
0.144327
0.101839
0.0936215
0.0106112
0.128352
0.0305467
0.169445
0.0839272
0.0164247
0.0822688
0.114341
0.112905
0.0161324
0.0133157
0.0098064
0.0802131
0.019946
0.0115641
0.0279331
0.0260491
0.0140817
0.00993073
0.0101793
0.161088
0.0141599
0.0261493
0.0626643
0.101304
0.00976247
0.0103999
0.0381601
0.0148697
0.187445
0.0298729
0.0223923
0.155
0.013159
0.0119002
0.0164097
0.076152
0.0101708
0.0858213
0.00928866
0.0759532
0.162288
0.0102308
0.0119039
0.0677555
0.0161508
0.0113814
0.0111068
0.0100475
0.0725338
0.117021
0.0109063
0.0160089
0.0175543
0.0124149
0.0795959
0.0192157
0.0743246
0.06557
0.0131151
0.00918024
0.0365276
0.0139788
0.025063
0.106363
0.0888411
0.0101943
0.0134455
0.0858792
0.119957
0.0481799
0.0165481
0.0167151
0.155163
0.044394
0.0125338
0.0106195
0.0127044
0.0158154
0.0303999
0.00922811
0.0161566
0.0112272
0.0454486
0.126821
0.153526
0.0244837
0.0349132
0.0147462
0.0132474
0.0105564
0.0120152
0.00983273
0.0120759
0.0139943
0.0105774
0.0362096
0.0127131
0.0124826
0.0401397
0.0118196
0.039883
0.122619
0.025742
0.0191419
0.020655
0.0248264
0.0213372
0.0425443
0.0903534
0.017064
0.0128935
0.015927
0.0266088
0.124562
0.011822
0.0352367
0.131838
0.017645
0.114211
0.0265384
0.0147517
0.0175232
0.0202467
0.0307223
0.104471
0.140228
0.107085
0.00938834
0.0914173
0.0133527
0.011933
0.0975605
0.00900724
0.0397033
0.00965393
0.0258481
0.025923
0.055388
0.00897142
0.010564
0.176056
0.0122438
0.0996196
0.188024
0.0177549
0.0664293
0.0114015
0.0116609
0.00988929
0.0355873
0.0477514
0.016403
0.0122572
0.0169308
0.0811134
0.129554
0.0253399
0.0140341
0.028493
0.00948654
0.04789
0.0393309
0.013234
0.0116966
0.0124234
0.0423048
0.0318523
0.0445413
0.0217748
0.0166795
0.0296081
0.0347247
0.105188
0.0156334
0.0183067
0.0141892
0.010683
0.0172584
0.00996506
0.0992618
0.0251822
0.0575573
0.0810113
0.0142382
0.0513649
0.00936877
0.0106195
0.0175218
0.145403
0.0379467
0.0145174
0.0105737
0.0740288
0.0116766
0.05047
0.0219472
0.0495583
0.031346
0.0149051
0.0126704
0.174689
0.0186546
0.0120476
0.0122879
0.0415337
0.0150938
0.0132996
0.141352
0.00903
0.0950148
0.0171075
0.0105869
0.011898
0.0264312
0.0396916
0.0568362
0.0780293
0.112344
0.0109479
0.0112611
0.121869
0.0919068
0.016949
0.0180096
0.080386
0.034013
0.0182459
0.018892
0.0168076
0.169387
0.0142584
0.0370442
0.0963878
0.0116296
0.0751368
0.0458805
0.139731
0.0955789
0.0475306
0.0807777
0.0241219
0.0740426
0.0275871
0.106868
0.142952
0.025384
0.138704
0.0733013
0.0174649
0.125582
0.0153459
0.077066
0.0621224
0.0749749
0.0101034
0.121913
0.11981
0.0203057
0.0140474
0.0221586
0.0863897
0.0185884
0.0454023
0.0248879
0.067762
0.037545
0.00910469
0.039872
0.0102156
0.0168152
0.0216452
0.011269
0.19323
0.0229534
0.0279157
0.0144047
0.136809
0.0276022
0.201215
0.03957
0.0403095
0.0108385
0.0123785
0.0311027
0.015036
0.0212233
0.00935993
0.0124095
0.0481289
0.00910866
0.0628133
0.0134825
0.0198847
0.0718443
0.0156923
0.0653888
0.0110827
0.0145631
0.0684126
0.0209153
0.0253663
0.167111
0.0126084
0.160029
0.0904443
0.0301159
0.0142502
0.0186012
0.0886541
0.010892
0.0126282
0.0350642
0.0711446
0.0447627
0.115521
0.0160709
0.0426384
0.0204154
0.0416547
0.00940353
0.0169137
0.105896
0.0193495
0.00935527
0.0409472
0.199899
0.0645055
0.0165872
0.0775377
0.0437287
0.0709574
0.0170348
0.0448568
0.0861424
0.0861262
0.00987103
0.142907
0.0139656
0.130922
0.0112581
0.0363102
0.0141768
0.106122
0.0166422
0.0103082
0.0117387
0.0103735
0.0360473
0.156532
0.163242
0.0345904
0.199682
0.0132468
0.107398
0.0103756
0.0162247
0.0235531
0.0116961
0.138058
0.0714624
0.0751866
0.0156284
0.117321
0.015273
0.0399306
0.018388
0.0688193
0.104155
0.121736
0.0138349
0.0794285
0.012383
0.0241918
0.0243893
0.0816886
0.0800663
0.0275872
0.0347477
0.0883062
0.00996084
0.0125455
0.0482544
0.0386005
0.0174536
0.0137096
0.0119718
0.0102822
0.0103437
0.0353421
0.0486594
0.0104074
0.202396
0.122393
0.0217497
0.0144531
0.00930359
0.132631
0.0898943
0.00919071
0.0386503
0.00907985
0.104843
0.00932956
0.0102907
0.0129376
0.0746803
0.0464414
0.133006
0.147233
0.0268946
0.171168
0.0229383
0.0614012
0.0242956
0.0199824
0.0120382
0.135894
0.206725
0.0121282
0.0227235
0.118804
0.012728
0.0125542
0.109292
0.151679
0.167127
0.102727
0.05556
0.163466
0.0442535
0.00951331
0.111275
0.138297
0.0260893
0.0139415
0.0108911
0.0159661
0.0379125
0.197804
0.010257
0.106945
0.0112362
0.0984338
0.0350834
0.0236297
0.034659
0.0288098
0.121083
0.0107947
0.0118383
0.00975519
0.153134
0.027473
0.0780981
0.0364548
0.0605637
0.126472
0.0320134
0.0305307
0.0263074
0.052324
0.0166248
0.0829771
0.114897
0.088167
0.0223751
0.0306023
0.0229145
0.11648
0.0296419
0.129818
0.195143
0.0185391
0.0108598
0.0840141
0.0985002
0.0417321
0.0109381
0.0265766
0.0129657
0.0249214
0.0186475
0.0135465
0.0160424
0.00962766
0.0758516
0.147969
0.0230604
0.00933551
0.0103366
0.0406363
0.175878
0.0409974
0.0114167
0.0791853
0.0370687
0.0278954
0.0365739
0.0109394
0.0148415
0.00942127
0.124692
0.0209738
0.0113939
0.0147063
0.0111567
0.0275853
0.0835153
0.0108202
0.0380936
0.155018
0.00992087
0.0102733
0.0295976
0.0445924
0.014313
0.0112227
0.0170012
0.00939356
0.0268657
0.04186
0.106212
0.0810921
0.0120887
0.0223455
0.0092918
0.0193196
0.0997431
0.110594
0.0971129
0.146697
0.0692285
0.135856
0.0125057
0.140472
0.0219272
0.0484282
0.00990236
0.109168
0.0137193
0.0999883
0.0129129
0.186209
0.0883192
0.0832152
0.00921385
0.0102848
0.0517433
0.0437764
0.156297
0.152881
0.0101107
0.0224257
0.0235914
0.0101456
0.010067
0.015556
0.0149914
0.0119448
0.0398963
0.0260848
0.0644158
0.0771979
0.154341
0.00970672
0.0675413
0.139065
0.0103392
0.0739909
0.0125506
0.12864
0.0156574
0.0107634
0.028224
0.036153
0.0122199
0.0195422
0.157425
0.0135903
0.0101271
0.094153
0.10275
0.0159959
0.0263279
0.171175
0.0589194
0.0117905
0.00958779
0.0291889
0.0130271
0.0264177
0.0281333
0.00920459
0.00920834
0.0415095
0.017704
0.0341639
0.0424583
0.0144222
0.0250256
0.166089
0.00925876
0.0259435
0.181175
0.0142427
0.0597556
0.0178008
0.178544
0.015103
0.0331709
0.0226743
0.0166441
0.0168235
0.0907355
0.0153578
0.0334359
0.0272912
0.145888
0.0151561
0.0424487
0.0101466
0.0221396
0.0928739
0.11626
0.0200534
0.105587
0.0658501
0.029786
0.11671
0.14766
0.0419064
0.0101318
0.0203884
0.0105601
0.164407
0.115979
0.155222
0.0114573
0.0996586
0.0294706
0.00935429
0.044264
0.00964746
0.0126429
0.0111575
0.123433
0.0156053
0.0243105
0.174954
0.0338157
0.20193
0.014723
0.0213547
0.127992
0.16828
0.0138899
0.170496
0.00938958
0.0420921
0.117029
0.0115091
0.059663
0.0505024
0.0282568
0.0171571
0.0279186
0.0120215
0.0249357
0.0113295
0.00892885
0.0226048
0.185631
0.156593
0.0824474
0.0624575
0.0144409
0.0437695
0.0145749
0.104908
0.0190408
0.0988774