/*--------------------------------*- C++ -*----------------------------------*\
| =========                 |                                                 |
| \\      /  F ield         | OpenFOAM: The Open Source CFD Toolbox           |
|  \\    /   O peration     | Version:  2406                                  |
|   \\  /    A nd           | Website:  www.openfoam.com                      |
|    \\/     M anipulation  |                                                 |
\*---------------------------------------------------------------------------*/
FoamFile
{
    version     2.0;
    format      ascii;
    arch        "LSB;label=32;scalar=64";
    class       volScalarField;
    location    "12";
    object      k;
}
// * * * * * * * * * * * * * * * * * * * * * * * * * * * * * * * * * * * * * //

dimensions      [0 2 -2 0 0 0 0];

internalField   nonuniform List<scalar> 
59516
(
0.00637052
0.00702482
0.00684909
0.00783089
0.0092069
0.0175562
0.00730592
0.00642306
0.0067179
0.00880375
0.00906107
0.00720751
0.00631047
0.0151346
0.00755926
0.00766523
0.00884196
0.00729915
0.00657817
0.00834057
0.00909594
0.00788237
0.00802427
0.0100975
0.00821045
0.00721244
0.00979906
0.00968103
0.00756236
0.0123987
0.00802106
0.00942349
0.00770286
0.00704813
0.0080767
0.00748056
0.0121927
0.00718815
0.00632045
0.00817479
0.00623936
0.00832081
0.00788877
0.00715746
0.00779698
0.00794042
0.00704928
0.00879507
0.0088907
0.00865541
0.00930392
0.00896965
0.00657451
0.00684715
0.0092015
0.00708661
0.00878289
0.0098124
0.00887516
0.00787686
0.00823582
0.0124484
0.00878342
0.00866058
0.00726959
0.00828645
0.0155146
0.00927143
0.00801176
0.00760467
0.0118773
0.00868812
0.0125628
0.00772492
0.00895418
0.0084173
0.00882008
0.00795421
0.00884223
0.00874727
0.00974753
0.0084994
0.00796936
0.0128659
0.00842597
0.00873396
0.0094325
0.00761518
0.0076736
0.00653643
0.00891371
0.00800043
0.00869722
0.00813195
0.00872811
0.00915157
0.00823061
0.00758771
0.00750846
0.00801494
0.00959145
0.0125319
0.0122475
0.00741695
0.00766293
0.00833192
0.0104209
0.00689829
0.00657234
0.00736451
0.00765511
0.0113419
0.00769786
0.00714996
0.00826279
0.00637923
0.00733714
0.00794331
0.0120484
0.00803114
0.00901738
0.00891727
0.0084394
0.00881782
0.0080343
0.00635702
0.0128073
0.0078849
0.0113391
0.00894906
0.00908397
0.0064699
0.0116122
0.00771432
0.00615825
0.00672372
0.00721264
0.00674993
0.0095037
0.00691611
0.00930205
0.00899854
0.0122485
0.0076171
0.0089542
0.00762899
0.00760169
0.0069313
0.020397
0.00650513
0.00646052
0.00903878
0.00847325
0.00808299
0.00636045
0.0124776
0.00691114
0.00647584
0.00614416
0.012111
0.00762067
0.00736471
0.0100548
0.0142145
0.00621367
0.00859155
0.00749924
0.00881541
0.0118147
0.00796654
0.00628519
0.00746384
0.00657458
0.00799026
0.00815157
0.00715022
0.00883165
0.00807103
0.00728131
0.00906192
0.00792791
0.0102769
0.0145755
0.00693398
0.00898107
0.0072615
0.0088551
0.0127953
0.0069775
0.00660418
0.00778536
0.00745514
0.00835461
0.00645539
0.00789538
0.00933507
0.00739416
0.00895474
0.00731156
0.00779693
0.00717193
0.00910437
0.00631327
0.0121424
0.00742729
0.00769974
0.00884
0.00862272
0.0129728
0.00697577
0.00853602
0.0124036
0.00793193
0.00781238
0.0068824
0.00879891
0.00759353
0.00825771
0.00780265
0.00838577
0.00781913
0.00705888
0.00892749
0.00967458
0.00891643
0.00876863
0.0111312
0.00878666
0.00880249
0.00757179
0.00875811
0.00884839
0.0090854
0.0110308
0.00972894
0.00883504
0.00691334
0.00635573
0.00839692
0.00820106
0.00907969
0.0125988
0.00727908
0.012993
0.00902472
0.00587995
0.00814827
0.00737669
0.0085693
0.00647203
0.00843208
0.00784474
0.00913212
0.00791908
0.00794225
0.00817417
0.0075915
0.00828432
0.00901164
0.00760661
0.00749841
0.0086663
0.00685605
0.00874794
0.00686512
0.0071699
0.00840931
0.00632602
0.00927307
0.00720671
0.00695368
0.00889929
0.00590336
0.00665729
0.0087269
0.00600109
0.0111257
0.00843832
0.0114051
0.00919733
0.00901406
0.00781255
0.0116542
0.00697853
0.00710991
0.00881671
0.00901693
0.0132078
0.00904552
0.00916592
0.00894564
0.00754671
0.00809207
0.0062978
0.00862083
0.0110366
0.00847626
0.00773782
0.00906741
0.00876283
0.00647488
0.00716765
0.012251
0.0102081
0.00822522
0.0125443
0.00769728
0.00812253
0.00860506
0.00845792
0.00783483
0.00719182
0.00651887
0.00989845
0.0076924
0.00871065
0.00637339
0.00911679
0.00662317
0.00881091
0.00788393
0.00660563
0.00899112
0.00900921
0.00909761
0.00841943
0.00679879
0.0073586
0.00879775
0.0086255
0.00857836
0.00715943
0.0117986
0.00829087
0.00836325
0.00936051
0.0085428
0.00820046
0.00717144
0.00886193
0.00871898
0.00905991
0.00886648
0.00917142
0.00819314
0.00904144
0.00768332
0.00902803
0.0089697
0.00772952
0.00734018
0.00839753
0.00799533
0.00668698
0.0105448
0.0094925
0.00637484
0.00794418
0.0122405
0.00654691
0.00704498
0.00697835
0.00910686
0.00801928
0.0072461
0.00833854
0.00842616
0.00950802
0.00799257
0.00771414
0.00888458
0.00956111
0.00875318
0.00643314
0.00843845
0.0116996
0.00747803
0.00940028
0.0088547
0.00722505
0.00732432
0.00604385
0.00911104
0.0128621
0.00757978
0.00774491
0.0117329
0.00747592
0.00715797
0.00737023
0.00688845
0.0069301
0.00838346
0.00830319
0.00907513
0.00678483
0.0072084
0.00757015
0.00894285
0.00881079
0.00717082
0.00705516
0.00667054
0.00895074
0.00893019
0.00883592
0.00757178
0.0077661
0.00805071
0.00840593
0.0126206
0.0114802
0.00734339
0.00889422
0.0090781
0.00962777
0.00905433
0.00580001
0.0090666
0.00879829
0.00889509
0.00896737
0.00890602
0.00625559
0.0090957
0.0070984
0.00867978
0.00664467
0.00847819
0.00893727
0.00775429
0.00795738
0.00853141
0.00978994
0.0116972
0.00895257
0.00897105
0.00774401
0.00742456
0.00937497
0.0122155
0.00706808
0.00826658
0.00896138
0.00816302
0.00736265
0.00896254
0.00726988
0.0115009
0.0071651
0.00770611
0.012987
0.00841245
0.00648604
0.00788252
0.0123354
0.00892044
0.00886781
0.00909072
0.00603831
0.00859997
0.00889861
0.00727425
0.00909633
0.00667393
0.00882002
0.00795271
0.0120043
0.00904056
0.00696375
0.00888217
0.00599345
0.00859112
0.00719033
0.00634456
0.0116066
0.00893974
0.00691269
0.00845838
0.00709191
0.00896258
0.00770259
0.0122259
0.00866985
0.00963091
0.00882055
0.0088791
0.00681152
0.00641928
0.00826943
0.00904
0.00905899
0.0131033
0.00857213
0.00913168
0.00968109
0.00709666
0.00718785
0.00834685
0.00902827
0.0145147
0.00752217
0.00716049
0.00691801
0.00904621
0.0114763
0.00816619
0.0083408
0.0089899
0.0137341
0.00846646
0.0110719
0.00842148
0.0124101
0.00669405
0.00853598
0.00721966
0.0119839
0.00970259
0.00840064
0.00759877
0.00777566
0.00787808
0.00698159
0.00858071
0.00895536
0.0110249
0.00604095
0.00806992
0.00884629
0.00749069
0.00896118
0.00813973
0.00747874
0.0091413
0.00820386
0.0089282
0.0092429
0.0125528
0.00798645
0.00906704
0.00768069
0.00732708
0.00882858
0.00803903
0.00851455
0.00711505
0.00913392
0.00713044
0.0110918
0.00794195
0.00914521
0.0115371
0.0078494
0.00858526
0.00771029
0.00905779
0.00702806
0.00734771
0.00882181
0.00638583
0.00901832
0.00890004
0.00895092
0.00909299
0.00901222
0.00778313
0.00894498
0.0086044
0.0104811
0.0086104
0.00881872
0.00871353
0.00887975
0.00653924
0.0118409
0.0088273
0.0071185
0.00859222
0.00617963
0.011275
0.00911079
0.00674174
0.0075307
0.00894589
0.00805003
0.0117215
0.0117714
0.00899082
0.00885919
0.00909323
0.00848635
0.00606622
0.0082843
0.00885568
0.0110256
0.00908016
0.00799465
0.00971057
0.00690389
0.00754936
0.00802589
0.00757578
0.00710155
0.00650469
0.00892011
0.00684241
0.0087191
0.00880609
0.0089907
0.0089069
0.00953011
0.00833807
0.0100006
0.0108668
0.00726689
0.0088639
0.00746788
0.00686531
0.00897261
0.00870737
0.00796208
0.00880192
0.00916441
0.00977677
0.00880329
0.00894857
0.0072186
0.00794226
0.00899651
0.00646995
0.00880717
0.00698276
0.0103173
0.0132818
0.0119297
0.00727512
0.00782222
0.0132811
0.0121658
0.00911186
0.0094293
0.00979902
0.00817704
0.00656598
0.00765936
0.00997292
0.00741423
0.00689267
0.00881362
0.00803146
0.010348
0.0113023
0.0102834
0.0120035
0.00728382
0.0116164
0.00697855
0.00904865
0.00867802
0.00880951
0.00626127
0.0090526
0.0124881
0.00896359
0.0119546
0.00874632
0.00923042
0.00833084
0.00789058
0.0120733
0.00725142
0.00823907
0.00923223
0.00876188
0.00783075
0.00639462
0.00904544
0.00940905
0.0117679
0.00862322
0.00866522
0.00648596
0.00758721
0.00548035
0.00970395
0.00904496
0.011673
0.00845903
0.00777897
0.00884993
0.0122218
0.00766027
0.00609626
0.00804444
0.00846004
0.00908192
0.00824562
0.0089448
0.0090437
0.00867275
0.00690628
0.00974315
0.00877199
0.00901639
0.00734707
0.00984158
0.00642318
0.00718258
0.0116942
0.00893643
0.0094394
0.00703481
0.0088354
0.00893871
0.00870123
0.00715081
0.00864684
0.00926831
0.00888386
0.00919426
0.00693617
0.00726553
0.00631609
0.00781911
0.00866951
0.00663611
0.00609837
0.0106069
0.00723577
0.0104868
0.00831055
0.00874748
0.00613181
0.00606617
0.012093
0.00640136
0.00791757
0.00898677
0.00892574
0.00934019
0.00852001
0.00619303
0.00966392
0.00752113
0.0139905
0.00894282
0.00774075
0.00785467
0.012724
0.00882174
0.00970183
0.00842275
0.00662984
0.0083514
0.0080933
0.00906047
0.00941113
0.00889085
0.00956946
0.00900624
0.00827103
0.00795775
0.00819397
0.0133709
0.00671926
0.00678876
0.00893658
0.00738069
0.00826889
0.00709091
0.0091025
0.0116794
0.00654785
0.008666
0.0114151
0.0084612
0.00722312
0.0116264
0.00699448
0.00893321
0.00704138
0.0125305
0.00656114
0.0106347
0.00592716
0.00882631
0.00906022
0.00885953
0.00849839
0.00890705
0.0065901
0.00925133
0.00883674
0.00719627
0.00626092
0.00672348
0.00855508
0.00635767
0.00696227
0.0081308
0.00930921
0.00614299
0.00664015
0.00740941
0.00837238
0.00829751
0.00719391
0.00966482
0.012801
0.00705846
0.0124458
0.00717982
0.00867398
0.00747289
0.00678326
0.00809424
0.00860578
0.0129854
0.00870301
0.00881402
0.00836133
0.0126761
0.00708429
0.00623956
0.011286
0.00844964
0.0124771
0.00895994
0.00836693
0.00758727
0.00842377
0.00833799
0.00647799
0.00906568
0.0136511
0.00950857
0.00658554
0.0069223
0.0126316
0.00819759
0.00826102
0.00873226
0.00885934
0.00645979
0.00843771
0.00904739
0.00675113
0.00917518
0.00871413
0.00629038
0.0100555
0.00855855
0.00912167
0.00850278
0.00619277
0.00701521
0.0062598
0.00640613
0.00684899
0.00653208
0.00714664
0.00673537
0.00877088
0.00891693
0.00947459
0.00747104
0.00672754
0.00719812
0.0100532
0.00804552
0.00707523
0.00764118
0.00736323
0.00903595
0.00805531
0.008997
0.00883444
0.0183136
0.00695955
0.00881658
0.0126317
0.00776356
0.00844722
0.0101
0.00820996
0.00899104
0.0064156
0.00886643
0.00907924
0.0087788
0.00737347
0.00960109
0.00945292
0.00602006
0.00885502
0.0114953
0.00752749
0.00708677
0.00700433
0.00861772
0.00827808
0.00876185
0.00893311
0.00832597
0.00664439
0.00888697
0.00832453
0.00841293
0.00685939
0.00690518
0.00840075
0.00906068
0.00891821
0.0101546
0.00903664
0.00646399
0.00691194
0.0105252
0.00724374
0.00598391
0.00890616
0.00810852
0.00871789
0.00879327
0.00875698
0.00905795
0.00886263
0.00878531
0.008762
0.00902167
0.00942984
0.00728883
0.00707526
0.00982438
0.00785102
0.00860007
0.00724165
0.0105275
0.00859926
0.00675799
0.00914021
0.00913496
0.00906096
0.00837428
0.00632304
0.00892238
0.0159083
0.00654453
0.0090305
0.00864002
0.00910549
0.00910232
0.00612087
0.00883847
0.00688242
0.00942422
0.00886646
0.00870435
0.00804499
0.00920087
0.00901319
0.00939706
0.00640688
0.00679152
0.00702304
0.00627983
0.00905304
0.0073548
0.00829692
0.00868505
0.00688012
0.00900999
0.0090265
0.00670593
0.00889171
0.00889318
0.00725097
0.00903119
0.00839458
0.00979443
0.00914101
0.00851309
0.0114444
0.00890457
0.00661834
0.00580296
0.00887683
0.0139118
0.00851608
0.00892772
0.00682614
0.0122308
0.00955749
0.0068637
0.008741
0.00745816
0.00727644
0.00646364
0.0122731
0.0061715
0.00876319
0.00863884
0.00915846
0.00903208
0.00670791
0.00846359
0.0089035
0.00651726
0.00797159
0.00973448
0.00716992
0.00851282
0.0090644
0.00683372
0.00849787
0.00605576
0.00676415
0.0116986
0.00741973
0.00664624
0.00943915
0.00748663
0.00940888
0.00864811
0.00624945
0.00895524
0.00979728
0.00901405
0.00677973
0.00737369
0.00627456
0.0079554
0.011775
0.00860459
0.00824678
0.00703981
0.0139846
0.00919607
0.0090193
0.00816603
0.009048
0.00676321
0.00725608
0.00835609
0.00960257
0.0070184
0.00898619
0.00792454
0.00765094
0.00757712
0.0127948
0.00649381
0.00831186
0.00898823
0.00989444
0.00827844
0.00674328
0.0101796
0.0085444
0.00852238
0.00888821
0.00826577
0.00664483
0.0105418
0.00856796
0.00795716
0.0127594
0.00897784
0.00839461
0.00856139
0.00658829
0.00861634
0.00755385
0.00886834
0.0106826
0.00750997
0.007056
0.00849486
0.00906678
0.00729877
0.00814368
0.00977022
0.00992425
0.00839473
0.00784366
0.0123037
0.0121005
0.00870675
0.00789098
0.00857934
0.00649101
0.00771414
0.00829108
0.00888211
0.00755516
0.00716328
0.00705973
0.00777617
0.00615785
0.00994598
0.012164
0.00886362
0.00657254
0.00621667
0.00868602
0.00854882
0.00970527
0.00858111
0.00892169
0.00957857
0.0124923
0.00890047
0.00884413
0.0103977
0.0123568
0.00894799
0.00668448
0.0127865
0.00624199
0.00896566
0.00866223
0.00892867
0.00756473
0.00851538
0.0115774
0.00889501
0.00899756
0.00891467
0.00654978
0.00852773
0.00731539
0.00747857
0.00886888
0.00809709
0.0135228
0.00809909
0.00736317
0.00627064
0.00837024
0.0125042
0.00902396
0.00896221
0.00690239
0.00879129
0.00683567
0.00787714
0.00967834
0.00832785
0.017989
0.00634095
0.00794739
0.00605806
0.00703014
0.0067319
0.00674782
0.00801685
0.00608553
0.00837855
0.00872821
0.00680108
0.00754688
0.0127157
0.00879712
0.0100277
0.00710751
0.00712079
0.0066182
0.0115404
0.00784469
0.00732117
0.0120712
0.0115832
0.00771524
0.00890747
0.00745604
0.00765512
0.0063786
0.00647184
0.00977906
0.00890961
0.0100052
0.00894013
0.00611876
0.00791961
0.00676236
0.00664324
0.00771396
0.0136662
0.00708964
0.0115655
0.00864975
0.00658565
0.011628
0.00900172
0.00659649
0.00734174
0.00640886
0.00639568
0.00990856
0.00782237
0.00966103
0.00907249
0.00916092
0.00759259
0.0062075
0.00999154
0.00848958
0.00976554
0.00871452
0.00866605
0.00886127
0.00837947
0.00848337
0.00870814
0.00846532
0.00858267
0.0101116
0.00932908
0.00875491
0.00617009
0.00756113
0.00906014
0.00727088
0.00753503
0.00636068
0.0123343
0.0140599
0.00776315
0.00852789
0.00867546
0.00744832
0.0112616
0.00894912
0.00805775
0.00732038
0.00744504
0.00909777
0.00851227
0.00859943
0.00881838
0.00899348
0.00838151
0.00767273
0.00730561
0.00693562
0.00677321
0.00603848
0.00668426
0.00903014
0.00786896
0.00988805
0.00725082
0.00878783
0.00756924
0.0080486
0.00628921
0.0087043
0.00815237
0.00675958
0.0088247
0.00862381
0.00850392
0.00840746
0.0114493
0.00893834
0.0089767
0.0124406
0.00647183
0.00722487
0.00896946
0.00773307
0.0127441
0.00687379
0.00795965
0.00635164
0.00874417
0.0067106
0.0128931
0.00700675
0.0123823
0.00580666
0.012639
0.00825242
0.00806346
0.00890496
0.012334
0.00790385
0.00579393
0.00813768
0.00736848
0.00763856
0.00632187
0.00909505
0.00988805
0.0089158
0.00777423
0.00740308
0.00735301
0.0110145
0.00844102
0.00885318
0.00789907
0.00730951
0.00642584
0.00613258
0.00632991
0.0116729
0.00952898
0.0109952
0.0067082
0.00911374
0.00905652
0.0119005
0.00745538
0.012407
0.008619
0.0127594
0.00856106
0.00916726
0.00776741
0.00752735
0.0090776
0.00915176
0.00783189
0.00896503
0.00839989
0.00698322
0.00960231
0.0087716
0.011931
0.00739304
0.00866179
0.00912763
0.00657658
0.00835646
0.0088475
0.00685496
0.00814758
0.00976504
0.00673725
0.00902677
0.00974067
0.00665197
0.00831172
0.00934417
0.0119962
0.0066056
0.00750096
0.0076266
0.0128409
0.00736365
0.0100028
0.011392
0.00955074
0.0126386
0.00649859
0.00615757
0.00896701
0.0123804
0.00889323
0.00736346
0.0080358
0.00639801
0.00883155
0.00939165
0.00843832
0.00952461
0.00639156
0.00909524
0.00723062
0.0128297
0.00723637
0.00640898
0.0124061
0.0093856
0.00764312
0.00659966
0.0110522
0.00840227
0.00801668
0.00905276
0.00873871
0.00919536
0.00688221
0.00682744
0.00828161
0.00772674
0.00752708
0.00884557
0.00635931
0.00838035
0.00743918
0.008396
0.00633782
0.00655666
0.00676998
0.0065761
0.00914096
0.00794601
0.00993222
0.00751957
0.0102487
0.0142899
0.00769014
0.007645
0.00800845
0.00901292
0.00846527
0.00714782
0.00630263
0.00646357
0.0131113
0.0126735
0.0121488
0.00739224
0.0117182
0.00835022
0.00929526
0.00707914
0.00995693
0.0114069
0.00912482
0.00717937
0.00879986
0.00689973
0.00880123
0.00959717
0.0095089
0.00711868
0.00832104
0.0128069
0.00713042
0.00757797
0.00701374
0.00894776
0.00801602
0.00897888
0.00632227
0.0063209
0.00679282
0.00832062
0.0089118
0.00839766
0.00999568
0.00647419
0.00900958
0.00764244
0.00755166
0.00579636
0.00785586
0.00857502
0.00715203
0.00734226
0.0110233
0.00798119
0.00819552
0.00929622
0.00614415
0.00670007
0.0069323
0.00629088
0.00817487
0.00633137
0.00679184
0.00875086
0.00665718
0.0086739
0.0119918
0.0108598
0.00732947
0.00613973
0.00800981
0.00723916
0.00649177
0.0117521
0.0077577
0.00699375
0.00811121
0.00604454
0.0101827
0.00761622
0.00824279
0.00719016
0.00708756
0.00659237
0.0119153
0.00687118
0.00941111
0.00639305
0.00895679
0.00759392
0.00795921
0.00847227
0.00924672
0.0118312
0.00704508
0.0135463
0.00825274
0.00874895
0.00644716
0.00859538
0.00645259
0.00680859
0.0113806
0.0065658
0.00672701
0.00903123
0.0120682
0.00869282
0.00712335
0.00648525
0.00723164
0.00968345
0.00889511
0.0112959
0.0084068
0.0068615
0.00780578
0.00702288
0.00899319
0.011944
0.0090941
0.00890491
0.00918098
0.00660622
0.00910996
0.00671087
0.00789769
0.0120285
0.0062662
0.00816474
0.00632798
0.00876643
0.00673154
0.0073634
0.0100644
0.0088941
0.0119507
0.00664891
0.00877646
0.00891605
0.00769759
0.0132508
0.0090306
0.00915456
0.00917148
0.00866218
0.00779773
0.0087459
0.0129244
0.00719544
0.00848658
0.00748597
0.00822026
0.00704336
0.00892097
0.00787645
0.00879209
0.00915263
0.00724345
0.00807785
0.00906091
0.00858781
0.00670826
0.00814536
0.00833928
0.00862994
0.0088234
0.00944821
0.00907043
0.00752542
0.0119026
0.00742627
0.00911941
0.00827946
0.0124703
0.00907218
0.00775095
0.0072326
0.00767437
0.00873216
0.0116651
0.00779267
0.00694584
0.00890448
0.00646078
0.0112457
0.00652958
0.00969709
0.00669711
0.00857375
0.00733535
0.00853872
0.008937
0.00854888
0.00867392
0.00896393
0.00845752
0.00889338
0.00764025
0.0109441
0.0128884
0.00766618
0.0134421
0.00633695
0.00665973
0.00623999
0.00901293
0.00710335
0.00947141
0.00894136
0.00715283
0.00629145
0.00840634
0.00718488
0.00901155
0.00639291
0.00688821
0.00915954
0.00744954
0.00667574
0.00633478
0.00811055
0.0122007
0.0117101
0.00887547
0.00711436
0.00878152
0.00683487
0.0147093
0.00913995
0.00703567
0.00898249
0.00865674
0.00956843
0.00800707
0.00869608
0.0102643
0.0106443
0.0090668
0.00679464
0.0126606
0.00817339
0.0085765
0.0125909
0.00676794
0.00886372
0.00909791
0.00811564
0.00881957
0.00780184
0.00879661
0.00668964
0.0065539
0.00889772
0.00814677
0.011889
0.00957142
0.00694398
0.00870893
0.00689928
0.0118853
0.0123665
0.00784579
0.0111816
0.00803751
0.00854434
0.00891188
0.00930765
0.00723755
0.00876502
0.00722956
0.00819242
0.00773304
0.00695606
0.0121226
0.0088211
0.0126191
0.0083501
0.0095083
0.00869144
0.00866219
0.00911625
0.00809058
0.00661617
0.00624712
0.00666095
0.00867387
0.00870823
0.00755688
0.00892835
0.00877518
0.00847104
0.00955592
0.00728289
0.0132867
0.00648213
0.00913852
0.00849672
0.00783834
0.009642
0.0119368
0.00600085
0.00799272
0.0120612
0.00819626
0.0114802
0.00741264
0.008762
0.00855022
0.00902612
0.00889879
0.00621747
0.00753909
0.00901567
0.00851332
0.00847105
0.00875926
0.00905673
0.00784479
0.00674421
0.00909742
0.0088293
0.00855181
0.00841037
0.00911683
0.0120652
0.00875767
0.00655846
0.00901871
0.00786991
0.00868355
0.00879903
0.00699358
0.00672061
0.00730894
0.00635856
0.00725551
0.00711473
0.0120031
0.00809325
0.00742938
0.00749578
0.00705719
0.0121057
0.00829514
0.00883702
0.0130444
0.00656475
0.00699723
0.00862127
0.0110421
0.0134643
0.0108598
0.00774408
0.00690723
0.012627
0.0117221
0.0147567
0.00629961
0.00869075
0.00820693
0.00851993
0.00746803
0.0118529
0.00811019
0.0071854
0.011906
0.0123179
0.0119095
0.00709944
0.0112729
0.00835293
0.00808229
0.00902124
0.00802318
0.00854497
0.00589316
0.0082198
0.00909194
0.00792878
0.00838596
0.00891075
0.00754339
0.00656181
0.00798733
0.00855607
0.0126883
0.00688267
0.00653819
0.00680146
0.00644148
0.00879808
0.00708054
0.00911186
0.0135568
0.00611081
0.00908552
0.00898357
0.00845219
0.00835399
0.00608494
0.00756754
0.00626801
0.00870478
0.00851661
0.00878832
0.00883137
0.00841911
0.008334
0.00868268
0.00709145
0.00681243
0.00808019
0.00660884
0.0070166
0.00779453
0.00769471
0.00906323
0.00586038
0.00765424
0.0122545
0.00877853
0.013961
0.00588661
0.0069824
0.00671616
0.00713165
0.00764124
0.00829696
0.00709924
0.0116265
0.00693319
0.00884712
0.00885163
0.0116547
0.00851164
0.0081851
0.0118284
0.00906477
0.00886024
0.009028
0.0113529
0.00951175
0.00734305
0.0090945
0.00895385
0.00794096
0.00630778
0.0081475
0.00752172
0.00655278
0.00943286
0.00892187
0.00769956
0.00791322
0.00691903
0.0081216
0.00883513
0.00722286
0.00708746
0.00781603
0.00865036
0.00838465
0.00891576
0.0119064
0.00888981
0.0120095
0.00800558
0.00815883
0.0085638
0.00856133
0.00754474
0.0126047
0.00792252
0.00915589
0.00890153
0.00763771
0.00864051
0.0100772
0.00667602
0.00853527
0.00875226
0.00669567
0.012332
0.00703992
0.00635571
0.0084402
0.00887534
0.00887119
0.00871164
0.00801585
0.00786315
0.0061651
0.00885556
0.00881038
0.00804721
0.00698882
0.0114016
0.0116252
0.00642526
0.00638093
0.00880044
0.00892824
0.011827
0.00685005
0.00755974
0.00749141
0.00662977
0.0084057
0.0078956
0.00774268
0.00892327
0.006364
0.00734845
0.00862046
0.00690632
0.00789565
0.0122835
0.00705754
0.00815585
0.00762603
0.00832135
0.00896867
0.0101491
0.00865299
0.00671105
0.00862173
0.00598011
0.00876814
0.00676119
0.00657583
0.00681891
0.0125134
0.00660045
0.00902379
0.00959335
0.00780768
0.0112278
0.00889521
0.00838275
0.00880355
0.00740284
0.00676461
0.0120357
0.00742687
0.00905012
0.00633297
0.00826708
0.0083159
0.00880378
0.00816748
0.00834829
0.00900401
0.00854767
0.00857795
0.00857387
0.00954572
0.00695512
0.00899864
0.00886602
0.00765039
0.00807827
0.00866047
0.00883868
0.0114349
0.00793109
0.011866
0.0089939
0.011992
0.00885031
0.00689958
0.00746842
0.00793465
0.00656868
0.0106951
0.00881281
0.0120916
0.010473
0.00805932
0.00761068
0.00618368
0.00734805
0.00836927
0.0121304
0.00733706
0.00934523
0.00884002
0.00876896
0.00712893
0.00812036
0.00648562
0.00717889
0.00892628
0.0111263
0.00764999
0.00848615
0.00908755
0.00806919
0.00888924
0.00881708
0.00695047
0.00897595
0.0079721
0.00888337
0.0072
0.00693785
0.00888133
0.00679101
0.00849638
0.00812506
0.00866405
0.00837192
0.00902066
0.00800634
0.00948471
0.00863056
0.00900988
0.00696276
0.00699914
0.00901332
0.012755
0.00860775
0.00889387
0.00636387
0.00698837
0.00878498
0.00640064
0.00867124
0.00860124
0.00667734
0.00717613
0.0075727
0.00720654
0.00912095
0.00912344
0.012788
0.00754476
0.0086831
0.00900253
0.00757486
0.0078795
0.00813998
0.00813352
0.00641577
0.00883807
0.0089614
0.00903967
0.0091706
0.0100864
0.0132808
0.0124632
0.00677266
0.00865889
0.00901353
0.00889736
0.00653971
0.00841396
0.0088644
0.0122684
0.00914566
0.00867267
0.00869662
0.00902447
0.00752586
0.00815254
0.00669232
0.0088128
0.00821769
0.00796864
0.00674034
0.00824247
0.00624212
0.0067008
0.0064845
0.00900783
0.00625243
0.00709844
0.00881732
0.00721108
0.00921895
0.00875254
0.00903773
0.00745673
0.00988167
0.00616398
0.00923453
0.00893246
0.00767656
0.00883034
0.00911462
0.0089618
0.00859261
0.00734255
0.00889522
0.00843622
0.00866136
0.00786829
0.0066169
0.00829566
0.00712514
0.00625571
0.007579
0.0089305
0.00688216
0.00889985
0.00765103
0.00642549
0.00674487
0.0116218
0.00694535
0.0115031
0.00670293
0.00802245
0.00781498
0.00873892
0.00828592
0.00978228
0.00947842
0.00853343
0.00564026
0.00788139
0.00720386
0.00894181
0.00875553
0.00710791
0.00830616
0.00681823
0.00853
0.00688634
0.00857448
0.00916973
0.00889292
0.00992834
0.00926907
0.00736161
0.00737553
0.00732049
0.00903572
0.00963775
0.00903145
0.00807234
0.00691967
0.00638449
0.00638704
0.00932489
0.00798874
0.0092079
0.00722326
0.00889967
0.00768888
0.00854367
0.00698082
0.0112731
0.00615336
0.00847491
0.013596
0.0125954
0.00816025
0.00662436
0.00886593
0.00733428
0.00898761
0.0107458
0.00661939
0.00667809
0.00835865
0.00863922
0.0122513
0.00749583
0.00863506
0.00869418
0.00795505
0.00726177
0.00875624
0.00847862
0.00869075
0.00766557
0.0120207
0.00646338
0.00742751
0.00814034
0.00996434
0.00653687
0.00801667
0.00653901
0.00597863
0.0119589
0.00719615
0.00684368
0.00883865
0.00778875
0.00824346
0.00772208
0.00838393
0.00719169
0.00893552
0.00748094
0.00735209
0.00801921
0.00871386
0.00782831
0.00818921
0.0086226
0.0084546
0.00770688
0.00981752
0.00784648
0.00913666
0.0111592
0.00686074
0.0107332
0.00766691
0.00680056
0.00959014
0.00815098
0.00877294
0.0115078
0.0118205
0.00983296
0.00913126
0.00875252
0.00703124
0.00889781
0.00706473
0.0076232
0.00863273
0.00898638
0.00847719
0.0123858
0.00746742
0.00614888
0.00645699
0.00833335
0.0112143
0.00918128
0.00752881
0.0118196
0.00900422
0.00959095
0.00726298
0.00648254
0.00906867
0.00906596
0.00862553
0.00942433
0.0115326
0.00968394
0.00788368
0.00686262
0.0113534
0.00704658
0.00639846
0.0115156
0.00635708
0.0106733
0.00707977
0.00774137
0.00902082
0.00847435
0.0134861
0.00658068
0.00979154
0.00888174
0.00824747
0.00707465
0.00856801
0.00644978
0.00657952
0.010776
0.00806338
0.00645731
0.00911375
0.00891798
0.00747316
0.0123856
0.00866584
0.00847941
0.00892532
0.00687314
0.00786849
0.0131585
0.0119899
0.00914869
0.00892603
0.0103535
0.00650394
0.0127452
0.00899828
0.00827875
0.00742244
0.00960539
0.00957831
0.00793845
0.00852531
0.00900869
0.00720773
0.00782829
0.00848942
0.00667742
0.00675369
0.00852307
0.00896469
0.00888584
0.013608
0.00830483
0.00669625
0.00754111
0.0106274
0.0089025
0.0087759
0.00650455
0.00839839
0.0134076
0.00662853
0.00721511
0.0122251
0.00829396
0.00851733
0.00790625
0.00840973
0.00876904
0.00877579
0.00889418
0.00726193
0.0118952
0.00860851
0.00862591
0.00724001
0.00801472
0.00862654
0.00861402
0.00884367
0.00766035
0.0114531
0.0086557
0.00794514
0.00764914
0.00862333
0.00755091
0.00748165
0.00779197
0.00702483
0.00822017
0.00920184
0.00623975
0.00849234
0.00751297
0.00960835
0.00792213
0.00853639
0.00823247
0.00864152
0.0100744
0.00649359
0.0078395
0.00802028
0.0122606
0.0062073
0.00864244
0.00877311
0.00821394
0.00798722
0.00685077
0.00907845
0.00762947
0.00870691
0.00643379
0.0122687
0.0130311
0.00714098
0.00644574
0.00834046
0.00846027
0.00882917
0.00851858
0.00897091
0.00860287
0.00828564
0.00885627
0.00701226
0.00850043
0.00848348
0.00658335
0.0087622
0.00607694
0.0111386
0.00695511
0.00787392
0.00751375
0.00674705
0.00723926
0.00653405
0.0094989
0.00768824
0.00844166
0.00806702
0.00657226
0.00896005
0.00871437
0.00616758
0.01287
0.00775517
0.00958795
0.00690489
0.00818575
0.00777354
0.00746196
0.00600224
0.00912094
0.0124419
0.0128391
0.00890915
0.0094977
0.00825555
0.00855185
0.00900252
0.009009
0.00617449
0.00870125
0.00706557
0.0072173
0.00630074
0.00898206
0.0086338
0.0120904
0.00852223
0.00913237
0.0127188
0.00807007
0.00676504
0.00857409
0.00861962
0.00880473
0.00666406
0.00614009
0.00816756
0.00849051
0.00780331
0.00803609
0.010798
0.00734987
0.00808923
0.00696136
0.00897928
0.00603956
0.00655182
0.00813591
0.00854494
0.00835007
0.00655224
0.00643121
0.0069462
0.00697033
0.00779309
0.00674103
0.00648449
0.00978368
0.00788188
0.00751696
0.00794784
0.00884839
0.00759568
0.00869516
0.00921878
0.00678319
0.00728621
0.00807835
0.00813391
0.00589921
0.00902613
0.00886601
0.00742338
0.0113925
0.00615444
0.00840829
0.00878683
0.00700821
0.0086802
0.00656797
0.00678156
0.00656917
0.00667499
0.00777269
0.00831429
0.0127838
0.00765747
0.00835698
0.00861312
0.00661659
0.00803754
0.00833988
0.0129592
0.00904695
0.009139
0.00746809
0.00875564
0.00852269
0.0072571
0.00646478
0.00656053
0.00890922
0.0116905
0.00873611
0.00856791
0.0108174
0.008707
0.00765437
0.0078817
0.00800428
0.00619575
0.00733956
0.00740446
0.00781493
0.0125639
0.00812416
0.00638699
0.0093665
0.00848842
0.00709293
0.00621745
0.0115527
0.0100492
0.00607429
0.00739424
0.00709497
0.00776245
0.00736187
0.0093078
0.0104091
0.00688183
0.0123041
0.00819809
0.0076625
0.0113804
0.00794072
0.00824785
0.00728556
0.00787257
0.00892892
0.00991019
0.0101956
0.00741293
0.00829903
0.00730404
0.00777896
0.00803849
0.00598907
0.0072145
0.00721127
0.00659976
0.00899549
0.00626946
0.00883787
0.00829095
0.00693816
0.00865887
0.0144458
0.00719973
0.00678438
0.00828518
0.0106464
0.00644147
0.0138387
0.00685752
0.00682725
0.00875568
0.00856242
0.0060267
0.00823083
0.00893729
0.00890438
0.0085311
0.00631482
0.00904076
0.00720942
0.00827424
0.00764725
0.00727572
0.00840283
0.00728807
0.00865762
0.00855033
0.00699956
0.00748055
0.00682019
0.0126154
0.0083836
0.0132122
0.00901543
0.00666075
0.00839028
0.00746378
0.0106529
0.00869221
0.00846635
0.00633752
0.00693252
0.00649462
0.00954613
0.00803131
0.00626717
0.00751783
0.00631196
0.00905547
0.00798424
0.0117539
0.00770036
0.00910267
0.00641021
0.011993
0.00802923
0.00800199
0.0075228
0.00596193
0.0070835
0.00800083
0.00616442
0.00804819
0.00887145
0.00898269
0.0126867
0.00833523
0.0109589
0.00866333
0.00638778
0.00818374
0.00891606
0.00796404
0.00868888
0.00855408
0.00889896
0.00689106
0.0121058
0.0119969
0.00759823
0.012002
0.00836518
0.0093398
0.00871949
0.00754421
0.00720624
0.00884467
0.0104086
0.0078979
0.00765935
0.00786917
0.00953776
0.00829195
0.00576076
0.00762732
0.00685591
0.00893187
0.00991405
0.00815809
0.00778415
0.0083646
0.00692457
0.00734631
0.00882641
0.00863584
0.00593256
0.00682274
0.00786608
0.00893312
0.00863325
0.00606082
0.00596566
0.00784423
0.00821337
0.00856318
0.00876246
0.00895218
0.00639838
0.00687053
0.0089719
0.0124142
0.00950216
0.00741335
0.00822659
0.00904015
0.00968616
0.0090683
0.00901089
0.00641978
0.00896141
0.00951162
0.00899567
0.00879721
0.00876154
0.00732775
0.00622331
0.00978158
0.0117108
0.00686731
0.0124416
0.007514
0.0097118
0.00706186
0.00768992
0.00858991
0.0136544
0.0137549