/*--------------------------------*- C++ -*----------------------------------*\
| =========                 |                                                 |
| \\      /  F ield         | OpenFOAM: The Open Source CFD Toolbox           |
|  \\    /   O peration     | Version:  2406                                  |
|   \\  /    A nd           | Website:  www.openfoam.com                      |
|    \\/     M anipulation  |                                                 |
\*---------------------------------------------------------------------------*/
FoamFile
{
    version     2.0;
    format      ascii;
    arch        "LSB;label=32;scalar=64";
    class       volVectorField;
    location    "12";
    object      momentum:angularVelocity;
}
// * * * * * * * * * * * * * * * * * * * * * * * * * * * * * * * * * * * * * //

dimensions      [0 1 -1 0 0 0 0];

internalField   nonuniform List<vector> 
59516
(
(0.000519843 -0.000660734 0.108734)
(0.000204486 0.000559352 0.0937407)
(-0.000920043 0.000812545 0.10553)
(-0.0014954 0.000885174 0.110025)
(-0.00375103 -0.000301194 0.107057)
(-0.00990852 0.00584903 0.101192)
(-0.00032012 -0.000303416 0.120587)
(0.00438853 -0.000748223 0.0991451)
(0.000448419 -0.00527651 0.105294)
(0.00275604 0.000801313 0.0544896)
(0.00060712 -0.000500187 0.121447)
(-0.00319597 -0.00323919 0.0640813)
(-0.00366319 0.00128431 0.110912)
(0.00112889 0.000428678 0.0261763)
(0.000836892 -0.00493289 0.0639733)
(-0.0048595 0.00783975 0.0490014)
(-0.000646495 0.000117957 0.125859)
(-0.004372 -0.00115968 0.0630971)
(-0.0032134 0.00118173 0.110536)
(-0.00165161 0.000615833 0.12574)
(-0.00109798 0.00124094 0.0582452)
(0.000714059 -0.00108905 0.124801)
(-0.000448625 0.000460857 0.125007)
(0.00421353 -0.000666895 0.0363882)
(1.5211e-05 0.000806673 0.129507)
(-0.00385815 0.0029841 0.0607897)
(0.00136792 0.00154977 0.0437053)
(-0.00435637 -0.0037511 0.046883)
(-0.00219955 0.0012174 0.0679886)
(0.00221108 0.00429815 0.0197423)
(-0.020159 0.000626409 0.103081)
(-0.00405362 0.00269232 0.0480401)
(-0.000651144 -0.000313481 0.114843)
(-0.00349991 -6.83307e-06 0.0993705)
(0.00033114 -0.00212981 0.118293)
(0.00115448 -0.000676985 0.123367)
(-0.00701217 0.000824446 0.0158176)
(-0.00585229 -0.00392214 0.0631823)
(-0.00296748 0.00107158 0.0988433)
(0.00266093 -0.00136895 0.1247)
(0.00173325 -0.00204652 0.0964293)
(-0.000907001 -0.00157891 0.125016)
(0.00119622 -0.000681376 0.125043)
(-0.00287437 0.00201081 0.0985582)
(0.000963416 0.000993049 0.126877)
(0.00664039 -0.000587042 0.0513077)
(-0.00227291 -0.00288343 0.118148)
(0.000902851 -0.000275781 0.126822)
(-0.0149341 0.00239582 0.107056)
(-0.00138569 -0.000669043 0.121016)
(-0.0202712 0.000700544 0.102828)
(-0.00510609 -0.0033521 0.0398819)
(-0.000909395 -0.0003949 0.108139)
(-0.000973795 -0.000761113 0.115031)
(-0.00779949 0.000676532 0.0496848)
(0.000312636 0.00112118 0.119265)
(-0.00490928 -0.000302662 0.119713)
(-0.00858828 -0.00110411 0.0486077)
(0.00233688 0.00199104 0.123741)
(-0.004017 -0.000785828 0.1168)
(0.00045644 0.000202001 0.119966)
(-0.00483188 0.00255411 0.0174814)
(0.0011715 -0.00107376 0.120249)
(0.000919676 0.000336575 0.120944)
(-0.00041778 0.00160764 0.116924)
(0.000145334 2.71095e-06 0.119443)
(0.000131909 0.00502309 0.0330096)
(-0.00242532 0.00046477 0.0415171)
(-0.0207277 0.00163721 0.113344)
(-2.03951e-06 -0.000206816 0.119055)
(-0.00334223 -0.00183623 0.0424061)
(-0.000676573 -0.000387953 0.124067)
(0.0061593 -0.00425542 0.0219121)
(0.00206739 -0.000559787 0.122239)
(-0.00124398 0.000636442 0.123356)
(0.000487496 -0.000623633 0.126059)
(0.000625771 0.000215775 0.125949)
(-0.00200542 -0.00188359 0.122694)
(0.00695962 0.00306359 0.0450315)
(-0.00198334 0.00017128 0.119167)
(-0.00877242 -0.00076721 0.0363472)
(-0.000521082 -0.000211845 0.118686)
(-0.000550686 0.000319438 0.1185)
(-0.00565167 0.00319889 0.0229007)
(-0.000343802 -0.000462997 0.1195)
(-0.00151643 0.000774594 0.124038)
(0.000318698 0.0030567 0.0322354)
(-0.000538183 0.00216482 0.124185)
(-0.00895392 -0.00446236 0.0500476)
(-0.00748676 -0.00526973 0.100796)
(-0.00582103 -0.000905968 0.115595)
(-0.00303208 0.000375765 0.114006)
(0.00100824 0.000238924 0.127139)
(0.00124102 -0.00030904 0.113675)
(8.08818e-05 -0.000960524 0.118249)
(-0.0103066 0.00136405 0.106246)
(-0.00220655 -0.00136967 0.121662)
(0.00536729 0.00547787 0.0537514)
(-0.00259196 -0.00217043 0.067181)
(0.000755164 3.74592e-05 0.12126)
(-0.00331001 0.000406784 0.0318705)
(0.00359981 0.00118753 0.0253049)
(0.00481416 0.00449316 0.0253403)
(-0.00373153 0.00114055 0.056982)
(0.0010758 -0.000496445 0.113465)
(-0.000929984 0.00021866 0.115624)
(0.00476197 -0.00652903 0.045001)
(0.000617758 0.000103936 0.102652)
(-0.00212204 0.000329187 0.0991864)
(-0.00412859 0.00373154 0.0668118)
(-0.0130922 -0.00135357 0.1128)
(0.00494898 -0.00565606 0.0287618)
(-0.00397451 0.00179107 0.0671078)
(-0.0154292 -0.000382496 0.107446)
(-0.000710248 0.00100984 0.123543)
(-0.00145338 -0.000908065 0.098112)
(-0.0046401 -0.00141941 0.0516952)
(-0.0010214 0.000520548 0.117025)
(0.00366106 -0.00158129 0.0229896)
(-0.000454364 0.00135257 0.118954)
(-0.00120623 -0.0015269 0.126375)
(0.00128921 0.00120254 0.124106)
(-0.000964327 -0.00126907 0.12615)
(0.000555238 0.00109901 0.122671)
(-0.00908633 0.00211118 0.120122)
(-0.0039392 0.000569757 0.087026)
(-0.00395415 -0.00073421 0.0348043)
(-0.00409624 0.00198975 0.124647)
(-0.0115357 0.00313418 0.0855325)
(0.000699037 0.000983563 0.123697)
(0.00221199 -0.00119909 0.124206)
(0.00155119 0.000769469 0.110368)
(-0.000512868 -0.00405082 0.0236036)
(0.000999258 8.48558e-06 0.124748)
(0.000538062 0.000533443 0.100637)
(-0.000425257 0.00119812 0.108168)
(-0.0112945 0.00173012 0.0994022)
(0.00106443 0.000363292 0.120931)
(-0.00173588 0.00250863 0.0393357)
(-0.00224373 0.00197485 0.101604)
(-0.00173357 0.0030052 0.042424)
(-0.000511703 0.000568908 0.124255)
(0.000575185 -0.00207101 0.0192883)
(-0.000530049 -0.000435798 0.111494)
(-0.000874852 0.000456872 0.12131)
(-0.00127591 0.000406877 0.121225)
(6.49019e-05 -0.000212842 0.125752)
(-0.00374555 0.00163608 0.113689)
(0.00222415 -0.00261608 0.0610082)
(0.000775492 0.000236815 0.106268)
(-0.00208304 0.000629432 0.105919)
(9.09636e-05 0.000706899 0.0349236)
(0.00148982 0.00106994 0.127051)
(0.000880066 -0.00171553 0.121815)
(-0.000269019 -0.00119563 0.092248)
(-0.0018851 0.0025372 0.0211541)
(0.000884038 0.000728309 0.109035)
(-0.00154925 -0.000102121 0.11303)
(-0.00295005 0.000324881 0.08794)
(-0.00478161 -0.00410117 0.0217348)
(0.0035885 -0.00030853 0.0698392)
(0.00542522 1.25427e-05 0.0734231)
(-0.00276139 0.00110727 0.0388118)
(-0.000954238 -0.000803164 0.0299253)
(0.00223306 0.00194309 0.097512)
(-0.00151675 0.000376201 0.125817)
(0.00299977 0.00191522 0.0552787)
(4.78433e-05 -0.00119769 0.124581)
(0.000638372 0.00435474 0.0239529)
(0.000788322 2.37783e-05 0.109971)
(-0.00310078 -0.0009597 0.0888717)
(-0.00142334 0.00107635 0.0560636)
(-0.000183975 -0.000625738 0.067035)
(-8.4077e-06 3.92985e-06 0.118103)
(0.000344237 0.00153326 0.0514728)
(-0.00124464 -0.00319785 0.119996)
(-0.000380886 3.46162e-05 0.12239)
(0.000496178 0.000317342 0.127681)
(0.00301936 -0.00159802 0.0674571)
(-0.000277992 0.00146128 0.0421096)
(0.00012781 -0.0020077 0.124041)
(0.00327119 0.00486082 0.0336359)
(-0.0054785 -0.00331317 0.0330316)
(-0.00200988 0.00319338 0.0641957)
(0.000537631 -0.00117219 0.124142)
(-0.000257433 -0.000502078 0.0552397)
(-0.00497207 0.000893157 0.0310227)
(-0.000210732 0.000925772 0.0215448)
(-0.00058357 -0.00236228 0.113779)
(-0.000300307 -0.000622194 0.100695)
(-0.00161985 -0.000155526 0.111417)
(-7.97974e-05 -0.004837 0.0498128)
(-0.00125115 0.000919942 0.126645)
(0.00373688 -0.00238673 0.0601967)
(-0.000117727 0.00210021 0.125924)
(0.00304557 0.000971498 0.0269604)
(0.000521964 -0.0019363 0.0555474)
(0.00190535 -0.000423676 0.0392132)
(-0.00281395 -0.000255304 0.103002)
(0.000492263 0.00107324 0.124088)
(-0.00207369 -0.00305611 0.0750652)
(0.00136395 0.00155775 0.12331)
(-0.000326953 3.86382e-05 0.100819)
(0.0024279 -0.00400847 0.0194132)
(0.00189664 0.000799272 0.119659)
(-0.00125187 -0.00037387 0.122918)
(0.00135671 0.000234299 0.124414)
(-0.0013756 0.00227633 0.114703)
(-0.000425487 0.000622446 0.0252255)
(-0.000237127 0.000452495 0.110082)
(0.00138736 0.0073251 0.0460076)
(-0.00415173 0.00194402 0.0256697)
(-0.0021201 0.00143957 0.12555)
(-0.000544201 0.000216986 0.0539894)
(-0.00148435 -0.000384719 0.112473)
(-0.00159141 -0.000433854 0.12302)
(-0.000300136 -0.000141724 0.12146)
(-0.000155804 -0.000149825 0.127391)
(-0.00445115 0.00258648 0.0534904)
(0.000653967 -0.000454735 0.12848)
(-0.00128379 -0.00340264 0.0575116)
(0.00100028 0.000977845 0.101217)
(-0.000355184 -0.00118229 0.121785)
(0.00327002 0.000117323 0.0421257)
(-0.00138791 -0.000993077 0.120086)
(-0.000406739 0.000927381 0.122443)
(0.00166152 -0.0005492 0.0273878)
(-0.00646454 -0.000357396 0.049022)
(-0.00208029 0.000859325 0.120876)
(-0.00473711 0.00376545 0.0489778)
(-0.000317545 0.00104924 0.127967)
(-0.00111682 -5.85476e-05 0.122567)
(7.53591e-06 -0.00043464 0.120212)
(-0.00306741 -0.0034013 0.0221583)
(-0.00433391 -0.00206172 0.0311548)
(-0.00107511 0.00180136 0.0369234)
(0.00300256 -9.08939e-05 0.0640575)
(-0.0019078 -0.00130268 0.0897595)
(-2.54166e-05 -0.00163922 0.121554)
(0.00629866 0.00150948 0.0550405)
(0.00159707 0.000434691 0.122253)
(0.00457072 0.00406911 0.021401)
(0.00152457 0.000759596 0.049049)
(0.00300128 0.000895153 0.02694)
(0.000849514 0.000794557 0.122618)
(0.000449937 -0.000957237 0.0973662)
(0.000402331 -0.00128766 0.121527)
(0.000793673 0.00345187 0.0638713)
(0.000964672 0.00108211 0.128128)
(-0.000122724 0.00128224 0.102308)
(0.00185729 -0.000856799 0.126)
(-0.000286175 0.000357537 0.119693)
(0.00122665 0.00160767 0.121839)
(0.000476441 0.000115362 0.11888)
(0.000107858 0.000548408 0.121831)
(-0.000515438 0.000169052 0.124076)
(-0.00343352 -0.00119196 0.0519784)
(-0.000875458 -0.0019442 0.121846)
(0.00192696 0.0028525 0.0425231)
(-3.55044e-05 0.00245578 0.0589412)
(-0.000384585 0.000235329 0.116614)
(-0.000144282 0.000786882 0.123479)
(0.000320892 0.00133265 0.113627)
(-0.00123855 0.00107994 0.124755)
(0.0021079 0.00220618 0.0984019)
(-0.000492914 -0.0049233 0.0509072)
(0.00171885 0.000922453 0.125942)
(-0.00228307 0.00225058 0.0897683)
(0.000596632 0.00146063 0.0465746)
(0.00153331 0.000594812 0.0537825)
(-0.00441513 0.00139974 0.0982978)
(-0.000398464 -0.000799661 0.121794)
(-0.000214538 0.00212363 0.0950202)
(0.000626681 0.0023886 0.0927603)
(-0.00184777 0.00115822 0.124342)
(-0.00075029 0.0039861 0.0928279)
(-0.00155181 -0.00505293 0.0222201)
(-9.09105e-06 0.000702432 0.126317)
(0.00309543 -0.00298289 0.0268111)
(0.00545219 0.00205862 0.0388667)
(0.000758304 -0.00112391 0.118745)
(0.000613756 0.00145182 0.118974)
(-0.00531299 0.00276291 0.0232887)
(-0.00244622 -3.13676e-05 0.11543)
(-0.00149106 -0.00199048 0.117647)
(0.000800322 -0.000678325 0.122582)
(-0.00015471 -5.12445e-05 0.122381)
(0.00191401 -0.00361155 0.0264779)
(-0.00210436 -0.000528615 0.119432)
(-0.000440687 -0.00211409 0.118128)
(0.000660917 -0.00105419 0.122021)
(-8.36495e-05 -0.00257761 0.116483)
(-0.00139791 4.62758e-05 0.11333)
(-0.000327898 0.000840261 0.0898666)
(-0.000238143 0.000192644 0.127877)
(-0.00208465 0.00336019 0.0253034)
(0.00083954 -0.00109096 0.11923)
(0.000947591 -0.000808803 0.125847)
(6.70791e-05 -0.00181739 0.122847)
(-0.000460858 -0.00138135 0.117601)
(-0.000230971 0.000809019 0.111574)
(0.00374975 -0.00141081 0.0539009)
(0.00153316 -0.00150698 0.0217866)
(0.00196419 -9.62559e-05 0.0274403)
(-0.000266171 0.00081712 0.126883)
(-0.00574932 0.00399766 0.0215149)
(-0.00139787 -0.002379 0.0589474)
(-0.00155279 0.00493914 0.0511027)
(0.000326136 0.000302986 0.125195)
(-0.000267059 -0.000525023 0.126762)
(0.000468918 7.92503e-05 0.126816)
(0.00299301 0.000833462 0.0581578)
(0.00127719 -8.29965e-05 0.0931463)
(-0.00134295 0.0054967 0.0388881)
(0.00202526 -0.00237567 0.0582495)
(0.000902608 -0.00157794 0.1175)
(0.00167595 -0.00380822 0.0977976)
(-0.0149607 -0.0020043 0.105857)
(-0.00210685 -0.00141078 0.0866407)
(-0.00284575 -0.000154639 0.0390594)
(0.00280496 0.00135605 0.0617736)
(-0.000534796 0.00064124 0.103927)
(0.000774405 0.00094472 0.124369)
(-0.00286873 0.000131542 0.126073)
(-0.000310182 0.00143968 0.125591)
(0.000891336 0.00186482 0.125598)
(-0.000902007 -0.00426773 0.093574)
(-0.00121247 0.00157218 0.110706)
(-0.00019784 0.00125367 0.119001)
(-0.000912569 -0.00175276 0.125587)
(7.19508e-05 0.000105096 0.124565)
(-0.00249022 -0.00185216 0.0607218)
(0.00179896 -0.00178642 0.0237267)
(-0.000565831 -0.00119092 0.123222)
(0.00164776 0.00295244 0.0374397)
(-0.00123585 -0.000356416 0.0330798)
(-0.00082358 -0.00134389 0.121409)
(0.00108723 -0.000297657 0.120643)
(-0.0018005 0.00285171 0.060701)
(-0.00105565 0.000237901 0.124341)
(6.83349e-05 0.00142939 0.12552)
(-0.000386529 -0.0011464 0.122492)
(0.00120141 -0.000492327 0.124927)
(0.00208942 -0.00384855 0.0278001)
(0.000478477 0.000268797 0.125755)
(0.000121854 0.00017872 0.122213)
(-0.000268825 0.000914968 0.0518258)
(0.000737002 -0.00072092 0.122606)
(0.000943858 0.000515443 0.12337)
(0.00161572 0.00214828 0.118099)
(0.000546236 -8.43776e-06 0.111916)
(0.0012696 0.000222882 0.120672)
(0.000682866 0.00254342 0.120542)
(-0.00057136 0.00303322 0.0724618)
(0.00019219 0.000245044 0.0329545)
(0.00425543 0.00494468 0.0299041)
(-0.00106275 0.00160652 0.092023)
(-0.00842031 0.00207109 0.0759165)
(-0.00377353 0.000631948 0.0686872)
(-0.000100752 0.00167305 0.0825702)
(-0.000479814 -0.00182872 0.106877)
(-0.000920225 -0.000786195 0.12184)
(-0.000779462 0.000785192 0.12014)
(0.000922909 -0.0021247 0.12905)
(0.000183289 -0.000558673 0.118533)
(-0.000211042 -0.000108056 0.122094)
(-0.000815215 0.000667792 0.121279)
(-0.000746802 0.00342561 0.035853)
(-0.020484 0.00191542 0.108266)
(0.00026638 0.00390026 0.0626216)
(-0.00318848 0.00330565 0.0384349)
(0.00647581 -0.000178717 0.0387733)
(0.0002154 -0.00188085 0.125687)
(-0.00216259 -0.00135064 0.094276)
(-0.00077225 -0.000483015 0.125715)
(-0.00251322 0.00211469 0.0223019)
(0.000917918 0.000909988 0.116899)
(0.00318494 -0.00237144 0.0508567)
(-0.000421803 0.000925826 0.124854)
(-0.000560942 0.00340075 0.0496193)
(0.000422614 0.000144612 0.0659431)
(0.00096965 0.000381388 0.104452)
(0.000540547 0.000767855 0.121384)
(0.00384697 0.000398393 0.0223697)
(-0.00129708 0.00361618 0.0549609)
(-0.000196778 0.000261158 0.116829)
(0.000418551 -0.00338497 0.0235657)
(-0.00284707 -0.00074699 0.114056)
(0.00121479 -0.00130198 0.108805)
(0.0012269 -0.000114917 0.117238)
(0.00297815 -0.000137393 0.094425)
(0.00138086 0.000502592 0.0867391)
(0.000269186 -0.000836546 0.130663)
(-0.00938508 -0.00381797 0.0698995)
(-0.00208236 -0.000527528 0.123593)
(-0.0094775 0.000553999 0.0982723)
(0.000262849 -0.000982324 0.0602919)
(-0.000764226 0.00437104 0.0637253)
(0.000188713 -0.000228792 0.124047)
(0.000700547 -0.00127683 0.127994)
(0.000601095 0.0023289 0.0539678)
(0.00131323 -0.00170041 0.121122)
(-0.00199812 0.00188174 0.0976438)
(0.000914422 0.000346067 0.124681)
(0.00122997 0.000223095 0.124147)
(-0.000520802 -0.00453871 0.0393795)
(0.000188227 4.5399e-05 0.115617)
(0.00132681 0.00142451 0.124735)
(0.000350349 -0.000248292 0.124781)
(-0.00031242 0.00032625 0.127826)
(0.00679282 -0.00263871 0.0186812)
(-0.00441604 -0.00286161 0.0208561)
(7.99838e-05 0.000799209 0.111523)
(0.000907489 0.000110586 0.123832)
(-0.000218587 0.000970697 0.124278)
(-0.00255093 0.00213724 0.0372622)
(-0.000148618 0.000876082 0.121498)
(-0.000830917 0.00263391 0.104024)
(-0.00121787 0.000639788 0.118286)
(0.00137387 -0.000467715 0.127079)
(0.000713217 -0.00102387 0.123933)
(0.00021174 -0.00177226 0.126268)
(0.000442326 -0.00142422 0.126364)
(-0.000592742 -0.000335815 0.0915677)
(-0.000924383 -4.15104e-05 0.121914)
(-0.00436043 0.00254887 0.0580823)
(0.00101456 0.00197577 0.12479)
(0.00203033 -0.00272212 0.103859)
(-0.000501885 0.000943542 0.119882)
(0.000615968 0.000214023 0.122432)
(-0.000992997 -0.00178465 0.123994)
(0.000250714 0.00106591 0.12036)
(0.00316148 0.00332222 0.04077)
(0.00199509 0.00105951 0.029391)
(-0.00212877 -0.00473343 0.0238694)
(-0.00174431 -0.000309557 0.119283)
(9.3348e-06 -6.27557e-05 0.125904)
(-0.000587735 0.000671076 0.118234)
(-0.000926084 -0.00309356 0.115026)
(0.00223321 -0.00249958 0.0288778)
(-0.00288857 -0.0042187 0.0250922)
(-0.00145795 -0.00336222 0.108172)
(0.000658165 0.0020821 0.122153)
(-0.00147683 0.00100893 0.12421)
(0.00144451 -0.00103228 0.127697)
(-0.000409647 -0.000473195 0.124946)
(-0.00176859 0.00125695 0.122553)
(0.000526962 -6.83636e-05 0.121563)
(5.55694e-05 0.00310052 0.0280236)
(-0.000719632 0.000691867 0.113248)
(0.00269239 -0.00147863 0.0563436)
(-0.00574414 -0.000690805 0.064232)
(0.00102741 -0.00103721 0.121242)
(-0.0010461 0.0055934 0.0942008)
(0.00129551 -0.000471608 0.123709)
(-0.00664691 0.00317312 0.0214647)
(0.00252711 -0.00144862 0.129779)
(-0.000509802 -0.000141758 0.126688)
(-0.000981407 5.03774e-05 0.121337)
(0.00131194 -0.000988029 0.0887346)
(0.00025945 -0.000596873 0.119539)
(-0.00156604 0.000210325 0.119381)
(0.000140837 -0.00114361 0.106127)
(1.34057e-06 -0.000177229 0.121185)
(-0.00539825 -0.00134074 0.0969079)
(0.00031236 0.00176157 0.125541)
(-0.0016567 0.000143641 0.122305)
(-0.00116733 -0.000542069 0.0205528)
(-0.00118495 0.000982193 0.124845)
(0.00102809 0.00121846 0.103777)
(-0.00593868 -0.00319974 0.0423475)
(-0.000447634 -0.00076364 0.095002)
(-5.74595e-05 0.000735858 0.122259)
(0.000335629 0.000189898 0.114717)
(-0.000130263 0.00223017 0.0849622)
(-0.00417111 0.00287864 0.0197779)
(-0.000531435 -0.000202 0.124661)
(-0.00101955 0.0030793 0.110496)
(4.31503e-05 -0.000798146 0.12593)
(-0.000105243 0.000499895 0.113103)
(-0.00618174 -2.26679e-05 0.0324981)
(0.000310873 -1.83941e-05 0.116261)
(-0.00464334 -0.00171031 0.027752)
(-0.000691503 0.000344528 0.123468)
(-0.0125267 -0.000181053 0.10199)
(-0.00130067 -0.000192119 0.124328)
(-0.000833892 0.00123682 0.0548895)
(-0.00211051 -0.000535378 0.101388)
(-0.00212972 0.000613325 0.0946634)
(0.00378607 -0.00281331 0.0345164)
(0.00186292 -0.000188841 0.117979)
(-0.0013996 0.00154019 0.117039)
(0.000150564 -0.00128189 0.0236909)
(0.00110713 -0.000669136 0.120786)
(0.00033817 -0.00251708 0.117718)
(-0.00168991 0.00298074 0.0377112)
(0.00210609 0.00325531 0.0610911)
(-0.00531603 0.00232622 0.0451062)
(-0.000159913 0.00137646 0.121138)
(0.00219718 7.06985e-05 0.121197)
(-0.00174257 0.00103815 0.0355996)
(0.00621841 0.000259099 0.0521752)
(0.000826563 -0.00136044 0.0546719)
(0.000599928 -0.00117242 0.106735)
(0.0022459 -0.000781203 0.120379)
(-0.00446776 -0.00356384 0.0226335)
(0.000888243 0.000877402 0.125929)
(-0.00010063 -0.000635796 0.124696)
(-0.00152332 7.19221e-05 0.119462)
(-0.00240866 -0.00490157 0.0900242)
(-0.000277709 -0.000768241 0.128665)
(0.00148984 -0.00337875 0.0196965)
(-0.00189017 0.000257876 0.126324)
(0.000748466 -0.000271086 0.0294802)
(0.00352552 -0.00518353 0.0619906)
(0.000935631 -0.000406325 0.121978)
(-0.00140477 0.000887951 0.0569912)
(-0.00274462 0.00289491 0.0213401)
(0.00273346 -0.000477907 0.0386501)
(-0.00315835 0.00131777 0.0448665)
(0.00233049 -0.00331447 0.0603598)
(0.00121619 0.00119354 0.125073)
(-0.00262021 0.00136418 0.0499437)
(0.00279568 -0.00324955 0.05695)
(-0.00915403 -0.00138425 0.115051)
(-0.00173697 0.000583757 0.117905)
(0.0051 -0.00131655 0.0220696)
(0.000600348 0.00121138 0.100206)
(-0.00538148 -0.00517382 0.0717748)
(-6.9032e-05 -0.000336016 0.126744)
(-0.00128764 0.000579287 0.0628952)
(-0.00156395 0.00130432 0.117805)
(0.00421054 0.00135494 0.0594689)
(-0.000549025 0.00158586 0.109072)
(-0.00192633 -0.000856641 0.119461)
(0.00495189 -0.00552321 0.0494464)
(0.00151122 5.16884e-05 0.124459)
(-0.00241313 -0.00159041 0.0475875)
(0.00348009 -0.00347792 0.021068)
(0.000709972 -0.00203327 0.118632)
(-0.00141857 -0.00193379 0.119876)
(-0.000766581 0.00146087 0.114881)
(0.00261673 -0.00147404 0.114752)
(0.000585653 -0.000336957 0.122269)
(0.000281952 -0.00114805 0.0599302)
(0.000532107 -0.000509618 0.126132)
(0.00238897 0.00263112 0.058819)
(-0.00167677 -0.00105053 0.119266)
(-0.00040293 -0.000509237 0.109596)
(-0.00490265 -0.0040908 0.025106)
(-0.000812288 0.000339654 0.128224)
(-0.0028294 -0.00331776 0.0513001)
(0.00325861 0.00350928 0.0276222)
(0.000197981 0.000625505 0.128301)
(-0.0031353 0.0013649 0.0392895)
(-0.00165516 0.000999947 0.11535)
(0.0001232 0.000495189 0.118657)
(-0.000742645 0.000395867 0.11298)
(0.00451888 0.00438138 0.0520164)
(0.000250639 -0.000398917 0.127355)
(-0.00106755 -0.000593858 0.09019)
(-0.00106692 -5.45243e-05 0.127025)
(0.000673665 0.00110028 0.126717)
(0.000352684 -0.000414133 0.127701)
(-0.000408275 -0.00124816 0.120466)
(0.0057361 0.00139708 0.0422387)
(0.00241671 -0.00127098 0.049003)
(-0.00136686 0.000796278 0.126003)
(-0.00114974 0.000145744 0.124329)
(0.00241245 0.00446202 0.0314635)
(-0.00270552 -0.000220839 0.122482)
(-0.00144919 0.00194929 0.129448)
(-0.000107698 0.000456387 0.126504)
(0.000501088 5.71563e-05 0.124995)
(-0.000163868 0.00176775 0.110272)
(-0.000633914 0.00278292 0.0225565)
(-0.000809361 0.00148792 0.12913)
(0.0026855 -0.000231285 0.0953913)
(-0.00143779 -0.00101786 0.117227)
(0.000179057 0.000155616 0.0906493)
(0.000782891 -0.00248653 0.0268665)
(-0.00129989 0.00195553 0.117754)
(-0.000874356 0.00311371 0.0904397)
(0.00179674 0.00106143 0.123631)
(0.000141325 0.00112715 0.122474)
(0.000103962 -0.00113213 0.119492)
(0.00208115 0.00311516 0.0178417)
(-0.00267129 0.00179332 0.023837)
(-0.000323484 -0.00240528 0.117755)
(-0.00107997 0.000323886 0.115823)
(2.94353e-05 0.00122224 0.124488)
(7.73695e-05 0.00273126 0.114609)
(0.00149342 0.00149155 0.0864441)
(0.000421472 0.00203581 0.12192)
(-0.000184287 -0.00116947 0.122485)
(0.00171548 0.00245211 0.0194533)
(7.61618e-05 -0.00194055 0.117776)
(-0.0058549 0.00205917 0.122428)
(-0.00225428 0.00319482 0.0366271)
(-0.000693651 0.00436879 0.0502564)
(-0.000650256 0.00109264 0.125404)
(0.000935544 0.000962513 0.123336)
(0.000162563 -0.0002712 0.117034)
(-0.000846961 -0.000756139 0.114992)
(-0.00364294 0.00111052 0.102276)
(-0.000183475 -0.00064327 0.125166)
(0.00226201 -0.000302198 0.0894844)
(0.000435688 -0.000559358 0.130768)
(5.28897e-05 -0.00189294 0.119079)
(0.00173492 -0.000777945 0.123054)
(0.000628928 -4.07978e-06 0.121791)
(0.000891465 0.000391889 0.0398759)
(0.000997517 0.000406493 0.123776)
(-0.00391963 -0.00218271 0.0313117)
(-0.0087449 -0.00167457 0.0891223)
(0.00224167 0.00112477 0.0595628)
(-0.00749919 -0.00106346 0.113453)
(0.00206395 -0.000699795 0.118757)
(-0.0162349 0.000150726 0.108285)
(-0.00103468 -0.000230826 0.121934)
(0.0005257 0.000995099 0.128419)
(-0.000946934 -0.0010269 0.124204)
(0.00124578 8.7301e-05 0.119313)
(-0.00245528 -0.00011638 0.0334599)
(-0.00555744 -0.000251675 0.100912)
(-0.0170735 -0.00116218 0.108293)
(0.000479364 -0.00108895 0.120817)
(-0.00102302 0.00297043 0.107071)
(-0.00455786 0.00156368 0.122514)
(-0.000846205 0.000929545 0.121566)
(-0.000984276 0.000822197 0.103919)
(-0.00385755 -0.00106075 0.0320133)
(0.00388708 0.00215225 0.0526053)
(-0.00305216 -0.0032421 0.0175874)
(-0.000136115 0.00181154 0.0272045)
(-0.000535842 0.000603556 0.033658)
(-0.00186069 0.00128628 0.122228)
(0.000250151 0.00172114 0.119546)
(-0.00172768 -0.00419925 0.0258139)
(-0.00405177 0.00229473 0.0248815)
(0.00118999 0.000799098 0.123802)
(-0.0126352 0.00252029 0.0891003)
(-0.00511754 -3.5156e-05 0.0358925)
(-0.000646946 0.000236858 0.123102)
(-0.00230884 5.20076e-05 0.0993151)
(0.000426825 0.000449242 0.117135)
(0.00452972 0.00387131 0.0411066)
(0.000181946 -0.000301564 0.0498466)
(0.00044475 0.0001925 0.106166)
(-0.000995421 -0.000391676 0.123322)
(-0.00045323 -4.20661e-05 0.122258)
(-0.000311837 0.0055203 0.0381261)
(0.000255337 -0.00404897 0.0197984)
(-0.0183596 0.00172999 0.105139)
(-0.00618147 0.00319382 0.0248103)
(-0.00121121 0.00238973 0.118024)
(-0.00786983 -0.00405814 0.0252108)
(0.000499198 0.00306505 0.107867)
(0.000424644 -0.000516578 0.122512)
(0.000386932 0.00131432 0.129126)
(-0.00456767 -0.00474145 0.0434725)
(0.00134999 -0.00084171 0.0952038)
(-0.00220518 -0.00124768 0.0334415)
(-0.00392627 -0.000431809 0.0252543)
(-0.0001131 -0.000969527 0.122665)
(-0.00480976 0.00270871 0.0207669)
(0.00155299 -0.00180755 0.121562)
(-0.00515748 -0.00118443 0.0442687)
(-0.000135981 0.00136411 0.122306)
(0.000602065 0.000864735 0.1196)
(0.00502648 0.00235706 0.0200432)
(-0.00325403 -0.00305719 0.0573104)
(-0.000903886 0.000124109 0.118717)
(-0.00298089 0.00289232 0.0313754)
(0.000323437 0.000150446 0.118736)
(-0.00348479 0.00679649 0.0518365)
(0.000493573 0.0017634 0.104593)
(-0.000488012 0.00108748 0.123398)
(0.00431393 0.00083857 0.0351515)
(-0.0063356 -0.00260582 0.0220937)
(0.00221742 0.000513953 0.0504546)
(-0.0192735 0.000554293 0.107798)
(0.00250063 0.00178486 0.102546)
(-2.31111e-05 0.004334 0.055074)
(0.0019685 -0.000465507 0.0816446)
(-0.000360789 0.00249002 0.0283517)
(-0.000115284 0.0013932 0.122908)
(7.66059e-05 0.000551712 0.0161495)
(-0.000470597 0.00184532 0.126519)
(-0.000904451 0.000896012 0.12087)
(-0.000362492 3.17462e-05 0.124045)
(-0.00227983 -0.00141619 0.0188303)
(-7.30525e-06 0.000597322 0.125161)
(0.000445401 0.000990228 0.0862897)
(-0.000134244 0.000873234 0.125925)
(-0.000433244 -0.000195509 0.0529192)
(-0.015931 -6.04068e-05 0.105784)
(-0.000783487 0.000672389 0.126986)
(0.00674835 0.00125401 0.0347076)
(0.000520439 -0.00108801 0.122284)
(-0.0220791 0.00274916 0.108421)
(0.000271611 -2.43556e-05 0.107346)
(-0.00280831 -0.00241085 0.0312349)
(-0.00188431 0.00202525 0.0519174)
(0.000699895 0.000216351 0.123834)
(0.000299483 -0.00125006 0.117095)
(8.83275e-05 0.000172048 0.030695)
(0.000247983 0.000233753 0.101008)
(0.0059108 0.00218091 0.0590409)
(-0.00317002 0.00363021 0.0256724)
(0.000184526 0.000311314 0.124794)
(-0.0130032 0.000407732 0.102282)
(-0.000941529 -0.00306407 0.117978)
(0.000436062 0.000365387 0.124419)
(0.000568809 0.000158237 0.125042)
(2.05202e-05 0.000724422 0.120489)
(0.0016933 0.0026894 0.116792)
(0.00344663 -0.00017171 0.042075)
(-0.00245195 0.00304323 0.0328394)
(0.00188868 -0.000769892 0.128553)
(-0.0143965 0.00115725 0.105315)
(0.000241547 0.000836116 0.110439)
(0.00146869 -6.7896e-05 0.115577)
(0.000500341 -0.00128209 0.0769879)
(-0.000173942 0.000122847 0.123266)
(-0.00205321 -0.000205392 0.124211)
(-0.00196499 -0.00378927 0.0910952)
(-0.00149664 0.00333815 0.0985205)
(-0.0035078 0.00371578 0.0418554)
(-0.00345685 -0.00219918 0.0677555)
(-0.0131987 -0.00572495 0.0392228)
(-0.000654015 -0.000220802 0.123348)
(-0.00143243 -0.00141725 0.123338)
(-0.000354624 0.00211764 0.088958)
(0.00130276 -0.00149282 0.0961271)
(0.000181538 -0.00388234 0.0188276)
(0.00125436 0.0018576 0.0784736)
(-0.00601426 -0.0014656 0.0586189)
(-0.000536157 -0.000194948 0.12359)
(0.000389435 0.00154424 0.124184)
(-0.0133111 -0.000496938 0.103677)
(-0.000710428 0.00154196 0.123284)
(-0.000260791 0.00204912 0.0796779)
(-0.0090356 0.000660653 0.10143)
(-0.00149842 -0.00137281 0.115074)
(0.00056362 0.00143144 0.0263467)
(-0.000504515 0.00180399 0.123562)
(-0.00122193 0.00271555 0.0429978)
(-0.000335865 -0.000273278 0.117693)
(0.00526522 -0.00200182 0.0275259)
(0.000776601 0.00239594 0.1259)
(-0.006823 -7.80704e-05 0.100983)
(-0.00047313 0.000781575 0.123578)
(3.0946e-05 -0.00246173 0.109765)
(-0.000772335 -0.000388521 0.117719)
(0.000908134 0.000363414 0.122989)
(0.00204333 0.000207402 0.121855)
(0.00125723 0.0010971 0.0277337)
(0.000941214 -7.43961e-05 0.0485189)
(-0.0017708 0.00184766 0.027724)
(0.000184354 0.000244364 0.122786)
(0.000115547 -0.000879492 0.120162)
(0.000825117 -0.000453731 0.115048)
(-0.00110741 0.00185707 0.126878)
(-0.00153599 -0.000213821 0.0251928)
(-0.000974019 0.000179586 0.0961843)
(0.000971441 -0.00046083 0.0852822)
(-0.000417256 0.000556268 0.124717)
(-0.000143202 -0.000241204 0.113717)
(-0.000695985 0.000699886 0.117056)
(-0.00197126 0.00140947 0.100721)
(0.000127185 0.000174206 0.124397)
(-0.00461369 0.00352552 0.0203972)
(0.000420112 0.00204784 0.0846408)
(-0.000117771 0.000729294 0.118976)
(-0.00137124 0.00280056 0.0264046)
(0.00320241 0.00152383 0.0392996)
(-0.00176901 0.000216249 0.0580586)
(-0.00243565 -0.00365574 0.0229188)
(0.001333 0.00111297 0.0894251)
(-0.00136067 0.00110429 0.122038)
(-0.00183906 0.00165392 0.0622653)
(0.00325583 0.00380123 0.0208653)
(0.000158707 -0.000273392 0.103194)
(0.00155406 -0.000565237 0.0238826)
(-0.000139624 0.00179351 0.0909279)
(0.000409127 0.000119861 0.122453)
(-0.000409732 -0.000291692 0.122189)
(-0.000118261 0.00117867 0.122791)
(0.00107576 0.00255573 0.123694)
(0.00068661 2.22331e-05 0.122435)
(-0.00145078 0.00085342 0.122555)
(0.000805578 -0.00292742 0.0500711)
(-0.000188319 -0.000987517 0.119941)
(0.000692655 -0.00117029 0.114866)
(-0.000540971 -0.00156679 0.0837078)
(-0.00248304 -0.000101108 0.0886922)
(0.000653674 -9.77852e-05 0.121288)
(-5.39658e-05 0.000456854 0.107997)
(-0.000662913 0.00396544 0.0675938)
(0.00168724 -0.0011646 0.123161)
(0.00195833 -0.00145109 0.0289877)
(0.00148847 0.00182182 0.0865247)
(-0.00084505 0.00128744 0.0933848)
(-0.00230152 0.00218745 0.0577752)
(-0.000100592 -0.000588342 0.123426)
(-0.0168924 0.00100979 0.0998525)
(-0.00426192 -0.00023587 0.115377)
(-0.0004678 0.00302024 0.0312348)
(-0.00148442 -0.0014432 0.0270049)
(-0.00067817 0.00404926 0.0549999)
(0.00308714 -0.00268789 0.0197245)
(-0.00212065 0.000457957 0.116151)
(-0.000770647 0.00173216 0.117353)
(-0.000516797 -0.000179792 0.115605)
(-0.01223 7.00953e-05 0.102056)
(-0.000394183 0.00108499 0.112179)
(-0.000523494 0.00224551 0.116851)
(0.00953545 0.00138141 0.0230535)
(-0.00114546 0.00248121 0.117286)
(-0.00738105 0.00179378 0.111869)
(-0.00251586 -0.00130632 0.0375906)
(0.00513229 0.00547784 0.0225896)
(0.000866974 -0.00169629 0.106841)
(-0.000134612 -6.49707e-05 0.103082)
(-0.00275942 -0.00385257 0.0255911)
(0.00124991 0.00110161 0.126324)
(0.00700174 -0.00332141 0.0242494)
(-0.000531445 -0.000500759 0.121922)
(-0.00108647 0.000887635 0.123231)
(-0.00281308 -0.00179899 0.107957)