/*--------------------------------*- C++ -*----------------------------------*\
| =========                 |                                                 |
| \\      /  F ield         | OpenFOAM: The Open Source CFD Toolbox           |
|  \\    /   O peration     | Version:  2406                                  |
|   \\  /    A nd           | Website:  www.openfoam.com                      |
|    \\/     M anipulation  |                                                 |
\*---------------------------------------------------------------------------*/
FoamFile
{
    version     2.0;
    format      ascii;
    arch        "LSB;label=32;scalar=64";
    class       volVectorField;
    location    "12";
    object      momentum:momentum;
}
// * * * * * * * * * * * * * * * * * * * * * * * * * * * * * * * * * * * * * //

dimensions      [1 1 -1 0 0 0 0];

internalField   nonuniform List<vector> 
59516
(
(2.34736e-07 9.23771e-10 -1.56226e-09)
(1.63169e-07 1.03621e-09 -3.04798e-11)
(1.93084e-07 -1.56107e-09 -1.61463e-09)
(1.48879e-07 2.28603e-09 5.50621e-10)
(1.88364e-07 1.26388e-09 -6.49934e-09)
(5.04154e-08 -2.56987e-09 -5.12417e-09)
(1.98836e-07 -3.74854e-10 -6.23222e-10)
(1.93052e-07 -1.37449e-09 8.55884e-09)
(1.49104e-07 -1.56158e-09 7.33442e-09)
(8.18345e-08 -1.09254e-09 4.16977e-09)
(1.64325e-07 8.52987e-10 6.36599e-10)
(1.0901e-07 1.60353e-09 -7.57294e-09)
(3.03564e-07 5.73164e-09 -8.9458e-09)
(2.12422e-08 8.60643e-10 -4.68564e-10)
(1.64039e-07 3.85905e-09 1.22354e-08)
(8.18171e-08 1.49064e-08 -3.87052e-09)
(2.00023e-07 -1.04127e-09 -8.09058e-11)
(1.43937e-07 6.88674e-09 -7.68369e-09)
(3.18785e-07 8.89823e-09 -4.28048e-09)
(2.82728e-07 -3.89428e-09 -7.37144e-10)
(1.07747e-07 6.50963e-10 -2.99525e-09)
(2.67425e-07 2.06353e-09 1.87852e-09)
(2.84218e-07 -1.44869e-09 -1.98964e-10)
(3.87257e-08 -4.03013e-09 2.09042e-09)
(2.51365e-07 -1.26396e-09 9.24499e-10)
(1.90359e-07 5.38376e-09 1.42934e-08)
(5.61089e-08 -1.53183e-09 -2.16703e-09)
(7.84848e-08 9.00182e-09 3.40369e-09)
(1.50373e-07 2.8203e-09 -4.79188e-09)
(1.56956e-08 -3.78885e-09 -6.41454e-10)
(1.80231e-07 -3.42376e-08 -8.446e-09)
(8.83021e-08 8.9105e-09 -7.80522e-10)
(1.51512e-07 1.6356e-10 9.39283e-10)
(1.56733e-07 4.39114e-10 5.50277e-09)
(1.13347e-07 -1.44678e-09 1.47382e-09)
(3.37504e-07 -9.89081e-10 3.52526e-09)
(1.26296e-08 -1.37111e-09 -5.46815e-09)
(1.18959e-07 8.13587e-09 -1.04762e-08)
(2.77275e-07 -8.75924e-09 1.26757e-09)
(2.20135e-07 -5.01903e-09 1.64764e-09)
(2.48492e-07 -6.355e-09 -2.71583e-09)
(3.53214e-07 1.14828e-09 -5.01486e-09)
(2.89221e-07 2.97902e-09 1.12454e-09)
(1.0319e-07 -3.11736e-09 1.94194e-09)
(2.35596e-07 1.35306e-09 2.18398e-09)
(9.75429e-08 -9.89818e-09 -7.91481e-09)
(2.89773e-07 3.01517e-09 -8.48512e-09)
(1.97579e-07 1.4703e-09 3.56173e-11)
(2.40997e-07 -1.80801e-08 2.88514e-08)
(1.93111e-07 1.00457e-09 2.24056e-09)
(1.61983e-07 1.85504e-08 -2.60152e-08)
(7.1301e-08 -9.76195e-09 4.89406e-09)
(2.87474e-07 -2.04835e-09 -1.65852e-09)
(2.7394e-07 -4.25089e-10 -2.9125e-09)
(8.64378e-08 1.34469e-08 2.16393e-09)
(2.26532e-07 -8.50218e-10 -2.04078e-09)
(1.68018e-07 4.47569e-09 5.25582e-09)
(8.26526e-08 9.81347e-09 -1.09765e-08)
(1.48907e-07 -3.53816e-09 1.06308e-09)
(1.25948e-07 2.16226e-09 3.8478e-09)
(1.67656e-07 3.24117e-10 6.17695e-10)
(1.44388e-08 4.48039e-09 5.51036e-10)
(1.92108e-07 -2.40757e-09 -8.05678e-10)
(2.49163e-07 -1.09734e-09 -1.69304e-09)
(2.81319e-07 -1.05538e-09 -3.85461e-09)
(1.74299e-07 -1.15338e-10 -1.78019e-10)
(2.38821e-08 -2.28591e-09 2.82679e-09)
(6.89762e-08 3.97479e-09 1.01663e-09)
(1.84978e-07 -5.45597e-09 3.34914e-08)
(1.48421e-07 2.56306e-10 2.8102e-11)
(6.20221e-08 5.51147e-09 -8.552e-10)
(1.19734e-07 7.49271e-10 7.15061e-11)
(2.28937e-08 1.308e-09 -7.71158e-09)
(1.59491e-07 -2.78591e-09 2.19897e-10)
(2.57393e-07 -2.82601e-09 7.17518e-10)
(2.87384e-07 1.80341e-09 6.44865e-11)
(1.64862e-07 2.03588e-10 8.4218e-10)
(1.87259e-07 4.03014e-09 -1.17917e-09)
(8.60553e-08 -9.74947e-09 1.07754e-08)
(1.51698e-07 9.26318e-10 2.3588e-09)
(4.9807e-08 1.03694e-08 6.17123e-09)
(1.38553e-07 9.47837e-11 6.49782e-10)
(1.55071e-07 5.79149e-10 5.98871e-10)
(2.15131e-08 -1.49208e-09 5.91541e-09)
(1.7526e-07 -4.58731e-10 7.10562e-10)
(2.69472e-07 -3.66407e-09 -5.09631e-10)
(3.23118e-08 -3.08055e-09 2.72199e-12)
(4.1639e-07 -6.48866e-09 3.72029e-09)
(1.04032e-07 6.78333e-09 1.9658e-08)
(1.5693e-07 1.38688e-08 -3.29177e-09)
(1.61177e-07 6.22451e-10 -8.19052e-09)
(1.55211e-07 3.60632e-09 2.07273e-09)
(1.91047e-07 -1.38719e-09 7.07071e-10)
(1.51215e-07 -9.78711e-10 -1.39155e-09)
(1.34026e-07 -9.15445e-10 5.96317e-10)
(1.77274e-07 -1.52613e-08 8.24634e-09)
(1.08049e-07 -1.08389e-09 2.03595e-09)
(8.77811e-08 -8.20124e-09 -9.46566e-09)
(1.20162e-07 6.02126e-09 -5.54891e-10)
(1.69909e-07 1.19961e-10 1.05262e-09)
(5.42447e-08 -6.1641e-10 5.64256e-09)
(2.82514e-08 1.10503e-09 -4.08518e-09)
(2.64335e-08 -1.06551e-10 6.86844e-09)
(9.15584e-08 1.73169e-09 -6.02572e-09)
(1.96876e-07 1.64105e-09 -1.23829e-09)
(1.28497e-07 -3.07781e-10 1.01611e-09)
(6.46489e-08 1.117e-08 -3.1639e-09)
(1.36058e-07 -5.66763e-11 8.28365e-10)
(1.74462e-07 -2.65034e-09 -2.6912e-09)
(1.95825e-07 6.71769e-09 -1.48635e-08)
(2.5305e-07 2.22131e-08 -1.94532e-08)
(4.17145e-08 1.05618e-08 -2.69465e-09)
(1.9306e-07 7.9601e-09 -9.69155e-09)
(1.9955e-07 2.58974e-08 -1.22862e-08)
(1.7065e-07 -5.34433e-10 1.61945e-09)
(1.35644e-07 1.42342e-09 -1.89408e-09)
(1.23903e-07 1.98949e-10 -1.16284e-08)
(1.26671e-07 1.22358e-09 2.06593e-10)
(1.98831e-08 -3.34515e-09 -8.40355e-10)
(2.1254e-07 2.52005e-09 -3.85898e-10)
(2.84261e-07 4.37176e-09 -2.13133e-10)
(1.3024e-07 1.54597e-09 1.01636e-09)
(1.27248e-07 1.10996e-09 -1.16312e-09)
(1.34749e-07 9.06593e-10 1.0037e-09)
(1.20739e-07 -8.91035e-09 2.91878e-09)
(1.39222e-07 1.84195e-09 -6.09517e-09)
(4.32789e-08 -9.13712e-11 5.00016e-09)
(1.91243e-07 -6.821e-09 1.51397e-09)
(1.55385e-07 -3.73296e-09 2.13931e-08)
(1.11021e-07 1.31578e-10 1.07499e-09)
(1.95307e-07 1.07962e-09 3.80624e-09)
(3.195e-07 4.55168e-09 2.09961e-09)
(2.36798e-08 3.05228e-09 -2.73195e-09)
(2.15011e-07 1.34122e-09 1.08056e-09)
(3.14489e-07 1.76928e-09 1.57346e-09)
(1.85075e-07 -1.88861e-09 -1.07934e-09)
(1.40366e-07 1.26204e-08 -1.00529e-08)
(2.92489e-07 2.92152e-10 2.70456e-09)
(5.33547e-08 3.60566e-09 2.03012e-09)
(1.65105e-07 1.66701e-09 -4.56212e-09)
(7.59958e-08 -1.75563e-09 -5.96168e-09)
(2.26152e-07 7.51016e-10 1.17283e-09)
(1.48096e-08 -5.15761e-10 1.56765e-09)
(1.34242e-07 5.46526e-10 -6.19613e-10)
(1.50259e-07 9.24469e-10 7.99897e-10)
(2.42626e-07 2.60798e-09 6.18731e-10)
(1.81741e-07 2.50016e-10 -2.02265e-10)
(1.98539e-07 3.39267e-09 -6.27995e-09)
(6.2879e-08 -2.38052e-09 2.61878e-09)
(2.07133e-07 -1.32245e-09 8.65421e-10)
(3.28329e-07 -6.2146e-09 2.62272e-09)
(5.40366e-08 -1.1026e-09 2.01332e-11)
(2.94737e-07 -2.12742e-09 3.68506e-09)
(1.72409e-07 1.93488e-09 1.92434e-09)
(1.65413e-07 -5.42594e-10 2.12948e-09)
(1.71285e-08 5.41625e-10 2.50138e-09)
(2.68783e-07 2.53125e-09 1.2511e-09)
(3.29385e-07 3.98098e-09 2.1501e-09)
(1.38367e-07 4.10138e-09 2.23274e-09)
(1.84643e-08 3.96229e-09 -3.59717e-09)
(9.80329e-08 -1.86026e-09 -4.70106e-09)
(1.25614e-07 -4.34922e-09 -8.19959e-09)
(4.58267e-08 -3.04509e-09 -1.75144e-09)
(2.7687e-08 -8.47124e-10 -7.8359e-10)
(1.60664e-07 -1.57202e-10 4.87462e-09)
(2.3989e-07 -5.10456e-11 2.97912e-09)
(1.43727e-07 -9.14338e-09 -1.42421e-09)
(1.9927e-07 7.00619e-10 1.78467e-09)
(2.164e-08 -2.90282e-09 2.71744e-09)
(1.73432e-07 1.71778e-10 -1.23188e-09)
(9.31875e-08 3.23204e-09 1.06671e-09)
(7.45596e-08 1.651e-09 -1.70481e-09)
(1.14074e-07 1.08421e-09 2.37409e-10)
(1.30897e-07 9.95863e-12 -2.57515e-12)
(9.03624e-08 -2.75112e-09 -2.04423e-10)
(4.02886e-07 8.36063e-09 -7.92716e-09)
(1.80011e-07 -1.01563e-11 -5.62426e-10)
(2.64761e-07 4.29704e-10 1.14323e-09)
(1.53389e-07 -7.28272e-09 2.70231e-09)
(6.6551e-08 1.87782e-09 -1.41433e-09)
(2.61613e-07 2.50965e-09 3.42117e-09)
(4.46569e-08 -7.72678e-09 -8.97828e-10)
(3.56103e-08 -4.55266e-09 -5.1879e-09)
(1.07552e-07 -4.342e-09 -4.59453e-09)
(1.44693e-07 -1.04706e-10 1.49943e-09)
(9.38859e-08 -9.45093e-10 -1.62547e-10)
(4.19238e-08 -1.28423e-09 -6.70488e-09)
(1.97754e-08 -5.41619e-10 6.82731e-10)
(1.79267e-07 8.198e-10 3.74516e-09)
(2.29366e-07 1.1991e-09 1.01915e-09)
(1.30764e-07 -4.04731e-10 1.8665e-09)
(1.14248e-07 1.06398e-08 3.14685e-09)
(1.66825e-07 -1.07537e-09 1.7402e-09)
(1.03015e-07 7.49554e-09 1.18114e-09)
(2.76695e-07 -4.48065e-09 1.13455e-09)
(2.72505e-08 1.35569e-09 2.93301e-09)
(9.78827e-08 -5.27197e-10 -3.49429e-09)
(5.68969e-08 -1.92316e-09 -2.07902e-09)
(1.75832e-07 2.77403e-09 3.9458e-09)
(2.13525e-07 2.46886e-10 2.01672e-09)
(7.31272e-08 -3.58908e-09 2.51471e-10)
(1.32142e-07 2.12127e-09 -6.50554e-10)
(3.10152e-07 -7.21635e-10 -7.10661e-10)
(1.65895e-08 2.90764e-09 -2.7539e-09)
(2.07026e-07 -3.56092e-09 8.19827e-12)
(2.02448e-07 2.13751e-09 2.47785e-10)
(2.43787e-07 -1.23775e-09 2.3971e-09)
(1.49103e-07 3.45734e-09 -3.8499e-12)
(2.07732e-08 6.20882e-10 4.64454e-12)
(2.94242e-07 1.99752e-11 -1.36536e-09)
(5.71743e-08 8.42554e-09 3.85323e-09)
(2.73015e-08 -4.86314e-09 3.50615e-10)
(2.02874e-07 1.62097e-09 -3.81049e-09)
(9.51123e-08 -9.54078e-10 -3.93686e-10)
(2.8675e-07 3.15685e-09 -2.30597e-09)
(2.09474e-07 -2.13346e-09 1.82676e-09)
(2.37071e-07 2.97471e-10 5.75511e-10)
(1.68627e-07 -1.30271e-10 -2.54744e-10)
(8.46597e-08 7.57894e-09 -2.99127e-09)
(1.79868e-07 3.34915e-10 1.06364e-09)
(1.27891e-07 6.05511e-09 5.36083e-09)
(1.90282e-07 5.92444e-10 -2.56213e-09)
(1.34056e-07 2.90692e-10 1.32742e-09)
(8.21371e-08 -6.04293e-09 2.04637e-09)
(2.12993e-07 -2.97443e-09 5.61502e-10)
(2.2443e-07 1.75478e-09 -6.04939e-10)
(3.21335e-08 -1.62746e-09 -1.25173e-09)
(7.08478e-08 7.1966e-09 -5.98015e-09)
(1.43097e-07 -1.81076e-09 1.95473e-09)
(1.09564e-07 5.52925e-09 -1.23562e-08)
(1.81637e-07 -1.41417e-09 -6.49054e-10)
(1.29677e-07 1.15143e-09 -2.72416e-10)
(2.16466e-07 -3.04928e-10 7.20941e-10)
(2.46592e-08 -4.65508e-09 -2.07623e-09)
(3.0843e-08 1.07494e-09 -4.62808e-09)
(4.3896e-08 -9.68458e-10 -2.29823e-09)
(1.13586e-07 -1.12377e-09 5.20666e-09)
(1.63843e-07 -4.20222e-09 3.50557e-10)
(3.27293e-07 -3.97301e-09 1.92376e-09)
(8.59054e-08 -8.88754e-09 4.81719e-09)
(1.71393e-07 -1.6768e-10 2.31441e-09)
(2.03462e-08 5.65718e-11 5.81769e-09)
(1.02268e-07 7.7807e-10 3.46516e-09)
(3.0314e-08 1.09801e-09 3.34876e-09)
(1.14143e-07 6.87682e-10 8.36377e-10)
(1.62783e-07 2.18851e-11 -1.76821e-09)
(1.64505e-07 -1.74531e-09 -5.37308e-10)
(1.87028e-07 -1.17906e-09 -1.03043e-08)
(2.12443e-07 -1.32566e-09 2.00504e-09)
(1.97067e-07 1.35923e-09 -2.0757e-09)
(2.92476e-07 -4.11805e-09 2.36296e-09)
(1.81646e-07 4.68928e-10 5.12964e-10)
(1.31124e-07 -2.96356e-10 2.15604e-09)
(2.31797e-07 -3.30011e-10 -8.97055e-10)
(2.3472e-07 1.07582e-09 -4.61188e-11)
(2.37044e-07 -3.57862e-10 9.72596e-10)
(1.07598e-07 5.09931e-09 -5.532e-09)
(2.2583e-07 -2.96029e-09 2.61797e-09)
(8.42709e-08 -1.42351e-09 -6.6718e-09)
(9.853e-08 1.40315e-09 3.85846e-09)
(1.96056e-07 4.52349e-10 -6.08259e-10)
(2.01042e-07 -5.20811e-10 1.19386e-09)
(2.37351e-07 -4.06202e-11 2.863e-09)
(2.05304e-07 -2.62107e-09 6.65489e-10)
(7.486e-08 -1.55302e-09 1.72528e-09)
(9.68511e-08 7.27296e-09 -5.97631e-09)
(2.41244e-07 2.39367e-09 2.86931e-09)
(2.10312e-07 -6.24929e-09 4.1663e-09)
(6.3432e-08 1.30338e-09 1.70844e-09)
(7.9265e-08 -2.36972e-09 -5.0954e-10)
(1.68142e-07 5.29506e-09 -5.89336e-09)
(1.34047e-07 -6.21742e-10 -7.61815e-10)
(2.9985e-07 -5.58997e-09 3.75762e-09)
(1.50462e-07 -1.15879e-09 3.83429e-09)
(2.54114e-07 -4.07678e-09 1.80067e-09)
(1.92296e-07 -3.61831e-09 7.58333e-09)
(2.10084e-08 4.64868e-09 -1.83462e-09)
(2.33671e-07 -8.69887e-10 9.65423e-10)
(3.10169e-08 2.52825e-09 -4.28247e-09)
(5.14874e-08 -5.88631e-09 4.99546e-09)
(2.38275e-07 -2.66441e-09 5.49923e-10)
(2.13574e-07 -2.53475e-09 1.25746e-09)
(2.63432e-08 4.78376e-09 4.79594e-09)
(2.85517e-07 3.55176e-09 -4.89924e-09)
(2.33304e-07 4.90715e-09 -4.94187e-10)
(1.83983e-07 1.11591e-10 -1.57066e-09)
(2.25369e-07 1.74912e-10 2.43889e-10)
(2.60682e-08 4.00278e-09 -4.14159e-10)
(1.90509e-07 -3.02842e-09 1.67548e-09)
(9.8448e-08 -1.73522e-09 -4.77667e-10)
(1.1423e-07 -9.62461e-10 6.5606e-10)
(2.1803e-07 -4.39449e-09 1.99765e-09)
(1.40592e-07 6.93695e-10 1.59043e-09)
(1.67671e-07 -1.29785e-09 -1.07129e-09)
(1.99724e-07 -2.66439e-10 -3.97342e-10)
(3.54422e-08 -5.90787e-10 -5.50715e-09)
(2.11802e-07 -2.41942e-09 3.5565e-10)
(1.71714e-07 -1.09139e-09 1.30326e-09)
(2.48954e-07 -3.68426e-09 9.60134e-11)
(1.8859e-07 -1.96528e-09 1.26134e-09)
(2.95475e-07 7.34446e-10 -2.10355e-09)
(1.2586e-07 9.13865e-10 9.31027e-09)
(1.90903e-08 -1.87025e-09 2.24951e-10)
(3.48146e-08 -9.04648e-10 2.32525e-09)
(3.95988e-07 -2.53362e-09 8.79786e-10)
(1.94693e-08 -1.0206e-09 6.25406e-09)
(1.62402e-07 -2.04491e-10 -7.59916e-09)
(7.29285e-08 6.91058e-09 2.6149e-09)
(2.3607e-07 -6.32161e-10 -5.5223e-10)
(2.73598e-07 9.66993e-11 -1.26768e-09)
(2.57949e-07 -8.38729e-10 4.81923e-10)
(1.22581e-07 -1.84202e-09 -6.28407e-09)
(2.67386e-07 1.80872e-09 -3.198e-09)
(6.66056e-08 -8.81978e-09 4.01674e-09)
(9.33672e-08 1.54133e-09 4.76054e-09)
(1.49452e-07 -2.26689e-09 -4.55405e-10)
(1.55852e-07 5.3908e-09 -3.86051e-09)
(2.64777e-07 3.61781e-08 1.07974e-08)
(1.85002e-07 -1.42074e-10 5.41229e-09)
(5.91328e-08 -2.03191e-09 -3.8062e-09)
(1.00019e-07 -4.11658e-09 2.91554e-09)
(1.99213e-07 -8.27181e-10 1.37022e-09)
(1.53857e-07 -7.99558e-10 1.28233e-09)
(2.95372e-07 6.25872e-09 2.46897e-09)
(1.5682e-07 1.04671e-09 1.51195e-09)
(3.79772e-07 -5.11688e-09 3.58829e-09)
(1.60803e-07 -4.04605e-09 6.31017e-09)
(2.9409e-07 5.17782e-09 -1.00379e-09)
(1.99181e-07 2.03963e-09 -5.93899e-10)
(1.54088e-07 1.90211e-09 1.50347e-09)
(2.57512e-07 -2.63303e-10 9.20754e-14)
(1.12222e-07 1.64037e-09 -5.49608e-09)
(2.49487e-08 -2.08222e-09 -1.66464e-09)
(2.4089e-07 1.69554e-09 1.94141e-09)
(5.56335e-08 -2.92354e-09 4.08599e-09)
(2.97826e-08 4.49819e-10 -1.06709e-09)
(2.97257e-07 -2.45325e-09 2.97895e-09)
(1.65152e-07 2.09964e-10 1.52876e-09)
(1.08118e-07 -2.94274e-09 -5.23687e-09)
(1.83932e-07 2.08413e-10 1.58712e-09)
(2.47664e-07 -2.82203e-09 9.30675e-11)
(2.89256e-07 1.19778e-09 -2.59365e-09)
(1.93346e-07 2.00777e-09 -8.23609e-11)
(2.67861e-08 3.4967e-09 2.3615e-09)
(2.49382e-07 7.26699e-10 8.10175e-10)
(1.52859e-07 2.3544e-10 1.33287e-10)
(8.93872e-08 -8.0562e-10 1.434e-09)
(2.02963e-07 -1.40025e-09 9.7573e-10)
(1.78959e-07 1.46313e-09 5.4119e-10)
(1.55753e-07 9.86729e-10 -3.40504e-09)
(1.81606e-07 -5.91063e-10 -6.60682e-10)
(2.19449e-07 -1.31173e-09 -1.94278e-09)
(1.69154e-07 -3.69542e-09 2.95891e-11)
(8.10504e-08 -3.01472e-09 1.68242e-09)
(2.10455e-08 -2.68914e-11 -1.97055e-10)
(3.39364e-08 -6.47254e-09 3.59385e-09)
(2.13126e-07 -2.3304e-09 3.80412e-09)
(2.35753e-07 -8.5243e-09 2.55432e-08)
(1.06603e-07 -3.67321e-09 -4.66571e-09)
(1.10585e-07 -2.23999e-09 -1.46284e-10)
(2.30496e-07 3.741e-09 1.62173e-09)
(2.85201e-07 -2.69465e-09 8.74944e-10)
(1.7489e-07 5.90214e-10 1.49854e-09)
(2.94758e-07 5.26594e-09 -5.14455e-10)
(3.0299e-07 -3.16165e-10 -1.46932e-09)
(1.83084e-07 3.11929e-10 1.706e-10)
(1.12325e-07 8.93345e-10 -3.93102e-10)
(2.75123e-08 -2.67464e-09 -2.9106e-10)
(2.29111e-07 -4.2838e-08 7.77038e-09)
(9.42472e-08 5.03067e-09 3.05121e-09)
(5.99457e-08 -6.43165e-09 -3.15369e-09)
(6.35261e-08 1.06032e-08 -4.79215e-10)
(1.34787e-07 9.86057e-10 1.77467e-09)
(1.74071e-07 -2.00064e-09 -4.26153e-09)
(1.8461e-07 1.31148e-09 -2.63004e-10)
(1.91584e-08 1.90845e-09 -2.07826e-09)
(1.5645e-07 -1.10764e-09 -1.32871e-09)
(7.43215e-08 4.11547e-09 -4.0911e-09)
(1.41363e-07 -1.13293e-09 -2.08226e-10)
(5.78098e-08 -3.98593e-09 -4.87548e-10)
(1.57964e-07 -7.74038e-10 7.38737e-10)
(2.15078e-07 -7.48766e-10 2.01061e-09)
(1.48185e-07 1.14566e-09 -4.02465e-11)
(2.16932e-08 2.74692e-09 -2.5537e-09)
(1.14326e-07 -4.17806e-09 6.81222e-09)
(2.09071e-07 4.54961e-10 -3.68019e-10)
(2.56591e-08 -2.00407e-09 -3.12659e-09)
(2.52493e-07 -5.84659e-10 6.4898e-09)
(1.70656e-07 -2.10383e-09 1.83696e-09)
(2.694e-07 2.79283e-09 -4.67144e-10)
(1.99822e-07 6.25874e-09 -7.95057e-10)
(9.21535e-08 -8.25288e-10 1.32524e-09)
(3.18109e-07 1.42225e-09 -1.59832e-09)
(1.28594e-07 -1.27625e-08 -1.35853e-08)
(2.2647e-07 3.85369e-09 8.01732e-10)
(1.37211e-07 9.08278e-09 9.65446e-09)
(1.44567e-07 1.67831e-09 -1.76871e-09)
(1.4711e-07 -3.63837e-09 -9.57568e-09)
(1.90205e-07 1.04825e-10 4.42506e-10)
(3.89664e-07 4.20085e-09 1.41833e-09)
(8.30793e-08 -1.47554e-09 -3.39594e-09)
(3.05483e-07 5.2034e-09 1.51238e-09)
(1.19586e-07 -2.02345e-09 -2.68427e-09)
(3.06466e-07 -2.379e-09 -3.40358e-10)
(2.335e-07 -2.35082e-09 3.70776e-11)
(6.084e-08 3.66937e-09 -6.02936e-09)
(1.8968e-07 8.8798e-11 3.04994e-10)
(3.2693e-07 -5.02627e-09 -8.77623e-10)
(1.91995e-07 1.25475e-10 6.48689e-10)
(1.80893e-07 -3.03131e-10 -5.62804e-10)
(2.0745e-08 -1.20458e-09 -8.00223e-09)
(1.98848e-08 3.22014e-09 -3.8473e-09)
(2.5841e-07 -5.60212e-10 -1.77479e-09)
(2.02051e-07 1.05569e-09 1.05383e-09)
(1.53719e-07 -3.50817e-11 -1.23021e-09)
(3.9104e-08 -2.22068e-10 -3.48534e-09)
(6.44123e-08 2.55415e-10 -3.95841e-10)
(2.95131e-07 -5.68667e-09 5.39091e-09)
(1.14744e-07 1.2847e-09 3.61168e-10)
(2.24866e-07 1.92951e-09 -1.69469e-09)
(1.97398e-07 -3.49191e-10 -1.95654e-09)
(1.60323e-07 1.48673e-09 1.71043e-09)
(1.71783e-07 1.39133e-09 1.47457e-09)
(1.26225e-07 4.81848e-10 -8.06065e-10)
(1.47235e-07 1.04081e-09 4.06849e-10)
(9.22337e-08 -1.67915e-10 -8.01876e-09)
(2.15926e-07 -3.66787e-09 -1.14724e-09)
(1.811e-07 5.68553e-09 -1.65491e-09)
(1.67782e-07 1.42337e-09 -4.59609e-10)
(1.55731e-07 -5.49796e-10 6.21054e-10)
(2.9068e-07 1.65082e-09 -4.49419e-09)
(2.21025e-07 1.63268e-09 1.17377e-09)
(6.94813e-08 6.54428e-09 4.27288e-09)
(3.94211e-08 2.11605e-09 2.16851e-09)
(2.2347e-08 4.26219e-09 -2.3333e-09)
(1.80723e-07 8.66041e-10 2.54051e-09)
(2.0078e-07 -1.00566e-10 -1.1104e-11)
(2.30636e-07 -3.83471e-10 1.69734e-09)
(1.75844e-07 4.93407e-09 -1.57866e-10)
(2.84529e-08 2.70126e-09 1.90003e-09)
(2.43081e-08 3.28282e-09 3.70892e-09)
(1.71859e-07 -1.31605e-09 5.67165e-09)
(1.861e-07 2.79899e-09 1.79815e-09)
(2.21485e-07 2.90162e-09 1.32368e-09)
(2.64267e-07 3.67236e-09 -1.18268e-10)
(1.83589e-07 4.13253e-12 -9.19623e-10)
(2.29057e-07 3.86123e-09 1.23967e-09)
(3.3992e-07 1.17716e-09 9.06678e-10)
(3.42112e-08 9.63406e-10 3.66108e-09)
(1.69389e-07 -1.44621e-09 3.7146e-10)
(7.27006e-08 6.64678e-10 3.9073e-09)
(8.89298e-08 -7.84882e-09 1.59939e-09)
(1.01132e-07 -7.42105e-10 -9.65544e-10)
(1.44909e-07 -5.39025e-09 6.89703e-09)
(2.13411e-07 2.37174e-09 -1.77378e-10)
(2.06135e-08 -6.31603e-09 -3.18443e-09)
(2.5886e-07 5.79522e-09 -4.15259e-10)
(1.89286e-07 -1.48014e-11 -7.90463e-10)
(1.48351e-07 9.93983e-10 6.74961e-10)
(1.9774e-07 3.55648e-09 8.64083e-10)
(1.33456e-07 -3.79371e-10 6.19691e-10)
(1.81037e-07 2.33975e-09 5.16881e-10)
(2.16639e-07 -2.24787e-09 -6.92466e-10)
(2.05025e-07 -1.79405e-10 2.4026e-10)
(1.65212e-07 8.0748e-09 -4.97184e-09)
(1.97222e-07 -2.72335e-09 -6.94726e-10)
(2.38505e-07 -2.86627e-09 -1.51674e-09)
(1.89411e-08 1.13106e-09 3.57212e-10)
(2.14916e-07 9.63071e-10 -2.46828e-09)
(1.70941e-07 2.62599e-09 -1.50747e-11)
(6.08216e-08 -8.01909e-10 9.65547e-09)
(1.81298e-07 1.01479e-09 1.35043e-09)
(2.5136e-07 1.10504e-09 -1.04006e-09)
(2.0033e-07 -4.11896e-10 -5.32762e-10)
(1.21004e-07 1.67286e-09 -2.70636e-09)
(1.81066e-08 -3.10931e-09 -3.44375e-09)
(1.83732e-07 5.12752e-10 -6.62729e-10)
(2.99274e-07 8.4545e-09 -2.38851e-09)
(1.84723e-07 9.05628e-10 -7.44693e-10)
(1.72282e-07 7.77365e-10 -3.48089e-11)
(5.21019e-08 4.98353e-09 8.56672e-09)
(2.07618e-07 5.0907e-11 -5.53791e-10)
(2.85237e-08 4.26169e-09 -2.7757e-09)
(1.32022e-07 8.20421e-10 -9.67032e-11)
(2.08073e-07 2.47938e-08 -6.20556e-09)
(1.88964e-07 1.89963e-09 6.20211e-10)
(9.62604e-08 -1.16239e-09 2.34354e-09)
(1.76353e-07 1.74957e-09 -3.35894e-09)
(1.1643e-07 2.62385e-09 -7.38745e-10)
(4.85339e-08 4.54425e-09 4.83109e-09)
(3.04665e-07 4.67819e-09 1.22295e-09)
(1.44801e-07 2.51783e-09 5.38436e-10)
(1.97585e-08 -8.91527e-10 6.03283e-10)
(2.09178e-07 -2.098e-09 -7.85758e-10)
(1.84517e-07 -3.96063e-09 -4.00555e-10)
(4.06467e-08 7.72572e-10 -3.61147e-09)
(1.2989e-07 8.24265e-09 -1.23153e-10)
(8.54209e-08 4.42745e-09 1.00577e-08)
(1.49801e-07 1.66458e-09 4.06941e-10)
(1.77507e-07 -3.21441e-09 -1.84488e-10)
(3.84055e-08 -1.52243e-09 1.57182e-09)
(9.0699e-08 -7.66464e-09 -7.63596e-09)
(1.01272e-07 -2.8264e-09 -8.40347e-10)
(1.64699e-07 1.12047e-10 -2.02911e-09)
(2.26473e-07 -4.46678e-09 2.47038e-10)
(2.35905e-08 2.66029e-09 -5.32965e-09)
(2.88428e-07 -2.57421e-09 1.24535e-09)
(1.9456e-07 5.28462e-10 8.54096e-10)
(1.83707e-07 2.30281e-09 4.43618e-10)
(1.14099e-07 4.96355e-09 -4.82457e-09)
(2.5374e-07 -7.16647e-10 -1.44281e-09)
(2.05245e-08 -7.05685e-10 -3.7826e-09)
(2.27713e-07 -3.41685e-09 -3.88019e-10)
(3.09999e-08 -4.89169e-10 -6.79281e-10)
(1.4374e-07 -1.38884e-08 -4.28947e-09)
(1.78854e-07 7.53987e-10 1.29174e-09)
(1.33033e-07 -2.91779e-09 -2.55641e-09)
(2.06027e-08 3.46676e-09 1.67759e-09)
(5.50558e-08 3.9224e-09 4.89141e-10)
(7.76028e-08 -4.39628e-09 -3.96358e-09)
(1.39557e-07 6.88318e-09 -6.35467e-09)
(2.78024e-07 -2.44093e-09 2.89648e-09)
(5.9114e-08 -1.76017e-09 -3.02111e-09)
(1.34891e-07 9.63085e-09 -3.21499e-09)
(2.02555e-07 -4.61275e-09 -1.56331e-08)
(1.48857e-07 2.20417e-09 7.02771e-10)
(2.77035e-08 6.58837e-09 -5.56025e-10)
(2.1442e-07 -3.86043e-11 -2.89272e-09)
(1.30077e-07 1.34861e-08 -1.07762e-09)
(1.49456e-07 5.19145e-11 4.01158e-10)
(1.1087e-07 3.68048e-10 -2.46158e-09)
(1.25347e-07 2.13592e-09 3.64747e-10)
(1.13836e-07 -8.36312e-09 1.32149e-09)
(1.43935e-07 2.14127e-09 5.65207e-10)
(1.09167e-07 1.57395e-09 -1.11097e-09)
(7.25062e-08 6.47314e-09 -8.74173e-09)
(2.10561e-07 2.54636e-09 -2.45777e-10)
(7.11549e-08 1.74203e-09 3.9547e-09)
(1.77325e-08 4.10265e-09 5.63147e-10)
(2.57376e-07 -3.43125e-09 3.17144e-09)
(1.28323e-07 2.15791e-09 -1.39086e-09)
(2.61615e-07 2.15162e-09 -3.07986e-09)
(2.09935e-07 5.36419e-09 1.18949e-09)
(3.20071e-07 -1.41643e-09 1.05931e-09)
(1.39692e-07 5.65555e-10 -2.69686e-09)
(3.07777e-07 -1.15388e-09 1.37869e-09)
(1.0408e-07 -2.03958e-09 5.94859e-09)
(1.04552e-07 1.68209e-09 -4.23423e-10)
(2.67219e-07 5.25598e-10 1.49351e-09)
(3.01269e-08 2.17698e-09 -7.34637e-09)
(2.52216e-07 8.40578e-10 -1.51415e-09)
(1.1586e-07 9.78881e-09 1.07689e-09)
(3.28655e-08 -4.85716e-09 -2.97901e-09)
(2.39317e-07 -4.8012e-10 1.12568e-09)
(5.88192e-08 -2.39125e-09 4.52645e-09)
(1.70319e-07 1.19714e-09 2.59218e-09)
(1.48921e-07 3.64854e-11 6.39393e-10)
(3.23658e-07 4.51742e-10 2.36816e-09)
(9.58516e-08 -1.1583e-08 -5.988e-10)
(2.07355e-07 5.83715e-10 -4.97656e-10)
(1.55413e-07 1.88711e-09 -9.32756e-10)
(2.21018e-07 -1.03691e-09 1.54274e-09)
(2.28315e-07 2.27621e-09 4.71474e-10)
(2.02777e-07 4.7912e-10 -7.18691e-10)
(1.15104e-07 1.09891e-09 -6.0569e-10)
(4.81677e-08 -1.68946e-09 -6.51708e-09)
(6.85363e-08 -2.71674e-09 -2.68402e-09)
(1.28908e-07 1.57585e-09 -3.6846e-10)
(2.21282e-07 1.8212e-09 -9.68473e-10)
(2.92231e-08 -4.66415e-09 -6.64429e-10)
(1.88247e-07 2.56949e-09 -3.28687e-09)
(3.46135e-07 -2.54943e-09 5.97359e-09)
(2.55066e-07 -4.09892e-10 -8.51996e-10)
(2.6567e-07 -8.9557e-10 5.89081e-10)
(2.38339e-07 -3.34316e-09 -1.88335e-09)
(2.20759e-08 2.65501e-09 8.68295e-10)
(1.68338e-07 -4.43713e-10 2.16306e-09)
(1.42601e-07 1.17969e-09 -3.85287e-09)
(2.06625e-07 -2.08704e-09 2.29902e-09)
(1.54527e-07 -4.87389e-11 -4.01448e-10)
(3.39835e-08 1.03399e-09 3.13112e-09)
(1.40974e-07 2.76926e-09 -4.83692e-10)
(1.5186e-07 5.00637e-09 2.1041e-09)
(2.28278e-07 -3.2897e-09 -2.00633e-09)
(1.86367e-07 -1.44821e-09 -9.43794e-10)
(1.69798e-07 1.56666e-09 -3.94382e-10)
(1.4681e-08 2.03912e-09 -2.31195e-09)
(2.26197e-08 -2.00993e-09 -2.29821e-09)
(1.28341e-07 -2.64477e-09 -4.21785e-11)
(2.15234e-07 1.48798e-09 1.4751e-09)
(1.60731e-07 1.49321e-09 5.11942e-10)
(1.38384e-07 2.9246e-09 -1.52686e-09)
(1.53465e-07 -6.1674e-10 3.69603e-09)
(2.09524e-07 -3.55762e-09 3.2884e-10)
(2.0526e-07 -7.41306e-10 -1.84029e-09)
(1.9547e-08 3.00577e-09 8.71583e-11)
(1.01279e-07 -1.66956e-09 -3.94439e-11)
(1.57926e-07 -7.75671e-09 1.98255e-09)
(4.72436e-08 -3.90699e-09 3.18927e-09)
(8.06782e-08 -6.9603e-09 1.40764e-09)
(2.67407e-07 -2.80825e-10 -2.69672e-09)
(1.86426e-07 -1.61687e-09 -1.2256e-09)
(1.6845e-07 4.49672e-10 -7.00693e-11)
(2.20859e-07 1.81328e-09 1.21133e-09)
(1.37707e-07 -5.12716e-09 -7.93669e-11)
(2.35367e-07 1.22469e-09 -2.86992e-10)
(1.67075e-07 4.25554e-09 -2.13259e-10)
(3.24042e-07 1.53261e-09 -8.59033e-10)
(1.54822e-07 -2.35188e-09 -7.2841e-10)
(1.64639e-07 -2.37886e-09 9.01404e-10)
(2.25498e-07 -9.50679e-10 -6.72506e-10)
(4.94622e-08 4.30625e-11 1.20714e-09)
(4.1189e-07 -3.49597e-09 -7.91595e-10)
(3.37574e-08 -1.09735e-09 -4.71069e-09)
(1.40568e-07 -1.24648e-08 6.46915e-09)
(1.19365e-07 -9.12229e-10 4.94267e-09)
(1.44126e-07 -5.36645e-10 -9.60703e-09)
(1.95844e-07 -3.4354e-09 1.05592e-09)
(2.68029e-07 -3.90972e-08 -9.29289e-09)
(1.01468e-07 5.17727e-10 7.1428e-10)
(2.3949e-07 4.86978e-10 2.04154e-09)
(2.74376e-07 1.87126e-09 2.45362e-09)
(1.52145e-07 8.10318e-10 1.37091e-09)
(3.65266e-08 4.49532e-10 -2.64541e-09)
(1.1845e-07 -5.13021e-09 -4.03999e-09)
(2.02451e-07 2.50986e-10 -3.19914e-08)
(1.52039e-07 -5.24383e-10 1.40243e-09)
(9.71816e-08 -2.75453e-09 -7.37199e-10)
(1.95226e-07 -7.65817e-09 -5.58384e-10)
(1.84869e-07 1.69515e-10 1.90407e-09)
(2.92967e-07 -1.9705e-09 3.03148e-09)
(4.21737e-08 -2.03785e-09 4.86059e-09)
(5.48216e-08 -2.19602e-09 4.07646e-09)
(2.06727e-08 3.52552e-09 -3.86834e-09)
(2.43203e-08 1.36878e-09 -8.74053e-10)
(4.53834e-08 4.36888e-10 9.9672e-10)
(2.02686e-07 -1.70312e-09 3.34204e-09)
(1.58478e-07 2.26425e-09 -4.34883e-10)
(2.16325e-08 -2.11269e-09 3.16487e-09)
(2.42345e-08 3.33702e-09 3.07148e-09)
(2.4682e-07 2.7136e-09 -8.96044e-10)
(1.53985e-07 -1.86572e-08 1.21536e-08)
(4.76219e-08 6.1339e-09 2.91209e-09)
(1.90656e-07 -1.10797e-10 -1.06124e-09)
(1.02866e-07 -3.51134e-10 -2.36609e-09)
(1.77975e-07 -7.61222e-10 5.54095e-10)
(4.60205e-08 4.7317e-09 -4.70238e-09)
(8.96413e-08 4.22149e-10 4.72183e-10)
(1.86249e-07 -4.29426e-10 7.33765e-10)
(1.9946e-07 -1.76831e-10 1.72107e-09)
(3.23249e-07 9.48916e-10 7.40239e-10)
(4.86539e-08 4.35422e-09 -5.55211e-09)
(2.15547e-08 -4.32686e-09 8.87363e-10)
(1.99534e-07 -2.97418e-08 -1.84458e-08)
(2.87629e-08 -8.01585e-09 -9.00601e-10)
(2.7469e-07 -1.74862e-09 -5.98526e-09)
(2.85542e-08 5.56338e-09 -8.34419e-09)
(1.55894e-07 -1.34451e-09 4.28201e-09)
(2.19354e-07 5.90071e-10 -1.04181e-09)
(3.20024e-07 -3.34966e-09 5.56754e-10)
(6.22513e-08 2.54004e-09 -9.07902e-09)
(1.38179e-07 -6.54078e-10 -2.21444e-09)
(3.91295e-08 2.6461e-09 -1.33688e-09)
(2.78865e-08 4.16395e-09 -1.2982e-09)
(1.86751e-07 -9.16648e-10 -1.16967e-09)
(1.71473e-08 -2.71523e-09 -3.66089e-09)
(1.34625e-07 -2.4387e-09 1.00886e-09)
(6.01925e-08 -4.86151e-09 -5.30443e-09)
(2.58358e-07 -2.88603e-09 -2.37902e-10)
(1.928e-07 -1.28588e-09 1.10981e-09)
(1.89142e-08 -1.14422e-09 5.11248e-09)
(1.43463e-07 -9.67052e-09 5.6037e-09)
(1.99233e-07 -1.14245e-09 1.01942e-09)
(3.07569e-08 -3.1516e-09 -2.57782e-09)
(2.17065e-07 2.62183e-10 -5.97095e-10)
(8.06982e-08 -7.67811e-09 9.079e-09)
(2.11024e-07 2.60711e-09 2.61775e-09)
(1.60477e-07 7.85283e-10 -1.33649e-09)
(5.73071e-08 4.91904e-09 5.20907e-09)
(2.13379e-08 3.20749e-09 -5.78671e-09)
(9.83817e-08 -3.84811e-09 2.21162e-09)
(2.37048e-07 4.16509e-08 7.93469e-09)
(2.26299e-07 -6.00716e-10 -6.75324e-09)
(8.05137e-08 -4.49673e-09 4.46373e-09)
(1.81862e-07 1.4777e-09 4.25652e-09)
(2.43458e-08 -2.15468e-09 1.58796e-10)
(1.41291e-07 7.83309e-10 -1.40323e-09)
(1.7178e-08 1.73002e-10 -5.66659e-10)
(2.52758e-07 -3.80453e-09 -4.36993e-12)
(2.52445e-07 -1.46113e-09 -2.22159e-09)
(1.6533e-07 1.45626e-10 -4.62608e-10)
(1.50382e-08 1.9031e-09 9.86072e-10)
(2.85341e-07 -1.10498e-09 -7.96069e-10)
(1.67723e-07 7.34759e-10 -1.97843e-09)
(2.87838e-07 1.16518e-09 1.64944e-09)
(6.47113e-08 5.18343e-10 -2.62962e-10)
(2.17667e-07 -2.95982e-08 1.40899e-08)
(2.098e-07 -1.70317e-09 -9.40094e-11)
(6.1358e-08 1.06789e-08 -5.7622e-09)
(1.73357e-07 -1.17626e-09 -1.24091e-09)
(2.09198e-07 3.84969e-09 -4.27576e-08)
(1.67405e-07 8.64159e-11 4.16404e-10)
(3.33685e-08 -1.02066e-10 -3.9527e-09)
(1.10419e-07 5.86781e-10 -5.85402e-09)
(1.35589e-07 -4.89419e-11 8.00614e-10)
(1.942e-07 2.10261e-09 -3.52069e-10)
(3.26831e-08 1.45358e-10 -1.45861e-10)
(2.03901e-07 7.52063e-12 6.87895e-10)
(1.62351e-07 -9.78877e-09 -1.42942e-08)
(2.77158e-08 -4.33593e-09 2.87609e-09)
(1.46666e-07 -3.77974e-10 1.95023e-10)
(1.56693e-07 -2.85701e-09 1.97245e-08)
(2.95176e-07 5.56007e-09 -5.77972e-09)
(1.4789e-07 -3.99718e-10 5.45447e-10)
(1.32955e-07 2.30335e-11 6.27347e-10)
(2.24987e-07 1.24554e-09 -5.29047e-10)
(2.26481e-07 2.77443e-09 5.50305e-09)
(7.27202e-08 5.95523e-09 -3.30081e-10)
(6.3324e-08 -2.18188e-09 -7.2132e-09)
(2.75745e-07 4.17316e-09 -1.31316e-09)
(2.20051e-07 -1.94099e-08 2.31077e-08)
(1.917e-07 -1.299e-09 7.71207e-10)
(1.70748e-07 -2.14886e-09 -3.16904e-10)
(1.24116e-07 2.10511e-09 -7.00968e-10)
(2.6958e-07 -3.28491e-10 3.30129e-10)
(1.56049e-07 2.58262e-09 2.24563e-10)
(1.69837e-07 6.87572e-10 -7.92832e-09)
(2.17157e-07 7.80338e-09 -2.03175e-09)
(5.08284e-08 2.18293e-09 -5.8088e-09)
(1.67242e-07 8.51377e-09 -5.45774e-09)
(3.79314e-08 -7.59237e-09 -1.1659e-08)
(2.55801e-07 1.36214e-09 4.40226e-10)
(2.33674e-07 -1.5779e-09 3.47637e-09)
(1.606e-07 2.22055e-09 -3.17725e-09)
(1.60464e-07 3.30585e-09 1.02168e-10)
(1.70282e-08 2.60762e-09 -2.35722e-09)
(1.07246e-07 2.96707e-09 7.6163e-10)
(8.0055e-08 -6.46131e-09 -5.45168e-09)
(1.89405e-07 6.42328e-10 -5.93144e-10)
(1.69683e-07 -1.09091e-10 -2.17334e-09)
(2.18156e-07 -2.32658e-08 1.56303e-08)
(2.4e-07 1.37247e-09 3.0066e-09)
(8.24138e-08 -2.02663e-09 -6.76558e-10)
(1.362e-07 -3.40002e-09 1.16805e-08)
(2.12848e-07 1.46818e-09 3.46031e-09)
(2.9422e-08 -1.15429e-09 -1.27242e-09)
(1.73342e-07 1.34557e-09 -2.25726e-09)
(4.90553e-08 3.30433e-09 7.89418e-10)
(1.75049e-07 -4.03791e-10 5.01703e-10)
(3.31107e-08 6.77115e-09 2.51105e-10)
(2.6403e-07 5.07478e-09 1.46483e-09)
(2.02628e-07 -1.13186e-08 7.7039e-09)
(2.06508e-07 -1.04622e-09 1.11191e-09)