/*--------------------------------*- C++ -*----------------------------------*\
| =========                 |                                                 |
| \\      /  F ield         | OpenFOAM: The Open Source CFD Toolbox           |
|  \\    /   O peration     | Version:  2406                                  |
|   \\  /    A nd           | Website:  www.openfoam.com                      |
|    \\/     M anipulation  |                                                 |
\*---------------------------------------------------------------------------*/
FoamFile
{
    version     2.0;
    format      ascii;
    arch        "LSB;label=32;scalar=64";
    class       volVectorField;
    location    "12";
    object      momentum:angularMomentum;
}
// * * * * * * * * * * * * * * * * * * * * * * * * * * * * * * * * * * * * * //

dimensions      [1 1 -1 0 0 0 0];

internalField   nonuniform List<vector> 
59516
(
(1.12224e-09 -1.42639e-09 2.34736e-07)
(3.55938e-10 9.73634e-10 1.63169e-07)
(-1.68337e-09 1.48669e-09 1.93084e-07)
(-2.02349e-09 1.19776e-09 1.48879e-07)
(-6.59984e-09 -5.29943e-10 1.88364e-07)
(-4.93656e-09 2.91407e-09 5.04154e-08)
(-5.27844e-10 -5.00302e-10 1.98836e-07)
(8.5452e-09 -1.45691e-09 1.93052e-07)
(6.3499e-10 -7.47188e-09 1.49104e-07)
(4.13912e-09 1.20344e-09 8.18345e-08)
(8.21469e-10 -6.76782e-10 1.64325e-07)
(-5.43672e-09 -5.51024e-09 1.0901e-07)
(-1.00261e-08 3.51515e-09 3.03564e-07)
(9.16102e-10 3.47874e-10 2.12422e-08)
(2.14594e-09 -1.26488e-08 1.64039e-07)
(-8.11384e-09 1.30899e-08 8.18171e-08)
(-1.02745e-09 1.87464e-10 2.00023e-07)
(-9.97336e-09 -2.64544e-09 1.43937e-07)
(-9.26746e-09 3.40811e-09 3.18785e-07)
(-3.71367e-09 1.38471e-09 2.82728e-07)
(-2.03114e-09 2.29559e-09 1.07747e-07)
(1.53009e-09 -2.33362e-09 2.67425e-07)
(-1.02e-09 1.04781e-09 2.84218e-07)
(4.4842e-09 -7.09736e-10 3.87257e-08)
(2.95236e-11 1.5657e-09 2.51365e-07)
(-1.20816e-08 9.34454e-09 1.90359e-07)
(1.75613e-09 1.9896e-09 5.61089e-08)
(-7.29281e-09 -6.27955e-09 7.84848e-08)
(-4.86481e-09 2.69256e-09 1.50373e-07)
(1.75786e-09 3.41713e-09 1.56956e-08)
(-3.52469e-08 1.09524e-09 1.80231e-07)
(-7.45093e-09 4.94873e-09 8.83021e-08)
(-8.59048e-10 -4.13572e-10 1.51512e-07)
(-5.52025e-09 -1.07775e-11 1.56733e-07)
(3.17292e-10 -2.04074e-09 1.13347e-07)
(3.15841e-09 -1.85208e-09 3.37504e-07)
(-5.59886e-09 6.58278e-10 1.26296e-08)
(-1.10187e-08 -7.38458e-09 1.18959e-07)
(-8.32436e-09 3.00599e-09 2.77275e-07)
(4.69737e-09 -2.41662e-09 2.20135e-07)
(4.46647e-09 -5.27375e-09 2.48492e-07)
(-2.5626e-09 -4.46099e-09 3.53214e-07)
(2.76683e-09 -1.57601e-09 2.89221e-07)
(-3.00944e-09 2.10531e-09 1.0319e-07)
(1.78895e-09 1.84397e-09 2.35596e-07)
(1.26243e-08 -1.11605e-09 9.75429e-08)
(-5.57458e-09 -7.07196e-09 2.89773e-07)
(1.40657e-09 -4.29645e-10 1.97579e-07)
(-3.36185e-08 5.39329e-09 2.40997e-07)
(-2.21121e-09 -1.06762e-09 1.93111e-07)
(-3.19326e-08 1.10355e-09 1.61983e-07)
(-9.12868e-09 -5.99289e-09 7.1301e-08)
(-2.41751e-09 -1.04979e-09 2.87474e-07)
(-2.31905e-09 -1.81256e-09 2.7394e-07)
(-1.35689e-08 1.17698e-09 8.64378e-08)
(5.93819e-10 2.12956e-09 2.26532e-07)
(-6.89021e-09 -4.24789e-10 1.68018e-07)
(-1.46035e-08 -1.87743e-09 8.26526e-08)
(2.81213e-09 2.39596e-09 1.48907e-07)
(-4.33161e-09 -8.47374e-10 1.25948e-07)
(6.3789e-10 2.82303e-10 1.67656e-07)
(-3.9909e-09 2.10957e-09 1.44388e-08)
(1.87158e-09 -1.71543e-09 1.92108e-07)
(1.89466e-09 6.93392e-10 2.49163e-07)
(-1.00518e-09 3.868e-09 2.81319e-07)
(2.1208e-10 3.95598e-12 1.74299e-07)
(9.54345e-11 3.63415e-09 2.38821e-08)
(-4.02942e-09 7.72167e-10 6.89762e-08)
(-3.38275e-08 2.67192e-09 1.84978e-07)
(-2.54258e-12 -2.5783e-10 1.48421e-07)
(-4.88826e-09 -2.68562e-09 6.20221e-08)
(-6.52948e-10 -3.74406e-10 1.19734e-07)
(6.43522e-09 -4.44605e-09 2.28937e-08)
(2.69744e-09 -7.30384e-10 1.59491e-07)
(-2.59568e-09 1.328e-09 2.57393e-07)
(1.11137e-09 -1.42173e-09 2.87384e-07)
(8.19111e-10 2.82441e-10 1.64862e-07)
(-3.06074e-09 -2.87479e-09 1.87259e-07)
(1.32998e-08 5.85452e-09 8.60553e-08)
(-2.52477e-09 2.18038e-10 1.51698e-07)
(-1.2021e-08 -1.05132e-09 4.9807e-08)
(-6.0831e-10 -2.47307e-10 1.38553e-07)
(-7.20637e-10 4.18022e-10 1.55071e-07)
(-5.30923e-09 3.00506e-09 2.15131e-08)
(-5.04223e-10 -6.79037e-10 1.7526e-07)
(-3.29443e-09 1.6828e-09 2.69472e-07)
(3.19453e-10 3.06395e-09 3.23118e-08)
(-1.80451e-09 7.25858e-09 4.1639e-07)
(-1.86121e-08 -9.27571e-09 1.04032e-07)
(-1.16561e-08 -8.20444e-09 1.5693e-07)
(-8.11643e-09 -1.26322e-09 1.61177e-07)
(-4.12796e-09 5.11577e-10 1.55211e-07)
(1.51504e-09 3.59022e-10 1.91047e-07)
(1.65084e-09 -4.11096e-10 1.51215e-07)
(9.16735e-11 -1.08868e-09 1.34026e-07)
(-1.71968e-08 2.27596e-09 1.77274e-07)
(-1.95965e-09 -1.21641e-09 1.08049e-07)
(8.76529e-09 8.94588e-09 8.77811e-08)
(-4.63605e-09 -3.88208e-09 1.20162e-07)
(1.05813e-09 5.24876e-11 1.69909e-07)
(-5.63375e-09 6.9236e-10 5.42447e-08)
(4.01896e-09 1.3258e-09 2.82514e-08)
(5.02184e-09 4.68699e-09 2.64335e-08)
(-5.99579e-09 1.83262e-09 9.15584e-08)
(1.86665e-09 -8.61397e-10 1.96876e-07)
(-1.03352e-09 2.43003e-10 1.28497e-07)
(6.84109e-09 -9.37966e-09 6.46489e-08)
(8.18794e-10 1.3776e-10 1.36058e-07)
(-3.73251e-09 5.79015e-10 1.74462e-07)
(-1.21009e-08 1.09371e-08 1.95825e-07)
(-2.93705e-08 -3.03655e-09 2.5305e-07)
(7.17773e-09 -8.20323e-09 4.17145e-08)
(-1.14341e-08 5.15268e-09 1.9306e-07)
(-2.86552e-08 -7.10374e-10 1.9955e-07)
(-9.81066e-10 1.3949e-09 1.7065e-07)
(-2.00937e-09 -1.25544e-09 1.35644e-07)
(-1.11214e-08 -3.40203e-09 1.23903e-07)
(-1.1056e-09 5.63458e-10 1.26671e-07)
(3.16636e-09 -1.36762e-09 1.98831e-08)
(-8.11834e-10 2.41671e-09 2.1254e-07)
(-2.71325e-09 -3.43453e-09 2.84261e-07)
(1.35293e-09 1.26198e-09 1.3024e-07)
(-9.72719e-10 -1.28011e-09 1.27248e-07)
(6.09903e-10 1.20721e-09 1.34749e-07)
(-9.13295e-09 2.12201e-09 1.20739e-07)
(-6.30183e-09 9.11481e-10 1.39222e-07)
(-4.91695e-09 -9.12984e-10 4.32789e-08)
(-6.28477e-09 3.05283e-09 1.91243e-07)
(-2.09566e-08 5.69378e-09 1.55385e-07)
(6.27403e-10 8.82772e-10 1.11021e-07)
(3.47822e-09 -1.88549e-09 1.95307e-07)
(4.49048e-09 2.22751e-09 3.195e-07)
(-5.14523e-10 -4.06389e-09 2.36798e-08)
(1.72229e-09 1.46254e-11 2.15011e-07)
(1.68144e-09 1.667e-09 3.14489e-07)
(-7.27614e-10 2.04998e-09 1.85075e-07)
(-1.59489e-08 2.4431e-09 1.40366e-07)
(2.57448e-09 8.78672e-10 2.92489e-07)
(-2.35454e-09 3.40269e-09 5.33547e-08)
(-3.64603e-09 3.2091e-09 1.65105e-07)
(-3.10541e-09 5.38333e-09 7.59958e-08)
(-9.31336e-10 1.03545e-09 2.26152e-07)
(4.41627e-10 -1.59012e-09 1.48096e-08)
(-6.38192e-10 -5.24712e-10 1.34242e-07)
(-1.08362e-09 5.65898e-10 1.50259e-07)
(-2.55367e-09 8.14343e-10 2.42626e-07)
(9.37982e-11 -3.07605e-10 1.81741e-07)
(-6.541e-09 2.85715e-09 1.98539e-07)
(2.29236e-09 -2.6963e-09 6.2879e-08)
(1.51155e-09 4.61587e-10 2.07133e-07)
(-6.45702e-09 1.95111e-09 3.28329e-07)
(1.40746e-10 1.09377e-09 5.40366e-08)
(3.45613e-09 2.48209e-09 2.94737e-07)
(1.24558e-09 -2.42804e-09 1.72409e-07)
(-4.82387e-10 -2.14393e-09 1.65413e-07)
(-1.52637e-09 2.05438e-09 1.71285e-08)
(2.17925e-09 1.79536e-09 2.68783e-07)
(-4.5147e-09 -2.97595e-10 3.29385e-07)
(-4.64168e-09 5.11175e-10 1.38367e-07)
(-4.06211e-09 -3.48405e-09 1.84643e-08)
(5.03716e-09 -4.33082e-10 9.80329e-08)
(9.28163e-09 2.14583e-11 1.25614e-07)
(-3.26049e-09 1.3074e-09 4.58267e-08)
(-8.82864e-10 -7.43091e-10 2.7687e-08)
(3.67927e-09 3.2015e-09 1.60664e-07)
(-2.89193e-09 7.17288e-10 2.3989e-07)
(7.79954e-09 4.97966e-09 1.43727e-07)
(7.65268e-11 -1.91574e-09 1.9927e-07)
(5.7673e-10 3.93424e-09 2.164e-08)
(1.24324e-09 3.74999e-11 1.73432e-07)
(-3.25136e-09 -1.0063e-09 9.31875e-08)
(-1.89292e-09 1.43145e-09 7.45596e-08)
(-3.13072e-10 -1.06483e-09 1.14074e-07)
(-9.31851e-12 4.35558e-12 1.30897e-07)
(6.0432e-10 2.6917e-09 9.03624e-08)
(-4.17885e-09 -1.07367e-08 4.02886e-07)
(-5.60209e-10 5.09135e-11 1.80011e-07)
(1.02888e-09 6.58046e-10 2.64761e-07)
(6.86563e-09 -3.63368e-09 1.53389e-07)
(-4.39345e-10 2.30944e-09 6.6551e-08)
(2.69561e-10 -4.23439e-09 2.61613e-07)
(4.34301e-09 6.45349e-09 4.46569e-08)
(-5.90619e-09 -3.57183e-09 3.56103e-08)
(-3.36731e-09 5.35013e-09 1.07552e-07)
(6.26628e-10 -1.36623e-09 1.44693e-07)
(-4.37536e-10 -8.53338e-10 9.38859e-08)
(-6.71921e-09 1.20701e-09 4.19238e-08)
(-1.93425e-10 8.49741e-10 1.97754e-08)
(-9.19458e-10 -3.72195e-09 1.79267e-07)
(-6.84045e-10 -1.41725e-09 2.29366e-07)
(-1.90113e-09 -1.82532e-10 1.30764e-07)
(-1.83019e-10 -1.10939e-08 1.14248e-07)
(-1.6481e-09 1.21181e-09 1.66825e-07)
(6.39497e-09 -4.08444e-09 1.03015e-07)
(-2.58683e-10 4.61482e-09 2.76695e-07)
(3.07835e-09 9.81953e-10 2.72505e-08)
(9.19776e-10 -3.41203e-09 9.78827e-08)
(2.76459e-09 -6.14739e-10 5.68969e-08)
(-4.80361e-09 -4.3582e-10 1.75832e-07)
(8.47061e-10 1.84678e-09 2.13525e-07)
(-2.02015e-09 -2.9772e-09 7.31272e-08)
(1.46164e-09 1.66932e-09 1.32142e-07)
(-1.00582e-09 1.18864e-10 3.10152e-07)
(2.07477e-09 -3.42544e-09 1.65895e-08)
(3.28145e-09 1.38285e-09 2.07026e-07)
(-2.06184e-09 -6.15768e-10 2.02448e-07)
(2.65844e-09 4.59103e-10 2.43787e-07)
(-1.78815e-09 2.95902e-09 1.49103e-07)
(-3.50389e-10 5.12585e-10 2.07732e-08)
(-6.33828e-10 1.2095e-09 2.94242e-07)
(1.7241e-09 9.103e-09 5.71743e-08)
(-4.41566e-09 2.06761e-09 2.73015e-08)
(-3.42583e-09 2.32617e-09 2.02874e-07)
(-9.58712e-10 3.82262e-10 9.51123e-08)
(-3.78433e-09 -9.80838e-10 2.8675e-07)
(-2.70979e-09 -7.3875e-10 2.09474e-07)
(-5.85817e-10 -2.76623e-10 2.37071e-07)
(-2.06236e-10 -1.98322e-10 1.68627e-07)
(-7.04487e-09 4.09365e-09 8.46597e-08)
(9.15537e-10 -6.36617e-10 1.79868e-07)
(-2.85481e-09 -7.56657e-09 1.27891e-07)
(1.88047e-09 1.83829e-09 1.90282e-07)
(-3.9097e-10 -1.30141e-09 1.34056e-07)
(6.37592e-09 2.28758e-10 8.21371e-08)
(-2.4617e-09 -1.7614e-09 2.12993e-07)
(-7.45524e-10 1.69982e-09 2.2443e-07)
(1.94942e-09 -6.44362e-10 3.21335e-08)
(-9.34272e-09 -5.16518e-10 7.08478e-08)
(-2.46271e-09 1.01729e-09 1.43097e-07)
(-1.0597e-08 8.42337e-09 1.09564e-07)
(-4.50724e-10 1.4893e-09 1.81637e-07)
(-1.1816e-09 -6.19436e-11 1.29677e-07)
(1.357e-11 -7.82657e-10 2.16466e-07)
(-3.41362e-09 -3.7852e-09 2.46592e-08)
(-4.29053e-09 -2.04108e-09 3.0843e-08)
(-1.27814e-09 2.14153e-09 4.3896e-08)
(5.32411e-09 -1.61172e-10 1.13586e-07)
(-3.48243e-09 -2.37786e-09 1.63843e-07)
(-6.84362e-11 -4.41372e-09 3.27293e-07)
(9.83073e-09 2.35594e-09 8.59054e-08)
(2.23902e-09 6.09416e-10 1.71393e-07)
(4.34545e-09 3.86856e-09 2.03462e-08)
(3.17875e-09 1.58376e-09 1.02268e-07)
(3.37716e-09 1.00726e-09 3.0314e-08)
(7.908e-10 7.39641e-10 1.14143e-07)
(7.52233e-10 -1.60037e-09 1.62783e-07)
(5.44615e-10 -1.74304e-09 1.64505e-07)
(2.32403e-09 1.01078e-08 1.87028e-07)
(1.59949e-09 1.79421e-09 2.12443e-07)
(-2.36393e-10 2.46985e-09 1.97067e-07)
(4.3112e-09 -1.98883e-09 2.92476e-07)
(-4.34298e-10 5.42597e-10 1.81646e-07)
(1.32013e-09 1.7302e-09 1.31124e-07)
(9.28987e-10 2.24939e-10 2.31797e-07)
(2.07801e-10 1.05657e-09 2.3472e-07)
(-9.84733e-10 3.2297e-10 2.37044e-07)
(-7.10759e-09 -2.46741e-09 1.07598e-07)
(-1.62257e-09 -3.60338e-09 2.2583e-07)
(3.81878e-09 5.65298e-09 8.42709e-08)
(-5.93515e-11 4.10525e-09 9.853e-08)
(-6.46579e-10 3.95643e-10 1.96056e-07)
(-2.34912e-10 1.28116e-09 2.01042e-07)
(6.70298e-10 2.78372e-09 2.37351e-07)
(-2.03824e-09 1.77721e-09 2.05304e-07)
(1.6036e-09 1.67837e-09 7.486e-08)
(-9.37769e-10 -9.36658e-09 9.68511e-08)
(3.29247e-09 1.76697e-09 2.41244e-07)
(-5.34884e-09 5.27272e-09 2.10312e-07)
(8.12579e-10 1.98929e-09 6.3432e-08)
(2.2598e-09 8.76638e-10 7.9265e-08)
(-7.55226e-09 2.39431e-09 1.68142e-07)
(-4.38552e-10 -8.80113e-10 1.34047e-07)
(-6.77006e-10 6.70142e-09 2.9985e-07)
(1.01651e-09 3.87444e-09 1.50462e-07)
(-3.77622e-09 2.36701e-09 2.54114e-07)
(-1.55425e-09 8.25732e-09 1.92296e-07)
(-1.46719e-09 -4.77738e-09 2.10084e-08)
(-1.68173e-11 1.29941e-09 2.33671e-07)
(3.581e-09 -3.4508e-09 3.10169e-08)
(7.22262e-09 2.7271e-09 5.14874e-08)
(1.52162e-09 -2.25525e-09 2.38275e-07)
(1.10177e-09 2.6062e-09 2.13574e-07)
(-6.00982e-09 3.12529e-09 2.63432e-08)
(-6.05074e-09 -7.7588e-11 2.85517e-07)
(-2.9569e-09 -3.94729e-09 2.33304e-07)
(1.20121e-09 -1.0181e-09 1.83983e-07)
(-2.84904e-10 -9.43689e-11 2.25369e-07)
(1.8844e-09 -3.55568e-09 2.60682e-08)
(-3.35672e-09 -8.43208e-10 1.90509e-07)
(-3.6727e-10 -1.76189e-09 9.8448e-08)
(6.18719e-10 -9.8688e-10 1.1423e-07)
(-1.56573e-10 -4.82469e-09 2.1803e-07)
(-1.73418e-09 5.74074e-11 1.40592e-07)
(-6.11785e-10 1.56774e-09 1.67671e-07)
(-3.71942e-10 3.00881e-10 1.99724e-07)
(-2.91993e-09 4.70656e-09 3.54422e-08)
(1.49138e-09 -1.93801e-09 2.11802e-07)
(1.29296e-09 -1.10358e-09 1.71714e-07)
(1.35938e-10 -3.683e-09 2.48954e-07)
(-7.39054e-10 -2.2152e-09 1.8859e-07)
(-6.11666e-10 2.14247e-09 2.95475e-07)
(8.75579e-09 -3.29429e-09 1.2586e-07)
(1.34342e-09 -1.32048e-09 1.90903e-08)
(2.49204e-09 -1.22123e-10 3.48146e-08)
(-8.30689e-10 2.55014e-09 3.95988e-07)
(-5.2027e-09 3.61758e-09 1.94693e-08)
(-3.85117e-09 -6.5542e-09 1.62402e-07)
(-2.21599e-09 7.04864e-09 7.29285e-08)
(6.14967e-10 5.71315e-10 2.3607e-07)
(-5.76409e-10 -1.13319e-09 2.73598e-07)
(9.53798e-10 1.61198e-10 2.57949e-07)
(6.30845e-09 1.75671e-09 1.22581e-07)
(3.66632e-09 -2.3825e-10 2.67386e-07)
(-2.30013e-09 9.41446e-09 6.66056e-08)
(3.24625e-09 -3.80792e-09 9.33672e-08)
(1.14805e-09 -2.00703e-09 1.49452e-07)
(2.67083e-09 -6.06885e-09 1.55852e-07)
(-3.74207e-08 -5.01327e-09 2.64777e-07)
(-4.49871e-09 -3.01242e-09 1.85002e-07)
(-4.30825e-09 -2.34111e-10 5.91328e-08)
(4.54157e-09 2.19562e-09 1.00019e-07)
(-1.02513e-09 1.22916e-09 1.99213e-07)
(9.58013e-10 1.16871e-09 1.53857e-07)
(-6.72105e-09 3.08185e-10 2.95372e-07)
(-3.8731e-10 1.79766e-09 1.5682e-07)
(2.69514e-09 5.63867e-09 3.79772e-07)
(-1.55006e-09 -7.3339e-09 1.60803e-07)
(-3.22092e-09 4.17649e-09 2.9409e-07)
(-3.3114e-10 2.09837e-09 1.99181e-07)
(-1.11967e-09 -2.15053e-09 1.54088e-07)
(1.48743e-10 2.17265e-10 2.57512e-07)
(-4.60223e-09 -3.42303e-09 1.12222e-07)
(1.89161e-09 -1.87843e-09 2.49487e-08)
(-1.10616e-09 -2.32816e-09 2.4089e-07)
(2.44849e-09 4.38718e-09 5.56335e-08)
(-1.11267e-09 -3.20891e-10 2.97826e-08)
(-2.01644e-09 -3.29037e-09 2.97257e-07)
(1.48834e-09 -4.07473e-10 1.65152e-07)
(-3.20698e-09 5.07935e-09 1.08118e-07)
(-1.56158e-09 3.51916e-10 1.83932e-07)
(1.34832e-10 2.82034e-09 2.47664e-07)
(-9.12758e-10 -2.70713e-09 2.89256e-07)
(1.85939e-09 -7.61962e-10 1.93346e-07)
(2.01321e-09 -3.70818e-09 2.67861e-08)
(9.4886e-10 5.33047e-10 2.49382e-07)
(1.5241e-10 2.23536e-10 1.52859e-07)
(-4.6366e-10 1.5781e-09 8.93872e-08)
(1.22004e-09 -1.19342e-09 2.02963e-07)
(1.36915e-09 7.47697e-10 1.78959e-07)
(2.13088e-09 2.83324e-09 1.55753e-07)
(8.86379e-10 -1.3692e-11 1.81606e-07)
(2.30884e-09 4.05325e-10 2.19449e-07)
(9.58255e-10 3.56914e-09 1.69154e-07)
(-6.39081e-10 3.39274e-09 8.10504e-08)
(1.22737e-10 1.56491e-10 2.10455e-08)
(4.82923e-09 5.61142e-09 3.39364e-08)
(-2.46135e-09 3.72073e-09 2.13126e-07)
(-2.61487e-08 6.43162e-09 2.35753e-07)
(-5.85657e-09 9.8079e-10 1.06603e-07)
(-1.34936e-10 2.2407e-09 1.10585e-07)
(-1.03479e-09 -3.9439e-09 2.30496e-07)
(-2.15404e-09 -1.84031e-09 2.85201e-07)
(-1.13468e-09 1.14302e-09 1.7489e-07)
(2.10798e-09 -4.85296e-09 2.94758e-07)
(4.68515e-10 -1.42806e-09 3.0299e-07)
(-3.16464e-10 -1.62033e-10 1.83084e-07)
(-7.55027e-10 6.18489e-10 1.12325e-07)
(-5.73068e-10 2.62869e-09 2.75123e-08)
(-4.33479e-08 4.05338e-09 2.29111e-07)
(4.00909e-10 5.86999e-09 9.42472e-08)
(-4.97297e-09 5.15572e-09 5.99457e-08)
(1.061e-08 -2.9281e-10 6.35261e-08)
(2.30996e-10 -2.01703e-09 1.34787e-07)
(-3.993e-09 -2.49382e-09 1.74071e-07)
(-1.13404e-09 -7.09301e-10 1.8461e-07)
(-2.15898e-09 1.81662e-09 1.91584e-08)
(1.22848e-09 1.21786e-09 1.5645e-07)
(4.65444e-09 -3.4656e-09 7.43215e-08)
(-4.77577e-10 1.04825e-09 1.41363e-07)
(-6.53535e-10 3.9621e-09 5.78098e-08)
(1.01236e-09 3.46412e-10 1.57964e-07)
(1.99662e-09 7.85319e-10 2.15078e-07)
(6.59896e-10 9.37391e-10 1.48185e-07)
(3.73064e-09 3.86346e-10 2.16932e-08)
(-2.69811e-09 7.52215e-09 1.14326e-07)
(-3.52145e-10 4.67355e-10 2.09071e-07)
(4.55733e-10 -3.68567e-09 2.56591e-08)
(-6.30275e-09 -1.65366e-09 2.52493e-07)
(1.90535e-09 -2.0421e-09 1.70656e-07)
(2.81929e-09 -2.64067e-10 2.694e-07)
(6.30233e-09 -2.9075e-10 1.99822e-07)
(1.46705e-09 5.33964e-10 9.21535e-08)
(6.55356e-10 -2.03664e-09 3.18109e-07)
(-1.72658e-08 -7.02394e-09 1.28594e-07)
(-3.81567e-09 -9.66631e-10 2.2647e-07)
(-1.32328e-08 7.73513e-10 1.37211e-07)
(6.30254e-10 -2.35539e-09 1.44567e-07)
(-1.76421e-09 1.00905e-08 1.4711e-07)
(2.8936e-10 -3.50815e-10 1.90205e-07)
(2.13274e-09 -3.88719e-09 3.89664e-07)
(9.25341e-10 3.58516e-09 8.30793e-08)
(3.31213e-09 -4.28864e-09 3.05483e-07)
(-2.44714e-09 2.3046e-09 1.19586e-07)
(2.24764e-09 8.5063e-10 3.06466e-07)
(2.31337e-09 4.19606e-10 2.335e-07)
(-8.0462e-10 -7.01214e-09 6.084e-08)
(3.08802e-10 7.44811e-11 1.8968e-07)
(3.47756e-09 3.73365e-09 3.2693e-07)
(5.39065e-10 -3.82035e-10 1.91995e-07)
(-4.42124e-10 4.61696e-10 1.80893e-07)
(7.54324e-09 -2.93021e-09 2.0745e-08)
(-4.21038e-09 -2.72833e-09 1.98848e-08)
(1.85331e-10 1.85185e-09 2.5841e-07)
(1.48071e-09 1.80438e-10 2.02051e-07)
(-2.70368e-10 1.20065e-09 1.53719e-07)
(-2.67701e-09 2.24287e-09 3.9104e-08)
(-7.87898e-11 4.64455e-10 6.44123e-08)
(-2.35743e-09 7.47279e-09 2.95131e-07)
(-1.1814e-09 6.20629e-10 1.14744e-07)
(2.43105e-09 -8.2762e-10 2.24866e-07)
(1.136e-09 -1.63079e-09 1.97398e-07)
(2.68849e-10 -2.25025e-09 1.60323e-07)
(6.0131e-10 -1.93613e-09 1.71783e-07)
(-8.17085e-10 -4.62915e-10 1.26225e-07)
(-1.11637e-09 -5.01319e-11 1.47235e-07)
(-6.9243e-09 4.04757e-09 9.22337e-08)
(1.7555e-09 3.41871e-09 2.15926e-07)
(3.54032e-09 -4.74659e-09 1.811e-07)
(-7.02417e-10 1.32054e-09 1.67782e-07)
(7.835e-10 2.72234e-10 1.55731e-07)
(-2.32788e-09 -4.18377e-09 2.9068e-07)
(4.60403e-10 1.9574e-09 2.21025e-07)
(5.38787e-09 5.6618e-09 6.94813e-08)
(2.67593e-09 1.42108e-09 3.94211e-08)
(-1.993e-09 -4.43153e-09 2.2347e-08)
(-2.64278e-09 -4.69006e-10 1.80723e-07)
(1.48862e-11 -1.00077e-10 2.0078e-07)
(-1.14648e-09 1.30905e-09 2.30636e-07)
(-1.41574e-09 -4.72924e-09 1.75844e-07)
(2.20035e-09 -2.4628e-09 2.84529e-08)
(-2.7983e-09 -4.08687e-09 2.43081e-08)
(-2.31632e-09 -5.34175e-09 1.71859e-07)
(1.00272e-09 3.1721e-09 1.861e-07)
(-2.63341e-09 1.79907e-09 2.21485e-07)
(2.9894e-09 -2.13628e-09 2.64267e-07)
(-6.01914e-10 -6.95287e-10 1.83589e-07)
(-3.30556e-09 2.34929e-09 2.29057e-07)
(1.47351e-09 -1.91161e-10 3.3992e-07)
(6.7839e-11 3.78511e-09 3.42112e-08)
(-1.07638e-09 1.03485e-09 1.69389e-07)
(3.47402e-09 -1.90789e-09 7.27006e-08)
(-7.95282e-09 -9.56425e-10 8.89298e-08)
(8.57006e-10 -8.65179e-10 1.01132e-07)
(-1.60922e-09 8.60432e-09 1.44909e-07)
(2.23489e-09 -8.1357e-10 2.13411e-07)
(-6.38333e-09 3.04729e-09 2.06135e-08)
(5.04065e-09 -2.88945e-09 2.5886e-07)
(-7.61702e-10 -2.11803e-10 1.89286e-07)
(-1.19991e-09 6.15935e-11 1.48351e-07)
(2.92359e-09 -2.20177e-09 1.9774e-07)
(2.89656e-10 -6.66363e-10 1.33456e-07)
(-2.37484e-09 3.1895e-10 1.81037e-07)
(2.87494e-10 -2.33448e-09 2.16639e-07)
(2.26802e-12 -2.99843e-10 2.05025e-07)
(-9.2031e-09 -2.28573e-09 1.65212e-07)
(4.90712e-10 2.76739e-09 1.97222e-07)
(-3.23072e-09 2.80113e-10 2.38505e-07)
(-1.0758e-09 -4.99562e-10 1.89411e-08)
(-2.03986e-09 1.69082e-09 2.14916e-07)
(1.69347e-09 2.00705e-09 1.70941e-07)
(-8.52944e-09 -4.59563e-09 6.08216e-08)
(-8.54248e-10 -1.4573e-09 1.81298e-07)
(-1.18135e-10 1.5129e-09 2.5136e-07)
(5.86108e-10 3.31618e-10 2.0033e-07)
(-1.85521e-10 3.17623e-09 1.21004e-07)
(-3.81864e-09 2.63538e-09 1.81066e-08)
(-7.83255e-10 -2.97718e-10 1.83732e-07)
(-2.76142e-09 8.34015e-09 2.99274e-07)
(6.3296e-11 -1.17078e-09 1.84723e-07)
(-1.60308e-10 7.61452e-10 1.72282e-07)
(-9.91074e-09 -3.63419e-11 5.21019e-08)
(5.55155e-10 -3.2848e-11 2.07618e-07)
(-4.77246e-09 -1.75787e-09 2.85237e-08)
(-7.3941e-10 3.68397e-10 1.32022e-07)
(-2.5556e-08 -3.69371e-10 2.08073e-07)
(-1.97687e-09 -2.91999e-10 1.88964e-07)
(-1.46241e-09 2.16903e-09 9.62604e-08)
(-3.671e-09 -9.31232e-10 1.76353e-07)
(-2.61941e-09 7.54348e-10 1.1643e-07)
(5.32364e-09 -3.95582e-09 4.85339e-08)
(4.81075e-09 -4.87659e-10 3.04665e-07)
(-1.73158e-09 1.90552e-09 1.44801e-07)
(1.25572e-10 -1.06911e-09 1.97585e-08)
(1.91733e-09 -1.15881e-09 2.09178e-07)
(5.30063e-10 -3.94538e-09 1.84517e-07)
(-1.82145e-09 3.21277e-09 4.06467e-08)
(4.4779e-09 6.92134e-09 1.2989e-07)
(-1.00674e-08 4.40534e-09 8.54209e-08)
(-1.97751e-10 1.70215e-09 1.49801e-07)
(3.21803e-09 1.03546e-10 1.77507e-07)
(-1.87991e-09 1.11998e-09 3.84055e-08)
(1.08098e-08 4.50406e-10 9.0699e-08)
(1.53109e-09 -2.52002e-09 1.01272e-07)
(9.25725e-10 -1.80911e-09 1.64699e-07)
(4.22529e-09 -1.4697e-09 2.26473e-07)
(-4.65667e-09 -3.71453e-09 2.35905e-08)
(2.03443e-09 2.0096e-09 2.88428e-07)
(-1.57011e-10 -9.92018e-10 1.9456e-07)
(-2.34254e-09 1.10601e-10 1.83707e-07)
(-3.0528e-09 -6.21238e-09 1.14099e-07)
(-5.47669e-10 -1.51504e-09 2.5374e-07)
(1.55247e-09 -3.52078e-09 2.05245e-08)
(-3.40724e-09 4.64849e-10 2.27713e-07)
(7.87051e-10 -2.85061e-10 3.09999e-08)
(8.17474e-09 -1.20192e-08 1.4374e-07)
(1.3719e-09 -5.95789e-10 1.78854e-07)
(-3.27911e-09 2.07272e-09 1.33033e-07)
(-2.64979e-09 2.79489e-09 2.06027e-08)
(3.89372e-09 -6.80762e-10 5.50558e-08)
(-5.4628e-09 2.27927e-09 7.76028e-08)
(5.38828e-09 -7.66332e-09 1.39557e-07)
(2.70347e-09 2.65312e-09 2.78024e-07)
(-3.10132e-09 1.61466e-09 5.9114e-08)
(6.6218e-09 -7.69683e-09 1.34891e-07)
(-1.61162e-08 -2.43706e-09 2.02555e-07)
(-2.19296e-09 7.37004e-10 1.48857e-07)
(6.40192e-09 -1.65264e-09 2.77035e-08)
(1.28462e-09 2.59211e-09 2.1442e-07)
(-9.75284e-09 -9.37651e-09 1.30077e-07)
(-8.14021e-11 -3.96228e-10 1.49456e-07)
(-2.26982e-09 1.02115e-09 1.1087e-07)
(-1.66407e-09 1.38782e-09 1.25347e-07)
(8.05985e-09 2.59364e-09 1.13836e-07)
(-7.24511e-10 2.09275e-09 1.43935e-07)
(-1.76033e-09 -7.8282e-10 1.09167e-07)
(7.26124e-09 -8.099e-09 7.25062e-08)
(2.5567e-09 8.7447e-11 2.10561e-07)
(-3.60821e-09 -2.37805e-09 7.11549e-08)
(2.92913e-09 -2.9273e-09 1.77325e-08)
(1.5403e-09 -4.41124e-09 2.57376e-07)
(-1.51853e-09 -2.07006e-09 1.28323e-07)
(-1.74571e-09 3.32678e-09 2.61615e-07)
(4.78719e-09 -2.6967e-09 2.09935e-07)
(1.53309e-09 -8.82068e-10 3.20071e-07)
(6.57205e-10 -2.676e-09 1.39692e-07)
(1.2984e-09 -1.24353e-09 3.07777e-07)
(4.22726e-09 4.65574e-09 1.0408e-07)
(-1.4699e-09 -9.20926e-10 1.04552e-07)
(-9.82433e-10 -1.24163e-09 2.67219e-07)
(-5.88311e-09 -4.90891e-09 3.01269e-08)
(-1.59777e-09 6.681e-10 2.52216e-07)
(-6.39014e-09 -7.4931e-09 1.1586e-07)
(3.87716e-09 4.17542e-09 3.28655e-08)
(3.69291e-10 1.16674e-09 2.39317e-07)
(-4.69378e-09 2.04335e-09 5.88192e-08)
(-2.4439e-09 1.47646e-09 1.70319e-07)
(1.54622e-10 6.21487e-10 1.48921e-07)
(-2.12748e-09 1.13406e-09 3.23658e-07)
(8.32704e-09 8.07367e-09 9.58516e-08)
(4.08082e-10 -6.49503e-10 2.07355e-07)
(-1.83958e-09 -1.02332e-09 1.55413e-07)
(-1.8564e-09 -9.48701e-11 2.21018e-07)
(1.21379e-09 1.98246e-09 2.28315e-07)
(5.60028e-10 -6.57602e-10 2.02777e-07)
(-3.90101e-10 -1.1926e-09 1.15104e-07)
(6.54128e-09 1.59319e-09 4.81677e-08)
(3.38005e-09 -1.77762e-09 6.85363e-08)
(-1.39836e-09 8.14633e-10 1.28908e-07)
(-2.04632e-09 2.59396e-10 2.21282e-07)
(2.24066e-09 4.14429e-09 2.92231e-08)
(-4.15819e-09 -3.39414e-10 1.88247e-07)
(-3.87502e-09 5.21225e-09 3.46135e-07)
(-2.17148e-10 9.20193e-10 2.55066e-07)
(1.06504e-09 1.21483e-10 2.6567e-07)
(-3.54179e-10 3.82077e-09 2.38339e-07)
(-6.20407e-10 2.72362e-09 2.20759e-08)
(-1.05511e-09 1.9397e-09 1.68338e-07)
(4.01457e-09 -3.4575e-10 1.42601e-07)
(-2.53425e-09 -1.79409e-09 2.06625e-07)
(3.05231e-10 2.65273e-10 1.54527e-07)
(9.90282e-10 -3.14522e-09 3.39835e-08)
(-1.55622e-09 2.34114e-09 1.40974e-07)
(-1.46816e-09 5.22834e-09 1.5186e-07)
(3.31759e-09 1.95988e-09 2.28278e-07)
(2.15051e-10 1.71517e-09 1.86367e-07)
(1.47731e-10 -1.60876e-09 1.69798e-07)
(1.71247e-09 2.56331e-09 1.4681e-08)
(-2.53488e-09 1.70175e-09 2.26197e-08)
(-3.52564e-10 -2.6215e-09 1.28341e-07)
(-2.00692e-09 6.01879e-10 2.15234e-07)
(3.8005e-11 1.57807e-09 1.60731e-07)
(9.34195e-11 3.29785e-09 1.38384e-07)
(2.65128e-09 2.64797e-09 1.53465e-07)
(7.24313e-10 3.4986e-09 2.09524e-07)
(-3.08828e-10 -1.9598e-09 2.0526e-07)
(1.72375e-09 2.46392e-09 1.9547e-08)
(6.5494e-11 -1.66874e-09 1.01279e-07)
(-7.55258e-09 2.65624e-09 1.57926e-07)
(-2.90768e-09 4.12084e-09 4.72436e-08)
(-1.11354e-09 7.01336e-09 8.06782e-08)
(-1.38659e-09 2.32992e-09 2.67407e-07)
(1.41411e-09 1.45487e-09 1.86426e-07)
(2.3398e-10 -3.90343e-10 1.6845e-07)
(-1.62671e-09 -1.45228e-09 2.20859e-07)
(-4.90493e-09 1.49523e-09 1.37707e-07)
(-3.45013e-10 -1.20963e-09 2.35367e-07)
(4.22335e-09 -5.64228e-10 1.67075e-07)
(1.07963e-09 -1.38609e-09 3.24042e-07)
(6.87652e-11 -2.46113e-09 1.54822e-07)
(2.32123e-09 -1.04085e-09 1.64639e-07)
(1.16447e-09 -7.5538e-12 2.25498e-07)
(1.10578e-09 4.86101e-10 4.94622e-08)
(3.31944e-09 1.35269e-09 4.1189e-07)
(-4.22578e-09 -2.3532e-09 3.37574e-08)
(-1.37929e-08 -2.64121e-09 1.40568e-07)
(4.49236e-09 2.25407e-09 1.19365e-07)
(-9.52669e-09 -1.35098e-09 1.44126e-07)
(3.4037e-09 -1.15404e-09 1.95844e-07)
(-4.01846e-08 3.73078e-10 2.68029e-07)
(-8.61012e-10 -1.92083e-10 1.01468e-07)
(9.80384e-10 1.85577e-09 2.3949e-07)
(-2.09185e-09 -2.26849e-09 2.74376e-07)
(1.58859e-09 1.11324e-10 1.52145e-07)
(-2.68032e-09 -1.27046e-10 3.65266e-08)
(-6.52329e-09 -2.95414e-10 1.1845e-07)
(-3.19185e-08 -2.17267e-09 2.02451e-07)
(6.03245e-10 -1.37036e-09 1.52039e-07)
(-9.28524e-10 2.69606e-09 9.71816e-08)
(-7.26297e-09 2.49173e-09 1.95226e-07)
(-1.28685e-09 1.41359e-09 1.84869e-07)
(-2.77487e-09 2.31794e-09 2.92967e-07)
(-5.08187e-09 -1.39742e-09 4.21737e-08)
(4.05084e-09 2.24293e-09 5.48216e-08)
(-3.58759e-09 -3.81085e-09 2.06727e-08)
(-1.21684e-10 1.61948e-09 2.43203e-08)
(-7.22512e-10 8.13817e-10 4.53834e-08)
(-3.08549e-09 2.13298e-09 2.02686e-07)
(3.31617e-10 2.28166e-09 1.58478e-07)
(-1.44783e-09 -3.51904e-09 2.16325e-08)
(-3.94641e-09 2.23506e-09 2.42345e-08)
(2.37244e-09 1.59314e-09 2.4682e-07)
(-2.18364e-08 4.35561e-09 1.53985e-07)
(-6.78991e-09 -4.66447e-11 4.76219e-08)
(-1.00197e-09 3.66837e-10 1.90656e-07)
(-2.39139e-09 5.3867e-11 1.02866e-07)
(6.48515e-10 6.82575e-10 1.77975e-07)
(5.07119e-09 4.33409e-09 4.60205e-08)
(3.27202e-10 -5.42315e-10 8.96413e-08)
(7.80238e-10 3.37708e-10 1.86249e-07)
(-1.60998e-09 -6.33492e-10 1.9946e-07)
(-1.19834e-09 -1.11223e-10 3.23249e-07)
(-3.97946e-10 7.04463e-09 4.86539e-08)
(2.77988e-10 -4.40815e-09 2.15547e-08)
(-3.48431e-08 3.28319e-09 1.99534e-07)
(-7.16626e-09 3.70264e-09 2.87629e-08)
(-2.81898e-09 5.56186e-09 2.7469e-07)
(-8.91351e-09 -4.59632e-09 2.85542e-08)
(7.21466e-10 4.42976e-09 1.55894e-07)
(7.60314e-10 -9.2492e-10 2.19354e-07)
(9.58966e-10 3.25739e-09 3.20024e-07)
(-6.54076e-09 -6.78961e-09 6.22513e-08)
(1.95937e-09 -1.22166e-09 1.38179e-07)
(-2.58026e-09 -1.4599e-09 3.91295e-08)
(-4.33549e-09 -4.76815e-10 2.78865e-08)
(-1.72189e-10 -1.47605e-09 1.86751e-07)
(-3.97143e-09 2.23659e-09 1.71473e-08)
(1.71987e-09 -2.00178e-09 1.34625e-07)
(-7.01267e-09 -1.61048e-09 6.01925e-08)
(-2.87246e-10 2.88153e-09 2.58358e-07)
(9.70552e-10 1.39399e-09 1.928e-07)
(4.74333e-09 2.22429e-09 1.89142e-08)
(-8.1457e-09 -7.65297e-09 1.43463e-07)
(-1.51691e-09 2.08282e-10 1.99233e-07)
(-2.92213e-09 2.8353e-09 3.07569e-08)
(5.91285e-10 2.75035e-10 2.17065e-07)
(-5.42507e-09 1.05807e-08 8.06982e-08)
(9.95822e-10 3.55781e-09 2.11024e-07)
(-6.34648e-10 1.41424e-09 1.60477e-07)
(7.03295e-09 1.36711e-09 5.73071e-08)
(-6.11885e-09 -2.51667e-09 2.13379e-08)
(4.32375e-09 1.00216e-09 9.83817e-08)
(-4.23824e-08 1.21889e-09 2.37048e-07)
(5.51839e-09 3.93883e-09 2.26299e-07)
(-3.37864e-11 6.33596e-09 8.05137e-08)
(4.38479e-09 -1.03691e-09 1.81862e-07)
(-3.09812e-10 2.1382e-09 2.43458e-08)
(-1.32527e-10 1.60158e-09 1.41291e-07)
(8.14848e-11 5.8685e-10 1.7178e-08)
(-9.4015e-10 3.68654e-09 2.52758e-07)
(-1.889e-09 1.87137e-09 2.52445e-07)
(-4.83139e-10 4.23121e-11 1.6533e-07)
(-1.82071e-09 -1.13099e-09 1.50382e-08)
(-1.66545e-11 1.36177e-09 2.85341e-07)
(8.65735e-10 1.92473e-09 1.67723e-07)
(-3.06855e-10 1.99603e-09 2.87838e-07)
(-5.29785e-10 -2.39075e-10 6.47113e-08)
(-3.27805e-08 -1.24296e-10 2.17667e-07)
(-1.29444e-09 1.11089e-09 2.098e-07)
(1.19301e-08 2.21691e-09 6.1358e-08)
(7.37803e-10 -1.54243e-09 1.73357e-07)
(-4.26016e-08 5.30449e-09 2.09198e-07)
(4.23577e-10 -3.79825e-11 1.67405e-07)
(-3.00014e-09 -2.57553e-09 3.33685e-08)
(-4.00758e-09 4.30734e-09 1.10419e-07)
(7.66331e-10 2.36888e-10 1.35589e-07)
(4.96688e-10 -2.07321e-09 1.942e-07)
(9.40484e-11 1.83191e-10 3.26831e-08)
(5.00595e-10 4.7187e-10 2.03901e-07)
(1.62536e-08 5.99708e-09 1.62351e-07)
(-3.42234e-09 3.91916e-09 2.77158e-08)
(2.16868e-10 3.65878e-10 1.46666e-07)
(-1.99206e-08 6.24636e-10 1.56693e-07)
(-2.35567e-09 -7.66618e-09 2.95176e-07)
(5.18322e-10 4.34314e-10 1.4789e-07)
(6.04802e-10 1.6825e-10 1.32955e-07)
(3.83169e-11 1.3527e-09 2.24987e-07)
(3.28363e-09 5.21525e-09 2.26481e-07)
(5.95699e-09 -2.96775e-10 7.27202e-08)
(-4.72807e-09 5.86823e-09 6.3324e-08)
(4.05123e-09 -1.65142e-09 2.75745e-07)
(-3.00809e-08 2.41803e-09 2.20051e-07)
(4.19276e-10 1.45133e-09 1.917e-07)
(2.16978e-09 -1.00307e-10 1.70748e-07)
(8.06626e-10 -2.06693e-09 1.24116e-07)
(-3.80408e-10 2.68665e-10 2.6958e-07)
(-2.57949e-09 -2.58038e-10 1.56049e-07)
(-3.66351e-09 -7.06467e-09 1.69837e-07)
(-3.29886e-09 7.35787e-09 2.17157e-07)
(-4.2598e-09 4.51237e-09 5.08284e-08)
(-8.53259e-09 -5.42827e-09 1.67242e-07)
(-1.27642e-08 -5.53645e-09 3.79314e-08)
(-1.3563e-09 -4.57902e-10 2.55801e-07)
(-2.71387e-09 -2.68511e-09 2.33674e-07)
(-6.40218e-10 3.82307e-09 1.606e-07)
(2.17468e-09 -2.49196e-09 1.60464e-07)
(1.64188e-10 -3.5113e-09 1.70282e-08)
(1.71427e-09 2.53868e-09 1.07246e-07)
(-8.21359e-09 -2.00155e-09 8.0055e-08)
(-8.21673e-10 -2.98763e-10 1.89405e-07)
(5.32115e-10 2.11002e-09 1.69683e-07)
(-2.80091e-08 -1.04565e-09 2.18156e-07)
(-1.38301e-09 3.00177e-09 2.4e-07)
(-2.69746e-10 2.11948e-09 8.24138e-08)
(-1.21329e-08 8.8712e-10 1.362e-07)
(-2.77157e-09 -2.53924e-09 2.12848e-07)
(6.29408e-10 1.59853e-09 2.9422e-08)
(-7.07772e-10 2.53078e-09 1.73342e-07)
(-1.39408e-09 3.09812e-09 4.90553e-08)
(-4.99545e-10 -4.06457e-10 1.75049e-07)
(6.33349e-09 -2.40797e-09 3.31107e-08)
(1.62863e-09 5.0246e-09 2.6403e-07)
(-1.36907e-08 -1.56652e-10 2.02628e-07)
(-7.90635e-10 1.30607e-09 2.06508e-07)