/*--------------------------------*- C++ -*----------------------------------*\
| =========                 |                                                 |
| \\      /  F ield         | OpenFOAM: The Open Source CFD Toolbox           |
|  \\    /   O peration     | Version:  2406                                  |
|   \\  /    A nd           | Website:  www.openfoam.com                      |
|    \\/     M anipulation  |                                                 |
\*---------------------------------------------------------------------------*/
FoamFile
{
    version     2.0;
    format      ascii;
    arch        "LSB;label=32;scalar=64";
    class       volScalarField;
    location    "12";
    object      nut;
}
// * * * * * * * * * * * * * * * * * * * * * * * * * * * * * * * * * * * * * //

dimensions      [0 2 -1 0 0 0 0];

internalField   nonuniform List<scalar> 
59516
(
0.000235561
0.000255715
0.00038227
0.000636513
0.0017613
0.000188918
0.000535567
0.000248304
0.000305009
0.000186209
0.00187914
0.000145893
0.000292798
0.000193316
0.000181013
0.000150647
0.00169237
0.000158257
0.00030569
0.00141696
0.000215264
0.000842058
0.00105566
0.000201997
0.00108378
0.000176317
0.000189414
0.000213983
0.00018656
0.000168566
0.00028661
0.000208627
0.000598901
0.000382073
0.000755557
0.000675755
0.000160494
0.000145126
0.000180748
0.00109082
0.0002398
0.00121417
0.000891551
0.000314828
0.000768927
0.000151666
0.00048414
0.00160495
0.00123944
0.00140016
0.00065166
0.000192749
0.000339224
0.000374246
0.000229977
0.000498921
0.0014859
0.000211048
0.00176588
0.000711622
0.00103508
0.000200123
0.00158803
0.00161532
0.000445791
0.00108745
0.000246384
0.000194906
0.000661554
0.000623941
0.000283837
0.0015746
0.00021166
0.00073757
0.00182573
0.00138335
0.00169394
0.000874068
0.000198996
0.00148885
0.000183096
0.00123912
0.000833376
0.000193797
0.00117299
0.00175988
0.000176621
0.00084361
0.000159448
0.000203744
0.00141166
0.000721222
0.00168419
0.000795434
0.00146676
0.00156897
0.000894503
0.000146862
0.000156836
0.00092419
0.000209523
0.000214005
0.000217014
0.00015234
0.00062821
0.000987494
0.000210995
0.000312203
0.000265549
0.000183007
0.000563622
0.000262371
0.00018603
0.000324239
0.00119148
0.000229951
0.000157127
0.000665369
0.000214276
0.000800992
0.00213542
0.00161013
0.00121082
0.00164106
0.000779788
0.000165538
0.000243182
0.000769354
0.000293113
0.00188975
0.00194054
0.000299586
0.000195875
0.000890226
0.000203587
0.000336027
0.000222267
0.00046803
0.00019867
0.000242207
0.000202557
0.00190972
0.000169844
0.000502824
0.00195674
0.000797833
0.000706704
0.0003654
0.000254094
0.000286583
0.00021506
0.000176071
0.00150368
0.00102304
0.000188712
0.000177751
0.000382992
0.00032705
0.000156138
0.000183969
0.000214211
0.000210658
0.000191732
0.000213684
0.000223116
0.00156621
0.000166963
0.00187898
0.000183547
0.00072159
0.00016917
0.00013501
0.000164203
0.000786356
0.00017656
0.000549238
0.00169893
0.00103313
0.000188685
0.000167267
0.000864741
0.000174871
0.000242897
0.000148522
0.00196111
0.000144691
0.000158356
0.000180778
0.000387412
0.00022659
0.000666775
0.000140881
0.00129655
0.000122361
0.00102832
0.000147116
0.000148359
0.000168536
0.000385936
0.00092535
0.000204822
0.0020467
0.000222416
0.000174765
0.000528416
0.000720856
0.00188844
0.00132692
0.000189589
0.000348163
0.000157035
0.000218652
0.000823509
0.000158441
0.000366029
0.00169144
0.000684795
0.00107541
0.000160671
0.00119817
0.000163524
0.000290472
0.0016885
0.000217042
0.00176347
0.00173695
0.000246697
0.000194685
0.00170269
0.000152899
0.0017837
0.00163914
0.0020856
0.000210365
0.000175287
0.000157588
0.000140685
0.000254445
0.00127904
0.000170772
0.00199559
0.00020008
0.000143871
0.000227918
0.00201589
0.000158704
0.0009446
0.000184488
0.00160644
0.000270813
0.00139203
0.000738111
0.00206072
0.000845514
0.000880628
0.0011451
0.00014902
0.00116321
0.000194847
0.000179168
0.000564343
0.00136647
0.000342237
0.00171777
0.000271764
0.000134236
0.00132212
0.000174018
0.000244958
0.000126413
0.00022945
0.00177961
0.000186347
0.000192048
0.00149081
0.000172158
0.000187491
0.00134854
0.000219821
0.000189743
0.00205696
0.000679372
0.000225847
0.000385528
0.000470025
0.00164224
0.00198144
0.000248426
0.00206228
0.0021532
0.00186032
0.000610241
0.000763914
0.00019195
0.00162401
0.000268176
0.00132493
0.000758618
0.00207675
0.00164578
0.000311075
0.000142006
0.000213108
0.000232781
0.00128894
0.000190481
0.000222144
0.000160784
0.00150201
0.00156678
0.000960087
0.000151722
0.000245913
0.000206737
0.000143394
0.00150931
0.000204667
0.00143435
0.000199886
0.000173011
0.00019458
0.00028302
0.00195626
0.00204225
0.00212021
0.00123313
0.000212872
0.000513541
0.00166542
0.00142426
0.00139852
0.00015321
0.000207376
0.00102217
0.000184042
0.000178968
0.00148843
0.000871762
0.000151676
0.0018384
0.00157695
0.00203083
0.00169218
0.000169888
0.00113568
0.00195175
0.000148949
0.00198013
0.0018805
0.000618038
0.000507176
0.00107655
0.000893386
0.000130589
0.000187604
0.000195934
0.000205514
0.000191433
0.00027586
0.000154264
0.000349727
0.000505197
0.00204124
0.00105813
0.000509549
0.00106056
0.00107563
0.000191923
0.000358293
0.00015757
0.000177399
0.00019138
0.00147063
0.000197943
0.00133046
0.000184788
0.000558858
0.000197518
0.00167502
0.000120586
0.000165505
0.000251288
0.00195302
0.000206449
0.000158214
0.000694466
0.00020656
0.000589387
0.00034285
0.000582114
0.000216848
0.000222962
0.00134584
0.000163173
0.00205717
0.000262656
0.000172359
0.000178715
0.00185319
0.00187932
0.000133346
0.000501795
0.000241746
0.00197348
0.00196681
0.000210509
0.000551752
0.000834388
0.000860783
0.00121506
0.000214608
0.000197079
0.000492269
0.00186548
0.00201505
0.000189301
0.00176083
0.000222676
0.00197398
0.00180565
0.00192735
0.00185949
0.00172326
0.000196069
0.00203613
0.000164604
0.00145178
0.000282899
0.00115539
0.00186438
0.00079515
0.000801919
0.000171735
0.000180893
0.000191406
0.00176424
0.00214237
0.000711519
0.000472416
0.00016336
0.000204406
0.000377595
0.00104214
0.00189109
0.00109149
0.0006375
0.00215379
0.000572522
0.000241173
0.000418394
0.000162653
0.000270346
0.00119138
0.000193776
0.000768519
0.000199176
0.00186558
0.00198327
0.0020612
0.000166591
0.00119506
0.00184278
0.000502541
0.00202752
0.000203948
0.00170656
0.000906262
0.00019297
0.00195196
0.000379804
0.000203162
0.000184013
0.00155345
0.000538409
0.000166076
0.000188579
0.00179045
0.000436245
0.0012719
0.000477311
0.000168516
0.000732051
0.000216962
0.00143933
0.000790965
0.00163064
0.000227684
0.000300106
0.000228888
0.000143621
0.0021471
0.00198148
0.000221694
0.00146278
0.00215672
0.000208734
0.000171713
0.000145345
0.00119408
0.00193169
0.000246115
0.000141335
0.000134513
0.000335023
0.00206283
0.00021195
0.00114809
0.00113842
0.00199121
0.000234469
0.00152154
0.000197473
0.00139287
0.000200601
0.000139026
0.00116667
0.000154793
0.000198043
0.000203846
0.000203466
0.000159011
0.000859197
0.000150608
0.000151616
0.00117024
0.001836
0.000238943
0.000250723
0.000154434
0.00163442
0.000147224
0.00175087
0.000165452
0.000499221
0.00205411
0.000178649
0.00183795
0.000195689
0.000177386
0.000856908
0.00203245
0.000599724
0.000467982
0.00170044
0.0001864
0.00143211
0.000151582
0.00195088
0.000460873
0.000226768
0.0010086
0.000223947
0.000234166
0.000850377
0.000173773
0.000675685
0.00193311
0.000479027
0.000141761
0.00181513
0.000176953
0.00211358
0.0018511
0.00195989
0.0020734
0.000188597
0.000157504
0.00192504
0.00140179
0.000189324
0.00140764
0.001938
0.00168034
0.00174604
0.000336541
0.000190564
0.00185539
0.000280295
0.00131248
0.00021932
0.000244498
0.00211173
0.000204499
0.000674232
0.00188423
0.00078305
0.000154148
0.000201899
0.00192398
0.00151427
0.00194105
0.00111622
0.000166777
0.000988982
0.00179191
0.000190401
0.00206094
0.000795833
0.000200758
0.00015297
0.000679877
0.000809171
0.000599232
0.000414852
0.000258407
0.00203489
0.000224234
0.00170713
0.00171485
0.00205394
0.00167756
0.00021816
0.00139374
0.000177555
0.000222253
0.000161874
0.00140658
0.000629152
0.00030382
0.00184769
0.0017359
0.00104097
0.00170998
0.000177818
0.00142726
0.00109725
0.00192569
0.000355476
0.000820164
0.00165654
0.000305673
0.000164658
0.000130172
0.000220651
0.000223136
0.000249631
0.000537847
0.000729086
0.000209182
0.000203167
0.00217874
0.000243228
0.000193902
0.000909206
0.000294123
0.000575558
0.000205274
0.000144917
0.000344754
0.00165185
0.00092672
0.000189589
0.000202985
0.000395197
0.000232828
0.000575793
0.000225764
0.000284367
0.00196766
0.00170165
0.000185464
0.00023174
0.000159916
0.000232482
0.00196875
0.000175936
0.00160184
0.000221007
0.0011587
0.000818916
0.00018738
0.000145168
0.000975
0.000180385
0.00158487
0.000151717
0.000254958
0.00203413
0.000173351
0.000196639
0.000196392
0.000831462
0.000246748
0.000140963
0.000122856
0.000159422
0.00205867
0.000232917
0.00149473
0.000718871
0.00167181
0.000174835
0.000750652
0.000164961
0.00111727
0.000163403
0.00110776
0.00117023
0.000163137
0.00209859
0.000578902
0.000400155
0.000171522
0.000230869
0.00197226
0.000507566
0.000177061
0.000294208
0.000151523
0.000215099
0.00198931
0.00130786
0.000495685
0.00175458
0.00187204
0.00166157
0.000521294
0.00018954
0.00019169
0.00185289
0.00119475
0.000338043
0.000545613
0.000136568
0.000728786
0.00146184
0.000216738
0.000222402
0.000227593
0.000215369
0.000203082
0.00108949
0.00169773
0.000173303
0.000212923
0.000179564
0.000153372
0.000159258
0.00190604
0.00183093
0.00129483
0.001408
0.000151037
0.00083385
0.000617738
0.000235836
0.00192194
0.000131619
0.000667632
0.000238007
0.00171966
0.0013194
0.00119078
0.000327282
0.00103171
0.000926289
0.00204663
0.000194984
0.000230144
0.000149207
0.00188491
0.00113137
0.000663211
0.00117014
0.00017024
0.00022909
0.000190453
0.0019005
0.000514401
0.000910888
0.000278057
0.00204559
0.000192037
0.000181612
0.00125242
0.000245547
0.000171349
0.000165916
0.000197057
0.000221679
0.00178381
0.000162562
0.000179672
0.000282084
0.000228822
0.000217698
0.00181512
0.00218008
0.00181512
0.00128403
0.00190126
0.000416904
0.000167535
0.00179378
0.000519914
0.000160984
0.000245246
0.00146484
0.000285707
0.000162493
0.000977878
0.000186065
0.000160611
0.000226442
0.000179443
0.00107496
0.000307344
0.000486798
0.000176666
0.000235272
0.00014461
0.000195919
0.000447229
0.00126972
0.000494228
0.000227237
0.00068186
0.00108301
0.000212275
0.00130958
0.00144592
0.000169497
0.000207535
0.000363025
0.000260188
0.000211544
0.00138924
0.000204585
0.00184562
0.00119898
0.000519536
0.00111505
0.00124765
0.000223198
0.00198385
0.000177969
0.000181732
0.000245081
0.000267701
0.000178843
0.000902301
0.000960545
0.00175599
0.00169245
0.000159916
0.00119953
0.00216287
0.00020559
0.000224162
0.00160798
0.000220673
0.000212847
0.00143563
0.00194539
0.0012223
0.000188377
0.000476956
0.000248302
0.000173804
0.000274026
0.000216112
0.000527206
0.00013609
0.00147943
0.00186648
0.00190587
0.000668908
0.00031762
0.000460654
0.000205833
0.000195756
0.000439816
0.000707227
0.000565731
0.00196515
0.000952546
0.00207542
0.00196382
0.000230327
0.000373551
0.00173311
0.000213408
0.000701825
0.00109913
0.00017014
0.00109471
0.00191479
0.000241382
0.00186833
0.00207244
0.00181737
0.000167393
0.00150078
0.000212017
0.000246316
0.00177071
0.000220688
0.000149693
0.000138676
0.000392011
0.000170446
0.00111762
0.0018008
0.00184213
0.00122788
0.000178026
0.000241237
0.00118891
0.00131287
0.000370534
0.00019212
0.00121118
0.00195027
0.00186486
0.000207115
0.00197295
0.000200675
0.00019513
0.000216111
0.0001474
0.000161097
0.00193442
0.000160731
0.00157469
0.00168122
0.00160431
0.00205391
0.00171077
0.00182348
0.00185296
0.00211196
0.00178747
0.000563428
0.000430102
0.000201809
0.000148585
0.00143146
0.000488888
0.000209608
0.00154
0.000279632
0.00219466
0.00211192
0.00204099
0.00107942
0.000197554
0.00195436
0.00030428
0.000204046
0.00207106
0.000193998
0.00202592
0.000174507
0.000146947
0.00156141
0.000169582
0.000192877
0.00157986
0.00137188
0.000923646
0.000171428
0.00185037
0.000175574
0.000189348
0.000156208
0.000151399
0.000195312
0.00211883
0.000158167
0.00112687
0.00151531
0.000325975
0.00203847
0.00209781
0.000335911
0.00206012
0.00189113
0.000172048
0.00207934
0.000202307
0.000183269
0.00173286
0.00130986
0.000273786
0.001927
0.000294833
0.000136173
0.00171679
0.000214785
0.00149801
0.00188898
0.000341775
0.000228813
0.000238541
0.00024632
0.000199419
0.000632082
0.000493084
0.000226372
0.000180616
0.000265039
0.00161246
0.00140289
0.00209627
0.00205723
0.000196247
0.00131842
0.00186192
0.000291464
0.000806536
0.000183836
0.000386183
0.00128058
0.00205624
0.00014762
0.00134072
0.000169319
0.000321236
0.000193393
0.000412649
0.000186191
0.000188641
0.000464802
0.000209084
0.00140367
0.000248888
0.002007
0.000221666
0.00206703
0.000223628
0.000137438
0.00019618
0.000767643
0.000198619
0.00144105
0.00106873
0.000128379
0.000215633
0.000215405
0.00204781
0.000932201
0.00181993
0.000242163
0.000126818
0.000897548
0.000150239
0.000329729
0.00201568
0.000931638
0.000150009
0.000754295
0.000225881
0.000173847
0.00106951
0.00207519
0.000188503
0.00108862
0.000401707
0.000236841
0.00149037
0.00130469
0.00199764
0.000940582
0.00023582
0.000248547
0.00148561
0.000845582
0.000226116
0.000180865
0.000193698
0.00156276
0.000195978
0.00144849
0.000141452
0.00177391
0.000211333
0.000641122
0.000426283
0.00143529
0.00201142
0.000577447
0.000756023
0.000163813
0.000178333
0.0011085
0.000635384
0.000211814
0.000248784
0.00150466
0.000931522
0.00144748
0.000251117
0.000714435
0.00144814
0.00178825
0.000170714
0.000211106
0.000150731
0.000793354
0.00014979
0.000179687
0.000239465
0.00182999
0.000276855
0.000207949
0.00148648
0.00144437
0.0001444
0.00156394
0.00191241
0.000210373
0.000221945
0.00179429
0.0019434
0.000170258
0.000164372
0.00173135
0.000258867
0.000226832
0.000130644
0.00193823
0.00166196
0.00182349
0.000736795
0.00143141
0.000201381
0.000157598
0.00197666
0.00181638
0.000243165
0.00120471
0.000136327
0.000147584
0.000202721
0.00108091
0.000221683
0.00106652
0.00068449
0.000189696
0.000185804
0.000202984
0.00207976
0.00201073
0.000369898
0.00187802
0.000293294
0.0010177
0.000217442
0.000187088
0.000246177
0.000266003
0.000802286
0.000221005
0.000130057
0.000185965
0.000333588
0.000856029
0.000189991
0.00120006
0.0016308
0.000291763
0.000149239
0.00023879
0.00157703
0.00017238
0.000409803
0.000440927
0.000195507
0.000189385
0.000842962
0.000160432
0.000164344
0.00018661
0.000597823
0.00191937
0.00054431
0.000574225
0.000174769
0.000282683
0.00017238
0.000175455
0.00021243
0.00202423
0.000219403
0.000813812
0.000296839
0.000260265
0.000610388
0.000254824
0.000408173
0.000183306
0.001424
0.000286009
0.000204725
0.00185012
0.000213475
0.000537371
0.000166494
0.000115414
0.000147752
0.00091438
0.000215708
0.00210659
0.00212838
0.000522678
0.000129068
0.00016697
0.00134766
0.000204246
0.00157184
0.00154204
0.00185257
0.000168757
0.00135958
0.00155826
0.00127946
0.00142815
0.000156071
0.000208898
0.001722
0.000256512
0.000167561
0.00208699
0.000480613
0.000568461
0.000204804
0.000252059
0.000213794
0.000140909
0.00138416
0.0015887
0.000478136
0.000192456
0.00017024
0.000940982
0.000447991
0.000176602
0.00208624
0.00138232
0.00151673
0.00169675
0.00193737
0.00133384
0.000743202
0.000359791
0.000383872
0.0003235
0.000129979
0.000130954
0.00210217
0.000600476
0.000193712
0.000141573
0.00174213
0.000131517
0.000854433
0.000215119
0.0015057
0.000981743
0.00032504
0.00186309
0.00158081
0.00140293
0.000186307
0.000255902
0.00188542
0.00191436
0.000205395
0.00017699
0.000480666
0.0018313
0.000646092
0.000174892
0.00028572
0.000725389
0.000156543
0.00174225
0.00034478
0.000213648
0.000440487
0.000213904
0.000165065
0.000186323
0.00123467
0.000975483
0.00180732
0.00020615
0.00016195
0.0001404
0.0010689
0.000128737
0.000148782
0.000185754
0.00198205
0.000194995
0.00205945
0.000942072
0.000170523
0.00016987
0.000244845
0.00139501
0.00185736
0.000846933
0.000452151
0.000228149
0.000243181
0.000198062
0.000202587
0.000163839
0.000230484
0.000201246
0.00213977
0.000163913
0.000152928
0.00014247
0.000221668
0.00130709
0.000229641
0.00151858
0.00219553
0.000756061
0.000172149
0.00195244
0.000172083
0.000180189
0.00193304
0.00141574
0.00039532
0.00182521
0.00164487
0.000202218
0.00055849
0.00133932
0.00195378
0.000207372
0.00120065
0.00184475
0.000263133
0.000130446
0.000166911
0.000281091
0.00205272
0.000176618
0.000175172
0.00135742
0.000185777
0.000256744
0.000256774
0.000146933
0.000192297
0.000202631
0.000126174
0.000196798
0.000174524
0.000187286
0.000201796
0.000273858
0.000146002
0.00200921
0.000183851
0.0018458
0.000550154
0.000982362
0.000291444
0.00144798
0.00017667
0.00130019
0.00150597
0.000193317
0.00207562
0.000499646
0.000171219
0.000412563
0.000167228
0.000252084
0.000165829
0.000623073
0.000212565
0.000188988
0.00108849
0.000703775
0.0020505
0.00159658
0.000205237
0.000349572
0.000202027
0.00114316
0.000675635
0.000668413
0.00175509
0.000197609
0.00121093
0.000595827
0.0011868
0.000245892
0.000281612
0.00036916
0.000190906
0.00209753
0.000700775
0.000255539
0.000692982
0.000258388
0.000240951
0.000158602
0.000681637
0.00082178
0.00188624
0.00122891
0.000368571
0.000139647
0.000298769
0.000207781
0.000224485
0.000263311
0.000153375
0.000279479
0.00128425
0.000210609
0.00038429
0.00016681
0.000206372
0.00204286
0.000144055
0.00153133
0.000462551
0.00175788
0.000189528
0.000218248
0.000422588
0.000973444
0.00021636
0.000565942
0.000158849
0.000274452
0.00194892
0.000994574
0.00198532
0.000230367
0.000218291
0.000201768
0.000224369
0.000161122
0.000157126
0.000163866
0.000272532
0.00172067
0.000218013
0.000156969
0.000182329
0.000840731
0.001337
0.000143705
0.000562179
0.000191284
0.000197021
0.00098796
0.000212603
0.000154872
0.00021492
0.000368839
0.000223095
0.000903299
0.00018449
0.000235446
0.00160378
0.000303128
0.00157421
0.000205075
0.000163828
0.000461297
0.000201596
0.000971827
0.000297077
0.000222141
0.000177192
0.000632298
0.000447686
0.000952953
0.00017414
0.00021882
0.000151539
0.000159858
0.000425752
0.000155425
0.000263568
0.00020712
0.000351215
0.000196232
0.000172427
0.00188579
0.000160194
0.000962717
0.00132238
0.000183301
0.000214411
0.000404528
0.000229552
0.00110684
0.00156078
0.000169658
0.00111334
0.000242605
0.000367027
0.000214249
0.000288861
0.000350114
0.00198624
0.000168692
0.00144074
0.000469615
0.000176758
0.000541055
0.000175497
0.00166023
0.000205043
0.00115765
0.000424066
0.000794917
0.000468461
0.000179802
0.000198733
0.00208894
0.00187686
0.000187323
0.000283289
0.000164481
0.000394299
0.000175258
0.000183341
0.000213329
0.000970591
0.000175274
0.0018422
0.000330008
0.00063777
0.000190464
0.00194726
0.000240771
0.000163581
0.00169409
0.00192557
0.000566176
0.000244688
0.000196226
0.00222595
0.00220976
0.00106475
0.000835215
0.00124926
0.000171368
0.000546794
0.000952539
0.000571008
0.000166654
0.000477675
0.00190353
0.000666125
0.00170897
0.00220315
0.000144128
0.00099353
0.000181455
0.0012895
0.000219659
0.00070297
0.00108704
0.00160938
0.00185131
0.000183632
0.00202123
0.000154491
0.000218709
0.000489616
0.000216153
0.0010826
0.000199977
0.000212605
0.000136124
0.000204667
0.000533764
0.000148505
0.000229951
0.000703198
0.000220101
0.00178516
0.000257345
0.000184815
0.000179924
0.00020464
0.000310396
0.00123542
0.000141923
0.00121098
0.00184998
0.00137688
0.00143528
0.00187865
0.00126079
0.00184774
0.000764607
0.000262871
0.000198365
0.000620894
0.000219703
0.000304896
0.000355169
0.000151219
0.00191813
0.00044593
0.000196379
0.00204689
0.000122061
0.000197874
0.000219649
0.000501161
0.00188775
0.000152617
0.000272343
0.000193033
0.000461723
0.000344543
0.000173895
0.000915443
0.000173906
0.000210458
0.00186159
0.000440298
0.0015656
0.000269902
0.000200981
0.00211118
0.000158038
0.00206781
0.00138668
0.000179805
0.00103969
0.00156294
0.000199535
0.000268501
0.00215699
0.000235594
0.000210219
0.00107914
0.000214738
0.000222671
0.00022123
0.00187322
0.00207242
0.000901458
0.00165087
0.000784535
0.00191206
0.00030949
0.000272905
0.00180275
0.000908483
0.000172984
0.000189662
0.000392058
0.00159188
0.000353512
0.000198415
0.000222322
0.000833007
0.000250757
0.000920292
0.00153999
0.00202155
0.000194466
0.000207663
0.00183689
0.000367671
0.00107512
0.000701658
0.000143819
0.000247893
0.00172802
0.00023771
0.00022757
0.000169513
0.000188071
0.0015654
0.00207939
0.000907322
0.00029612
0.000188097
0.000231045
0.00160514
0.00133584
0.000140024
0.00200218
0.00151234
0.00138082
0.000150895
0.00042305
0.000241968
0.000195884
0.000200258
0.00128454
0.000723508
0.00114503
0.000204285
0.000152636
0.00018435
0.000175414
0.00102686
0.000195537
0.000146726
0.00176204
0.00143227
0.00201132
0.000167852
0.000246842
0.000141707
0.00194225
0.00129811
0.00139503
0.00175773
0.000186129
0.000739974
0.000338155
0.00210652
0.0016336
0.00154187
0.00133091
0.00206723
0.000193855
0.000172718
0.000309169
0.00204485
0.000835623
0.000171527
0.00183865
0.000142371
0.000391918
0.000656133
0.000166631
0.000179525
0.000143296
0.000172357
0.000988201
0.000656687
0.000150445
0.000409034
0.000176629
0.00117923
0.00191485
0.000227856
0.000351728
0.000455945
0.00145484
0.000242025
0.000215375
0.000207165
0.000177167
0.000145192
0.000230725
0.000227589
0.000235279
0.000168235
0.00155667
0.000790966
0.00140072
0.00047087
0.00019157
0.00115902
0.000394952
0.000168296
0.000170796
0.000240447
0.000214774
0.000261407
0.00121561
0.000833973
0.00190924
0.000991432
0.000170466
0.000146612
0.00110368
0.00196917
0.000818339
0.00133064
0.00178752
0.00014622
0.000270238
0.000973905
0.00148141
0.000153798
0.000438415
0.000282546
0.000397177
0.000301827
0.00185323
0.000136965
0.00016194
0.000225814
0.000188485
0.00203928
0.00199988
0.00131225
0.000207105
0.000240493
0.000141215
0.000217463
0.00159667
0.000163287
0.000228356
0.00182792
0.000965185
0.00115043
0.00141785
0.000211718
0.000148392
0.000816126
0.000248476
0.000397361
0.000785696
0.000581864
0.00185394
0.000145715
0.000684006
0.000182431
0.000144774
0.00022418
0.000178479
0.000388686
0.000228253
0.000121764
0.000832536
0.00016568
0.000143209
0.000182861
0.000335001
0.00184702
0.00153358
0.00017875
0.000201411
0.000151272
0.000202307
0.000219959
0.00186412
0.00199201
0.000208557
0.00018922
0.000147406
0.0020918
0.00175626
0.000800955
0.000191799
0.00111415
0.000689011
0.000205858
0.000185818
0.00190297
0.000682467
0.000734514
0.000399563
0.000904167
0.00173424
0.00018715
0.000437574
0.000197251
0.00139064
0.00136612
0.00182202
0.000166602
0.00178803
0.000208246
0.00108234
0.00108024
0.00149216
0.00141482
0.000142486
0.000223693
0.000154203
0.00208517
0.00191798
0.000552269
0.0014871
0.000180109
0.00020258
0.00135527
0.00172785
0.000297433
0.00028543
0.000484817
0.000265926
0.00146598
0.00174516
0.00161436
0.00176343
0.00093348
0.000734075
0.000182513
0.00163614
0.00165354
0.00090913
0.00020318
0.000224821
0.000183747
0.000147186
0.000258207
0.00184396
0.00188896
0.000221389
0.000344733
0.000566755
0.000576549
0.000204246
0.00133267
0.000692866
0.000600128
0.00203258
0.000238817
0.000521584
0.000184965
0.000327048
0.000715757
0.000202237
0.000393537
0.000991806
0.000633043
0.00123488
0.00198009
0.000164647
0.00154778
0.000184834
0.00160187
0.000137007
0.00172375
0.000397909
0.00019322
0.000352919
0.000201753
0.000365139
0.000193905
0.000189753
0.000700809
0.00019914
0.00186673
0.00129229
0.00176676
0.000123954
0.000228912
0.000195541
0.000617447
0.000161614
0.000191615
0.00107094
0.0012916
0.00180091
0.000936426
0.00107621
0.00200037
0.00117081
0.00134995
0.00127228
0.000209848
0.000249046
0.0020986
0.0019699
0.000168627
0.000913596
0.0015593
0.00176206
0.000187642
0.000702012
0.000204993
0.00197144
0.000224993
0.000158796
0.000360047
0.000542563
0.000755588
0.000322351
0.000203014
0.0016211
0.000233468
0.000196232
0.000954847
0.000155997
0.000177768
0.000507173
0.00122336
0.000194456
0.000155893
0.000175827
0.00182507
0.00155742
0.000158533
0.00100686
0.000185731
0.000151436
0.00186412
0.000228273
0.000658941
0.00125924
0.00183724
0.00111773
0.00188555
0.00172471
0.000388267
0.0021577
0.000968976
0.00180496
0.000300477
0.000240678
0.0019605
0.000174536
0.00122476
0.000895596
0.00134202
0.000982774
0.00183053
0.000746497
0.000195468
0.00135792
0.00199594
0.000142638
0.000370372
0.0019889
0.000205644
0.00128684
0.0016995
0.0002
0.000429494
0.000212032
0.000283307
0.00170821
0.00115203
0.000211146
0.000147897
0.000156592
0.000459307
0.000188396
0.000181028
0.000257512
0.000652421
0.0017032
0.00199255
0.000615739
0.000908316
0.000855508
0.00019593
0.000274913
0.00186445
0.00195033
0.00207985
0.00210597
0.000171795
0.000185658
0.000198323
0.000159388
0.00136851
0.00191312
0.00199257
0.000190144
0.00106017
0.00153036
0.000204525
0.00202534
0.0013843
0.00171923
0.00195269
0.000198113
0.000172072
0.000329156
0.000195026
0.00116674
0.000826663
0.000260434
0.00107464
0.000186978
0.000141784
0.000222168
0.00201258
0.00017852
0.000462054
0.00175749
0.000419669
0.000188033
0.00165037
0.00209209
0.000148545
0.000208286
0.00017883
0.000218074
0.00183822
0.000450553
0.000197391
0.00199893
0.00187142
0.00154769
0.000471686
0.00164389
0.00122148
0.00143739
0.000761021
0.000191075
0.000930028
0.000176175
0.000148632
0.000148213
0.00184559
0.000328946
0.00165711
0.000710647
0.000201315
0.000246985
0.000188181
0.000264319
0.000183429
0.000199903
0.000754284
0.000895482
0.00173167
0.00107093
0.000174851
0.00022486
0.00149332
0.000132115
0.00019355
0.000448755
0.000191085
0.00174869
0.000554125
0.00117095
0.000349287
0.00142697
0.000374571
0.00128348
0.000172309
0.00177675
0.000188447
0.000171628
0.000172146
0.000505063
0.000393366
0.00212013
0.000183442
0.00191559
0.000936012
0.000260571
0.000151246
0.000180684
0.000181836
0.000187809
0.000193335
0.000163856
0.00198896
0.000144362
0.00118281
0.000144717
0.000159712
0.000194024
0.000173332
0.000195164
0.000199962
0.000788799
0.000303663
0.00183188
0.000167215
0.00202196
0.000221865
0.000307966
0.000136641
0.00108802
0.00148769
0.000195545
0.000568668
0.00140647
0.00137707
0.00072455
0.000501153
0.00168337
0.0012981
0.0015613
0.000658859
0.000256537
0.000174818
0.000141411
0.00106571
0.000168673
0.000182175
0.000939689
0.000156034
0.00023766
0.000174837
0.000379738
0.000292114
0.00186621
0.000546329
0.00136025
0.000746763
0.00145502
0.000533026
0.00208573
0.000152724
0.000148149
0.000970704
0.00156031
0.000694056
0.0009037
0.0013553
0.00115218
0.000793099
0.000186917
0.000970598
0.00211554
0.000215466
0.000409239
0.000232788
0.000598227
0.000155755
0.000199396
0.00105733
0.000169907
0.000226616
0.000181546
0.000176827
0.000179237
0.00168704
0.000449706
0.00185302
0.000491057
0.000165739
0.00144379
0.0020026
0.00136929
0.000207942
0.000654151
0.000260513
0.000311606
0.00116892
0.000203644
0.000161866
0.0006966
0.000252974
0.00198894
0.000222623
0.000479128
0.000148751
0.00214155
0.0021139
0.00126951
0.000193384
0.000179483
0.000195497
0.00103214
0.000144618
0.000145688
0.000339673
0.00018395
0.000211301
0.000215258
0.00025638
0.000438744
0.000749229
0.00193841
0.00114455
0.000203513
0.00028552
0.000141734
0.00190725
0.00107124
0.000404203
0.00144004
0.000196933
0.000289694
0.000171157
0.000856767
0.000240471
0.00208286
0.00188858
0.0001498
0.000179622
0.00161746
0.0012588
0.00188454
0.00015177
0.000648189
0.000235389
0.000282602
0.000194124
0.00172892
0.000188198
0.000294922
0.00020165
0.000211539
0.000856157
0.000138253
0.000175105
0.000177145
0.000839903
0.00124393
0.00193789
0.000134803
0.000631469
0.00144952
0.000332839
0.000367197
0.00119072
0.00187657
0.00178507
0.000233081
0.00111156
0.000359074
0.00018655
0.000230665
0.00178842
0.00171965
0.000236689
0.0010874
0.000208491
0.000307893
0.000456978
0.000194576
0.00116838
0.00142496
0.000852114
0.000207306
0.00173347
0.000194112
0.00199898
0.000147326
0.000187641
0.00165923
0.00148492
0.000153629
0.000875615
0.00150138
0.00156657
0.00178434
0.00016265
0.000221332
0.0016275
0.000807606
0.000680103
0.00136294
0.000148886
0.000625184
0.000163129
0.00015359
0.00113961
0.00211613
0.00022672
0.00119535
0.000492541
0.000190403
0.000151187
0.0016663
0.00122662
0.000195696
0.000190434
0.000174414
0.000861075
0.000872894
0.000201304
0.000177945
0.00145722
0.00167185
0.0011737
0.000851806
0.000305913
0.00192683
0.000793346
0.00154909
0.000181057
0.000235376
0.000221769
0.000401517
0.000224638
0.00107027
0.0012862
0.00173755
0.00139469
0.00195826
0.00146099
0.00102743
0.00179354
0.00026769
0.0013239
0.00137081
0.000210162
0.00144257
0.000182496
0.000202544
0.000357755
0.000630669
0.00058633
0.00039887
0.000502076
0.000203707
0.000219576
0.000733935
0.0012548
0.000904788
0.000342477
0.000145215
0.00141637
0.000235521
0.000236119
0.000709027
0.000183074
0.000356303
0.000910966
0.000697334
0.000591318
0.000244405
0.000176574
0.000224172
0.000287795
0.00200157
0.000221467
0.00116455
0.00144224
0.000186418
0.00214634
0.000204607
0.00180898
0.000398666
0.000385498
0.000153238
0.0021025
0.00165983
0.000174094
0.00142864
0.000187127
0.000178347
0.000724219
0.000144473
0.00152045
0.00142801
0.00172744
0.000235773
0.000167628
0.000820855
0.00137756
0.000716501
0.000177298
0.000199782
0.000458886
0.0010349
0.000363763
0.00196337
0.000147207
0.000203469
0.0011374
0.00147496
0.00134165
0.000197518
0.00027658
0.000204043
0.00049899
0.000757739
0.000323923
0.000258645
0.000198717
0.000823881
0.000664639
0.000926118
0.00169809
0.000708116
0.00180018
0.000193652
0.000383436
0.000184888
0.000181291
0.00109023
0.000138176
0.0019865
0.00176085
0.000668715
0.000187309
0.000192699
0.00109012
0.00163246
0.000138845
0.00147922
0.000168702
0.000425854
0.000175675
0.000306977
0.000912176
0.00125694
0.000191137
0.000629669
0.00132832
0.00138148
0.000200063
0.00100744
0.00112112
0.000251667
0.0021087
0.000195989
0.000724754
0.00172094
0.00139682
0.000417828
0.000212349
0.000152406
0.0002283
0.000243108
0.00169387
0.00153327
0.000205873
0.000180709
0.000783532
0.000671284
0.000162858
0.000239148
0.000618448
0.00058466
0.000824489
0.000198654
0.000997913