/*--------------------------------*- C++ -*----------------------------------*\
| =========                 |                                                 |
| \\      /  F ield         | OpenFOAM: The Open Source CFD Toolbox           |
|  \\    /   O peration     | Version:  2406                                  |
|   \\  /    A nd           | Website:  www.openfoam.com                      |
|    \\/     M anipulation  |                                                 |
\*---------------------------------------------------------------------------*/
FoamFile
{
    version     2.0;
    format      ascii;
    arch        "LSB;label=32;scalar=64";
    class       volScalarField;
    location    "12";
    object      p;
}
// * * * * * * * * * * * * * * * * * * * * * * * * * * * * * * * * * * * * * //

dimensions      [0 2 -2 0 0 0 0];

internalField   nonuniform List<scalar> 
59516
(
0.887697
0.0543517
0.0590153
0.00357331
0.954709
0.977714
0.88491
0.711474
0.170703
0.000826189
0.930283
0.906486
0.488753
0.888486
0.780696
0.181905
0.892845
0.941524
0.9126
0.875016
0.907264
0.712133
0.89121
0.425354
0.155061
0.394138
0.211706
0.916262
0.902706
0.783646
0.957771
0.914799
0.278603
0.00534274
0.91323
0.648059
0.15198
0.947961
0.907386
0.0497008
0.0502747
0.9322
0.910002
0.00157731
0.901718
0.132598
0.910348
0.912303
0.956157
0.921481
0.967996
0.0051238
0.274383
0.745764
0.898399
0.9017
0.937401
0.00279801
0.419052
0.924798
0.00493228
0.625621
0.423696
0.89753
0.0125913
0.908785
0.0367354
0.668529
0.955443
0.906574
0.688173
0.878942
0.131353
0.88537
0.674848
0.90266
0.907998
0.104219
0.509394
0.919609
-0.00278524
0.916346
0.914535
0.239174
0.918547
0.871518
0.172778
0.877219
0.278158
0.937843
0.95038
0.698379
0.84681
0.685258
0.685392
0.953886
0.781936
0.720844
0.915286
0.476492
0.1846
0.371882
0.757439
0.046576
0.128286
0.0280321
0.0308484
0.162128
0.286894
0.506862
0.956298
0.20361
0.705389
0.957451
0.822325
0.594999
0.109301
0.752413
0.746443
0.115632
0.756911
0.736287
0.14619
0.74526
0.948397
0.920068
0.809952
0.936345
0.961611
0.838467
0.824616
0.0615068
0.66412
0.840676
0.841835
0.659882
0.952548
0.801831
0.372656
0.855965
0.199632
0.256885
0.71894
0.204832
0.868821
0.855633
0.906105
0.880951
0.967391
0.844618
0.867435
0.0135473
0.829125
0.0118974
0.831554
0.0189759
0.0178246
0.836528
0.849415
0.779919
0.861702
0.861877
0.776515
0.0115127
0.590404
0.110116
0.1739
0.856269
0.865965
0.0183889
0.833187
0.833355
0.808003
0.815622
0.810645
0.914984
0.605337
0.914505
0.0642035
0.593406
0.826799
0.310605
0.380025
0.815385
0.826431
0.189472
0.255245
0.14709
0.828969
0.813766
0.00186734
0.305209
0.852505
0.814082
0.860584
0.0818545
0.369945
0.373756
0.0145929
0.802677
0.00121076
0.154487
0.723196
0.491678
0.627955
0.302937
0.861251
0.0151094
0.446682
0.774787
0.133734
0.918542
0.767628
0.629807
0.770803
0.213074
0.849446
0.079453
0.546911
0.768212
0.767989
0.847216
0.811747
0.0180993
0.785987
0.606321
0.446099
0.471363
0.804323
0.12033
0.788088
0.299425
0.813939
0.323777
0.335823
0.804614
0.806465
0.137622
0.800167
0.155768
0.830434
0.311576
0.281963
0.0143442
0.835854
0.826121
0.814715
0.0570475
0.811233
0.826279
0.0509965
0.808634
0.832314
0.39266
0.822953
0.825698
0.176239
0.793592
0.527798
0.785734
0.451087
0.785784
0.789024
0.79753
0.645926
0.142784
0.562129
0.153624
0.785452
0.414001
0.888328
0.627138
0.173628
0.426538
0.789626
0.648405
0.409188
0.783264
0.799682
0.214051
0.809617
0.485558
0.42458
0.775005
0.766225
0.888521
0.826124
0.0350461
0.798815
0.654197
0.796731
0.772544
0.687861
0.106945
0.697374
0.285757
0.665873
0.639904
0.784288
0.659818
0.656531
0.157209
0.229151
0.627039
0.666327
0.391187
0.0762072
0.664484
0.661215
0.190351
0.160247
0.662981
0.388959
0.350001
0.905162
0.671993
0.727546
0.957755
0.672539
0.153593
0.298485
0.725659
0.330372
0.743236
0.481037
0.669686
0.922049
0.73072
0.440635
0.7362
0.0882827
0.872499
0.43068
0.737892
0.535129
0.770272
0.797128
0.61868
0.922562
0.768469
0.631528
0.623521
0.742122
0.147698
0.238061
0.766749
0.2219
0.798
0.746342
0.52578
0.804908
0.810657
0.121502
0.269168
0.44543
0.152305
0.030932
0.950687
0.963608
0.594049
0.115099
0.846093
0.92113
0.70327
0.121246
0.739287
0.738877
0.845153
0.959407
0.758437
0.197227
0.198971
0.732185
0.462738
0.578188
0.727667
0.740058
0.71445
0.513908
0.675065
0.852767
0.0103591
0.929505
0.0430989
0.0786533
0.739587
0.0322603
0.927173
0.73566
0.0566798
0.0525581
0.148259
0.711785
0.948106
0.724965
0.948498
0.0543479
0.174814
0.709034
0.714491
0.774694
0.698906
0.520541
0.78272
0.791087
0.149278
0.357808
0.79145
0.778443
0.775242
0.134787
0.0858681
0.0947736
0.322276
0.627799
0.0485398
0.12441
0.16417
0.0215821
0.706153
0.692578
0.725485
0.725093
0.786083
0.724445
0.471158
0.693357
0.37792
0.730316
0.546263
0.748234
0.72395
0.649191
0.332605
0.768472
0.927201
0.0892064
0.753713
0.448845
0.194951
0.463653
0.550359
0.758706
0.752185
0.727334
0.717746
0.19015
0.7196
0.480784
0.106477
0.562202
0.961326
0.381197
0.151225
0.731579
0.525277
0.715702
0.344398
0.716987
0.153024
0.72633
0.0188867
0.0315263
0.696824
0.907549
0.686736
0.606361
0.121301
0.623323
0.617817
0.132949
0.656181
0.616527
0.596823
0.595947
0.228747
0.626276
0.603734
0.337416
0.593035
0.203295
0.586739
0.91809
0.578588
0.968799
0.58727
0.803487
0.20169
0.224046
0.470949
0.019377
0.0137853
0.536532
0.652677
0.668963
0.4351
0.606092
0.145836
0.698204
0.685406
0.931719
0.374576
0.311787
0.485422
0.683711
0.0782262
0.660249
0.888083
0.0206877
0.986198
0.691393
0.158925
0.868657
0.529139
0.906465
0.62073
0.496291
0.580633
0.711555
0.503908
0.71224
0.844345
0.176979
0.183874
0.950457
0.012665
0.705069
0.658711
0.956312
0.642001
0.862964
0.00396781
0.673858
0.202315
0.00244347
0.419893
0.129151
0.934421
0.745707
0.169489
0.0119286
0.778524
0.317706
0.656987
0.768155
0.65218
0.849005
0.00458538
0.246113
0.16172
0.653175
0.121661
0.400192
0.700328
0.335411
0.691841
0.0108652
0.712558
0.166452
0.692141
0.466798
0.273167
0.25577
0.70463
0.00899543
0.134852
0.65845
0.192185
0.443233
0.558022
0.293425
0.279732
0.645106
0.642387
0.820305
0.63968
0.275338
0.648315
0.637847
0.273562
0.236943
0.00368483
0.653757
0.641016
0.648023
0.225371
0.614673
0.0396862
0.656139
0.024261
0.706821
0.004193
0.0964151
0.504081
0.308142
0.0452763
0.658639
0.941261
0.00767977
0.0705072
0.637657
0.624051
0.113804
0.630977
0.633676
0.34814
0.125766
0.707569
0.670667
0.0565191
0.650732
0.648565
0.394292
0.621179
0.963458
0.650426
0.951001
0.513024
0.954534
0.522259
0.0873004
0.864045
0.023516
0.0204284
0.95675
0.957014
0.5309
0.64775
0.936715
0.921223
0.317108
0.240273
0.470985
0.152256
0.518267
0.295412
0.928144
0.529655
0.537713
0.610446
0.561611
0.961066
0.476025
0.575953
0.147436
0.584671
0.378336
0.0804847
0.584534
0.581954
0.584294
0.373742
0.208361
0.971149
0.279234
0.298842
0.368703
0.777624
0.587208
0.154956
0.50932
0.389218
0.0638755
0.169048
0.596932
0.737173
0.412016
0.364831
0.593622
0.592672
0.194024
0.809558
0.63384
0.3256
0.626149
0.43504
0.675072
0.612483
0.0476234
0.0948415
0.532786
0.960824
0.371444
0.335074
0.0158769
0.391703
0.610658
0.274562
0.654202
0.632954
0.204962
0.284252
0.647621
0.865525
0.709252
0.452411
0.958338
0.641068
0.130566
0.691082
0.962962
0.0875339
0.27039
0.782517
0.587969
0.186586
0.561537
0.0919049
0.0694492
0.441699
0.590111
0.957629
0.719784
0.589652
0.587119
0.616436
0.206934
0.0473297
0.164563
0.707482
0.957964
0.376242
0.601855
0.33294
0.145328
0.585872
0.14976
0.592318
0.88599
0.280626
0.00167274
0.742819
0.219129
0.623867
0.0724953
0.183211
0.388926
0.756825
0.611274
0.617365
0.959515
0.759889
0.129746
0.961213
0.0168629
-0.00392725
0.613972
0.132521
0.262468
0.389948
0.25176
0.957783
0.59662
0.734562
0.586596
0.134768
0.427663
0.150859
0.291895
0.72215
0.577468
0.592537
0.583699
0.173295
0.824394
0.525223
0.155366
0.581386
0.583432
0.580093
0.512706
0.581983
0.0720366
0.0541991
0.581577
0.0130034
0.277457
0.338301
0.0422184
0.367277
0.448566
0.871237
0.535699
0.688175
0.466958
0.302939
0.591736
0.596542
0.598384
0.25195
0.596073
0.839164
0.0686517
0.0109439
0.319447
0.264609
0.0134122
0.594696
0.574535
0.576854
0.0696186
0.108759
0.572745
0.779933
0.106355
0.126679
0.959789
0.933368
0.600954
0.124204
0.65282
0.542686
0.671675
0.45476
0.562805
0.949457
0.455723
0.453024
0.205347
0.458552
0.95202
0.114566
0.558901
0.454086
0.23587
0.631768
0.669479
0.206145
0.630818
0.762866
0.644881
0.448321
0.899811
0.151477
0.451842
0.727094
0.0637517
0.506015
0.16346
0.437548
0.215136
0.947455
0.468437
0.0145207
0.443563
0.439035
0.487425
0.439561
0.390044
0.0199631
0.134176
0.633871
0.500384
0.374004
0.637011
0.250563
0.764439
0.0932047
0.49421
0.192907
0.426262
0.646719
0.0625057
0.512116
0.49269
0.954236
0.095839
0.674258
0.789921
0.12528
0.476521
0.133058
0.348407
0.591397
0.665488
0.475593
0.468323
0.464956
0.961861
0.109461
0.660298
0.250001
0.0778474
0.480236
0.693604
0.528414
0.526071
0.117784
0.542014
0.549298
0.2318
0.805368
0.956838
0.879071
0.34966
0.544754
0.0135291
0.924361
0.46239
0.535473
0.397922
0.544933
0.536906
0.557075
0.637954
0.557743
0.671876
0.540895
0.85772
0.873789
0.536113
0.624391
0.535879
0.664329
0.667835
0.0513042
0.280975
0.362487
0.0523315
0.584419
0.54727
0.601196
0.238714
0.0232596
0.258351
0.535868
0.612983
0.613608
0.27811
0.34327
0.603435
0.952609
0.55649
0.0310566
0.0831164
0.711029
0.563591
0.266006
0.389398
0.550349
0.288008
0.516123
0.516561
0.518168
0.393847
0.624628
0.515218
0.964799
0.0958793
0.514745
0.960565
0.516285
0.79481
0.135143
0.508525
0.266709
0.204735
0.514847
0.5097
0.262945
0.268398
0.508642
0.222199
0.498124
0.501769
0.530392
0.249611
0.489018
0.119777
0.504425
0.50236
0.279292
0.49202
0.495087
0.884912
0.46708
0.362511
0.483832
0.4843
0.297136
0.149365
0.246778
0.921703
0.495194
0.502253
0.37842
0.150964
0.924445
0.391724
0.399988
0.393677
0.377107
0.0404415
0.0262754
0.144689
0.23365
0.500886
0.501919
0.0218019
0.719058
0.454883
0.181289
0.926106
0.367532
0.370106
0.93979
0.383566
0.671687
0.136338
0.37576
0.65185
0.581481
0.376948
0.251474
0.123243
0.379256
0.715052
0.596006
0.271524
0.145681
0.202281
0.39435
0.208831
0.712913
0.202492
0.390653
0.424849
0.94797
0.27383
0.0383435
0.15953
0.20764
0.38013
0.71484
0.423051
0.424549
0.0789328
0.309436
0.0283455
0.429968
0.430118
0.208788
0.0466143
0.579295
0.126601
0.825386
0.514257
0.504796
0.920272
0.205274
0.650497
0.698104
0.375554
0.0588094
0.504802
0.900328
0.497648
0.485536
0.380784
0.183363
0.500102
0.0676292
0.91353
0.719785
0.277019
0.501192
0.455847
0.716527
0.884017
0.654946
0.112582
0.189982
0.485427
0.524367
0.630284
0.269358
0.615787
0.927323
0.479659
0.62784
0.165354
0.508022
0.328728
0.198283
0.508283
0.511525
0.51153
0.619101
0.489025
0.134221
0.494181
0.186879
0.610221
0.0778385
0.484224
0.622464
0.0157906
0.0918169
0.472258
0.156894
0.1414
0.167103
0.15146
0.250644
0.126082
0.481974
0.474654
0.113797
0.469665
0.474267
0.622536
0.0323095
0.480986
0.449606
0.00335045
0.0937876
0.434645
0.224848
0.00322218
0.051149
0.436563
0.271494
0.461822
0.894849
0.073967
0.605046
0.387663
0.459358
0.447094
0.379059
0.567039
0.492578
0.482097
0.402642
0.913689
0.727811
0.457503
0.475109
0.7827
0.11916
0.717873
0.564971
0.269494
0.262377
0.471019
0.190645
0.0745805
0.412087
0.429222
0.961364
0.343241
0.439404
0.423688
0.54144
0.187099
0.423865
0.42674
0.861089
0.428926
0.178762
0.448879
0.448688
0.328333
0.287514
0.359676
0.445342
0.440166
0.446763
0.259248
0.35016
0.457338
0.382401
0.267983
0.279057
0.281245
0.278326
0.335038
0.444203
0.363725
0.926769
0.793997
0.123839
0.234168
0.242741
0.350742
0.35479
0.364245
0.514285
0.332699
0.352224
0.197406
0.24239
0.577725
0.193769
0.118312
0.361836
0.355083
0.365214
0.8123
0.0508435
0.026957
0.230929
0.388253
0.375585
0.720637
0.131845
0.3514
0.930124
0.134073
0.381797
0.385395
0.497319
-0.00139078
0.372257
0.375475
0.373731
0.416902
0.0218732
0.0334699
0.41969
0.414764
0.407521
0.412331
0.436349
0.398848
0.18717
0.0739709
0.95618
0.592262
0.422589
0.411221
0.28121
0.875148
0.834181
0.737102
0.00439489
0.744546
0.421662
0.425442
0.416368
0.416229
0.421357
0.415712
0.691639
0.321839
0.671591
0.353226
0.174168
0.0530976
0.425641
0.283207
0.0117491
0.351443
0.443215
0.917973
0.448855
0.272855
0.261992
0.588919
0.292687
0.435446
0.466356
0.453789
0.337703
0.375565
0.892197
0.433915
0.658959
0.181311
0.158079
0.427649
0.157872
0.0892319
0.44944
0.447593
0.284372
0.194896
0.225918
0.805669
0.440153
0.148802
0.0219993
0.363574
0.103051
0.269848
0.419863
0.584381
0.377682
0.0988258
0.831921
0.0650026
0.785595
0.318021
0.719995
0.381864
0.136395
0.425807
0.365165
0.215758
0.269452
0.426457
0.429072
0.833493
0.599302
0.657951
0.870089
0.626495
0.591343
0.591319
0.675968
0.416664
0.412168
0.287586
0.157675
0.168857
0.0651404
0.726071
0.293356
0.401504
0.396823
0.395364
0.132054
0.395657
0.669437
0.0137731
0.38819
0.402091
0.503683
0.957406
0.672778
0.665546
0.3896
0.0458178
0.719989
0.394351
0.546096
0.425881
0.568595
0.615862
0.351301
0.708877
0.41021
0.600186
0.418144
0.0755882
0.672759
0.710806
0.302779
0.937862
0.17261
0.193287
0.175989
0.358675
0.651378
0.145528
0.543065
0.14951
0.415658
0.414103
0.340818
0.436034
0.376299
0.779893
0.56931
0.369606
0.586361
0.394627
0.957006
0.69867
0.396575
0.37708
0.56193
0.757978
0.379764
0.104779
0.541429
0.776931
0.374019
0.326902
0.390467
0.396128
0.407089
0.406302
0.0141502
0.168887
0.410611
0.937725
0.408647
0.310317
0.631833
0.304211
0.26067
0.775672
0.943984
0.67566
0.678891
0.686919
0.118432
0.374715
0.494548
0.936759
0.867359
0.938109
0.954739
0.863136
0.32453
0.312343
0.940096
0.146653
0.323479
0.591668
0.31172
0.677795
0.604093
0.940075
0.822565
0.680805
0.171413
0.328711
0.361799
0.349146
0.377174
0.683106
0.588036
0.368476
0.350752
0.361743
0.0626857
0.752633
0.133884
0.375978
0.474669
0.390647
0.381535
0.360987
0.135194
0.386324
0.324478
0.382373
0.38098
0.707722
0.340507
0.18785
0.129553
0.642985
0.250857
0.247499
0.614801
0.204077
0.142943
0.131696
0.11345
0.595243
0.158444
0.330532
0.452679
0.111485
0.737981
0.745665
0.217279
0.211493
0.850255
0.35334
0.062656
0.426014
0.114135
0.571887
0.109148
0.143107
0.0697533
0.0380188
0.191564
0.71944
0.141681
0.0956837
0.0996658
0.367908
0.107787
0.363826
0.742445
0.379685
0.375664
0.597865
0.142257
0.380865
0.379701
0.0459907
0.170807
0.725379
0.386279
0.388712
0.608943
0.752965
0.690906
0.751803
0.153324
0.886168
0.925867
0.388176
0.389642
0.0448293
0.792592
0.930054
0.377151
0.265338
0.376256
0.0711196
0.690229
0.0192043
0.143656
0.349319
0.50805
0.349103
0.276286
0.732339
0.242314
0.670715
0.346349
0.351835
0.166567
0.328045
0.284535
0.910579
0.728462
0.562431
0.351312
0.751671
0.182819
0.131021
0.154956
0.0617171
0.35574
0.739694
0.348347
0.0604953
0.0453526
0.709595
0.355285
0.172534
0.800092
0.35689
0.359853
0.7177
0.0841245
0.708432
0.361597
0.37135
0.368681
0.397718
0.370031
0.687096
0.660696
0.369469
0.842614
0.41294
0.665098
0.510938
0.368987
0.74132
0.359996
0.26363
0.857991
0.426725
0.36581
0.0414364
0.370662
0.370481
0.260454
0.352446
0.576463
0.149538
0.724872
0.340999
0.626755
0.684428
0.362876
0.412222
0.0330972
0.167609
0.143967
0.356864
0.730416
0.0762985
0.359942
0.861872
0.150601
0.613033
0.145773
0.363142
0.481652
0.35179
0.00605028
0.533121
0.738289
0.260707
0.129602
0.148142
0.25391
0.25878
0.275886
0.714892
0.0352553
0.134386
0.289842
0.279314
0.654985
0.588287
0.299052
0.309852
0.278258
0.513056
0.867062
0.772462
0.406173
0.113272
0.649005
0.642003
0.215603
0.141442
0.56158
0.205804
0.289206
0.600809
0.403008
0.408653
0.351773
0.271623
0.308258
0.308195
0.306381
0.623841
0.314523
0.481641
0.842694
0.738624
0.586158
0.695135
0.278951
0.200155
0.719068
0.318926
0.598777
0.392837
0.632703
0.906322
0.278381
0.0282065
0.321892
0.33064
0.358165
0.718032
0.32606
0.344508
0.419593
0.357493
0.417233
0.332222
0.000263088
0.419566
0.353153
0.344837
0.0198254
0.594254
0.886121
0.411261
0.446705
0.294376
0.344959
0.343525
0.160411
0.876666
0.34736
0.343962
0.353012
0.119002
0.716486
0.37806
0.303217
0.41924
0.190561
0.258041
0.646117
0.317846
0.303698
0.242323
0.303696
0.35061
0.202425
0.318656
0.71833
0.378437
0.179441
0.710814
0.719038
0.262584
0.271861
0.230023
0.321807
0.148095
0.329222
0.156953
0.958174
0.631765
0.472989
0.192115
0.0800705
0.774049
0.0813728
0.0871426
0.315757
0.0064037
0.31533
0.118595
0.47934
0.208903
0.311567
0.583087
0.482615
0.314852
0.0991835
0.0854891
0.465248
0.308701
0.12883
0.320785
0.317273
0.37271
0.328327
0.898322
0.604358
0.772494
0.466946
0.574792
0.317785
0.596066
0.472696
0.319682
0.779373
0.901997
0.572959
0.545824
0.319512
0.683318
0.301344
0.771041
0.43924
0.596946
0.0723766
0.125139
0.545102
0.0417461
0.731152
0.960268
0.794456
0.0496669
0.152867
0.0694643
0.703281
0.762605
0.0334002
0.48633
0.2911
0.683184
0.507041
0.288992
0.326796
0.118201
0.55697
0.572042
0.141357
0.895709
0.766594
0.352012
0.293262
0.952524
0.293625
0.9196
0.569172
0.563484
0.296455
0.823265
0.263582
0.81211
0.714656
0.830106
0.0290603
0.306475
0.886339
0.164898
0.92981
0.315056
0.843087
0.224632
0.221239
0.2402
0.902374
0.639557
0.823618
0.637538
0.252751
0.882436
0.89205
0.229252
0.897572
0.261026
0.604778
0.252395
0.641198
0.344086
0.216612
0.317992
0.209463
0.328116
0.0853082
0.269946
0.245262
0.777533
0.245076
0.570772
0.368845
0.476684
0.266436
0.134532
0.197577
0.568321
0.252587
0.772703
0.172836
0.271921
0.813367
0.596469
0.270052
0.672798
0.267746
0.251714
0.246419
0.341274
0.267789
0.00437533
0.136604
0.124237
0.253989
0.250851
0.585118
0.128106
0.101437
0.241259
0.161835
0.764859
0.653407
0.124025
0.281074
0.485778
0.27432
0.28659
0.223051
0.284146
0.652588
0.282443
0.437311
0.00110868
0.750542
0.425098
0.940887
0.295424
0.278543
0.0853334
0.779745
0.208225
0.29693
0.60674
0.306426
0.290634
0.26893
0.280651
0.104062
0.304114
0.285663
0.285798
0.270724
0.342381
0.274142
0.742915
0.229946
0.285439
0.773019
0.938829
0.463373
0.2381
0.553571
0.28728
0.257536
0.243682
0.142393
0.229529
0.209629
0.869464
0.237881
0.342365
0.344193
0.119246
0.226896
0.738668
0.267087
0.274323
0.415528
0.385982
0.266327
0.493132
0.345398
0.270399
0.25633
0.312249
0.262203
0.731893
0.690564
0.241349
0.224406
0.255383
0.139169
0.266632
0.344717
0.586695
0.26178
0.271438
0.242692
0.277083
0.747765
0.229505
0.706184
0.273595
0.259829
0.243888
0.263631
0.203948
0.254447
0.208287
0.193405
0.253761
0.84195
0.305318
0.836913
0.423918
0.172916
0.0996238
0.226974
0.746285
0.267864
0.260753
0.196681
0.263869
0.192355
0.757861
0.74865
0.203813
0.2025
0.212836
0.213723
0.524563
0.370501
0.207916
0.207889
0.160106
0.25443
0.213064
0.207189
0.140696
0.14035
0.00248209
0.2091
0.529315
0.114838
0.372192
0.218879
0.221789
0.238288
0.313973
0.732877
0.267632
0.190286
0.0580066
0.0749168
0.372315
0.219586
0.211916
0.299804
0.112969
0.0859383
0.222191
0.741482
0.245999
0.256982
0.137286
0.237199
0.908547
0.251456
0.246091
0.362965
0.244468
0.252085
0.74026
0.25101
0.291351
0.0764152
0.0175668
0.501876
0.131769
0.0824379
0.259144
0.211935
0.741188
0.260645
0.792331
0.791963
0.25131
0.732385
0.0324852
0.241471
0.258267
0.117778
0.257763
0.796416
0.943834
0.149503
0.77341
0.256844
0.579135
0.681853
0.256932
0.267617
0.784781
0.258642
0.899203
0.252721
0.330562
0.280237
0.900729
0.771187
0.32893
0.259626
0.251185
0.616116
0.32529
0.622543
0.77339
0.750636
0.264284
0.0511203
0.265868
0.243836
0.612572
0.198069
0.613474
0.135358
0.680519
0.000969017
0.747399
0.333571
0.215657
0.242667
0.771741
0.238803
0.743277
0.706497
0.765597
0.0577947
0.00831668
0.626681
0.0173232
0.237431
0.32562
0.493206
0.235836
0.710116
0.390209
0.727789
0.225822
0.715027
0.543973
0.612383
0.945779
0.344445
0.867506
0.224379
0.0479029
0.391584
0.0473908
0.931733
0.140659
0.364941
0.619871
0.247054
0.236907
0.0606789
0.127262
0.242109
0.638217
0.75803
0.0254215
0.800701
0.323995
0.884062
0.158651
0.639482
0.239559
0.53843
0.767914
0.532582
0.47476
0.569356
0.652401
0.734382
0.46856
0.132264
0.595314
0.247913
0.24692
0.248702
0.170054
0.866253
0.870487
0.606764
0.269573
0.71338
0.745521
0.267735
0.249871
0.245684
0.2378
0.858263
0.135968
0.22897
0.409598
0.237042
0.597221
0.52349
0.278364
0.151756
0.239254
0.235629
0.358568
0.924853
0.43414
0.238554
0.719477
0.175677
0.141244
0.83757
0.0223978
0.175941
0.0578755
0.177712
0.170492
0.72166
0.22969
0.540825
0.715896
0.296795
0.246255
0.769286
0.184903
0.753715
0.220277
0.228258
0.234618
0.606467
0.466265
0.751293
0.634839
0.701412
0.200622
0.37631
0.772177
0.684979
0.252361
0.679015
0.176164
0.597542
0.146471
0.613367
0.234918
0.510217
0.205917
0.342444
0.68009
0.168945
0.686201
0.158076
0.253975
0.205585
0.113915
0.214283
0.20496
0.29452
0.750592
0.212795
0.130194
0.0737258
0.613934
0.0737926
0.693383
0.0159089
0.21486
0.139991
0.216819
0.686971
0.703741
0.130588
0.852248
0.116416
0.000503146
0.607873
0.521727
0.213805
0.679875
0.16773
0.0767474
0.284498
0.0119883
0.38973
0.583685
0.352593
0.21931
0.913631
0.225099
0.394756
0.612761
0.312666
0.697725
0.214783
0.339139
0.212259
0.355659
0.849733
0.231833
0.204236
0.369343
0.213204
0.418402
0.214226
0.156091
0.209752
0.85014
0.210056
0.205854
0.208126
0.809666
0.262225
0.750746
0.873554
0.856183
0.490314
0.144708
0.159853
0.535567
0.683631
0.0888355
0.15278
0.205976
0.204958
0.694634
0.938673
0.00858485
0.109615
0.191633
0.761206
0.118055
0.314634
0.702411
0.20168
0.19955
0.202093
0.199062
0.205807
0.500382
0.253523
0.66849
0.0908341
0.209513
0.207309
0.81433
0.338535
0.78292
0.882702
0.148509
0.204008
0.161077
0.813235
0.813085
0.791078
0.779624
0.287927
0.159142
0.760991
0.140831
0.208082
0.664033
0.232759
0.205395
0.163928
0.198266
0.657741
0.645619
0.205405
0.39693
0.237783
0.231752
0.922762
0.101776
0.158496
0.206515
0.208618
0.0365801
0.208242
0.163818
0.215211
0.628318
0.208997
0.0705017
0.219356
0.0320234
0.821738
0.788969
0.296073
0.212303
0.213276
0.258113
0.191941
0.170077
0.256072
0.187154
0.180143
0.161099
0.184585
0.836302
0.680007
0.311039
0.609685
0.188729
0.642848
0.152924
0.612505
0.455984
0.57412
0.189365
0.369719
0.0707903
0.646528
0.737881
0.213249
0.959771
0.194668
0.200088
0.352217
0.0755201
0.259892
0.200657
0.642376
0.151116
0.208858
0.207632
0.154378
0.474981
0.157129
0.157689
0.154269
0.15848
0.153714
0.62175
0.628907
0.642745
0.612159
0.12207
0.15507
0.799908
0.165364
0.124708
0.162845
0.161645
0.128145
0.164933
0.15603
0.163387
0.200087
0.193572
0.372929
0.21497
0.24248
0.329224
0.275479
0.253914
0.124581
0.199896
0.197939
0.15261
0.164244
0.196895
0.432756
0.0717105
0.565205
0.918629
0.386699
0.854317
0.196815
0.072616
0.0794732
0.0827235
0.265993
0.082029
0.192688
0.196046
0.756956
0.947368
0.350655
0.17428
0.78794
0.303382
0.402297
0.192813
0.414816
0.193248
0.434063
0.160883
0.131824
0.138424
0.187449
0.00143961
0.200371
0.774698
0.153843
0.551575
0.0975902
0.178819
0.186302
0.686774
0.247836
0.442778
0.281533
0.427746
0.182547
0.0584608
0.791006
0.2115
0.392582
0.76785
0.770842
0.179929
0.160209
0.186346
0.283005
0.184261
0.424396
0.685415
0.290527
0.189242
0.189086
0.305055
0.375623
0.514449
0.188681
0.191312
0.192353
0.778433
0.188195
0.193015
0.105079
0.169544
0.132416
0.0561818
0.126733
0.0918807
0.168946
0.171703
0.0471958
0.143563
0.0466696
0.758502
0.173222
0.128717
0.763819
0.495206
0.260737
0.159529
0.185618
0.052136
0.178707
0.451205
0.275884
0.174597
0.799152
0.124179
0.0159639
0.181325
0.967782
0.271801
0.39321
0.0572878
0.181647
0.180452
0.506018
0.0554091
0.26827
0.373106
0.168532
0.18077
0.185975
0.952067
0.837895
0.801619
0.263923
0.117669
0.0646544
0.0545069
0.816833
0.0587812
0.13923
0.185901
0.929749
0.21236
0.189195
0.666922
0.803049
0.44805
0.419648
0.181923
0.173164
0.763137
0.595391
0.646752
0.0841236
0.570222
0.149901
0.249291
0.124422
0.176495
0.271747
0.835893
0.274365
0.272533
0.883283
0.167066
0.771609
0.141344
0.416659
0.546794
0.824589
0.273542
0.788852
0.162703
0.152021
0.109972
0.174541
0.799064
0.144485
0.142291
0.364987
0.142003
0.14786
0.146385
0.0799781
0.260119
0.170653
0.204388
0.144428
0.149581
0.157143
0.137116
0.808867
0.44266
0.142719
0.176307
0.964266
0.349307
0.17244
0.387585
0.169362
0.326874
0.169732
0.798922
0.141896
0.958733
0.136843
0.134299
0.371045
0.145367
0.418663
0.352914
0.468201
0.0866153
-0.00569463
0.109365
0.0968592
0.141387
0.0704932
0.153456
0.141136
0.141339
0.881409
0.108503
0.805476
0.818244
0.124831
0.742891
0.182796
0.775745
0.681118
0.15037
0.754387
0.150284
0.00776308
0.460676
0.249244
0.714028
0.679489
0.274936
0.0741462
0.115807
0.470751
0.545562
0.150232
0.14848
0.167114
0.571919
0.64244
0.391281
0.0792014
0.0636351
0.169251
0.48908
0.564026
0.648102
0.882516
0.171279
0.717974
0.622048
0.386988
0.957462
0.248208
0.352481
0.493276
0.161383
0.822717
0.0509609
0.247243
0.613507
0.52548
0.684938
0.816093
0.0825761
0.247207
0.166987
0.29918
0.16877
0.279057
0.310342
0.293736
0.204829
0.167246
0.161007
0.158549
0.214071
0.876576
0.230738
0.209157
0.21626
0.788131
0.635764
0.0795761
0.81902
0.167823
0.158999
0.357648
0.149765
0.154035
0.197611
0.0793486
0.154461
0.153243
0.0585382
0.1433
0.148253
0.154232
0.185639
0.158451
0.158579
0.803444
0.135573
0.139547
0.131362
0.169534
0.126966
0.115138
0.168838
0.0644931
0.0647071
0.229227
0.120842
0.119672
0.81182
0.161559
0.152633
0.138852
0.0827349
0.141816
0.160825
0.163209
0.158884
0.252411
0.391167
0.476863
0.312896
0.0779273
0.160282
0.163873
0.168697
0.59444
0.223523
0.165148
0.898401
0.160399
0.219356
0.154571
0.155796
0.449007
0.472515
0.154366
0.236515
0.68477
0.674243
0.227062
0.156631
0.800941
0.156305
0.327298
0.154258
0.940024
0.154305
0.577425
0.151432
0.442227
0.605803
0.777188
0.663838
0.149582
0.624205
0.381612
0.442574
0.150027
0.0983998
0.248244
0.384713
0.150277
0.150506
0.150582
0.249246
0.154418
0.89084
0.502891
0.0929836
0.809256
0.158741
0.769708
0.0853915
0.149857
0.155391
0.594716
0.159512
0.460479
0.874264
0.151572
0.148068
0.215458
0.836732
0.596624
0.58734
0.148061
0.639921
0.493481
0.145411
0.223081
0.186794
0.143312
0.142648
0.467025
0.649781
0.154098
0.227185
0.186503
0.792694
0.769876
0.791762
0.155562
0.796625
0.135694
0.542434
0.686224
0.30531
0.448771
0.155642
0.821777
0.116595
0.116977
0.123807
0.239629
0.124695
0.26196
0.256801
0.222113
0.277051
0.567017
0.225411
0.369326
0.038128
0.136441
0.192012
0.350419
0.161028
0.403297
0.706651
0.266173
0.569156
0.516515
0.0473718
0.127704
0.433687
0.13588
0.000381386
0.825802
0.590816
0.753874
0.124477
0.822405
0.212834
0.747596
0.207371
0.773366
0.202891
0.803364
0.131075
0.64768
0.148928
0.49279
0.208193
0.520409
0.210642
0.965417
0.160027
0.183654
0.55711
0.498122
0.150199
0.283784
0.502183
0.151363
0.408543
0.0901662
0.405891
0.15118
0.150222
0.188062
0.816537
0.154765
0.120831
0.159146
0.14728
0.244049
0.607494
0.163212
0.147176
0.239471
0.252177
0.0118143
0.778658
0.147797
0.174101
0.32791
0.534517
0.00802603
0.152125
0.810461
0.130264
0.141078
0.368677
0.103295
0.132391
0.684169
0.156265
0.799495
0.258161
0.125761
0.14466
0.27895
0.142891
0.15618
0.194267
0.153656
0.146993
0.149131
0.0917179
0.354708
0.144036
0.177187
0.151882
0.151588
0.18031
0.153693
0.14144
0.772607
0.145628
0.142463
0.151748
0.802688
0.144866
0.148232
0.154489
0.495224
0.164213
0.145563
0.153679
0.145066
0.00108184
0.797506
0.177088
0.149434
0.118809
0.8421
0.220635
0.100279
0.144311
0.0363974
0.242737
0.794444
0.144547
0.778463
0.138974
0.109184
0.802708
0.78933
0.835849
0.114016
0.814131
0.064339
0.0720408
0.145854
0.0982702
0.0855867
0.151984
0.495347
0.807376
0.749067
0.863595
0.731214
0.356631
0.240187
0.131726
0.139523
0.143059
0.323595
0.387213
0.210708
0.589264
0.171247
0.145175
0.422699
0.164831
0.737438
0.745118
0.105131
0.745392
0.386634
0.636363
0.846545
0.13974
0.551687
0.382708
0.423512
0.386041
0.139912
0.268456
0.763387
0.851095
0.149085
0.723139
0.848239
0.789882
0.582586
0.133411
0.858278
0.133997
0.697911
0.694798
0.133448
0.146104
0.128003
0.332453
0.821443
0.228448
0.388973
0.131258
0.454019
0.819427
0.145037
0.58981
0.142062
0.600958
0.746564
0.865376
0.734949
0.192311
0.2148
0.257676
0.561018
0.145559
0.666155
0.667973
0.141496
0.609496
0.274187
0.14202
0.393072
0.621321
0.147911
0.759082
0.138836
0.6521
0.894437
0.141542
0.319914
0.142911
0.400679
0.143174
0.0873736
0.820557
0.409571
0.184993
0.244242
0.327883
0.312991
0.069215
0.26789
0.272639
0.758728
0.432756
0.899387
0.691206
0.152851
0.786168
0.0934412
0.0932856
0.459728
0.363523
0.608435
0.610173
0.100953
0.0890447
0.271716
0.800248
0.561827
0.691485
0.893529
0.102721
0.573281
0.417405
0.576446
0.604925
0.372775
0.813668
0.618499
0.653546
0.145289
0.166761
0.883466
0.105607
0.0931515
0.134753
0.715262
0.809015
0.823665
0.1347
0.134229
0.500249
0.134127
0.138835
0.516094
0.859604
0.596652
0.147853
0.743117
0.279564
0.592947
0.599648
0.859277
0.133889
0.367057
0.371161
0.135255
0.127647
0.123533
0.124643
0.39902
0.130033
0.860914
0.573129
0.503869
0.130603
0.121187
0.197036
0.553806
0.87488
0.266493
0.237968
0.848863
0.0768644
0.116007
0.157459
0.248143
0.115943
0.135587
0.136653
0.192355
0.137364
0.843731
0.860116
0.204136
0.849117
0.356716
0.195517
0.134104
0.15641
0.149701
0.17071
0.136109
0.124666
0.137079
0.147559
0.125487
0.158314
0.162487
0.559646
0.126792
0.129908
0.165407
0.0990229
0.132617
0.13151
0.129281
0.125707
0.123445
0.845923
0.127267
0.137047
0.342343
0.341804
0.796093
0.370053
0.8372
0.671515
0.702956
0.79906
0.309031
0.12658
0.356239
0.881355
0.14784
0.0821485
0.562939
0.128581
0.677619
0.125637
0.130051
0.203633
0.117817
0.193809
0.129667
0.11274
0.24382
0.580935
0.0139283
0.451744
0.955302
0.105823
0.543273
0.105072
0.78283
0.600906
0.103349
0.239543
0.57138
0.111351
0.794176
0.578974
0.215456
0.112694
0.121006
0.825165
0.270232
0.567857
0.172713
0.225517
0.6752
0.153836
0.134824
0.433497
0.197559
0.621429
0.205718
0.454796
0.123498
0.126522
0.146917
0.131722
0.860803
0.634007
0.0948636
0.0950943
0.960411
0.155548
0.807768
0.639064
0.120068
0.707267
0.111464
0.108362
0.107044
0.0902904
0.10695
0.108347
0.977147
0.121796
0.264757
0.414183
0.0498914
0.154361
0.440711
0.353573
0.435171