/*--------------------------------*- C++ -*----------------------------------*\
| =========                 |                                                 |
| \\      /  F ield         | OpenFOAM: The Open Source CFD Toolbox           |
|  \\    /   O peration     | Version:  2406                                  |
|   \\  /    A nd           | Website:  www.openfoam.com                      |
|    \\/     M anipulation  |                                                 |
\*---------------------------------------------------------------------------*/
FoamFile
{
    version     2.0;
    format      ascii;
    arch        "LSB;label=32;scalar=64";
    class       surfaceScalarField;
    location    "12";
    object      phi;
}
// * * * * * * * * * * * * * * * * * * * * * * * * * * * * * * * * * * * * * //

dimensions      [0 3 -1 0 0 0 0];

oriented        oriented;

internalField   nonuniform List<scalar> 
113358
(
-1.74994e-05
3.52888e-05
-2.39008e-05
6.10673e-06
2.42841e-05
8.15938e-07
-6.44396e-06
-1.87097e-05
-2.66932e-05
2.0215e-05
-3.51592e-06
1.00423e-05
-2.20044e-05
-6.60685e-06
2.22006e-05
6.15371e-06
-1.66801e-05
1.59134e-06
2.93006e-05
-1.42204e-05
1.35444e-05
-1.41794e-05
-7.93504e-06
8.56612e-06
-7.16602e-06
3.53815e-05
-2.60425e-05
-2.2256e-06
-8.84234e-07
-3.60918e-05
2.01321e-05
1.68135e-05
9.8317e-06
-2.78763e-08
1.8356e-05
-2.8157e-05
8.34106e-06
5.453e-06
-1.42156e-05
-8.58086e-08
-5.51998e-06
1.94254e-05
-1.73229e-05
3.41818e-06
-1.87057e-05
-1.0237e-06
-2.95334e-07
1.99997e-05
-4.97193e-05
3.51087e-06
1.4965e-05
3.12783e-05
1.90762e-06
-4.59931e-06
2.67701e-06
1.81924e-06
-1.68549e-06
2.65457e-05
-2.66007e-05
2.49519e-06
1.04329e-08
1.36102e-05
-1.60182e-05
8.75366e-06
2.68428e-05
-2.31294e-05
-1.24742e-05
-1.99541e-05
1.19423e-05
8.4277e-06
-4.16272e-07
1.40309e-05
-4.14985e-05
3.52146e-05
-7.75516e-06
2.02642e-05
3.20608e-06
2.28871e-05
-4.63434e-05
2.37025e-05
1.28994e-07
2.38579e-07
-2.40793e-05
-1.06077e-05
4.12666e-05
3.94157e-06
-3.45426e-05
-4.45115e-07
-3.84816e-05
4.10333e-05
-2.12294e-06
-1.54077e-06
6.77234e-06
4.55306e-07
-5.72302e-06
-4.09801e-05
1.81861e-05
-3.12345e-06
2.59664e-05
-2.67603e-05
6.79974e-06
2.22216e-05
-2.11485e-06
-1.22993e-05
1.16596e-05
-7.21863e-07
1.34018e-06
-3.22694e-06
-9.80104e-06
7.57076e-06
5.45364e-06
2.46406e-05
-7.17238e-07
-2.38885e-07
-3.61754e-06
3.51937e-06
9.0028e-08
-5.04963e-06
-2.63201e-05
2.66688e-05
4.69548e-06
6.62165e-06
-2.46696e-07
-1.07075e-05
4.32539e-06
1.96974e-05
-9.3878e-07
1.0547e-06
-1.98121e-05
-2.77882e-05
1.24411e-05
-2.9666e-06
1.7897e-05
1.64032e-05
1.5334e-06
-1.86811e-05
7.36764e-07
-3.17976e-05
7.92682e-06
-1.03322e-05
3.42639e-05
-2.01757e-07
-2.96584e-06
3.17381e-06
9.45175e-06
1.17967e-05
2.27632e-06
-2.35087e-05
6.24202e-06
-4.17563e-05
3.59576e-05
-4.53015e-07
-2.3868e-06
4.81711e-06
3.02533e-05
-3.27149e-05
-2.27509e-05
1.70198e-05
-2.12708e-05
2.69738e-05
3.76005e-06
-2.10113e-05
-2.97418e-05
4.69772e-05
-1.56156e-07
3.88386e-05
-1.01731e-05
-2.85126e-05
4.68676e-06
-1.78761e-05
-8.76656e-06
-5.44952e-06
3.11604e-05
-9.91427e-07
-2.47287e-05
-1.8789e-06
1.86284e-05
-1.36696e-05
-3.07388e-06
-3.01939e-05
-1.0483e-05
4.0495e-05
-7.97773e-06
2.89225e-05
3.77842e-07
-2.13232e-05
-3.35832e-05
3.52887e-06
-5.39656e-06
3.54429e-05
2.91408e-05
1.21774e-05
-3.92438e-05
-2.07694e-06
2.31467e-05
-1.64454e-05
1.61733e-06
-8.32686e-06
-1.27935e-05
4.15754e-06
1.13715e-05
-3.08276e-06
3.11885e-05
-7.53587e-06
1.77386e-05
-4.13182e-05
-1.03334e-05
-3.90075e-05
4.10963e-05
8.22174e-06
-2.67077e-06
9.60849e-06
-1.15644e-05
4.61774e-06
2.85024e-05
-1.25836e-05
2.08282e-05
-3.67572e-05
-1.75754e-05
3.05663e-06
3.20332e-05
-1.75201e-05
1.46995e-05
-7.56469e-06
6.63373e-06
-1.38332e-05
2.90503e-05
-7.39854e-06
-2.18736e-05
2.54794e-07
-1.112e-05
-1.36e-05
6.40125e-06
1.83143e-05
-2.7487e-05
-3.75004e-06
1.32181e-05
1.81575e-05
-3.09761e-06
4.60364e-06
-1.50637e-06
2.79915e-05
-4.95603e-06
-2.67866e-05
3.73919e-06
-1.25689e-05
-3.33294e-05
1.22463e-05
3.36496e-05
-4.22931e-06
5.03767e-06
-3.87109e-05
3.78224e-05
2.13511e-06
1.95713e-05
8.67149e-07
-2.25811e-05
5.85898e-06
-4.76512e-06
-1.15465e-06
4.76813e-08
-4.80429e-07
1.63512e-05
-1.58871e-05
5.16639e-06
-2.85493e-05
3.17737e-05
-8.38841e-06
1.0846e-05
-2.27509e-05
2.06307e-05
-8.73428e-06
1.20577e-05
-1.08277e-05
-1.27501e-06
-1.54717e-05
-4.9178e-06
2.65705e-05
-6.17806e-06
-3.56083e-07
5.56635e-06
-5.21062e-06
6.29512e-06
-2.70694e-05
9.55973e-06
1.12054e-05
3.43357e-05
-2.76851e-06
-2.86609e-06
-2.87286e-05
-2.32657e-05
-2.73501e-05
3.01998e-05
2.0383e-05
2.32278e-06
-3.02768e-05
4.69013e-06
3.12541e-05
-2.40367e-05
-2.00492e-06
-5.21595e-06
8.2948e-07
6.38238e-07
-1.94549e-05
1.79039e-05
6.93783e-06
5.43553e-06
1.03338e-05
-2.27145e-05
9.12402e-06
-4.36838e-06
3.54257e-06
-8.98728e-06
-1.38046e-05
-9.02575e-06
2.40966e-05
-1.27081e-06
-1.94868e-05
2.38089e-05
-1.66313e-05
1.23054e-05
-4.48498e-06
1.57478e-07
4.33894e-06
-2.63545e-05
2.48152e-05
-2.47796e-05
2.02227e-05
-4.4463e-06
-1.49659e-06
-3.3162e-07
6.261e-06
5.48549e-05
-5.31495e-05
2.10911e-06
-3.7555e-06
-1.3386e-05
4.53037e-06
1.43656e-05
-5.47968e-06
-3.76198e-06
2.59184e-05
-2.97119e-05
7.57193e-06
-1.56086e-05
-1.96338e-05
2.90936e-05
6.1437e-06
8.5472e-06
-1.14569e-05
1.6421e-05
-1.35245e-05
6.0586e-06
1.87429e-05
-3.96845e-05
1.48919e-05
-3.02111e-05
1.04487e-05
1.23843e-05
7.36149e-06
5.83505e-07
-2.31446e-05
1.86676e-05
3.89784e-06
-2.72378e-05
3.37143e-06
9.66054e-06
1.42034e-05
2.16449e-05
-1.79643e-05
6.15382e-06
-9.79501e-06
1.90351e-06
1.61586e-05
-1.73113e-05
-6.98152e-07
2.14232e-05
-2.81566e-06
-4.22509e-06
-1.43957e-05
1.41845e-05
1.56947e-05
-1.31284e-05
-1.67445e-05
3.15236e-06
-2.03417e-06
6.75678e-06
-7.88257e-06
6.99211e-06
-5.93336e-07
-6.43291e-06
2.36352e-07
6.27283e-06
-6.51304e-06
-3.45815e-07
3.29964e-06
-1.68955e-05
1.3947e-05
-1.8428e-05
3.81092e-05
4.42461e-07
-2.02206e-05
4.38467e-06
-1.78649e-05
1.38751e-05
-5.17336e-07
-4.40285e-06
-5.66081e-06
1.7078e-06
8.36772e-06
-6.35003e-06
-1.52257e-05
3.57373e-06
1.80635e-05
-2.90123e-06
2.14556e-05
9.39942e-06
-2.78582e-05
5.0408e-06
6.25935e-06
-2.44339e-05
1.31281e-05
-3.26326e-06
2.5738e-05
-3.14691e-05
8.97904e-06
-9.89469e-06
1.06437e-05
-6.25204e-07
2.40958e-05
-2.99138e-05
3.9783e-06
1.88428e-06
2.00753e-05
9.44894e-06
-3.21913e-05
2.66008e-06
-2.27905e-05
-1.12702e-05
5.78023e-06
2.82744e-05
-3.6841e-06
-2.28375e-05
1.61602e-06
2.49137e-05
1.57677e-05
-1.63866e-05
-1.02369e-06
1.65098e-06
1.56142e-05
-2.64538e-05
-5.43054e-06
1.62432e-05
-4.95562e-06
-3.47407e-07
5.31046e-06
-4.06631e-06
-1.24452e-06
2.55444e-05
-2.02004e-05
-1.14561e-05
7.22408e-06
3.48073e-05
-3.0562e-05
-8.51116e-06
1.62995e-05
-2.47584e-05
1.69517e-05
1.74071e-06
-2.24036e-05
1.7083e-05
3.52251e-06
-3.34865e-06
-7.35084e-06
2.58853e-05
-1.51899e-05
2.26336e-05
-1.13056e-05
-8.57704e-06
-2.75527e-06
-2.87243e-06
-1.43687e-05
2.02993e-05
-3.0916e-06
9.01596e-06
-4.55157e-06
-4.47469e-06
-1.66466e-06
-2.51114e-05
-4.66711e-06
3.14321e-05
-1.56752e-05
2.14597e-05
6.53415e-06
-1.23359e-05
3.97832e-06
-1.0222e-05
1.77789e-05
-1.15369e-05
-3.38746e-05
7.77951e-06
-7.03745e-07
2.67774e-05
-3.01909e-06
-4.4818e-05
3.86516e-05
9.1204e-06
-3.50834e-07
-5.6739e-06
5.97482e-06
2.01559e-05
-3.00221e-05
2.36926e-07
9.62292e-06
3.88654e-05
4.58865e-06
-4.15168e-05
-1.95142e-06
1.24888e-05
1.26534e-06
-2.81075e-05
1.43152e-05
-8.98126e-06
1.29531e-05
1.61028e-05
-2.765e-05
-2.28131e-05
1.23854e-05
3.81166e-05
8.13525e-06
4.93139e-06
-6.13098e-06
7.64092e-06
-6.77128e-06
-2.85909e-05
2.7708e-05
5.67859e-06
1.75393e-05
-8.61025e-06
-1.46285e-05
-5.61847e-06
1.25452e-05
2.43819e-05
-3.12958e-05
2.85543e-07
3.67076e-06
-3.94658e-06
-2.17923e-05
3.73296e-06
1.32924e-05
4.72667e-06
2.52082e-05
-1.33841e-05
-1.7293e-05
5.46376e-06
3.07074e-05
-7.02617e-06
-3.76422e-06
-1.99187e-05
-2.78298e-05
-1.07599e-07
-1.00423e-06
2.89211e-05
2.57705e-05
1.33866e-05
-3.73809e-05
-1.76343e-06
6.88726e-06
4.90665e-06
-1.17976e-05
1.40744e-06
-2.80778e-05
-5.89913e-08
2.67654e-05
4.67158e-05
-3.53916e-05
-4.29921e-06
-7.07366e-06
6.79956e-06
-4.22259e-07
-5.54923e-06
-9.0381e-07
-2.6925e-05
3.80377e-05
1.55644e-05
-2.67012e-05
1.5681e-05
-2.50158e-05
-2.19906e-06
1.14979e-05
-2.72397e-05
2.95623e-05
-1.33968e-06
-1.04012e-06
-5.23272e-06
2.53194e-06
2.62502e-06
3.7337e-05
-3.73294e-06
8.67188e-06
-4.22611e-05
-2.67217e-05
3.52516e-05
-3.58194e-05
8.69193e-07
3.4052e-06
2.19931e-05
-2.62996e-05
4.45146e-06
-4.21394e-06
-2.29359e-07
-1.4571e-05
-7.09845e-06
9.21312e-07
2.07286e-05
-9.70245e-06
2.74075e-05
-2.1237e-05
3.51162e-06
1.43393e-06
-7.66432e-06
4.64553e-06
1.56632e-06
-3.12636e-06
-3.20398e-06
6.24883e-06
-2.59383e-05
2.61707e-05
2.47911e-05
-2.50187e-05
4.08552e-05
-1.19127e-05
-7.93667e-06
-2.10166e-05
1.56859e-05
2.40546e-06
-8.40157e-07
-1.72793e-05
2.66366e-05
-3.23015e-05
4.37361e-06
1.29276e-06
4.97883e-06
-3.32816e-08
-4.94826e-06
-5.44139e-06
2.4608e-05
-2.36207e-05
4.25796e-06
-1.67064e-05
1.81294e-05
-1.98165e-06
5.55905e-07
-1.40887e-05
1.26385e-05
5.66082e-07
8.87282e-07
3.93392e-06
-2.64462e-05
8.95917e-06
1.35657e-05
-1.0047e-05
-9.9863e-06
2.39296e-05
-3.89198e-06
-1.90077e-05
1.84843e-05
5.67551e-07
-5.32068e-08
-3.08927e-05
-3.34417e-05
3.41143e-05
-9.28313e-06
2.87621e-05
8.70578e-06
-2.8193e-05
5.46926e-06
2.90828e-05
4.71184e-06
-3.92645e-05
-1.68947e-05
6.55479e-06
2.28718e-05
-1.25106e-05
-3.09093e-08
-2.84084e-07
1.51835e-05
-1.49212e-05
9.32502e-07
3.53541e-05
-5.88188e-06
-3.04194e-05
-5.63989e-06
-3.51814e-06
6.68688e-06
2.44826e-06
6.52898e-06
-6.43837e-06
-1.11143e-07
-5.55471e-06
-1.47617e-05
1.29955e-06
-2.18516e-05
9.03206e-08
-4.59727e-06
2.63565e-05
-1.7468e-05
1.64646e-05
-3.35458e-07
1.34694e-06
-8.04241e-07
1.08794e-05
-4.65141e-07
-9.57645e-06
-4.01478e-06
4.83143e-06
-8.72909e-07
4.58332e-06
-1.06398e-06
2.12939e-05
-2.47947e-05
3.26661e-05
2.53969e-06
-2.66711e-05
-8.5633e-06
-2.89186e-06
-1.39587e-05
-1.00941e-05
1.78064e-05
-1.98767e-05
7.50724e-07
1.38854e-06
5.92164e-06
-2.55915e-05
3.07657e-05
-1.1103e-05
1.50831e-05
2.77342e-06
-7.90165e-06
-1.00154e-05
-1.37571e-05
-3.43346e-05
8.21477e-06
3.99104e-05
-5.09715e-07
3.77325e-06
7.73168e-08
-3.37753e-06
1.25788e-05
-1.25047e-06
2.78662e-06
-1.41866e-05
-1.26034e-05
-5.73607e-07
1.23944e-05
7.31702e-07
2.32356e-05
3.11192e-06
-2.83083e-05
1.98211e-06
-2.58869e-05
-1.58844e-05
3.43786e-05
7.3897e-06
-8.16328e-06
3.05971e-06
-7.85218e-06
4.84716e-06
2.15081e-05
-2.67352e-05
3.98758e-07
-2.55318e-05
-2.63588e-05
1.17578e-05
4.00364e-05
-4.28623e-06
4.76108e-06
-4.6389e-07
1.83882e-05
1.06193e-05
-2.4522e-06
-2.66241e-05
-1.24344e-06
-4.11027e-06
-2.54752e-05
3.08582e-05
-1.6694e-05
4.31821e-06
3.99817e-05
-2.75868e-05
2.21305e-05
-1.5793e-05
-8.48913e-06
2.26367e-06
3.58989e-06
5.05613e-07
-4.06186e-06
4.68409e-05
-2.17392e-05
2.84501e-06
-2.79226e-05
1.13437e-05
-1.31424e-05
1.10188e-06
6.23732e-07
4.01867e-06
2.8485e-06
-6.87406e-06
-1.52294e-05
-2.08361e-05
3.62362e-06
3.24813e-05
-1.51964e-05
9.04205e-07
1.60588e-05
-1.82395e-06
2.28186e-05
-4.78487e-05
4.67886e-08
2.498e-05
-1.64758e-05
-2.1345e-05
2.76038e-05
1.0222e-05
-1.23096e-05
1.61067e-05
2.69071e-05
5.09729e-06
2.42107e-05
-2.54033e-05
-3.91467e-06
2.94665e-06
2.17627e-06
-1.7479e-05
1.23331e-05
-2.97575e-05
1.32914e-05
1.03077e-05
6.14344e-06
1.81428e-05
5.17429e-06
-2.6116e-06
-2.06335e-05
-4.09439e-06
-2.81379e-05
3.47706e-06
2.8729e-05
5.46091e-06
-2.22422e-06
2.10032e-05
-2.42443e-05
-3.94254e-06
2.0955e-07
-8.14402e-06
1.16354e-05
3.77427e-07
9.24862e-06
-3.13097e-05
2.16797e-05
-1.13092e-05
-2.14835e-05
-1.48507e-06
3.43004e-05
1.54203e-07
7.21376e-06
-7.38883e-06
2.04398e-07
-1.0023e-06
1.50393e-05
-1.42129e-05
1.94844e-06
1.29674e-05
1.09962e-05
-2.59134e-05
9.8987e-07
-1.85922e-05
-4.49042e-07
1.80597e-05
3.2972e-06
-1.69761e-05
-1.26495e-05
2.63235e-05
1.1775e-05
1.45582e-05
-1.22348e-05
-1.4082e-05
2.40551e-05
1.44284e-05
-3.27542e-05
-5.72532e-06
1.01526e-06
-7.07362e-06
6.0564e-06
3.71404e-06
1.92056e-06
1.36523e-07
-5.76673e-06
3.40998e-06
4.57988e-06
9.4623e-07
-8.92009e-06
4.5498e-06
-4.60385e-06
1.85316e-05
2.92995e-08
-3.21438e-05
1.23102e-05
1.9759e-05
4.70171e-05
5.22466e-06
-8.97462e-06
-4.32245e-05
-9.92081e-06
1.26597e-05
-3.49074e-06
7.84408e-07
-1.25585e-05
1.22809e-05
-1.96639e-05
1.99195e-05
4.46377e-06
2.12591e-07
-4.64941e-06
1.14223e-06
1.01042e-05
-1.91132e-05
7.86434e-06
4.36156e-06
-7.10178e-06
2.75716e-06
2.05966e-05
-1.09318e-05
-5.68879e-06
-1.96225e-05
6.42694e-06
-1.85503e-05
3.17405e-05
2.85295e-05
-2.81566e-05
4.76753e-06
-5.1522e-06
1.79371e-05
7.80954e-06
-2.17419e-05
-3.9941e-06
3.0551e-06
-3.22683e-05
1.0509e-05
1.86958e-05
2.93706e-05
-5.99708e-06
6.14559e-06
3.95805e-05
-4.47278e-05
2.73789e-06
-2.86845e-05
2.99434e-06
2.97921e-05
-4.09476e-06
-2.14258e-05
-1.40188e-05
2.28743e-05
-1.10757e-05
-1.01834e-05
-1.51408e-05
3.63904e-05
-9.83298e-07
4.19257e-06
3.34752e-05
-3.67193e-05
1.28243e-06
2.37523e-05
-4.16572e-05
1.66191e-05
-3.8005e-07
4.79694e-07
2.24218e-05
-2.24534e-05
-3.45057e-05
5.77983e-06
2.49135e-06
2.62891e-05
1.57012e-05
-1.52835e-05
5.38884e-06
-5.85926e-06
7.2762e-07
1.43518e-05
-1.85063e-05
3.42505e-06
-2.24524e-05
3.48852e-05
-4.66612e-06
-7.77803e-06
-2.92895e-05
2.15967e-05
1.34956e-06
6.36967e-06
-3.11716e-05
2.88201e-05
3.94432e-05
-3.7115e-05
2.6231e-05
-2.04674e-05
1.01896e-06
-6.77919e-06
-1.43682e-05
1.93512e-05
-1.18161e-05
6.83154e-06
-8.42942e-06
1.95506e-05
3.18044e-06
-1.44015e-05
-3.14838e-05
1.89435e-06
3.42285e-05
-4.63538e-06
-5.96295e-06
-2.76413e-05
9.21264e-07
3.24873e-05
2.93773e-06
-1.19017e-05
9.68574e-06
1.37474e-05
9.75733e-07
-1.17554e-05
-2.99699e-06
1.12346e-05
2.11543e-05
-2.4186e-05
-8.2216e-06
-7.9005e-06
1.1081e-05
1.87372e-05
-2.18999e-05
1.53327e-06
3.46632e-06
-4.13724e-05
3.63097e-05
1.8992e-05
-2.99265e-05
9.21186e-06
1.65821e-06
-3.33605e-05
-4.86746e-06
8.92056e-06
-4.4956e-06
-7.06259e-07
-2.87232e-05
3.39578e-05
-5.76563e-06
7.22185e-07
5.03179e-06
-3.85711e-06
-5.49698e-06
3.55508e-05
-2.61962e-05
7.7324e-06
-7.11841e-06
-6.71109e-07
-1.02811e-08
1.06081e-06
-1.2127e-05
1.10286e-05
-1.48511e-05
1.37602e-05
2.51475e-05
5.74676e-06
2.98035e-05
-2.17902e-05
-1.37756e-05
6.6082e-06
-5.98811e-06
-6.00482e-07
-4.23439e-06
5.11739e-05
-2.97349e-05
-1.7277e-05
-2.66402e-05
3.08221e-05
1.86415e-05
-1.88612e-06
1.9347e-05
9.14557e-06
-2.66096e-05
-2.49844e-05
-9.36735e-06
3.36955e-05
6.45713e-07
-7.41475e-06
6.5834e-06
8.16677e-07
2.38063e-05
-2.59179e-05
1.65285e-07
1.91946e-06
-1.54108e-05
-9.4312e-06
1.36566e-05
1.11755e-05
-2.87358e-06
1.16731e-06
-1.71297e-05
1.88254e-05
-2.60685e-05
-8.56681e-06
9.16348e-07
3.37171e-05
-1.57191e-05
-7.82825e-06
-6.66931e-06
1.57036e-05
-3.9196e-05
-2.44113e-06
2.60577e-05
6.51919e-06
-2.83233e-05
-8.00618e-06
2.98321e-05
1.00797e-05
-9.91286e-06
-1.63613e-07
-2.34993e-05
3.98066e-05
-5.88974e-06
-1.04598e-05
-5.40284e-06
-2.62244e-05
2.91073e-05
2.51387e-06
-3.37557e-05
3.52191e-05
-4.4073e-06
2.94351e-06
-2.05306e-05
-5.45647e-06
1.45653e-05
1.1414e-05
-2.82921e-05
-7.2603e-06
3.47408e-05
7.29383e-07
3.94216e-07
1.01815e-06
-1.63104e-05
1.4906e-05
5.5878e-06
-5.11934e-07
-5.06417e-06
-9.40265e-06
8.88268e-06
5.43218e-07
3.76347e-05
-3.03657e-05
-4.3095e-05
3.592e-05
4.59196e-06
-2.58007e-08
-4.57178e-06
-3.4294e-05
3.41428e-05
-7.27562e-07
8.86715e-07
-1.45985e-05
1.15709e-05
1.41069e-06
1.56239e-06
3.14544e-06
4.10129e-05
-2.14806e-05
-2.26767e-05
-2.27683e-05
-7.89804e-06
2.95655e-06
2.77958e-05
3.12642e-05
1.30013e-05
-1.36997e-05
-3.05551e-05
1.71048e-05
-6.47651e-06
2.51668e-06
-1.31527e-05
3.88965e-05
-3.34615e-06
-2.77748e-05
-7.70831e-06
-5.53255e-06
8.93478e-06
-9.34018e-06
5.94944e-06
-4.31973e-06
1.12896e-05
4.42895e-06
-1.14306e-05
-1.11576e-05
-5.55226e-06
3.22097e-05
-1.55279e-05
7.97227e-06
2.7298e-05
-2.79414e-05
-7.3276e-06
-2.28186e-05
2.36705e-05
1.4708e-05
-1.5564e-05
2.64769e-05
-2.28007e-05
-3.43221e-06
-3.30863e-07
-7.3199e-07
-1.40827e-05
2.55282e-07
1.44666e-05
-9.5604e-06
1.61908e-05
-9.13432e-07
-5.71481e-06
-3.6245e-05
-1.07864e-05
1.75061e-05
2.95617e-05
1.89933e-05
-1.59376e-05
-3.26368e-06
1.90349e-07
7.22925e-06
-2.51584e-05
-2.74978e-05
4.53989e-05
1.54018e-05
-2.03538e-05
-9.942e-06
1.48676e-05
-6.04036e-06
-4.52565e-05
1.34798e-05
3.78421e-05
2.0524e-05
-1.85592e-05
2.28654e-06
-4.25879e-06
2.95141e-05
-1.16453e-05
-3.38659e-05
1.60561e-05
1.08555e-05
1.66684e-05
-3.97339e-05
1.22355e-05
-6.90698e-06
2.57288e-05
-2.24511e-05
3.63339e-06
-2.45909e-05
2.81216e-05
2.73477e-05
-3.0882e-05
-2.92087e-07
-1.84661e-05
1.55426e-05
3.19904e-06
6.54947e-06
-5.84406e-06
-7.77206e-07
3.27274e-05
-4.14027e-05
1.76472e-06
-6.37911e-06
8.19348e-06
4.63981e-06
-6.48186e-06
-4.64831e-06
2.30846e-07
-2.03205e-06
6.42805e-06
1.49623e-05
-2.45556e-06
1.62514e-05
-2.45211e-05
1.007e-06
7.26073e-06
-1.18864e-05
-2.38374e-06
1.1366e-05
1.95409e-05
-2.63422e-05
1.51642e-05
-8.37392e-06
-2.31415e-05
-2.76211e-06
2.73059e-05
-1.41187e-06
-4.10811e-05
-7.20183e-06
3.67267e-05
1.16032e-05
-3.21604e-05
8.48086e-06
4.98459e-07
2.31738e-05
-6.09661e-06
-1.31078e-07
1.44887e-06
4.83309e-06
-2.35725e-05
-2.68245e-05
2.15987e-05
2.87707e-05
1.43007e-05
1.28357e-05
-2.17758e-05
-5.38197e-06
3.0522e-07
1.76954e-05
-1.4447e-05
-3.52716e-06
-4.79714e-07
-1.45472e-05
2.85411e-05
-1.35141e-05
3.03275e-05
-2.18441e-05
-1.18319e-05
2.65414e-05
-3.05699e-05
6.81138e-06
-2.75696e-06
-3.916e-06
-2.58898e-05
2.79171e-05
1.8655e-06
3.3622e-05
-2.21621e-06
-3.53534e-05
2.14915e-05
-2.35761e-05
5.6909e-06
-3.5723e-06
2.54681e-06
-1.34677e-05
-1.59771e-06
1.24991e-05
-3.39034e-06
3.49287e-06
-4.70679e-06
4.6e-06
-1.74473e-06
6.11528e-06
1.07073e-06
-5.31569e-06
-8.56146e-06
-2.15257e-05
-1.1811e-06
3.12013e-05
1.17529e-05
7.04586e-06
-2.94642e-05
1.06418e-05
-1.90229e-05
-8.15267e-08
6.56781e-06
1.25348e-05
-3.01202e-06
-2.0858e-05
2.01442e-05
-2.54e-05
2.77405e-05
1.02427e-05
-1.26591e-05
-3.40692e-05
3.86583e-05
-1.12793e-05
6.6588e-06
-4.41739e-06
-1.62546e-05
2.40604e-06
1.82611e-05
2.09939e-06
3.10273e-05
-3.69387e-05
3.83012e-06
1.64013e-05
-5.35085e-05
1.14824e-05
2.56715e-05
4.31162e-06
-3.30006e-05
1.83163e-05
1.03515e-05
1.03969e-06
1.76659e-05
-5.98389e-06
-1.27336e-05
-6.25452e-06
2.47105e-06
5.94679e-06
-2.18122e-06
-3.11763e-06
7.7096e-06
-2.94609e-05
2.48627e-05
-1.91897e-06
-1.54633e-05
6.22352e-07
1.67601e-05
-8.5022e-07
1.45082e-05
6.99131e-08
-1.3672e-05
6.99785e-07
3.97759e-07
1.41322e-05
-1.53865e-05
-7.97234e-06
-1.31719e-05
2.35689e-05
-2.44374e-06
3.31104e-06
-3.65631e-05
2.06342e-05
1.2563e-05
2.80989e-05
9.231e-07
2.00904e-06
-3.10165e-05
4.43445e-06
-4.99924e-06
5.51911e-07
1.02883e-05
2.22539e-05
-2.82416e-05
-1.56144e-05
2.47956e-07
4.22745e-07
1.48795e-05
1.75516e-06
-2.18386e-05
7.74186e-06
1.23362e-05
8.44357e-07
1.01865e-05
-9.60713e-06
-1.40081e-06
-7.01293e-06
-1.60338e-05
2.86051e-05
-5.59177e-06
3.22256e-05
-3.09168e-05
2.56975e-05
-2.70943e-05
1.63303e-05
-7.41451e-06
-2.72659e-05
1.83494e-05
-3.32652e-06
-2.85257e-06
6.16439e-06
1.45902e-05
4.48078e-06
-4.70267e-06
-1.43747e-05
-2.37827e-05
3.51214e-05
3.79683e-06
3.64049e-06
-7.46524e-06
-1.55005e-07
-2.85921e-05
1.42046e-07
2.85997e-05
-7.10293e-07
1.41578e-06
2.15347e-05
-3.03333e-07
2.20025e-05
-4.21887e-05
2.05138e-05
-7.98566e-06
-2.28969e-05
-3.21059e-06
3.4017e-05
6.40575e-06
-1.18994e-05
1.08753e-05
-5.35046e-06
-5.88697e-06
-3.02912e-05
-4.01351e-06
4.01603e-05
2.04285e-05
2.89559e-06
-2.33259e-05
-3.96132e-09
5.00089e-06
2.32425e-05
-3.89444e-05
1.07182e-05
-1.68803e-06
-1.58722e-05
-7.17825e-06
2.47397e-05
-2.52622e-05
-6.17937e-06
1.19213e-05
1.94474e-05
-2.06531e-06
-7.91583e-07
-1.64144e-05
1.92981e-05
2.96771e-05
-1.25888e-05
-7.0678e-06
-1.00327e-05
-1.86863e-05
4.64314e-05
-2.59696e-05
-1.77331e-06
1.4468e-05
2.44448e-07
8.63403e-07
-1.55237e-05
2.93659e-05
-3.4048e-05
3.43412e-05
-2.96376e-05
-5.85219e-06
1.80547e-05
-1.45839e-05
2.37275e-06
1.09014e-05
-4.04667e-05
1.53667e-06
2.80162e-05
7.92605e-06
3.5864e-05
-3.11577e-05
-1.26404e-05
8.59603e-06
-6.96681e-06
-1.31169e-05
1.14282e-05
-2.12535e-05
-1.27938e-05
3.84794e-05
-4.39736e-06
3.24438e-05
-2.53183e-05
-4.02123e-05
3.31184e-05
1.63923e-05
1.40547e-05
-8.82754e-06
-2.16745e-05
3.39499e-07
-1.37109e-05
3.65134e-07
4.59724e-06
-5.03541e-06
-4.97209e-06
4.93026e-06
6.3274e-08
2.5337e-05
-2.29315e-05
-2.30384e-05
2.06515e-05
-5.61077e-06
6.70627e-06
-2.0673e-05
1.96102e-05
2.95278e-05
-2.31142e-05
-4.8915e-06
-1.52142e-06
-6.6269e-06
1.43717e-06
4.86401e-06
-6.72274e-06
2.32157e-05
-6.34397e-06
-1.01576e-05
-4.84378e-05
1.04777e-06
1.6666e-05
3.0878e-05
1.09429e-05
-4.76981e-06
-1.09096e-05
4.7107e-06
6.18523e-06
3.0031e-05
-2.77132e-05
-8.5285e-06
-1.64638e-05
-3.0704e-06
3.16139e-05
-1.20897e-05
2.2604e-06
1.88085e-05
3.9603e-06
-2.50309e-05
6.67126e-06
2.10267e-05
-2.54328e-05
2.13135e-05
-1.69633e-05
-7.82795e-06
3.50526e-06
1.73216e-05
-2.20352e-05
9.71416e-06
-1.74582e-05
1.03484e-05
1.01254e-05
-3.01079e-06
7.38975e-06
9.72574e-06
1.77554e-05
-3.49004e-05
6.02815e-06
-2.92641e-05
-4.65869e-06
2.79584e-05
7.6195e-07
2.26666e-05
1.98902e-06
-2.54387e-05
9.60964e-06
1.91376e-05
-3.11641e-05
2.42393e-06
-5.0376e-05
4.06728e-05
-6.20803e-07
-5.57071e-07
3.48458e-05
-2.83328e-06
-3.14206e-05
-4.77409e-06
8.77411e-06
-1.2847e-05
8.79285e-06
-8.53007e-07
-5.64872e-06
5.2765e-07
5.93053e-06
-5.29415e-06
5.11091e-06
1.95945e-07
-5.06661e-06
-6.02898e-06
3.05685e-05
-1.94754e-05
-2.27214e-05
3.75114e-06
-1.05997e-05
2.95762e-05
3.97935e-05
-9.53947e-06
-1.27265e-05
-1.7581e-05
3.46163e-06
-3.06004e-05
1.0778e-05
1.63303e-05
4.65192e-06
-4.481e-06
-1.41207e-06
1.2982e-06
-6.14038e-06
5.45275e-06
6.60466e-07
1.90783e-06
2.97016e-05
-6.6704e-06
-2.49694e-05
-4.86385e-06
2.22416e-05
-2.97905e-05
1.23796e-05
9.66462e-06
1.51527e-05
-3.58773e-05
1.10527e-05
-1.73057e-06
2.40428e-05
1.64281e-05
-3.87342e-05
-4.10998e-05
2.11936e-05
2.44772e-05
-4.57199e-06
2.87099e-05
-2.93553e-05
5.49823e-06
-4.86854e-06
-3.10863e-05
-4.55732e-07
-9.57403e-06
4.15926e-07
7.32784e-06
-7.73589e-06
3.01967e-05
3.56455e-06
-2.32709e-05
-1.04123e-05
-1.30512e-06
-3.95229e-06
1.61491e-05
-1.08933e-05
2.6143e-06
5.35319e-07
1.06648e-05
-1.38315e-05
-2.88155e-05
1.2396e-05
1.41624e-05
2.2601e-06
1.59701e-05
-2.61409e-05
-2.81936e-06
1.3096e-05
-2.22507e-05
5.15585e-06
3.70107e-05
-1.99212e-05
-4.49486e-06
-7.16454e-07
5.28251e-06
-1.21643e-05
3.06829e-05
2.07837e-05
-3.93015e-05
2.5829e-05
8.31362e-07
-4.10916e-05
1.44226e-05
-1.28124e-06
2.55423e-05
-2.56578e-06
-2.16993e-05
2.14132e-05
-1.59447e-05
1.22227e-05
-1.78396e-05
-8.72421e-07
-1.99856e-05
2.22591e-05
-1.40724e-06
-1.58267e-05
-2.24979e-06
-1.17579e-05
2.99029e-05
-8.45373e-06
-7.62246e-06
-1.42062e-05
3.04207e-05
-1.02945e-06
2.64248e-05
-3.01732e-06
-2.23843e-05
2.56752e-05
-2.44878e-05
-2.45033e-07
-9.54819e-07
2.96169e-05
1.34465e-07
-2.03461e-05
-9.42198e-06
-7.37164e-06
-3.57385e-06
-2.36705e-05
3.46408e-05
3.5111e-08
-4.82274e-06
4.82751e-06
-2.4e-05
3.6663e-05
-2.74053e-06
-9.93298e-06
2.60792e-06
1.84274e-05
6.99025e-06
-2.79624e-05
-6.00094e-06
1.2426e-05
5.03662e-06
-1.13855e-05
-1.98912e-05
-5.4743e-06
2.07736e-05
4.50505e-06
1.65981e-05
1.16632e-05
-4.23118e-05
1.40472e-05
1.19412e-05
-8.74946e-06
3.09302e-05
-3.41569e-05
-2.74793e-06
2.36754e-05
2.51524e-06
-2.34656e-05
4.32267e-06
-3.96817e-06
-3.49238e-07
2.35356e-06
2.4713e-05
1.45625e-06
-2.85194e-05
2.8069e-05
-4.19195e-06
-2.7897e-05
3.98319e-06
-4.57963e-06
5.93482e-06
-2.60274e-05
2.46218e-05
-2.93667e-05
-4.05785e-06
2.30271e-05
1.03047e-05
1.42261e-05
-1.2806e-05
-5.30275e-07
-8.50877e-07
-3.84401e-05
2.43411e-05
-1.90695e-06
1.59909e-05
-6.54639e-06
5.43837e-06
1.09781e-06
1.10198e-05
-9.55172e-06
1.45711e-05
-1.60156e-05
1.96776e-05
1.6281e-05
-8.55099e-06
1.10839e-05
-3.09553e-05
-1.32476e-05
3.31492e-05
5.13373e-07
-2.0236e-05
2.07646e-05
-1.01492e-06
9.17386e-06
-1.51959e-05
-1.7526e-05
2.34855e-05
1.57201e-05
7.18753e-06
-2.00188e-06
-2.09233e-05
-6.07503e-06
1.45232e-06
8.10459e-06
-3.48391e-06
-2.65639e-06
4.03753e-05
-1.37721e-05
-2.41023e-05
1.12437e-05
1.3329e-05
-6.49225e-07
-2.39286e-05
7.53641e-07
4.8623e-06
-5.62862e-06
-1.14321e-06
4.45666e-06
2.66773e-05
-3.00135e-05
2.92187e-05
4.02046e-06
-1.39602e-05
-1.92889e-05
-1.48302e-06
8.7713e-06
-6.48284e-06
-7.79172e-07
1.80548e-05
-2.95397e-06
-1.81087e-05
2.94311e-06
-3.98843e-06
-1.71023e-05
9.09306e-06
1.19312e-05
-4.94829e-06
2.28389e-05
4.2178e-06
-2.20981e-05
2.18005e-05
-2.2586e-06
-2.46521e-05
5.10173e-06
-3.98934e-06
8.10794e-06
-4.12536e-06
3.55796e-06
-1.34855e-05
1.20349e-05
-2.09087e-06
1.06268e-06
1.30091e-05
-1.52093e-05
1.15188e-06
1.15854e-05
1.36735e-05
-2.20433e-06
-2.30433e-05
1.63773e-05
2.08491e-05
-1.54202e-05
-1.33136e-07
5.21448e-06
-5.06452e-06
-3.49654e-05
1.82783e-05
3.14756e-05
-1.47512e-05
3.51085e-05
5.47275e-06
-3.6378e-05
-4.19378e-06
2.0429e-05
-1.31788e-05
-2.31349e-05
8.11848e-06
1.45484e-05
-2.86608e-05
-1.47735e-06
-6.31441e-06
3.64439e-05
-1.31657e-06
6.11714e-06
-4.7606e-06
3.19522e-05
-1.31951e-06
-3.16271e-06
-2.74658e-05
6.37483e-06
-5.64795e-06
-7.5602e-07
-1.53804e-05
4.36335e-06
-1.01293e-05
2.11208e-05
-1.8528e-05
-1.55257e-05
1.44256e-05
1.96179e-05
2.56893e-05
-2.01562e-05
-5.43244e-06
-1.44188e-07
7.59357e-08
5.41955e-06
-5.44686e-06
-1.27109e-06
-6.50616e-06
-3.72394e-10
7.74229e-06
1.04206e-05
4.72464e-06
-6.99118e-06
-8.14195e-06
-1.64503e-05
1.73653e-05
-2.19627e-06
8.60669e-10
3.68443e-05
-7.61149e-07
-3.60896e-05
-8.74206e-06
-1.37385e-06
1.15908e-05
-1.43949e-06
4.91185e-06
-1.83546e-05
1.56926e-05
-2.23218e-06
1.09831e-05
-2.0568e-05
1.24989e-05
-2.91963e-06
6.68802e-06
1.53406e-05
2.2722e-06
-2.43553e-05
7.52876e-06
-8.1191e-06
6.00033e-07
1.52116e-05
-1.29002e-05
-3.66658e-05
3.44342e-05
-2.36841e-07
1.9697e-06
1.67591e-05
-1.8511e-05
3.44414e-06
1.4949e-05
-1.94572e-05
1.0654e-06
1.64141e-05
-9.87213e-07
-2.84529e-06
-1.25863e-05
8.05232e-06
1.67164e-05
-2.49707e-05
2.4554e-07
1.92295e-05
6.26611e-07
-2.1772e-06
-1.76875e-05
-2.57226e-05
9.33444e-06
1.54884e-06
1.48938e-05
-9.38969e-06
-8.85295e-06
-7.50548e-07
1.33114e-05
-2.14875e-05
1.53386e-05
-7.08915e-06
-3.37944e-06
-1.41242e-05
-2.10296e-05
3.85409e-05
-7.81243e-06
1.0086e-05
-2.89076e-06
6.16811e-07
1.66303e-07
3.94166e-06
-4.0908e-06
-6.10807e-06
3.39379e-05
1.17226e-05
-3.94904e-05
2.23241e-05
9.64372e-06
-8.66021e-06
-2.32286e-05
2.53492e-05
-2.29745e-05
2.65551e-05
-2.89536e-05
3.51393e-05
-3.87478e-05
4.32217e-06
-7.18439e-07
-4.28053e-05
1.86197e-05
7.62929e-06
1.65627e-05
-1.49877e-05
-2.76891e-06
1.62627e-05
1.48744e-06
2.76233e-05
-3.70015e-05
1.33634e-05
-3.98738e-06
1.47614e-05
-1.53832e-05
4.61944e-06
-4.00426e-06
-1.3104e-05
1.16096e-05
-7.94911e-06
-1.47699e-05
4.74517e-05
4.95879e-06
-3.77388e-05
-9.36592e-06
1.01839e-06
8.38204e-06
-4.65905e-06
1.0286e-05
-3.73968e-05
-2.4924e-05
3.98198e-07
-1.72409e-07
2.47284e-05
8.07962e-06
-4.57493e-07
-7.68563e-06
7.60075e-06
-2.39601e-07
-2.91845e-05
2.18016e-05
1.58609e-07
-1.12293e-06
1.42998e-05
-1.32893e-05
7.13764e-06
1.64386e-05
-2.78338e-05
4.23453e-06
1.96455e-05
7.84875e-07
1.73676e-06
-2.22514e-05
-3.20172e-06
6.06843e-06
3.8109e-05
-4.10099e-05
-1.15898e-05
-6.40653e-07
-8.92359e-07
1.30874e-05
-7.45751e-06
6.30214e-06
-2.4597e-05
2.57696e-05
-2.1e-06
3.01228e-05
-2.43691e-05
-3.68824e-06
2.90851e-05
9.13861e-06
-1.36959e-05
-2.45519e-05
7.06664e-06
-3.56732e-05
2.29916e-05
-2.94792e-05
3.7745e-05
-2.08088e-06
1.59021e-05
-6.29882e-06
1.27689e-05
-1.6242e-05
-4.52743e-06
8.51667e-06
1.2259e-05
-9.80051e-06
1.77539e-06
8.87091e-06
-8.24402e-07
-1.00154e-05
2.36554e-05
-1.63473e-05
2.73527e-06
-2.8964e-05
2.51833e-05
2.6061e-05
-2.22787e-05
-5.1178e-06
4.5639e-06
1.0767e-07
4.31917e-07
2.65135e-05
-4.00072e-05
-1.43624e-05
2.78974e-05
-3.7079e-05
-1.29268e-05
2.41621e-05
2.58481e-05
3.18037e-05
3.34391e-06
1.54135e-06
-3.66733e-05
2.65151e-05
-1.77246e-05
2.3018e-05
-4.10117e-05
-3.30743e-06
1.71751e-05
2.70911e-05
5.16963e-06
8.32481e-07
-6.02074e-06
3.0849e-05
-2.86117e-05
-9.28416e-06
7.05352e-06
-2.25898e-05
-7.99388e-06
6.94371e-06
2.36999e-05
1.37735e-05
2.22988e-05
-1.22774e-05
-2.37923e-05
8.06236e-06
2.59252e-05
-2.49294e-05
-9.10596e-06
7.71356e-07
-8.88609e-06
8.10055e-06
-1.33346e-05
-1.14777e-05
1.13489e-05
1.34019e-05
2.76931e-06
2.28433e-05
-6.67198e-06
-1.88981e-05
-3.51132e-05
3.55906e-05
-5.83687e-06
-2.23443e-06
2.88842e-05
-2.82522e-05
1.59504e-06
1.71622e-05
3.53462e-06
1.0964e-05
-3.16971e-05
-2.68485e-07
-3.42418e-06
3.66526e-06
-5.26933e-06
5.18945e-06
4.86477e-08
-1.83941e-05
-9.52779e-06
1.11921e-05
1.67177e-05
-2.47414e-05
-1.12195e-07
2.94554e-05
-4.67129e-06
-7.21617e-06
2.68549e-05
-2.77165e-05
8.07721e-06
-2.22461e-05
1.79144e-05
-7.70306e-06
1.20587e-05
1.65253e-06
2.33545e-05
-2.82269e-05
3.24611e-06
-3.21797e-05
7.76847e-06
2.00457e-05
4.37274e-06
1.24799e-06
3.70965e-05
-1.40032e-05
-2.43101e-05
3.27635e-06
-6.6134e-06
-1.71131e-05
-8.41497e-06
7.13567e-06
1.82738e-05
-1.20973e-06
5.16632e-06
-2.22335e-05
-2.24346e-06
-6.52299e-06
8.15972e-06
4.35936e-07
1.74027e-05
-5.95589e-06
-1.17473e-05
2.55239e-07
1.29392e-05
-4.19411e-05
3.97283e-05
-1.07608e-05
-1.62391e-05
2.84456e-05
4.12522e-06
-1.63569e-05
-2.76279e-06
4.03967e-06
2.65685e-05
-2.78188e-05
-3.84305e-05
2.85914e-06
-8.47563e-08
3.55721e-05
-2.41406e-05
3.67572e-06
1.89271e-05
1.5197e-06
-1.9865e-05
1.20657e-05
2.85477e-05
-2.0768e-05
-1.56392e-05
-2.87151e-05
9.02342e-06
3.52499e-05
3.52695e-06
-3.37445e-05
-3.7944e-06
3.39941e-05
-2.36706e-05
3.42838e-06
-1.62257e-06
2.18713e-05
-2.43953e-05
-1.29307e-06
-2.26249e-06
2.79316e-05
6.07926e-06
-2.83394e-06
2.69889e-05
-3.02576e-05
9.96433e-06
-6.14772e-06
-1.92554e-07
-3.64601e-06
4.39786e-06
-4.09786e-05
-5.95001e-06
4.25485e-05
-6.8277e-06
3.76105e-06
3.8263e-06
-7.3406e-07
-2.86051e-05
-7.38241e-06
1.58102e-05
2.01692e-05
-1.42153e-06
1.75244e-05
4.31054e-06
-2.04249e-05
-1.28591e-05
-1.32129e-05
1.04611e-05
-5.6285e-06
2.00929e-06
3.09098e-05
-2.73248e-05
2.65384e-05