/*--------------------------------*- C++ -*----------------------------------*\
| =========                 |                                                 |
| \\      /  F ield         | OpenFOAM: The Open Source CFD Toolbox           |
|  \\    /   O peration     | Version:  2406                                  |
|   \\  /    A nd           | Website:  www.openfoam.com                      |
|    \\/     M anipulation  |                                                 |
\*---------------------------------------------------------------------------*/
FoamFile
{
    version     2.0;
    format      ascii;
    arch        "LSB;label=32;scalar=64";
    class       volVectorField;
    location    "12";
    object      U;
}
// * * * * * * * * * * * * * * * * * * * * * * * * * * * * * * * * * * * * * //

dimensions      [0 1 -1 0 0 0 0];

internalField   nonuniform List<vector> 
59516
(
(0.108734 0.000427909 -0.00072367)
(0.0937407 0.000595301 -1.75106e-05)
(0.10553 -0.000853201 -0.000882472)
(0.110025 0.00168943 0.000406922)
(0.107057 0.000718329 -0.00369391)
(0.101192 -0.00515818 -0.0102851)
(0.120587 -0.000227337 -0.000377963)
(0.0991451 -0.000705893 0.00439554)
(0.105294 -0.00110276 0.00517943)
(0.0544896 -0.000727468 0.00277644)
(0.121447 0.000630414 0.000470489)
(0.0640813 0.000942632 -0.00445174)
(0.110912 0.00209414 -0.00326848)
(0.0261763 0.00106055 -0.000577401)
(0.0639733 0.00150499 0.00477167)
(0.0490014 0.00892764 -0.00231811)
(0.125859 -0.000655193 -5.09079e-05)
(0.0630971 0.00301892 -0.00336828)
(0.110536 0.00308538 -0.00148421)
(0.12574 -0.00173193 -0.000327836)
(0.0582452 0.000351895 -0.00161916)
(0.124801 0.000962999 0.000876662)
(0.125007 -0.000637178 -8.75105e-05)
(0.0363882 -0.00378686 0.00196424)
(0.129507 -0.000651211 0.000476316)
(0.0607897 0.00171926 0.00456447)
(0.0437053 -0.0011932 -0.00168798)
(0.046883 0.00537724 0.0020332)
(0.0679886 0.00127515 -0.00216657)
(0.0197423 -0.00476571 -0.000806837)
(0.103081 -0.0195818 -0.00483058)
(0.0480401 0.0048477 -0.000424638)
(0.114843 0.000123976 0.000711961)
(0.0993705 0.000278404 0.00348882)
(0.118293 -0.00150992 0.00153814)
(0.123367 -0.000361535 0.00128858)
(0.0158176 -0.00171722 -0.00684846)
(0.0631823 0.00432116 -0.00556416)
(0.0988433 -0.00312251 0.000451864)
(0.1247 -0.00284314 0.000933339)
(0.0964293 -0.00246611 -0.0010539)
(0.125016 0.00040642 -0.00177494)
(0.125043 0.00128796 0.000486189)
(0.0985582 -0.00297744 0.00185478)
(0.126877 0.000728676 0.00117616)
(0.0513077 -0.00520646 -0.0041632)
(0.118148 0.00122937 -0.00345962)
(0.126822 0.000943755 2.2862e-05)
(0.107056 -0.00803159 0.0128164)
(0.121016 0.000629532 0.00140408)
(0.102828 0.011776 -0.0165147)
(0.0398819 -0.00546031 0.00273747)
(0.108139 -0.000770528 -0.000623885)
(0.115031 -0.0001785 -0.00122299)
(0.0496848 0.00772934 0.00124384)
(0.119265 -0.000447626 -0.00107444)
(0.119713 0.00318893 0.00374478)
(0.0486077 0.00577127 -0.00645524)
(0.123741 -0.00294021 0.000883416)
(0.1168 0.00200521 0.00356832)
(0.119966 0.000231921 0.00044199)
(0.0174814 0.00542453 0.000667154)
(0.120249 -0.001507 -0.00050431)
(0.120944 -0.000532654 -0.000821807)
(0.116924 -0.000438642 -0.00160208)
(0.119443 -7.90383e-05 -0.000121992)
(0.0330096 -0.00315956 0.00390717)
(0.0415171 0.00239244 0.000611914)
(0.113344 -0.00334313 0.0205217)
(0.119055 0.000205594 2.25419e-05)
(0.0424061 0.00376834 -0.000584722)
(0.124067 0.000776382 7.40934e-05)
(0.0219121 0.00125192 -0.00738094)
(0.122239 -0.0021352 0.000168535)
(0.123356 -0.00135436 0.00034387)
(0.126059 0.000791056 2.82867e-05)
(0.125949 0.000155534 0.000643395)
(0.122694 0.00264059 -0.000772603)
(0.0450315 -0.00510176 0.00563861)
(0.119167 0.000727672 0.00185296)
(0.0363472 0.00756719 0.00450352)
(0.118686 8.11924e-05 0.000556608)
(0.1185 0.000442566 0.000457637)
(0.0229007 -0.00158832 0.00629694)
(0.1195 -0.000312783 0.000484492)
(0.124038 -0.00168657 -0.000234583)
(0.0322354 -0.00307326 2.71555e-06)
(0.124185 -0.0019352 0.00110955)
(0.0500476 0.00326333 0.00945706)
(0.100796 0.00890794 -0.00211431)
(0.115595 0.000446416 -0.00587417)
(0.114006 0.00264892 0.00152247)
(0.127139 -0.000923153 0.000470546)
(0.113675 -0.000735742 -0.00104609)
(0.118249 -0.00080768 0.000526119)
(0.106246 -0.00914658 0.00494229)
(0.121662 -0.00122045 0.00229246)
(0.0537514 -0.0050219 -0.00579615)
(0.067181 0.00336642 -0.000310233)
(0.12126 8.56137e-05 0.00075123)
(0.0318705 -0.00036216 0.00331519)
(0.0253049 0.000989786 -0.00365913)
(0.0253403 -0.000102144 0.00658439)
(0.056982 0.00107773 -0.00375015)
(0.113465 0.000945781 -0.000713655)
(0.115624 -0.000276948 0.00091432)
(0.045001 0.00777523 -0.00220234)
(0.102652 -4.27608e-05 0.00062498)
(0.0991864 -0.0015068 -0.00153002)
(0.0668118 0.00229195 -0.00507115)
(0.1128 0.00990169 -0.00867145)
(0.0287618 0.00728227 -0.00185794)
(0.0671078 0.00276694 -0.00336879)
(0.107446 0.0139442 -0.00661539)
(0.123543 -0.000386906 0.00117241)
(0.098112 0.00102957 -0.00137)
(0.0516952 8.30062e-05 -0.00485163)
(0.117025 0.0011304 0.00019086)
(0.0229896 -0.00386778 -0.000971649)
(0.118954 0.00141041 -0.000215978)
(0.126375 0.00194357 -9.47529e-05)
(0.124106 0.00147316 0.000968484)
(0.12615 0.00110038 -0.00115309)
(0.122671 0.000825336 0.000913741)
(0.120122 -0.00886487 0.00290388)
(0.087026 0.00115138 -0.00381002)
(0.0348043 -7.34796e-05 0.00402107)
(0.124647 -0.00444574 0.000986764)
(0.0855325 -0.00205483 0.011776)
(0.123697 0.000146601 0.00119773)
(0.124206 0.000686588 0.0024206)
(0.110368 0.00157233 0.000725289)
(0.0236036 0.00304246 -0.00272316)
(0.124748 0.000778168 0.000626931)
(0.100637 0.000566171 0.00050351)
(0.108168 -0.00110381 -0.000630828)
(0.0994022 0.00893737 -0.00711912)
(0.120931 0.000120792 0.00111822)
(0.0393357 0.00265827 0.0014967)
(0.101604 0.00102586 -0.00280748)
(0.042424 -0.000980064 -0.00332806)
(0.124255 0.00041263 0.000644386)
(0.0192883 -0.00067174 0.00204174)
(0.111494 0.000453916 -0.000514619)
(0.12131 0.000746361 0.000645789)
(0.121225 0.00130304 0.000309141)
(0.125752 0.000172994 -0.000139954)
(0.113689 0.00194273 -0.00359606)
(0.0610082 -0.0023097 0.00254087)
(0.106268 -0.000678479 0.000444)
(0.105919 -0.00200484 0.000846093)
(0.0349236 -0.000712609 1.3012e-05)
(0.127051 -0.000917055 0.0015885)
(0.121815 0.00136709 0.00135964)
(0.092248 -0.000302595 0.00118757)
(0.0211541 0.00066892 0.00308926)
(0.109035 0.00102683 0.000507521)
(0.11303 0.0013661 0.000737819)
(0.08794 0.00260666 0.00141903)
(0.0217348 0.00466411 -0.00423432)
(0.0698392 -0.00132526 -0.00334906)
(0.0734231 -0.00254217 -0.00479276)
(0.0388118 -0.00257896 -0.00148333)
(0.0299253 -0.000915608 -0.000846938)
(0.097512 -9.54106e-05 0.00295856)
(0.125817 -2.67722e-05 0.00156248)
(0.0552787 -0.00351663 -0.000547766)
(0.124581 0.000438015 0.00111575)
(0.0239529 -0.00321309 0.00300789)
(0.109971 0.000108923 -0.000781123)
(0.0888717 0.00308236 0.00101731)
(0.0560636 0.00124144 -0.0012819)
(0.067035 0.000637127 0.000139511)
(0.118103 8.98525e-06 -2.32345e-06)
(0.0514728 -0.00156711 -0.000116445)
(0.119996 0.00249015 -0.00236104)
(0.12239 -6.90527e-06 -0.000382394)
(0.127681 0.000207225 0.000551322)
(0.0674571 -0.00320279 0.00118842)
(0.0421096 0.00118817 -0.000894907)
(0.124041 0.00118992 0.00162212)
(0.0336359 -0.00581987 -0.000676251)
(0.0330316 -0.00422298 -0.00481222)
(0.0641957 -0.00259165 -0.00274238)
(0.124142 -8.98351e-05 0.00128647)
(0.0552397 -0.000556065 -9.56378e-05)
(0.0310227 -0.0009503 -0.00496146)
(0.0215448 -0.000590081 0.000743818)
(0.113779 0.000520319 0.00237702)
(0.100695 0.000526425 0.000447421)
(0.111417 -0.00034485 0.00159034)
(0.0498128 0.00463902 0.00137205)
(0.126645 -0.000816364 0.00132107)
(0.0601967 0.00437999 0.000690197)
(0.125924 -0.00203915 0.000516336)
(0.0269604 0.00134125 0.00290178)
(0.0555474 -0.000299179 -0.00198297)
(0.0392132 -0.00132544 -0.00143286)
(0.103002 0.00162503 0.00231145)
(0.124088 0.000143476 0.001172)
(0.0750652 -0.0036842 0.000258136)
(0.12331 0.00197949 -0.000607074)
(0.100819 -0.000234576 -0.000231009)
(0.0194132 0.00340253 -0.00322263)
(0.119659 -0.00205817 4.7385e-06)
(0.122918 0.00129781 0.000150445)
(0.124414 -0.000631671 0.00122334)
(0.114703 0.00265969 -2.96168e-06)
(0.0252255 0.000753954 5.64e-06)
(0.110082 7.4731e-06 -0.000510808)
(0.0460076 0.00677995 0.00310066)
(0.0256697 -0.00457246 0.000329658)
(0.12555 0.00100315 -0.00235815)
(0.0539894 -0.000541571 -0.000223471)
(0.112473 0.00123823 -0.000904482)
(0.12302 -0.00125294 0.00107282)
(0.12146 0.000152405 0.000294856)
(0.127391 -9.84152e-05 -0.00019245)
(0.0534904 0.00478859 -0.00188997)
(0.12848 0.000239229 0.000759754)
(0.0575116 0.00272295 0.00241073)
(0.101217 0.00031514 -0.00136288)
(0.121785 0.000264085 0.00120591)
(0.0421257 -0.00309924 0.00104953)
(0.120086 -0.00167698 0.000316575)
(0.122443 0.000957364 -0.00033004)
(0.0273878 -0.0013871 -0.00106686)
(0.049022 0.00497957 -0.00413787)
(0.120876 -0.00152958 0.0016512)
(0.0489778 0.00247171 -0.00552354)
(0.127967 -0.000996317 -0.000457273)
(0.122567 0.00108831 -0.000257481)
(0.120212 -0.000169338 0.000400366)
(0.0221583 -0.00418296 -0.00186566)
(0.0311548 0.00108581 -0.00467487)
(0.0369234 -0.000814624 -0.00193317)
(0.0640575 -0.000633759 0.00293633)
(0.0897595 -0.00230213 0.000192048)
(0.121554 -0.00147554 0.000714467)
(0.0550405 -0.00569435 0.00308643)
(0.122253 -0.000119605 0.00165085)
(0.021401 5.95046e-05 0.00611929)
(0.049049 0.000373173 0.00166194)
(0.02694 0.000975802 0.00297603)
(0.122618 0.00073874 0.000898475)
(0.0973662 1.30902e-05 -0.00105763)
(0.121527 -0.00128934 -0.000396933)
(0.0638713 -0.000402659 -0.00351898)
(0.128128 -0.000799526 0.00120926)
(0.102308 0.000705651 -0.00107761)
(0.126 -0.00177408 0.00101797)
(0.119693 0.000308994 0.000338011)
(0.121839 -0.000275369 0.00200336)
(0.11888 -0.00016925 -0.000460064)
(0.121831 0.000558401 -2.39378e-05)
(0.124076 -0.000187315 0.000509085)
(0.0519784 0.00246337 -0.00267239)
(0.121846 -0.00159722 0.00141252)
(0.0425231 -0.000718303 -0.00336659)
(0.0589412 0.000839374 0.00230815)
(0.116614 0.000269057 -0.000361792)
(0.123479 -0.000319879 0.000733265)
(0.113627 -1.94461e-05 0.0013706)
(0.124755 -0.00159272 0.000404391)
(0.0984019 -0.00204142 0.00226784)
(0.0509072 0.00382284 -0.00314129)
(0.125942 0.00124962 0.00149793)
(0.0897683 -0.00266741 0.00177832)
(0.0465746 0.000956999 0.00125441)
(0.0537825 -0.00160789 -0.00034573)
(0.0982978 0.00309555 -0.00344532)
(0.121794 -0.000564909 -0.000692178)
(0.0950202 -0.00177142 0.00119076)
(0.0927603 -0.000714399 0.00236385)
(0.124342 -0.00199484 0.0008811)
(0.0928279 -0.00174669 0.00366074)
(0.0222201 0.0049168 -0.00194044)
(0.126317 -0.000470242 0.000521887)
(0.0268111 0.00218543 -0.00370178)
(0.0388667 -0.00444344 0.00377096)
(0.118745 -0.00132781 0.000274055)
(0.118974 -0.00141202 0.000700487)
(0.0232887 0.00422909 0.00423985)
(0.11543 0.00143592 -0.00198068)
(0.117647 0.0024745 -0.000249201)
(0.122582 7.43491e-05 -0.00104648)
(0.122381 9.49812e-05 0.000132437)
(0.0264779 0.00406568 -0.000420667)
(0.119432 -0.00189855 0.00105037)
(0.118128 -0.00208209 -0.000573152)
(0.122021 -0.0010281 0.000700805)
(0.116483 -0.00234777 0.00106725)
(0.11333 0.000559184 0.00128203)
(0.0898666 -0.00069561 -0.000574181)
(0.127877 -0.000170592 -0.000254405)
(0.0253034 -0.000421784 -0.00393176)
(0.11923 -0.00136196 0.000200206)
(0.125847 -0.000799869 0.000955144)
(0.122847 -0.00181801 4.73781e-05)
(0.117601 -0.00122551 0.000786542)
(0.111574 0.000277334 -0.000794321)
(0.0539009 0.000391371 0.00398721)
(0.0217866 -0.0021344 0.000256722)
(0.0274403 -0.00071303 0.00183273)
(0.126883 -0.000811827 0.000281902)
(0.0215149 -0.00112783 0.00691115)
(0.0589474 -7.42247e-05 -0.00275829)
(0.0511027 0.00484241 0.00183232)
(0.125195 -0.000335255 -0.000292865)
(0.126762 4.48023e-05 -0.000587335)
(0.126816 -0.000412346 0.000236928)
(0.0581578 -0.000873935 -0.00298144)
(0.0931463 0.000630083 -0.00111405)
(0.0388881 -0.00514949 0.0023452)
(0.0582495 0.000961595 0.00296998)
(0.1175 -0.00178225 -0.000358043)
(0.0977976 0.00338274 -0.00242248)
(0.105857 0.014464 0.00431678)
(0.0866407 -6.65362e-05 0.0025347)
(0.0390594 -0.00134215 -0.00251413)
(0.0617736 -0.00254248 0.00180069)
(0.103927 -0.00043153 0.000714827)
(0.124369 -0.000646319 0.00103657)
(0.126073 0.0026714 0.00105383)
(0.125591 0.000838272 0.00121087)
(0.125598 -0.00169226 0.00118672)
(0.093574 -0.00235447 0.003672)
(0.110706 0.00194912 -0.000377863)
(0.119001 0.00121858 -0.000354826)
(0.125587 0.00155028 0.00122538)
(0.124565 -0.000127366 4.45392e-08)
(0.0607218 0.000887585 -0.00297387)
(0.0237267 -0.00198023 -0.0015831)
(0.123222 0.000867316 0.000993084)
(0.0374397 -0.00196746 0.00274975)
(0.0330798 0.000499618 -0.00118522)
(0.121409 -0.00100199 0.0012167)
(0.120643 0.000153378 0.00111675)
(0.060701 -0.00165215 -0.00294015)
(0.124341 0.00014089 0.00107292)
(0.12552 -0.00143025 4.71681e-05)
(0.122492 0.000507229 -0.00109834)
(0.124927 0.00129728 -5.32159e-05)
(0.0278001 0.00362907 0.00245089)
(0.125755 0.000366449 0.000408543)
(0.122213 0.000188237 0.000106565)
(0.0518258 -0.00046709 0.00083142)
(0.122606 -0.000845863 0.000589419)
(0.12337 0.00100864 0.000373083)
(0.118099 0.000748178 -0.00258184)
(0.111916 -0.000364246 -0.000407149)
(0.120672 -0.0007213 -0.00106831)
(0.120542 -0.00263341 2.10856e-05)
(0.0724618 -0.00269526 0.00150414)
(0.0329545 -4.21084e-05 -0.000308562)
(0.0299041 -0.00570348 0.00316683)
(0.092023 -0.00100621 0.00164253)
(0.0759165 -0.00274497 0.00822534)
(0.0686872 -0.00236674 -0.00300623)
(0.0825702 -0.00167252 -0.000109225)
(0.106877 0.00173464 0.000751968)
(0.12184 -0.00115117 0.000373783)
(0.12014 0.000405446 0.00102942)
(0.12905 0.00230551 -0.000225237)
(0.118533 -0.000123688 -0.000574814)
(0.122094 0.000208018 0.000113769)
(0.121279 0.000964559 -0.000424438)
(0.035853 -0.00348549 -0.000379299)
(0.108266 -0.0202431 0.00367189)
(0.0626216 0.00334258 0.00202735)
(0.0384349 -0.00412373 -0.00202202)
(0.0387733 0.00647167 -0.00029249)
(0.125687 0.000919483 0.00165486)
(0.094276 -0.00108354 -0.00230802)
(0.125715 0.000893083 -0.000179099)
(0.0223019 0.00222158 -0.00241925)
(0.116899 -0.00082763 -0.000992814)
(0.0508567 0.00281613 -0.00279946)
(0.124854 -0.00100063 -0.000183908)
(0.0496193 -0.00342121 -0.000418472)
(0.0659431 -0.000323127 0.00030839)
(0.104452 -0.000363636 0.000976446)
(0.121384 0.000938459 -3.29676e-05)
(0.0223697 0.00283257 -0.00263334)
(0.0549609 -0.00200855 0.00327489)
(0.116829 0.000254231 -0.000205648)
(0.0235657 -0.00184056 -0.0028715)
(0.114056 -0.000264101 0.00293156)
(0.108805 -0.00134134 0.00117119)
(0.117238 0.00121539 -0.000203293)
(0.094425 0.00295755 -0.000375701)
(0.0867391 -0.0007768 0.00124738)
(0.130663 0.000584185 -0.000656504)
(0.0698995 -0.00693727 -0.00738451)
(0.123593 0.00210311 0.000437536)
(0.0982723 0.0065052 0.00691464)
(0.0602919 0.000699946 -0.000737648)
(0.0637253 -0.00157608 -0.00414801)
(0.124047 6.83643e-05 0.000288591)
(0.127994 0.00137986 0.000465883)
(0.0539678 -0.000958503 -0.00220598)
(0.121122 0.00206311 0.000599645)
(0.0976438 -0.00165217 -0.00219175)
(0.124681 -0.000967862 -0.00013847)
(0.124147 -0.00124988 1.97133e-05)
(0.0393795 0.00237505 -0.00390259)
(0.115617 5.41257e-05 0.000185905)
(0.124735 -0.00191769 -0.000334842)
(0.124781 8.1549e-05 0.000421596)
(0.127826 -0.000214203 -0.000397697)
(0.0186812 -0.00108474 -0.00720614)
(0.0208561 0.00337744 -0.00403524)
(0.111523 -0.000241772 -0.00076595)
(0.123832 0.00064701 0.000645867)
(0.124278 -2.83628e-05 -0.000994599)
(0.0372622 -0.000211609 -0.00332118)
(0.121498 0.000481778 -0.000746657)
(0.104024 -0.00200436 0.00190012)
(0.118286 0.00132435 0.000372317)
(0.127079 0.00109043 -0.000957726)
(0.123933 -0.000219234 -0.00122838)
(0.126268 0.00117092 0.0013471)
(0.126364 0.00102347 0.0010847)
(0.0915677 0.000349549 -0.000584748)
(0.121914 0.000861811 0.00033688)
(0.0580823 -0.000105741 -0.00504965)
(0.12479 -0.00211977 -0.000663026)
(0.103859 0.00326059 -0.000949073)
(0.119882 0.00101701 -0.000328396)
(0.122432 -0.000432236 0.000488257)
(0.123994 0.000704183 -0.00191707)
(0.12036 0.000889084 0.00063918)
(0.04077 0.00384004 0.00250723)
(0.029391 0.00157766 0.00161677)
(0.0238694 0.00455255 -0.00249225)
(0.119283 0.000571611 0.00167681)
(0.125904 -6.30629e-05 -6.96307e-06)
(0.118234 -0.000196584 0.000870132)
(0.115026 0.00322755 -0.000103266)
(0.0288778 0.00274161 0.00192841)
(0.0250922 0.00338872 0.00382856)
(0.108172 -0.000828354 0.00356987)
(0.122153 0.0018372 0.00118027)
(0.12421 0.00162724 0.000742324)
(0.127697 0.00177453 -5.71487e-05)
(0.124946 2.8125e-06 -0.000625873)
(0.122553 0.00206589 0.000663269)
(0.121563 0.000420981 0.000324249)
(0.0280236 0.000789161 0.00299892)
(0.113248 -0.000966889 0.000248346)
(0.0563436 0.000515132 0.0030282)
(0.064232 -0.00566903 0.0011552)
(0.121242 -0.000889665 -0.00115753)
(0.0942008 -0.00350403 0.00448354)
(0.123709 0.00137484 -0.000102822)
(0.0214647 -0.00657683 -0.00331592)
(0.129779 0.00290542 -0.000208189)
(0.126688 -9.90651e-06 -0.000529052)
(0.121337 0.000812981 0.000552052)
(0.0887346 0.00159595 0.000387752)
(0.119539 -0.000339809 0.000555069)
(0.119381 0.0015429 0.000340846)
(0.106127 -0.00110118 -0.000339224)
(0.121185 -0.000106041 0.000142011)
(0.0969079 0.00473643 -0.00291632)
(0.125541 -0.00173353 -0.000442224)
(0.122305 -0.00146982 -0.000777778)
(0.0205528 0.0012273 0.000387606)
(0.124845 0.000559446 -0.00143382)
(0.103777 0.00159421 -9.15173e-06)
(0.0423475 -0.000558335 0.00672269)
(0.095002 0.000531759 0.000707641)
(0.122259 0.000537478 -0.000505872)
(0.114717 -0.000235868 -0.000305081)
(0.0849622 0.00117459 -0.00190026)
(0.0197779 -0.00339631 -0.00376162)
(0.124661 0.0003479 -0.000449659)
(0.110496 0.00312152 -0.00088187)
(0.12593 0.000617387 -0.000507674)
(0.113103 0.000510342 -2.28521e-05)
(0.0324981 0.00310843 0.00534342)
(0.116261 2.85066e-05 -0.000310109)
(0.027752 0.00414639 -0.0027006)
(0.123468 0.000767266 -9.04378e-05)
(0.10199 0.0121531 -0.00304176)
(0.124328 0.00124985 0.000408063)
(0.0548895 -0.000662813 0.00133633)
(0.101388 0.00100585 -0.0019311)
(0.0946634 0.00213333 -0.000600639)
(0.0345164 0.00323179 0.00343578)
(0.117979 0.00181159 0.000473577)
(0.117039 0.0020351 0.000435206)
(0.0236909 -0.00106896 0.000723351)
(0.120786 -0.00121145 -0.000453721)
(0.117718 -0.00252681 -0.000255547)
(0.0377112 0.000716777 -0.00335065)
(0.0610911 0.00387676 -5.79223e-05)
(0.0451062 0.0023379 0.00531091)
(0.121138 0.00134608 0.000329076)
(0.121197 -0.0021947 -0.000125963)
(0.0355996 -0.00141121 0.00145698)
(0.0521752 -0.00440914 -0.00439264)
(0.0546719 -0.00152584 -0.000453663)
(0.106735 7.26136e-05 -0.00131499)
(0.120379 -0.00237426 0.00013131)
(0.0226335 0.00255237 -0.00511344)
(0.125929 -0.00112391 0.000543725)
(0.124696 0.000338697 0.0005474)
(0.119462 0.00149748 0.000288478)
(0.0900242 0.00391624 -0.00380658)
(0.128665 -0.000363394 -0.000731615)
(0.0196965 -0.000677215 -0.00363)
(0.126324 -0.0018955 -0.000215254)
(0.0294802 -0.000465188 -0.000645979)
(0.0619906 -0.00598966 -0.00184992)
(0.121978 0.000514215 0.000880959)
(0.0569912 -0.00124998 -0.00109516)
(0.0213401 0.00359083 0.00173763)
(0.0386501 0.00275359 0.000343385)
(0.0448665 -0.00254174 -0.00229157)
(0.0603598 0.00297705 -0.00274846)
(0.125073 -0.00109808 0.00130302)
(0.0499437 -0.00148711 -0.00255245)
(0.05695 0.00406608 -0.00135735)
(0.115051 -0.00262005 -0.00887963)
(0.117905 0.00174585 0.000556642)
(0.0220696 0.00524853 -0.00044295)
(0.100206 -1.80411e-05 -0.00135187)
(0.0717748 0.00744145 -0.000594616)
(0.126744 4.40254e-05 0.000340197)
(0.0628952 0.000208789 -0.00139643)
(0.117805 0.0020074 0.000342801)
(0.0594689 -0.00436897 0.000690358)
(0.109072 0.00162263 0.000428306)
(0.119461 0.00172238 -0.00121573)
(0.0494464 0.00441443 -0.00596153)
(0.124459 0.00150511 -0.000145274)
(0.0475875 0.00116505 0.00264485)
(0.021068 0.00487435 0.000669074)
(0.118632 -0.00158157 0.00146181)
(0.119876 0.00201586 -0.0012993)
(0.114881 0.000944826 -0.00135244)
(0.114752 0.00293212 0.000650185)
(0.122269 -0.000541089 0.000404663)
(0.0599302 0.000242633 -0.001157)
(0.126132 -0.000472878 0.000565008)
(0.058819 -0.00115264 0.00336175)
(0.119266 0.00191882 -0.000483014)
(0.109596 0.000215566 0.000612541)
(0.025106 0.00181417 -0.00612204)
(0.128224 0.00042734 -0.000769777)
(0.0513001 0.00433425 0.000476821)
(0.0276222 -0.00408226 -0.00250375)
(0.128301 -0.000257398 0.00060349)
(0.0392895 -0.00159728 0.00302353)
(0.11535 0.000810779 0.00175558)
(0.118657 2.90709e-05 0.000509456)
(0.11298 0.000157691 0.00082666)
(0.0520164 -0.0062858 -0.000324955)
(0.127355 0.000358511 -0.000305655)
(0.09019 0.00109514 -0.0005413)
(0.127025 -0.000595938 0.000886651)
(0.126717 0.00126332 0.000261672)
(0.127701 0.000301731 -0.000452604)
(0.120466 0.00115011 -0.000633908)
(0.0422387 -0.0014815 -0.00571488)
(0.049003 -0.00194245 -0.00191906)
(0.126003 0.00154034 -0.000360158)
(0.124329 0.00102326 -0.000544145)
(0.0314635 -0.00502173 -0.000715368)
(0.122482 0.00167184 -0.00213859)
(0.129448 -0.000953439 0.00223401)
(0.126504 -0.000203294 -0.000422563)
(0.124995 -0.000421356 0.000277156)
(0.110272 -0.00154678 -0.000871368)
(0.0225565 0.00271281 0.000887199)
(0.12913 -0.000340366 0.00165925)
(0.0953913 0.000789142 -0.00257733)
(0.117227 -0.00118407 0.00130433)
(0.0906493 -2.85915e-05 -0.0002355)
(0.0268665 0.000817442 0.00247538)
(0.117754 0.00231314 -0.000404023)
(0.0904397 0.00298152 0.00125309)
(0.123631 -0.00178164 -0.00108659)
(0.122474 -0.000951713 -0.00062023)
(0.119492 0.0011025 -0.000277538)
(0.0178417 0.00247812 -0.00280968)
(0.023837 -0.00211809 -0.00242188)
(0.117755 -0.00242662 -3.86995e-05)
(0.115823 0.000800716 0.000793786)
(0.124488 0.00115651 0.000396505)
(0.114609 0.00242213 -0.00126454)
(0.0864441 -0.000347398 0.00208191)
(0.12192 -0.00207015 0.00019135)
(0.122485 -0.000442359 -0.00109816)
(0.0194533 0.00299136 8.67405e-05)
(0.117776 -0.00194151 -4.58685e-05)
(0.122428 -0.00601315 0.00153691)
(0.0366271 -0.00302902 0.00247259)
(0.0502564 -0.00433574 0.000876853)
(0.125404 -0.000131696 -0.00126466)
(0.123336 -0.00106969 -0.000810832)
(0.117034 0.00031242 -4.86822e-05)
(0.114992 0.000944098 0.000630688)
(0.102276 -0.00380799 -5.89465e-05)
(0.125166 0.000651281 -0.00015262)
(0.0894844 0.00227925 -0.000114221)
(0.130768 0.000618489 -0.000346664)
(0.119079 -0.00180891 -0.000560245)
(0.123054 -0.00177799 0.000673722)
(0.121791 -0.000513458 -0.000363218)
(0.0398759 3.47165e-05 0.000973181)
(0.123776 -0.00105057 -0.00023788)
(0.0313117 -0.00101785 -0.0043694)
(0.0891223 -0.00790284 0.00410153)
(0.0595628 -0.000455199 0.00246637)
(0.113453 -0.000422434 -0.00756243)
(0.118757 -0.00208318 0.000640296)
(0.108285 -0.0157955 -0.00375439)
(0.121934 0.000622152 0.00085835)
(0.128419 0.000261126 0.00109471)
(0.124204 0.000847079 0.0011107)
(0.119313 0.000635456 0.00107507)
(0.0334599 0.00041179 -0.0024233)
(0.100912 -0.00437063 -0.00344182)
(0.108293 0.000134255 -0.0171125)
(0.120817 -0.000416697 0.00111443)
(0.107071 -0.00303485 -0.00081222)
(0.122514 -0.00480587 -0.000350413)
(0.121566 0.000111469 0.00125208)
(0.103919 -0.000698957 0.0010753)
(0.0320133 -0.0015469 0.00368958)
(0.0526053 -0.00210724 0.00391166)
(0.0175874 0.00299936 -0.00329101)
(0.0272045 0.00153111 -0.000977707)
(0.033658 0.000324012 0.000739204)
(0.122228 -0.00102706 0.0020154)
(0.119546 0.00170801 -0.000328049)
(0.0258139 -0.00252106 0.00377662)
(0.0248815 0.0034261 0.00315348)
(0.123802 0.00136111 -0.000449445)
(0.0891003 -0.0107956 0.00703247)
(0.0358925 0.0046231 0.00219484)
(0.123102 -7.15392e-05 -0.000685218)
(0.0993151 -0.000339013 -0.00228441)
(0.117135 -0.000501004 0.000364681)
(0.0411066 0.00422647 -0.00420028)
(0.0498466 0.000234743 0.000262565)
(0.106166 -0.000244781 0.00041826)
(0.123322 -0.000109331 0.00106411)
(0.122258 0.000358893 0.000279969)
(0.0381261 0.00341205 -0.00435073)
(0.0197984 -0.0039743 0.00081506)
(0.105139 -0.0156716 -0.00971954)
(0.0248103 -0.00691431 -0.00077684)
(0.118024 -0.000751317 -0.00257165)
(0.0252108 0.00491197 -0.00736718)
(0.107867 -0.000930298 0.00296282)
(0.122512 0.000329561 -0.000581863)
(0.129126 -0.00135155 0.000224644)
(0.0434725 0.00177381 -0.00634023)
(0.0952038 -0.000450654 -0.00152573)
(0.0334415 0.00226145 -0.00114254)
(0.0252543 0.00377092 -0.00117566)
(0.122665 -0.000602089 -0.000768285)
(0.0207669 -0.00328839 -0.00443366)
(0.121562 -0.00220208 0.000910971)
(0.0442687 -0.0035754 -0.00390115)
(0.122306 -0.00136623 -0.000112622)
(0.1196 -0.000797676 0.000688448)
(0.0200432 -0.00121252 0.00541766)
(0.0573104 -0.00386316 0.00223855)
(0.118717 -0.000680753 0.000607443)
(0.0313754 -0.00321498 -0.00262966)
(0.118736 0.000143416 -0.000326615)
(0.0518365 -0.00493203 0.0058319)
(0.104593 0.0012922 0.00129747)
(0.123398 0.000603842 -0.00102769)
(0.0351515 0.00301728 0.00319518)
(0.0220937 0.00332111 -0.00599168)
(0.0504546 -0.00197348 0.00113422)
(0.107798 0.0189408 0.00360831)
(0.102546 -0.000272211 -0.00306019)
(0.055074 -0.00307591 0.00305334)
(0.0816446 0.000663395 0.00191092)
(0.0283517 -0.00250922 0.000184925)
(0.122908 0.000681392 -0.00122065)
(0.0161495 0.000162643 -0.00053273)
(0.126519 -0.00190438 -2.18739e-06)
(0.12087 -0.00069959 -0.00106369)
(0.124045 0.000109262 -0.000347089)
(0.0188303 0.002383 0.00123472)
(0.125161 -0.000484683 -0.000349184)
(0.0862897 0.000378017 -0.00101786)
(0.125925 0.00050975 0.000721605)
(0.0529192 0.000423888 -0.000215044)
(0.105784 -0.0143844 0.00684754)
(0.126986 -0.00103088 -5.69014e-05)
(0.0347076 0.0060406 -0.00325943)
(0.122284 -0.000829722 -0.000875324)
(0.108421 0.00199518 -0.02216)
(0.107346 5.54127e-05 0.000267012)
(0.0312349 -9.55396e-05 -0.00369996)
(0.0519174 0.000275896 -0.00275248)
(0.123834 -4.4699e-05 0.000731206)
(0.117095 0.00126779 -0.000212283)
(0.030695 0.000136516 -0.000136988)
(0.101008 3.72554e-06 0.000340767)
(0.0590409 -0.0035598 -0.00519824)
(0.0256724 -0.00401626 0.00266404)
(0.124794 -0.000321606 0.000165939)
(0.102282 -0.00186492 0.0128752)
(0.117978 0.00222229 -0.00231008)
(0.124419 -0.000336281 0.000458882)
(0.125042 2.16628e-05 0.000590012)
(0.120489 0.000667035 -0.000283325)
(0.116792 0.00143072 0.00283781)
(0.042075 0.00344562 -0.00019098)
(0.0328394 -0.00113151 -0.00374072)
(0.128553 0.00194553 -0.000612197)
(0.105315 -0.00928941 0.0110592)
(0.110439 -0.000748357 0.000444295)
(0.115577 -0.00145453 -0.000214508)
(0.0769879 0.00130578 -0.000434802)
(0.123266 -0.000150203 0.000150952)
(0.124211 0.0020557 0.000178747)
(0.0910952 0.000368792 -0.00425249)
(0.0985205 0.00354027 -0.00092177)
(0.0418554 0.00179757 -0.00478335)
(0.0677555 0.00344923 -0.00221112)
(0.0392228 -0.00785086 -0.0120559)
(0.123348 0.000656831 0.000212279)
(0.123338 -0.000832846 0.0018349)
(0.088958 0.00122999 -0.00175991)
(0.0961271 0.00198039 6.12046e-05)
(0.0188276 0.00288317 -0.00260631)
(0.0784736 0.00217106 0.000557298)
(0.0586189 -0.00473118 -0.0039919)
(0.12359 0.000419131 -0.000387038)
(0.124184 -7.98396e-05 -0.00159059)
(0.103677 -0.0110569 0.00742818)
(0.123284 0.000705016 0.00154445)
(0.0796779 -0.00195935 -0.000654098)
(0.10143 -0.00253205 0.00869869)
(0.115074 0.000793758 0.00187078)
(0.0263467 -0.00103364 -0.00113943)
(0.123562 0.000959149 -0.00160902)
(0.0429978 0.0028963 0.000691937)
(0.117693 -0.000271485 0.000337315)
(0.0275259 0.00562905 0.000208751)
(0.1259 0.00241987 0.00069849)
(0.100983 -0.0056408 0.00383937)
(0.123578 -0.000626076 0.000665387)
(0.109765 0.00244858 0.000256037)
(0.117719 -0.000864359 1.82817e-05)
(0.122989 0.00071863 -0.000663588)
(0.121855 -0.00187104 -0.000847024)
(0.0277337 -0.00122749 0.00113027)
(0.0485189 0.000803817 0.000495274)
(0.027724 -0.00205196 -0.00152939)
(0.122786 0.000121465 0.000280974)
(0.120162 -0.000632034 -0.000622407)
(0.115048 0.000464117 -0.00081932)
(0.126878 -0.000743486 0.00203034)
(0.0251928 0.00103413 -0.00115567)
(0.0961843 0.000733535 -0.0006655)
(0.0852822 0.000761961 -0.000758603)
(0.124717 -0.000672349 0.000177435)
(0.113717 -9.78083e-05 -0.000262907)
(0.117056 -0.000513255 0.000843093)
(0.100721 6.87014e-05 0.00242234)
(0.124397 7.20578e-05 0.000203301)
(0.0203972 -0.00410053 -0.00411109)
(0.0846408 -0.00203431 0.000481401)
(0.118976 0.000118848 0.00072912)
(0.0264046 -0.00296907 0.000952929)
(0.0392996 -0.0034493 -0.000824514)
(0.0580586 -0.000770561 0.00160698)
(0.0229188 0.00391464 -0.00199308)
(0.0894251 0.00150598 -0.000864657)
(0.122038 0.00147313 -0.000949081)
(0.0622653 -0.000557787 -0.00240967)
(0.0208653 -0.00355913 -0.00351885)
(0.103194 0.000309476 -6.44677e-05)
(0.0238826 0.00135995 0.000940811)
(0.0909279 0.0016581 -0.000697762)
(0.122453 0.000207434 -0.000372455)
(0.122189 4.61625e-06 0.000502934)
(0.122791 0.000974601 -0.000673353)
(0.123694 0.00271848 0.000546666)
(0.122435 8.33018e-06 -0.00068692)
(0.122555 -0.000790508 0.001486)
(0.0500711 0.000560148 -0.00298412)
(0.119941 0.000644604 -0.000771453)
(0.114866 -0.000957674 0.000965513)
(0.0837078 0.000779111 -0.00146304)
(0.0886922 -0.000775056 0.00236115)
(0.121288 2.62117e-05 -0.000660428)
(0.107997 -0.000410726 0.0002072)
(0.0675938 -0.00265967 0.00301502)
(0.123161 -0.00197096 0.000564281)
(0.0289877 0.001217 0.00211178)
(0.0865247 -0.000601813 0.00227429)
(0.0933848 0.00085575 -0.00128035)
(0.0577752 0.00117955 0.00294798)
(0.123426 0.000438538 -0.000404907)
(0.0998525 -0.0104631 0.0133002)
(0.115377 0.00334686 0.00264917)
(0.0312348 0.000490531 -0.00301663)
(0.0270049 0.00185926 0.000910764)
(0.0549999 0.00380238 -0.00154864)
(0.0197245 -0.00377029 -0.00159378)
(0.116151 0.00205587 -0.000693041)
(0.117353 0.00189575 -1.95949e-05)
(0.115605 9.35109e-05 0.000539128)
(0.102056 0.00868445 -0.00861146)
(0.112179 0.00115397 3.06554e-05)
(0.116851 0.00230328 -0.000106202)
(0.0230535 0.000614961 0.00961535)
(0.117286 0.00272963 -0.000132696)
(0.111869 -0.000359538 0.00758737)
(0.0375906 0.00209785 -0.00190658)
(0.0225896 -0.0074596 0.000837524)
(0.106841 -0.00111008 0.00154815)
(0.103082 -0.000123393 -8.4355e-05)
(0.0255911 -0.00366904 0.00299914)
(0.126324 -0.00154568 0.000621868)
(0.0242494 -0.0070173 0.00328841)
(0.121922 -0.000239272 -0.000689886)
(0.123231 0.000397306 0.00134553)
(0.107957 -0.00205451 0.00263226)
(0.123057 0.00139504 0.000174014)