/*--------------------------------*- C++ -*----------------------------------*\
| =========                 |                                                 |
| \\      /  F ield         | OpenFOAM: The Open Source CFD Toolbox           |
|  \\    /   O peration     | Version:  2406                                  |
|   \\  /    A nd           | Website:  www.openfoam.com                      |
|    \\/     M anipulation  |                                                 |
\*---------------------------------------------------------------------------*/
FoamFile
{
    version     2.0;
    format      ascii;
    arch        "LSB;label=32;scalar=64";
    class       volScalarField;
    location    "2";
    object      epsilon;
}
// * * * * * * * * * * * * * * * * * * * * * * * * * * * * * * * * * * * * * //

dimensions      [0 2 -3 0 0 0 0];

internalField   nonuniform List<scalar> 
59516
(
0.0124116
0.01391
0.0108357
0.010381
0.00982818
0.0853693
0.0106138
0.0132097
0.0113571
0.0349715
0.00990728
0.0300368
0.0117311
0.131116
0.0269385
0.0336907
0.00981652
0.0319601
0.0120018
0.00979214
0.0441779
0.00992597
0.00985439
0.0554946
0.00993054
0.024989
0.0584565
0.0491725
0.0262316
0.121485
0.0168532
0.0493109
0.0102487
0.0111957
0.0100773
0.0101171
0.120715
0.0311176
0.0164837
0.00999257
0.0133575
0.00988538
0.0100771
0.0124269
0.0101019
0.0364095
0.0105163
0.00988221
0.0100751
0.00988667
0.0138302
0.0458635
0.0110152
0.0107108
0.0440191
0.0108326
0.00988723
0.0416181
0.00985992
0.010142
0.00998935
0.0966602
0.00990162
0.00981668
0.0113721
0.00993592
0.0918182
0.0502226
0.0106006
0.0100961
0.0636492
0.0098636
0.0927258
0.0102688
0.00990033
0.00986426
0.00993218
0.00999489
0.0473711
0.00997388
0.0514403
0.00995231
0.0101313
0.10298
0.00998181
0.0098408
0.0593143
0.00991353
0.0318639
0.0147918
0.00982938
0.0101403
0.00981691
0.0100314
0.00988044
0.00992273
0.00999294
0.0325335
0.0305282
0.00998551
0.0497296
0.0904254
0.0930838
0.0332987
0.0103525
0.0100505
0.0499751
0.0112536
0.0126471
0.0265198
0.010419
0.0647555
0.0271917
0.0126149
0.00994
0.0133102
0.0303187
0.0102296
0.0935044
0.0100331
0.00985315
0.00995422
0.00997611
0.00987074
0.0100407
0.0164775
0.0785653
0.0101653
0.0419213
0.00987354
0.00992755
0.0120889
0.0958846
0.00997623
0.0145489
0.0109609
0.0159999
0.0104862
0.051094
0.0145259
0.0442335
0.00986179
0.120577
0.0103662
0.00984279
0.0100981
0.010119
0.0113866
0.0949439
0.012331
0.0153765
0.053476
0.00983158
0.00995783
0.0154312
0.124475
0.0111206
0.0112117
0.0174473
0.114744
0.0236993
0.0230728
0.0572586
0.109198
0.01346
0.00987205
0.0285785
0.00984378
0.109939
0.0102183
0.0166628
0.0366759
0.023356
0.0100902
0.0468892
0.0104076
0.00986328
0.0100203
0.0253873
0.0568034
0.00997591
0.0704752
0.0914192
0.0292386
0.00983765
0.030575
0.0637467
0.10809
0.0106511
0.0145136
0.0103532
0.0354325
0.00993176
0.0315924
0.00987456
0.0718183
0.0352483
0.0559975
0.0120941
0.00991666
0.0173781
0.00988043
0.0141225
0.116359
0.0106134
0.0101083
0.00978962
0.00996429
0.108316
0.0116989
0.0364425
0.0945875
0.00999807
0.0327706
0.0112875
0.00984329
0.0101475
0.00991054
0.0332597
0.00989231
0.0318428
0.0135876
0.0099325
0.0465032
0.00987986
0.00983168
0.0733676
0.0492301
0.0098554
0.0329074
0.00983599
0.00989782
0.00986763
0.0871972
0.0642314
0.0616287
0.0309634
0.0126283
0.00982921
0.0331976
0.0098851
0.101301
0.0334555
0.0878672
0.00986575
0.0156394
0.0100384
0.0265391
0.00986623
0.0120476
0.00990767
0.0100641
0.00990324
0.00996565
0.0100906
0.00990656
0.0399244
0.00986017
0.0459373
0.0285518
0.0103459
0.00991422
0.0119914
0.00982657
0.012353
0.0338673
0.00991871
0.0160491
0.0409862
0.0380456
0.0143979
0.00990362
0.0152604
0.0150649
0.00988631
0.0156949
0.103606
0.00984698
0.0806457
0.0528309
0.00983176
0.010138
0.0856432
0.0110367
0.0105955
0.00993349
0.0099071
0.0828382
0.00986924
0.0098763
0.00983003
0.0101798
0.0100015
0.0150478
0.00979315
0.0657865
0.00985817
0.0100508
0.00983751
0.00984948
0.0112012
0.0308838
0.092995
0.0739277
0.00990422
0.108958
0.0327106
0.0358711
0.00986214
0.00989823
0.00987432
0.0297505
0.0129043
0.0539879
0.0371833
0.00988128
0.0143718
0.00996999
0.0162482
0.054051
0.0274093
0.0126369
0.00991913
0.00990089
0.00989996
0.00994528
0.0165011
0.0107142
0.00981512
0.00990354
0.00989376
0.0308091
0.0963571
0.0099391
0.0499097
0.0607278
0.00981443
0.0100795
0.0305472
0.00982695
0.00994809
0.00985964
0.00988474
0.0594756
0.00989743
0.00984726
0.0343239
0.00989318
0.00988838
0.0102562
0.0105849
0.00987439
0.0100083
0.0215268
0.0644806
0.0593265
0.015074
0.0285046
0.0485765
0.018316
0.0118775
0.010824
0.0098813
0.00987252
0.0102612
0.0099575
0.00999498
0.0607791
0.0142993
0.0339363
0.0530498
0.053678
0.00991805
0.0151877
0.00992398
0.112054
0.0104726
0.0500918
0.00996743
0.0417192
0.0293752
0.012104
0.0099346
0.100932
0.0309382
0.0102692
0.0866001
0.0105508
0.0113368
0.0103219
0.0163494
0.0136393
0.00997399
0.0340781
0.00988147
0.0129669
0.0298286
0.0286883
0.00981609
0.00983747
0.0343
0.0105606
0.013405
0.00984244
0.00984559
0.0471722
0.0103032
0.0100688
0.0100311
0.00987392
0.0902985
0.100298
0.0103218
0.00988213
0.00991031
0.0584662
0.00992846
0.0129475
0.00995249
0.00987951
0.0098653
0.00991934
0.00996607
0.0144443
0.00989115
0.026182
0.00987593
0.0122016
0.00995709
0.00988566
0.00995162
0.00996706
0.0508157
0.0571626
0.104621
0.00989199
0.00980677
0.0100688
0.0105814
0.0625363
0.0960406
0.0110553
0.00995026
0.00983207
0.00991737
0.0102674
0.0098088
0.0102841
0.0776826
0.0106036
0.0297075
0.0526856
0.00992315
0.0149084
0.0101329
0.100103
0.0099254
0.00983079
0.00987001
0.0150865
0.00994221
0.00984189
0.0111159
0.0098746
0.0149509
0.00991107
0.00989839
0.101336
0.00988923
0.0108396
0.045073
0.0142027
0.00980396
0.0104259
0.0171062
0.105269
0.00998946
0.010622
0.00989618
0.0107395
0.0584573
0.0099979
0.0953205
0.00994984
0.0123324
0.00992943
0.0425194
0.0119876
0.0133692
0.0555623
0.00989578
0.00985991
0.0983477
0.00990245
0.00987236
0.0523316
0.0255284
0.0313772
0.00988742
0.00984837
0.0936227
0.0338385
0.0340852
0.011196
0.00984079
0.090804
0.00982213
0.00992773
0.00985174
0.0765667
0.00984783
0.0929519
0.00984175
0.0941193
0.0305237
0.00993335
0.0304124
0.105157
0.0533894
0.0414559
0.0328811
0.00989886
0.0349077
0.0267806
0.0100125
0.00985731
0.0744248
0.0126187
0.032225
0.00991538
0.0352311
0.00987346
0.0326636
0.0105813
0.00992058
0.036072
0.00987727
0.0525953
0.116041
0.00993778
0.00989448
0.0102663
0.0104685
0.00982642
0.0282103
0.00990329
0.0324572
0.00990494
0.0110589
0.0817668
0.00990222
0.041315
0.0792996
0.00997534
0.0540876
0.0101945
0.00991875
0.0105737
0.0337992
0.00986607
0.016702
0.00984418
0.00993171
0.00992152
0.00989073
0.0498157
0.0347589
0.00989508
0.00986012
0.0632967
0.0098902
0.00982053
0.00982887
0.00981953
0.0115194
0.108566
0.00983892
0.013456
0.00990257
0.0138627
0.0733958
0.0099476
0.0151344
0.0102039
0.00984989
0.0101425
0.130338
0.10099
0.00986575
0.00991432
0.0099069
0.0100059
0.0168449
0.00997128
0.00985813
0.0962854
0.00988554
0.01006
0.0540898
0.028318
0.0102055
0.0101391
0.0101572
0.0107037
0.0126092
0.00978166
0.0141805
0.0098577
0.00985529
0.00985853
0.00987635
0.0488732
0.00983101
0.0625344
0.0411013
0.0270604
0.00988736
0.0103151
0.0122128
0.00988711
0.00984332
0.00995476
0.00983213
0.0603832
0.010181
0.0100128
0.00982517
0.0107037
0.0101274
0.00991506
0.0121344
0.0585672
0.0336209
0.0807737
0.0946133
0.0729183
0.0104397
0.0102227
0.102129
0.104431
0.00989139
0.0283894
0.0529767
0.00998614
0.011475
0.0101589
0.0509607
0.0349759
0.0110051
0.00986726
0.00998539
0.0567606
0.0910868
0.0252223
0.0817787
0.0104401
0.0841172
0.0122665
0.00985354
0.00978375
0.0525264
0.0129816
0.0604849
0.0843647
0.00985804
0.118429
0.00987112
0.0450378
0.00986228
0.00998738
0.103372
0.0331503
0.00994594
0.0580376
0.0098499
0.0343217
0.012823
0.00984786
0.0566997
0.0991839
0.044242
0.0107761
0.0125467
0.0346404
0.0191111
0.0707223
0.00985574
0.0779494
0.00986801
0.010119
0.00991221
0.115851
0.00997127
0.0176992
0.00986466
0.0354421
0.0104212
0.00992973
0.0541277
0.00982997
0.012255
0.010765
0.0630171
0.037836
0.00988334
0.0104562
0.0625345
0.0117679
0.0304167
0.0892934
0.00984565
0.0101799
0.0106041
0.00984542
0.00986381
0.00980671
0.0106491
0.0482389
0.0497786
0.00987547
0.0102518
0.0110626
0.0103817
0.0201038
0.0100112
0.00990011
0.0144067
0.0134492
0.053676
0.0199743
0.0545118
0.00989075
0.00982701
0.0157985
0.013724
0.109202
0.0185269
0.0336524
0.00988138
0.00985712
0.0102469
0.00991634
0.0179576
0.0119816
0.0104353
0.087594
0.00985206
0.0394123
0.0101281
0.0800483
0.0100037
0.0101444
0.0099624
0.0114538
0.0100634
0.00990263
0.00988868
0.0573082
0.0427244
0.0760591
0.0099008
0.00988473
0.010235
0.0098285
0.129165
0.0149344
0.0161449
0.00988788
0.0103976
0.00998352
0.0136777
0.00991247
0.102953
0.015041
0.00994063
0.0741693
0.0512172
0.0272599
0.106017
0.0152332
0.0098779
0.0268692
0.113583
0.0122472
0.07703
0.0134316
0.00981199
0.00986922
0.00985628
0.00986047
0.00983118
0.0108726
0.0543499
0.00990068
0.0105153
0.0173051
0.0151974
0.00981623
0.0114791
0.0252511
0.00992822
0.0572237
0.0161023
0.0135245
0.0260123
0.00992698
0.0173376
0.0107492
0.0622357
0.0844915
0.0302943
0.101681
0.0104586
0.00992867
0.0103925
0.013911
0.0102068
0.0099521
0.089208
0.00995968
0.00985162
0.0498899
0.0963874
0.0108055
0.0123757
0.0880469
0.00990698
0.0934875
0.00984581
0.00995347
0.0105784
0.00991423
0.00984881
0.0138444
0.00986789
0.122567
0.0627
0.0131291
0.0126251
0.114336
0.0099628
0.009884
0.00979386
0.00985801
0.0182499
0.00987431
0.00985217
0.0158454
0.0411632
0.00985686
0.0137613
0.0515255
0.00985031
0.00992824
0.00991588
0.0154299
0.0104888
0.0123686
0.017536
0.0120313
0.0143925
0.0105166
0.0302119
0.0100512
0.00983193
0.0100007
0.01021
0.0116717
0.010658
0.0533805
0.040603
0.0106648
0.0100995
0.0102072
0.00986199
0.00990935
0.00981222
0.00981034
0.105778
0.0116381
0.0098119
0.0911795
0.010184
0.00993958
0.069796
0.00998576
0.00986997
0.0130265
0.00986398
0.00986998
0.00981193
0.0289185
0.0101183
0.0477892
0.0125937
0.00989865
0.0864116
0.0350608
0.0323313
0.0113042
0.0514509
0.00989376
0.00982796
0.00990851
0.00994846
0.0169491
0.0371695
0.00989925
0.00988634
0.0111815
0.0173773
0.00994525
0.00991946
0.00985625
0.0569665
0.00987113
0.0154589
0.0171804
0.0563503
0.0307693
0.0163274
0.00983265
0.0508451
0.00983375
0.00984865
0.00991815
0.00984026
0.00985408
0.0098849
0.00980314
0.00984574
0.0101215
0.0100982
0.0112281
0.05493
0.0354872
0.00989108
0.0104968
0.0537261
0.00988489
0.0116287
0.00988035
0.00987688
0.00987821
0.00994984
0.013893
0.0098767
0.067347
0.0144487
0.00987218
0.0282968
0.00990652
0.0615432
0.0170131
0.0100271
0.023944
0.0539274
0.00999271
0.00998051
0.0099971
0.054184
0.0099931
0.0567552
0.0155629
0.0259386
0.0264357
0.0150029
0.00985842
0.0294475
0.0098991
0.00995634
0.0117182
0.0098421
0.0098631
0.0113591
0.00979038
0.00979038
0.0282938
0.00985073
0.0421914
0.0578829
0.00993753
0.0099069
0.0632732
0.00987974
0.0122299
0.0181281
0.00991699
0.0953106
0.00982769
0.00984381
0.0110742
0.0792396
0.0477661
0.0131512
0.0434372
0.0101925
0.0104793
0.0139188
0.108814
0.0124246
0.00991813
0.00992707
0.00987781
0.00984065
0.0161651
0.00988517
0.00983931
0.0124406
0.0100809
0.0612585
0.0109494
0.00990728
0.00989548
0.0268772
0.00987095
0.015821
0.0118334
0.0989869
0.0106795
0.0162575
0.0524514
0.0103912
0.048026
0.00988647
0.0129383
0.00983639
0.0418916
0.00992103
0.0145216
0.0323754
0.0151284
0.0100962
0.0973742
0.00988638
0.00991374
0.0365108
0.105447
0.0443362
0.00983897
0.0100501
0.00992186
0.0157623
0.0371259
0.0100897
0.0782282
0.0118761
0.00985856
0.0100414
0.0338884
0.0101141
0.0887478
0.0165842
0.0099937
0.00981831
0.0547342
0.00989491
0.0107975
0.0713976
0.00989112
0.00994886
0.00977382
0.010021
0.0133935
0.0694617
0.00992332
0.00996705
0.088667
0.0526545
0.0425207
0.00986144
0.015479
0.00986641
0.0357889
0.00986472
0.0878458
0.0101892
0.0110467
0.00979317
0.0098453
0.0103055
0.010074
0.0728782
0.0601906
0.00999554
0.0101399
0.0899479
0.0750074
0.0098478
0.00988614
0.00982656
0.012363
0.0101217
0.00985595
0.00990763
0.0296195
0.0163482
0.0301573
0.0100403
0.0175158
0.0637563
0.0752061
0.00987073
0.0123593
0.0133399
0.00995846
0.00988094
0.0705758
0.00980416
0.00989422
0.0492419
0.0867921
0.00989121
0.00982867
0.0668859
0.122711
0.00983515
0.0133831
0.0896468
0.0212229
0.00983423
0.00984867
0.00984287
0.0102728
0.00988607
0.0940136
0.0596326
0.0098238
0.00985727
0.0120614
0.0100512
0.0355902
0.0356595
0.0430065
0.00997024
0.104692
0.00990569
0.010066
0.0159343
0.0296466
0.0987622
0.00986428
0.00984566
0.0109821
0.00979368
0.012658
0.00994149
0.0460738
0.0302279
0.0948108
0.0123024
0.00998602
0.0129685
0.0333456
0.0164995
0.0108764
0.0100008
0.0156238
0.00992453
0.00982077
0.0125695
0.0337787
0.0811484
0.00990215
0.0681133
0.0111314
0.0106921
0.0165626
0.0990819
0.0100602
0.0286547
0.119386
0.10415
0.0102666
0.00981574
0.0104518
0.0104563
0.0171764
0.0122627
0.0676059
0.0613178
0.0535308
0.00985507
0.0132825
0.00995415
0.0119918
0.011853
0.0101974
0.082989
0.010687
0.103244
0.00985433
0.0122059
0.0937609
0.00987929
0.0134597
0.0102647
0.0155744
0.0329776
0.0739828
0.0100233
0.0491413
0.00991358
0.0099006
0.0109691
0.0226245
0.0672322
0.00985182
0.0542063
0.00989609
0.00985563
0.00982636
0.030946
0.00996937
0.00989541
0.00991128
0.00984386
0.0743375
0.046441
0.00981014
0.0125048
0.0282818
0.00990959
0.0106832
0.0103983
0.0153173
0.0725554
0.103758
0.0381991
0.00985736
0.00985937
0.0109318
0.100123
0.0584166
0.00994447
0.0110022
0.0275519
0.00986599
0.009918
0.00983601
0.00987295
0.00987785
0.009923
0.0101561
0.0115891
0.011027
0.0113423
0.0191385
0.0301746
0.00985283
0.0102758
0.0571411
0.0321509
0.00988106
0.0404818
0.0100105
0.0138813
0.00990157
0.0099628
0.0113487
0.00981233
0.00985754
0.00989228
0.0453412
0.0704286
0.00985124
0.00982273
0.0953024
0.0161459
0.0107304
0.00987584
0.0101148
0.112932
0.0117866
0.0101618
0.0184301
0.0097988
0.0112908
0.0939477
0.0106536
0.0873032
0.0162867
0.109102
0.0098927
0.0099237
0.00983465
0.0974623
0.0316978
0.0173326
0.00989406
0.0389201
0.0333995
0.0157016
0.00986668
0.0558529
0.00984033
0.00992816
0.0264005
0.027925
0.0742983
0.00990697
0.00979576
0.0099979
0.0106853
0.0130529
0.0132629
0.0144976
0.0894092
0.065261
0.0789055
0.0162602
0.00989816
0.0618764
0.128933
0.0352455
0.0876955
0.00997641
0.0823285
0.00982147
0.00988016
0.0101349
0.0269231
0.0098923
0.0623129
0.0267918
0.00982725
0.00983434
0.0109055
0.0100189
0.00996057
0.0991644
0.0104796
0.00991211
0.00993312
0.0158923
0.00993745
0.00980281
0.0133115
0.0425496
0.0703121
0.012545
0.00988898
0.061519
0.0158482
0.00987406
0.058193
0.0785626
0.0128868
0.0337086
0.0266059
0.0970259
0.0383909
0.0552718
0.112278
0.0536989
0.0998343
0.0120988
0.0175947
0.00986542
0.106893
0.00989147
0.0103849
0.00993714
0.0117665
0.00996326
0.0583084
0.0098955
0.0100966
0.0150135
0.00987526
0.010633
0.125368
0.0107982
0.0166216
0.0766865
0.0596654
0.0101424
0.0140286
0.102172
0.00994729
0.0102217
0.00987181
0.0098662
0.0443745
0.0110287
0.0160714
0.00989873
0.0101728
0.0100805
0.00985749
0.0152472
0.0099167
0.0104282
0.00983868
0.012581
0.0125912
0.0110102
0.0163244
0.00992289
0.010129
0.0452952
0.0100652
0.044556
0.0853936
0.0340192
0.0100864
0.0100262
0.00982211
0.0099294
0.011198
0.0186722
0.0119518
0.0994317
0.0869791
0.0684789
0.031158
0.0638562
0.00982819
0.0523027
0.0115189
0.0708298
0.089112
0.00994838
0.0302852
0.00990392
0.0107153
0.00979041
0.0534264
0.0464925
0.0105804
0.010077
0.0981241
0.0105775
0.0295782
0.0132884
0.00987442
0.00996072
0.00986843
0.0127957
0.0135689
0.0156922
0.0367632
0.0584074
0.0367
0.0749194
0.012053
0.00996232
0.023829
0.0316628
0.0140212
0.010025
0.00988339
0.032114
0.0103178
0.10041
0.0270486
0.00993827
0.046339
0.0167209
0.0138592
0.011136
0.014049
0.00995641
0.0157112
0.013829
0.00986784
0.0117274
0.00988991
0.0964567
0.113307
0.0110801
0.0134832
0.00989523
0.0131211
0.0132272
0.112993
0.0101571
0.0106948
0.00992304
0.0160673
0.0503235
0.0315096
0.0446618
0.0107925
0.0270041
0.0126315
0.0989092
0.0108639
0.0510376
0.0172839
0.00988907
0.0323836
0.00990417
0.00986069
0.0526325
0.0908641
0.0113089
0.0906552
0.00989606
0.00984948
0.017777
0.00995131
0.0124945
0.0111622
0.0871534
0.0118907
0.0108457
0.00985364
0.118239
0.00987404
0.0104733
0.0178871
0.0104379
0.0575367
0.00991772
0.0898443
0.00992812
0.0108434
0.00995809
0.0104303
0.0546703
0.0949256
0.00986154
0.00986387
0.0527853
0.0119164
0.0637582
0.0111591
0.0284325
0.105485
0.013237
0.0099279
0.0165794
0.00979127
0.0109242
0.0103634
0.0591763
0.00982596
0.0809193
0.022754
0.00977598
0.00979787
0.0104487
0.0843356
0.0460822
0.0098515
0.00988449
0.0100005
0.0100098
0.00997299
0.123831
0.0103056
0.01012
0.0103941
0.0326904
0.0106065
0.00988756
0.0102006
0.00990657
0.00987755
0.0338848
0.0100072
0.0490247
0.00990271
0.0147887
0.0101669
0.0100501
0.00985577
0.00980013
0.0559915
0.009907
0.0317745
0.0877047
0.0104426
0.0459545
0.0098551
0.102825
0.042487
0.0391586
0.0164674
0.0103621
0.0624455
0.0836947
0.0101007
0.0146807
0.00988251
0.0123561
0.107485
0.0164641
0.0505682
0.0117954
0.00985691
0.0303948
0.0099322
0.00989112
0.00989817
0.00987764
0.00990444
0.00994305
0.00989663
0.010039
0.0644352
0.104643
0.0100957
0.0970841
0.0116348
0.0111066
0.0181518
0.00983282
0.0108965
0.0540241
0.00984031
0.0392003
0.01552
0.0391631
0.0103181
0.0098598
0.0222136
0.0125985
0.0506622
0.0106667
0.0109646
0.0165348
0.0100226
0.117721
0.0909962
0.00987757
0.010825
0.0098725
0.0132327
0.107879
0.00989644
0.0274845
0.00981015
0.00991866
0.0599836
0.00994714
0.00986121
0.0579769
0.0649153
0.00985553
0.0140456
0.0924647
0.00995017
0.0424332
0.0856273
0.0152257
0.00980189
0.00987287
0.00992394
0.00986408
0.0100843
0.00979599
0.0118771
0.0122697
0.00983647
0.0100044
0.107176
0.053738
0.0107293
0.00987397
0.0119212
0.0986548
0.0862907
0.0100156
0.0744064
0.010015
0.00984585
0.00986804
0.0503502
0.0208965
0.0098139
0.0108344
0.00993644
0.0101868
0.0322283
0.0788688
0.00991464
0.0822693
0.0393994
0.0638806
0.0492146
0.00988823
0.00986342
0.0101335
0.0117911
0.015113
0.0136017
0.00984168
0.0100364
0.0367307
0.00980444
0.00986042
0.00994914
0.0694738
0.0112103
0.0853461
0.015264
0.0520552
0.00989832
0.0101371
0.0102759
0.0867451
0.0163155
0.0295816
0.114131
0.00993112
0.0991824
0.0344469
0.00982508
0.0100406
0.00984074
0.0559373
0.0128683
0.0338584
0.00982424
0.00988773
0.00985149
0.00978739
0.0522738
0.0100734
0.0108849
0.0098414
0.00991276
0.00979602
0.00984937
0.00989429
0.107286
0.0500554
0.0118173
0.00985804
0.00997413
0.0498961
0.00983024
0.030062
0.0108094
0.0102346
0.0167526
0.024817
0.0300598
0.118693
0.00991316
0.0102008
0.0317168
0.0109561
0.111329
0.00984802
0.0098378
0.089935
0.0115376
0.0111325
0.0099476
0.0440487
0.0987383
0.0576273
0.0262689
0.0300194
0.0867535
0.0840753
0.0916856
0.0165686
0.00986301
0.0100457
0.00997122
0.0108094
0.0997656
0.00994902
0.0107593
0.124156
0.114345
0.0802208
0.0149986
0.0699697
0.00985203
0.0101766
0.00982891
0.00997544
0.0518006
0.0159209
0.00990672
0.00992975
0.00996857
0.00985803
0.00984285
0.0338054
0.0130401
0.00992583
0.00986906
0.131958
0.0109146
0.0125811
0.0106674
0.0118041
0.00981832
0.0309694
0.0623308
0.0934879
0.0152171
0.00982842
0.00986851
0.00990387
0.0410162
0.0125663
0.0368632
0.0129585
0.00984757
0.0518418
0.0389714
0.00986037
0.00997074
0.00988433
0.00986531
0.016134
0.0287516
0.00996698
0.0127852
0.0108924
0.0101464
0.0102472
0.00990201
0.0177832
0.0100852
0.110954
0.0626701
0.0973155
0.0146175
0.011355
0.0139768
0.03899
0.0100536
0.0435059
0.0315584
0.109596
0.011034
0.009836
0.00997766
0.109195
0.0449025
0.0351589
0.0943084
0.0445384
0.00988812
0.00985904
0.0905787
0.0564341
0.0296761
0.00981887
0.00994832
0.0100523
0.0151437
0.0099199
0.00998241
0.0145603
0.0544049
0.00982133
0.0101402
0.0101589
0.0109129
0.00999977
0.00989333
0.0181472
0.0109835
0.0266201
0.00983144
0.00981747
0.00987918
0.120293
0.00990227
0.0959147
0.00988199
0.00991971
0.00993495
0.00987692
0.0334811
0.0892435
0.0345391
0.00990287
0.00984142
0.0105116
0.00992954
0.0652968
0.0156581
0.00989344
0.0098544
0.011931
0.0651988
0.0105263
0.0119239
0.00981184
0.00985198
0.00990234
0.00982964
0.00994712
0.0100797
0.0141408
0.0100543
0.0098546
0.00995421
0.0154471
0.0798265
0.103678
0.019279
0.0126629
0.00985232
0.00982371
0.0870831
0.0119168
0.0101956
0.0104711
0.0152011
0.00983314
0.010025
0.0102545
0.00981417
0.0122074
0.0102312
0.0450157
0.011182
0.0100607
0.0943469
0.010936
0.0099634
0.0101
0.00992886
0.00984025
0.0721753
0.00992542
0.0172536
0.00984548
0.019981
0.00984655
0.010849
0.0156469
0.011022
0.0952201
0.0109214
0.0483576
0.0575408
0.0100976
0.0964301
0.00985504
0.00990697
0.00986855
0.0379207
0.0138327
0.09802
0.010275
0.0596539
0.0160106
0.00989583
0.0098154
0.00984513
0.00992306
0.00989274
0.00983331
0.00996426
0.00988139
0.00988325
0.0475922
0.014111
0.00996768
0.00988517
0.0290502
0.00995567
0.00985362
0.00986872
0.100137
0.0101529
0.0930729
0.00990982
0.0856434
0.0539669
0.0118801
0.0103448
0.0101399
0.0117352
0.0953618
0.00988263
0.0809853
0.0897392
0.0100317
0.034071
0.0154708
0.0104343
0.00986475
0.10237
0.0304495
0.0638332
0.0098549
0.00990234
0.0267026
0.00991257
0.0163513
0.0315305
0.00985968
0.0784397
0.0102057
0.00994102
0.0099362
0.00995591
0.00988352
0.00986915
0.010757
0.00982471
0.00999325
0.0098825
0.0123547
0.0143442
0.00986736
0.017081
0.00998805
0.0100446
0.00992425
0.0100306
0.00996661
0.0101115
0.0508499
0.00992807
0.00991329
0.0282083
0.0110158
0.00986987
0.106976
0.00991238
0.00987572
0.0160036
0.0106922
0.0443039
0.0119549
0.00980602
0.00996372
0.0145048
0.0331076
0.0315038
0.0105084
0.0543667
0.053379
0.0765358
0.0101509
0.009868
0.0098846
0.0102327
0.0101046
0.0100369
0.0289412
0.0120772
0.0099052
0.00986637
0.00987025
0.0099142
0.067621
0.112388
0.102393
0.0253226
0.00992035
0.00993914
0.00985352
0.015499
0.00995461
0.00999836
0.101687
0.00986146
0.00991044
0.00986206
0.0098765
0.0249633
0.0344633
0.0115996
0.0451257
0.00986319
0.0100163
0.0128503
0.00993607
0.0158889
0.0273993
0.0140031
0.00982702
0.0164404
0.0107105
0.00983326
0.0107966
0.0540969
0.00986895
0.00982768
0.0331721
0.0481066
0.016172
0.0474952
0.00991113
0.0106552
0.0442481
0.00992102
0.00981682
0.0098492
0.0106358
0.00992901
0.00990828
0.00986065
0.0101275
0.0168981
0.00996244
0.0258296
0.019101
0.0322339
0.00990615
0.0118248
0.00985809
0.0102068
0.0150679
0.01341
0.104615
0.0135627
0.110184
0.0162579
0.0101098
0.0100663
0.0099405
0.0101384
0.0662663
0.0486705
0.00982872
0.0196565
0.0395087
0.0107569
0.0474089
0.00985332
0.010305
0.00997877
0.0111107
0.00986861
0.0114896
0.00989795
0.0592173
0.00989463
0.0565153
0.0628623
0.0263257
0.0102354
0.0108148
0.00986036
0.0564384
0.00989665
0.00997015
0.0123943
0.0167917
0.0164502
0.0526555
0.0442005
0.0489797
0.0279173
0.00981792
0.0363013
0.00997072
0.030341
0.123138
0.014661
0.0535428
0.107114
0.0966192
0.0100788
0.0112693
0.00987248
0.0293842
0.0098535
0.0546135
0.0116836
0.0303016
0.00998794
0.0098945
0.101085
0.0102271
0.00991362
0.0099228
0.0101056
0.0106334
0.00991571
0.00991182
0.00980939
0.0101275
0.0705225
0.0166835
0.0353129
0.00996804
0.0683167
0.0161679
0.00989031
0.0194414
0.012801
0.111608
0.0107705
0.0118891
0.00987472
0.0102499
0.00982773
0.0101455
0.00978155
0.0106195
0.00980078
0.0307611
0.0340135
0.00998997
0.00985939
0.0101541
0.0100316
0.00990491
0.009901
0.0099943
0.0538265
0.00992758
0.00988196
0.0533472
0.0108347
0.0547285
0.0103132
0.0252121
0.0502144
0.0100199
0.0534469
0.0789631
0.101999
0.0630632
0.0564625
0.00984694
0.0107568
0.00980922
0.0104944
0.0288788
0.00987496
0.00980047
0.00985081
0.101208
0.0100835
0.0126065
0.0115999
0.00988595
0.0928814
0.062977
0.0101165
0.0724678
0.00987511
0.0463904
0.0103638
0.024354
0.00991811
0.0098949
0.00988169
0.0510299
0.105477
0.0538575
0.00984548
0.02985
0.140986
0.0111536
0.0162294
0.0894858
0.0137902
0.0635785
0.0106598
0.0100535
0.00986345
0.00991558
0.115829
0.0120206
0.0804777
0.00982518
0.00993529
0.0111239
0.00996808
0.0150395
0.0120528
0.0726556
0.0100143
0.0128999
0.00990183
0.00984285
0.0311891
0.116532
0.00992496
0.00990941
0.00987237
0.0264613
0.0101545
0.0873276
0.0692455
0.0473028
0.00989845
0.0597072
0.0116634
0.103826
0.043501
0.0100557
0.0337359
0.0585172
0.0613468
0.00990913
0.00994957
0.00988978
0.0357186
0.0101992
0.00985615
0.0121244
0.0109535
0.00991798
0.00991579
0.00985444
0.0905552
0.00991788
0.0110383
0.0252879
0.0764204
0.00986356
0.00985451
0.0139326
0.00993323
0.103224
0.0118208
0.0105072
0.103208
0.00985932
0.00984856
0.0100902
0.0436058
0.009821
0.0417914
0.00983492
0.0304167
0.105565
0.00978157
0.00990625
0.0281117
0.00996138
0.00986344
0.00985522
0.00991117
0.0304273
0.0839615
0.00984781
0.00998227
0.0101856
0.0098785
0.0328762
0.0100822
0.0321681
0.0282329
0.00988057
0.00988492
0.0134239
0.00993968
0.0111876
0.0531128
0.0337126
0.00981794
0.00987238
0.0474265
0.0608792
0.0165555
0.00995136
0.0100367
0.0972486
0.0163804
0.00994434
0.00986579
0.0098339
0.0099399
0.0117468
0.00984669
0.0100206
0.00983808
0.0170931
0.0818101
0.0906494
0.0106314
0.0136928
0.00993439
0.00992223
0.00983215
0.00987501
0.00984941
0.0098453
0.0100944
0.00984459
0.0125242
0.00985257
0.00982561
0.0146468
0.00992575
0.0153557
0.0919662
0.0108232
0.0101743
0.010325
0.0109658
0.0105893
0.0154811
0.0471216
0.0100111
0.00987252
0.0100034
0.0109304
0.0700241
0.00991571
0.0123889
0.0847209
0.0100278
0.0630539
0.0113614
0.0100252
0.0100716
0.0103329
0.0117698
0.0544056
0.0891551
0.0695027
0.00980411
0.045713
0.00988918
0.00988649
0.0509229
0.00985277
0.0131357
0.00981312
0.0108199
0.0110324
0.0206667
0.00982505
0.00983804
0.10939
0.00988787
0.0560778
0.113894
0.0100503
0.0277406
0.00983695
0.00990226
0.00983422
0.0136679
0.0171778
0.0101361
0.00987281
0.0101357
0.0447144
0.0638388
0.011036
0.0100469
0.011872
0.00984552
0.0171047
0.0135904
0.00990851
0.00986212
0.00989796
0.015373
0.0117914
0.0157874
0.0103952
0.00999953
0.01188
0.0126858
0.0556368
0.00990638
0.0102207
0.00993076
0.00992217
0.0100993
0.0097857
0.0510197
0.0110128
0.0245778
0.0464402
0.00996961
0.0187986
0.00983807
0.00990628
0.0101678
0.104433
0.01526
0.00998935
0.00989238
0.0300469
0.00990076
0.0169945
0.0106221
0.018142
0.0119502
0.00998049
0.00983594
0.112683
0.010169
0.00981224
0.00992569
0.0151891
0.0101367
0.00985439
0.0494335
0.00986554
0.0519901
0.0101188
0.00984742
0.00985239
0.0108963
0.0158403
0.0189983
0.0406486
0.0776376
0.00983132
0.0098165
0.0582089
0.0527949
0.0100634
0.0102136
0.0318879
0.0121564
0.0102307
0.0101584
0.00997077
0.0998321
0.00996921
0.0132242
0.0501774
0.00981443
0.0316456
0.0160359
0.0966026
0.0488288
0.0166012
0.0368077
0.0104715
0.0306151
0.0110765
0.056279
0.0696267
0.010587
0.0854885
0.0299299
0.0100452
0.0910694
0.00998286
0.0406721
0.0266686
0.0309745
0.00987249
0.0635672
0.056584
0.0102531
0.00989188
0.0106074
0.0343853
0.010248
0.0174257
0.0108346
0.0266707
0.0145284
0.00986679
0.01412
0.00997973
0.0100394
0.0104495
0.00983932
0.0969477
0.0106049
0.011693
0.0100283
0.0640456
0.0112822
0.10775
0.0144751
0.0152537
0.00979204
0.00991459
0.0121049
0.00995417
0.0113756
0.00979453
0.00985249
0.0169211
0.00988516
0.0261072
0.00985967
0.0102739
0.0302586
0.010102
0.0257861
0.00984704
0.00993511
0.0274637
0.0103611
0.0109067
0.101701
0.00987124
0.0934466
0.0484379
0.0120523
0.00993155
0.01009
0.0671701
0.00984315
0.0099353
0.0143454
0.0309521
0.0163322
0.0599867
0.00998817
0.0145578
0.010286
0.0137063
0.00993641
0.0100252
0.0748676
0.010145
0.00989479
0.0151198
0.125479
0.0351401
0.0100767
0.0301689
0.0160634
0.0261494
0.0100614
0.0154897
0.0324757
0.0427383
0.00990993
0.0886393
0.00994172
0.0583096
0.00990438
0.0133151
0.00988596
0.0577139
0.0101254
0.00987379
0.00986667
0.00987664
0.0130608
0.104873
0.110194
0.0121044
0.125886
0.0098259
0.0555265
0.00980929
0.00993326
0.0108004
0.00995375
0.0631121
0.0293077
0.0311038
0.00990339
0.0628102
0.0100058
0.0153151
0.0101949
0.0295574
0.0570753
0.0634494
0.00982222
0.0340113
0.00986662
0.0109361
0.0107358
0.043597
0.0418602
0.0115563
0.0123471
0.0333507
0.00984867
0.00995444
0.0175549
0.0143713
0.010003
0.00982959
0.00981424
0.0098436
0.00991377
0.0126172
0.0212825
0.00992471
0.120571
0.0664434
0.0103617
0.00992409
0.00983215
0.0661357
0.0477654
0.00987069
0.0141318
0.00984386
0.0580362
0.0098656
0.00983556
0.00997129
0.02975
0.0181747
0.0695529
0.104302
0.0115646
0.103092
0.0104841
0.0567668
0.0107104
0.0103841
0.00986367
0.0741504
0.111259
0.00982996
0.0104691
0.0543054
0.0100349
0.00987757
0.0567918
0.112255
0.114015
0.0699542
0.0184476
0.0881503
0.0150758
0.00984132
0.0563783
0.0855492
0.0112373
0.0100073
0.0098493
0.00993462
0.0130423
0.116823
0.00982589
0.057243
0.0098934
0.0695073
0.012658
0.0106172
0.0131638
0.0118109
0.0925836
0.00984181
0.00986892
0.00982125
0.0973135
0.0110957
0.0345821
0.0136614
0.0269384
0.085126
0.0119792
0.0113609
0.0114409
0.0183688
0.0100828
0.0366884
0.0639052
0.0478775
0.0106153
0.0121329
0.0105942
0.0651062
0.0113396
0.0856804
0.12829
0.0101409
0.00980742
0.0461774
0.0522145
0.0159567
0.0098651
0.011313
0.00986399
0.0106584
0.0103692
0.00982115
0.0100281
0.00980319
0.0324966
0.10904
0.010638
0.00988853
0.00983185
0.0129877
0.118621
0.0153764
0.00986761
0.0417743
0.0141124
0.011475
0.0120125
0.00983841
0.00990033
0.00984294
0.0679184
0.0103095
0.00990718
0.00996254
0.00984911
0.0107591
0.0328143
0.00985154
0.0130707
0.109978
0.00985755
0.00984798
0.0119426
0.0167375
0.0100047
0.0099857
0.010262
0.00984186
0.0109127
0.0148326
0.0552028
0.0340789
0.00989586
0.0102242
0.00989304
0.0104188
0.0481451
0.0596682
0.0474261
0.0735045
0.0294548
0.0880264
0.00986881
0.0857993
0.0104479
0.0180989
0.00988815
0.0578693
0.0098652
0.0484208
0.00987361
0.118497
0.0365927
0.0364127
0.00995202
0.00990517
0.0176622
0.0149609
0.113937
0.0837901
0.00983533
0.0104007
0.010487
0.00984441
0.00981788
0.00996434
0.00993947
0.0098569
0.0209649
0.0109837
0.027191
0.0298812
0.0833433
0.00990301
0.0286489
0.102605
0.00985391
0.0299086
0.00989503
0.0939288