/*--------------------------------*- C++ -*----------------------------------*\
| =========                 |                                                 |
| \\      /  F ield         | OpenFOAM: The Open Source CFD Toolbox           |
|  \\    /   O peration     | Version:  2406                                  |
|   \\  /    A nd           | Website:  www.openfoam.com                      |
|    \\/     M anipulation  |                                                 |
\*---------------------------------------------------------------------------*/
FoamFile
{
    version     2.0;
    format      ascii;
    arch        "LSB;label=32;scalar=64";
    class       volScalarField;
    location    "2";
    object      k;
}
// * * * * * * * * * * * * * * * * * * * * * * * * * * * * * * * * * * * * * //

dimensions      [0 2 -2 0 0 0 0];

internalField   nonuniform List<scalar> 
59516
(
0.00998934
0.0101696
0.00991009
0.0100174
0.0099176
0.0133432
0.00987341
0.00997687
0.0099214
0.0105877
0.0100077
0.0106397
0.00994915
0.0223368
0.010422
0.0103789
0.00990359
0.0104246
0.00994284
0.00985989
0.0115193
0.00991015
0.00985211
0.0123282
0.00999201
0.0104928
0.0118189
0.0123566
0.0104587
0.0192955
0.0100516
0.0120364
0.0099117
0.0100946
0.00993878
0.00989726
0.0183811
0.0104359
0.00993724
0.010003
0.00987342
0.00994602
0.0100561
0.00997857
0.0099383
0.0107083
0.00997244
0.00996932
0.0101183
0.00995302
0.0101882
0.0116549
0.00990533
0.00989765
0.0115396
0.00994554
0.00996216
0.0119204
0.00994334
0.00994103
0.0100407
0.0159567
0.00998585
0.00989181
0.0100953
0.00993509
0.0183754
0.0114692
0.0100615
0.00991286
0.0156299
0.00992008
0.0179454
0.0100985
0.00999864
0.00993345
0.0100533
0.00994834
0.0113314
0.0100594
0.011989
0.0099755
0.00996228
0.0179737
0.0100108
0.00992382
0.0126307
0.00981252
0.0103262
0.0100169
0.00990854
0.00997582
0.00989939
0.00990969
0.00994419
0.0100232
0.00996561
0.0105705
0.0105702
0.00994372
0.012377
0.0185358
0.0183995
0.010536
0.00991268
0.00999328
0.011832
0.00999568
0.00993763
0.0107144
0.00992664
0.0151937
0.0105391
0.0099307
0.00999669
0.00994348
0.010537
0.00997172
0.0161213
0.0100484
0.00995228
0.0100393
0.0100263
0.00993752
0.00994387
0.0100748
0.0172557
0.0100922
0.0114613
0.00994942
0.0100207
0.009936
0.0167253
0.00987287
0.00988684
0.00992171
0.0100185
0.00987887
0.0122768
0.00991432
0.0115389
0.00995774
0.0188485
0.00991956
0.00992122
0.00999638
0.00992691
0.00992508
0.0176178
0.00983333
0.00999397
0.0123897
0.00989158
0.00994336
0.00985284
0.0206128
0.0100609
0.00984463
0.00985702
0.0189998
0.0103172
0.0102372
0.0123018
0.0210958
0.00994211
0.0099525
0.0106739
0.00992978
0.0187516
0.0100338
0.00995574
0.0107028
0.0101539
0.00994886
0.0113413
0.0099135
0.00993336
0.0100567
0.0104512
0.0117497
0.00995108
0.0123597
0.0200116
0.0104068
0.00991666
0.0105361
0.0120518
0.0200583
0.0099255
0.0100091
0.0101686
0.0105647
0.00998997
0.0105392
0.00989011
0.0127868
0.0108329
0.0118196
0.00994288
0.00988485
0.010148
0.00996024
0.00987457
0.0200586
0.010058
0.00997046
0.00989897
0.00999471
0.0187995
0.00999355
0.0107368
0.0182102
0.00992719
0.0109078
0.00986706
0.00993057
0.00994403
0.0099332
0.0104917
0.00993117
0.0105643
0.00994225
0.0100106
0.0122937
0.0099595
0.00991467
0.0150409
0.0112768
0.00993134
0.0105005
0.00991593
0.00999068
0.00996539
0.0170039
0.013162
0.0123474
0.0104529
0.00990151
0.00988227
0.0110556
0.00995661
0.0188945
0.0103404
0.0193405
0.00994223
0.00999948
0.00999935
0.0104057
0.00995227
0.00987709
0.010008
0.00993533
0.00997953
0.0099185
0.0100248
0.00993751
0.0111299
0.00990441
0.0112283
0.0106769
0.00992366
0.00999922
0.00997094
0.00991713
0.0100497
0.0105913
0.00998722
0.00997769
0.0118157
0.0106997
0.00994732
0.0100054
0.00997599
0.0100006
0.00996919
0.00995796
0.0173038
0.00991511
0.0164999
0.0117585
0.00991658
0.00995055
0.0173156
0.00995578
0.00987129
0.0100512
0.0100053
0.0170784
0.00993929
0.00993877
0.00989418
0.00991683
0.0099029
0.00994039
0.00988585
0.0144597
0.00990515
0.00999571
0.00992837
0.0099231
0.0100158
0.0106997
0.0160614
0.0147756
0.0100335
0.0184643
0.0109626
0.0108087
0.00995944
0.0100457
0.00987359
0.0105584
0.00986546
0.0120386
0.0108605
0.00993294
0.00994035
0.0100421
0.00989125
0.0121072
0.0107225
0.0100274
0.0100195
0.00999115
0.00997783
0.0100573
0.0101785
0.0100309
0.00989278
0.00994892
0.00998718
0.0104021
0.0185571
0.00991565
0.0120003
0.0125476
0.009885
0.0100415
0.0105368
0.00990147
0.0100583
0.00995849
0.00997024
0.0123087
0.00989985
0.0099129
0.0109947
0.00998737
0.00996915
0.00994583
0.00989229
0.0098761
0.00998284
0.0101406
0.012237
0.0124492
0.00991384
0.0104184
0.0124656
0.0100586
0.00993627
0.0099614
0.00998082
0.00991348
0.00988513
0.00995238
0.00997242
0.0127392
0.0100355
0.0110126
0.0115198
0.0118847
0.00996196
0.009917
0.00998194
0.0185834
0.00998253
0.0118487
0.0100623
0.0110146
0.0105542
0.00994692
0.0100492
0.0190372
0.0105446
0.00998994
0.0155439
0.0101851
0.0100252
0.00995645
0.0101746
0.0100293
0.0100861
0.0104739
0.00999573
0.00991852
0.0108131
0.0108577
0.00989615
0.00995146
0.010669
0.00986953
0.00997841
0.00993546
0.00993837
0.0120162
0.00989526
0.00989741
0.0099442
0.00992121
0.0187329
0.0178445
0.0099149
0.009998
0.0100049
0.0119795
0.0099953
0.00993033
0.0100567
0.00997313
0.0099682
0.0100124
0.010074
0.00990823
0.00998924
0.0105028
0.00994493
0.00990933
0.00997998
0.00997056
0.0098971
0.00989917
0.0117677
0.0128223
0.0178707
0.00996964
0.00989821
0.00988866
0.0100222
0.0127666
0.0176412
0.0099818
0.00992607
0.0099129
0.00993475
0.00992043
0.00988423
0.00988979
0.0153027
0.0100234
0.0104499
0.0123638
0.00995289
0.0100465
0.0100013
0.0185513
0.0100536
0.00990734
0.00996008
0.00989626
0.00995937
0.00990856
0.0100293
0.00996053
0.00992207
0.0100038
0.00992406
0.0176738
0.00997923
0.00994332
0.0113856
0.00993298
0.00987816
0.00989625
0.00991739
0.0178212
0.0101267
0.0100692
0.00995375
0.0100578
0.0118221
0.00989583
0.0174912
0.0100332
0.0101942
0.0100288
0.0115701
0.00994239
0.00997605
0.0123612
0.0100243
0.00992632
0.0176689
0.00996704
0.00993779
0.0123811
0.0102979
0.0107065
0.00992854
0.00992393
0.0196463
0.0106604
0.0110305
0.00995249
0.00991824
0.0163906
0.00986989
0.00993705
0.00994743
0.012104
0.00994045
0.0175606
0.00990626
0.0190856
0.0103775
0.00996138
0.0105604
0.0194043
0.0125303
0.0114887
0.0107706
0.00987703
0.0105729
0.0104525
0.0101368
0.00992817
0.0158235
0.00996478
0.0105019
0.0100123
0.0109379
0.00994417
0.010679
0.00998006
0.010035
0.0110342
0.00997093
0.012367
0.01957
0.00990831
0.00997107
0.00990903
0.0100021
0.00992349
0.0107899
0.0100208
0.0107447
0.0100039
0.0100065
0.0173912
0.00988631
0.0110686
0.0167214
0.00992088
0.0119383
0.00994034
0.0100361
0.00987241
0.0105708
0.00996454
0.00998864
0.00992008
0.0100605
0.0100299
0.00996978
0.0112157
0.0109363
0.0099885
0.00993375
0.0128548
0.00995993
0.00991972
0.00992575
0.00991093
0.00991912
0.0189483
0.00992131
0.0100842
0.00993828
0.00988116
0.0155046
0.0100805
0.0101245
0.0100219
0.00993208
0.0100582
0.0191606
0.017788
0.00993198
0.0100054
0.00999715
0.0100833
0.0101071
0.00997611
0.00995696
0.017286
0.00995304
0.0100252
0.012166
0.0102833
0.0100369
0.0100857
0.00990736
0.00995072
0.010028
0.00986397
0.00991366
0.00997439
0.00993266
0.00996621
0.0099512
0.0121104
0.00990085
0.013092
0.0111485
0.0106023
0.00997646
0.0101621
0.00985364
0.00994867
0.00993798
0.00991655
0.00991242
0.0127155
0.0101545
0.0100262
0.00990207
0.00998629
0.0100936
0.0100225
0.00992172
0.0126491
0.0105326
0.0149212
0.0176987
0.0169821
0.0100319
0.00999895
0.0179167
0.0177221
0.00999695
0.0106044
0.0117126
0.00994714
0.00992329
0.00992695
0.0125484
0.0106221
0.00992423
0.00995046
0.0098751
0.0122295
0.0166812
0.0105868
0.0168371
0.00995812
0.016656
0.0100469
0.00995863
0.00987428
0.0118989
0.00991274
0.0121668
0.0172324
0.00994267
0.0184133
0.00993507
0.0117395
0.00990711
0.0099476
0.0189617
0.0103851
0.00992392
0.0125837
0.00991604
0.0105783
0.00993261
0.00991502
0.0131306
0.017553
0.0113399
0.0101985
0.00994459
0.0107531
0.00986617
0.0132073
0.00992038
0.0149434
0.00997762
0.010087
0.0100025
0.0186747
0.00991301
0.00984715
0.00987488
0.0109457
0.0102571
0.00998237
0.0119733
0.00991711
0.0101467
0.00993998
0.0127145
0.0114446
0.00995882
0.00993765
0.0128046
0.00991056
0.0107401
0.0166482
0.00992214
0.0101092
0.00992321
0.00991102
0.00993083
0.00989002
0.0100158
0.0117129
0.01183
0.00998261
0.0103173
0.0100476
0.00989328
0.010022
0.00987274
0.0099883
0.0100005
0.00995386
0.0126931
0.0103623
0.0120872
0.00991264
0.00992414
0.0099092
0.00992486
0.0191049
0.00993759
0.0107851
0.00995993
0.00992937
0.0101907
0.00997051
0.0100448
0.010198
0.00994755
0.0173692
0.00992023
0.0110381
0.0100023
0.0180948
0.0101296
0.0101377
0.00999554
0.00990749
0.0100733
0.00990803
0.00996773
0.0123761
0.0115453
0.0131885
0.00998233
0.00991129
0.0100164
0.00986587
0.0210644
0.0100409
0.0100504
0.00997235
0.00998998
0.00996293
0.0100602
0.0100038
0.0175799
0.00996756
0.00999521
0.0157991
0.0115826
0.0105376
0.0186139
0.0100879
0.0099455
0.010441
0.018627
0.00999066
0.0146866
0.00991578
0.00988548
0.00995797
0.00992708
0.009939
0.00989673
0.00994977
0.0123835
0.0100014
0.0100663
0.00994568
0.01007
0.00987488
0.00985836
0.0104179
0.00993335
0.0123854
0.00994573
0.00991198
0.0104676
0.00994759
0.0102794
0.0099152
0.0126675
0.017555
0.010439
0.0178878
0.00994084
0.00995766
0.0100098
0.0100101
0.00994897
0.00996317
0.0180799
0.0100318
0.00995646
0.0112559
0.0173985
0.00993544
0.00993228
0.017239
0.0100052
0.0167827
0.009925
0.00995204
0.00994584
0.00996131
0.00988463
0.00991613
0.00994916
0.0183081
0.0127196
0.00990917
0.0100152
0.0192458
0.00988687
0.00992539
0.00988521
0.00994159
0.0101376
0.0099095
0.00994169
0.00995361
0.01162
0.00994297
0.00992514
0.0123196
0.00989758
0.0100078
0.00997855
0.010076
0.00987509
0.0099605
0.00987925
0.0100097
0.0099035
0.010012
0.0104488
0.0101629
0.00991435
0.0101044
0.010094
0.00996952
0.00998468
0.0121233
0.0110846
0.00986513
0.00995742
0.00989639
0.0099418
0.0099087
0.0098892
0.00991097
0.0178485
0.00994151
0.00990497
0.0170552
0.00994492
0.00995033
0.0131249
0.0100317
0.00993888
0.00988895
0.00995348
0.00994457
0.00989101
0.01055
0.0101767
0.0116865
0.00992413
0.00999621
0.0170146
0.0107788
0.0105501
0.0100113
0.011426
0.00991213
0.00991066
0.00999595
0.010014
0.0101394
0.0112812
0.00997066
0.00995166
0.009971
0.010073
0.0100051
0.00999273
0.00997418
0.012539
0.00994896
0.00997848
0.0101455
0.0121054
0.0104864
0.00990562
0.0099081
0.0112997
0.00990374
0.00992394
0.00998615
0.00991255
0.00993694
0.00998729
0.00988175
0.00990749
0.0102771
0.00990653
0.00987234
0.0121788
0.0104943
0.00995221
0.0100157
0.011723
0.0099497
0.00992562
0.00996285
0.00996356
0.00997667
0.00997564
0.0100217
0.00998849
0.0157976
0.0100881
0.00996049
0.0104136
0.0099923
0.0127591
0.00999623
0.0101562
0.0102976
0.0117801
0.0100935
0.0101029
0.0099771
0.0122041
0.0101052
0.0122049
0.00995235
0.0103378
0.0102617
0.00994655
0.00993276
0.0106301
0.0099391
0.0100601
0.00996399
0.00992193
0.00995573
0.00991878
0.00988237
0.00988125
0.0105776
0.00992049
0.0115361
0.0124729
0.0100019
0.00999752
0.0145885
0.00999423
0.00995851
0.00988385
0.0100304
0.0181176
0.0099131
0.00991778
0.0099354
0.016453
0.0118353
0.0100806
0.0113278
0.00996681
0.00994238
0.00997754
0.0174534
0.0100189
0.0100107
0.0099882
0.00995507
0.00992728
0.0100327
0.0099359
0.0099224
0.00993322
0.00994747
0.0125678
0.00999839
0.00993628
0.00996416
0.010286
0.00994532
0.00996633
0.00999008
0.0180529
0.0100081
0.0101318
0.0122777
0.00995886
0.0118928
0.00994745
0.0099109
0.00991355
0.0112808
0.0100393
0.00990869
0.0103243
0.00997848
0.00998015
0.0173914
0.00995285
0.00990469
0.0105186
0.0214546
0.0120238
0.00991878
0.0100597
0.0100063
0.0100757
0.0106141
0.0100655
0.012765
0.0100282
0.00997069
0.0100093
0.0107005
0.0100195
0.0175112
0.00996193
0.0100296
0.0099086
0.0124938
0.00993031
0.00986644
0.0144837
0.0099705
0.0100219
0.00988374
0.0100311
0.00991578
0.0147006
0.0100302
0.00995298
0.018212
0.0121247
0.011377
0.00995384
0.00998741
0.0099385
0.0108604
0.00996266
0.0163938
0.00994542
0.0099205
0.00987658
0.00990666
0.00994809
0.0100184
0.0133595
0.0125156
0.0100428
0.00993024
0.0159249
0.0167001
0.00991051
0.00989532
0.0098929
0.0100062
0.00997783
0.00995578
0.0100007
0.0107978
0.0100826
0.0102851
0.00994553
0.00998496
0.0126238
0.0166317
0.00996423
0.00996666
0.00992718
0.0100145
0.00993778
0.0127795
0.00987454
0.00998196
0.0126848
0.0196743
0.00998681
0.00994236
0.0131558
0.020544
0.00990973
0.0100163
0.0182453
0.0101169
0.00991162
0.00993558
0.00992473
0.00999956
0.00993713
0.0171722
0.0118396
0.00990207
0.00993055
0.00996896
0.0101377
0.0105731
0.0106732
0.011359
0.00998077
0.0212333
0.00993249
0.00985688
0.00995839
0.0106454
0.0186641
0.00995712
0.00992331
0.0099378
0.0098875
0.00995866
0.00992985
0.0121833
0.010655
0.0169279
0.00990146
0.00989399
0.00994
0.010664
0.0100135
0.00993032
0.00996183
0.00992476
0.0099817
0.00988581
0.00994555
0.0104427
0.0182639
0.00996656
0.0133341
0.0100373
0.00990668
0.00996551
0.0179445
0.00992029
0.0103441
0.0186836
0.0192375
0.0100411
0.00990959
0.0099429
0.00998793
0.00994785
0.00997992
0.0122716
0.012715
0.0120786
0.00995783
0.00987306
0.00991692
0.0101036
0.00997389
0.00991384
0.0188278
0.0100866
0.0177507
0.00991948
0.00998606
0.0155574
0.0099874
0.00998431
0.00996141
0.00999899
0.0105647
0.0129475
0.00991796
0.0120006
0.00998462
0.00999307
0.0101879
0.0101929
0.0127037
0.00994508
0.0117849
0.00996167
0.00992245
0.00989596
0.0107917
0.0100871
0.00998861
0.0100119
0.00990915
0.0133317
0.0119252
0.00988585
0.00988418
0.0105043
0.0100203
0.00991043
0.0100168
0.00994834
0.0166775
0.0190622
0.0109221
0.00991488
0.00994021
0.00990297
0.0168164
0.0118348
0.00990741
0.0101349
0.0105034
0.00994621
0.0100075
0.00990402
0.00994904
0.00997784
0.00999546
0.00999893
0.0100313
0.00987279
0.00992221
0.00999619
0.0104245
0.00993278
0.00993745
0.0121286
0.0105208
0.00999594
0.0109815
0.0100157
0.00991101
0.00997674
0.00996642
0.00998131
0.00990985
0.00995383
0.00998843
0.0118664
0.0167588
0.00991327
0.00990586
0.0171768
0.00996651
0.00996773
0.00994982
0.00997165
0.0199553
0.00996814
0.00994516
0.0101262
0.00989492
0.00989976
0.0177977
0.00990703
0.0160669
0.00983578
0.0189825
0.00994081
0.00995043
0.00991873
0.0181985
0.0106081
0.00993913
0.00993214
0.0105172
0.0106593
0.0101436
0.00995766
0.0126752
0.00993282
0.00992746
0.010365
0.0105211
0.0152323
0.00999344
0.00987296
0.00998168
0.0100219
0.009925
0.0100188
0.00997652
0.0152451
0.012999
0.0159012
0.0100022
0.00998248
0.0129005
0.0201449
0.0105154
0.018175
0.0100201
0.0170872
0.00990455
0.00996926
0.00999304
0.0106121
0.00995281
0.0123565
0.0105322
0.00991479
0.00989683
0.00987658
0.0100485
0.0100728
0.0184781
0.00992931
0.00998235
0.0100336
0.0100473
0.0100007
0.00990493
0.0099537
0.0109883
0.0131
0.0100517
0.00998195
0.0128695
0.00998664
0.00995131
0.0124627
0.0156933
0.0099731
0.0105327
0.0104574
0.0188416
0.0106064
0.0123038
0.0185213
0.0123363
0.0193887
0.00994838
0.0100609
0.00996368
0.0184967
0.00998187
0.0100303
0.00990639
0.00989905
0.0100286
0.0125414
0.00994835
0.0101339
0.00987932
0.00996997
0.00990211
0.0191668
0.00996517
0.0100142
0.0187209
0.0125577
0.00989067
0.00999468
0.0180846
0.0099591
0.0100064
0.00996597
0.00994066
0.0115742
0.010122
0.0101042
0.00993304
0.00997221
0.00994868
0.0099329
0.00991131
0.00995119
0.00996791
0.00990424
0.00993191
0.00999301
0.00997179
0.0100569
0.0100096
0.00992939
0.0115081
0.00992762
0.0115697
0.0166632
0.0106891
0.00993573
0.00996086
0.0099017
0.00997401
0.00994283
0.00999797
0.0100021
0.01904
0.0179075
0.0146959
0.0105044
0.0145924
0.0098954
0.0122053
0.00994667
0.0123974
0.0164874
0.0100404
0.0105449
0.00994631
0.00990504
0.00986059
0.0129653
0.0119508
0.00988073
0.0101511
0.0183706
0.00998006
0.0103377
0.0100604
0.00997789
0.00995552
0.00995963
0.010004
0.00996843
0.0100306
0.0115043
0.0118038
0.0109678
0.0127706
0.00988681
0.0100826
0.0103926
0.010739
0.00996115
0.00990826
0.00993708
0.010482
0.00989927
0.0173598
0.0105701
0.0098898
0.0119462
0.00996793
0.0101475
0.00992687
0.00997583
0.00988797
0.00995413
0.0100203
0.00993099
0.0100017
0.00997533
0.0175976
0.0178694
0.0100561
0.00993594
0.00989898
0.0100852
0.00990447
0.0187237
0.00999109
0.00990954
0.00990595
0.0100233
0.0119131
0.0104122
0.0110501
0.0100399
0.0101676
0.00991328
0.0178903
0.0100033
0.0120192
0.0099925
0.00995664
0.010947
0.00991256
0.00990906
0.0122316
0.0167027
0.00990874
0.0172416
0.00991735
0.00991157
0.01009
0.0099806
0.0100013
0.0098927
0.0173901
0.00993037
0.00991016
0.00993767
0.0187639
0.00994057
0.00988012
0.0100012
0.00995933
0.012258
0.00997509
0.016748
0.00993613
0.00995576
0.00986977
0.00995033
0.0121503
0.0178607
0.00994368
0.0099698
0.0116113
0.00992245
0.0124918
0.00986669
0.0105602
0.0177592
0.00990368
0.00992309
0.0100915
0.00987044
0.00990494
0.00996209
0.0122268
0.00991418
0.0173993
0.0103247
0.00985581
0.00988187
0.0100426
0.0179278
0.0116671
0.00993152
0.00997491
0.0100508
0.00995462
0.0100305
0.0193954
0.00987235
0.0101239
0.00989527
0.0110794
0.00991442
0.00997556
0.00988755
0.0100015
0.00994722
0.0106053
0.0100207
0.0117608
0.00991039
0.0100272
0.0100476
0.0100673
0.00993637
0.0098755
0.0119489
0.0100115
0.0105072
0.0173036
0.00992998
0.0115295
0.00990694
0.0179344
0.0116593
0.0105591
0.0100854
0.00995521
0.012177
0.0157601
0.00994906
0.00994341
0.00998605
0.0100114
0.0199483
0.0100489
0.0122681
0.00997193
0.00992695
0.0103891
0.00998194
0.00995943
0.00995832
0.00994752
0.010016
0.00998698
0.00999131
0.0099114
0.0141901
0.0204502
0.00993211
0.0199745
0.00979409
0.00992766
0.0100299
0.00990558
0.00999176
0.0123255
0.00994481
0.0107113
0.00994978
0.0114274
0.00990699
0.00995609
0.0102691
0.0100076
0.0117779
0.00994051
0.00997364
0.00996536
0.0100273
0.0196629
0.0184703
0.00996516
0.00991783
0.00994471
0.00994814
0.0184536
0.00997614
0.0103893
0.00989487
0.0099923
0.0125476
0.00995296
0.00994293
0.0120893
0.0149282
0.00993578
0.00994547
0.0167527
0.00999184
0.0115794
0.0168852
0.00991452
0.00988276
0.00994725
0.00990606
0.00993056
0.00993742
0.00988209
0.0100494
0.00999085
0.00991391
0.00994056
0.0172454
0.0121011
0.00995506
0.00996188
0.00995666
0.0184541
0.0169757
0.0100134
0.0147077
0.00995789
0.00991656
0.00995062
0.0125317
0.010336
0.00988903
0.00995459
0.00995346
0.0099583
0.010398
0.0167767
0.0100336
0.0179256
0.0111161
0.0128961
0.0115949
0.0100021
0.00994037
0.0101183
0.00993578
0.00987752
0.0100016
0.00991671
0.0101007
0.0108052
0.00989297
0.0099382
0.0100179
0.0125657
0.00999096
0.0166175
0.00994204
0.0117617
0.0099397
0.0100036
0.0101528
0.0152683
0.00996516
0.0105581
0.0192058
0.00993896
0.01778
0.0107652
0.00990783
0.0101838
0.00992868
0.0125322
0.00996052
0.0105354
0.00989576
0.00995123
0.00991392
0.00987828
0.0120457
0.00994137
0.00996762
0.00991953
0.0100147
0.00988225
0.00991852
0.0100017
0.0182185
0.0119847
0.0099175
0.00995784
0.00998463
0.0115312
0.00993119
0.0103675
0.00997999
0.00996442
0.0099637
0.010377
0.0106749
0.0185769
0.00993006
0.00998272
0.0107657
0.00992769
0.0175576
0.0098966
0.00993295
0.0178823
0.00996478
0.00995889
0.0100432
0.0116994
0.0185758
0.0128707
0.0104351
0.0104394
0.0172818
0.0173935
0.0164278
0.00997163
0.00993447
0.00994614
0.0100584
0.0101017
0.019325
0.00999569
0.00992384
0.0196762
0.0194671
0.0172676
0.00997753
0.0150471
0.00990353
0.0100904
0.00993486
0.0100282
0.0119537
0.00998668
0.00991002
0.0100195
0.00987573
0.00992231
0.00992226
0.0106036
0.00990402
0.00991214
0.00992924
0.0196496
0.00993764
0.0100229
0.00992684
0.0098809
0.00988588
0.0104044
0.0122148
0.0182119
0.00990486
0.00989893
0.00995049
0.00993169
0.0109998
0.00986121
0.0109886
0.00990276
0.00989892
0.0120231
0.0114539
0.00994606
0.009967
0.00990785
0.00992335
0.0100005
0.0102612
0.00993094
0.0100238
0.00988928
0.0100356
0.00996433
0.00998631
0.00993151
0.00991638
0.0193404
0.0120599
0.0175282
0.00995486
0.0100866
0.00995995
0.0105166
0.00992245
0.0110104
0.0105937
0.0178152
0.00992948
0.00991492
0.0101024
0.0175596
0.0112239
0.0108813
0.0179199
0.0115764
0.0100082
0.00993767
0.0172989
0.0126765
0.0104613
0.00990262
0.0100929
0.00995127
0.00991726
0.00990986
0.00985644
0.0100662
0.0118542
0.00990921
0.00996595
0.0099917
0.0099344
0.00997439
0.00998065
0.0102003
0.00995528
0.0105655
0.00990844
0.00990714
0.00995393
0.0201822
0.00997946
0.0178838
0.00993152
0.00992489
0.0100573
0.00994224
0.0105131
0.0185976
0.0108972
0.00997014
0.00992394
0.00997887
0.0100196
0.0133888
0.00999633
0.00997395
0.00996571
0.0100729
0.0154694
0.00990675
0.00993096
0.00988334
0.00996192
0.0099705
0.00991832
0.00989753
0.0100038
0.00997338
0.0102137
0.00993031
0.00993057
0.0100908
0.0165441
0.0186888
0.0100195
0.00989724
0.00996217
0.00989686
0.0173893
0.0100788
0.00996568
0.0100784
0.00987171
0.00989316
0.00995203
0.010018
0.00989344
0.00996233
0.00994767
0.0117503
0.00992409
0.00993417
0.0180547
0.00992114
0.00993334
0.00993609
0.00996998
0.00990589
0.0132199
0.0100483
0.0100015
0.00995183
0.00998139
0.00992042
0.00994204
0.00996858
0.00987252
0.0168659
0.00986964
0.0118448
0.012501
0.00993845
0.0169639
0.00994001
0.00995963
0.00997222
0.0105617
0.0100197
0.0176281
0.00990136
0.0125715
0.00999577
0.0099475
0.0099019
0.00993589
0.00992039
0.00991604
0.00990815
0.0100405
0.00992706
0.00991699
0.0117491
0.0100251
0.0101213
0.0100145
0.0104735
0.00996153
0.0099216
0.00995915
0.0177454
0.0100639
0.0170224
0.0100235
0.0167456
0.0120594
0.00988033
0.00998902
0.00999385
0.00992751
0.0162499
0.00994927
0.0168314
0.017008
0.0100336
0.0107965
0.00989893
0.00993802
0.00990352
0.0188816
0.0106106
0.0128875
0.00993279
0.00996748
0.0100854
0.00990945
0.0100834
0.0107206
0.0099425
0.0170586
0.00998241
0.00997583
0.0100203
0.00998086
0.00998077
0.00993389
0.010037
0.00990301
0.00995984
0.00999421
0.00999973
0.00992163
0.00995591
0.0100147
0.010014
0.00996128
0.00999249
0.0100103
0.0101034
0.00997956
0.0115564
0.00999575
0.0100081
0.0102492
0.00992658
0.00996758
0.0197203
0.00995949
0.0099604
0.0100077
0.00992704
0.0117343
0.00989564
0.00988971
0.00997969
0.00994004
0.0107376
0.0104836
0.00988525
0.0122787
0.0121842
0.018615
0.00997495
0.00993468
0.00995986
0.0100281
0.010128
0.00996997
0.0109456
0.00993609
0.010012
0.00997494
0.00994237
0.0100088
0.0128284
0.0192398
0.017302
0.0102746
0.00996405
0.0100992
0.00996955
0.0100062
0.00998968
0.0101002
0.0191497
0.00993434
0.0099794
0.00998082
0.00994903
0.0104324
0.0105955
0.00997865
0.0116644
0.00989132
0.00997037
0.00992694
0.00994968
0.0100411
0.010377
0.0099491
0.00990927
0.00999531
0.00992569
0.00990272
0.00995895
0.0121482
0.0099513
0.00990087
0.0105973
0.0121245
0.00989039
0.0114674
0.0100234
0.00998201
0.011242
0.00999873
0.00988924
0.0099319
0.0100402
0.0100222
0.00996515
0.00991886
0.0099646
0.0100129
0.00990871
0.0103772
0.0100568
0.0105551
0.010004
0.0100153
0.00992073
0.00990343
0.00992327
0.00998493
0.0179661
0.0100514
0.019079
0.0100829
0.0100338
0.0100421
0.0100504
0.0102135
0.0124132
0.0121644
0.00989379
0.0101023
0.0109027
0.00995231
0.0118758
0.00993123
0.00994897
0.010051
0.00992317
0.00992157
0.00992322
0.00994253
0.0116585
0.0100005
0.0128858
0.0129594
0.0105151
0.00989713
0.00999215
0.00994745
0.0122894
0.0100066
0.00993812
0.0100196
0.0100282
0.00999164
0.0120228
0.0115591
0.0121719
0.0103574
0.00991866
0.0106072
0.00999048
0.0105536
0.0181609
0.00999297
0.0119282
0.0192155
0.0180403
0.00993717
0.00989361
0.00994654
0.0107688
0.00995401
0.0124935
0.00990859
0.0105215
0.00999415
0.00994276
0.019609
0.00993843
0.0099784
0.00996938
0.00994793
0.00995152
0.0100269
0.00995604
0.00989286
0.00990519
0.016731
0.0100263
0.0105812
0.0100063
0.0131211
0.00999097
0.00991491
0.010038
0.00988529
0.0175237
0.0100276
0.00994362
0.00999058
0.00997731
0.0099265
0.00997104
0.00985745
0.0100147
0.00989963
0.0104994
0.0106173
0.0100126
0.00992569
0.00996653
0.0100185
0.00999057
0.00992801
0.0098807
0.0122989
0.00989946
0.00995423
0.012232
0.00990928
0.0127462
0.010026
0.0103872
0.0115371
0.0100809
0.0117693
0.0159011
0.0173516
0.0128474
0.0119305
0.00994052
0.00997656
0.00989277
0.0099493
0.010508
0.00993366
0.00988264
0.00992819
0.0188444
0.00988505
0.00990043
0.00989116
0.0099254
0.018041
0.0128915
0.00990349
0.0162183
0.00995315
0.0121611
0.00998063
0.0100451
0.0100244
0.0099804
0.00992868
0.0116377
0.017892
0.0115932
0.00987528
0.0105309
0.0202436
0.0100647
0.010225
0.0170425
0.00996175
0.0141707
0.00992865
0.00996537
0.00993269
0.00995712
0.0210531
0.0102274
0.0134226
0.00990965
0.00995748
0.00992491
0.010036
0.00992585
0.010004
0.0132511
0.00994131
0.00990704
0.00997306
0.00996098
0.0103566
0.017797
0.0100641
0.0100055
0.00995522
0.0103765
0.00997625
0.0176635
0.0151394
0.0115731
0.00995791
0.0129969
0.0100254
0.0170423
0.0116886
0.0100441
0.0106086
0.0118115
0.0125271
0.00992026
0.00999635
0.00996009
0.0106407
0.00994401
0.00990252
0.0101069
0.00990277
0.00994183
0.0100167
0.00992153
0.0168238
0.00993916
0.00992131
0.0105416
0.0153468
0.00994926
0.00992582
0.0100419
0.00993231
0.0196621
0.0099529
0.00991872
0.0192053
0.00986894
0.00991275
0.00993036
0.0115885
0.00990487
0.0110415
0.00993928
0.0106895
0.0181969
0.00986417
0.00997357
0.0102736
0.00993974
0.00992722
0.00994469
0.010011
0.0104934
0.0161856
0.0099304
0.00990059
0.00994868
0.00993847
0.0104401
0.00997942
0.0106911
0.0106166
0.00993222
0.00995838
0.00990938
0.00995489
0.0100802
0.0117966
0.010875
0.00991419
0.00991785
0.0112308
0.0128016
0.0100085
0.00992952
0.00995614
0.0180973
0.0100031
0.0100161
0.00996865
0.00988691
0.00992932
0.00989069
0.00992106
0.00998003
0.00993402
0.009943
0.0173838
0.0184599
0.00996646
0.00989407
0.00995759
0.00998581
0.00989638
0.00997883
0.00990736
0.00990332
0.0101615
0.00990255
0.00999431
0.00990184
0.00989643
0.0101309
0.00999097
0.00996107
0.0158302
0.00995925
0.0099603
0.0100627
0.00992581
0.00992875
0.0100845
0.0120235
0.00988308
0.00992226
0.00996877
0.00986537
0.0125153
0.00998957
0.00992338
0.019228
0.0098888
0.0126554
0.00994576
0.0100377
0.00992865
0.0100213
0.00989479
0.0119717
0.0167777
0.0156997
0.00988285
0.0120641
0.00990744
0.00996528
0.0122027
0.00992891
0.0100104
0.00989894
0.00993432
0.00998394
0.0101892
0.00991646
0.00994277
0.0179689
0.00995553
0.0116007
0.0204486
0.0099404
0.0104193
0.00991882
0.00997987
0.00992027
0.00992196
0.00990678
0.00996628
0.00995885
0.00993797
0.0116598
0.0131723
0.0101158
0.0100468
0.00993344
0.00992936
0.00988492
0.00999761
0.0099313
0.00996585
0.00994523
0.00997808
0.00999131
0.00995411
0.00993042
0.0098924
0.00989555
0.00991139
0.0123372
0.00988379
0.00992958
0.00992389
0.0100004
0.0098793
0.0098684
0.012108
0.0100221
0.0105764
0.0114141
0.0100206
0.00994634
0.00993274
0.0099834
0.00991849
0.0186833
0.00997404
0.0100498
0.0100045
0.0103527
0.0100008
0.01001
0.00993972
0.010136
0.00989831
0.00990328
0.00990366
0.0188545
0.00996473
0.00989033
0.0100025
0.0101218
0.0101096
0.00988734
0.0117661
0.00995287
0.0112168
0.00990527
0.00991601
0.00990319
0.00996687
0.0101155
0.0100964
0.0116985
0.016918
0.00991811
0.00989971
0.0125367
0.0117659
0.00991858
0.00995204
0.0109168
0.00988351
0.00988134
0.00990428
0.00994534
0.0180892
0.00998379
0.0100139
0.0124269
0.00988641
0.0104902
0.00990112
0.0175994
0.0117626
0.00991395
0.0106273
0.00995149
0.0106061
0.00995995
0.0126923
0.0128997
0.00993048
0.0158915
0.0108062
0.00999276
0.0173245
0.0099259
0.0112303
0.0105222
0.0103979
0.00993675
0.0128509
0.0124892
0.00994132
0.00989069
0.00996314
0.0106252
0.0100639
0.00987012
0.00989857
0.010355
0.0099861
0.00997973
0.00991998
0.0101217
0.0100215
0.00999003
0.00991128
0.0207549
0.00993102
0.00993462
0.0100425
0.01292
0.0100187
0.0198671
0.0100565
0.0100303
0.0098632
0.00997127
0.00990618
0.00992506
0.0101942
0.00987244
0.00992253
0.0100233
0.00998164
0.0101605
0.00992161
0.00994102
0.0106077
0.00997954
0.0102814
0.00994332
0.00994546
0.0104609
0.00991903
0.0100504
0.0171741
0.00994355
0.0174706
0.0116703
0.00986314
0.00997204
0.0098915
0.0141164
0.00993218
0.0100156
0.00983034
0.010471
0.00989525
0.0130627
0.00990907
0.00999588
0.0100424
0.00996415
0.010024
0.00994297
0.0154214
0.00990993
0.0100022
0.0100006
0.0195862
0.0107591
0.0100125
0.010222
0.00989218
0.0103841
0.0100014
0.00990604
0.0105093
0.0108691
0.0100177
0.018198
0.00998205
0.0123863
0.0100006
0.010019
0.00993844
0.011854
0.0100964
0.00998306
0.00990946
0.00994864
0.0101743
0.0192366
0.0186641
0.00997662
0.0194628
0.00984807
0.0127279
0.00989843
0.00984249
0.0100373
0.0100378
0.013107
0.0103857
0.0106085
0.00988822
0.0121754
0.0100169
0.00988696
0.00995113
0.0103965
0.0119934
0.0130725
0.00985522
0.0104652
0.00991032
0.00988593
0.0100127
0.0116205
0.0117717
0.00987904
0.0098984
0.0106263
0.00992144
0.0100143
0.00984879
0.00991031
0.00998198
0.00987747
0.00988547
0.00995389
0.00998591
0.00994447
0.0103672
0.0100104
0.0182938
0.0128681
0.00998631
0.00992557
0.00990622
0.0124407
0.0115206
0.0099697
0.00992371
0.00994444
0.0122898
0.00994087
0.00991641
0.0100304
0.0104218
0.00998642
0.0131077
0.0174326
0.00989906
0.0181463
0.00995277
0.0134315
0.00994808
0.0100256
0.00991851
0.0173288
0.0204989
0.00991593
0.00999763
0.012198
0.0101171
0.00996025
0.0127084
0.0184405
0.0186118
0.0155181
0.0101423
0.0184752
0.00991812
0.0099145
0.0127234
0.0172048
0.0100185
0.0100014
0.00992586
0.00996325
0.00999567
0.0204925
0.00991705
0.0115428
0.00997016
0.0146041
0.00990346
0.00989846
0.00982738
0.00993819
0.0173931
0.00993319
0.00993956
0.00990955
0.0174815
0.0100091
0.0106286
0.00997803
0.0104594
0.0175096
0.00998166
0.00997871
0.00999707
0.00993463
0.00989385
0.0105852
0.0130426
0.0114059
0.00985187
0.00986594
0.00984971
0.0129606
0.00988841
0.0175978
0.0188384
0.00996397
0.00989299
0.0111784
0.0117471
0.00994564
0.00994732
0.00987467
0.00990094
0.00996489
0.0100772
0.00984194
0.00993078
0.00988411
0.0107052
0.0179467
0.00999344
0.00998116
0.00992279
0.00996955
0.0189551
0.00993457
0.00994561
0.0115796
0.0101168
0.0100264
0.00997948
0.00994901
0.00988729
0.00993657
0.0127272
0.0100527
0.00996368
0.0100002
0.00995508
0.0100535