/*--------------------------------*- C++ -*----------------------------------*\
| =========                 |                                                 |
| \\      /  F ield         | OpenFOAM: The Open Source CFD Toolbox           |
|  \\    /   O peration     | Version:  2406                                  |
|   \\  /    A nd           | Website:  www.openfoam.com                      |
|    \\/     M anipulation  |                                                 |
\*---------------------------------------------------------------------------*/
FoamFile
{
    version     2.0;
    format      ascii;
    arch        "LSB;label=32;scalar=64";
    class       volVectorField;
    location    "2";
    object      momentum:angularMomentum;
}
// * * * * * * * * * * * * * * * * * * * * * * * * * * * * * * * * * * * * * //

dimensions      [1 1 -1 0 0 0 0];

internalField   nonuniform List<vector> 
59516
(
(-2.2248e-08 -2.98678e-08 3.57543e-07)
(3.17931e-08 6.45093e-09 2.70503e-07)
(5.64831e-10 -3.4133e-09 2.42509e-07)
(-8.28405e-09 9.32664e-09 1.94434e-07)
(2.50799e-10 -3.51178e-09 2.52266e-07)
(-2.17695e-08 1.21308e-08 5.57008e-08)
(1.22186e-08 -7.27635e-09 2.56994e-07)
(2.52776e-08 -2.27844e-08 3.3918e-07)
(-1.34623e-08 7.27024e-09 2.14301e-07)
(-2.01628e-08 -1.35377e-08 2.21692e-07)
(-2.08511e-09 -1.00311e-08 1.72199e-07)
(1.44654e-09 -1.62743e-08 3.00469e-07)
(1.16825e-08 -1.09684e-09 5.62232e-07)
(-3.68938e-09 -3.08977e-09 7.60405e-08)
(1.81727e-08 4.37459e-08 4.9709e-07)
(3.64701e-08 -9.28214e-09 2.76132e-07)
(3.5905e-09 -6.44603e-10 2.33922e-07)
(-1.78522e-08 2.37549e-08 4.14222e-07)
(3.59583e-08 1.45659e-08 5.12698e-07)
(-5.68714e-09 -5.98601e-09 3.64226e-07)
(-6.77665e-09 1.23569e-08 3.57137e-07)
(2.67746e-08 8.39449e-09 3.33766e-07)
(6.29902e-09 -1.13164e-08 3.89743e-07)
(-6.93229e-09 1.77599e-08 1.60165e-07)
(-1.40742e-08 5.99643e-09 3.21178e-07)
(4.41743e-08 5.02859e-09 6.06971e-07)
(-1.17256e-08 5.79076e-09 2.00185e-07)
(3.10334e-08 -2.44812e-08 2.72342e-07)
(-1.43626e-08 3.10094e-08 4.15859e-07)
(-3.31868e-09 -3.38798e-09 7.38302e-08)
(-1.51078e-08 -3.11249e-09 2.67433e-07)
(4.90006e-08 1.44937e-08 2.9659e-07)
(6.8617e-09 -1.65871e-08 1.86435e-07)
(1.02902e-08 2.80738e-08 2.35879e-07)
(1.37415e-08 3.68181e-09 1.26857e-07)
(-2.09106e-09 1.77508e-08 4.64241e-07)
(1.5219e-08 6.90047e-09 7.13244e-08)
(9.69399e-10 -1.56058e-08 3.13176e-07)
(-3.32054e-09 9.58202e-09 5.11483e-07)
(1.49774e-08 -2.64695e-08 3.02209e-07)
(-4.76238e-09 5.87138e-09 4.27867e-07)
(-4.38815e-09 -2.82465e-08 4.72709e-07)
(4.06176e-08 2.4458e-08 3.85387e-07)
(8.82471e-10 -1.77538e-08 1.53341e-07)
(6.74476e-09 -1.77103e-09 2.96406e-07)
(-4.90106e-08 5.22299e-09 3.17079e-07)
(-3.72286e-08 -2.89069e-08 4.30376e-07)
(8.02309e-09 5.3797e-10 2.44076e-07)
(2.01152e-09 1.95103e-08 3.68148e-07)
(-2.18427e-09 -4.7695e-09 2.234e-07)
(-1.9787e-08 -1.57309e-09 1.7834e-07)
(1.68414e-08 -2.68882e-09 3.05373e-07)
(1.47318e-08 8.48727e-09 4.7951e-07)
(-4.90384e-09 -7.77416e-09 4.22142e-07)
(2.78589e-08 1.52772e-08 2.97941e-07)
(2.9875e-08 -1.85596e-09 3.39454e-07)
(-1.51619e-08 -5.19129e-10 1.8769e-07)
(3.83897e-08 -3.29505e-08 3.15411e-07)
(8.56917e-09 4.09062e-09 1.55796e-07)
(8.42519e-10 5.39755e-09 1.42184e-07)
(-3.37864e-10 -1.91224e-08 2.17485e-07)
(-1.03681e-09 6.75792e-09 9.0999e-08)
(2.11851e-08 -6.78881e-09 2.18148e-07)
(2.00434e-08 -2.31032e-09 2.94702e-07)
(1.70743e-08 1.89685e-08 4.20407e-07)
(-3.98456e-09 3.08792e-09 1.94888e-07)
(-1.41904e-09 -5.76913e-10 8.95316e-08)
(9.92716e-09 1.92175e-08 2.86501e-07)
(-1.75411e-08 1.11783e-08 2.43694e-07)
(2.14983e-09 -6.76224e-09 1.8198e-07)
(1.66551e-08 -2.14322e-09 2.41036e-07)
(-4.50891e-09 -1.25542e-09 1.23649e-07)
(-8.50958e-09 6.3865e-09 1.21011e-07)
(-6.36572e-10 -2.03786e-09 1.88383e-07)
(8.27154e-09 1.09018e-08 3.12317e-07)
(-4.6139e-09 9.87701e-09 3.75749e-07)
(1.17803e-08 8.71482e-09 1.97742e-07)
(-5.99102e-10 1.20517e-08 2.09654e-07)
(-4.80027e-08 6.48396e-10 3.24436e-07)
(-8.88557e-09 -9.7534e-10 1.57647e-07)
(2.77813e-08 2.70154e-08 2.13973e-07)
(1.27534e-08 -6.81875e-09 1.46487e-07)
(5.28194e-09 -4.17811e-09 1.92581e-07)
(1.78991e-08 -3.84738e-09 9.85597e-08)
(9.98556e-09 -1.69574e-08 2.0178e-07)
(-5.60545e-09 2.73309e-09 3.10649e-07)
(-1.97114e-09 -2.26133e-08 1.27386e-07)
(-1.6015e-08 -1.0193e-08 5.66763e-07)
(2.25446e-08 8.16713e-09 3.46495e-07)
(-1.67384e-08 -1.25361e-08 2.55236e-07)
(-5.39746e-09 -1.46418e-08 1.91458e-07)
(-3.52325e-09 -9.85122e-09 1.80565e-07)
(6.05353e-09 2.52111e-11 2.26343e-07)
(-3.99635e-10 5.34925e-11 1.62779e-07)
(6.18088e-09 -1.24792e-08 1.45324e-07)
(-8.60289e-09 -6.07425e-09 2.38947e-07)
(1.86855e-10 -8.51729e-09 1.12825e-07)
(-2.55169e-08 -2.06479e-08 3.08228e-07)
(6.53359e-10 5.65926e-09 2.91188e-07)
(-9.59406e-09 -1.02762e-08 1.92463e-07)
(-1.77596e-09 -5.90281e-09 2.83779e-07)
(-1.2697e-10 3.39901e-09 1.44589e-07)
(-1.10126e-08 -7.23482e-09 1.2727e-07)
(-8.45632e-09 -1.4592e-08 2.70793e-07)
(9.12799e-10 -7.675e-09 2.77081e-07)
(1.78123e-10 -1.30101e-09 1.33217e-07)
(-2.94401e-08 9.37111e-09 2.20093e-07)
(-8.67461e-09 7.98941e-09 1.63921e-07)
(8.51579e-09 1.37801e-08 2.79023e-07)
(1.77086e-08 -3.13826e-09 6.19174e-07)
(-1.28835e-08 1.14764e-08 3.06238e-07)
(-1.44871e-08 2.16511e-08 2.36347e-07)
(-2.70784e-08 9.1366e-09 5.43635e-07)
(-1.07015e-08 -7.34775e-10 2.94666e-07)
(-8.65521e-09 3.06577e-09 2.17796e-07)
(1.59595e-08 -4.24332e-09 2.05497e-07)
(3.92759e-08 2.07807e-08 4.00349e-07)
(-7.29438e-09 1.24379e-08 1.59787e-07)
(-1.65202e-09 -4.83724e-09 1.06565e-07)
(-2.84119e-08 -5.36663e-09 2.61124e-07)
(2.04297e-08 -4.60807e-09 3.43786e-07)
(1.37778e-10 -5.30907e-09 1.42447e-07)
(-1.04793e-09 6.98594e-09 1.42814e-07)
(-8.24737e-10 9.59556e-09 1.40837e-07)
(1.5194e-09 2.45636e-09 1.34627e-07)
(-1.39047e-08 8.60347e-09 2.4144e-07)
(2.44031e-08 -1.051e-08 1.77982e-07)
(2.31518e-08 2.05387e-08 2.28929e-07)
(-9.16205e-09 2.21761e-08 3.17306e-07)
(1.2209e-08 -4.81898e-09 1.09434e-07)
(-5.88695e-09 -2.52093e-08 2.33094e-07)
(2.3891e-08 3.86435e-08 4.92675e-07)
(1.01335e-08 2.87366e-09 1.19879e-07)
(-2.9956e-09 2.96044e-09 2.6861e-07)
(-5.29891e-09 1.10493e-08 6.07738e-07)
(-1.10281e-08 1.13535e-08 2.41317e-07)
(1.2762e-09 2.61075e-09 2.27525e-07)
(-4.71698e-12 1.81011e-08 4.26732e-07)
(5.9229e-09 4.03448e-09 2.272e-07)
(4.21642e-09 -2.33309e-08 2.54971e-07)
(-2.99104e-09 -8.95863e-09 3.27175e-07)
(1.09115e-08 -7.34052e-10 2.47823e-07)
(-3.62315e-09 -3.86967e-09 8.35324e-08)
(3.40648e-09 -2.37212e-09 1.54097e-07)
(1.32657e-09 9.21478e-09 1.74153e-07)
(-1.6847e-09 2.03251e-08 2.80973e-07)
(1.06136e-08 6.60477e-09 2.2691e-07)
(-5.62387e-11 1.10326e-08 2.77489e-07)
(-8.13521e-09 -2.26115e-09 1.21588e-07)
(7.35969e-09 3.95303e-10 2.93052e-07)
(1.00404e-08 -2.32496e-08 5.86329e-07)
(7.40803e-09 -2.4021e-08 2.21726e-07)
(2.45012e-08 -1.16073e-08 3.93348e-07)
(-2.14766e-09 4.28722e-09 2.10723e-07)
(1.81387e-09 1.10897e-08 3.08367e-07)
(2.67344e-09 -2.41201e-09 7.90109e-08)
(-1.00907e-08 3.88701e-08 3.9075e-07)
(-7.59718e-09 5.23678e-09 4.95237e-07)
(-8.77428e-09 1.46198e-08 2.60042e-07)
(8.77057e-09 -1.4092e-09 8.32669e-08)
(4.95911e-09 -1.55415e-08 2.21241e-07)
(-9.40577e-10 3.53813e-08 3.06396e-07)
(2.09678e-08 -1.27758e-08 1.69769e-07)
(8.09796e-09 2.7188e-09 1.06402e-07)
(1.45906e-08 2.66295e-09 3.14992e-07)
(-1.44446e-08 1.51431e-08 3.18763e-07)
(-3.38932e-08 -7.76023e-09 5.08053e-07)
(-1.61961e-08 -8.96696e-09 2.25851e-07)
(-1.13645e-08 -3.97165e-09 1.01285e-07)
(-6.75357e-09 1.66212e-08 2.04309e-07)
(4.73932e-09 -1.87922e-08 1.52342e-07)
(-7.76259e-09 1.61588e-09 2.2245e-07)
(-7.76716e-09 1.69286e-08 2.85627e-07)
(-3.24972e-09 -1.09968e-08 1.38759e-07)
(-2.15157e-09 4.95998e-10 2.95541e-07)
(-1.47234e-08 -2.60677e-08 6.05354e-07)
(5.78464e-09 -1.0977e-08 2.13463e-07)
(2.7109e-08 3.04844e-08 3.36458e-07)
(-3.61934e-08 -2.93578e-08 4.58178e-07)
(6.77261e-09 1.37206e-08 2.67837e-07)
(1.11124e-08 -5.13127e-09 3.34845e-07)
(-1.59577e-08 -2.94822e-09 2.03563e-07)
(1.56794e-08 5.72233e-10 1.4258e-07)
(1.07452e-08 4.33588e-09 2.79461e-07)
(-2.21819e-09 -2.61898e-09 1.60245e-07)
(-1.58803e-08 5.96586e-09 2.68798e-07)
(1.06683e-08 1.80107e-09 2.09864e-07)
(1.01291e-08 -3.92019e-09 1.18009e-07)
(3.76629e-09 -1.01639e-08 2.20928e-07)
(2.17165e-08 2.42984e-08 3.8635e-07)
(-1.19283e-08 -1.19602e-08 1.83872e-07)
(-2.10131e-11 1.08203e-08 4.2612e-07)
(-1.19579e-08 6.62473e-09 2.03401e-07)
(-1.97697e-09 6.37964e-09 2.74381e-07)
(1.38374e-08 6.16518e-09 3.5351e-07)
(-1.46805e-08 -6.67327e-09 1.30252e-07)
(-1.09108e-10 8.41355e-09 2.97759e-07)
(-1.63311e-08 -9.25415e-09 2.28046e-07)
(-1.09072e-08 -1.41058e-08 2.55604e-07)
(2.43755e-09 -2.88603e-09 2.82773e-07)
(-1.60225e-08 -3.35996e-09 1.45991e-07)
(4.36747e-09 -4.01225e-09 1.34095e-07)
(6.00107e-09 6.43786e-09 5.56631e-07)
(-7.92992e-09 5.96791e-09 1.0092e-07)
(-1.31093e-08 -5.50256e-10 2.41514e-07)
(2.94969e-08 1.00232e-08 2.66708e-07)
(1.3982e-08 5.10017e-09 2.97656e-07)
(4.14892e-11 2.63069e-09 1.69461e-07)
(2.14304e-09 -9.07858e-10 9.30961e-08)
(-1.74312e-08 2.87256e-08 5.01427e-07)
(-2.40135e-09 -7.10158e-09 1.93274e-07)
(1.58363e-08 -1.72615e-08 1.22888e-07)
(-3.93687e-09 2.16781e-09 2.50883e-07)
(-1.79311e-08 -1.00466e-08 3.09096e-07)
(2.33929e-08 -8.79083e-09 4.31125e-07)
(3.67637e-09 -7.05569e-10 2.43139e-07)
(5.43943e-09 1.3876e-08 3.12177e-07)
(-3.86354e-09 2.55074e-09 1.81568e-07)
(-8.12215e-09 -8.71252e-09 2.74086e-07)
(1.00111e-08 -5.40877e-09 2.04782e-07)
(2.97054e-10 2.11278e-08 4.20795e-07)
(2.27483e-08 7.59585e-10 3.00948e-07)
(-8.24843e-09 -1.20138e-09 1.36744e-07)
(-1.3997e-08 -2.26254e-08 3.72576e-07)
(-7.75328e-10 -9.68627e-09 2.57087e-07)
(-9.46125e-09 -8.03319e-09 2.51626e-07)
(-9.94452e-09 -4.92951e-09 1.64333e-07)
(2.47278e-08 6.69741e-09 2.39266e-07)
(-1.40238e-08 9.00916e-09 1.56366e-07)
(2.28438e-08 -4.29759e-09 4.49187e-07)
(-7.17791e-09 5.76478e-09 2.06237e-07)
(-1.01395e-08 5.62215e-09 1.42158e-07)
(-2.04301e-08 8.08352e-09 2.78881e-07)
(1.01634e-08 6.32015e-09 1.58499e-07)
(8.34948e-09 1.44375e-08 1.40606e-07)
(1.42322e-08 1.07243e-08 1.71534e-07)
(-3.8149e-09 5.57912e-10 3.0112e-07)
(1.60071e-08 -1.36274e-08 2.8772e-07)
(-2.44825e-09 2.3088e-08 4.07929e-07)
(-2.38591e-08 -7.81234e-09 2.66232e-07)
(5.31704e-09 2.3657e-09 1.87264e-07)
(-1.87798e-08 -5.47663e-10 1.05796e-07)
(1.2001e-08 -1.19537e-10 3.63762e-07)
(-1.78089e-09 1.22441e-08 1.52733e-07)
(1.46303e-08 -1.41533e-10 1.07777e-07)
(1.81419e-08 2.7665e-08 2.92254e-07)
(-1.0843e-08 -8.5547e-09 2.09973e-07)
(1.65287e-09 -4.44228e-08 5.78658e-07)
(3.10037e-09 1.79577e-08 2.47682e-07)
(1.25068e-08 9.6666e-09 3.10489e-07)
(4.34493e-08 -5.93352e-09 4.03847e-07)
(3.62078e-09 -4.82627e-09 2.27092e-07)
(1.69934e-08 8.0949e-10 1.40904e-07)
(-2.72308e-09 1.20538e-08 2.85136e-07)
(-1.30649e-08 2.16465e-08 2.91642e-07)
(-1.47982e-08 1.28318e-09 2.97509e-07)
(1.92205e-08 -7.29171e-09 3.87858e-07)
(1.20287e-08 1.23233e-08 2.7344e-07)
(-6.94038e-09 -1.1498e-08 3.46697e-07)
(-3.49294e-08 -2.40206e-08 2.83832e-07)
(-1.90863e-08 2.73073e-09 2.69226e-07)
(1.69011e-08 6.7333e-09 2.18456e-07)
(3.35442e-08 -2.97921e-08 3.64503e-07)
(-1.98064e-09 5.0427e-09 2.3144e-07)
(1.15836e-08 9.0722e-09 1.05328e-07)
(2.53673e-08 -1.75004e-09 3.63673e-07)
(-2.40683e-08 -2.80845e-08 2.98607e-07)
(4.26708e-08 -6.17404e-09 4.04194e-07)
(-1.29936e-08 1.95641e-08 2.39353e-07)
(-2.78942e-09 1.35475e-08 2.42522e-07)
(1.38644e-08 1.07633e-08 2.65122e-07)
(-1.44575e-09 3.66477e-09 1.54032e-07)
(1.03653e-08 2.01364e-08 6.26061e-07)
(-2.37916e-08 -1.65719e-08 2.66132e-07)
(-5.99197e-09 -1.60931e-10 2.98185e-07)
(-7.11376e-09 2.44394e-08 3.60532e-07)
(8.31632e-09 1.20641e-08 1.04689e-07)
(-1.07503e-08 7.75767e-09 2.80154e-07)
(-2.32935e-08 1.17282e-08 1.61839e-07)
(-2.20579e-08 4.5563e-09 2.14761e-07)
(1.72973e-09 1.76992e-09 2.89801e-07)
(-6.54408e-09 -3.81522e-09 2.60668e-07)
(2.69329e-09 9.49872e-09 1.49799e-07)
(2.09431e-08 -4.31517e-08 4.0456e-07)
(7.79663e-10 -3.45875e-09 3.45314e-07)
(1.12507e-08 1.14663e-08 2.04852e-07)
(2.76111e-08 2.16221e-09 2.70048e-07)
(-1.15765e-08 2.97168e-09 1.35913e-07)
(-1.75592e-09 3.39848e-09 2.08501e-07)
(1.84192e-09 -1.03755e-09 9.23684e-08)
(-9.56108e-10 -3.9705e-09 1.14808e-07)
(3.68504e-09 -5.86661e-09 2.88639e-07)
(-4.41995e-09 -5.05417e-09 1.50432e-07)
(-2.96013e-08 -1.4447e-08 3.09557e-07)
(2.43301e-09 6.13882e-09 2.22818e-07)
(9.98815e-09 -1.34812e-08 2.17572e-07)
(4.50967e-09 -1.19714e-09 2.55215e-07)
(-1.59475e-08 -1.40808e-09 2.1262e-07)
(9.34154e-10 -1.30753e-08 2.97807e-07)
(-3.35554e-09 4.3188e-10 2.04172e-07)
(6.08124e-09 -2.69792e-08 4.16265e-07)
(-7.19613e-09 -7.86359e-09 4.12298e-07)
(4.63501e-09 -7.39323e-09 1.06313e-07)
(-7.99684e-09 -9.4749e-09 1.91986e-07)
(-1.0518e-08 2.13008e-08 5.96216e-07)
(1.00149e-08 -9.14942e-09 9.36139e-08)
(3.17272e-08 3.42095e-08 5.93531e-07)
(-5.08316e-09 -2.76812e-08 2.35884e-07)
(-2.3711e-08 -1.43344e-08 3.00685e-07)
(-2.42388e-08 6.69092e-10 3.43074e-07)
(-8.25652e-09 3.81857e-09 3.40624e-07)
(1.48696e-09 -2.61484e-08 3.63942e-07)
(-1.30133e-08 -8.75106e-10 4.73779e-07)
(7.25672e-09 7.89122e-09 3.09697e-07)
(-2.93044e-08 1.07468e-09 2.60797e-07)
(1.19225e-09 -9.96765e-09 1.67643e-07)
(-1.88427e-09 3.44082e-09 2.71716e-07)
(-2.54034e-08 7.51658e-10 3.2427e-07)
(-1.41763e-08 -1.6463e-08 3.23472e-07)
(7.4825e-09 -8.80915e-09 2.63166e-07)
(-7.81538e-09 -1.87274e-08 2.9288e-07)
(-1.78854e-08 -1.6435e-08 3.47674e-07)
(-5.00828e-09 1.56371e-09 1.67272e-07)
(-2.03644e-08 -2.03774e-08 4.12229e-07)
(-1.21299e-08 7.22043e-09 1.89872e-07)
(-1.54628e-08 -2.53946e-08 4.81027e-07)
(2.56372e-08 -1.27493e-08 2.64275e-07)
(9.64614e-09 -1.81398e-08 3.91722e-07)
(-6.25238e-09 1.08561e-08 2.33612e-07)
(1.77495e-10 -1.00376e-08 1.63508e-07)
(1.78829e-08 -5.109e-09 3.52016e-07)
(2.38868e-08 8.6768e-09 3.18202e-07)
(1.62911e-09 7.00473e-09 1.25564e-07)
(2.631e-09 -1.51072e-08 2.88665e-07)
(-1.58727e-10 3.42013e-09 2.47719e-07)
(1.22995e-08 1.46277e-08 1.26172e-07)
(4.23663e-09 2.21949e-08 3.6766e-07)
(-6.44019e-09 1.79649e-08 1.79831e-07)
(4.50968e-09 2.43766e-08 2.82275e-07)
(-1.21147e-11 2.77607e-10 2.19228e-07)
(9.69081e-09 -2.176e-08 2.76055e-07)
(-4.40841e-09 8.19751e-09 3.42257e-07)
(-8.4122e-09 -7.8825e-09 2.23235e-07)
(-5.42265e-09 9.01289e-09 1.34426e-07)
(-1.86584e-08 1.0689e-09 3.26406e-07)
(8.01693e-10 7.89005e-09 1.62259e-07)
(-9.03348e-10 7.31338e-09 3.45587e-07)
(1.05423e-08 -1.66917e-08 2.24662e-07)
(-1.39457e-08 1.95275e-08 1.90565e-07)
(1.20176e-08 1.07361e-09 1.93688e-07)
(-8.43949e-09 -8.70671e-09 2.33165e-07)
(2.92451e-09 -9.91232e-09 2.58725e-07)
(-1.0557e-09 -1.76983e-08 1.95511e-07)
(5.24845e-09 -1.02662e-08 1.45431e-07)
(-3.20328e-09 1.59937e-08 9.11651e-08)
(-8.61406e-10 -1.70228e-08 1.62048e-07)
(-2.19901e-08 1.93333e-09 4.09618e-07)
(-3.23989e-08 -1.04402e-08 5.98325e-07)
(-3.20289e-08 3.37648e-10 2.79592e-07)
(8.86638e-09 -8.08441e-09 2.07132e-07)
(1.3723e-08 1.35779e-08 3.46507e-07)
(-3.66845e-08 -2.12621e-08 3.87515e-07)
(2.27026e-09 1.73048e-09 1.72598e-07)
(-4.36123e-09 2.3524e-08 3.75772e-07)
(-2.77918e-08 4.41921e-09 4.42193e-07)
(-5.7424e-09 2.33083e-09 2.01287e-07)
(-1.96096e-09 8.97109e-11 1.09358e-07)
(-2.69995e-09 9.71993e-09 1.02429e-07)
(-2.87114e-08 -2.25207e-08 3.33589e-07)
(2.69837e-08 1.48953e-08 2.73048e-07)
(2.24197e-08 1.35478e-08 2.48309e-07)
(-4.49543e-08 1.37587e-09 2.9533e-07)
(6.25386e-09 2.82045e-09 1.32014e-07)
(-9.30793e-09 3.42984e-09 3.30007e-07)
(-1.23796e-08 1.43153e-08 2.3565e-07)
(1.08708e-08 -1.14996e-08 1.01412e-07)
(2.15795e-08 8.88952e-09 2.01618e-07)
(-1.22363e-08 -9.78561e-09 2.46665e-07)
(5.87034e-09 1.24989e-08 1.47464e-07)
(-1.75755e-10 -1.21128e-08 1.76216e-07)
(-4.96661e-08 3.45998e-09 4.19981e-07)
(-9.66625e-09 -9.96047e-09 3.91943e-07)
(1.55465e-08 -3.4448e-09 1.75905e-07)
(-3.54245e-09 -5.93353e-09 1.02815e-07)
(2.76658e-08 -1.21321e-08 3.75934e-07)
(2.17616e-08 -4.38242e-10 2.51975e-07)
(5.52152e-09 -3.08241e-09 1.2814e-07)
(-1.92513e-08 -3.33248e-08 3.2208e-07)
(1.16191e-08 -1.24941e-08 2.18525e-07)
(5.16288e-09 -9.11455e-09 3.68185e-07)
(2.24342e-08 -3.46273e-08 3.53364e-07)
(-8.26073e-09 -2.18154e-09 1.36717e-07)
(-4.49272e-08 -1.25522e-08 3.68658e-07)
(5.87729e-09 1.66218e-08 3.21918e-07)
(-1.04303e-08 -1.2685e-08 2.72818e-07)
(1.02978e-08 4.82876e-09 2.15634e-07)
(-7.62469e-08 -1.06417e-09 4.6372e-07)
(-1.4503e-08 1.03959e-08 4.51732e-07)
(-4.78715e-10 9.11347e-09 2.13367e-07)
(-2.59199e-09 2.19538e-08 4.95146e-07)
(1.65043e-08 -7.13232e-09 2.54809e-07)
(-1.72182e-08 1.23691e-08 4.4671e-07)
(-4.67197e-09 4.84684e-09 1.77988e-07)
(1.49144e-08 3.79195e-10 3.74841e-07)
(1.74921e-09 7.97915e-09 3.06646e-07)
(-4.29343e-09 -8.17008e-09 3.00944e-07)
(-1.23345e-09 6.90068e-11 2.565e-07)
(2.35538e-08 1.34452e-08 4.49473e-07)
(2.44289e-09 5.84051e-09 2.25209e-07)
(-3.55565e-09 1.79848e-09 2.18996e-07)
(-2.17617e-08 -9.0958e-10 1.4362e-07)
(1.49089e-08 4.69194e-09 1.03397e-07)
(6.55897e-10 2.01011e-08 3.5781e-07)
(-1.04429e-08 -1.26119e-08 2.2661e-07)
(6.91048e-09 9.46644e-10 1.76473e-07)
(1.35009e-08 5.01829e-09 1.47192e-07)
(9.87493e-10 1.52107e-09 6.04371e-08)
(4.04266e-09 -3.06897e-08 5.65958e-07)
(-8.38505e-09 -2.21622e-10 1.06893e-07)
(1.72198e-08 -1.23576e-08 2.61527e-07)
(1.207e-08 -3.05045e-08 2.3006e-07)
(1.4001e-08 3.30945e-09 1.65174e-07)
(1.39321e-08 -8.29165e-10 1.86152e-07)
(1.719e-08 -1.9441e-09 2.00399e-07)
(-1.07244e-08 2.36779e-09 1.72631e-07)
(9.12932e-10 1.65615e-08 2.65354e-07)
(-4.74642e-09 8.31241e-09 2.45377e-07)
(-1.66894e-08 -1.06046e-08 2.88287e-07)
(-1.55848e-08 -1.29699e-08 1.93567e-07)
(-3.20863e-09 7.04005e-09 1.76539e-07)
(1.24911e-08 -2.16291e-08 3.97248e-07)
(-4.62715e-09 -4.39121e-09 2.70137e-07)
(-1.31549e-08 9.99023e-09 2.97857e-07)
(-2.09322e-08 -2.49493e-08 2.12655e-07)
(4.3429e-09 1.08922e-08 1.09286e-07)
(-8.03721e-10 1.18364e-08 1.91219e-07)
(1.60356e-08 -2.77134e-09 2.37958e-07)
(-5.31863e-09 2.88976e-08 2.92857e-07)
(3.21063e-08 -9.45251e-09 2.15205e-07)
(-1.18664e-08 2.23957e-08 1.26446e-07)
(6.61317e-09 -1.01661e-08 1.1766e-07)
(1.90688e-09 1.41726e-08 2.39539e-07)
(1.16929e-08 2.0425e-08 2.26648e-07)
(-1.22396e-08 -8.93725e-09 2.68122e-07)
(-1.14648e-09 -1.39467e-09 3.45728e-07)
(-3.99233e-09 2.36616e-09 2.34846e-07)
(9.3773e-09 5.76174e-09 2.63596e-07)
(-7.3052e-09 1.01947e-08 4.42649e-07)
(-9.1264e-09 -8.51725e-09 1.69646e-07)
(-1.89779e-08 -1.24661e-08 2.20409e-07)
(-1.45179e-08 5.86518e-09 2.13834e-07)
(-1.02585e-08 -2.67556e-09 2.31249e-07)
(2.64193e-09 -9.12901e-10 1.21357e-07)
(1.50628e-08 -2.75458e-08 2.59734e-07)
(3.41361e-09 -2.64075e-09 2.87504e-07)
(1.49285e-08 1.37772e-08 1.17559e-07)
(1.9708e-08 -2.0141e-08 3.44176e-07)
(5.10978e-09 1.69402e-08 2.11283e-07)
(-1.28801e-08 -3.8202e-09 1.68869e-07)
(-1.50723e-08 -3.83556e-09 3.63021e-07)
(-2.28878e-09 -9.95101e-09 1.39536e-07)
(-7.83125e-09 -6.7047e-09 2.02569e-07)
(1.68187e-08 -7.72825e-09 3.00423e-07)
(4.74184e-09 -4.63308e-10 2.39238e-07)
(-3.01378e-09 2.07092e-08 2.60434e-07)
(7.62e-09 -5.80199e-09 2.16758e-07)
(-1.18758e-08 -1.92591e-09 3.16998e-07)
(4.57072e-09 -7.59678e-09 1.04668e-07)
(-1.64701e-08 -1.54857e-08 2.5344e-07)
(2.15553e-09 9.52739e-09 2.48666e-07)
(1.74747e-08 -1.08555e-08 2.43862e-07)
(8.09562e-09 2.4505e-08 2.87989e-07)
(9.547e-12 1.81703e-08 3.15496e-07)
(-5.62907e-10 -2.04101e-11 2.94012e-07)
(-4.85951e-09 1.41658e-08 2.4548e-07)
(5.70496e-09 1.41589e-09 9.21767e-08)
(-2.82377e-08 1.25047e-08 2.1801e-07)
(2.03114e-08 3.37776e-09 4.27917e-07)
(-1.28454e-08 1.90363e-08 2.26713e-07)
(5.71867e-09 -3.3663e-08 2.41704e-07)
(2.20084e-08 8.18568e-09 2.84952e-07)
(2.16822e-09 -2.42258e-08 2.76727e-07)
(3.32765e-09 1.51266e-08 1.22327e-07)
(-5.21397e-09 -1.5614e-09 1.43609e-07)
(-3.32647e-08 1.74264e-08 2.1844e-07)
(5.43001e-09 -1.94242e-08 2.08006e-07)
(2.31794e-08 1.41769e-08 3.45463e-07)
(8.46892e-09 -5.07369e-09 2.32921e-07)
(2.26324e-08 -6.85725e-09 1.81607e-07)
(-1.16105e-08 -5.53152e-11 2.02417e-07)
(1.03709e-09 -3.48254e-08 3.85471e-07)
(-4.89264e-10 9.84353e-10 1.54591e-07)
(-1.05011e-08 -6.96512e-10 9.20835e-08)
(1.17423e-08 -5.07594e-09 2.50442e-07)
(-6.66246e-09 -5.94416e-09 1.87596e-07)
(-4.33302e-10 8.21358e-09 1.72097e-07)
(-2.38372e-08 -1.00255e-08 3.80097e-07)
(2.21421e-08 1.54697e-08 3.6476e-07)
(-4.87621e-09 -1.40639e-08 1.62701e-07)
(3.63023e-09 -4.18286e-09 1.84245e-07)
(1.44355e-08 1.4973e-09 1.34475e-07)
(-1.60206e-08 -1.75741e-08 2.99992e-07)
(-1.89784e-08 3.06869e-08 3.40418e-07)
(-7.15048e-09 1.68851e-09 2.09757e-07)
(1.02616e-08 -6.98864e-09 2.41413e-07)
(1.14532e-08 4.69493e-09 1.13637e-07)
(5.3466e-09 -5.2081e-09 3.63187e-07)
(-9.50261e-09 -4.84295e-09 2.33318e-07)
(-7.74853e-09 -6.19616e-09 2.25265e-07)
(-8.74254e-09 3.69399e-09 1.16718e-07)
(2.87676e-09 1.36627e-08 3.25731e-07)
(1.52543e-09 5.26296e-09 1.35589e-07)
(-1.97244e-08 -2.37236e-09 2.56384e-07)
(1.09228e-08 4.71932e-10 1.44392e-07)
(-1.77633e-08 1.73739e-08 4.09556e-07)
(-1.24641e-09 -3.84582e-09 1.98109e-07)
(1.07951e-09 -1.63658e-08 4.42375e-07)
(8.34018e-09 -1.42019e-09 1.12775e-07)
(-1.62221e-08 1.9892e-08 2.28755e-07)
(2.61944e-08 -3.74627e-09 3.04917e-07)
(-4.57493e-08 -2.97042e-10 4.35721e-07)
(-1.41495e-10 -2.04701e-09 3.4441e-07)
(1.7397e-08 -6.3388e-09 1.5005e-07)
(-1.42897e-08 1.16867e-08 4.52378e-07)
(1.41338e-08 7.35822e-09 2.14924e-07)
(-7.28977e-09 3.34637e-09 1.54958e-07)
(-1.8216e-08 6.5466e-09 1.8576e-07)
(6.55951e-10 4.24487e-08 4.21385e-07)
(-1.78078e-08 5.16449e-09 3.00857e-07)
(8.36993e-10 -7.55923e-09 1.56287e-07)
(-2.39625e-09 -1.29934e-08 3.08996e-07)
(-9.58967e-09 -3.9227e-09 1.34307e-07)
(-3.23525e-08 8.89179e-09 3.37085e-07)
(-2.77191e-09 -1.87003e-08 1.89567e-07)
(-1.06699e-08 1.93601e-09 1.19471e-07)
(-1.78351e-08 8.0394e-09 2.67833e-07)
(1.1818e-08 -5.73952e-10 2.69941e-07)
(2.27687e-08 7.77349e-09 2.59548e-07)
(-2.64752e-09 -2.65751e-09 8.37698e-08)
(1.92303e-09 -3.96336e-09 3.46808e-07)
(-1.98932e-08 -1.22896e-08 1.41024e-07)
(-4.57776e-09 2.95299e-09 3.38584e-07)
(-1.22565e-08 2.11231e-08 2.88989e-07)
(-2.89892e-09 -8.391e-09 4.02425e-07)
(-2.0283e-08 1.89911e-08 4.52904e-07)
(2.58773e-08 -3.0606e-08 3.70362e-07)
(-2.24118e-08 5.04495e-09 3.16274e-07)
(-4.14814e-09 5.94046e-09 1.08527e-07)
(1.81353e-08 -1.51614e-08 4.27216e-07)
(8.65509e-09 2.76451e-08 1.91184e-07)
(1.21871e-08 3.95265e-09 3.4534e-07)
(3.84718e-08 7.40854e-09 4.20673e-07)
(-1.1374e-08 -1.36619e-08 1.78099e-07)
(9.87262e-09 2.24766e-08 2.84612e-07)
(2.05334e-08 -5.37496e-09 2.54032e-07)
(1.19893e-09 -4.49374e-09 2.05073e-07)
(4.76406e-09 1.41914e-09 1.74238e-07)
(-3.18534e-09 7.5358e-09 4.78693e-07)
(-3.74915e-08 -6.70256e-09 3.11354e-07)
(9.4923e-09 6.78017e-09 2.38166e-07)
(1.41856e-08 -8.40559e-09 2.68068e-07)
(3.59201e-10 1.37142e-08 2.66163e-07)
(2.57008e-08 -8.87599e-09 2.65498e-07)
(-2.12664e-08 1.31998e-08 2.30585e-07)
(-5.11621e-09 -9.28798e-09 1.32495e-07)
(-1.99165e-08 -5.59194e-09 2.01857e-07)
(-1.44817e-09 -4.07443e-09 2.1981e-07)
(-8.83532e-09 1.0125e-08 1.30745e-07)
(4.25971e-09 -9.11329e-09 2.93191e-07)
(-1.30516e-08 -1.67161e-08 1.18505e-07)
(3.33448e-09 -7.18829e-09 2.29257e-07)
(1.369e-08 2.82019e-08 4.2602e-07)
(-1.32735e-08 1.63581e-08 3.22625e-07)
(-1.66776e-08 1.38894e-08 3.37396e-07)
(6.99997e-09 2.29693e-08 3.69225e-07)
(1.93603e-09 -2.56112e-10 1.23219e-07)
(1.72087e-08 7.06125e-10 1.9796e-07)
(1.38699e-08 7.92441e-09 2.57272e-07)
(7.06373e-09 -2.3647e-09 2.32987e-07)
(1.07111e-10 -7.09805e-09 2.8575e-07)
(-5.92763e-09 -9.19349e-10 1.95398e-07)
(4.1581e-09 -2.38164e-09 1.7187e-07)
(-1.90398e-08 4.64358e-10 2.64156e-07)
(-2.41039e-08 -1.18717e-08 2.91904e-07)
(-2.48992e-09 -1.00947e-09 2.41675e-07)
(-5.22398e-09 2.67072e-08 1.98572e-07)
(-8.17584e-09 -5.66542e-09 8.01517e-08)
(1.17843e-08 2.23224e-10 1.04075e-07)
(-7.63191e-09 3.36469e-09 1.39198e-07)
(-6.38405e-10 -5.78367e-10 2.73982e-07)
(-1.93883e-08 4.06964e-09 1.8865e-07)
(-2.27829e-08 -7.10623e-09 1.68364e-07)
(-1.60206e-08 2.03495e-08 3.04102e-07)
(-6.50866e-10 -9.98809e-09 2.42017e-07)
(-1.70113e-08 1.62486e-08 2.84488e-07)
(1.34389e-09 -3.09557e-09 1.19706e-07)
(-4.61961e-09 3.22474e-09 1.06783e-07)
(5.63846e-09 1.56494e-08 1.77546e-07)
(1.0373e-08 8.12429e-10 2.13559e-07)
(-4.40336e-09 -1.57743e-08 2.72608e-07)
(5.52021e-09 2.32091e-11 4.02769e-07)
(2.73846e-09 -1.16883e-08 2.17766e-07)
(1.34406e-09 -7.04102e-09 2.1695e-07)
(1.37626e-08 3.74005e-10 2.99179e-07)
(-1.48327e-08 5.49558e-09 2.14459e-07)
(-1.69294e-09 1.6717e-08 2.71164e-07)
(3.35544e-09 -9.42887e-09 3.15982e-07)
(-1.61217e-08 -1.92734e-08 3.9924e-07)
(8.20363e-09 -8.17327e-09 1.75892e-07)
(1.0862e-08 -1.65353e-08 1.94564e-07)
(-2.31298e-08 -8.99874e-09 2.60959e-07)
(-2.55055e-09 -2.22531e-08 1.92327e-07)
(-4.23333e-10 1.50041e-08 5.57274e-07)
(1.69351e-09 1.33909e-08 1.58267e-07)
(-2.47476e-08 1.83089e-08 2.651e-07)
(-9.36661e-09 -1.35614e-08 3.33424e-07)
(7.36281e-09 -5.7965e-09 1.65536e-07)
(-2.90709e-08 -2.62822e-08 2.71192e-07)
(6.03e-10 1.61385e-08 4.04359e-07)
(7.89924e-09 -3.4963e-09 9.76008e-08)
(1.56433e-08 -2.86378e-08 2.83897e-07)
(-2.04471e-08 -1.45437e-08 3.24002e-07)
(7.58325e-10 2.99793e-09 1.60962e-07)
(1.56116e-08 1.74737e-08 1.54007e-07)
(2.89118e-09 -5.12665e-09 1.0366e-07)
(5.42464e-09 8.92138e-09 2.75486e-07)
(2.45499e-09 -3.25452e-09 1.57891e-07)
(8.24544e-09 2.24701e-09 1.09077e-07)
(2.99891e-08 -4.00411e-09 2.58124e-07)
(3.36513e-09 -4.4973e-09 1.87929e-07)
(4.68768e-08 2.76705e-08 5.0158e-07)
(7.17607e-09 4.61448e-09 2.07913e-07)
(-1.15668e-08 7.90093e-09 1.5954e-07)
(1.43213e-08 7.35035e-09 1.53564e-07)
(5.68683e-09 -3.31574e-09 1.00201e-07)
(4.97436e-09 -8.14442e-09 2.18651e-07)
(-1.90577e-08 8.4634e-09 2.67476e-07)
(-3.60809e-09 1.42909e-08 1.88853e-07)
(4.98725e-09 -8.44505e-10 8.91492e-08)
(6.1192e-09 -1.0758e-08 1.02137e-07)
(1.56025e-08 -1.75193e-08 2.99767e-07)
(1.26659e-08 4.30892e-09 2.94757e-07)
(6.33943e-09 -5.13076e-09 2.15106e-07)
(6.44838e-09 -7.02731e-09 2.51086e-07)
(6.45774e-09 -5.8454e-10 1.40043e-07)
(-6.20867e-09 -3.79537e-09 2.25716e-07)
(-1.4185e-08 -2.77506e-09 2.08004e-07)
(-3.35289e-08 -5.64285e-09 3.1908e-07)
(-9.69873e-09 -5.43159e-09 2.47289e-07)
(3.34596e-09 -1.48356e-08 2.29169e-07)
(1.1815e-08 -8.72432e-09 4.31509e-07)
(3.6651e-09 -1.33839e-08 1.79639e-07)
(6.51703e-09 2.80993e-09 1.42459e-07)
(-4.99063e-08 -2.73549e-08 2.48809e-07)
(1.743e-08 7.9634e-09 1.53755e-07)
(1.45615e-08 2.62285e-08 4.08322e-07)
(2.85974e-08 7.03936e-09 1.4811e-07)
(-1.84591e-08 9.01076e-09 2.23017e-07)
(-2.07413e-08 7.2121e-09 2.30459e-07)
(6.8468e-09 2.50132e-10 4.16749e-07)
(3.65935e-08 8.72719e-09 2.5422e-07)
(-9.74005e-09 2.71679e-09 2.32153e-07)
(5.24388e-09 -5.03209e-09 1.93855e-07)
(-9.92819e-09 -8.1384e-09 1.5136e-07)
(1.28777e-08 4.56105e-10 2.10669e-07)
(1.2404e-08 -3.86314e-09 7.51996e-08)
(-9.26811e-10 5.64616e-10 1.52652e-07)
(2.60234e-08 -1.06586e-09 2.48743e-07)
(-4.70609e-09 -7.90136e-09 3.14935e-07)
(1.13798e-08 -1.73478e-08 2.4109e-07)
(-7.47545e-09 7.32359e-10 1.03441e-07)
(1.14171e-08 -5.77562e-09 4.69259e-07)
(2.22468e-08 1.00422e-08 2.30509e-07)
(1.27947e-08 -7.38736e-09 1.31269e-07)
(4.88625e-10 -7.78586e-09 2.53767e-07)
(1.87003e-08 -1.11524e-08 2.74058e-07)
(-2.2071e-09 1.7949e-08 3.44437e-07)
(3.84121e-09 3.91553e-09 1.68369e-07)
(-2.81188e-08 -1.12615e-08 2.63505e-07)
(1.91224e-08 7.4831e-09 1.08349e-07)
(-3.31503e-08 -5.2987e-09 3.68883e-07)
(1.48083e-08 8.96665e-09 2.77749e-07)
(-3.75172e-08 -4.8294e-10 3.49647e-07)
(4.91368e-09 -1.96898e-09 2.32301e-07)
(4.84924e-09 2.31734e-09 3.69374e-07)
(-1.87704e-09 -8.55026e-09 1.14848e-07)
(1.53642e-09 3.71527e-09 1.5403e-07)
(7.97173e-09 3.46844e-09 1.39814e-07)
(-1.30712e-08 -3.33887e-09 3.02838e-07)
(1.48133e-08 -2.85406e-08 3.41847e-07)
(-2.05789e-09 -3.04009e-09 1.67758e-07)
(-1.13266e-10 -1.121e-09 7.54109e-08)
(-6.29873e-10 -1.62041e-09 3.75522e-07)
(-6.40753e-09 1.78313e-09 3.20302e-07)
(-1.36365e-08 -1.29632e-08 3.75274e-07)
(3.98639e-09 7.49235e-10 2.0186e-07)
(2.5344e-09 -2.75801e-09 2.81125e-07)
(-1.51575e-08 1.60381e-08 2.43904e-07)
(-2.57243e-08 1.86408e-09 3.26832e-07)
(-1.16334e-09 -1.14316e-08 1.93659e-07)
(-1.38803e-08 8.16075e-09 2.26318e-07)
(1.5778e-08 1.13456e-08 2.34645e-07)
(7.19352e-09 1.10781e-08 1.4537e-07)
(1.8711e-08 -2.32058e-08 3.69299e-07)
(-5.77328e-09 4.13107e-09 1.42695e-07)
(-1.70623e-08 4.50433e-09 2.65057e-07)
(1.79954e-08 -1.40158e-08 1.54379e-07)
(1.30353e-08 -7.54499e-09 3.41056e-07)
(-2.02103e-08 9.16303e-09 5.15482e-07)
(-7.00789e-10 -1.53091e-08 1.42768e-07)
(-7.53872e-09 7.70858e-10 1.59567e-07)
(1.25944e-08 9.40224e-10 1.59873e-07)
(-4.38343e-08 1.50816e-08 4.39066e-07)
(-6.7872e-09 -1.12973e-10 1.55304e-07)
(4.82692e-09 -5.3509e-09 1.41548e-07)
(6.8432e-09 -1.8553e-09 2.74769e-07)
(1.17443e-10 -1.19875e-08 3.38737e-07)
(-8.01865e-09 -9.78129e-09 3.23953e-07)
(8.90979e-09 -1.10975e-09 3.27446e-07)
(-9.17963e-09 -3.6128e-09 3.34334e-07)
(1.23044e-08 -3.25052e-08 2.94692e-07)
(-3.92898e-10 8.89401e-09 2.60943e-07)
(-7.02607e-09 -2.49662e-09 2.23528e-07)
(8.50278e-10 1.04908e-08 2.61045e-07)
(6.05621e-09 -5.91734e-09 3.45802e-07)
(-2.78906e-09 -2.48895e-09 1.62571e-07)
(1.63304e-08 1.74317e-08 3.47629e-07)
(8.68641e-09 2.49557e-08 4.03802e-07)
(5.16186e-10 -2.3266e-08 1.75686e-07)
(1.74804e-08 -1.179e-08 4.75041e-07)
(3.02544e-08 2.26839e-08 1.48153e-07)
(-5.20432e-09 -1.3948e-08 2.87807e-07)
(-2.69002e-09 -4.23305e-09 2.88729e-07)
(-6.66926e-09 2.01955e-08 3.29621e-07)
(1.77166e-08 -2.1467e-08 2.75995e-07)
(1.03815e-09 3.78239e-09 1.10272e-07)
(-4.08915e-09 -1.33762e-08 1.89006e-07)
(-1.22626e-08 -2.50351e-09 2.51142e-07)
(-7.06892e-09 8.7544e-09 2.03668e-07)
(6.84994e-09 -1.53146e-08 1.94838e-07)
(2.08988e-09 -7.51113e-09 2.33843e-07)
(-1.25916e-08 1.66322e-08 3.02562e-07)
(-1.12001e-08 1.0157e-08 1.57204e-07)
(-2.88269e-09 -2.10195e-08 1.43463e-07)
(-8.42957e-09 -1.39847e-08 3.1736e-07)
(-1.24829e-08 -1.33232e-08 1.46212e-07)
(-2.7343e-09 -2.52743e-09 1.9929e-07)
(-3.172e-09 2.21698e-09 1.85125e-07)
(-1.42647e-08 2.7466e-09 2.18984e-07)
(-2.9947e-09 -1.42493e-08 1.73252e-07)
(5.43135e-08 -9.10424e-09 3.38753e-07)