/*--------------------------------*- C++ -*----------------------------------*\
| =========                 |                                                 |
| \\      /  F ield         | OpenFOAM: The Open Source CFD Toolbox           |
|  \\    /   O peration     | Version:  2406                                  |
|   \\  /    A nd           | Website:  www.openfoam.com                      |
|    \\/     M anipulation  |                                                 |
\*---------------------------------------------------------------------------*/
FoamFile
{
    version     2.0;
    format      ascii;
    arch        "LSB;label=32;scalar=64";
    class       volVectorField;
    location    "2";
    object      momentum:angularVelocity;
}
// * * * * * * * * * * * * * * * * * * * * * * * * * * * * * * * * * * * * * //

dimensions      [0 1 -1 0 0 0 0];

internalField   nonuniform List<vector> 
59516
(
(-0.0103057 -0.0138354 0.165621)
(0.0182651 0.00370605 0.155404)
(0.000308707 -0.00186553 0.132543)
(-0.00612211 0.00689261 0.143691)
(0.000142542 -0.00199592 0.143376)
(-0.0436951 0.0243485 0.111801)
(0.00741015 -0.00441286 0.155859)
(0.0129817 -0.0117013 0.174192)
(-0.0095068 0.00513411 0.151336)
(-0.0134254 -0.00901406 0.147614)
(-0.00154104 -0.00741368 0.127267)
(0.000850346 -0.00956684 0.17663)
(0.00426837 -0.000400748 0.20542)
(-0.00454635 -0.00380747 0.0937032)
(0.00708716 0.0170604 0.19386)
(0.0218425 -0.00555921 0.16538)
(0.00225923 -0.0004056 0.147189)
(-0.00782582 0.0104134 0.181581)
(0.0124682 0.0050506 0.177773)
(-0.00252928 -0.0026622 0.161985)
(-0.00366329 0.00667982 0.193059)
(0.0124951 0.00391751 0.155761)
(0.0027705 -0.00497731 0.17142)
(-0.00651385 0.0166879 0.150497)
(-0.00725126 0.00308946 0.165476)
(0.0141067 0.00160584 0.193831)
(-0.00913346 0.00451064 0.155931)
(0.0185378 -0.0146239 0.162684)
(-0.0064938 0.0140204 0.188024)
(-0.00417432 -0.00426148 0.0928655)
(-0.00864073 -0.00178015 0.152955)
(0.0266584 0.0078852 0.161358)
(0.00520106 -0.0125727 0.141314)
(0.0065241 0.0177991 0.14955)
(0.0143413 0.0038425 0.132394)
(-0.000764338 0.00648839 0.169693)
(0.0190607 0.00864234 0.0893286)
(0.000514872 -0.00828863 0.166336)
(-0.00118371 0.00341581 0.182334)
(0.0084843 -0.0149943 0.171193)
(-0.00184808 0.00227844 0.166037)
(-0.00155313 -0.00999748 0.167309)
(0.0175608 0.0105743 0.16662)
(0.000842863 -0.0169569 0.146458)
(0.00363231 -0.00095377 0.159626)
(-0.0257796 0.0027473 0.166784)
(-0.0151791 -0.0117861 0.175476)
(0.00514986 0.000345313 0.156667)
(0.000893561 0.0086669 0.16354)
(-0.00136881 -0.00298889 0.139998)
(-0.012561 -0.000998615 0.113212)
(0.00942018 -0.00150398 0.170809)
(0.00554165 0.00319266 0.180377)
(-0.00205918 -0.00326446 0.177262)
(0.0160134 0.00878142 0.171258)
(0.0157287 -0.000977132 0.178717)
(-0.0108029 -0.00036988 0.133729)
(0.0225769 -0.0193781 0.185492)
(0.00712097 0.0033993 0.129467)
(0.000781325 0.00500551 0.131857)
(-0.000241758 -0.0136829 0.155621)
(-0.00125529 0.008182 0.110175)
(0.0132607 -0.00424942 0.136548)
(0.00972915 -0.00112144 0.143049)
(0.00709654 0.00788383 0.174733)
(-0.00273053 0.00211608 0.133552)
(-0.00196138 -0.000797403 0.12375)
(0.0059752 0.0115671 0.172446)
(-0.0107482 0.00684948 0.149323)
(0.00172448 -0.00542429 0.145974)
(0.0113876 -0.00146538 0.164802)
(-0.00467205 -0.00130085 0.128123)
(-0.00814473 0.00611267 0.115822)
(-0.000487887 -0.00156187 0.144382)
(0.00396413 0.0052247 0.149678)
(-0.00202386 0.0043325 0.16482)
(0.00899975 0.0066578 0.151068)
(-0.000392537 0.00789638 0.137367)
(-0.0251192 0.000339297 0.169773)
(-0.00698009 -0.000766181 0.12384)
(0.0202737 0.0197148 0.156149)
(0.0109246 -0.00584099 0.125482)
(0.00403628 -0.00319277 0.147164)
(0.0190535 -0.00409553 0.104917)
(0.00680859 -0.0115623 0.137582)
(-0.00258018 0.00125804 0.142992)
(-0.00196648 -0.0225598 0.127085)
(-0.00477635 -0.00303999 0.169033)
(0.0108458 0.00392904 0.166692)
(-0.0107511 -0.00805196 0.163939)
(-0.00387101 -0.010501 0.137312)
(-0.0025879 -0.00723594 0.132629)
(0.00402854 1.67776e-05 0.150628)
(-0.000300424 4.02128e-05 0.122368)
(0.00545327 -0.0110101 0.128216)
(-0.00515598 -0.00364049 0.143208)
(0.000210397 -0.00959039 0.127039)
(-0.0156249 -0.0126435 0.188739)
(0.000365285 0.00316403 0.1628)
(-0.00684706 -0.00733392 0.137356)
(-0.00104343 -0.00346809 0.166729)
(-0.000113728 0.00304451 0.129509)
(-0.0105572 -0.00693562 0.122007)
(-0.00526285 -0.00908142 0.16853)
(0.000526069 -0.0044233 0.159689)
(0.00016028 -0.00117068 0.119872)
(-0.0204928 0.00652308 0.153203)
(-0.00654476 0.00602779 0.123674)
(0.00484147 0.00783436 0.158632)
(0.00604185 -0.00107072 0.211251)
(-0.00574296 0.00511571 0.136509)
(-0.00998873 0.0149283 0.162959)
(-0.00941246 0.00317589 0.188968)
(-0.00576213 -0.000395634 0.158661)
(-0.00626599 0.00221948 0.157675)
(0.0115436 -0.00306921 0.148637)
(0.0163868 0.00867021 0.167035)
(-0.00673888 0.0114907 0.147618)
(-0.00191012 -0.00559299 0.123214)
(-0.0159015 -0.00300358 0.146145)
(0.00908248 -0.00204862 0.152838)
(0.000131288 -0.00505901 0.135737)
(-0.00103889 0.00692567 0.141581)
(-0.000750816 0.00873552 0.128214)
(0.00151165 0.00244382 0.13394)
(-0.00869167 0.00537793 0.150921)
(0.0196246 -0.008452 0.143131)
(0.0150897 0.0133865 0.149209)
(-0.00504331 0.012207 0.174663)
(0.013603 -0.00536919 0.121929)
(-0.00374383 -0.016032 0.148237)
(0.0082529 0.013349 0.17019)
(0.0101009 0.00286441 0.119493)
(-0.00173803 0.00171763 0.155845)
(-0.00169566 0.0035358 0.194477)
(-0.00644545 0.0066356 0.141039)
(0.000903763 0.00184885 0.161125)
(-1.95026e-06 0.007484 0.176435)
(0.00436665 0.00297442 0.167503)
(0.00259474 -0.0143576 0.156907)
(-0.00166973 -0.00500108 0.182643)
(0.00599507 -0.000403309 0.136161)
(-0.00471888 -0.00503996 0.108795)
(0.00282924 -0.00197016 0.127985)
(0.00107099 0.00743947 0.140601)
(-0.000841738 0.0101552 0.140384)
(0.00734387 0.00457005 0.157006)
(-3.22037e-05 0.00631752 0.158897)
(-0.00789317 -0.00219387 0.117971)
(0.00377585 0.000202808 0.150349)
(0.00323906 -0.00750036 0.18915)
(0.00478778 -0.0155247 0.143301)
(0.0105616 -0.00500351 0.169559)
(-0.00151743 0.00302914 0.148887)
(0.00101156 0.00618453 0.17197)
(0.00330177 -0.00297889 0.0975804)
(-0.0040934 0.0157681 0.158512)
(-0.00260702 0.00179703 0.169944)
(-0.00557655 0.00929173 0.165271)
(0.0103241 -0.0016588 0.0980156)
(0.0035329 -0.0110719 0.157614)
(-0.000549779 0.0206808 0.179092)
(0.0177581 -0.0108202 0.143781)
(0.00875262 0.0029386 0.115004)
(0.00885551 0.00161623 0.191179)
(-0.00757586 0.00794223 0.167184)
(-0.0130356 -0.00298465 0.195402)
(-0.0101256 -0.00560599 0.141198)
(-0.0125792 -0.00439615 0.11211)
(-0.00428237 0.0105393 0.12955)
(0.00451983 -0.0179219 0.145287)
(-0.00583693 0.00121503 0.167267)
(-0.00456431 0.00994799 0.167846)
(-0.00293208 -0.00992198 0.125197)
(-0.00122559 0.000282533 0.168348)
(-0.00438525 -0.00776405 0.1803)
(0.00393298 -0.00746327 0.145134)
(0.0130733 0.0147011 0.162257)
(-0.0159171 -0.012911 0.201497)
(0.00428531 0.0086816 0.169471)
(0.00526883 -0.00243294 0.158763)
(-0.0120194 -0.00222062 0.153325)
(0.014544 0.000530796 0.132255)
(0.00641358 0.002588 0.166804)
(-0.00190315 -0.00224702 0.137486)
(-0.00934349 0.00351013 0.158153)
(0.0078943 0.00133275 0.155294)
(0.0110355 -0.00427095 0.128568)
(0.00239042 -0.00645093 0.140221)
(0.00953387 0.0106674 0.169614)
(-0.0101635 -0.0101906 0.156667)
(-9.16183e-06 0.00471772 0.185791)
(-0.00907777 0.00502914 0.154411)
(-0.00115523 0.00372792 0.160334)
(0.00629744 0.00280578 0.160883)
(-0.0145242 -0.00660223 0.128865)
(-6.19176e-05 0.0047746 0.168975)
(-0.0112553 -0.00637794 0.157169)
(-0.00638944 -0.00826315 0.149733)
(0.00141657 -0.0016772 0.164331)
(-0.0164471 -0.00344901 0.14986)
(0.00407557 -0.00374409 0.125133)
(0.00195072 0.00209271 0.18094)
(-0.00927964 0.00698368 0.118097)
(-0.00757701 -0.000318041 0.139592)
(0.0179093 0.00608566 0.161935)
(0.00713557 0.00260282 0.151906)
(3.1917e-05 0.00202376 0.130364)
(0.00260235 -0.00110244 0.113049)
(-0.00652134 0.0107468 0.187593)
(-0.00193234 -0.00571457 0.155526)
(0.0148898 -0.0162297 0.115543)
(-0.00243636 0.00134157 0.155261)
(-0.0101784 -0.00570286 0.175455)
(0.00917549 -0.00344807 0.169102)
(0.00215906 -0.000414367 0.142791)
(0.00278682 0.0071092 0.15994)
(-0.00291876 0.00192699 0.137168)
(-0.00513181 -0.00550481 0.173176)
(0.0071509 -0.00386348 0.146275)
(0.000133583 0.00950106 0.189229)
(0.0121006 0.000404048 0.160084)
(-0.00749343 -0.00109142 0.124228)
(-0.00717866 -0.0116039 0.191083)
(-0.00043713 -0.00546112 0.144946)
(-0.00516183 -0.00438271 0.137281)
(-0.00847586 -0.00420149 0.140063)
(0.01711 0.00463417 0.165556)
(-0.0118462 0.0076102 0.132086)
(0.0102117 -0.00192112 0.200797)
(-0.005057 0.00406142 0.145299)
(-0.00958365 0.00531392 0.134365)
(-0.0113456 0.00448909 0.154873)
(0.00913264 0.00567916 0.142424)
(0.0084339 0.0145835 0.142028)
(0.0119715 0.00902078 0.144287)
(-0.00215143 0.000314638 0.169818)
(0.00876927 -0.00746557 0.157624)
(-0.00090926 0.00857467 0.151501)
(-0.0152868 -0.00500546 0.170578)
(0.00379259 0.00168743 0.133574)
(-0.0197534 -0.000576055 0.111281)
(0.00575585 -5.73316e-05 0.174465)
(-0.00158267 0.0108813 0.135733)
(0.0157165 -0.000152041 0.115779)
(0.0108513 0.0165474 0.174807)
(-0.0080102 -0.00631973 0.155116)
(0.000564468 -0.0151707 0.197616)
(0.00186988 0.0108305 0.149381)
(0.00649298 0.00501846 0.161192)
(0.0187182 -0.00255619 0.173979)
(0.00238587 -0.00318021 0.149639)
(0.01579 0.000752166 0.130925)
(-0.00139656 0.00618193 0.146235)
(-0.00678128 0.0112355 0.151376)
(-0.00774579 0.000671657 0.155725)
(0.00928501 -0.00352247 0.187366)
(0.00649006 0.00664901 0.147534)
(-0.00350212 -0.00580191 0.174944)
(-0.020895 -0.0143692 0.16979)
(-0.0113525 0.00162424 0.160136)
(0.0103806 0.00413556 0.134175)
(0.0160587 -0.0142624 0.174499)
(-0.00120356 0.00306424 0.140637)
(0.0152264 0.0119252 0.138451)
(0.0133337 -0.000919861 0.191155)
(-0.0125649 -0.0146616 0.155889)
(0.0182134 -0.00263529 0.172524)
(-0.0095405 0.0143649 0.175744)
(-0.00189266 0.00919219 0.164555)
(0.00810527 0.00629236 0.154993)
(-0.00131359 0.00332977 0.139952)
(0.00328469 0.00638108 0.198394)
(-0.0146676 -0.0102166 0.164072)
(-0.00293198 -7.87462e-05 0.145907)
(-0.00343407 0.0117977 0.174041)
(0.00879598 0.0127599 0.110727)
(-0.00581136 0.00419363 0.151445)
(-0.020135 0.0101379 0.139894)
(-0.016651 0.00343945 0.162118)
(0.000862013 0.000882043 0.144423)
(-0.00364548 -0.00212532 0.145209)
(0.00238101 0.00839735 0.13243)
(0.00846694 -0.0174455 0.163557)
(0.000393156 -0.00174412 0.17413)
(0.00749592 0.00763957 0.136486)
(0.0149935 0.00117413 0.146642)
(-0.0117584 0.00301838 0.138049)
(-0.0011008 0.00213054 0.130711)
(0.00221012 -0.00124496 0.110833)
(-0.00102132 -0.0042413 0.122638)
(0.00196875 -0.00313425 0.154206)
(-0.0035629 -0.00407414 0.121263)
(-0.0158654 -0.00774313 0.165913)
(0.00155778 0.00393049 0.142663)
(0.00713091 -0.00962475 0.155333)
(0.00253863 -0.000673905 0.143668)
(-0.0116877 -0.00103197 0.155827)
(0.000460961 -0.00645203 0.146954)
(-0.00209245 0.000269311 0.127317)
(0.00229633 -0.0101876 0.157186)
(-0.00308181 -0.00336765 0.17657)
(0.00528964 -0.00843742 0.121328)
(-0.00630299 -0.00746798 0.15132)
(-0.00337019 0.00682525 0.19104)
(0.0110671 -0.0101107 0.103449)
(0.0115161 0.0124171 0.215436)
(-0.00356189 -0.0193968 0.165289)
(-0.0125747 -0.00760196 0.159462)
(-0.0112302 0.000310001 0.158951)
(-0.00405916 0.00187733 0.167462)
(0.00070548 -0.012406 0.17267)
(-0.00453329 -0.00030485 0.165045)
(0.00423688 0.00460734 0.180819)
(-0.0182823 0.000670467 0.162705)
(0.000937352 -0.00783664 0.131802)
(-0.00118239 0.00215912 0.170503)
(-0.0101562 0.000300512 0.129643)
(-0.00663907 -0.00770999 0.151489)
(0.00494247 -0.00581877 0.173831)
(-0.00482692 -0.0115664 0.180888)
(-0.00933062 -0.00857396 0.181377)
(-0.00404842 0.00126402 0.135214)
(-0.00869207 -0.00869763 0.175951)
(-0.00971437 0.00578258 0.152062)
(-0.00511387 -0.00839851 0.159085)
(0.0149188 -0.00741905 0.153787)
(0.00363115 -0.00682846 0.147458)
(-0.00373549 0.00648596 0.139572)
(0.000144665 -0.00818098 0.133265)
(0.00865038 -0.00247135 0.170279)
(0.0129249 0.00469492 0.172176)
(0.00154931 0.00666162 0.119414)
(0.00134583 -0.00772777 0.14766)
(-0.000106819 0.00230165 0.166708)
(0.0136612 0.0162471 0.140141)
(0.00173037 0.00906511 0.150164)
(-0.00470454 0.0131233 0.131366)
(0.00253188 0.0136858 0.158479)
(-8.18976e-06 0.000187666 0.148202)
(0.00491145 -0.0110283 0.139909)
(-0.00186685 0.00347143 0.144937)
(-0.00543538 -0.00509312 0.144239)
(-0.00562792 0.00935408 0.139515)
(-0.00940876 0.00053901 0.164595)
(0.000640963 0.00630819 0.129728)
(-0.000523752 0.00424023 0.200368)
(0.0063684 -0.0100831 0.135714)
(-0.00961383 0.0134618 0.131371)
(0.00911222 0.000814054 0.146862)
(-0.00520088 -0.00536556 0.143689)
(0.00160815 -0.00545064 0.142269)
(-0.000752307 -0.0126121 0.139324)
(0.0046923 -0.0091783 0.13002)
(-0.00501592 0.0250441 0.142753)
(-0.000759055 -0.0150002 0.142794)
(-0.00949483 0.000834767 0.176864)
(-0.010433 -0.00336192 0.192671)
(-0.020637 0.000217555 0.180148)
(0.00662022 -0.00603635 0.154659)
(0.00636314 0.00629585 0.160669)
(-0.0156719 -0.00908333 0.16555)
(0.00155955 0.00118875 0.118566)
(-0.00190941 0.0102992 0.164519)
(-0.0108725 0.00172885 0.172991)
(-0.00382947 0.00155438 0.134234)
(-0.00211729 9.68623e-05 0.118076)
(-0.00351847 0.0126667 0.133481)
(-0.0135676 -0.0106422 0.157637)
(0.0179291 0.00989702 0.181424)
(0.0143747 0.00868631 0.159207)
(-0.0274379 0.000839767 0.180255)
(0.00583163 0.00263003 0.123101)
(-0.00504112 0.00185758 0.17873)
(-0.0084302 0.00974835 0.160471)
(0.0126545 -0.0133864 0.118051)
(0.0161242 0.00664225 0.150649)
(-0.00837305 -0.00669608 0.168788)
(0.00518478 0.0110392 0.130242)
(-0.000150854 -0.0103967 0.15125)
(-0.0207334 0.00144439 0.175324)
(-0.00469438 -0.00483727 0.190346)
(0.0127347 -0.00282177 0.144091)
(-0.00365291 -0.00611856 0.106021)
(0.0133 -0.00583235 0.180726)
(0.0121604 -0.000244889 0.140803)
(0.00507104 -0.00283092 0.117685)
(-0.00869618 -0.0150534 0.14549)
(0.00740797 -0.00796587 0.139325)
(0.00224679 -0.00396649 0.160227)
(0.0106012 -0.016363 0.166981)
(-0.00777539 -0.00205337 0.128684)
(-0.0184537 -0.0051558 0.151425)
(0.00319469 0.00903506 0.174984)
(-0.00569223 -0.00692268 0.148887)
(0.00737544 0.00345842 0.15444)
(-0.031799 -0.000443814 0.193396)
(-0.00628244 0.00450334 0.195682)
(-0.000312205 0.00594355 0.139152)
(-0.000851396 0.00721122 0.162642)
(0.0107211 -0.00463311 0.165522)
(-0.00682688 0.00490425 0.177117)
(-0.00381473 0.00395751 0.14533)
(0.00606771 0.00015427 0.152499)
(0.000930017 0.00424234 0.163037)
(-0.00277898 -0.0052882 0.194791)
(-0.000751836 4.20623e-05 0.156346)
(0.00898656 0.00512978 0.171489)
(0.00158768 0.00379587 0.146368)
(-0.00251255 0.00127087 0.15475)
(-0.0195968 -0.000819093 0.129332)
(0.0156372 0.00492113 0.108448)
(0.000283067 0.0086751 0.154421)
(-0.00640023 -0.00772953 0.138884)
(0.00558697 0.000765341 0.142674)
(0.012865 0.00478194 0.140259)
(0.00186266 0.00286913 0.114)
(0.0014249 -0.0108171 0.199482)
(-0.0086439 -0.000228463 0.110193)
(0.00973146 -0.00698368 0.147797)
(0.00757795 -0.0191518 0.14444)
(0.0110269 0.00260646 0.130088)
(0.0102485 -0.000609937 0.136934)
(0.0124702 -0.00141032 0.145377)
(-0.00888006 0.00196058 0.142943)
(0.0005749 0.0104292 0.167101)
(-0.00274309 0.00480398 0.141811)
(-0.00957117 -0.0060816 0.16533)
(-0.0111355 -0.00926718 0.138305)
(-0.00252254 0.00553471 0.13879)
(0.00532827 -0.00922625 0.169452)
(-0.00251973 -0.00239125 0.147104)
(-0.00771903 0.00586204 0.174776)
(-0.0156063 -0.0186014 0.158549)
(0.00463877 0.0116343 0.116731)
(-0.000530479 0.00781235 0.12621)
(0.0100555 -0.00173784 0.149218)
(-0.00272656 0.0148142 0.150131)
(0.0210018 -0.00618322 0.140773)
(-0.0120436 0.0227302 0.128335)
(0.00682649 -0.010494 0.121455)
(0.00120023 0.00892053 0.150771)
(0.00767498 0.0134065 0.148767)
(-0.00686405 -0.00501205 0.150364)
(-0.000553994 -0.000673922 0.16706)
(-0.00271708 0.00161035 0.15983)
(0.00501718 0.00308273 0.141033)
(-0.00261251 0.00364588 0.158302)
(-0.00747577 -0.00697679 0.138963)
(-0.0126881 -0.00833441 0.147359)
(-0.0112515 0.00454557 0.165724)
(-0.00740952 -0.0019325 0.167026)
(0.00316725 -0.00109442 0.145487)
(0.00979186 -0.0179067 0.168845)
(0.00197879 -0.00153078 0.166659)
(0.0155449 0.0143461 0.122413)
(0.00988057 -0.0100976 0.172552)
(0.00341994 0.011338 0.14141)
(-0.0105346 -0.00312455 0.138118)
(-0.00676358 -0.00172118 0.162903)
(-0.0020501 -0.0089133 0.124985)
(-0.00516416 -0.00442128 0.13358)
(0.00823911 -0.0037859 0.147171)
(0.00280277 -0.000273849 0.141407)
(-0.00176779 0.0121474 0.152762)
(0.00485047 -0.00369323 0.137976)
(-0.00608986 -0.000987598 0.162556)
(0.00495964 -0.00824317 0.113574)
(-0.00956746 -0.00899563 0.147223)
(0.0013086 0.00578398 0.150963)
(0.0121669 -0.00755818 0.169791)
(0.00424218 0.0128409 0.150909)
(4.64356e-06 0.00883783 0.153454)
(-0.000322343 -1.16876e-05 0.168363)
(-0.00341208 0.00994647 0.172363)
(0.00623156 0.00154659 0.100685)
(-0.0191592 0.00848436 0.147919)
(0.00749926 0.00124711 0.157993)
(-0.00875698 0.0129775 0.154556)
(0.00375432 -0.0220999 0.158679)
(0.0137275 0.00510575 0.177736)
(0.00121415 -0.0135658 0.15496)
(0.00323762 0.0147174 0.119017)
(-0.00487616 -0.00146024 0.134305)
(-0.0163053 0.00854187 0.107072)
(0.00357264 -0.01278 0.136856)
(0.0132173 0.00808391 0.196989)
(0.0048689 -0.00291694 0.13391)
(0.0184013 -0.00557531 0.147656)
(-0.00825718 -3.93391e-05 0.143955)
(0.000401604 -0.0134858 0.14927)
(-0.000395461 0.000795631 0.124952)
(-0.0125911 -0.000835135 0.11041)
(0.00678038 -0.00293101 0.144613)
(-0.00425053 -0.00379226 0.119683)
(-0.000402009 0.0076204 0.159668)
(-0.0112113 -0.00471528 0.178771)
(0.0116921 0.00816874 0.19261)
(-0.00394319 -0.0113729 0.13157)
(0.00247862 -0.00285593 0.125797)
(0.0133809 0.00138791 0.124651)
(-0.00921598 -0.0101096 0.172572)
(-0.0102455 0.0165664 0.183775)
(-0.00463396 0.00109426 0.135936)
(0.00545444 -0.00371473 0.12832)
(0.0109885 0.00450446 0.109027)
(0.00233435 -0.00227388 0.158569)
(-0.00609033 -0.0031039 0.149536)
(-0.00503875 -0.00402927 0.146486)
(-0.00689786 0.00291456 0.0920909)
(0.00145874 0.00692801 0.16517)
(0.00146389 0.00505064 0.130119)
(-0.0109421 -0.00131607 0.142229)
(0.0103873 0.000448795 0.137313)
(-0.0076608 0.00749283 0.176629)
(-0.000850043 -0.00262283 0.135109)
(0.000462462 -0.0070111 0.189513)
(0.00863867 -0.00147102 0.116811)
(-0.0113882 0.0139645 0.16059)
(0.0151445 -0.00216593 0.17629)
(-0.0197871 -0.000128474 0.188454)
(-6.36532e-05 -0.000920869 0.154937)
(0.0146982 -0.00535547 0.126773)
(-0.00603301 0.00493403 0.190991)
(0.00802798 0.00417947 0.122077)
(-0.00577399 0.00265055 0.122737)
(-0.0145116 0.00521526 0.147983)
(0.000306548 0.0198377 0.196928)
(-0.00982611 0.00284969 0.166009)
(0.000709801 -0.00641051 0.132537)
(-0.00135936 -0.00737099 0.17529)
(-0.00901268 -0.00368668 0.126226)
(-0.0169012 0.00464515 0.176097)
(-0.00210052 -0.0141709 0.143651)
(-0.0116761 0.00211858 0.130737)
(-0.0121628 0.00548256 0.182652)
(0.00698538 -0.000339253 0.159557)
(0.0152274 0.00519881 0.173582)
(-0.00314551 -0.00315738 0.0995267)
(0.000886384 -0.00182683 0.159854)
(-0.0185836 -0.0114806 0.13174)
(-0.0020102 0.00129673 0.14868)
(-0.00669951 0.0115461 0.157964)
(-0.00110741 -0.00320543 0.153729)
(-0.00870173 0.00814749 0.194303)
(0.0106049 -0.0125429 0.15178)
(-0.0126657 0.00285107 0.178738)
(-0.00473194 0.0067765 0.1238)
(0.00743792 -0.00621822 0.175216)
(0.00721265 0.0230379 0.159322)
(0.00619581 0.00200948 0.175567)
(0.0170344 0.00328032 0.186264)
(-0.00955943 -0.0114823 0.149686)
(0.00529283 0.01205 0.152584)
(0.0137157 -0.00359031 0.169686)
(0.000811986 -0.00304344 0.138888)
(0.00379591 0.00113075 0.13883)
(-0.00111191 0.00263054 0.167098)
(-0.0203457 -0.00363732 0.168964)
(0.00583006 0.0041643 0.146279)
(0.00823222 -0.00487796 0.155566)
(0.000206442 0.00788189 0.152971)
(0.0142642 -0.00492625 0.147354)
(-0.0133927 0.00831275 0.145214)
(-0.00535456 -0.00972068 0.138668)
(-0.017465 -0.00490362 0.17701)
(-0.00103543 -0.00291318 0.157162)
(-0.00863624 0.00989682 0.127799)
(0.00239335 -0.00512038 0.164732)
(-0.0140522 -0.0179977 0.12759)
(0.00216957 -0.00467704 0.149166)
(0.00511982 0.010547 0.159324)
(-0.00658324 0.00811308 0.160012)
(-0.00784662 0.00653479 0.158741)
(0.00323867 0.0106272 0.170829)
(0.00197818 -0.000261688 0.125902)
(0.0132006 0.000541659 0.151852)
(0.00927809 0.00530094 0.172099)
(0.00400756 -0.0013416 0.132183)
(6.28344e-05 -0.0041639 0.167629)
(-0.00468623 -0.000726814 0.154477)
(0.00347322 -0.00198936 0.143561)
(-0.011339 0.000276546 0.157317)
(-0.0130542 -0.00642947 0.15809)
(-0.0016363 -0.00066339 0.158821)
(-0.00367626 0.0187946 0.139741)
(-0.00993601 -0.00688512 0.0974075)
(0.0124184 0.000235236 0.109676)
(-0.00700242 0.00308716 0.127716)
(-0.000343541 -0.000311233 0.147436)
(-0.0150164 0.00315198 0.146112)
(-0.0188687 -0.00588534 0.139438)
(-0.00902409 0.0114625 0.171295)
(-0.000378734 -0.005812 0.140828)
(-0.0101511 0.00969602 0.169763)
(0.00133745 -0.00308073 0.119132)
(-0.00537206 0.00375 0.124176)
(0.00437104 0.0121317 0.137637)
(0.00804204 0.000629862 0.165569)
(-0.00274296 -0.00982618 0.169814)
(0.00258876 1.08842e-05 0.188883)
(0.00181171 -0.00773271 0.144069)
(0.000933813 -0.0048919 0.150731)
(0.00716559 0.000194729 0.15577)
(-0.0110164 0.00408162 0.15928)
(-0.000900294 0.00888998 0.144203)
(0.00179716 -0.00505006 0.169239)
(-0.00650595 -0.00777781 0.161114)
(0.00630969 -0.00628634 0.135284)
(0.00811841 -0.0123587 0.14542)
(-0.0124923 -0.00486019 0.140943)
(-0.00205623 -0.0179402 0.155052)
(-0.000127215 0.00450884 0.167465)
(0.00157081 0.0124208 0.146801)
(-0.0156903 0.0116081 0.168077)
(-0.00467391 -0.00676708 0.166377)
(0.00579583 -0.00456287 0.130306)
(-0.0176282 -0.0159371 0.164447)
(0.000243616 0.00652004 0.163364)
(0.00949252 -0.00420151 0.117287)
(0.00838822 -0.0153561 0.152231)
(-0.00925596 -0.00658361 0.146669)
(0.000594683 0.002351 0.126227)
(0.0143009 0.0160066 0.141077)
(0.0024631 -0.0043676 0.0883121)
(0.00290169 0.00477214 0.14736)
(0.00195083 -0.00258618 0.125467)
(0.00908454 0.00247568 0.120177)
(0.0188196 -0.00251277 0.161985)
(0.00221285 -0.00295733 0.123578)
(0.0166277 0.00981501 0.177916)
(0.00544722 0.00350277 0.157823)
(-0.0110992 0.00758152 0.15309)
(0.0121839 0.00625335 0.130646)
(0.00636124 -0.00370896 0.112083)
(0.00368917 -0.0060402 0.16216)
(-0.0114926 0.00510381 0.1613)
(-0.00272172 0.0107802 0.142459)
(0.00595125 -0.00100774 0.106381)
(0.00628256 -0.0110452 0.104864)
(0.00782602 -0.00878746 0.150359)
(0.00732887 0.00249327 0.170556)
(0.00477801 -0.00386704 0.162125)
(0.00416357 -0.00453737 0.162121)
(0.00623483 -0.000564363 0.135209)
(-0.00408628 -0.00249795 0.148557)
(-0.0126704 -0.00247876 0.185794)
(-0.0186443 -0.0031378 0.17743)
(-0.00552846 -0.00309611 0.14096)
(0.00206875 -0.00917259 0.141691)
(0.00446858 -0.00329966 0.163203)
(0.00287203 -0.0104878 0.140769)
(0.00598602 0.00258098 0.130851)
(-0.0262968 -0.0144139 0.131103)
(0.0150348 0.00686907 0.132626)
(0.00625653 0.0112694 0.175441)
(0.0252489 0.00621512 0.130768)
(-0.0127723 0.00623475 0.15431)
(-0.0115842 0.00402804 0.128714)
(0.00276261 0.000100925 0.168154)
(0.0255547 0.00609453 0.177531)
(-0.00671081 0.00187184 0.159951)
(0.00448161 -0.0043006 0.165675)
(-0.00899108 -0.00737023 0.137074)
(0.00845858 0.000299587 0.138375)
(0.0150224 -0.00467861 0.0910735)
(-0.000836884 0.000509832 0.13784)
(0.019139 -0.000783885 0.182939)
(-0.00222785 -0.00374047 0.149089)
(0.00705923 -0.0107614 0.149556)
(-0.00792168 0.000776076 0.109615)
(0.00456089 -0.00230723 0.187458)
(0.0132562 0.00598385 0.137354)
(0.013052 -0.00753591 0.133909)
(0.000267282 -0.00425892 0.138813)
(0.0120122 -0.00716376 0.176041)
(-0.00109394 0.00889632 0.170718)
(0.00295369 0.00301084 0.129467)
(-0.0172477 -0.00690767 0.161631)
(0.0197997 0.00774817 0.112187)
(-0.017001 -0.00271741 0.18918)
(0.00673408 0.00407759 0.126307)
(-0.0170007 -0.000218842 0.158441)
(0.00336112 -0.00134684 0.158901)
(0.00217701 0.00104034 0.165826)
(-0.00218589 -0.00995715 0.133745)
(0.00133651 0.00323188 0.13399)
(0.00749442 0.00326077 0.131442)
(-0.00654287 -0.00167129 0.151587)
(0.0070926 -0.0136652 0.163676)
(-0.00154401 -0.00228094 0.125866)
(-0.000141827 -0.00140367 0.0944268)
(-0.000276285 -0.000710771 0.164717)
(-0.00329652 0.000917382 0.164788)
(-0.00596575 -0.00567119 0.164177)
(0.00325996 0.000612705 0.165076)
(0.00123169 -0.00134037 0.136624)
(-0.00917446 0.00970741 0.147629)
(-0.0145511 0.00105443 0.184875)
(-0.000820607 -0.00806375 0.136605)
(-0.00719377 0.00422947 0.117294)
(0.0101174 0.00727519 0.150462)
(0.00673355 0.0103698 0.136075)
(0.00879766 -0.0109111 0.173639)
(-0.00527277 0.00377293 0.130324)
(-0.0102879 0.00271593 0.159819)
(0.0169008 -0.0131632 0.144989)
(0.00645737 -0.00373761 0.168951)
(-0.00734971 0.00333225 0.187461)
(-0.000649122 -0.0141804 0.132242)
(-0.00641445 0.000655898 0.13577)
(0.00822099 0.000613732 0.104357)
(-0.01752 0.00602791 0.175489)
(-0.00571004 -9.5044e-05 0.130656)
(0.00453966 -0.00503246 0.133124)
(0.0036648 -0.000993581 0.147149)
(6.05629e-05 -0.00618174 0.17468)
(-0.00463948 -0.00565932 0.187435)
(0.00462056 -0.000575511 0.169811)
(-0.00427955 -0.00168429 0.155867)
(0.00588878 -0.0155568 0.141038)
(-0.00022635 0.00512387 0.15033)
(-0.00475584 -0.00168992 0.151303)
(0.000527417 0.00650735 0.161923)
(0.00276921 -0.00270571 0.158118)
(-0.00222002 -0.00198114 0.129402)
(0.0087591 0.00934983 0.186457)
(0.00394089 0.011322 0.183199)
(0.000425061 -0.0191588 0.144672)
(0.00708191 -0.00477655 0.192456)
(0.0312845 0.0234562 0.153197)
(-0.00250955 -0.00672581 0.138782)
(-0.00141985 -0.00223429 0.152397)
(-0.00369418 0.0111865 0.182581)
(0.0106133 -0.0128599 0.165337)
(0.00114785 0.00418207 0.121924)
(-0.00299211 -0.0097876 0.138299)
(-0.0089791 -0.00183315 0.183895)
(-0.0046126 0.00571241 0.132897)
(0.00501321 -0.0112081 0.142595)
(0.000993199 -0.00356961 0.111132)
(-0.00646809 0.00854368 0.155421)
(-0.0108283 0.00981986 0.151985)
(-0.00214678 -0.0156536 0.106839)
(-0.00455736 -0.00756069 0.171578)
(-0.0111781 -0.0119306 0.130929)
(-0.00194906 -0.0018016 0.142058)
(-0.00278031 0.00194322 0.162265)
(-0.00959075 0.00184665 0.147232)
(-0.00248958 -0.0118459 0.14403)
(0.0258989 -0.00434129 0.161532)
(0.0025195 -0.00401154 0.0993326)
(0.0062497 0.00127308 0.140909)
(-0.000791407 0.000404176 0.150077)
(-0.000347202 -0.00818363 0.129508)
(0.00281152 -0.000693168 0.14994)
(0.00917296 -0.0015833 0.145274)
(0.001161 0.0172836 0.13876)
(-0.0101248 0.00204985 0.165497)
(0.00610408 -0.0108565 0.119508)
(0.00864026 0.00811428 0.144435)
(-0.000168767 0.00343229 0.141566)
(0.0101506 0.0075188 0.147153)
(-0.0025155 0.00265886 0.162413)
(0.0193698 -0.00793391 0.10066)
(0.0071958 -0.00485417 0.193072)
(0.00631189 -0.0106792 0.156879)
(-0.000205393 -0.00628902 0.141893)
(-0.00337222 0.0170363 0.153039)
(0.000235557 0.00316944 0.138946)
(-0.00298959 0.0114175 0.173982)
(0.0092751 0.0109892 0.130344)
(0.00844171 -0.0018747 0.09984)
(0.00311054 0.00105008 0.137088)
(0.00617488 0.00580563 0.130997)
(-0.0055254 0.00776018 0.144802)
(-0.0136981 0.0115336 0.172236)
(0.0163898 0.00180686 0.185015)
(0.0113355 0.00217689 0.109473)
(-0.010621 -0.00256696 0.173693)
(-0.00153361 0.0030475 0.128037)
(0.000923296 0.00627192 0.168598)
(-0.00469753 -0.00289854 0.0987515)
(0.00415402 0.00990421 0.144578)
(-0.0024438 -0.00213666 0.144298)
(-0.00186437 0.00651933 0.172079)
(-0.0103436 0.00148834 0.137831)
(-0.000958463 0.00105935 0.154495)
(0.00653255 -0.00856218 0.133328)
(0.00850684 -0.00289516 0.167891)
(-0.00998587 -0.000393068 0.132491)
(-0.0208399 0.0078113 0.168834)
(0.00711737 0.00427372 0.167163)
(-0.000555861 0.00898586 0.155395)
(0.00988125 0.000995181 0.172379)
(-0.00700603 0.00356883 0.161203)
(-0.000467929 -0.0103684 0.169267)
(0.000957602 0.00325179 0.13785)
(-0.00312818 -0.00232967 0.181186)
(0.0160472 -0.000784218 0.19351)
(0.00290273 0.00535187 0.166431)
(-0.009684 -0.00318174 0.149757)
(-0.00293617 -0.00434343 0.177459)
(-0.00442519 0.012048 0.140058)
(0.0116191 -0.00426757 0.169579)
(-0.0109412 0.00327114 0.146947)
(-0.0221069 -0.00464777 0.164573)
(0.00602329 0.00547438 0.159183)
(0.00326988 -0.0153371 0.141869)
(0.0136792 0.00103076 0.13049)
(-0.0170617 -0.00123857 0.187144)
(-0.0229023 0.00231638 0.108629)
(-0.00112684 -0.000832504 0.13944)
(0.00176598 0.00922702 0.139339)
(-0.0080541 0.00108842 0.143749)
(-0.00428277 0.0191906 0.170144)
(1.98464e-05 0.000461841 0.118824)
(-0.00891083 0.00486719 0.1248)
(-0.0119157 0.0175058 0.126713)
(0.0169454 -0.00547829 0.127812)
(-0.0028031 0.0128733 0.14055)
(0.00312342 0.00508376 0.180082)
(-0.0148938 -0.00752527 0.111001)
(7.68557e-05 -0.00729467 0.140585)
(0.0068188 -0.00868709 0.183284)
(0.00488279 0.0118191 0.140785)
(-0.00967801 0.0143265 0.164586)
(-0.0175105 -0.00806543 0.102551)
(-0.00270794 -0.00287372 0.147396)
(0.00995702 -0.000534637 0.160337)
(0.0013145 -0.00628677 0.150758)
(0.00989272 0.00515731 0.158616)
(0.00152519 -0.00363837 0.137629)
(-0.00916018 0.001738 0.187683)
(0.0094732 0.00098823 0.140539)
(0.0148096 -0.00807144 0.0912085)
(0.00495696 -0.0225766 0.126466)
(0.0127403 -0.00358929 0.164247)
(-0.00851316 0.00908051 0.145199)
(0.00413487 -0.0104079 0.108347)
(0.00343939 -0.000431465 0.128713)
(-0.000662369 -0.00606733 0.167889)
(0.00140975 -0.00362691 0.155318)
(-0.0101693 -0.00088259 0.126792)
(-0.0146357 -0.0166361 0.156955)
(-0.00317793 0.00399867 0.140105)
(-0.00275467 -0.0121893 0.155879)
(0.00743693 -0.00641713 0.167027)
(-0.00192011 -0.00873135 0.176103)
(-0.0074659 0.00155112 0.133555)
(-0.00306351 -0.00309419 0.139472)
(-0.000684088 0.00135756 0.158905)
(-0.00562849 0.00722757 0.143449)
(-0.00173073 0.00502202 0.116617)
(-0.00040193 -0.00301112 0.141663)
(0.0114585 -0.0085612 0.18548)
(0.00329873 0.00354415 0.166218)
(-0.00943769 -0.00703738 0.160078)
(0.00743559 0.000713996 0.161146)
(-0.010514 -0.0104264 0.144149)
(-0.00906698 -0.0111114 0.166292)
(-0.00857403 -0.0137228 0.167671)
(0.00925516 -0.000668767 0.177362)
(-0.00621908 -0.0232617 0.118616)
(-0.00370804 -0.00581852 0.140877)
(0.000458448 0.00574762 0.121926)
(0.0205078 -0.00192169 0.186357)
(-0.00256885 -0.00360681 0.183503)