/*--------------------------------*- C++ -*----------------------------------*\
| =========                 |                                                 |
| \\      /  F ield         | OpenFOAM: The Open Source CFD Toolbox           |
|  \\    /   O peration     | Version:  2406                                  |
|   \\  /    A nd           | Website:  www.openfoam.com                      |
|    \\/     M anipulation  |                                                 |
\*---------------------------------------------------------------------------*/
FoamFile
{
    version     2.0;
    format      ascii;
    arch        "LSB;label=32;scalar=64";
    class       volVectorField;
    location    "2";
    object      momentum:momentum;
}
// * * * * * * * * * * * * * * * * * * * * * * * * * * * * * * * * * * * * * //

dimensions      [1 1 -1 0 0 0 0];

internalField   nonuniform List<vector> 
59516
(
(3.57543e-07 -2.60021e-08 -2.66637e-08)
(2.70503e-07 1.61548e-08 -2.81325e-08)
(2.42509e-07 3.43529e-09 4.10362e-10)
(1.94434e-07 1.24406e-08 -9.18609e-10)
(2.52266e-07 3.46178e-09 6.41522e-10)
(5.57008e-08 -1.06146e-08 -2.25476e-08)
(2.56994e-07 1.37193e-08 -3.74441e-09)
(3.3918e-07 1.34232e-08 3.12714e-08)
(2.14301e-07 1.42636e-08 -5.53513e-09)
(2.21692e-07 1.29947e-08 -2.0517e-08)
(1.72199e-07 9.24566e-09 -4.41468e-09)
(3.00469e-07 1.43789e-08 -7.75841e-09)
(5.62232e-07 -8.52622e-09 8.06144e-09)
(7.60405e-08 -4.7475e-09 7.87085e-10)
(4.9709e-07 -3.61241e-08 -3.06431e-08)
(2.76132e-07 -3.27952e-08 -1.8458e-08)
(2.33922e-07 3.63612e-09 2.9289e-10)
(4.14222e-07 -1.30547e-08 -2.6694e-08)
(5.12698e-07 -3.71886e-08 -1.10532e-08)
(3.64226e-07 -1.76823e-09 -8.06531e-09)
(3.57137e-07 -1.2299e-10 -1.40925e-08)
(3.33766e-07 -1.25065e-08 2.51184e-08)
(3.89743e-07 1.28462e-08 -1.64744e-09)
(1.60165e-07 9.64745e-10 -1.90405e-08)
(3.21178e-07 -1.29991e-08 -8.06624e-09)
(6.06971e-07 1.77817e-08 -4.07488e-08)
(2.00185e-07 1.22806e-08 -4.49531e-09)
(2.72342e-07 -2.07781e-08 3.36255e-08)
(4.15859e-07 -3.39718e-09 -3.40048e-08)
(7.38302e-08 4.70117e-09 -6.25307e-10)
(2.67433e-07 -1.37097e-08 -7.06955e-09)
(2.9659e-07 -3.6093e-08 -3.6172e-08)
(1.86435e-07 -1.74823e-08 4.07206e-09)
(2.35879e-07 2.71419e-08 -1.25437e-08)
(1.26857e-07 -9.02382e-09 -1.0998e-08)
(4.64241e-07 -1.08117e-08 -1.42327e-08)
(7.13244e-08 -4.89102e-09 1.59785e-08)
(3.13176e-07 1.55e-08 2.05661e-09)
(5.11483e-07 -5.18261e-09 8.71674e-09)
(3.02209e-07 -1.89546e-08 2.37841e-08)
(4.27867e-07 7.01326e-09 2.82268e-09)
(4.72709e-07 1.59606e-08 -2.37145e-08)
(3.85387e-07 7.08886e-09 4.688e-08)
(1.53341e-07 1.82734e-09 -1.76815e-08)
(2.96406e-07 6.96749e-09 -2.87166e-10)
(3.17079e-07 3.90422e-08 3.00836e-08)
(4.30376e-07 4.6308e-09 -4.69055e-08)
(2.44076e-07 7.44453e-09 3.03947e-09)
(3.68148e-07 1.60072e-08 1.13344e-08)
(2.234e-07 -1.39943e-09 5.05577e-09)
(1.7834e-07 1.3286e-08 -1.47473e-08)
(3.05373e-07 6.11687e-09 -1.592e-08)
(4.7951e-07 1.19228e-08 1.21205e-08)
(4.22142e-07 1.82337e-09 -9.00891e-09)
(2.97941e-07 -2.3298e-08 -2.16035e-08)
(3.39454e-07 -2.94226e-08 5.50166e-09)
(1.8769e-07 1.0148e-08 1.1277e-08)
(3.15411e-07 5.43544e-09 5.02987e-08)
(1.55796e-07 -8.08436e-09 4.98065e-09)
(1.42184e-07 3.56421e-09 -4.14002e-09)
(2.17485e-07 1.16239e-08 -1.51876e-08)
(9.0999e-08 4.71446e-09 -4.95161e-09)
(2.18148e-07 -1.62057e-08 -1.52404e-08)
(2.94702e-07 -1.74068e-08 -1.0202e-08)
(4.20407e-07 -2.42544e-08 -7.94117e-09)
(1.94888e-07 4.78835e-09 1.57597e-09)
(8.95316e-08 -7.05193e-10 -1.35985e-09)
(2.86501e-07 -8.01786e-10 -2.16152e-08)
(2.43694e-07 6.68225e-09 1.96975e-08)
(1.8198e-07 6.459e-09 2.93787e-09)
(2.41036e-07 -1.18871e-08 1.1861e-08)
(1.23649e-07 4.62507e-09 -7.17649e-10)
(1.21011e-07 -1.36637e-09 1.05515e-08)
(1.88383e-07 2.49453e-10 2.12034e-09)
(3.12317e-07 5.64008e-09 1.24683e-08)
(3.75749e-07 -1.07038e-08 2.06667e-09)
(1.97742e-07 -9.91134e-10 1.46199e-08)
(2.09654e-07 -1.00817e-08 -6.63036e-09)
(3.24436e-07 1.45205e-08 -4.57585e-08)
(1.57647e-07 1.58916e-09 8.79655e-09)
(2.13973e-07 -1.32793e-08 -3.64046e-08)
(1.46487e-07 -1.2338e-08 -7.54443e-09)
(1.92581e-07 -5.32636e-09 -4.12133e-09)
(9.85597e-08 9.57564e-09 -1.5604e-08)
(2.0178e-07 -1.9384e-08 -3.39489e-09)
(3.10649e-07 -6.15975e-09 -9.73806e-10)
(1.27386e-07 2.26961e-08 3.64427e-10)
(5.66763e-07 -3.72414e-09 -1.86147e-08)
(3.46495e-07 -1.03662e-08 -2.16219e-08)
(2.55236e-07 2.04807e-08 -4.22711e-09)
(1.91458e-07 1.41732e-08 -6.52972e-09)
(1.80565e-07 -3.10658e-09 9.99044e-09)
(2.26343e-07 -4.6304e-09 3.89939e-09)
(1.62779e-07 1.93997e-10 3.53461e-10)
(1.45324e-07 -1.36442e-08 2.78694e-09)
(2.38947e-07 -1.02013e-08 -2.61539e-09)
(1.12825e-07 -8.51096e-09 3.77934e-10)
(3.08228e-07 2.42051e-08 2.21712e-08)
(2.91188e-07 -4.47646e-09 -3.52356e-09)
(1.92463e-07 8.58268e-09 -1.11348e-08)
(2.83779e-07 -6.15266e-09 3.7676e-10)
(1.44589e-07 3.40088e-09 -5.82677e-11)
(1.2727e-07 -2.02326e-09 -1.30202e-08)
(2.70793e-07 1.68431e-08 8.63987e-10)
(2.77081e-07 -7.38502e-10 -7.69373e-09)
(1.33217e-07 -1.03648e-09 -8.06261e-10)
(2.20093e-07 -2.89536e-08 -1.0781e-08)
(1.63921e-07 -8.80276e-09 -7.84799e-09)
(2.79023e-07 -6.20979e-09 1.49615e-08)
(6.19174e-07 -1.49762e-08 9.95777e-09)
(3.06238e-07 3.59203e-10 -1.725e-08)
(2.36347e-07 -2.42028e-08 9.63688e-09)
(5.43635e-07 2.02118e-08 -2.0204e-08)
(2.94666e-07 9.88323e-09 -4.1693e-09)
(2.17796e-07 -7.39436e-09 5.44382e-09)
(2.05497e-07 2.85658e-09 1.6265e-08)
(4.00349e-07 -9.128e-09 4.34869e-08)
(1.59787e-07 1.32708e-08 -5.63887e-09)
(1.06565e-07 -1.6309e-09 4.8444e-09)
(2.61124e-07 8.24999e-09 2.77124e-08)
(3.43786e-07 -8.1179e-09 1.93056e-08)
(1.42447e-07 -7.57439e-10 -5.25657e-09)
(1.42814e-07 -7.06374e-09 7.13207e-11)
(1.40837e-07 1.73421e-09 9.47352e-09)
(1.34627e-07 1.73001e-09 2.31287e-09)
(2.4144e-07 -1.90833e-09 -1.62394e-08)
(1.77982e-07 -1.43826e-08 -2.23408e-08)
(2.28929e-07 1.77644e-08 2.5343e-08)
(3.17306e-07 1.61961e-08 1.77034e-08)
(1.09434e-07 1.3031e-08 1.57333e-09)
(2.33094e-07 2.58865e-08 -2.34267e-10)
(4.92675e-07 2.49744e-08 3.79523e-08)
(1.19879e-07 3.39135e-09 9.97216e-09)
(2.6861e-07 -4.18626e-09 4.61546e-10)
(6.07738e-07 -4.69254e-09 1.13202e-08)
(2.41317e-07 -9.21969e-09 -1.28654e-08)
(2.27525e-07 -2.40578e-09 -1.63001e-09)
(4.26732e-07 -1.64058e-08 7.64847e-09)
(2.272e-07 3.47006e-09 -6.27028e-09)
(2.54971e-07 7.45635e-09 2.25058e-08)
(3.27175e-07 8.5494e-09 4.01386e-09)
(2.47823e-07 2.18933e-09 -1.07147e-08)
(8.35324e-08 3.43757e-09 4.03544e-09)
(1.54097e-07 2.25258e-09 3.48668e-09)
(1.74153e-07 8.0828e-09 -4.61956e-09)
(2.80973e-07 1.19219e-08 -1.65474e-08)
(2.2691e-07 5.09202e-09 1.14168e-08)
(2.77489e-07 -6.75172e-09 -8.72552e-09)
(1.21588e-07 8.05574e-09 2.52973e-09)
(2.93052e-07 -5.01639e-09 5.39974e-09)
(5.86329e-07 7.5266e-09 -2.41807e-08)
(2.21726e-07 2.30654e-08 9.99376e-09)
(3.93348e-07 1.39779e-08 2.32305e-08)
(2.10723e-07 -3.43215e-09 -3.34859e-09)
(3.08367e-07 3.41385e-09 -1.0706e-08)
(7.90109e-08 -5.57102e-11 -3.60028e-09)
(3.9075e-07 -9.6082e-10 4.0147e-08)
(4.95237e-07 9.08765e-09 -1.59861e-09)
(2.60042e-07 1.55546e-08 -6.98449e-09)
(8.32669e-08 3.07269e-10 8.87775e-09)
(2.21241e-07 -1.63109e-08 -2.90995e-10)
(3.06396e-07 3.16608e-08 -1.58214e-08)
(1.69769e-07 2.30132e-08 8.55933e-09)
(1.06402e-07 7.96186e-09 3.09477e-09)
(3.14992e-07 7.15374e-09 1.29924e-08)
(3.18763e-07 1.09162e-08 1.78549e-08)
(5.08053e-07 3.41536e-08 -6.51931e-09)
(2.25851e-07 1.84351e-08 1.69385e-09)
(1.01285e-07 -3.21871e-09 -1.16003e-08)
(2.04309e-07 1.5793e-08 8.51208e-09)
(1.52342e-07 -5.08866e-09 1.87007e-08)
(2.2245e-07 7.42295e-09 -2.78723e-09)
(2.85627e-07 -1.11098e-08 -1.49493e-08)
(1.38759e-07 1.1806e-09 1.1406e-08)
(2.95541e-07 1.5102e-10 -2.20283e-09)
(6.05354e-07 1.85685e-08 -2.34843e-08)
(2.13463e-07 1.05286e-08 6.5654e-09)
(3.36458e-07 3.44723e-09 4.06486e-08)
(4.58178e-07 3.20326e-08 3.38491e-08)
(2.67837e-07 4.21017e-09 -1.47105e-08)
(3.34845e-07 -5.23264e-09 1.1065e-08)
(2.03563e-07 1.26175e-08 -1.02048e-08)
(1.4258e-07 1.47755e-08 5.27804e-09)
(2.79461e-07 -6.87722e-09 9.32539e-09)
(1.60245e-07 2.99911e-09 1.66876e-09)
(2.68798e-07 -4.76536e-09 1.62809e-08)
(2.09864e-07 -1.67821e-09 1.06883e-08)
(1.18009e-07 1.08286e-08 8.41635e-10)
(2.20928e-07 -4.03619e-09 1.00598e-08)
(3.8635e-07 -2.96924e-08 -1.34305e-08)
(1.83872e-07 -1.32793e-08 1.04398e-08)
(4.2612e-07 -1.03177e-08 -3.25961e-09)
(2.03401e-07 -8.61297e-09 1.06158e-08)
(2.74381e-07 -5.70922e-09 3.46598e-09)
(3.5351e-07 -1.74047e-09 1.50484e-08)
(1.30252e-07 -4.99775e-09 -1.53321e-08)
(2.97759e-07 3.27734e-09 7.74976e-09)
(2.28046e-07 2.27653e-10 1.87694e-08)
(2.55604e-07 -3.70559e-09 1.74416e-08)
(2.82773e-07 3.19821e-09 -2.01055e-09)
(1.45991e-07 -1.09531e-08 1.21672e-08)
(1.34095e-07 -1.87372e-09 -5.62691e-09)
(5.56631e-07 -1.2723e-09 8.70862e-09)
(1.0092e-07 -9.22699e-09 3.65545e-09)
(2.41514e-07 1.22835e-08 -4.6121e-09)
(2.66708e-07 -3.07906e-08 -4.74025e-09)
(2.97656e-07 -9.07096e-09 1.17994e-08)
(1.69461e-07 2.2285e-09 -1.39859e-09)
(9.30961e-08 -1.9494e-09 -1.27148e-09)
(5.01427e-07 2.59643e-09 -3.35002e-08)
(1.93274e-07 -7.18348e-09 -2.14395e-09)
(1.22888e-07 2.09645e-08 -1.04517e-08)
(2.50883e-07 2.13637e-09 -3.95402e-09)
(3.09096e-07 -5.86417e-09 -1.96995e-08)
(4.31125e-07 -8.02327e-09 2.36671e-08)
(2.43139e-07 1.4816e-09 -3.43779e-09)
(3.12177e-07 4.10424e-09 -1.43278e-08)
(1.81568e-07 -4.48422e-09 1.15108e-09)
(2.74086e-07 6.72425e-09 9.83167e-09)
(2.04782e-07 2.18027e-09 1.11679e-08)
(4.20795e-07 -1.01195e-08 -1.85491e-08)
(3.00948e-07 -1.11797e-08 -1.98262e-08)
(1.36744e-07 8.13293e-09 1.82626e-09)
(3.72576e-07 2.11087e-08 1.6194e-08)
(2.57087e-07 -7.53582e-09 -6.13485e-09)
(2.51626e-07 5.13131e-10 1.2401e-08)
(1.64333e-07 1.50183e-09 1.09972e-08)
(2.39266e-07 -2.26753e-08 1.19226e-08)
(1.56366e-07 -8.96506e-09 1.40521e-08)
(4.49187e-07 -1.83004e-08 1.43319e-08)
(2.06237e-07 -4.73517e-09 -7.89514e-09)
(1.42158e-07 8.15236e-09 -8.24366e-09)
(2.78881e-07 2.19707e-08 1.32646e-10)
(1.58499e-07 1.1853e-08 1.65704e-09)
(1.40606e-07 -1.23146e-08 1.12475e-08)
(1.71534e-07 -1.70704e-08 5.11535e-09)
(3.0112e-07 3.75774e-10 -3.83712e-09)
(2.8772e-07 3.82975e-09 -2.06704e-08)
(4.07929e-07 2.19663e-08 -7.51868e-09)
(2.66232e-07 2.29697e-08 -1.01332e-08)
(1.87264e-07 -1.29958e-09 5.67261e-09)
(1.05796e-07 -1.22177e-08 -1.42727e-08)
(3.63762e-07 7.66786e-09 9.23266e-09)
(1.52733e-07 -1.10744e-08 5.51802e-09)
(1.07777e-07 1.4524e-08 1.766e-09)
(2.92254e-07 2.79704e-08 1.76673e-08)
(2.09973e-07 -8.5092e-09 1.08787e-08)
(5.78658e-07 -6.61046e-09 4.39593e-08)
(2.47682e-07 -1.65683e-08 7.58837e-09)
(3.10489e-07 -6.5673e-09 -1.43783e-08)
(4.03847e-07 -4.27528e-08 9.75951e-09)
(2.27092e-07 -4.20846e-09 -4.32341e-09)
(1.40904e-07 1.14064e-08 1.26225e-08)
(2.85136e-07 1.15307e-08 -4.44446e-09)
(2.91642e-07 1.94291e-08 1.61793e-08)
(2.97509e-07 -8.17738e-09 1.24001e-08)
(3.87858e-07 -9.86124e-10 2.05335e-08)
(2.7344e-07 8.20284e-09 -1.51415e-08)
(3.46697e-07 2.12866e-09 1.32606e-08)
(2.83832e-07 -4.1185e-08 -1.00425e-08)
(2.69226e-07 1.66904e-08 -9.65263e-09)
(2.18456e-07 1.49209e-08 1.04092e-08)
(3.64503e-07 3.9882e-08 -2.05478e-08)
(2.3144e-07 -4.04404e-09 3.6052e-09)
(1.05328e-07 -8.1754e-09 1.2233e-08)
(3.63673e-07 1.55285e-08 2.01353e-08)
(2.98607e-07 -1.18301e-08 -3.50438e-08)
(4.04194e-07 4.30685e-08 2.00515e-09)
(2.39353e-07 -7.44014e-09 2.22763e-08)
(2.42522e-07 6.19477e-10 -1.38178e-08)
(2.65122e-07 -1.74076e-08 -2.24619e-09)
(1.54032e-07 -6.02491e-10 3.89329e-09)
(6.26061e-07 -8.87993e-09 2.08341e-08)
(2.66132e-07 -1.16192e-08 -2.65643e-08)
(2.98185e-07 -5.90688e-09 -1.01904e-09)
(3.60532e-07 -1.31389e-08 2.18004e-08)
(1.04689e-07 -1.13801e-08 9.2302e-09)
(2.80154e-07 -1.31968e-08 -1.26223e-09)
(1.61839e-07 -1.93108e-08 1.7528e-08)
(2.14761e-07 6.70689e-09 -2.15019e-08)
(2.89801e-07 -5.00142e-13 -2.47479e-09)
(2.60668e-07 3.41222e-09 -6.76296e-09)
(1.49799e-07 8.2538e-09 -5.41796e-09)
(4.0456e-07 2.31845e-08 4.199e-08)
(3.45314e-07 2.55949e-09 2.45353e-09)
(2.04852e-07 1.6064e-08 -3.05352e-11)
(2.70048e-07 -2.10586e-08 -1.79883e-08)
(1.35913e-07 -8.91348e-09 -7.96219e-09)
(2.08501e-07 1.03707e-09 3.68204e-09)
(9.23684e-08 -8.21392e-11 -2.11245e-09)
(1.14808e-07 -7.15854e-10 4.02076e-09)
(2.88639e-07 -6.83199e-09 -1.14912e-09)
(1.50432e-07 -3.06493e-09 5.97384e-09)
(3.09557e-07 2.2978e-08 -2.36001e-08)
(2.22818e-07 -6.33169e-09 1.87468e-09)
(2.17572e-07 4.11058e-10 1.67731e-08)
(2.55215e-07 -4.07329e-09 -2.27564e-09)
(2.1262e-07 1.59595e-08 -1.26397e-09)
(2.97807e-07 -1.31081e-08 -1.09792e-10)
(2.04172e-07 1.24416e-09 3.14615e-09)
(4.16265e-07 -7.63005e-09 2.65827e-08)
(4.12298e-07 9.4592e-09 -4.91364e-09)
(1.06313e-07 -8.18575e-09 3.02269e-09)
(1.91986e-07 1.19122e-08 -3.43833e-09)
(5.96216e-07 -2.33266e-08 4.49727e-09)
(9.36139e-08 3.94404e-10 -1.35593e-08)
(5.93531e-07 1.12459e-08 4.52817e-08)
(2.35884e-07 -2.79263e-08 3.49406e-09)
(3.00685e-07 2.41385e-08 1.36021e-08)
(3.43074e-07 -2.10539e-08 -1.20292e-08)
(3.40624e-07 3.94577e-09 -8.19649e-09)
(3.63942e-07 -2.29854e-08 1.25547e-08)
(4.73779e-07 -7.8596e-09 1.04086e-08)
(3.09697e-07 -1.71096e-09 1.05832e-08)
(2.60797e-07 1.44451e-08 -2.55195e-08)
(1.67643e-07 -9.834e-09 2.01688e-09)
(2.71716e-07 -3.37474e-09 2.00021e-09)
(3.2427e-07 2.5209e-08 3.22595e-09)
(3.23472e-07 -6.33924e-09 2.07801e-08)
(2.63166e-07 1.14114e-08 1.83577e-09)
(2.9288e-07 2.01725e-08 2.2053e-09)
(3.47674e-07 -2.01679e-08 -1.35372e-08)
(1.67272e-07 -3.08788e-09 -4.24181e-09)
(4.12229e-07 1.02433e-08 2.69262e-08)
(1.89872e-07 -3.02723e-09 1.37878e-08)
(4.81027e-07 2.24963e-08 -1.94398e-08)
(2.64275e-07 -2.7206e-08 -8.92435e-09)
(3.91722e-07 -1.92303e-08 7.23141e-09)
(2.33612e-07 1.2485e-08 1.03454e-09)
(1.63508e-07 3.94833e-09 9.23013e-09)
(3.52016e-07 -5.88038e-09 1.76442e-08)
(3.18202e-07 2.62943e-11 2.54139e-08)
(1.25564e-07 6.77277e-09 -2.41865e-09)
(2.88665e-07 1.56028e-09 1.52551e-08)
(2.47719e-07 -3.16106e-09 1.31537e-09)
(1.26172e-07 -1.59756e-08 1.04894e-08)
(3.6766e-07 1.96012e-08 -1.12407e-08)
(1.79831e-07 -1.6972e-08 -8.72727e-09)
(2.82275e-07 -2.35877e-08 -7.6271e-09)
(2.19228e-07 2.75354e-10 3.7316e-11)
(2.76055e-07 2.16142e-08 1.00119e-08)
(3.42257e-07 -8.83649e-09 2.92397e-09)
(2.23235e-07 -5.22069e-09 -1.02783e-08)
(1.34426e-07 -8.44782e-09 -6.26671e-09)
(3.26406e-07 -1.80089e-08 -4.99565e-09)
(1.62259e-07 4.20262e-09 6.72559e-09)
(3.45587e-07 -2.51978e-09 6.92476e-09)
(2.24662e-07 -1.31522e-08 1.47232e-08)
(1.90565e-07 -1.09657e-08 2.13439e-08)
(1.93688e-07 -6.35569e-09 -1.02557e-08)
(2.33165e-07 -1.04864e-09 1.20802e-08)
(2.58725e-07 -9.16324e-09 4.7793e-09)
(1.95511e-07 1.73947e-08 3.43042e-09)
(1.45431e-07 1.12455e-08 -2.5455e-09)
(9.11651e-08 1.08427e-08 -1.21859e-08)
(1.62048e-07 1.6845e-08 2.60101e-09)
(4.09618e-07 -2.19095e-08 2.6973e-09)
(5.98325e-07 -2.6127e-08 2.18189e-08)
(2.79592e-07 -1.56799e-08 -2.79303e-08)
(2.07132e-07 8.0394e-09 8.90721e-09)
(3.46507e-07 -1.91542e-08 2.40821e-09)
(3.87515e-07 -3.72974e-08 2.01675e-08)
(1.72598e-07 2.49736e-09 -1.38269e-09)
(3.75772e-07 -2.26812e-08 7.61344e-09)
(4.42193e-07 -2.17635e-08 1.784e-08)
(2.01287e-07 5.8038e-09 -2.17343e-09)
(1.09358e-07 1.91307e-09 4.39998e-10)
(1.02429e-07 -9.95145e-09 -1.65391e-09)
(3.33589e-07 -3.05437e-08 -1.99652e-08)
(2.73048e-07 2.77129e-08 -1.34902e-08)
(2.48309e-07 -6.02521e-09 2.54928e-08)
(2.9533e-07 -4.49232e-08 2.16565e-09)
(1.32014e-07 -6.72708e-09 1.34614e-09)
(3.30007e-07 -9.67946e-09 -2.17012e-09)
(2.3565e-07 -8.29326e-10 -1.89076e-08)
(1.01412e-07 -9.30794e-09 1.27976e-08)
(2.01618e-07 -2.06409e-08 -1.08929e-08)
(2.46665e-07 -1.35013e-08 -7.94991e-09)
(1.47464e-07 -1.06953e-08 8.73457e-09)
(1.76216e-07 1.20949e-08 -6.81312e-10)
(4.19981e-07 1.98217e-08 -4.56705e-08)
(3.91943e-07 9.78248e-09 -9.84635e-09)
(1.75905e-07 5.61262e-09 -1.49016e-08)
(1.02815e-07 -6.79839e-09 -1.24001e-09)
(3.75934e-07 2.95609e-08 -6.2237e-09)
(2.51975e-07 -2.12184e-08 -4.85163e-09)
(1.2814e-07 2.27852e-09 -5.89888e-09)
(3.2208e-07 -2.96674e-08 2.45152e-08)
(2.18525e-07 -1.28337e-08 1.12429e-08)
(3.68185e-07 4.49061e-09 -9.46386e-09)
(3.53364e-07 1.9586e-08 -3.63143e-08)
(1.36717e-07 3.83971e-09 -7.63252e-09)
(3.68658e-07 -3.60273e-08 -2.96318e-08)
(3.21918e-07 -1.5913e-09 1.75584e-08)
(2.72818e-07 1.09659e-08 1.22249e-08)
(2.15634e-07 -2.90244e-09 -1.09972e-08)
(4.6372e-07 -6.64879e-08 -3.73374e-08)
(4.51732e-07 7.15657e-09 -1.63461e-08)
(2.13367e-07 -6.97421e-09 -5.88599e-09)
(4.95146e-07 -2.20682e-08 1.29645e-09)
(2.54809e-07 -1.51832e-08 9.62971e-09)
(4.4671e-07 -1.78134e-08 -1.14954e-08)
(1.77988e-07 -4.30741e-09 -5.17353e-09)
(3.74841e-07 -1.46385e-08 2.8802e-09)
(3.06646e-07 -3.26367e-09 -7.48832e-09)
(3.00944e-07 1.62611e-09 -9.08513e-09)
(2.565e-07 -6.72751e-10 -1.03613e-09)
(4.49473e-07 -2.68946e-08 3.49802e-09)
(2.25209e-07 -6.3281e-09 -1.85574e-10)
(2.18996e-07 -6.16282e-10 -3.93667e-09)
(1.4362e-07 -5.65996e-09 2.10324e-08)
(1.03397e-07 -6.47032e-09 1.42276e-08)
(3.5781e-07 -4.75375e-09 -1.9542e-08)
(2.2661e-07 -4.64057e-10 -1.63676e-08)
(1.76473e-07 -6.92985e-09 7.92466e-10)
(1.47192e-07 -1.20387e-08 7.90742e-09)
(6.04371e-08 -3.083e-10 -1.78711e-09)
(5.65958e-07 1.84234e-08 -2.48753e-08)
(1.06893e-07 5.93836e-09 5.92403e-09)
(2.61527e-07 1.11823e-08 -1.80052e-08)
(2.3006e-07 -1.30247e-08 -3.01093e-08)
(1.65174e-07 -1.18549e-08 8.1512e-09)
(1.86152e-07 -6.11921e-09 1.25438e-08)
(2.00399e-07 1.54261e-09 1.72307e-08)
(1.72631e-07 1.09158e-08 1.21069e-09)
(2.65354e-07 -1.49139e-08 -7.25898e-09)
(2.45377e-07 -2.59411e-09 -9.21386e-09)
(2.88287e-07 -6.92955e-09 -1.85195e-08)
(1.93567e-07 2.16752e-09 2.01595e-08)
(1.76539e-07 -5.29037e-09 -5.64532e-09)
(3.97248e-07 2.45401e-08 -4.65095e-09)
(2.70137e-07 -6.37329e-09 -2.7275e-10)
(2.97857e-07 -1.05086e-08 1.27447e-08)
(2.12655e-07 -1.23399e-08 -3.01389e-08)
(1.09286e-07 -1.05194e-08 5.18101e-09)
(1.91219e-07 1.07519e-08 -5.01428e-09)
(2.37958e-07 -3.37371e-09 -1.59198e-08)
(2.92857e-07 9.10555e-09 2.79365e-08)
(2.15205e-07 9.18244e-10 3.34562e-08)
(1.26446e-07 -2.36203e-08 -9.1903e-09)
(1.1766e-07 -5.30346e-09 1.09067e-08)
(2.39539e-07 6.89874e-09 -1.25262e-08)
(2.26648e-07 2.20491e-08 8.23046e-09)
(2.68122e-07 -1.32034e-09 1.50977e-08)
(3.45728e-07 -1.79815e-10 -1.79644e-09)
(2.34846e-07 -4.56334e-09 -8.44625e-10)
(2.63596e-07 -1.00336e-09 -1.09601e-08)
(4.42649e-07 -1.23742e-08 2.04407e-09)
(1.69646e-07 -1.08857e-08 -6.11036e-09)
(2.20409e-07 -1.03903e-08 -2.01893e-08)
(2.13834e-07 -7.86092e-10 -1.56382e-08)
(2.31249e-07 -1.05789e-08 6.9477e-10)
(1.21357e-07 -5.4942e-10 -2.74068e-09)
(2.59734e-07 2.60543e-08 -1.75167e-08)
(2.87504e-07 4.00158e-09 -1.61669e-09)
(1.17559e-07 -1.763e-09 2.02377e-08)
(3.44176e-07 2.64968e-08 -9.59086e-09)
(2.11283e-07 -1.47723e-08 9.73957e-09)
(1.68869e-07 7.96536e-09 1.08186e-08)
(3.63021e-07 -6.59323e-09 -1.40859e-08)
(1.39536e-07 8.84964e-10 1.01724e-08)
(2.02569e-07 5.04911e-09 8.98821e-09)
(3.00423e-07 -4.65875e-09 -1.79134e-08)
(2.39238e-07 -4.0952e-09 -2.43496e-09)
(2.60434e-07 -1.26787e-08 -1.66495e-08)
(2.16758e-07 2.14145e-09 9.33498e-09)
(3.16998e-07 -8.93325e-09 -8.05855e-09)
(1.04668e-07 -3.55687e-09 8.12104e-09)
(2.5344e-07 2.19157e-08 5.54764e-09)
(2.48666e-07 8.69738e-09 4.44668e-09)
(2.43862e-07 -1.6937e-08 -1.16766e-08)
(2.87989e-07 -1.0836e-08 -2.34226e-08)
(3.15496e-07 1.22148e-08 -1.34521e-08)
(2.94012e-07 5.11054e-10 2.36863e-10)
(2.4548e-07 1.10084e-08 -1.01538e-08)
(9.21767e-08 -6.62457e-10 5.84059e-09)
(2.1801e-07 -3.74675e-09 -3.06545e-08)
(4.27917e-07 -8.58888e-09 -1.87135e-08)
(2.26713e-07 -2.27117e-08 3.39997e-09)
(2.41704e-07 -3.4025e-08 2.86395e-09)
(2.84952e-07 -4.07591e-09 -2.31249e-08)
(2.76727e-07 -2.36253e-08 -5.78225e-09)
(1.22327e-07 -1.41165e-08 -6.37266e-09)
(1.43609e-07 4.37899e-09 3.23232e-09)
(2.1844e-07 2.76743e-08 -2.53842e-08)
(2.08006e-07 -8.61849e-09 1.82348e-08)
(3.45463e-07 2.48522e-08 1.09834e-08)
(2.32921e-07 2.9927e-09 9.40791e-09)
(1.81607e-07 -2.26728e-08 6.72243e-09)
(2.02417e-07 -1.28613e-09 -1.15392e-08)
(3.85471e-07 1.31329e-08 -3.2271e-08)
(1.54591e-07 1.09687e-09 -7.21205e-11)
(9.20835e-08 6.33211e-09 8.4061e-09)
(2.50442e-07 -1.12632e-08 -6.06531e-09)
(1.87596e-07 -5.72275e-09 6.85357e-09)
(1.72097e-07 -2.05327e-09 -7.9646e-09)
(3.80097e-07 -2.11458e-08 1.48855e-08)
(3.6476e-07 1.5421e-08 -2.21761e-08)
(1.62701e-07 -1.45594e-08 3.09773e-09)
(1.84245e-07 -3.73433e-09 4.09018e-09)
(1.34475e-07 1.43259e-08 -2.32231e-09)
(2.99992e-07 -6.40102e-11 2.37804e-08)
(3.40418e-07 3.45027e-08 1.0556e-08)
(2.09757e-07 -5.8503e-09 4.44459e-09)
(2.41413e-07 -1.17914e-08 3.88657e-09)
(1.13637e-07 -2.1999e-09 1.2181e-08)
(3.63187e-07 3.1205e-09 6.78034e-09)
(2.33318e-07 1.06362e-08 7.90886e-10)
(2.25265e-07 6.07331e-09 7.84519e-09)
(1.16718e-07 -6.21687e-09 -7.17133e-09)
(3.25731e-07 4.41403e-09 1.32462e-08)
(1.35589e-07 4.22977e-09 3.4835e-09)
(2.56384e-07 -1.85338e-08 -7.15383e-09)
(1.44392e-07 -2.52904e-09 -1.06364e-08)
(4.09556e-07 2.18202e-08 1.18855e-08)
(1.98109e-07 3.67125e-09 -1.69286e-09)
(4.42375e-07 1.59998e-08 -3.6075e-09)
(1.12775e-07 -3.88219e-09 -7.51693e-09)
(2.28755e-07 -2.13355e-08 1.42704e-08)
(3.04917e-07 1.45872e-08 2.2077e-08)
(4.35721e-07 -4.46578e-08 -9.93819e-09)
(3.4441e-07 2.03043e-09 -2.95991e-10)
(1.5005e-07 7.15809e-09 1.70762e-08)
(4.52378e-07 -1.82599e-08 2.71077e-09)
(2.14924e-07 -6.84977e-10 1.59197e-08)
(1.54958e-07 7.85724e-09 1.61329e-09)
(1.8576e-07 -1.90557e-08 3.40019e-09)
(4.21385e-07 1.77485e-08 -3.85657e-08)
(3.00857e-07 7.94896e-09 -1.67513e-08)
(1.56287e-07 -1.39303e-09 7.47676e-09)
(3.08996e-07 1.22264e-08 5.00859e-09)
(1.34307e-07 3.24195e-09 9.84068e-09)
(3.37085e-07 2.48614e-08 -2.25312e-08)
(1.89567e-07 -1.84392e-08 4.16928e-09)
(1.19471e-07 3.8021e-09 -1.01557e-08)
(2.67833e-07 -1.70063e-08 9.66988e-09)
(2.69941e-07 1.1643e-08 -2.10592e-09)
(2.59548e-07 -1.49148e-08 -1.88783e-08)
(8.37698e-08 5.15965e-10 -3.71557e-09)
(3.46808e-07 -3.55887e-09 2.5963e-09)
(1.41024e-07 1.34675e-08 -1.91154e-08)
(3.38584e-07 4.91385e-09 -2.35162e-09)
(2.88989e-07 -2.32288e-08 7.53849e-09)
(4.02425e-07 3.88287e-09 7.98348e-09)
(4.52904e-07 -1.96235e-08 1.96718e-08)
(3.70362e-07 -2.2357e-08 3.32645e-08)
(3.16274e-07 -1.52288e-08 -1.71996e-08)
(1.08527e-07 -1.41613e-09 -7.10568e-09)
(4.27216e-07 -2.20781e-08 8.44479e-09)
(1.91184e-07 -2.19554e-08 1.88977e-08)
(3.4534e-07 -1.20162e-08 4.44536e-09)
(4.20673e-07 -3.30927e-08 2.09724e-08)
(1.78099e-07 1.46289e-08 1.01e-08)
(2.84612e-07 -7.15673e-09 2.34829e-08)
(2.54032e-07 1.26856e-08 -1.70172e-08)
(2.05073e-07 -4.3336e-09 -1.68851e-09)
(1.74238e-07 4.41753e-09 2.2794e-09)
(4.78693e-07 6.25133e-09 5.27784e-09)
(3.11354e-07 3.26393e-08 -1.96268e-08)
(2.38166e-07 7.02891e-09 9.30961e-09)
(2.68068e-07 -1.13954e-09 1.64495e-08)
(2.66163e-07 1.19427e-08 6.75135e-09)
(2.65498e-07 1.11144e-08 -2.4815e-08)
(2.30585e-07 -1.95733e-08 1.56007e-08)
(1.32495e-07 8.17076e-09 -6.75875e-09)
(2.01857e-07 4.49097e-09 2.01933e-08)
(2.1981e-07 -3.44553e-09 2.61276e-09)
(1.30745e-07 1.14173e-08 -7.08677e-09)
(2.93191e-07 -7.49632e-10 1.00317e-08)
(1.18505e-07 2.12008e-08 -5.46294e-10)
(2.29257e-07 4.17145e-09 6.73716e-09)
(4.2602e-07 1.99025e-08 2.42209e-08)
(3.22625e-07 3.20792e-11 -2.10659e-08)
(3.37396e-07 3.90636e-09 -2.13494e-08)
(3.69225e-07 -2.38256e-08 -2.98858e-09)
(1.23219e-07 -7.69504e-11 -1.95138e-09)
(1.9796e-07 1.66669e-08 -4.34206e-09)
(2.57272e-07 1.25339e-08 -9.90317e-09)
(2.32987e-07 -1.49425e-09 -7.29763e-09)
(2.8575e-07 -4.83676e-09 5.1961e-09)
(1.95398e-07 5.34777e-09 -2.71723e-09)
(1.7187e-07 -4.59033e-09 -1.37511e-09)
(2.64156e-07 -1.89622e-09 1.89508e-08)
(2.91904e-07 2.39346e-08 1.22094e-08)
(2.41675e-07 2.37902e-09 -1.24861e-09)
(1.98572e-07 -2.69277e-08 3.93267e-09)
(8.01517e-08 -3.38209e-09 9.3543e-09)
(1.04075e-07 1.27536e-09 1.17172e-08)
(1.39198e-07 2.18936e-09 8.04822e-09)
(2.73982e-07 -2.02855e-10 8.37209e-10)
(1.8865e-07 -2.91089e-09 1.95958e-08)
(1.68364e-07 3.57785e-09 2.35958e-08)
(3.04102e-07 -2.58699e-08 -1.22969e-09)
(2.42017e-07 9.99827e-09 4.69289e-10)
(2.84488e-07 -1.29251e-08 1.96556e-08)
(1.19706e-07 -1.68201e-09 -2.92565e-09)
(1.06783e-07 3.29644e-09 4.56872e-09)
(1.77546e-07 4.24201e-09 1.60842e-08)
(2.13559e-07 9.77443e-09 3.56661e-09)
(2.72608e-07 1.32408e-08 -9.63837e-09)
(4.02769e-07 -4.43967e-09 3.28064e-09)
(2.17766e-07 -9.49089e-10 1.19672e-08)
(2.1695e-07 6.27008e-09 -3.47399e-09)
(2.99179e-07 -1.36803e-08 1.54818e-09)
(2.14459e-07 -1.58031e-08 6.87131e-10)
(2.71164e-07 -1.66174e-08 -2.48745e-09)
(3.15982e-07 4.12321e-09 -9.11931e-09)
(3.9924e-07 -7.38742e-09 -2.40166e-08)
(1.75892e-07 -5.66465e-09 -1.01002e-08)
(1.94564e-07 -1.18232e-08 1.58623e-08)
(2.60959e-07 1.35514e-08 2.07924e-08)
(1.92327e-07 1.89303e-08 -1.19728e-08)
(5.57274e-07 -2.03622e-09 -1.48713e-08)
(1.58267e-07 -8.77799e-09 1.02534e-08)
(2.651e-07 -8.08967e-09 2.97021e-08)
(3.33424e-07 1.04123e-08 -1.27761e-08)
(1.65536e-07 7.1235e-09 6.08819e-09)
(2.71192e-07 2.8305e-08 2.71054e-08)
(4.04359e-07 -3.2922e-09 1.58106e-08)
(9.76008e-08 -8.23344e-09 -2.61394e-09)
(2.83897e-07 2.22865e-08 -2.38358e-08)
(3.24002e-07 1.90022e-08 1.63865e-08)
(1.60962e-07 -2.03729e-09 2.32639e-09)
(1.54007e-07 -1.92298e-08 1.33891e-08)
(1.0366e-07 5.33634e-09 -2.48294e-09)
(2.75486e-07 -8.57934e-09 5.95086e-09)
(1.57891e-07 -2.26604e-09 3.38879e-09)
(1.09077e-07 -1.66334e-09 8.3827e-09)
(2.58124e-07 2.91548e-08 8.08581e-09)
(1.87929e-07 -1.03271e-09 -5.52117e-09)
(5.0158e-07 5.29414e-08 1.26611e-08)
(2.07913e-07 5.49701e-09 -6.52475e-09)
(1.5954e-07 -8.03393e-09 -1.14748e-08)
(1.53564e-07 -6.23436e-09 1.48412e-08)
(1.00201e-07 -6.06415e-09 -2.5613e-09)
(2.18651e-07 -5.31622e-09 -7.92551e-09)
(2.67476e-07 -1.27558e-08 1.64959e-08)
(1.88853e-07 1.444e-08 2.95543e-09)
(8.91492e-08 -3.4833e-09 -3.66776e-09)
(1.02137e-07 -1.21157e-08 -2.52754e-09)
(2.99767e-07 -4.26219e-09 -2.30694e-08)
(2.94757e-07 1.33603e-08 -7.03051e-10)
(2.15106e-07 -7.91392e-09 1.97053e-09)
(2.51086e-07 5.23796e-09 7.97048e-09)
(1.40043e-07 1.38387e-09 6.33475e-09)
(2.25716e-07 4.57165e-09 -5.66149e-09)
(2.08004e-07 -3.91815e-09 1.39127e-08)
(3.1908e-07 1.5251e-08 -3.0388e-08)
(2.47289e-07 6.56267e-09 -8.97212e-09)
(2.29169e-07 -1.51888e-08 7.70149e-10)
(4.31509e-07 -1.46549e-08 9.70262e-10)
(1.79639e-07 -1.06591e-08 8.88503e-09)
(1.42459e-07 1.00317e-09 -7.02575e-09)
(2.48809e-07 -2.32221e-08 -5.19583e-08)
(1.53755e-07 1.00726e-08 1.63023e-08)
(4.08322e-07 -2.85637e-08 -9.16984e-09)
(1.4811e-07 -1.01902e-08 2.76319e-08)
(2.23017e-07 -2.05396e-08 -2.37715e-10)
(2.30459e-07 -1.91935e-08 1.06689e-08)
(4.16749e-07 -1.07882e-09 6.7659e-09)
(2.5422e-07 1.1015e-08 3.59711e-08)
(2.32153e-07 1.72148e-11 1.01118e-08)
(1.93855e-07 1.27755e-09 7.15458e-09)
(1.5136e-07 1.23555e-08 3.48469e-09)
(2.10669e-07 1.1226e-08 -6.32625e-09)
(7.51996e-08 5.38256e-09 1.18242e-08)
(1.52652e-07 1.08192e-09 -8.50004e-11)
(2.48743e-07 2.20355e-08 1.38849e-08)
(3.14935e-07 7.81968e-09 -4.84059e-09)
(2.4109e-07 1.84339e-08 9.52043e-09)
(1.03441e-07 -2.33396e-09 -7.13942e-09)
(4.69259e-07 -2.25212e-09 -1.25951e-08)
(2.30509e-07 2.40643e-08 -4.08326e-09)
(1.31269e-07 8.80543e-09 1.18634e-08)
(2.53767e-07 -7.79461e-09 -3.20123e-10)
(2.74058e-07 2.07385e-08 -6.63263e-09)
(3.44437e-07 6.84359e-09 1.67393e-08)
(1.68369e-07 -3.39068e-09 -4.31156e-09)
(2.63505e-07 -1.62901e-08 -2.55367e-08)
(1.08349e-07 -9.6446e-09 1.81285e-08)
(3.68883e-07 2.78789e-08 -1.87025e-08)
(2.77749e-07 -1.25305e-08 -1.19446e-08)
(3.49647e-07 2.40491e-08 2.87996e-08)
(2.32301e-07 4.8702e-09 2.07418e-09)
(3.69374e-07 -1.81188e-09 5.05987e-09)
(1.14848e-07 7.94393e-09 -3.67753e-09)
(1.5403e-07 1.38469e-10 -4.01804e-09)
(1.39814e-07 -5.77235e-09 -6.50065e-09)
(3.02838e-07 2.07395e-11 -1.34909e-08)
(3.41847e-07 2.50501e-08 2.01617e-08)
(1.67758e-07 3.59592e-09 -7.39181e-10)
(7.54109e-08 2.00045e-10 1.10881e-09)
(3.75522e-07 1.68814e-09 4.15524e-10)
(3.20302e-07 5.8148e-09 3.22864e-09)
(3.75274e-07 -1.88143e-08 1.40436e-10)
(2.0186e-07 -3.08237e-09 2.63659e-09)
(2.81125e-07 1.08932e-09 -3.58374e-09)
(2.43904e-07 -2.20407e-08 1.08616e-09)
(3.26832e-07 -1.8856e-08 1.75973e-08)
(1.93659e-07 -1.10909e-08 -3.00455e-09)
(2.26318e-07 -5.03188e-09 -1.52952e-08)
(2.34645e-07 -9.45694e-09 1.69775e-08)
(1.4537e-07 -3.39156e-09 1.27659e-08)
(3.69299e-07 -8.67735e-10 2.9797e-08)
(1.42695e-07 -5.37919e-09 -4.63258e-09)
(2.65057e-07 -1.08077e-08 -1.395e-08)
(1.54379e-07 -1.88736e-08 -1.28088e-08)
(3.41056e-07 1.44777e-08 4.15217e-09)
(5.15482e-07 2.17861e-08 4.21701e-09)
(1.42768e-07 3.36752e-09 -1.49506e-08)
(1.59567e-07 -3.27128e-10 -7.57096e-09)
(1.59873e-07 3.12099e-09 -1.22377e-08)
(4.39066e-07 -3.44574e-08 -3.10095e-08)
(1.55304e-07 -3.28271e-10 -6.7802e-09)
(1.41548e-07 6.56248e-09 2.97744e-09)
(2.74769e-07 -4.22341e-09 -5.69512e-09)
(3.38737e-07 1.25334e-09 -1.19224e-08)
(3.23953e-07 -8.07322e-09 -9.7363e-09)
(3.27446e-07 -4.10575e-09 7.9849e-09)
(3.34334e-07 -8.85196e-09 -4.35441e-09)
(2.94692e-07 -1.44911e-08 -3.1591e-08)
(2.60943e-07 -8.70638e-09 1.85924e-09)
(2.23528e-07 6.41822e-09 3.79544e-09)
(2.61045e-07 -7.52399e-09 7.36005e-09)
(3.45802e-07 4.94739e-09 -6.87138e-09)
(1.62571e-07 2.82111e-09 2.45256e-09)
(3.47629e-07 4.46162e-09 2.34658e-08)
(4.03802e-07 1.40284e-08 -2.2393e-08)
(1.75686e-07 8.52298e-09 2.16549e-08)
(4.75041e-07 3.34351e-09 2.0818e-08)
(1.48153e-07 1.27217e-08 3.56097e-08)
(2.87807e-07 5.38526e-09 1.38792e-08)
(2.88729e-07 -3.03813e-09 3.99057e-09)
(3.29621e-07 1.46986e-08 -1.53717e-08)
(2.75995e-07 2.78334e-08 9.34345e-11)
(1.10272e-07 -1.95296e-09 3.4015e-09)
(1.89006e-07 -1.19353e-08 -7.29326e-09)
(2.51142e-07 -9.86251e-09 -7.70523e-09)
(2.03668e-07 -4.53746e-09 -1.02966e-08)
(1.94838e-07 -9.71332e-09 1.36788e-08)
(2.33843e-07 -2.72823e-09 -7.30352e-09)
(3.02562e-07 4.38883e-09 2.0394e-08)
(1.57204e-07 -7.78641e-09 -1.29607e-08)
(1.43463e-07 -2.07051e-08 -4.629e-09)
(3.1736e-07 1.8673e-09 1.62217e-08)
(1.46212e-07 1.63895e-08 8.04465e-09)
(1.9929e-07 1.97736e-09 3.15505e-09)
(1.85125e-07 2.77163e-09 2.70087e-09)
(2.18984e-07 2.82252e-09 1.42499e-08)
(1.73252e-07 2.79618e-09 -1.42896e-08)
(3.38753e-07 2.28763e-08 -5.0095e-08)
(1.99316e-07 -4.58534e-10 -9.49421e-09)