/*--------------------------------*- C++ -*----------------------------------*\
| =========                 |                                                 |
| \\      /  F ield         | OpenFOAM: The Open Source CFD Toolbox           |
|  \\    /   O peration     | Version:  2406                                  |
|   \\  /    A nd           | Website:  www.openfoam.com                      |
|    \\/     M anipulation  |                                                 |
\*---------------------------------------------------------------------------*/
FoamFile
{
    version     2.0;
    format      ascii;
    arch        "LSB;label=32;scalar=64";
    class       volScalarField;
    location    "2";
    object      nut;
}
// * * * * * * * * * * * * * * * * * * * * * * * * * * * * * * * * * * * * * //

dimensions      [0 2 -1 0 0 0 0];

internalField   nonuniform List<scalar> 
59516
(
0.000931189
0.00089674
0.0010657
0.00114093
0.00146223
0.000257044
0.00140111
0.00101737
0.00109816
0.000542744
0.00111194
0.000571365
0.00111901
0.00030943
0.000748218
0.000552683
0.00177001
0.000547046
0.00117832
0.00148616
0.000520476
0.00140299
0.00175092
0.000411924
0.00111468
0.000678679
0.000409012
0.00047927
0.000619432
0.000252743
0.000835678
0.000444905
0.00106189
0.00109712
0.00122614
0.00129926
0.000251323
0.000577643
0.000855974
0.00111619
0.000910683
0.00138634
0.000923832
0.00119347
0.0012149
0.00045134
0.00119774
0.00093069
0.00105744
0.00152543
0.000858317
0.000478669
0.00101369
0.00122836
0.000594385
0.00108071
0.0013512
0.000474104
0.0012287
0.0016274
0.0010962
0.00019282
0.000977211
0.00137944
0.000728522
0.00153909
0.000295816
0.000374485
0.00095533
0.00141174
0.000279237
0.00136748
0.000279478
0.00103868
0.000898997
0.00133306
0.00104348
0.00132995
0.000500283
0.000799011
0.00043736
0.00114738
0.00120762
0.000262646
0.00123106
0.00138624
0.000528278
0.00179103
0.000550513
0.000942939
0.00139183
0.00099165
0.00167428
0.00173776
0.00111548
0.00125508
0.00130998
0.000487186
0.000579102
0.00135412
0.000514643
0.000266367
0.000273296
0.000490347
0.000983971
0.00109024
0.000340369
0.000981651
0.00136392
0.000602
0.00131468
0.0002482
0.000585409
0.000990967
0.0010677
0.000869467
0.000541774
0.00111777
0.000210853
0.00109308
0.00136335
0.000875788
0.000967468
0.00164664
0.00145054
0.0007682
0.000266008
0.000750727
0.000434711
0.001162
0.00115765
0.00128336
0.000231917
0.00154516
0.000972774
0.00122373
0.000987935
0.000962812
0.000500939
0.00111298
0.00050136
0.00127793
0.000218514
0.00161997
0.00158852
0.000996625
0.00138423
0.000951132
0.000242189
0.0010894
0.000844415
0.00047336
0.00103634
0.00111308
0.00100212
0.000278577
0.0010076
0.00131432
0.000981265
0.000267448
0.000635577
0.000656487
0.000364614
0.000326132
0.00101349
0.00107094
0.000595214
0.00130238
0.000227488
0.000864698
0.000818874
0.000527392
0.000848038
0.00124105
0.000409307
0.00126121
0.00126529
0.000910897
0.000671825
0.000335606
0.00156255
0.000330912
0.000321039
0.000586451
0.00145982
0.000513588
0.000387806
0.000244567
0.00130987
0.000938197
0.00111688
0.000522638
0.00124482
0.000680531
0.00175542
0.000347407
0.000532517
0.000399514
0.0012731
0.00170921
0.000817633
0.00133676
0.00107602
0.000224518
0.00109544
0.00120758
0.00167898
0.00107831
0.000250423
0.000812303
0.000523623
0.000279147
0.00156756
0.000521224
0.00137176
0.00144403
0.00101224
0.00142762
0.000584379
0.00146877
0.000588507
0.000954364
0.000926249
0.000462119
0.00108875
0.00152242
0.000237586
0.000413764
0.00136518
0.000501623
0.00129328
0.00110064
0.0014192
0.000243743
0.000360763
0.0003419
0.000571249
0.000886117
0.00154844
0.000646901
0.00123125
0.000255802
0.000603081
0.000268126
0.00130793
0.000844847
0.000931945
0.000607047
0.00131239
0.00107496
0.00122104
0.00129577
0.00106084
0.00110213
0.000938593
0.00120075
0.000449312
0.00169125
0.000400206
0.000587052
0.0014063
0.00110728
0.0011258
0.00146361
0.000571371
0.000558262
0.00114109
0.000820423
0.000494037
0.000548577
0.000894748
0.00133977
0.000914785
0.000860782
0.00117347
0.00088119
0.000238273
0.00145113
0.000236829
0.00046143
0.0011664
0.00104533
0.000262176
0.000975611
0.00126974
0.000998365
0.00110072
0.000235342
0.00113593
0.0016924
0.0016221
0.00138015
0.00165066
0.000938188
0.00148766
0.000236153
0.00142491
0.00105249
0.0015164
0.00131003
0.00101184
0.000627546
0.000215959
0.000215797
0.00141965
0.000266876
0.000517075
0.000545138
0.00137083
0.000999796
0.00166194
0.000618
0.00136703
0.000396264
0.000491138
0.00148171
0.000957398
0.00114163
0.000927263
0.000433091
0.000745392
0.000879405
0.00144198
0.000881346
0.000987422
0.00117189
0.000531805
0.00112818
0.00194676
0.00124429
0.00129531
0.000589898
0.000278036
0.001261
0.000496367
0.000428362
0.00144055
0.000921954
0.000644363
0.00147805
0.0010928
0.00143027
0.00126969
0.000465503
0.00152253
0.00144545
0.000508066
0.000832813
0.00130267
0.0011738
0.0010884
0.00166026
0.00107085
0.000697095
0.000388287
0.000398898
0.00102467
0.000581383
0.000570765
0.000704006
0.00111014
0.00102319
0.00146839
0.00161534
0.00154876
0.00125909
0.00106032
0.000514893
0.000854217
0.000594726
0.000408785
0.000457409
0.00134132
0.000993265
0.00119195
0.000238766
0.00142136
0.000456971
0.000850093
0.000516569
0.000595178
0.000939832
0.0010105
0.000268186
0.000588712
0.000917082
0.000224581
0.00083327
0.000957186
0.00108131
0.0007944
0.000966517
0.000899016
0.000619111
0.00131451
0.00117928
0.000603394
0.000595042
0.00189314
0.00129161
0.000563209
0.00141805
0.000802998
0.00121745
0.00121652
0.000483161
0.00145174
0.00154954
0.00109674
0.00139753
0.000254167
0.000266645
0.00120391
0.00124875
0.00102712
0.000355155
0.00102219
0.00103835
0.000982415
0.00101005
0.00127008
0.00139147
0.000802435
0.0011909
0.00136222
0.000730508
0.00117657
0.00143522
0.00117249
0.000982258
0.00123986
0.00168688
0.000399234
0.000455854
0.000236545
0.00134166
0.00172835
0.00151774
0.00116791
0.000471186
0.000235435
0.000914179
0.00133319
0.00129567
0.00128125
0.00141659
0.00118535
0.00152956
0.000221433
0.00115889
0.000592317
0.000495239
0.0012382
0.000851026
0.000912505
0.000250397
0.000952832
0.00155415
0.00128103
0.000967294
0.00131744
0.00107705
0.000819245
0.00123097
0.00106524
0.00117246
0.00165595
0.000235662
0.00119093
0.001237
0.00048607
0.000983633
0.00132124
0.00116676
0.00110043
0.000254394
0.000723276
0.000834169
0.00143885
0.000839408
0.000374009
0.00157801
0.000263702
0.00113011
0.000702109
0.00126231
0.000514062
0.00119374
0.000860081
0.000421847
0.000928746
0.001104
0.000257226
0.000989395
0.00124432
0.00048767
0.000766646
0.000617626
0.00144489
0.00159045
0.000324595
0.000513436
0.000553628
0.00101072
0.00151179
0.000249148
0.00192794
0.00132419
0.00138374
0.000212235
0.00139334
0.000237319
0.00164124
0.000250254
0.000704843
0.00119885
0.000579169
0.000270544
0.000432687
0.000545805
0.000554219
0.0013532
0.000547165
0.000734155
0.001026
0.00129784
0.00021439
0.00095766
0.000586911
0.00112551
0.000525233
0.00165474
0.000545177
0.00102871
0.00126268
0.000515966
0.000977056
0.0004665
0.000262112
0.00146231
0.00119533
0.00137998
0.00104799
0.00123062
0.000784873
0.00102067
0.00051712
0.00158273
0.000793825
0.000248817
0.00125514
0.000492481
0.000245793
0.00149328
0.000428783
0.00119216
0.000984556
0.00134389
0.000512801
0.00147148
0.000870347
0.00116868
0.00114912
0.00097668
0.000991063
0.000360121
0.000510625
0.00122473
0.00154606
0.000476984
0.00146301
0.00138573
0.00123915
0.00141611
0.00108436
0.000238118
0.00159787
0.000996039
0.00110192
0.00103327
0.00023399
0.000784765
0.000819222
0.00115797
0.00104331
0.00100666
0.000213234
0.000259789
0.00143052
0.000957885
0.000983447
0.00121951
0.000792618
0.00113997
0.00126566
0.000223159
0.00127941
0.00100448
0.000451749
0.00059124
0.000938859
0.00108151
0.00122022
0.00120642
0.00088452
0.00159515
0.00116939
0.00145001
0.00155956
0.00117432
0.00110509
0.00046528
0.00135076
0.000388248
0.00040229
0.000555793
0.00104779
0.000689274
0.00109281
0.00145057
0.00130935
0.00108702
0.00139979
0.000385325
0.00140777
0.000879824
0.00173947
0.00109725
0.000749519
0.00106596
0.00102603
0.000391954
0.000651981
0.000225398
0.000260696
0.000262028
0.000887446
0.00108399
0.000267786
0.000259842
0.00113418
0.000667605
0.00036392
0.00114098
0.000864886
0.00134384
0.000548095
0.000500064
0.00146777
0.00107196
0.00100978
0.000328191
0.000228674
0.000636554
0.000274297
0.00123384
0.000265199
0.000808538
0.00159732
0.00134786
0.000465773
0.00108125
0.000362618
0.000258184
0.00129456
0.000261186
0.00142299
0.00056376
0.00169056
0.00106666
0.000266926
0.000580997
0.00141955
0.000465073
0.00110547
0.000580932
0.000942467
0.00140883
0.000451862
0.000263495
0.000499142
0.000839313
0.0011206
0.000551107
0.000965022
0.000381247
0.00129786
0.000200481
0.00113775
0.000919284
0.00113767
0.000256577
0.00142046
0.00096579
0.00143942
0.000612012
0.000651309
0.00136667
0.000415541
0.00139316
0.000783995
0.00136288
0.000389027
0.0004865
0.00126366
0.00125795
0.000362529
0.00125557
0.000626358
0.000233272
0.00160257
0.00119809
0.00128011
0.00151999
0.00125898
0.00163077
0.000772071
0.000420148
0.000411279
0.00121849
0.000689919
0.000957579
0.00122871
0.000915723
0.00119658
0.00180829
0.000802173
0.000800848
0.000464184
0.000828149
0.00050112
0.00144192
0.00148868
0.000794245
0.00104664
0.000224294
0.000999471
0.000582296
0.00103416
0.00156707
0.00110359
0.00101698
0.000722857
0.000675426
0.00118413
0.000265027
0.00131482
0.000697888
0.000917642
0.000267592
0.000806871
0.00117937
0.00109597
0.0013886
0.000759658
0.00135122
0.00132296
0.000509176
0.000570643
0.000347632
0.00132571
0.00165138
0.000995397
0.00151866
0.000266866
0.000813662
0.000954393
0.0014751
0.00101007
0.00109519
0.000776163
0.00108418
0.000260863
0.000815736
0.00114562
0.000228787
0.000417916
0.000675441
0.000268229
0.000769364
0.0011351
0.000801518
0.000264463
0.000987336
0.000204581
0.00089728
0.00152782
0.000995532
0.00136167
0.00148934
0.0015342
0.0011715
0.000388092
0.00110861
0.000924705
0.000853905
0.000946182
0.00163311
0.00127474
0.000805531
0.00134035
0.000412967
0.00104353
0.00108
0.000749975
0.00110066
0.000765661
0.00118206
0.000336017
0.000277302
0.000595916
0.000224101
0.00136236
0.00113835
0.000876591
0.000840053
0.000976967
0.0012798
0.000236802
0.00110191
0.00143572
0.000368707
0.00026001
0.00140994
0.000944141
0.000237772
0.0012844
0.000243397
0.00135698
0.00117146
0.00110282
0.00102906
0.00146774
0.00122866
0.00102759
0.000247872
0.000491395
0.00125054
0.000773147
0.000249262
0.00144012
0.0010476
0.00146478
0.00116677
0.000738483
0.0014214
0.00112351
0.00110409
0.000553796
0.0013239
0.000998031
0.000472463
0.00143933
0.00116037
0.00154283
0.00077811
0.00127799
0.0011883
0.000937724
0.00079271
0.00100253
0.00115634
0.000645837
0.000763977
0.00127076
0.000876916
0.000855985
0.00105671
0.000911923
0.00044515
0.000418293
0.00126811
0.00130414
0.0013928
0.000870942
0.00148034
0.00168607
0.00140234
0.000222504
0.00116999
0.00153865
0.000211153
0.00113946
0.0015097
0.000425695
0.000894113
0.00127264
0.00124828
0.0011428
0.00123111
0.00168933
0.000581922
0.000975239
0.000475023
0.00117271
0.00110603
0.000250116
0.000581559
0.000666489
0.000880617
0.0003401
0.00149975
0.00124938
0.00122997
0.00117895
0.000693226
0.000544748
0.00112752
0.00117369
0.00122839
0.000706457
0.00119292
0.00118912
0.00136957
0.000444505
0.00136533
0.000866712
0.000714432
0.000389699
0.000571004
0.00115319
0.00196117
0.000475796
0.00160251
0.00136989
0.0015464
0.00151579
0.001729
0.00106607
0.00132052
0.00112398
0.000793158
0.00112206
0.00136269
0.000381723
0.000471739
0.00107688
0.000902097
0.000328563
0.00137231
0.0012425
0.00132419
0.00159037
0.00140027
0.00144612
0.000848195
0.00120361
0.000253884
0.000813045
0.00123098
0.000594702
0.00105033
0.000390357
0.00098998
0.000752663
0.000792021
0.000423523
0.000900751
0.0011067
0.000987162
0.000406752
0.000789003
0.000424239
0.000925472
0.000678367
0.000806151
0.000980853
0.00110307
0.000518794
0.00114075
0.000865968
0.0011934
0.00132343
0.00135236
0.00114684
0.00146619
0.00167765
0.000623922
0.00164309
0.000552691
0.000422427
0.00112915
0.00134563
0.000260015
0.000991549
0.000970551
0.000833476
0.00128589
0.00023886
0.00132244
0.00125363
0.00115411
0.000248497
0.0005363
0.000928071
0.000473911
0.00101698
0.0011358
0.000920588
0.000237314
0.000942114
0.00113531
0.0011639
0.00143293
0.00107544
0.000906288
0.00112545
0.00118317
0.000986441
0.00131788
0.000405271
0.000803919
0.00135229
0.00116038
0.000787399
0.00156743
0.000805036
0.000864808
0.000242155
0.000913508
0.000809216
0.000436365
0.00113764
0.000473581
0.00117845
0.00119513
0.00135893
0.000418435
0.000991138
0.00114292
0.000506558
0.00104776
0.00104574
0.000246404
0.000982117
0.00140006
0.000545154
0.000325076
0.000513203
0.00161953
0.000829829
0.00089664
0.000758573
0.000553267
0.00126401
0.000372137
0.000958192
0.00151721
0.000932988
0.000544981
0.00103825
0.000260158
0.000939766
0.000925262
0.00130261
0.000417238
0.00136294
0.00139071
0.000223048
0.00129749
0.000983406
0.00168972
0.00101158
0.00112087
0.000232134
0.000935411
0.00115135
0.000257566
0.000414559
0.000463614
0.00144368
0.000890343
0.001551
0.000574583
0.00134441
0.00023516
0.00135151
0.00102496
0.00133355
0.00146041
0.00105501
0.00111491
0.000351694
0.000441009
0.000965044
0.00131908
0.000203325
0.000276244
0.00160973
0.00155124
0.0016465
0.000958893
0.00123155
0.00123197
0.00148934
0.000531726
0.000762089
0.000664285
0.00113425
0.000960612
0.000392045
0.000240261
0.00118364
0.00119762
0.000826434
0.000697992
0.00128388
0.000306249
0.00148124
0.00102414
0.000490615
0.000262127
0.00127518
0.00128273
0.000424581
0.00025328
0.00160327
0.000901266
0.00028141
0.000629111
0.00147483
0.00149218
0.00152351
0.00131576
0.00109416
0.00023931
0.000410188
0.00135489
0.00116488
0.00111098
0.000940094
0.000557587
0.000424618
0.000486073
0.00121238
0.00032621
0.00104974
0.00154238
0.000895935
0.000588181
0.00024493
0.00115961
0.0013439
0.00149177
0.0011952
0.00107689
0.00129208
0.000487257
0.000490242
0.000224438
0.00125276
0.00124546
0.000874797
0.00056029
0.000915919
0.00126159
0.00140504
0.000980585
0.00115682
0.00171005
0.00095806
0.00052008
0.00025846
0.00116709
0.000397906
0.000942148
0.00136383
0.000985315
0.000259918
0.00117296
0.000553889
0.000211544
0.000244887
0.000924163
0.00153157
0.00136328
0.000935828
0.00106583
0.00111768
0.000355132
0.000418317
0.000436225
0.00108112
0.00133236
0.00144773
0.000884064
0.00119658
0.00150559
0.000319727
0.00104977
0.000237904
0.00156975
0.00108288
0.000204814
0.00113351
0.000947005
0.00122276
0.000974001
0.000522401
0.000366624
0.0010665
0.000513873
0.00101628
0.00146569
0.000663248
0.000840349
0.000387253
0.00143527
0.000403173
0.000897092
0.00154176
0.00139241
0.000524293
0.000746525
0.00115851
0.00152961
0.00155777
0.000354277
0.000464751
0.00173663
0.00103443
0.000653736
0.00122456
0.00132304
0.00101907
0.000783108
0.000256787
0.000241291
0.000575557
0.0013539
0.00114116
0.00137988
0.000236831
0.000357014
0.00134375
0.000974422
0.000649929
0.00144776
0.000983771
0.00156081
0.00128014
0.00129672
0.00135505
0.00100089
0.00103137
0.00134273
0.00115693
0.00079963
0.000579042
0.00119345
0.00149667
0.000408834
0.000573383
0.00139445
0.000555232
0.000875069
0.00124985
0.00104303
0.00121356
0.00121397
0.00174123
0.00117321
0.0013417
0.000582803
0.000272319
0.00127088
0.00134834
0.000217864
0.000789474
0.000904964
0.00167866
0.00131482
0.000252024
0.0010425
0.000891176
0.000730933
0.00159644
0.00117897
0.000266428
0.00103394
0.000217795
0.00121858
0.000262667
0.00132285
0.00123015
0.00154715
0.000267323
0.000524197
0.00087213
0.00136897
0.000510293
0.000556415
0.000759523
0.00133628
0.000394263
0.00113881
0.00136823
0.000778342
0.000756475
0.000234944
0.000893378
0.00163786
0.000868479
0.000872836
0.000954522
0.000836814
0.000899717
0.00020626
0.000365126
0.000248594
0.000864871
0.00123359
0.000391336
0.000210596
0.000570873
0.000283061
0.00115278
0.000241084
0.00148436
0.000983268
0.00110507
0.000618772
0.00116386
0.000426939
0.000560005
0.00159907
0.00166098
0.0011971
0.00138313
0.00124503
0.000270234
0.00107586
0.00173276
0.00104686
0.000898207
0.000940704
0.00136953
0.00111922
0.000413054
0.000379716
0.00102955
0.00121818
0.000456943
0.00104242
0.00109024
0.000408813
0.00024711
0.00116379
0.000666488
0.000660864
0.000265669
0.000491429
0.000501385
0.000230872
0.000413355
0.000262006
0.00101373
0.000795461
0.00147221
0.000253447
0.00110865
0.0010523
0.00132347
0.00120964
0.00110028
0.000434517
0.00108724
0.00112144
0.00114549
0.00135616
0.00124854
0.000262314
0.00113463
0.000829027
0.000294606
0.000396597
0.00133705
0.00108108
0.000246265
0.00107341
0.000790202
0.00117341
0.00154399
0.000422816
0.000853598
0.00114591
0.00152005
0.00106414
0.00137193
0.00126458
0.00104724
0.00129399
0.00100147
0.00133495
0.00112623
0.000818771
0.000963568
0.000979925
0.000905944
0.00162923
0.000510546
0.00135043
0.000478924
0.00023132
0.000619817
0.00124111
0.00121135
0.00146114
0.00114372
0.0011733
0.000918763
0.0011057
0.000272291
0.000270924
0.000240712
0.000501338
0.000252279
0.00143588
0.000494173
0.00138861
0.000325129
0.000229513
0.000830199
0.000582552
0.00124523
0.00131757
0.00184299
0.000432733
0.000502271
0.00155648
0.000732249
0.000272585
0.00126721
0.000656776
0.00078457
0.00121199
0.0013491
0.00123046
0.00102759
0.00107537
0.000647036
0.000618155
0.000433316
0.000583553
0.000316102
0.000909642
0.00105722
0.000753298
0.00064941
0.000925909
0.00131859
0.00133573
0.000651935
0.00122036
0.000226583
0.000689361
0.00186721
0.000477872
0.000872463
0.00105202
0.00133298
0.0010056
0.0012987
0.000967181
0.000788489
0.00105845
0.00099398
0.00141917
0.000252223
0.00021965
0.00100239
0.00117785
0.00186966
0.000805654
0.00124531
0.000245802
0.0010189
0.00127453
0.00162175
0.000811379
0.000420012
0.000505766
0.00038936
0.000968577
0.000730246
0.00112454
0.000262463
0.001164
0.000416072
0.000886366
0.00121191
0.000541294
0.00128463
0.0013756
0.00042242
0.000258976
0.00122382
0.00025565
0.00151237
0.00144971
0.000858089
0.00143468
0.000875456
0.00136155
0.00026754
0.00118723
0.00102076
0.00146612
0.00025741
0.00161218
0.00143486
0.000836292
0.00114319
0.000427669
0.000976787
0.000242654
0.00146621
0.000985897
0.00146122
0.00125858
0.000378327
0.000247558
0.00139702
0.00145633
0.00038978
0.00116399
0.000403118
0.00127636
0.000633557
0.000218466
0.00133169
0.00137872
0.000835602
0.00158465
0.00138852
0.00136009
0.000404717
0.0011986
0.000265557
0.000853678
0.00143269
0.00144601
0.000889224
0.000302267
0.000447688
0.00114518
0.00128764
0.000986797
0.000995898
0.000995486
0.000222512
0.00137026
0.000813784
0.00121017
0.000566255
0.00111236
0.00111205
0.00152671
0.00126676
0.00135223
0.000533749
0.00101984
0.00042303
0.00125049
0.000757303
0.0008254
0.000973922
0.00112709
0.00156462
0.000390169
0.00115834
0.000627443
0.000268309
0.00155684
0.000508733
0.00141452
0.000264206
0.000481266
0.000454044
0.000912343
0.00115033
0.000383311
0.000252685
0.00170218
0.000795269
0.000953353
0.000925026
0.000246187
0.00114153
0.000441386
0.00141606
0.00144639
0.000721132
0.00146115
0.00121272
0.00156749
0.00121251
0.000969196
0.00120831
0.00115878
0.0013069
0.000263731
0.000291662
0.00148226
0.000314102
0.00150843
0.00111281
0.000816263
0.0011299
0.000879024
0.000501328
0.0012775
0.00056238
0.000828365
0.000528745
0.00149
0.00118913
0.000592213
0.000951633
0.000448401
0.00107158
0.00106407
0.000800058
0.00107846
0.000261315
0.000236149
0.00114708
0.00133828
0.00131181
0.000981292
0.000259369
0.0015793
0.000549337
0.00131134
0.00128472
0.000358161
0.00123986
0.0016215
0.000434714
0.000249591
0.00104359
0.00104673
0.000235075
0.00106068
0.000505387
0.000252397
0.00112309
0.00149667
0.00163886
0.00124135
0.0011984
0.000924206
0.00169554
0.00114964
0.00082752
0.00168612
0.00136837
0.000226248
0.000482274
0.0011632
0.00118965
0.000956981
0.000241324
0.000241894
0.00126925
0.000241732
0.00117992
0.00119758
0.00106971
0.000428761
0.000710879
0.00132057
0.000972954
0.00103411
0.00143224
0.000604824
0.000260322
0.000987446
0.000267598
0.000495365
0.000337411
0.0004653
0.00109826
0.00130389
0.000948897
0.000939964
0.00124134
0.0007985
0.0012683
0.000736137
0.000601514
0.00147362
0.00152088
0.000828886
0.000372075
0.00121067
0.000270699
0.00110588
0.000426636
0.00141799
0.00136373
0.000947353
0.000217295
0.000835942
0.000732661
0.0002781
0.00132207
0.000226843
0.000598784
0.00155082
0.00092119
0.00141883
0.000389019
0.000958953
0.000532049
0.00160115
0.00132916
0.00134784
0.00189066
0.000557367
0.00142119
0.000839678
0.00178666
0.00135606
0.00173651
0.0016209
0.00114347
0.000253488
0.000429777
0.000951841
0.00155556
0.00116303
0.000452317
0.00151021
0.000701066
0.000944391
0.000804349
0.000905912
0.000666192
0.000556402
0.000261442
0.00125172
0.0011214
0.000518553
0.000877486
0.000247415
0.00153047
0.00115987
0.000264483
0.00108971
0.00105805
0.000861392
0.000515073
0.000262966
0.000415971
0.000638757
0.000617538
0.000267823
0.000245033
0.000244808
0.000744476
0.00152265
0.00101269
0.00091444
0.000797591
0.000254697
0.000879608
0.00155145
0.000233254
0.000262662
0.000281226
0.00108188
0.000236669
0.00177128
0.000660362
0.00173608
0.00127835
0.000420314
0.000983283
0.00132239
0.00144066
0.00191334
0.00141823
0.00151006
0.000556196
0.00118003
0.00137186
0.00129675
0.000239078
0.00112663
0.000730499
0.00112585
0.00127435
0.00127184
0.000572445
0.000347771
0.000259587
0.00105018
0.00151546
0.00130928
0.00147575
0.000467034
0.00125755
0.000513534
0.00104174
0.00145014
0.000431673
0.000562139
0.00135025
0.00142653
0.0012255
0.0014068
0.00106215
0.000634211
0.00126827
0.000928231
0.00125807
0.000902766
0.001009
0.00110668
0.000880605
0.00139618
0.000245952
0.0003783
0.000272217
0.000883708
0.000992053
0.00109119
0.00058178
0.00115021
0.00042217
0.000652117
0.000260511
0.00111137
0.00147132
0.00118227
0.00021064
0.00050299
0.000505306
0.000246934
0.000469121
0.00108871
0.00122967
0.000238675
0.000518177
0.00066595
0.00178538
0.000946828
0.00112011
0.000869063
0.00158795
0.00155566
0.000629321
0.00040404
0.00154871
0.00128797
0.00113449
0.0011752
0.00119521
0.00111488
0.000776111
0.000862602
0.000787938
0.00139178
0.00130893
0.00118023
0.00024612
0.000974007
0.0002788
0.00130252
0.00132774
0.000848192
0.00135486
0.000511269
0.000263633
0.000534649
0.00125599
0.00115623
0.00115376
0.00111856
0.000388599
0.000764987
0.00140537
0.00130309
0.00107357
0.000273724
0.00137109
0.00144501
0.00131732
0.00163109
0.00140589
0.00143179
0.00111041
0.00110999
0.000845504
0.000768835
0.001452
0.00137129
0.000862526
0.000243395
0.000257195
0.000743818
0.00107829
0.0011195
0.00150924
0.00029065
0.000952897
0.00102656
0.0009923
0.00111211
0.0020184
0.00146363
0.000789898
0.00136758
0.00117898
0.00140077
0.000497989
0.00107312
0.00142528
0.000225196
0.00113795
0.00116888
0.00148213
0.00102525
0.00149467
0.000461605
0.00118332
0.000949664
0.00133874
0.000973431
0.00143463
0.00108168
0.000862379
0.00135825
0.000246257
0.00137905
0.000473409
0.000467853
0.00118587
0.000229833
0.0012268
0.00119931
0.00132596
0.000531405
0.000921852
0.000268809
0.00160198
0.000363944
0.00107665
0.0015186
0.00136989
0.00122604
0.00179101
0.00150841
0.0017407
0.00101994
0.0010617
0.00126663
0.000411174
0.000858423
0.000879853
0.00104474
0.000654682
0.00112672
0.00134594
0.00136758
0.000230043
0.00105906
0.000246379
0.00116352
0.000255978
0.000402913
0.00118566
0.000951196
0.00103484
0.00129762
0.000214386
0.0013954
0.000279855
0.000230961
0.00111793
0.000646806
0.00119108
0.00124076
0.00167785
0.000265929
0.000571132
0.000385553
0.0012321
0.00145254
0.000688612
0.00125493
0.00073571
0.000663492
0.00120162
0.000244367
0.00127005
0.00112801
0.00118857
0.000962157
0.00129871
0.00105214
0.000805279
0.00171225
0.00150799
0.00124813
0.00108146
0.00101172
0.00101172
0.00106124
0.000996176
0.00116077
0.000988094
0.00126772
0.000980203
0.000828526
0.00045875
0.00118198
0.000952693
0.000596043
0.00132404
0.00137996
0.000269086
0.00124068
0.00113813
0.000952303
0.00111252
0.000481817
0.00111741
0.00150878
0.00138345
0.00100519
0.000632058
0.0006004
0.00138562
0.000469106
0.000444185
0.000271683
0.00130782
0.00101882
0.00143289
0.000928622
0.000955141
0.00115495
0.000624139
0.00129907
0.00113876
0.00129003
0.00110927
0.00128197
0.000371029
0.000273235
0.000247304
0.000749607
0.00127579
0.0014137
0.0012256
0.000823197
0.00106306
0.000900462
0.000250703
0.00145803
0.00123856
0.00166325
0.00109671
0.000657409
0.000575026
0.00108984
0.000515548
0.00152615
0.00127472
0.00111392
0.000866457
0.0009969
0.00081367
0.00100732
0.00158942
0.000745149
0.0011689
0.00166128
0.00130445
0.000516352
0.00154748
0.00183725
0.000620616
0.000513214
0.00100114
0.000456241
0.00109927
0.00092448
0.000406271
0.000906842
0.0015189
0.00163627
0.000869503
0.000909913
0.00125606
0.00136543
0.00133659
0.000807339
0.00158005
0.000778924
0.000700238
0.000536604
0.000904382
0.00089131
0.00165202
0.00139102
0.0011013
0.000902437
0.000248879
0.000752927
0.000239966
0.000710504
0.000862639
0.00112626
0.00090239
0.000768206
0.000372031
0.000477592
0.00172
0.000911866
0.000486227
0.00112184
0.000468813
0.00131371
0.00115403
0.000962584
0.00127504
0.00101056
0.00151892
0.00121102
0.000398182
0.00123401
0.000477635
0.000364194
0.000740276
0.00137358
0.00145499
0.00110618
0.000395808
0.00129755
0.00108967
0.00090563
0.000768336
0.000884381
0.000452614
0.000514108
0.000473272
0.000706731
0.00128417
0.000482436
0.00122364
0.000521088
0.000223439
0.000923324
0.000437808
0.0002736
0.000238303
0.00134043
0.001225
0.00134668
0.000690794
0.00128192
0.000408659
0.0015017
0.000672905
0.00104663
0.00119976
0.000258798
0.00162571
0.000963977
0.00100415
0.00122415
0.00110101
0.000932046
0.00130577
0.00191474
0.00143215
0.000261313
0.000769434
0.000611869
0.000850299
0.000435564
0.000897305
0.00117448
0.000941397
0.00122858
0.000241463
0.00117444
0.00101281
0.0012267
0.00118583
0.00122659
0.00100811
0.00137464
0.000892239
0.00169236
0.000557273
0.000676724
0.000795557
0.00150923
0.00132455
0.00100191
0.00109748
0.00127825
0.00159238
0.000464811
0.00176115
0.00146093
0.000516572
0.00133004
0.000471426
0.00116222
0.000673723
0.000389459
0.00110209
0.000420276
0.000228855
0.000214837
0.000383792
0.000424135
0.00148617
0.000856655
0.00141751
0.00128733
0.0006752
0.00150029
0.0016977
0.00138678
0.000235522
0.00145613
0.00150135
0.00117363
0.00164498
0.00022498
0.000396629
0.00125625
0.000274578
0.000986718
0.000419519
0.00102212
0.000815591
0.000908676
0.000894108
0.00132031
0.000422692
0.000231681
0.000369134
0.00138988
0.000773526
0.000228873
0.000994009
0.000682413
0.000221344
0.00107169
0.000238682
0.00117236
0.00119879
0.001167
0.00108459
0.000325825
0.000717388
0.000301332
0.00132181
0.00117718
0.00144559
0.000796772
0.00101535
0.000731622
0.000394531
0.00149302
0.0013164
0.000879908
0.00143178
0.000610259
0.000249114
0.00115599
0.000980944
0.00110906
0.00065385
0.00131985
0.000284641
0.000255216
0.000416675
0.00105417
0.000431463
0.000921083
0.000251674
0.000473173
0.00134919
0.000578721
0.0004286
0.000419594
0.00159654
0.000987435
0.00106951
0.000537533
0.00102599
0.00145156
0.000904657
0.00124964
0.00158548
0.00104565
0.00125593
0.000253508
0.00123381
0.00133338
0.000728642
0.000232831
0.00137259
0.00143308
0.000699107
0.0014215
0.000273436
0.00116679
0.0012091
0.000231343
0.0015316
0.00118166
0.00127894
0.000483153
0.00134276
0.000443406
0.00128051
0.000601515
0.000251785
0.00142878
0.00123752
0.00057468
0.00128987
0.00125934
0.00132167
0.00119279
0.000586262
0.000233987
0.00101953
0.00142361
0.00109611
0.00149533
0.000678637
0.00100291
0.000438519
0.00072452
0.00111626
0.00120242
0.00103462
0.00135376
0.000956396
0.000416556
0.000555504
0.00133574
0.00118573
0.000419224
0.000414515
0.000978746
0.00160669
0.00148878
0.000274594
0.00079111
0.00098276
0.00144462
0.00141204
0.0015317
0.00109461
0.00132199
0.000960693
0.00178479
0.00106458
0.000259291
0.000262582
0.00120286
0.00111603
0.00120289
0.00133162
0.00178906
0.00120459
0.00160454
0.00162864
0.00103755
0.00144637
0.000889647
0.00155579
0.00166175
0.000653074
0.000851015
0.000872957
0.000202087
0.000926938
0.00111151
0.00109925
0.0011833
0.00114487
0.00078979
0.0004312
0.00106898
0.00130971
0.00134847
0.00103515
0.000351896
0.000916641
0.00104673
0.000279911
0.00159734
0.000391217
0.00110349
0.000919664
0.00100744
0.00108914
0.00140686
0.000427386
0.000260011
0.000267616
0.00146453
0.000466555
0.00131021
0.00122044
0.000505389
0.00143034
0.00118341
0.00115751
0.0015729
0.000965445
0.000670763
0.00148541
0.00132062
0.000227465
0.00117244
0.000390321
0.000256616
0.00156066
0.000713642
0.00157581
0.000886033
0.0012309
0.000929819
0.00111614
0.0011638
0.00141143
0.00127541
0.000467405
0.000444738
0.000866481
0.000949088
0.00105855
0.00114762
0.000966508
0.000791078
0.00108325
0.00125151
0.0012866
0.000788733
0.00107406
0.00127968
0.000970458
0.00145345
0.00130118
0.0010715
0.000452168
0.00135887
0.00117804
0.00111808
0.00084466
0.00123673
0.00129656
0.000500533
0.00103886
0.000769721
0.000402267
0.000985682
0.000908061
0.00141153
0.00113703
0.00154762
0.000255465
0.000796689
0.00102205
0.00103427
0.000692286
0.00161597
0.000864103
0.00104211
0.000911694
0.00096098
0.00125
0.00162844
0.000268621
0.00122741
0.00165881
0.00085655
0.000757866
0.000719609
0.00149243
0.000431978
0.00148176
0.000362405
0.00146023
0.00147929
0.00128243
0.0011209
0.000595889
0.000857752
0.000539744
0.000250427
0.00130981
0.00159052
0.000450145
0.000392198
0.00130746
0.00132992
0.00066941
0.0010712
0.00157757
0.00165051
0.00135423
0.000262834
0.00118283
0.00109678
0.000518489
0.00167375
0.000676388
0.00106432
0.000253375
0.00047834
0.000930832
0.000460401
0.00122431
0.000610519
0.00150343
0.000458511
0.000353615
0.00133074
0.000253387
0.000712718
0.00137036
0.000240704
0.00131822
0.000510715
0.000529597
0.00062032
0.00124111
0.000386459
0.000362028
0.00124472
0.00139182
0.0011781
0.00057675
0.000750138
0.000917633
0.00148455
0.000691699
0.000991596
0.00144427
0.00133978
0.00101874