/*--------------------------------*- C++ -*----------------------------------*\
| =========                 |                                                 |
| \\      /  F ield         | OpenFOAM: The Open Source CFD Toolbox           |
|  \\    /   O peration     | Version:  2406                                  |
|   \\  /    A nd           | Website:  www.openfoam.com                      |
|    \\/     M anipulation  |                                                 |
\*---------------------------------------------------------------------------*/
FoamFile
{
    version     2.0;
    format      ascii;
    arch        "LSB;label=32;scalar=64";
    class       volScalarField;
    location    "2";
    object      p;
}
// * * * * * * * * * * * * * * * * * * * * * * * * * * * * * * * * * * * * * //

dimensions      [0 2 -2 0 0 0 0];

internalField   nonuniform List<scalar> 
59516
(
15.4033
0.834579
0.757297
0.0719435
16.0025
16.1611
15.3643
13.6639
4.56213
0.0692399
15.721
15.5394
10.9023
15.3495
14.347
4.66869
15.4411
15.8109
15.6484
15.2729
15.6512
13.7209
15.3941
10.0293
4.05917
9.60295
5.65099
15.7336
15.62
14.4681
16.0155
15.7253
7.24823
0.0507482
15.6349
13.0122
3.80791
15.8402
15.6047
0.710716
0.870969
15.7613
15.6033
0.0242094
15.5304
2.4775
15.6026
15.5995
16.0256
15.6715
16.118
0.0767897
7.4374
14.06
15.5544
15.5496
15.7944
0.0915548
10.0197
15.7113
0.0816349
12.6787
10.0639
15.4417
0.174379
15.5433
0.441492
13.1874
15.989
15.5468
13.4369
15.2962
2.73744
15.3429
13.3031
15.5278
15.5654
1.65829
11.0905
15.6518
0.0830854
15.6243
15.6087
6.39544
15.6388
15.2432
4.54513
15.2937
7.29548
15.8121
15.8944
13.536
15.0028
13.3705
13.4177
16.0296
14.4312
13.733
15.693
10.7509
4.94729
9.03135
14.2092
0.53558
2.66968
0.347632
0.356431
4.30377
7.75449
11.1751
15.9433
5.41669
13.6339
15.9423
14.8476
12.295
1.72729
14.0722
13.9808
1.85894
14.145
13.9384
3.62304
14.0411
15.8848
15.6703
14.8239
15.7941
16.0227
14.9478
14.7981
0.887374
13.1983
14.9711
15.0207
13.1299
15.9132
14.6314
8.99955
15.1559
5.35986
6.77174
13.6832
5.31173
15.2178
15.1052
15.5605
15.3629
16.0486
15.0515
15.1912
0.171752
14.8646
0.165808
14.9518
0.233217
0.275515
14.9887
15.0712
14.4526
15.133
15.1305
14.4373
0.219026
12.2338
1.70971
4.52268
15.0858
15.1852
0.223548
14.9697
14.9734
14.6874
14.7811
14.7085
15.6252
12.4301
15.634
0.79137
12.2753
14.8469
8.02467
9.44491
14.7503
14.8487
5.09648
6.95982
3.87077
14.9198
14.7396
0.0195214
7.99142
15.1085
14.7553
15.1409
1.1776
9.04026
9.00212
0.177539
14.6587
0.0305668
3.78084
13.8527
10.8847
12.736
7.91948
15.1273
0.196466
10.3103
14.3281
2.61165
15.7068
14.2257
12.8696
14.2697
5.72785
15.0612
1.13444
11.8331
14.2748
14.2305
15.0492
14.6698
0.274843
14.4554
12.4018
10.1985
10.7526
14.6867
2.24284
14.4379
7.83818
14.6837
8.19508
8.68466
14.6912
14.6743
2.96739
14.6077
3.23887
14.872
8.05566
7.66003
0.241091
14.9394
14.8559
14.796
0.715171
14.6821
14.913
0.702339
14.7399
14.8992
9.39713
14.8671
14.8887
4.60735
14.55
11.3566
14.4408
10.4655
14.4659
14.5428
14.5659
12.9224
3.52537
11.8613
4.14525
14.4447
9.84922
15.439
12.6808
4.39292
10.1052
14.4963
13.0703
9.80669
14.4469
14.5777
5.7705
14.6594
10.8685
10.0313
14.3444
14.243
15.3974
14.8694
0.497936
14.5846
13.0613
14.5289
14.3374
13.4138
1.77056
13.589
7.70236
13.1289
12.9196
14.4023
13.0454
13.0801
3.66378
5.96127
12.6895
13.2462
9.59076
1.08775
13.0917
13.137
4.9034
4.03052
13.0577
9.48393
8.95803
15.5336
13.2131
13.8715
16.078
13.1944
3.80818
7.8158
13.869
8.34084
14.0186
10.8644
13.241
15.7092
13.8575
10.2718
13.981
1.31253
15.2745
10.1997
13.9817
11.5037
14.3722
14.5791
12.6259
15.6741
14.2545
12.7944
12.6352
14.0369
3.03471
6.37186
14.2439
5.90343
14.5255
14.0585
11.4128
14.7143
14.7164
2.18528
7.41949
10.2466
3.12895
0.500839
15.912
15.9899
12.3122
1.95043
15.0388
15.6761
13.637
1.88093
13.9703
13.9399
15.0615
16.0181
14.184
5.16822
5.14256
13.9122
10.5921
12.0987
13.8284
13.9686
13.6746
11.2082
13.3239
15.1334
0.135146
15.7314
0.663465
1.15806
13.9472
0.409957
15.7154
13.9318
0.7922
0.750595
3.45709
13.7167
15.9148
13.8546
15.8931
0.762249
4.60288
13.6915
13.7504
14.2877
13.579
11.3088
14.3711
14.4532
3.72037
8.9821
14.4882
14.3581
14.3296
2.44412
1.21759
1.38243
8.19255
12.7422
0.538137
2.13486
4.28559
0.270633
13.6563
13.5354
13.8472
13.8324
14.4867
13.8412
10.7176
13.4988
9.311
13.8772
11.6191
14.0764
13.8144
13.0421
8.29111
14.3021
15.7174
1.34368
14.1327
10.4675
5.10352
10.756
11.7817
14.1763
14.083
13.8725
13.7788
4.89555
13.8177
10.7114
1.72504
11.884
15.991
9.2316
3.96391
13.9112
11.4241
13.7537
8.69813
13.7672
3.89899
13.8434
0.231516
0.444035
13.5989
15.6114
13.4712
12.4967
2.34586
12.6896
12.6034
2.52567
13.0951
12.5606
12.3018
12.2987
6.11941
12.7365
12.3762
8.49803
12.2312
5.46122
12.1235
15.6859
12.13
16.1271
12.201
14.6124
5.28204
6.07329
10.5957
0.222069
0.159161
11.4468
12.9772
13.236
10.2493
12.3916
3.05103
13.5735
13.455
15.7627
9.00774
7.91197
10.8571
13.4382
1.12664
13.1384
15.3958
0.257443
16.1516
13.5309
4.1449
15.2154
11.4069
15.5009
12.6401
11.0589
12.0662
13.6504
11.1629
13.6519
15.0092
4.65427
4.6885
15.9066
0.161536
13.5733
13.0406
15.9254
12.9476
15.2029
0.0635878
13.2417
5.30301
0.0215062
10.0292
2.37361
15.8131
14.0976
4.35613
0.154054
14.3652
8.12392
13.093
14.3193
13.0542
15.0699
0.0367867
6.54772
4.20612
13.0589
2.13376
9.68397
13.5876
8.41854
13.4751
0.141195
13.7321
4.15044
13.5363
10.6497
7.34066
6.8019
13.6556
0.123445
2.65764
12.9821
5.07231
10.3305
11.7772
7.76823
7.46964
12.9592
12.9307
14.7907
12.8049
7.40513
12.9192
12.8302
7.09538
6.2017
0.0408318
12.9611
12.9133
13.0008
6.02009
12.5392
0.498579
13.0466
0.332297
13.6672
0.0327819
1.45574
11.1033
7.91102
0.681132
13.0698
15.8331
0.178781
1.0325
12.8874
12.7002
1.99493
12.7702
12.908
8.7405
2.50712
13.6788
13.2232
0.812749
12.9849
13.0278
9.58015
12.7507
16.0313
12.9813
15.9194
11.2637
15.9482
11.3708
1.35133
15.178
0.311266
0.310161
16.1451
16.0354
11.4798
12.9493
15.8128
15.6826
8.05096
6.47091
10.6641
3.86438
11.3384
7.49189
15.7189
11.4272
11.4765
12.4855
11.8963
15.9852
10.7708
12.0824
3.27428
12.1848
9.05801
1.12706
12.1877
12.101
12.1625
9.12739
5.44331
16.1102
7.62131
7.88008
9.31605
14.4443
12.1869
3.99161
11.2499
9.40409
0.741368
4.01688
12.2971
14.0459
9.83124
9.10532
12.2619
12.2622
5.01477
14.8255
12.8279
8.45399
12.6909
10.3085
13.2745
12.5262
0.614517
1.43308
11.4032
16.0772
9.0187
8.48931
0.215991
9.63666
12.5013
7.23775
13.1122
12.83
5.48796
7.50043
12.9955
15.1738
13.6734
10.4377
16.0765
12.9868
1.98424
13.5272
16.0974
1.26412
7.54483
14.3942
12.2344
4.79304
11.8564
1.32901
1.01156
10.3611
12.2566
16.1145
13.8236
12.2355
12.2108
12.5646
5.53558
0.623709
4.00022
13.69
16.0785
9.34976
12.4032
8.37998
3.52083
12.2009
3.6984
12.2313
15.4607
7.63716
0.028879
14.0206
5.91152
12.618
1.00732
4.80426
9.49673
14.2635
12.4836
12.5948
16.1024
14.1742
2.331
16.1173
0.233281
0.0813669
12.5514
2.50532
6.89858
9.5472
6.61705
16.1226
12.3411
13.9784
12.1152
2.77016
10.1432
3.13997
7.82326
13.8476
12.0657
12.1874
12.0741
4.47103
14.9577
11.3441
3.89485
12.1372
12.0666
11.9924
11.2096
12.1317
1.02831
0.682442
12.014
0.210565
7.36293
8.47557
0.485082
8.89857
10.3756
15.2713
11.5259
13.4515
10.614
7.81034
12.1914
12.2947
12.292
6.64542
12.2487
15.0048
1.07802
0.148258
8.15389
7.10524
0.175302
12.2132
12.0635
12.1179
1.02334
1.8035
12.0594
14.3635
1.59357
2.32571
16.0096
15.7904
12.3971
2.42718
12.9386
11.5864
13.2568
10.4591
11.9159
15.8809
10.4552
10.4415
5.46345
10.5173
15.9147
1.90315
11.8015
10.4917
6.29937
12.6893
13.2207
5.51512
12.7466
14.2207
12.8706
10.407
15.5053
3.13671
10.396
13.8182
0.8351
11.1599
4.30862
10.2683
5.65022
15.8845
10.6685
0.174672
10.3703
10.2501
10.9049
10.3365
9.59798
0.262526
2.53159
12.7262
11.0735
9.11969
12.8819
6.53904
14.2682
1.41478
10.968
4.94468
9.9994
12.9784
0.890063
11.1922
10.9813
16.0918
1.42523
13.2753
14.5599
2.37664
10.7435
2.50283
8.79682
12.2651
13.1914
10.7678
10.7068
10.665
16.0284
1.8284
13.1402
6.64704
1.10962
10.8322
13.4371
11.4103
11.3899
1.91208
11.5666
11.6618
6.14146
14.6759
16.1296
15.342
8.74778
11.6648
0.140851
15.7204
10.5525
11.4886
9.61029
11.6088
11.5601
11.853
12.8669
11.9474
13.1988
11.6026
15.1477
15.3195
11.4955
12.6652
11.4691
13.2138
13.235
0.769638
7.6336
9.09024
0.71372
12.177
11.6162
12.3265
6.52522
0.338168
6.75149
11.4704
12.5262
12.5315
7.46321
8.64137
12.3962
16.0792
11.7649
0.425619
1.0458
13.6432
11.8354
7.16562
9.51321
11.6754
7.70433
11.2278
11.2488
11.2343
9.62949
12.6618
11.2022
16.0172
1.44147
11.1892
15.9809
11.2368
14.5756
2.4419
11.142
6.99508
5.33765
11.2254
11.1723
6.94754
7.12238
11.137
5.94097
10.9703
10.9921
11.4312
6.56741
10.9407
1.84661
11.1065
11.0716
7.4588
10.9666
10.996
15.3623
10.6913
9.01132
10.8569
10.8918
7.57434
3.61073
6.48896
15.6948
11.0749
11.0745
9.38999
3.72011
15.7234
9.66912
9.68311
9.4115
9.39185
0.568715
0.366668
2.99367
6.2028
11.0598
11.0975
0.301451
13.7916
10.498
4.74006
15.7253
9.1421
9.07568
15.8154
9.26813
13.2988
2.73082
9.09558
12.9721
11.9889
9.15706
6.76182
2.3339
9.18468
13.7465
12.3095
7.12816
3.31306
5.42304
9.59614
5.58616
13.7013
5.34452
9.45908
10.1042
15.9044
7.33996
0.559522
3.40283
5.48936
9.28714
13.6796
10.0338
9.98858
1.12304
7.93502
0.493292
10.1825
10.1711
5.52606
0.744403
12.1515
2.36484
14.8049
11.2078
11.0979
15.6591
5.53986
13.0289
13.5374
9.123
0.953088
11.095
15.5622
10.9917
10.8492
9.26398
4.77419
11.0405
0.977277
15.6026
13.7701
7.48547
11.0532
10.5471
13.6677
15.3065
13.0616
1.72829
4.85547
10.8905
11.3754
12.7939
7.17189
12.5916
15.752
10.8189
12.6759
4.32227
11.1665
8.45038
5.18847
11.1562
11.209
11.2139
12.7979
10.9402
2.45177
10.9838
4.78357
12.4957
1.16684
10.8856
12.6081
0.264044
1.29498
10.6912
4.16911
2.7337
4.31481
3.58729
6.55397
2.27032
10.8213
10.7585
1.80414
10.6693
10.7609
12.617
0.607019
10.8375
10.4195
0.0286359
1.39704
10.2342
5.94444
0.158726
0.750407
10.2669
7.40183
10.5715
15.4271
0.966806
12.4981
9.5526
10.5416
10.3403
9.4145
11.9428
10.8876
10.8343
9.69993
15.6141
13.8808
10.5826
10.7474
14.4582
2.0558
13.7996
11.941
7.29446
6.79904
10.717
4.85249
1.12881
9.9193
10.1567
16.0244
8.6443
10.2081
10.1318
11.6321
4.77447
10.1275
10.1516
15.1513
10.1721
4.54948
10.3286
10.3636
8.40529
7.55045
9.11492
10.3237
10.2228
10.3283
7.13311
8.8122
10.471
9.32359
7.01123
7.41231
7.43368
7.44415
8.58286
10.2745
8.79945
15.7317
14.5854
2.45544
6.24386
6.57227
8.69668
8.65276
8.81567
11.2326
8.64273
8.64662
5.06395
6.50538
12.0139
5.14319
1.96433
8.77342
8.69348
8.89143
14.7254
0.750681
0.387145
6.1364
9.38646
9.21549
13.7564
2.02918
8.77798
15.7435
2.47304
9.25967
9.30121
11.0404
0.0578044
9.16833
9.20747
9.17249
9.92727
0.264393
0.467394
9.95843
9.91375
9.84188
9.84919
10.25
9.63532
4.80455
0.892857
15.9208
12.3306
9.97737
9.87973
7.52071
15.3218
15.008
13.981
0.0810314
14.0772
10.0283
10.0571
9.94516
9.97786
10.0309
9.96301
13.4484
8.39445
13.1625
8.83473
4.74774
0.711074
10.1012
7.51107
0.226705
8.85089
10.385
15.5854
10.4692
7.16763
6.90442
12.1373
7.78431
10.2602
10.646
10.4973
8.59214
9.33244
15.3916
10.2356
13.0365
4.64625
3.76335
10.1033
3.90166
1.29022
10.4345
10.3042
7.72392
5.17336
5.95475
14.6807
10.3305
2.96918
0.31093
9.20823
1.6164
7.38707
10.0083
12.1974
9.35865
1.465
14.8936
0.842431
14.4093
8.15226
13.7827
9.57132
2.62862
10.1467
9.15578
5.74599
6.93591
10.1465
10.1641
14.8981
12.3388
13.1035
15.2137
12.718
12.2999
12.3043
13.3259
9.99591
9.8606
7.81207
3.93314
4.44788
0.979937
13.8302
7.84832
9.73145
9.60459
9.64762
2.535
9.47739
13.2401
0.155705
9.45562
9.75871
11.106
16.1217
13.2574
13.2631
9.58052
0.732568
13.7938
9.63604
11.6237
10.1354
11.8684
12.632
8.89363
13.6421
9.8387
12.4248
10.0488
1.14997
13.2766
13.6243
7.97448
15.8044
4.45721
5.23137
4.50303
8.79432
13.055
3.57797
11.5859
3.66166
9.93621
9.87982
8.61304
10.27
9.32435
14.3879
11.9666
9.18516
12.2678
9.61769
16.1153
13.5538
9.60875
9.32281
11.8536
14.214
9.39836
1.49299
11.5378
14.3721
9.32345
8.49394
9.49001
9.66486
9.77161
9.83615
0.228394
4.44404
9.83997
15.8114
9.84137
8.07207
12.7409
7.9371
6.86932
14.3487
15.8345
13.3531
13.3499
13.4381
1.94707
9.21219
10.9971
15.801
15.2089
15.8251
15.9395
15.2047
8.18142
8.01047
15.7934
3.4542
8.1979
12.2798
8.074
13.3736
12.4486
15.8269
14.9056
13.3865
4.44102
8.23259
8.99233
8.76558
9.21223
13.4584
12.241
9.07547
8.82174
8.96188
0.890223
14.1784
2.51806
9.21811
10.7159
9.46088
9.19865
8.9592
2.47711
9.35458
8.25983
9.32308
9.31674
13.6113
8.45436
4.80269
2.92967
12.9402
6.65062
6.56836
12.5452
5.47066
2.94734
2.54591
1.9305
12.4339
4.13058
8.31175
10.4695
1.8457
13.9947
14.0686
5.90082
5.70043
15.0654
8.67288
0.842962
10.1791
1.89042
12.0498
1.79247
2.76912
1.02861
0.584495
4.93105
13.7627
2.73973
1.4186
1.55538
9.0783
1.67129
8.97866
14.0249
9.24535
9.12243
12.3817
2.77552
9.38363
9.3231
0.610149
4.467
13.8015
9.37523
9.43339
12.5221
14.1266
13.4758
14.0986
3.21413
15.3688
15.7246
9.37939
9.46269
0.78013
14.5235
15.7432
9.28316
7.12227
9.28164
0.967644
13.5321
0.297459
2.72096
8.76644
11.18
8.77751
7.18353
13.9022
6.45935
13.1663
8.76356
8.79659
4.34957
8.34144
7.68594
15.5846
13.8941
11.9802
8.78993
14.1434
4.82952
2.54232
4.07093
0.804942
8.79557
14.0187
8.75297
0.803885
0.611659
13.6492
8.87276
4.09007
14.6359
8.88292
8.91352
13.7565
1.10971
13.6059
8.95028
9.13033
9.17041
9.69625
9.22617
13.4816
13.1549
9.2052
15.0199
9.85978
13.1684
11.173
9.12638
14.045
8.88191
7.10108
15.1189
10.0779
9.02535
0.599726
9.23773
9.20299
6.88915
8.84086
12.1516
3.46443
13.7875
8.49877
12.7464
13.4251
9.05021
9.80586
0.58113
4.25281
3.28511
8.96854
14.0036
1.00698
8.78575
15.1431
3.27949
12.5309
3.03883
8.7624
10.7662
8.74531
0.0684184
11.4798
13.9688
6.8994
2.08234
3.37473
6.68331
6.7748
7.23347
13.7665
0.58774
2.02929
7.59941
7.68451
13.1159
12.2009
7.63281
8.03767
7.37851
11.2209
15.1946
14.2984
9.7866
1.70174
13.0375
12.9189
5.80523
2.90909
11.8612
5.50806
7.60106
12.3404
9.80771
9.93451
8.5969
7.35741
7.98312
7.95887
7.79486
12.6583
8.13116
10.7712
14.9899
13.9667
12.2646
13.5463
7.41153
5.38826
13.8273
8.17505
12.3508
9.57182
12.816
15.4892
7.5685
0.407665
8.24954
8.37746
8.78135
13.7741
8.21211
8.64286
9.97571
8.80295
9.96273
8.34883
0.0489088
9.88013
8.66553
8.56868
0.257546
12.3483
15.3538
9.85436
10.22
7.80842
8.74009
8.65937
3.4516
15.246
8.76276
8.7971
8.85199
2.05916
13.7448
9.32083
7.9053
9.87297
5.08891
6.62193
13.0463
8.1296
7.91008
6.45365
7.93881
8.59695
5.40309
8.12079
13.751
9.17772
4.63355
13.7173
13.7506
7.1281
7.13622
6.05601
8.15021
3.57095
8.35448
3.91275
16.1203
12.804
10.6944
5.16887
1.07832
14.3418
1.16455
1.24107
8.11678
0.0959332
8.1311
1.80418
10.7718
5.52359
8.04265
12.0745
10.8428
8.12262
1.55397
1.253
10.6246
7.97636
2.25531
8.14287
8.06519
9.21264
8.4212
15.4779
12.4368
14.2871
10.6417
12.0691
8.10887
12.456
10.6926
8.11823
14.4256
15.5822
12.0054
11.69
8.11567
13.3963
7.85189
14.3114
10.3419
12.3083
1.12782
2.3254
11.667
0.576253
13.9186
15.9852
14.5783
0.715908
3.50677
0.992115
13.6002
14.2781
0.392922
10.8419
7.71209
13.3372
11.1495
7.73458
8.265
1.82346
11.8325
11.9587
3.4179
15.4365
14.3321
8.64147
7.77049
15.9102
7.72413
15.665
11.9677
11.8726
7.80056
14.8406
6.92234
14.7387
13.7456
14.858
0.389395
7.95278
15.3478
4.25833
15.7252
7.99111
15.0032
6.03639
5.98692
6.38953
15.4735
12.9109
14.8505
12.8422
6.80925
15.3333
15.359
6.05537
15.4294
7.12557
12.4275
6.68771
12.9186
8.58866
5.7439
8.16775
5.65411
8.21272
1.26317
7.16725
6.58918
14.3806
6.33254
12.0005
9.0998
10.7296
7.00834
2.13348
5.17102
12.0564
6.70829
14.2778
4.51086
7.3382
14.7513
12.3824
7.42651
13.3064
7.31453
6.67784
6.55515
8.42517
7.05464
0.0585843
2.19454
2.53445
6.71695
6.76297
12.1578
2.93423
1.66001
6.36423
4.2265
14.2539
13.0646
1.97506
7.50249
10.8217
7.0476
7.56821
6.05582
7.44528
12.9655
7.41767
10.2923
0.0301427
14.0778
10.1565
15.8295
7.62928
7.39087
1.24378
14.364
5.55873
7.65728
12.4461
7.94266
7.72425
7.1716
7.23467
1.89592
7.88227
7.54969
7.61137
7.26546
8.44174
7.44995
14.0416
6.14103
7.71748
14.2805
15.8069
10.5994
6.34482
11.7179
7.58128
6.92228
6.56036
3.5183
6.23586
5.66479
15.2375
6.27355
8.45159
8.48387
2.09796
6.17287
14.0261
7.07999
7.23662
10.1068
9.45502
6.97947
10.9975
8.54575
7.13278
7.00194
7.9573
7.007
13.963
13.4846
6.35105
6.10615
6.76319
2.74006
7.17313
8.53681
12.1922
6.96844
7.23817
6.66888
7.33743
14.0559
6.10086
13.6562
7.20582
6.90139
6.54927
6.98281
5.52542
6.84406
5.5434
4.8772
6.8501
15.0308
7.85328
14.9793
10.0924
4.68081
1.48265
6.08519
14.0388
7.0526
6.94857
5.15799
7.0533
5.09313
14.1508
14.0839
5.32514
5.35854
5.61168
5.6462
11.3247
8.95747
5.50527
5.53492
4.11625
6.8825
5.63216
5.64714
3.30229
3.05245
0.0245421
5.65962
11.3474
1.88004
8.97815
5.89067
6.02384
6.32834
8.07822
13.9434
7.24486
5.17409
0.701751
1.15396
9.10414
5.91983
5.63564
7.88378
1.85285
1.24359
6.03368
13.9926
6.71165
6.81219
3.2026
6.34021
15.5443
6.56304
6.3745
8.86663
6.48825
6.72283
14.0187
6.76294
7.73648
1.13567
0.245865
11.0776
2.27258
1.2321
6.9756
5.72691
14.0095
6.82198
14.5279
14.4859
6.64549
13.9168
0.396942
6.42562
6.85245
2.10123
6.9236
14.545
15.8543
3.14821
14.318
6.80846
12.104
13.2908
6.8733
7.1791
14.4396
6.75956
15.4776
6.90611
8.27554
7.42723
15.5205
14.3748
8.34442
7.01338
6.79961
12.5969
8.2531
12.6562
14.3643
14.0963
7.02116
0.742931
7.0579
6.55194
12.5145
5.41659
12.4897
2.5559
13.3365
0.0179513
14.0714
8.34395
5.8906
6.46093
14.3053
6.34342
14.0262
13.6755
14.2174
0.694055
0.184339
12.724
0.238132
6.32935
8.21621
11.0259
6.21419
13.7399
9.347
13.8808
6.05168
13.758
11.5814
12.5307
15.8439
8.60959
15.2117
6.02609
0.637963
9.44791
0.533664
15.7326
2.9038
9.08914
12.548
6.65177
6.31943
0.847035
2.0809
6.4348
12.8986
14.1934
0.377138
14.603
8.34262
15.379
3.79214
12.9724
6.43056
11.5075
14.2735
11.4271
10.722
12.0093
13.0501
13.9141
10.5129
2.72781
12.3202
6.58823
6.58498
6.57196
3.83198
15.1468
15.2239
12.4153
7.15184
13.7205
14.0997
7.18001
6.61323
6.56162
6.32559
15.1558
3.08589
6.21439
9.79374
6.33863
12.3419
11.3897
7.5296
3.69712
6.2998
6.27311
8.91739
15.716
10.2411
6.28119
13.8407
4.46612
3.34677
14.971
0.323634
4.41701
0.845351
4.53859
4.43311
13.8348
6.18847
11.5187
13.786
7.88983
6.61381
14.2747
4.73776
14.1198
5.92035
6.13052
6.14323
12.4959
10.5801
14.1052
12.8475
13.5715
5.20565
9.12732
14.3238
13.3616
6.54141
13.3515
4.58011
12.3482
2.9271
12.5495
6.26109
11.1493
5.56547
8.5638
13.3715
4.45657
13.4408
3.35644
6.73585
5.51047
1.93904
5.75351
5.35848
7.65577
14.1046
5.63777
2.4904
1.07443
12.4959
1.18171
13.5045
0.216434
5.84221
3.16166
5.83632
13.4135
13.6356
2.96874
15.0877
2.00095
0.0318588
12.4843
11.291
5.79406
13.3798
4.3002
1.21838
7.44948
0.2145
9.54176
11.9691
8.75187
5.90979
15.6297
5.96708
9.65714
12.5238
7.93773
13.592
5.74767
8.70586
5.66748
8.90785
15.0825
6.13632
5.29858
9.02429
5.69104
10.1088
5.69366
3.69015
5.67832
15.1047
5.64207
5.40779
5.57399
14.7304
7.24361
14.1389
15.2537
15.1133
10.928
3.01689
4.16891
11.3976
13.3886
1.31105
3.9429
5.57156
5.48971
13.514
15.77
0.0832114
1.95752
5.0631
14.1693
1.94818
8.00874
13.5591
5.42519
5.38389
5.42959
5.21842
5.43258
11.0516
6.6465
13.2328
1.3981
5.65201
5.47359
14.7491
8.55652
14.5207
15.2811
2.89142
5.47868
4.13174
14.7382
14.8189
14.549
14.4418
7.49058
4.0626
14.2364
2.95109
5.48099
13.124
6.20212
5.43533
4.27049
5.27742
13.0277
12.8977
5.42649
9.66279
6.16426
6.11811
15.7151
1.46391
3.29595
5.47767
5.51124
0.503705
5.50328
4.09715
5.79689
12.7196
5.63762
0.967854
5.94685
0.448975
14.851
14.4404
7.66125
5.65468
5.80962
6.60039
4.96846
4.52498
6.76151
4.76615
4.70693
4.11818
4.78493
15.014
13.3004
8.03017
12.5241
5.04349
12.9255
4.04458
12.5452
10.5476
12.0504
4.87253
9.13599
1.10451
12.9262
13.9644
5.64235
15.9149
5.04828
5.16788
8.64178
1.24559
6.73901
5.1945
12.8521
4.03881
5.53482
5.42121
3.73148
10.7607
3.72806
3.66051
3.782
3.84235
3.78105
12.5806
12.7673
12.9828
12.5226
2.31236
3.7937
14.6542
4.18073
2.25888
4.13809
4.09634
2.43258
4.15768
4.19553
4.12809
5.2053
5.08724
9.31265
5.78426
6.50564
8.36412
7.17787
6.68627
2.34151
5.27551
5.15804
3.94224
4.25531
5.14041
10.1367
0.966881
11.9591
15.6459
9.33898
15.0827
5.14992
1.05328
1.13399
1.15734
7.0439
1.15735
4.98499
5.13338
14.1706
15.8624
8.73398
4.62015
14.4402
7.93628
9.71126
5.05436
9.90839
5.06023
10.1656
4.26926
2.08408
2.67776
4.81799
0.0490534
5.20196
14.3136
3.80616
11.8116
1.40985
4.66354
4.79409
13.465
6.55742
10.2411
7.32184
10.1426
4.71399
0.841985
14.5558
5.70903
9.45973
14.277
14.2777
4.94311
4.17446
4.94139
7.50552
4.86068
9.96801
13.4195
7.73421
4.9536
5.00101
7.94674
9.07599
11.1596
4.96498
5.07539
5.08222
14.3608
5.00013
5.08995
1.73237
4.48057
2.31279
0.809631
2.21585
1.37233
4.36409
4.50291
0.668389
3.46886
0.619559
14.177
4.59251
2.56694
14.2381
11.019
6.94167
3.91577
4.76335
0.703743
4.64322
10.4624
7.42618
4.5762
14.5528
2.09868
0.243566
4.63775
16.0429
7.30819
9.56608
0.767097
4.65453
4.61807
11.1636
0.738741
7.17303
9.29365
4.37535
4.62877
4.77213
15.908
15.0272
14.5788
6.99355
2.30661
0.882647
0.736367
14.7474
0.750242
2.78155
4.78961
15.7695
5.65946
4.92257
13.2592
14.6312
10.4548
9.96382
4.93356
4.85471
14.2657
12.3408
12.9505
1.33309
12.0082
3.11357
6.53127
2.55049
4.68713
7.58319
14.9901
7.58047
7.54082
15.4284
4.42391
14.3378
3.34415
9.8746
11.6134
14.9073
7.51647
14.4633
4.2088
3.47098
2.0029
4.36189
14.5334
3.32685
2.99349
9.08555
3.45255
3.40233
3.69527
1.13352
6.84236
4.53382
5.38415
3.15667
4.10004
3.61588
2.36253
14.6687
10.3173
3.30391
4.63681
16.0926
8.77272
4.4261
9.39944
4.48437
8.33398
4.35564
14.5732
3.33039
15.9903
2.70027
2.45197
9.1476
3.33674
9.99381
8.79222
10.6449
1.33876
0.0802625
1.6937
1.49722
2.76972
0.943318
2.98696
2.84827
2.82593
15.2954
1.74053
14.7473
14.7615
2.17373
14.0204
4.69372
14.3778
13.411
3.22788
14.0785
3.25993
0.11176
10.503
6.67591
13.6545
13.354
7.42083
1.03035
1.93158
10.6787
11.5874
3.29424
3.21691
4.36238
11.7797
12.8531
9.64461
1.10935
0.822146
4.33088
10.858
11.9369
13.0604
15.3205
4.45646
13.742
12.668
9.54593
15.9903
6.67892
8.69768
11.0205
4.18662
14.8219
0.75084
6.52785
12.5468
11.3244
13.3605
14.7418
1.23918
6.48373
4.33061
7.76708
4.34172
7.24764
8.03313
7.73129
5.63666
4.36799
4.33517
4.16383
5.71827
15.2499
6.15802
5.53976
5.81429
14.4616
12.7871
1.11307
14.7847
4.37952
4.16569
8.78217
3.65966
3.66438
5.20794
1.12516
3.6221
3.80756
0.85245
3.41645
3.36977
3.68485
4.86809
4.06761
4.10637
14.6638
2.65991
3.35173
2.36184
4.46989
2.35261
2.08585
4.293
0.960059
0.924688
6.01108
2.27461
2.09013
14.718
4.24966
3.17022
2.97254
1.0464
2.65812
4.23079
4.31282
3.83112
6.86953
9.38582
10.7406
8.16606
1.04443
3.78034
3.75244
3.88157
12.3143
5.93405
4.34274
15.5887
3.81489
5.90103
3.77396
3.88463
10.4379
10.7226
3.73192
6.31222
13.44
13.2883
5.95881
3.8105
14.634
3.78567
8.2004
3.80932
15.8134
3.8371
12.0452
3.71005
10.3372
12.5412
14.3715
13.1622
3.75518
12.662
9.18714
10.3253
3.78618
1.56181
6.7004
9.42548
3.78813
3.76279
3.81134
6.69627
3.38146
15.4439
11.1549
1.43837
14.6638
3.53566
14.2587
1.33371
3.24571
3.46839
12.2323
3.69913
10.5605
15.2621
3.28451
3.54761
5.82186
14.9268
12.2939
12.2034
3.59258
12.8756
10.9259
3.54683
5.933
5.00311
3.49625
3.45553
10.6345
13.0265
3.89604
6.10606
4.8708
14.5364
14.2838
14.5058
3.76023
14.5857
2.39682
11.5705
13.3575
7.59138
10.4425
3.76963
14.8405
1.77629
1.96277
2.13793
6.40811
2.15362
6.95349
6.77557
5.98301
7.41068
11.9287
6.12965
9.0835
0.542007
2.49588
5.20442
8.69803
3.60641
9.78021
13.5594
7.02944
11.7339
11.2695
0.656432
2.11217
10.2814
2.52436
0.049191
14.836
12.2813
14.1781
2.12332
14.797
5.7218
14.1293
5.4199
14.3961
5.52766
14.5865
2.35873
12.9266
3.46358
10.9922
5.53567
11.3455
5.72753
16.1026
3.49949
4.79775
11.8813
11.0638
3.37212
7.37146
11.1008
3.4902
9.85169
1.33085
9.81541
3.16767
3.05371
4.80033
14.7613
3.50586
2.15174
3.5084
3.57528
6.47183
12.4093
3.98672
3.61193
6.46292
6.50637
0.166274
14.3704
3.47267
4.64923
8.37381
11.4658
0.135968
3.57136
14.6868
3.02182
2.79428
9.20099
1.66324
2.49843
13.349
3.46778
14.5273
6.72698
2.21574
2.762
7.53204
2.69127
3.52032
5.08344
3.26696
3.36212
3.22966
1.34817
8.9085
3.18746
4.57162
3.02449
4.08247
4.66666
3.12453
2.99437
14.3626
3.27565
2.74052
3.00194
14.6707
3.47531
2.92288
4.12511
10.9957
4.3952
3.15671
3.60099
3.0647
0.0240659
14.5368
4.41857
3.04357
2.34453
15.0157
5.94446
1.49594
2.95576
0.575798
6.4675
14.6137
2.93323
14.4474
2.7271
1.76093
14.6757
14.4635
14.9447
2.20082
14.7821
0.82197
0.910174
3.0127
1.45796
1.28784
3.75371
11.0583
14.705
14.0941
15.1886
13.9307
8.74719
6.41376
2.26089
2.80015
3.29219
8.24177
9.44767
5.68255
12.3088
4.36151
3.06751
10.0697
3.94692
13.9811
14.0924
1.66353
14.0644
9.38647
12.8536
15.0266
2.8694
11.7256
9.48861
10.1082
9.53006
2.91501
7.36011
14.1857
15.081
3.51825
13.8477
15.0881
14.4513
12.0206
2.41866
15.1545
2.55124
13.5843
13.5147
2.56911
2.88875
2.2742
8.48834
14.8127
6.18309
9.43378
2.35094
10.4781
14.8213
3.07751
12.2567
2.93729
12.4121
14.0979
15.1983
13.9569
5.09126
5.67019
6.78078
11.6758
3.08367
13.0998
13.2213
2.99637
12.5166
7.25564
2.98721
9.42105
12.7562
2.8615
14.192
2.37055
12.9615
15.4472
2.7141
8.04222
2.75568
9.6588
2.89632
1.32062
14.8103
9.84165
4.8085
6.56563
8.29625
7.93633
1.14536
7.40379
7.39549
14.1777
9.98995
15.6031
13.5414
3.93736
14.4339
1.40807
1.44429
10.5578
9.01304
12.5124
12.5461
1.51571
1.30975
7.22318
14.6057
11.8997
13.5268
15.3962
1.56893
12.0297
9.90601
12.0819
12.4333
9.29929
14.7703
12.5968
12.9849
3.57559
3.92287
15.2693
1.55046
1.35261
2.66929
13.7783
14.6878
14.9129
2.54551
2.41676
10.9972
2.61844
2.60213
11.2875
15.1354
12.3962
4.21916
14.0332
7.24818
12.3122
12.3989
15.1611
2.44995
8.97553
9.08374
2.59203
2.37861
2.30974
2.43352
9.72805
2.57414
15.1609
12.0779
11.095
2.57647
2.28255
5.19701
11.7338
15.2591
7.08479
6.23335
15.078
1.09004
1.97254
4.13131
6.53533
1.95183
2.55387
2.5994
5.04948
2.65508
15.0419
15.1643
5.53174
15.0581
8.87682
4.97423
2.4445
3.98438
3.69451
4.46235
2.52885
2.13175
2.77261
3.25267
2.25464
3.84456
4.13581
11.8487
2.27479
2.52196
4.63043
1.52715
2.54764
2.2955
2.0611
2.16717
2.3306
15.0539
2.39134
2.57569
8.48373
8.55158
14.5856
8.94984
14.9717
13.2545
13.6221
14.5768
7.88013
2.18979
8.93449
15.3309
3.48067
1.12026
11.8969
2.15942
13.3608
2.15778
2.44771
5.4837
1.90523
4.99958
2.18908
1.83103
6.47555
12.1238
0.24097
10.4466
15.91
1.73349
11.5711
1.68201
14.4445
12.417
1.61648
6.46634
12.0833
1.83819
14.5807
12.0738
5.79497
1.832
2.28566
14.8902
7.12191
12.0219
4.36246
5.9631
13.3084
3.57631
2.32769
10.1658
5.29967
12.7461
5.35134
10.5025
2.14957
2.19318
3.06969
2.70481
15.156
12.908
1.39365
1.39649
15.9935
4.05905
14.705
12.9654
2.0833
13.6599
1.92078
1.90588
1.88078
1.34253
1.84403
1.86783
16.1336
1.98449
7.08556
9.90949
0.725385
3.40923
10.2792
8.87472
10.2295
10.2429
0.854167
0.866274
0.861796
0.624571
0.536726
15.1057
0.614702
7.01884
0.497636
15.6128
4.76685
15.1149
9.74901
11.0549
1.777
1.49686
0.439645
8.86184
1.60864
12.6593
1.60699
1.77013
2.93151
1.99997
6.91178
11.1672
1.75147
11.6164
9.11056
1.37349
6.17005
14.7573
1.66633
6.69431
8.87892
1.52235
1.56768
1.98568
1.61048
9.004
9.10572
5.5219
4.96385
1.51691
3.45617
3.28937
2.62432
15.2532
3.63007
6.16751
3.28634
12.8772
1.03357
7.53541
9.07727
0.12475
2.29526
0.931696
1.10905
4.35456
12.2364
11.5075
11.5743
7.81697
6.68252
7.25175
1.1255
14.4495
15.3201
1.26018
11.2454
1.17043
7.58535
1.34327
13.8545
4.4734
13.2811
11.7025
1.65747
1.40726
1.56531
14.7842
1.29281
11.5938
13.6334
5.96458
8.58915
15.0163
12.3123
14.4627
10.1999
10.3885
9.6533
0.215148
1.40554
6.85832
1.3893
9.10974
8.09899
1.37503
8.89868
1.13114
1.11018
1.33909
5.87067
1.36742
7.7246
0.142986
12.7728
2.42044
9.23555
1.11656
1.15186
10.1792
1.24862
4.4255
8.32988
1.29404
8.02469
7.10821
1.27749
1.34342
5.60556
1.16456
13.8719
7.56376
4.69379
1.13361
1.1758
4.74756
9.96544
0.143611
7.44566
0.205793
8.1632
14.0483
4.81797
5.01839
4.89849
2.91438
8.77891
1.25919
10.5778
1.22125
4.48699
4.65024
8.6917
8.78824
3.59959
4.07307
8.79544
15.613
1.2136
15.6649
4.09421
7.5163
0.18314
2.05113
13.5533
0.539011
14.4721
13.8728
0.934153
12.9656
12.6006
0.842729
6.54996
1.23752
13.8222
7.66965
11.5636
5.06016
12.4547
14.1676
0.764311
9.69475
7.69595
7.64322
11.676
11.7931
0.805798
0.368228
1.17384
0.685757
12.4398
1.29662
2.10678
12.5005
14.5683
15.6548
11.4028
1.09397
14.4686
1.12834
0.876826
1.21008
12.5739
14.4701
15.1759
0.427322
15.0476
14.422
13.9657
14.0944
14.0738
14.8962
14.5781
13.5415
12.5068
12.3825
12.2637
12.496
9.69027
0.487686
0.33004
12.6594
8.31898
0.862746
1.11437
0.776628
2.31887
7.22626
0.809184
0.719507
9.13797
9.31569
12.7109
10.3978
9.71416
12.3986
9.75488
1.05322
13.8272
12.1967
1.00886
11.9887
13.6272
15.2024
1.04655
1.08953
1.02968
0.620206
13.4128
0.26257
5.80838
0.737277
11.6574
13.4478
0.772273
0.574277
0.629359
0.80864
13.5803
0.4482
4.66779
0.737647
4.98475
0.663122
5.12774
5.22231
13.7326
2.40744
4.98175
5.79769
1.19999
0.615338
5.0758
0.296519
10.7841
5.76764
4.15795
4.35952
6.67272
0.283477
13.592
5.4968
5.88539
13.5659
14.9284
13.7066
13.4754
10.79
10.6228
0.0773567
8.75997
9.80216
0.302639
10.4006
7.78248
14.3925
7.7627
0.313948
12.2665
13.1622
14.3436
13.2277
13.6302
9.85575
3.66546
0.324322
13.791
0.426356
5.78896
14.7835
0.468058
14.2378
8.10177
0.592312
12.5528
9.31206
9.42846
9.52493
13.432
12.1331
2.33678
0.507305
10.483
9.44813
3.93555
0.526254
0.221548
13.5535
0.384246
0.329513
8.53847
0.536641
0.370314
0.285494
13.5608
9.19945
9.95009
13.4599
9.19049
0.284012
7.41567
6.16972
7.54922
8.39638
0.452719
0.404838
12.552
12.3174
11.5264
9.44532
7.39845
2.01611
5.90784
0.354467
6.86728
9.88357
0.39311
0.318607
0.381336
0.488535
0.375804
13.5775
13.7511
13.4684
5.11734
6.38741
5.88222
9.5023
5.62303
6.52298
13.6665
5.06143
7.31489
6.04667
5.29379
4.00866
7.54436
4.23803
1.27068
13.4721
3.80131
14.5189
5.97724
3.57933
13.5753
2.79127
3.52184
5.58552
2.18555
10.7774
7.71598
5.07733
2.00012
2.11307
14.3423
1.75349
14.4368
6.156
5.18687
8.4945
4.86013
12.8237
14.2825
11.9171
15.1754
3.11836
3.71657
13.2408
8.80465
2.25684
14.8383
12.0799
15.1224
11.868
10.2509
15.4788
11.9642
12.1255
12.325
10.6971