/*--------------------------------*- C++ -*----------------------------------*\
| =========                 |                                                 |
| \\      /  F ield         | OpenFOAM: The Open Source CFD Toolbox           |
|  \\    /   O peration     | Version:  2406                                  |
|   \\  /    A nd           | Website:  www.openfoam.com                      |
|    \\/     M anipulation  |                                                 |
\*---------------------------------------------------------------------------*/
FoamFile
{
    version     2.0;
    format      ascii;
    arch        "LSB;label=32;scalar=64";
    class       surfaceScalarField;
    location    "2";
    object      phi;
}
// * * * * * * * * * * * * * * * * * * * * * * * * * * * * * * * * * * * * * //

dimensions      [0 3 -1 0 0 0 0];

oriented        oriented;

internalField   nonuniform List<scalar> 
113358
(
-1.88619e-05
3.6641e-05
-2.28585e-05
5.10923e-06
3.04702e-05
-1.81874e-06
-9.47448e-06
-1.87726e-05
-2.31896e-05
1.96416e-05
-2.67397e-08
3.76492e-06
-1.82682e-05
-5.12388e-06
2.03662e-05
2.68062e-06
-1.41523e-05
-9.8803e-07
2.49481e-05
-9.79886e-06
1.78424e-05
-1.52959e-05
-1.02186e-05
7.75651e-06
-8.69585e-06
3.28146e-05
-2.09487e-05
-2.70716e-06
-2.98013e-06
-3.93207e-05
2.33665e-05
1.90746e-05
7.61341e-06
1.72426e-06
1.65343e-05
-2.58487e-05
2.20147e-05
-1.18821e-06
-1.97768e-05
-1.768e-06
-1.76256e-06
1.1817e-05
-1.39586e-05
3.80538e-06
-2.89444e-05
1.68773e-06
-7.3057e-07
2.81262e-05
-4.7782e-05
8.15315e-06
1.00922e-05
2.928e-05
4.35017e-06
-6.1263e-06
1.98072e-06
1.08164e-05
-3.6421e-06
4.08338e-05
-4.87517e-05
-1.67001e-06
1.09299e-06
3.22812e-05
-3.23222e-05
3.56203e-06
2.27806e-05
-1.40323e-05
-1.22344e-05
-3.81804e-05
2.28963e-05
8.7192e-06
6.2569e-06
8.77039e-06
-3.87918e-05
4.494e-05
-1.49514e-05
1.58014e-05
-7.55991e-07
2.07995e-05
-3.61787e-05
3.60984e-05
3.76231e-06
-4.87106e-06
-3.49897e-05
-8.16441e-06
3.34984e-05
3.96466e-06
-2.99877e-05
-7.69182e-07
-3.42653e-05
3.75766e-05
-2.33194e-06
-1.21964e-06
1.17593e-05
5.20307e-07
-1.07312e-05
-3.53381e-05
1.43703e-05
-4.53489e-06
2.50666e-05
-4.9757e-05
4.7877e-06
4.56357e-05
-1.68366e-06
-2.16996e-05
2.30794e-05
2.86603e-06
-4.09708e-06
-2.13528e-06
-1.28877e-05
1.23185e-05
2.60042e-06
3.66152e-05
1.45973e-06
-1.82924e-06
-6.47625e-06
7.0182e-06
-4.54568e-07
-3.20799e-06
-2.47219e-05
2.93662e-05
-1.47487e-06
1.78729e-05
-5.43583e-06
-1.59511e-05
3.46662e-06
1.46546e-05
-1.32541e-06
-7.67866e-07
-1.25801e-05
-3.16419e-05
1.05844e-05
-3.81803e-07
2.05901e-05
1.25685e-05
-2.58376e-06
-1.11006e-05
1.17943e-06
-2.8111e-05
5.50523e-06
-1.46698e-05
3.68006e-05
5.58465e-07
-8.07893e-06
7.503e-06
6.88431e-06
2.03233e-05
5.7185e-06
-3.34668e-05
1.35335e-05
-5.11589e-05
3.30694e-05
4.50954e-06
-3.12017e-06
3.41498e-06
2.54092e-05
-2.66626e-05
-2.23724e-05
1.78822e-05
-1.92367e-05
2.39165e-05
-1.30516e-06
-1.96181e-05
-2.55132e-05
4.66703e-05
-8.19188e-07
3.41863e-05
-1.25161e-05
-2.11542e-05
7.73753e-06
-2.01879e-05
-6.50694e-06
-2.67379e-06
2.19957e-05
4.88989e-06
-2.41507e-05
-1.03988e-05
4.12843e-05
-2.58471e-05
-5.02206e-06
-2.62225e-05
-1.25426e-05
3.80137e-05
-7.69943e-06
2.25549e-05
1.26787e-06
-1.62119e-05
-3.44479e-05
-2.06642e-06
-7.99335e-08
3.66735e-05
2.50168e-05
1.00976e-05
-3.17623e-05
-3.3908e-06
1.76763e-05
-1.25861e-05
4.81322e-06
-9.89566e-06
-2.89306e-05
1.07109e-05
2.75643e-05
-9.40916e-06
3.25923e-05
-8.31078e-06
1.8917e-05
-4.3636e-05
-6.63281e-06
-3.86297e-05
3.96605e-05
5.74359e-06
-4.88683e-06
2.60418e-05
-2.39732e-05
2.83094e-06
3.11949e-05
-9.81311e-06
1.97033e-05
-4.10427e-05
-1.33854e-05
2.25284e-06
2.37053e-05
-1.24335e-05
3.33574e-05
-1.56922e-05
1.78092e-05
-3.51405e-05
2.17445e-05
-4.77897e-06
-1.79093e-05
5.2873e-07
-8.49961e-06
-1.0951e-05
5.1057e-06
1.43546e-05
-1.85874e-05
-5.62706e-06
8.63447e-06
1.59472e-05
-1.45781e-05
1.08391e-05
3.66053e-06
2.36476e-05
-2.24899e-06
-2.05191e-05
-8.0156e-07
-6.76941e-06
-2.7064e-05
9.52785e-06
2.42457e-05
-2.06561e-06
-1.58621e-06
-3.1292e-05
3.51488e-05
1.26934e-06
1.2029e-05
2.93495e-06
-1.61511e-05
7.7069e-06
-7.73819e-06
-6.46564e-07
-5.71576e-07
2.30218e-06
2.8437e-05
-3.04442e-05
2.14264e-06
-2.78678e-05
2.98766e-05
-4.28875e-06
6.63811e-06
-1.74447e-05
1.65232e-05
-5.69726e-06
1.57594e-05
-2.34549e-05
8.14632e-06
-1.12084e-05
-3.77266e-06
2.09642e-05
-6.06308e-06
-2.52596e-07
1.22229e-05
-1.20205e-05
4.60622e-06
-1.7842e-05
3.37724e-06
9.85386e-06
2.35008e-05
-3.71351e-06
2.43745e-06
-2.18464e-05
-1.67208e-05
-2.76599e-05
2.33901e-05
2.12615e-05
2.27588e-06
-2.1852e-05
2.72667e-06
2.63939e-05
-2.09067e-05
9.48152e-07
-6.31806e-06
-2.90528e-06
-1.46221e-06
-3.40214e-05
3.90197e-05
5.73859e-06
4.40898e-06
4.05697e-06
-1.40753e-05
2.24613e-05
-1.60855e-05
1.43261e-05
-2.19322e-05
-1.2364e-05
-5.9244e-06
1.92436e-05
-8.93008e-07
-1.40334e-05
2.20793e-05
-1.42346e-05
6.23973e-06
-1.16075e-05
-3.94538e-08
1.15221e-05
-2.06652e-05
2.04472e-05
-1.94097e-05
1.47921e-05
-7.03389e-06
-1.92239e-06
-2.94467e-06
1.19718e-05
5.64641e-05
-5.27551e-05
1.67032e-06
-6.28537e-06
-3.06361e-05
5.80221e-06
2.87455e-05
-4.0635e-06
-6.71448e-06
2.30574e-05
-2.36329e-05
6.83068e-06
-1.24303e-05
-1.55446e-05
2.33033e-05
4.76434e-06
3.25278e-06
-9.10667e-06
1.58235e-05
-9.82997e-06
7.98793e-06
1.32999e-05
-3.01214e-05
8.64117e-06
-2.09067e-05
9.0506e-06
8.38307e-06
3.58044e-06
9.81003e-07
-1.80972e-05
1.30426e-05
4.0024e-06
-2.45295e-05
6.36089e-06
6.38159e-06
1.17164e-05
1.57018e-05
-1.51532e-05
6.66799e-06
-7.61497e-06
3.52641e-06
2.73831e-05
-3.3382e-05
2.00323e-06
2.60268e-05
-3.78123e-06
-2.16626e-06
-1.99904e-05
1.25329e-05
1.16203e-05
-9.85399e-06
-1.43557e-05
6.286e-06
4.7051e-07
1.1766e-05
-1.83739e-05
1.36092e-05
4.0768e-07
-1.37032e-05
-1.26265e-06
1.01542e-05
-8.69195e-06
-3.3832e-06
7.08017e-06
-2.73989e-05
2.36214e-05
-1.51331e-05
3.60406e-05
9.31719e-07
-2.10827e-05
9.76497e-07
-1.38176e-05
1.12757e-05
1.04953e-06
-5.12894e-06
-1.43731e-05
5.5191e-07
1.89358e-05
-6.97345e-06
-1.21857e-05
4.12124e-06
1.46997e-05
-3.98415e-06
2.67961e-05
8.13338e-06
-3.15891e-05
7.13429e-06
2.25303e-06
-3.97947e-05
3.05389e-05
-5.15628e-06
2.49171e-05
-2.54862e-05
5.86146e-06
-2.53698e-05
2.40969e-05
1.20901e-07
3.79844e-05
-4.27571e-05
6.17055e-06
-1.88949e-06
1.90899e-05
4.37174e-06
-2.89931e-05
5.51558e-06
-1.88169e-05
-9.96321e-06
4.04714e-06
2.47981e-05
1.18e-06
-2.24026e-05
-2.22195e-06
2.33612e-05
3.38515e-05
-3.50228e-05
5.46936e-06
-4.37324e-06
1.17979e-05
-2.05175e-05
-3.55831e-06
1.24606e-05
-9.47645e-06
3.8793e-06
5.49636e-06
-1.09526e-06
-1.20943e-06
2.33907e-05
-2.13826e-05
-9.0252e-06
2.44941e-06
3.32775e-05
-2.69343e-05
-4.35496e-06
1.20176e-05
-2.0327e-05
1.29299e-05
-6.4426e-07
-1.30658e-05
1.38503e-05
4.35317e-07
1.94837e-07
-5.43265e-06
1.6683e-05
-1.14163e-05
1.63845e-05
-7.5517e-06
-5.11967e-06
-3.69286e-06
-2.08015e-06
-1.33325e-05
1.94933e-05
-3.69554e-06
1.90013e-05
-9.47234e-06
-9.49186e-06
2.62598e-06
-2.4918e-05
-1.89833e-06
2.42961e-05
-1.45019e-05
1.8787e-05
2.52394e-06
-6.93188e-06
1.63456e-06
-7.78884e-06
1.16726e-05
-5.49049e-06
-2.40334e-05
4.07566e-06
3.49062e-07
1.99587e-05
-1.9901e-06
-4.4121e-05
4.11675e-05
4.52093e-06
1.51099e-06
-1.12208e-05
1.01821e-05
1.49657e-05
-2.22213e-05
3.23922e-07
6.9527e-06
4.73903e-05
6.82883e-06
-5.1539e-05
-2.79634e-06
1.02548e-05
9.12792e-08
-2.48547e-05
1.4686e-05
-6.40881e-06
1.04485e-05
1.50232e-05
-2.25885e-05
-2.34687e-05
1.02523e-05
3.54351e-05
1.76603e-05
3.7666e-06
-7.38424e-06
8.73392e-06
-5.93914e-06
-3.06604e-05
2.79084e-05
1.76511e-05
3.95446e-05
-2.24458e-05
-3.46478e-05
-2.86711e-06
4.83121e-06
2.33064e-05
-2.54566e-05
4.85703e-08
7.07638e-06
-7.23161e-06
-1.75382e-05
2.76975e-06
9.47709e-06
5.55112e-06
2.00875e-05
-9.5368e-06
-1.33936e-05
2.875e-06
2.05598e-05
-3.42077e-06
-3.43997e-06
-1.37021e-05
-2.51004e-05
1.27455e-06
5.73592e-07
2.33635e-05
2.06955e-05
9.27254e-06
-2.97627e-05
-3.81717e-07
8.32508e-06
6.07849e-06
-1.4402e-05
1.90086e-06
-2.75713e-05
-7.3655e-07
2.60391e-05
4.84946e-05
-3.92515e-05
-3.49607e-06
-5.40112e-06
1.15079e-05
-2.89291e-06
-8.80583e-06
-1.49898e-07
-2.57639e-05
3.86319e-05
8.84998e-06
-2.13907e-05
1.42394e-05
-2.15166e-05
-2.96196e-07
7.385e-06
-3.25069e-05
3.1577e-05
3.2165e-06
-1.8892e-06
-4.39409e-06
2.12378e-06
1.84509e-06
3.76628e-05
-3.36567e-06
1.63201e-05
-5.08183e-05
-2.73369e-05
3.43903e-05
-3.92896e-05
-3.23183e-06
2.74577e-06
2.76815e-05
-2.70089e-05
6.16552e-06
-6.37901e-06
1.21671e-07
-2.2637e-05
-9.30542e-06
4.77002e-06
2.7282e-05
-1.33642e-05
4.04304e-05
-3.91128e-05
1.2113e-05
8.09056e-06
-1.301e-05
9.87211e-06
-4.89963e-06
-3.9431e-06
-2.60298e-06
5.97266e-06
-3.69822e-05
2.83569e-05
3.47631e-05
-2.62108e-05
3.29017e-05
-3.68505e-06
-1.07066e-05
-1.83088e-05
3.61852e-05
-2.83214e-06
-6.72606e-07
-3.25253e-05
2.07757e-05
-2.64952e-05
3.34459e-06
2.30353e-06
7.53137e-06
3.70273e-07
-7.92455e-06
-1.08093e-06
1.79823e-05
-2.21585e-05
5.02073e-06
-1.73713e-05
1.40929e-05
-1.34013e-06
4.59238e-06
-2.61039e-05
2.2714e-05
2.75154e-06
5.56011e-07
9.1378e-07
-3.23748e-05
9.54346e-06
2.17426e-05
-7.00023e-06
-7.60978e-06
1.61544e-05
-1.58575e-06
-3.16011e-05
3.1618e-05
-2.3925e-08
2.98615e-08
-2.16871e-05
-3.68455e-05
3.25667e-05
-6.26568e-06
1.91724e-05
7.03585e-06
-1.98566e-05
2.11967e-06
2.75806e-05
4.79905e-06
-3.47271e-05
-2.75682e-05
1.19675e-05
4.73918e-05
-3.15783e-05
-7.24619e-07
1.135e-06
2.46012e-05
-2.46536e-05
6.49552e-06
2.66379e-05
-2.60413e-06
-3.03833e-05
-1.09922e-05
-9.69059e-06
9.8035e-06
1.10418e-05
1.17994e-05
-1.04207e-05
-1.29564e-06
-5.7056e-06
-2.66475e-05
7.55029e-07
-1.6555e-05
-3.24355e-07
-1.67777e-06
1.8553e-05
-3.66823e-05
3.03358e-05
3.18609e-06
3.04699e-06
5.65187e-07
1.99429e-05
1.51551e-06
-2.2225e-05
-1.10557e-05
8.00926e-06
3.51198e-06
-2.63202e-07
7.94621e-07
1.55038e-05
-1.63159e-05
3.5098e-05
4.86384e-06
-2.94082e-05
-1.04132e-05
-4.45376e-06
-1.09365e-05
-7.11438e-06
3.85237e-05
-4.0762e-05
4.90041e-06
-2.99016e-06
5.92479e-06
-2.16285e-05
2.19325e-05
-6.18326e-06
2.186e-05
6.39078e-06
-1.72284e-05
-1.04708e-05
-1.33339e-05
-2.88666e-05
4.66096e-06
3.69029e-05
2.98562e-06
8.00175e-06
-1.50854e-06
-8.05883e-06
2.44444e-05
6.24155e-07
-8.81198e-07
-2.36523e-05
-2.62274e-05
3.86103e-06
2.66274e-05
-3.97111e-06
1.68694e-05
9.09856e-06
-2.92552e-05
3.69732e-06
-2.52663e-05
-1.1895e-05
2.89845e-05
8.13353e-06
-6.34697e-06
3.74397e-06
-9.39919e-06
3.77057e-06
1.3776e-05
-1.93167e-05
1.52606e-06
-2.66344e-05
-2.95389e-05
1.38656e-05
4.28964e-05
-8.82964e-06
8.49577e-06
2.46176e-07
1.5802e-05
1.19618e-05
-1.02132e-06
-2.62064e-05
1.66495e-06
-3.13894e-06
-2.57857e-05
2.69789e-05
-1.14152e-05
3.21532e-06
3.12567e-05
-2.34952e-05
1.66763e-05
-1.62031e-05
-3.63008e-06
3.62381e-06
9.72617e-06
-3.48938e-06
-6.55799e-06
4.66263e-05
-2.0501e-05
5.87368e-06
-3.21144e-05
2.59727e-05
-2.24048e-05
3.06702e-06
-6.19261e-06
3.26277e-06
6.53181e-06
-9.74031e-06
-1.15041e-05
-1.58113e-05
5.31466e-06
2.16504e-05
-2.8296e-05
-1.93071e-06
2.75629e-05
3.04501e-06
1.94208e-05
-4.94268e-05
2.97045e-06
2.69683e-05
-1.44031e-05
-1.53168e-05
2.22859e-05
7.33201e-06
-1.16356e-05
9.83795e-06
2.23272e-05
2.35501e-06
1.77702e-05
-1.96932e-05
-4.18006e-07
2.60853e-06
1.19271e-06
-2.8006e-05
2.44777e-05
-1.7402e-05
8.9758e-06
7.4157e-06
1.12145e-06
3.74899e-05
3.37355e-06
-7.16238e-07
-4.06526e-05
-3.3559e-06
-2.61692e-05
-1.44624e-06
3.10598e-05
4.05787e-06
-1.28212e-06
1.48411e-05
-1.76091e-05
-3.09776e-06
-1.93358e-06
-1.36564e-05
1.72925e-05
9.76596e-07
9.88242e-07
-2.28107e-05
2.08739e-05
-7.32348e-06
-1.93989e-05
1.48261e-06
2.49398e-05
1.66049e-06
1.40732e-05
-1.55189e-05
-1.25224e-06
4.77345e-06
2.30564e-05
-2.67565e-05
2.47389e-06
1.14477e-05
5.805e-06
-1.97575e-05
-8.05255e-07
-3.99673e-05
1.21362e-06
3.95258e-05
5.60334e-06
-1.19133e-05
-1.02262e-05
1.65786e-05
9.46691e-06
1.23026e-05
-9.29533e-06
-1.27133e-05
1.73401e-05
1.10324e-05
-2.19784e-05
-6.50624e-06
-3.42808e-06
-1.02785e-05
1.37038e-05
1.03507e-05
3.45141e-06
-9.04604e-07
-1.29793e-05
5.81805e-06
1.15669e-06
-1.27731e-06
-5.9406e-06
2.06741e-06
-2.81358e-06
3.24244e-05
-6.85511e-08
-3.26566e-05
9.70894e-06
2.33488e-05
4.29396e-05
3.22163e-06
-1.17031e-05
-3.49602e-05
-2.50861e-05
3.1853e-05
-2.79903e-06
-4.3109e-06
-7.69327e-06
5.85264e-06
-1.21726e-05
1.43906e-05
1.09527e-05
-5.38063e-07
-1.06655e-05
1.64136e-06
2.41036e-05
-4.49688e-05
1.92064e-05
1.17564e-05
-1.44291e-05
3.03517e-06
1.19653e-05
-7.50866e-06
-2.79863e-06
-2.06416e-05
1.41423e-05
-2.23905e-05
2.88531e-05
2.63194e-05
-2.11343e-05
1.98795e-06
-7.06837e-06
3.72475e-05
5.88145e-06
-4.18334e-05
-8.77812e-07
-2.31682e-06
-2.2382e-05
1.00094e-05
1.47102e-05
3.60772e-05
-6.66484e-06
2.43492e-06
3.57947e-05
-4.39789e-05
4.60399e-06
-2.52736e-05
-4.38354e-06
2.88341e-05
6.65843e-07
-1.4317e-05
-1.11853e-05
1.80333e-05
-8.59015e-06
-5.98335e-06
-1.1302e-05
2.59263e-05
4.79535e-07
-2.5153e-07
3.0626e-05
-3.05171e-05
2.29981e-06
1.86792e-05
-3.61179e-05
1.51174e-05
-3.15113e-07
5.74974e-08
3.93787e-05
-3.96216e-05
-3.20685e-05
3.24211e-06
6.53933e-06
2.1714e-05
3.25315e-05
-3.29072e-05
1.62583e-05
-1.53927e-05
1.37191e-06
2.63532e-05
-3.00907e-05
2.45667e-06
-2.39962e-05
2.93904e-05
-8.31653e-07
-4.50532e-06
-1.92262e-05
1.55576e-05
-7.89533e-07
4.08147e-06
-3.63464e-05
3.58799e-05
3.69867e-05
-3.64061e-05
1.74331e-05
-1.79098e-05
2.43489e-06
-2.03397e-06
-1.23419e-05
1.46572e-05
-1.12072e-05
8.94432e-06
-1.62586e-05
4.60421e-05
-2.79016e-07
-2.89582e-05
-2.76936e-05
2.93511e-06
3.1039e-05
-6.25189e-06
-8.04996e-06
-3.65243e-05
-1.77447e-06
4.73623e-05
4.53704e-06
-2.12188e-05
1.81852e-05
2.11963e-05
2.36532e-06
-2.52291e-05
1.92745e-06
1.01584e-05
2.37286e-05
-2.55288e-05
-8.22152e-06
-8.02622e-06
8.24911e-06
1.57118e-05
-1.61845e-05
4.08649e-07
1.08411e-05
-4.8815e-05
3.80158e-05
2.56864e-05
-3.43898e-05
1.21911e-05
-3.02572e-06
-2.2115e-05
-4.37274e-06
7.51187e-06
-2.32493e-06
-1.20625e-06
-2.99968e-05
3.32833e-05
-5.65808e-06
-2.25084e-06
7.98162e-06
-3.94284e-06
-8.50912e-06
3.24174e-05
-1.99712e-05
1.74789e-05
-1.7029e-05
1.90722e-07
1.38465e-06
-2.30848e-06
-2.40555e-05
2.52813e-05
-9.62889e-06
9.56373e-06
1.73049e-05
6.74005e-06
2.22011e-05
-1.76463e-05
-1.11878e-05
1.30079e-05
-1.62708e-05
2.9359e-06
-6.8132e-06
6.17972e-05
-3.64682e-05
-1.81078e-05
-2.86227e-05
3.05028e-05
1.74898e-05
-2.37824e-06
1.62699e-05
9.29326e-06
-2.32157e-05
-1.97725e-05
-7.43207e-06
2.42407e-05
3.11355e-06
-1.22202e-05
1.18621e-05
4.90736e-07
2.07483e-05
-1.92509e-05
-4.91932e-07
-6.13771e-07
-9.82727e-06
-6.68405e-06
8.54845e-06
8.10539e-06
-2.64943e-06
1.32243e-06
-1.16299e-05
1.30688e-05
-2.3397e-05
-3.65214e-06
2.48596e-07
2.67801e-05
-1.27434e-05
-4.08231e-06
-4.07028e-06
2.43442e-05
-4.44486e-05
-9.6652e-06
2.8913e-05
3.21464e-06
-2.00915e-05
-6.17347e-06
2.27332e-05
2.23692e-05
-2.06299e-05
-1.81563e-06
-2.07895e-05
3.05137e-05
-2.08299e-06
-7.25988e-06
-8.14462e-06
-2.02206e-05
2.52694e-05
3.1243e-06
-3.18003e-05
2.96922e-05
-4.57259e-06
6.65285e-06
-1.42278e-05
-3.44954e-06
9.15899e-06
8.58715e-06
-2.91003e-05
3.16552e-07
2.9779e-05
-3.79523e-07
-4.44695e-06
-1.35885e-06
-3.03588e-05
3.60241e-05
7.42824e-06
2.2938e-06
-9.85544e-06
-1.52727e-05
1.78363e-05
-2.79581e-06
3.79373e-05
-3.25621e-05
-4.01047e-05
3.354e-05
7.50537e-06
1.19441e-06
-8.63876e-06
-6.18717e-05
5.83176e-05
8.6312e-08
4.05457e-06
-2.03521e-05
2.39709e-05
-5.83511e-06
2.64632e-06
6.89062e-06
3.31066e-05
-2.33975e-05
-1.66419e-05
-1.95525e-05
-3.07928e-06
1.44893e-06
2.0275e-05
2.43299e-05
1.18632e-05
-1.00384e-05
-2.61527e-05
2.80663e-05
-8.02887e-06
4.10571e-06
-2.41462e-05
4.14627e-05
-1.27175e-06
-2.90654e-05
-1.14675e-05
-1.3618e-05
1.56891e-05
-1.49785e-05
1.28526e-05
-1.69988e-06
1.93274e-05
7.13637e-06
-2.44642e-05
-1.01108e-05
-6.5892e-06
2.88433e-05
-1.18627e-05
9.14615e-06
2.90775e-05
-2.89082e-05
-9.40267e-06
-2.09632e-05
1.75617e-05
1.3819e-05
-1.03802e-05
2.62577e-05
-2.61956e-05
-4.18367e-06
4.61061e-06
2.68131e-06
-2.77117e-05
-2.28707e-06
2.79616e-05
-1.25382e-05
3.22924e-05
-4.75263e-06
-1.50512e-05
-3.1668e-05
-2.30989e-05
2.44128e-05
3.00708e-05
1.22496e-05
-1.12979e-05
-1.93666e-06
1.2112e-06
7.07032e-06
-2.16979e-05
-2.36099e-05
3.86562e-05
1.01718e-05
-1.71921e-05
-5.49328e-06
1.29966e-05
-4.50868e-06
-3.7918e-05
8.59711e-06
3.3613e-05
1.69032e-05
-1.78146e-05
-7.28138e-07
1.56292e-06
3.15743e-05
-9.41345e-06
-3.22985e-05
9.686e-06
7.92348e-06
1.49871e-05
-2.9356e-05
6.1841e-06
-6.70099e-06
1.88962e-05
-1.51155e-05
2.85483e-06
-2.33879e-05
2.16114e-05
2.86018e-05
-2.6675e-05
1.26434e-06
-3.1174e-05
2.95609e-05
5.93213e-07
8.82848e-06
-1.02541e-05
2.3554e-06
2.85476e-05
-3.471e-05
-5.285e-07
-4.79504e-06
1.42729e-05
2.96569e-06
-1.22858e-05
-7.2357e-06
-4.74674e-07
-3.17031e-06
1.10336e-05
1.16805e-05
-7.47844e-07
1.54763e-05
-2.00394e-05
-6.01806e-07
5.19434e-06
-1.37962e-05
-5.64154e-06
1.77771e-05
1.5026e-05
-2.05438e-05
1.06697e-05
-5.05135e-06
-1.31065e-05
-5.09665e-06
2.01582e-05
-1.78716e-06
-3.87508e-05
-4.16144e-06
3.25729e-05
9.66545e-06
-2.77336e-05
6.77934e-06
1.06251e-06
1.99853e-05
-1.01564e-05
3.07091e-06
5.72181e-07
6.22187e-06
-1.7897e-05
-2.29576e-05
1.48255e-05
2.63233e-05
1.14833e-05
9.61164e-06
-1.64289e-05
-4.36429e-06
2.99169e-07
3.81367e-05
-3.5023e-05
-3.65131e-06
3.13535e-06
-1.10366e-05
2.00286e-05
-1.21954e-05
2.33733e-05
-1.43223e-05
-8.87368e-06
1.97844e-05
-2.28209e-05
3.73516e-06
-9.7016e-07
-4.14147e-07
-2.73262e-05
2.67119e-05
1.15348e-06
3.00474e-05
-2.12362e-06
-2.8061e-05
1.85684e-05
-2.26459e-05
5.1926e-06
-1.49658e-06
2.52076e-06
-1.76409e-05
-6.86774e-07
1.59145e-05
-6.52896e-06
5.01233e-06
-6.30057e-06
7.85464e-06
-5.80667e-06
1.35482e-05
5.23691e-06
-1.38742e-05
-1.14431e-05
-2.09237e-05
-2.76288e-06
3.5135e-05
2.04177e-05
3.93618e-06
-4.628e-05
2.21216e-05
-2.3545e-05
4.67584e-06
4.94737e-06
1.38736e-05
-7.3375e-07
-2.11605e-05
2.33843e-05
-2.74706e-05
3.5329e-05
5.87745e-06
-1.31144e-05
-3.5659e-05
3.72024e-05
-9.09076e-06
7.78332e-06
-5.14914e-06
-8.70212e-06
2.91793e-06
1.09151e-05
-1.07578e-07
2.36972e-05
-2.77267e-05
3.91018e-06
1.50988e-05
-5.29549e-05
1.35971e-05
2.39093e-05
6.04454e-06
-2.60267e-05
1.25255e-05
7.65855e-06
4.43019e-06
9.81106e-06
-4.74048e-06
-9.36102e-06
-6.78972e-06
3.16413e-06
8.26992e-06
-4.47296e-06
-1.19229e-07
1.32561e-06
-2.47241e-05
2.35279e-05
-2.45508e-06
-2.60638e-05
5.55636e-07
2.79779e-05
5.00188e-06
2.73075e-05
-1.99386e-06
-3.07429e-05
-1.09767e-06
-1.33123e-07
3.39575e-05
-3.14127e-05
-5.69675e-06
-9.24952e-06
1.55144e-05
-3.55816e-07
9.07872e-06
-4.56278e-05
1.8922e-05
1.79372e-05
2.49452e-05
5.37968e-07
2.45573e-06
-2.80592e-05
6.51514e-06
-4.85206e-06
-1.50253e-06
1.03905e-05
1.62538e-05
-2.05258e-05
-2.27233e-05
-9.19818e-07
-9.49755e-07
2.52349e-05
6.30938e-07
-1.84934e-05
7.62041e-06
1.02834e-05
3.65452e-06
1.47713e-05
-1.87354e-05
1.29509e-07
-1.28319e-05
-2.59697e-05
4.9565e-05
-1.05184e-05
2.76644e-05
-3.71167e-05
3.679e-05
-2.75093e-05
1.13476e-05
-3.70324e-06
-1.81901e-05
1.04207e-05
-2.48741e-06
-5.32125e-06
8.6894e-06
2.92235e-05
3.26314e-07
-5.02488e-06
-2.41014e-05
-1.87461e-05
3.3477e-05
9.05253e-06
5.44231e-06
-1.476e-05
1.40143e-06
-2.23574e-05
-1.93201e-06
2.28261e-05
1.01251e-06
-1.15053e-06
1.64625e-05
4.21577e-07
2.7472e-05
-4.44214e-05
1.69289e-05
-8.40935e-06
-2.63211e-05
-6.40451e-06
4.12484e-05
5.86575e-06
-8.10263e-06
9.71016e-06
-7.60328e-06
-7.218e-06
-2.39422e-05
-3.17728e-06
3.47185e-05
3.47012e-05
4.73747e-07
-3.21871e-05
-2.9993e-06
1.09877e-06
2.079e-05
-3.07176e-05
8.48879e-06
-1.61573e-06
-1.46114e-05
-9.12902e-06
2.51829e-05
-3.55014e-05
-2.08441e-05
1.80939e-05
3.78168e-05
-6.80463e-07
-3.86958e-06
-3.33867e-05
3.7752e-05
2.59345e-05
-7.90657e-06
-6.4768e-06
-1.14355e-05
-2.00548e-05
4.25881e-05
-2.32183e-05
5.50575e-07
2.47678e-05
4.78998e-08
-9.40271e-07
-2.43092e-05
3.02644e-05
-3.20326e-05
3.41399e-05
-3.26645e-05
-4.45475e-06
1.61057e-05
-1.45935e-05
2.96168e-06
1.21488e-05
-3.95632e-05
4.63774e-06
2.28784e-05
6.45935e-06
3.17992e-05
-2.85765e-05
-9.6389e-06
2.03325e-05
-2.3455e-05
-2.43748e-05
2.78035e-05
-2.25364e-05
-1.05926e-05
3.40745e-05
-1.16063e-06
3.01907e-05
-2.06227e-05
-4.29975e-05
3.31337e-05
8.56826e-06
1.39584e-05
-3.99112e-06
-1.80274e-05
-1.9836e-07
-8.58333e-06
-1.2004e-06
1.67089e-05
-1.4944e-05
-8.5791e-06
8.08352e-06
1.94135e-07
1.86583e-05
-2.60504e-05
-1.76396e-05
2.4495e-05
-5.28413e-06
5.95576e-06
-1.41123e-05
1.3053e-05
2.33684e-05
-2.01456e-05
-3.46483e-06
1.94523e-07
-1.28582e-05
2.8914e-06
6.96709e-06
-5.16866e-06
1.56166e-05
-3.73178e-06
-6.58369e-06
-5.63123e-05
2.83006e-06
1.68145e-05
3.56715e-05
6.41848e-06
-1.78098e-06
-9.04304e-06
4.50175e-06
5.00609e-06
2.31304e-05
-2.40762e-05
-3.7851e-06
-1.29031e-05
-3.28229e-06
2.58675e-05
-9.61165e-06
-1.51594e-06
1.57056e-05
1.68789e-06
-1.58495e-05
3.10779e-06
1.66127e-05
-2.13448e-05
2.83048e-05
-1.70268e-05
-1.03666e-05
-1.1044e-06
1.10676e-05
-1.7701e-05
7.68564e-06
-2.45911e-05
2.28257e-05
9.36501e-06
-7.65751e-06
6.5444e-06
9.11143e-06
1.52748e-05
-3.05656e-05
1.83514e-06
-2.89983e-05
-5.54286e-06
3.21879e-05
-6.72178e-07
1.57477e-05
3.94773e-06
-1.87466e-05
7.32174e-06
1.14131e-05
-2.15695e-05
2.77196e-06
-4.52684e-05
4.20412e-05
-3.43773e-06
2.13586e-06
2.85911e-05
-3.52958e-06
-2.75685e-05
-1.15162e-05
2.12318e-05
-2.70024e-05
1.7814e-05
-3.99262e-06
-9.84701e-06
1.7845e-06
1.24848e-05
-8.60767e-06
8.1045e-06
3.76929e-07
-2.93021e-06
-1.03883e-06
2.06562e-05
-1.66548e-05
-1.90816e-05
2.1018e-06
-6.15683e-06
2.30108e-05
3.20258e-05
-9.05209e-06
-9.01317e-06
-1.34441e-05
4.83389e-06
-3.024e-05
9.1674e-06
1.64612e-05
1.0607e-05
-9.3241e-06
-3.95758e-06
2.24188e-06
-8.86187e-06
1.06739e-05
-1.54139e-06
2.35999e-06
2.46985e-05
-1.31087e-06
-2.54705e-05
-5.20286e-06
1.87351e-05
-2.20457e-05
8.79047e-06
6.7302e-06
1.39277e-05
-3.15481e-05
1.09618e-05
-5.55759e-06
1.88975e-05
1.86657e-05
-3.21039e-05
-3.49066e-05
1.60198e-05
2.26425e-05
-3.76813e-06
2.36442e-05
-2.14877e-05
4.56786e-06
-6.56283e-06
-2.46861e-05
-1.27292e-07
-1.00612e-05
-4.46562e-07
1.62005e-05
-1.58406e-05
2.58741e-05
6.09291e-06
-2.55369e-05
-7.1841e-06
-4.85182e-06
-4.5488e-06
2.66485e-05
-1.72479e-05
2.68182e-06
4.03023e-08
1.39432e-05
-1.61074e-05
-2.20955e-05
1.02547e-05
1.06138e-05
1.17993e-06
1.99123e-05
-2.39705e-05
-7.93127e-06
1.1325e-05
-1.77449e-05
5.85428e-06
2.74568e-05
-1.55215e-05
-1.23644e-05
2.83107e-06
8.75053e-06
-8.07647e-06
2.44111e-05
1.60461e-05
-3.24855e-05
2.00703e-05
-1.61394e-06
-3.14902e-05
1.30737e-05
-3.93052e-06
2.04197e-05
-5.04586e-07
-1.59764e-05
2.65729e-05
-2.61346e-05
1.68431e-05
-1.64605e-05
-1.23053e-06
-1.38606e-05
1.58173e-05
-6.76378e-07
-1.14406e-05
-2.93627e-06
-7.39354e-06
2.23473e-05
-5.73595e-06
-7.11717e-06
-1.22366e-05
2.57652e-05
2.83698e-08
2.13958e-05
-4.81944e-06
-1.6523e-05
2.76484e-05
-3.0696e-05
-3.82959e-07
3.48851e-06
2.66269e-05
-2.50074e-07
-1.71989e-05
-9.0169e-06
-7.91946e-06
-4.92912e-06
-1.45793e-05
2.72764e-05
-2.48493e-06
-8.0654e-06
1.01894e-05
-1.8427e-05
2.69429e-05
-3.86913e-06
-4.53166e-06
1.54781e-06
1.98143e-05
4.8266e-06
-2.66593e-05
-7.88948e-06
2.29051e-05
1.11512e-05
-2.67314e-05
-1.97262e-05
-1.95709e-06
2.04527e-05
1.81231e-06
1.05553e-05
1.29162e-05
-3.38794e-05
1.04499e-05
1.09353e-05
-8.13983e-06
2.99458e-05
-3.24694e-05
-5.48286e-06
2.71768e-05
1.65985e-06
-2.32508e-05
8.53916e-06
-9.46077e-06
9.10219e-07
1.02387e-06
2.41015e-05
4.53871e-07
-2.56169e-05
3.07889e-05
-6.93213e-06
-2.35484e-05
-1.40314e-07
-2.67602e-06
4.07386e-06
-2.13889e-05
2.05354e-05
-2.53123e-05
-6.13575e-06
2.35307e-05
8.52386e-06
2.55845e-05
-2.84696e-05
1.8637e-06
7.01884e-07
-3.56176e-05
2.12925e-05
-3.77571e-07
1.48206e-05
-1.14353e-05
1.03932e-05
1.18373e-06
8.66516e-06
-1.00427e-05
1.06892e-05
-9.6191e-06
2.01543e-05
1.30328e-05
-5.47237e-06
1.12388e-05
-2.54028e-05
-9.61891e-06
2.33285e-05
-2.58892e-07
-3.49928e-05
3.29381e-05
2.0335e-06
7.26697e-06
-1.76807e-05
-1.44107e-05
2.5222e-05
1.92373e-05
6.0164e-06
-5.12228e-06
-2.00109e-05
-8.87358e-06
3.77411e-06
1.12698e-05
-6.08589e-06
-5.64422e-06
3.52425e-05
-1.24329e-05
-1.79826e-05
5.30216e-06
8.44501e-06
3.78029e-06
-1.73072e-05
-2.99552e-06
7.35042e-06
-4.24587e-06
1.92597e-06
4.02058e-06
1.78457e-05
-2.35464e-05
2.00395e-05
3.18164e-06
-8.49947e-06
-1.45771e-05
-5.47305e-07
1.21345e-05
-1.21959e-05
4.3301e-07
2.97497e-05
2.79346e-06
-3.55702e-05
3.53494e-06
-1.37612e-05
-2.85582e-05
7.83972e-06
3.50157e-05
-4.33648e-06
2.00718e-05
7.42104e-07
-1.66052e-05
1.64359e-05
-2.00106e-06
-1.78198e-05
3.48048e-06
-6.10985e-06
9.06973e-06
-2.88075e-06
5.23696e-06
-3.37922e-05
2.93562e-05
-8.62565e-07
8.85577e-07
2.82106e-05
-2.55082e-05
-3.5924e-06
9.16671e-06
1.19352e-05
4.51743e-07
-2.16396e-05
1.10949e-05
1.58043e-05
-1.0579e-05
1.54201e-07
1.18561e-05
-1.24507e-05
-2.97923e-05
1.27552e-05
2.87174e-05
-1.20564e-05
2.44427e-05
7.16784e-06
-2.80321e-05
-3.7623e-06
1.71748e-05
-1.10292e-05
-1.76807e-05
1.25634e-05
1.01228e-05
-2.28974e-05
-8.13663e-07
-5.53507e-06
2.93599e-05
4.30508e-06
9.03141e-06
-1.36662e-05
2.14505e-05
3.0593e-06
-2.99539e-06
-2.17011e-05
9.91246e-06
-1.38975e-05
4.29582e-06
-3.28465e-05
6.65872e-06
-8.43458e-06
3.48837e-05
-1.59466e-05
-8.38877e-06
1.10241e-05
1.34588e-05
4.50399e-05
-3.44569e-05
-7.52496e-06
-2.82295e-06
-1.64381e-08
6.14451e-06
-6.6748e-06
1.87687e-07
-1.06611e-05
-1.51304e-07
1.08985e-05
2.16286e-05
2.73884e-06
-1.0984e-05
-1.35046e-05
-3.07074e-05
3.2138e-05
-1.30382e-06
1.57657e-08
3.23218e-05
-3.77872e-06
-2.85638e-05
-1.79908e-05
-1.03897e-07
2.14769e-05
-3.82046e-06
4.98e-06
-3.50844e-05
2.43146e-05
5.70382e-06
7.1434e-06
-1.61902e-05
9.47494e-06
-4.08285e-07
3.33031e-06
1.15293e-05
9.42997e-07
-1.57463e-05
2.14382e-05
-1.87333e-05
-2.84107e-06
2.41353e-05
-1.84819e-05
-4.51532e-05
3.88862e-05
5.42316e-07
3.22646e-07
2.28035e-05
-2.34069e-05
7.75938e-07
1.20862e-05
-1.1432e-05
-1.44974e-06
2.28064e-05
-1.06045e-06
-1.10677e-06
-2.07006e-05
5.10908e-06
1.37072e-05
-1.89048e-05
3.66201e-07
3.2418e-05
-4.29833e-06
7.55505e-07
-2.8886e-05
-2.09923e-05
7.96568e-06
-3.41186e-07
1.30026e-05
-5.38406e-06
-4.02406e-06
-1.64565e-06
2.45143e-05
-3.7584e-05
3.16728e-05
-1.91891e-05
-2.09126e-06
-1.18994e-05
-1.96736e-05
3.35123e-05
-6.79005e-06
1.13518e-05
-1.7373e-06
-2.9425e-06
7.21517e-08
8.08879e-06
-8.38295e-06
-9.07876e-06
3.34529e-05
1.15325e-05
-3.6331e-05
2.01366e-05
7.80342e-06
-7.16071e-06
-2.04037e-05
2.07193e-05
-1.87173e-05
2.77068e-05
-2.95492e-05
3.43936e-05
-3.82713e-05
5.93677e-06
-2.04138e-06
-4.03472e-05
1.66168e-05
7.40235e-06
1.61771e-05
-3.7693e-05
-8.46949e-08
3.81344e-05
-2.58465e-07
2.43491e-05
-3.04058e-05
8.00378e-06
-1.95829e-06
2.21676e-05
-3.13365e-05
9.30479e-06
-1.55497e-07
-1.00537e-05
7.92378e-06
-3.44672e-06
-1.81715e-05
4.81471e-05
5.99734e-06
-3.5201e-05
-1.09895e-05
-1.79231e-06
1.24351e-05
-3.14998e-06
5.04412e-06
-3.02734e-05
-4.55596e-05
-5.03966e-06
2.38914e-06
4.79365e-05
1.07527e-05
2.56854e-06
-1.27667e-05
7.94583e-06
-2.41908e-06
-2.22498e-05
1.69032e-05
-1.08651e-06
3.50803e-06
2.21077e-05
-2.47596e-05
8.12909e-06
1.10693e-05
-2.02894e-05
1.30465e-06
1.3536e-05
3.4488e-06
-1.12172e-06
-1.62469e-05
-4.27537e-06
1.67514e-06
3.9347e-05
-3.6583e-05
-2.26036e-05
-7.7392e-06
2.46857e-06
2.80622e-05
-6.66083e-06
4.68362e-06
-1.82379e-05
1.99608e-05
-2.80209e-06
3.24081e-05
-2.97044e-05
2.16943e-07
2.51518e-05
6.9355e-06
-1.06226e-05
-2.11195e-05
9.24451e-08
-2.58842e-05
2.28394e-05
-2.64924e-05
2.92896e-05
2.17268e-06
9.566e-06
-2.68243e-06
1.34868e-05
-3.79957e-05
-1.12871e-05
1.99281e-05
2.93437e-05
-1.54289e-05
-5.0177e-08
1.47612e-05
6.4128e-07
-5.72705e-06
1.75157e-05
-1.32949e-05
1.14233e-06
-2.2198e-05
2.0028e-05
2.13493e-05
-1.9202e-05
-1.01395e-05
9.65484e-06
2.82302e-07
2.71983e-07
2.53036e-05
-3.53133e-05
-1.54156e-05
2.4909e-05
-2.70213e-05
-1.42139e-05
2.11045e-05
2.00602e-05
2.79969e-05
3.7017e-06
2.28858e-06
-3.42129e-05
2.57681e-05
-1.3084e-05
1.52281e-05
-3.98077e-05
-4.95353e-06
1.62348e-05
2.89356e-05
9.37361e-06
-1.94645e-06
-7.27214e-06
2.32365e-05
-2.17393e-05
-9.46893e-06
7.89239e-06
-2.4303e-05
-7.76469e-06
7.75646e-06
2.38119e-05
9.73263e-06
1.41498e-05
-9.60837e-06
-1.43609e-05
6.97257e-06
2.79077e-05
-2.82313e-05
-6.44992e-06
2.71167e-07
-1.93334e-05
1.92029e-05
-1.04838e-05
-7.42292e-06
8.60152e-06
9.05457e-06
3.13938e-06
2.15059e-05
-5.09901e-06
-1.98912e-05
-3.21119e-05
2.99488e-05
-6.29558e-06
-4.09242e-06
2.28818e-05
-1.97314e-05
1.04602e-06
1.91021e-05
3.0495e-06
7.9502e-06
-2.97984e-05
1.12827e-06
-6.93561e-06
6.05078e-06
-7.20098e-06
6.80084e-06
1.75306e-08
-1.42231e-05
-6.57909e-06
7.58843e-06
1.33567e-05
-1.29414e-05
-4.37897e-06
2.40482e-05
-6.9261e-06
-7.64345e-06
1.98384e-05
-2.15886e-05
9.36164e-06
-1.58392e-05
1.39516e-05
-5.09134e-06
7.11929e-06
-2.92913e-06
2.6567e-05
-2.47254e-05
7.63365e-07
-2.07184e-05
4.30053e-06
1.49587e-05
1.43029e-06
2.73655e-06
3.36812e-05
-1.41202e-05
-2.2694e-05
6.69137e-06
-9.11494e-06
-1.18767e-05
-6.16988e-06
3.79191e-06
1.13047e-05
-2.07263e-06
6.18049e-06
-1.54623e-05
-6.74895e-06
-1.53646e-05
1.70402e-05
4.2629e-06
2.60206e-05
-4.11235e-06
-2.19589e-05
-1.56808e-07
5.6775e-06
-3.14e-05
3.77343e-05
-1.16721e-05
-1.51579e-05
2.4264e-05
7.41278e-07
-9.59615e-06
-5.65767e-06
1.62145e-06
2.47471e-05
-2.09733e-05
-3.98156e-05
2.90365e-06
2.45024e-06
3.51202e-05
-2.11867e-05
2.80986e-06
1.50045e-05
3.45221e-06
-1.58654e-05
9.21519e-06
2.06217e-05
-1.37538e-05
-1.91121e-05
-3.48108e-05
1.18735e-05
4.24673e-05
1.02433e-05
-2.82114e-05
-3.57764e-06
2.17591e-05
-1.96077e-05
4.27922e-06
-1.98576e-06
1.72249e-05
-2.08652e-05
3.2581e-08
4.92915e-07
2.00521e-05
3.59521e-07
-4.67255e-06
2.42732e-05
-1.96671e-05
1.96237e-05
-1.08764e-05
2.19311e-07
-8.83025e-06
4.62931e-06
-3.63142e-05
-1.02099e-05
4.18297e-05
-9.97266e-06
9.14732e-06
1.47476e-06
-8.83305e-07
-3.46884e-05
-9.40886e-06
1.71592e-05
2.70788e-05
-5.26959e-06
3.28123e-05
-2.37208e-07
-2.7298e-05
-8.6946e-06
-9.92087e-06
6.18988e-06
-7.65896e-06
5.30417e-06
2.95835e-05
-2.69307e-05
2.70417e-05