/*--------------------------------*- C++ -*----------------------------------*\
| =========                 |                                                 |
| \\      /  F ield         | OpenFOAM: The Open Source CFD Toolbox           |
|  \\    /   O peration     | Version:  2406                                  |
|   \\  /    A nd           | Website:  www.openfoam.com                      |
|    \\/     M anipulation  |                                                 |
\*---------------------------------------------------------------------------*/
FoamFile
{
    version     2.0;
    format      ascii;
    arch        "LSB;label=32;scalar=64";
    class       volVectorField;
    location    "2";
    object      U;
}
// * * * * * * * * * * * * * * * * * * * * * * * * * * * * * * * * * * * * * //

dimensions      [0 1 -1 0 0 0 0];

internalField   nonuniform List<vector> 
59516
(
(0.165621 -0.0120447 -0.0123512)
(0.155404 0.00928095 -0.0161621)
(0.132543 0.00187755 0.000224283)
(0.143691 0.00919388 -0.000678873)
(0.143376 0.00196751 0.00036461)
(0.111801 -0.0213053 -0.045257)
(0.155859 0.00832027 -0.00227086)
(0.174192 0.00689372 0.01606)
(0.151336 0.0100727 -0.00390881)
(0.147614 0.00865252 -0.0136612)
(0.127267 0.00683315 -0.00326274)
(0.17663 0.00845263 -0.00456077)
(0.20542 -0.00311518 0.00294537)
(0.0937032 -0.00585025 0.000969909)
(0.19386 -0.014088 -0.0119505)
(0.16538 -0.0196415 -0.0110548)
(0.147189 0.00228794 0.000184294)
(0.181581 -0.00572278 -0.0117018)
(0.177773 -0.0128948 -0.0038326)
(0.161985 -0.000786399 -0.00358695)
(0.193059 -6.64853e-05 -0.00761809)
(0.155761 -0.00583647 0.0117222)
(0.17142 0.00565015 -0.000724594)
(0.150497 0.000906511 -0.0178912)
(0.165476 -0.00669734 -0.00415586)
(0.193831 0.00567842 -0.0130128)
(0.155931 0.00956582 -0.00350156)
(0.162684 -0.0124118 0.0200862)
(0.188024 -0.00153598 -0.0153747)
(0.0928655 0.00591325 -0.000786527)
(0.152955 -0.00784108 -0.00404334)
(0.161358 -0.0196362 -0.0196791)
(0.141314 -0.0132513 0.00308656)
(0.14955 0.0172083 -0.00795288)
(0.132394 -0.00941766 -0.011478)
(0.169693 -0.00395198 -0.00520244)
(0.0893286 -0.00612565 0.020012)
(0.166336 0.00823245 0.00109232)
(0.182334 -0.00184751 0.00310736)
(0.171193 -0.0107373 0.013473)
(0.166037 0.00272155 0.00109536)
(0.167309 0.00564905 -0.00839345)
(0.16662 0.00306483 0.0202683)
(0.146458 0.00174533 -0.0168879)
(0.159626 0.00375226 -0.00015465)
(0.166784 0.0205362 0.015824)
(0.175476 0.0018881 -0.0191247)
(0.156667 0.00477849 0.00195098)
(0.16354 0.00711075 0.00503497)
(0.139998 -0.000876978 0.00316828)
(0.113212 0.0084341 -0.00936175)
(0.170809 0.00342145 -0.0089048)
(0.180377 0.004485 0.00455936)
(0.177262 0.000765655 -0.00378295)
(0.171258 -0.0133918 -0.0124178)
(0.178717 -0.0154906 0.00289654)
(0.133729 0.00723047 0.00803488)
(0.185492 0.00319656 0.0295805)
(0.129467 -0.0067181 0.00413892)
(0.131857 0.00330534 -0.00383932)
(0.155621 0.00831743 -0.0108675)
(0.110175 0.00570792 -0.00599504)
(0.136548 -0.0101439 -0.00953965)
(0.143049 -0.00844931 -0.0049521)
(0.174733 -0.0100808 -0.00330056)
(0.133552 0.00328135 0.00107998)
(0.12375 -0.00097471 -0.00187957)
(0.172446 -0.000482598 -0.0130103)
(0.149323 0.00409453 0.0120696)
(0.145974 0.00518104 0.0023566)
(0.164802 -0.00812751 0.00810971)
(0.128123 0.00479243 -0.000743616)
(0.115822 -0.00130779 0.0100991)
(0.144382 0.000191188 0.00162509)
(0.149678 0.00270301 0.00597542)
(0.16482 -0.00469518 0.000906533)
(0.151068 -0.00075719 0.0111691)
(0.137367 -0.00660562 -0.00434427)
(0.169773 0.00759839 -0.0239448)
(0.12384 0.00124837 0.00691016)
(0.156149 -0.00969074 -0.0265666)
(0.125482 -0.0105688 -0.00646261)
(0.147164 -0.00407022 -0.00314938)
(0.104917 0.0101933 -0.0166105)
(0.137582 -0.0132169 -0.00231478)
(0.142992 -0.00283533 -0.000448243)
(0.127085 0.0226424 0.000363565)
(0.169033 -0.0011107 -0.0055517)
(0.166692 -0.00498697 -0.0104018)
(0.163939 0.0131548 -0.00271508)
(0.137312 0.0101649 -0.00468306)
(0.132629 -0.00228185 0.0073382)
(0.150628 -0.00308147 0.00259499)
(0.122368 0.000145836 0.000265713)
(0.128216 -0.0120381 0.00245886)
(0.143208 -0.00611394 -0.00156748)
(0.127039 -0.00958325 0.00042555)
(0.188739 0.0148216 0.0135762)
(0.1628 -0.00250273 -0.00196998)
(0.137356 0.00612527 -0.00794668)
(0.166729 -0.00361488 0.000221359)
(0.129509 0.00304619 -5.21907e-05)
(0.122007 -0.00193959 -0.0124818)
(0.16853 0.0104824 0.000537708)
(0.159689 -0.000425618 -0.00443409)
(0.119872 -0.000932648 -0.000725493)
(0.153203 -0.0201541 -0.00750447)
(0.123674 -0.00664145 -0.0059211)
(0.158632 -0.00353044 0.00850605)
(0.211251 -0.00510959 0.00339741)
(0.136509 0.000160119 -0.00768937)
(0.162959 -0.0166876 0.00664455)
(0.188968 0.00702562 -0.00702292)
(0.158661 0.00532155 -0.00224493)
(0.157675 -0.00535319 0.00394108)
(0.148637 0.00206617 0.0117646)
(0.167035 -0.00380842 0.0181438)
(0.147618 0.0122601 -0.00520945)
(0.123214 -0.00188571 0.00560127)
(0.146145 0.00461732 0.01551)
(0.152838 -0.003609 0.00858274)
(0.135737 -0.000721763 -0.00500898)
(0.141581 -0.0070028 7.07053e-05)
(0.128214 0.00157878 0.00862442)
(0.13394 0.00172118 0.00230106)
(0.150921 -0.00119288 -0.0101511)
(0.143131 -0.0115663 -0.0179662)
(0.149209 0.0115784 0.0165179)
(0.174663 0.00891524 0.00974498)
(0.121929 0.0145188 0.00175296)
(0.148237 0.0164626 -0.000148983)
(0.17019 0.00862715 0.0131102)
(0.119493 0.00338044 0.00994007)
(0.155845 -0.00242884 0.000267786)
(0.194477 -0.00150162 0.00362247)
(0.141039 -0.0053885 -0.00751925)
(0.161125 -0.00170369 -0.00115432)
(0.176435 -0.00678307 0.00316231)
(0.167503 0.0025583 -0.00462276)
(0.156907 0.00458856 0.0138498)
(0.182643 0.00477264 0.0022407)
(0.136161 0.00120288 -0.00588698)
(0.108795 0.00447717 0.00525585)
(0.127985 0.00187087 0.00289586)
(0.140601 0.00652557 -0.00372956)
(0.140384 0.00595664 -0.00826768)
(0.157006 0.00352333 0.00789962)
(0.158897 -0.00386621 -0.00499646)
(0.117971 0.00781607 0.00245446)
(0.150349 -0.00257363 0.00277031)
(0.18915 0.00242809 -0.00780072)
(0.143301 0.0149071 0.00645893)
(0.169559 0.0060254 0.0100139)
(0.148887 -0.00242499 -0.00236595)
(0.17197 0.00190384 -0.00597052)
(0.0975804 -6.88034e-05 -0.00444643)
(0.158512 -0.000389767 0.0162861)
(0.169944 0.00311848 -0.000548574)
(0.165271 0.00988581 -0.00443904)
(0.0980156 0.000361694 0.0104502)
(0.157614 -0.01162 -0.000207307)
(0.179092 0.0185061 -0.00924778)
(0.143781 0.0194905 0.00724911)
(0.115004 0.00860552 0.00334496)
(0.191179 0.00434183 0.00788548)
(0.167184 0.00572527 0.0093645)
(0.195402 0.0131358 -0.00250739)
(0.141198 0.0115253 0.00105896)
(0.11211 -0.00356273 -0.0128401)
(0.12955 0.0100142 0.00539742)
(0.145287 -0.00485299 0.0178346)
(0.167267 0.00558154 -0.0020958)
(0.167846 -0.00652857 -0.00878482)
(0.125197 0.00106521 0.0102912)
(0.168348 8.60253e-05 -0.00125479)
(0.1803 0.00553048 -0.00699462)
(0.145134 0.00715842 0.00446382)
(0.162257 0.00166243 0.0196028)
(0.201497 0.0140873 0.0148861)
(0.169471 0.00266395 -0.00930793)
(0.158763 -0.002481 0.00524637)
(0.153325 0.00950361 -0.00768633)
(0.132255 0.0137055 0.00489583)
(0.166804 -0.00410487 0.00556613)
(0.137486 0.00257316 0.00143175)
(0.158153 -0.00280379 0.00957917)
(0.155294 -0.00124184 0.00790911)
(0.128568 0.0117975 0.000916941)
(0.140221 -0.00256173 0.00638484)
(0.169614 -0.0130354 -0.00589619)
(0.156667 -0.0113146 0.00889521)
(0.185791 -0.00449857 -0.00142121)
(0.154411 -0.0065385 0.00805891)
(0.160334 -0.00333616 0.00202533)
(0.160883 -0.000792089 0.00684855)
(0.128865 -0.00494454 -0.0151689)
(0.168975 0.00185986 0.00439791)
(0.157169 0.000156898 0.0129358)
(0.149733 -0.00217074 0.0102173)
(0.164331 0.00185862 -0.00116842)
(0.14986 -0.0112434 0.0124896)
(0.125133 -0.00174849 -0.00525083)
(0.18094 -0.000413577 0.00283085)
(0.118097 -0.0107975 0.00427763)
(0.139592 0.00709972 -0.00266573)
(0.161935 -0.0186948 -0.00287809)
(0.151906 -0.00462928 0.0060217)
(0.130364 0.00171435 -0.00107592)
(0.113049 -0.00236721 -0.00154399)
(0.187593 0.000971372 -0.0125331)
(0.155526 -0.00578048 -0.00172521)
(0.115543 0.0197114 -0.00982698)
(0.155261 0.00132211 -0.00244697)
(0.175455 -0.00332873 -0.0111822)
(0.169102 -0.00314701 0.00928306)
(0.142791 0.000870115 -0.00201895)
(0.15994 0.00210276 -0.00734068)
(0.137168 -0.00338766 0.000869601)
(0.173176 0.00424857 0.00621193)
(0.146275 0.00155737 0.00797725)
(0.189229 -0.00455067 -0.00834142)
(0.160084 -0.00594681 -0.0105462)
(0.124228 0.00738851 0.0016591)
(0.191083 0.0108261 0.00830546)
(0.144946 -0.0042487 -0.00345883)
(0.137281 0.000279951 0.00676567)
(0.140063 0.00128003 0.00937306)
(0.165556 -0.0156898 0.00824966)
(0.132086 -0.00757295 0.01187)
(0.200797 -0.00818073 0.00640669)
(0.145299 -0.00333603 -0.0055623)
(0.134365 0.00770541 -0.00779171)
(0.154873 0.0122012 7.36634e-05)
(0.142424 0.0106509 0.00148898)
(0.142028 -0.0124391 0.0113612)
(0.144287 -0.0143588 0.00430281)
(0.169818 0.00021192 -0.00216397)
(0.157624 0.00209808 -0.011324)
(0.151501 0.00815809 -0.00279237)
(0.170578 0.0147169 -0.00649244)
(0.133574 -0.000926976 0.00404622)
(0.111281 -0.0128511 -0.0150127)
(0.174465 0.00367761 0.00442811)
(0.135733 -0.00984175 0.00490385)
(0.115779 0.0156023 0.00189712)
(0.174807 0.0167301 0.0105674)
(0.155116 -0.00628612 0.0080366)
(0.197616 -0.00225752 0.0150124)
(0.149381 -0.00999256 0.00457665)
(0.161192 -0.00340945 -0.00746455)
(0.173979 -0.0184181 0.00420445)
(0.149639 -0.00277311 -0.00284886)
(0.130925 0.0105986 0.0117286)
(0.146235 0.00591363 -0.00227939)
(0.151376 0.0100846 0.00839781)
(0.155725 -0.00428028 0.00649058)
(0.187366 -0.000476375 0.00991929)
(0.147534 0.00442584 -0.00816959)
(0.174944 0.00107412 0.00669129)
(0.16979 -0.0246371 -0.00600744)
(0.160136 0.00992744 -0.00574138)
(0.134175 0.00916438 0.00639327)
(0.174499 0.0190927 -0.00983688)
(0.140637 -0.0024574 0.00219073)
(0.138451 -0.0107464 0.01608)
(0.191155 0.00816213 0.0105836)
(0.155889 -0.00617593 -0.0182947)
(0.172524 0.0183831 0.000855869)
(0.175744 -0.00546289 0.0163563)
(0.164555 0.000420325 -0.0093756)
(0.154993 -0.0101767 -0.00131315)
(0.139952 -0.000547418 0.0035374)
(0.198394 -0.00281399 0.00660219)
(0.164072 -0.00716326 -0.016377)
(0.145907 -0.00289034 -0.000498635)
(0.174041 -0.0063426 0.0105238)
(0.110727 -0.0120364 0.00976257)
(0.151445 -0.00713392 -0.000682335)
(0.139894 -0.0166923 0.0151513)
(0.162118 0.00506288 -0.0162313)
(0.144423 -2.49246e-07 -0.00123332)
(0.145209 0.00190083 -0.00376741)
(0.13243 0.00729677 -0.00478975)
(0.163557 0.00937313 0.0169759)
(0.17413 0.00129066 0.00123723)
(0.136486 0.0107029 -2.03445e-05)
(0.146642 -0.0114353 -0.00976808)
(0.138049 -0.00905354 -0.00808731)
(0.130711 0.000650149 0.0023083)
(0.110833 -9.85588e-05 -0.00253472)
(0.122638 -0.000764677 0.00429499)
(0.154206 -0.00365001 -0.00061392)
(0.121263 -0.00247063 0.00481548)
(0.165913 0.0123155 -0.0126489)
(0.142663 -0.00405397 0.0012003)
(0.155333 0.000293469 0.011975)
(0.143668 -0.00229298 -0.00128103)
(0.155827 0.0116965 -0.000926347)
(0.146954 -0.00646825 -5.41774e-05)
(0.127317 0.000775832 0.00196187)
(0.157186 -0.00288118 0.0100379)
(0.17657 0.00405099 -0.00210431)
(0.121328 -0.00934187 0.0034496)
(0.15132 0.00938904 -0.00271004)
(0.19104 -0.00747433 0.00144102)
(0.103449 0.000435843 -0.0149839)
(0.215436 0.00408197 0.016436)
(0.165289 -0.0195686 0.00244837)
(0.159462 0.0128014 0.00721362)
(0.158951 -0.00975458 -0.00557331)
(0.167462 0.00193986 -0.00402965)
(0.17267 -0.0109053 0.00595649)
(0.165045 -0.00273796 0.00362591)
(0.180819 -0.000998954 0.00617907)
(0.162705 0.00901192 -0.015921)
(0.131802 -0.00773157 0.00158569)
(0.170503 -0.00211766 0.00125514)
(0.129643 0.0100785 0.00128973)
(0.151489 -0.0029688 0.00973177)
(0.173831 0.00753762 0.0012126)
(0.180888 0.0124589 0.00136203)
(0.181377 -0.0105213 -0.00706221)
(0.135214 -0.00249608 -0.00342885)
(0.175951 0.00437211 0.0114928)
(0.152062 -0.0024244 0.0110422)
(0.159085 0.00743996 -0.00642912)
(0.153787 -0.0158317 -0.00519324)
(0.147458 -0.00723899 0.00272216)
(0.139572 0.00745919 0.000618089)
(0.133265 0.00321803 0.00752288)
(0.170279 -0.00284448 0.00853496)
(0.172176 1.42275e-05 0.0137512)
(0.119414 0.00644102 -0.00230017)
(0.14766 0.000798127 0.00780338)
(0.166708 -0.0021273 0.000885204)
(0.140141 -0.0177443 0.0116507)
(0.150164 0.00800577 -0.00459108)
(0.131366 -0.012398 -0.00637524)
(0.158479 -0.0132429 -0.00428211)
(0.148202 0.000186143 2.52262e-05)
(0.139909 0.0109544 0.00507417)
(0.144937 -0.00374202 0.00123822)
(0.144239 -0.00337325 -0.00664112)
(0.139515 -0.00876762 -0.00650393)
(0.164595 -0.00908126 -0.00251913)
(0.129728 0.00336005 0.00537719)
(0.200368 -0.00146094 0.00401491)
(0.135714 -0.00794498 0.00889398)
(0.131371 -0.00755948 0.0147139)
(0.146862 -0.00481914 -0.00777632)
(0.143689 -0.000646233 0.00744451)
(0.142269 -0.00503873 0.00262807)
(0.139324 0.0123957 0.00244456)
(0.13002 0.0100538 -0.00227576)
(0.142753 0.0169783 -0.0190815)
(0.142794 0.0148435 0.00229196)
(0.176864 -0.00946003 0.00116463)
(0.192671 -0.00841331 0.00702606)
(0.180148 -0.010103 -0.0179962)
(0.154659 0.00600274 0.00665071)
(0.160669 -0.00888146 0.00111665)
(0.16555 -0.0159337 0.00861573)
(0.118566 0.00171555 -0.000949833)
(0.164519 -0.00993019 0.00333329)
(0.172991 -0.00851413 0.00697922)
(0.134234 0.00387042 -0.00144941)
(0.118076 0.00206557 0.000475073)
(0.133481 -0.0129684 -0.00215531)
(0.157637 -0.0144334 -0.00943454)
(0.181424 0.0184136 -0.00896343)
(0.159207 -0.00386314 0.016345)
(0.180255 -0.027419 0.00132181)
(0.123101 -0.0062729 0.00125526)
(0.17873 -0.00524234 -0.00117532)
(0.160471 -0.000564749 -0.0128755)
(0.118051 -0.0108352 0.0148974)
(0.150649 -0.0154229 -0.00813917)
(0.168788 -0.00923863 -0.00543995)
(0.130242 -0.00944628 0.00771451)
(0.15125 0.0103813 -0.000584784)
(0.175324 0.0082747 -0.0190654)
(0.190346 0.00475083 -0.00478184)
(0.144091 0.00459752 -0.0122065)
(0.106021 -0.00701039 -0.00127868)
(0.180726 0.0142111 -0.00299197)
(0.140803 -0.0118568 -0.00271108)
(0.117685 0.00209262 -0.00541761)
(0.14549 -0.0134013 0.011074)
(0.139325 -0.00818234 0.00716815)
(0.160227 0.00195423 -0.00411851)
(0.166981 0.00925529 -0.0171602)
(0.128684 0.00361412 -0.00718409)
(0.151425 -0.0147981 -0.0121712)
(0.174984 -0.000864975 0.00954412)
(0.148887 0.00598452 0.00667162)
(0.15444 -0.00207876 -0.00787632)
(0.193396 -0.027729 -0.0155717)
(0.195682 0.0031001 -0.00708085)
(0.139152 -0.00454839 -0.00383868)
(0.162642 -0.00724881 0.000425846)
(0.165522 -0.00986292 0.00625539)
(0.177117 -0.00706286 -0.00455784)
(0.14533 -0.00351706 -0.00422426)
(0.152499 -0.00595549 0.00117177)
(0.163037 -0.00173522 -0.00398138)
(0.194791 0.00105252 -0.00588048)
(0.156346 -0.000410067 -0.000631562)
(0.171489 -0.0102612 0.00133461)
(0.146368 -0.00411276 -0.000120608)
(0.15475 -0.000435486 -0.00278179)
(0.129332 -0.00509689 0.01894)
(0.108448 -0.00678638 0.0149226)
(0.154421 -0.00205159 -0.00843377)
(0.138884 -0.00028441 -0.0100313)
(0.142674 -0.00560263 0.000640691)
(0.140259 -0.0114717 0.007535)
(0.114 -0.000581533 -0.00337094)
(0.199482 0.00649362 -0.00876772)
(0.110193 0.00612167 0.0061069)
(0.147797 0.00631949 -0.0101753)
(0.14444 -0.00817732 -0.0189036)
(0.130088 -0.00933665 0.00641973)
(0.136934 -0.00450131 0.00922727)
(0.145377 0.00111906 0.0124997)
(0.142943 0.0090385 0.00100248)
(0.167101 -0.00939169 -0.00457119)
(0.141811 -0.00149921 -0.00532496)
(0.16533 -0.00397402 -0.0106208)
(0.138305 0.00154871 0.0144042)
(0.13879 -0.00415915 -0.0044382)
(0.169452 0.010468 -0.00198394)
(0.147104 -0.0034706 -0.000148527)
(0.174776 -0.00616619 0.0074783)
(0.158549 -0.00920023 -0.0224705)
(0.116731 -0.0112361 0.00553397)
(0.12621 0.00709654 -0.00330957)
(0.149218 -0.00211558 -0.00998291)
(0.150131 0.00466791 0.0143215)
(0.140773 0.000600655 0.0218849)
(0.128335 -0.023973 -0.00932756)
(0.121455 -0.00547454 0.0112585)
(0.150771 0.00434222 -0.00788426)
(0.148767 0.0144726 0.00540231)
(0.150364 -0.000740456 0.00846685)
(0.16706 -8.68885e-05 -0.000868061)
(0.15983 -0.0031057 -0.000574831)
(0.141033 -0.000536833 -0.00586406)
(0.158302 -0.0044253 0.000731006)
(0.138963 -0.00891687 -0.00500521)
(0.147359 -0.00694659 -0.0134979)
(0.165724 -0.000609229 -0.0121197)
(0.167026 -0.00764092 0.000501817)
(0.145487 -0.000658667 -0.00328564)
(0.168845 0.0169371 -0.011387)
(0.166659 0.00231962 -0.000937155)
(0.122413 -0.00183579 0.0210733)
(0.172552 0.0132841 -0.00480835)
(0.14141 -0.00988704 0.00651864)
(0.138118 0.00651488 0.00884857)
(0.162903 -0.00295867 -0.00632098)
(0.124985 0.000792678 0.00911161)
(0.13358 0.00332953 0.00592709)
(0.147171 -0.00228222 -0.00877539)
(0.141407 -0.00242056 -0.00143924)
(0.152762 -0.00743695 -0.00976607)
(0.137976 0.00136313 0.00594212)
(0.162556 -0.00458094 -0.0041324)
(0.113574 -0.00385952 0.00881204)
(0.147223 0.0127308 0.00322261)
(0.150963 0.00528009 0.00269954)
(0.169791 -0.0117925 -0.00812993)
(0.150909 -0.00567817 -0.0122737)
(0.153454 0.00594113 -0.00654294)
(0.168363 0.00029265 0.000135637)
(0.172363 0.00772951 -0.00712946)
(0.100685 -0.000723605 0.0063797)
(0.147919 -0.00254216 -0.0207989)
(0.157993 -0.00317113 -0.00690928)
(0.154556 -0.0154831 0.00231783)
(0.158679 -0.0223375 0.00188019)
(0.177736 -0.00254231 -0.014424)
(0.15496 -0.0132296 -0.00323792)
(0.119017 -0.0137346 -0.00620025)
(0.134305 0.00409528 0.0030229)
(0.107072 0.013565 -0.0124425)
(0.136856 -0.00567047 0.0119974)
(0.196989 0.0141712 0.00626295)
(0.13391 0.00172054 0.00540874)
(0.147656 -0.0184342 0.0054657)
(0.143955 -0.000914668 -0.00820646)
(0.14927 0.00508558 -0.0124966)
(0.124952 0.000886577 -5.82934e-05)
(0.11041 0.00759236 0.0100791)
(0.144613 -0.00650371 -0.0035023)
(0.119683 -0.00365101 0.00437245)
(0.159668 -0.00190499 -0.0073894)
(0.178771 -0.00994547 0.0070011)
(0.19261 0.00814302 -0.01171)
(0.13157 -0.0117735 0.002505)
(0.125797 -0.00254969 0.00279266)
(0.124651 0.0132793 -0.00215264)
(0.172572 -3.68223e-05 0.0136798)
(0.183775 0.0186263 0.00569869)
(0.135936 -0.00379136 0.00288038)
(0.12832 -0.00626757 0.00206586)
(0.109027 -0.00211065 0.0116869)
(0.158569 0.00136242 0.00296033)
(0.149536 0.00681685 0.000506888)
(0.146486 0.00394938 0.00510161)
(0.0920909 -0.00490511 -0.00565818)
(0.16517 0.00223825 0.00671681)
(0.130119 0.00405913 0.00334297)
(0.142229 -0.0102817 -0.0039686)
(0.137313 -0.00240505 -0.010115)
(0.176629 0.0094104 0.00512588)
(0.135109 0.00250378 -0.00115452)
(0.189513 0.00685427 -0.00154545)
(0.116811 -0.00402113 -0.00778595)
(0.16059 -0.0149779 0.0100181)
(0.17629 0.00843371 0.0127639)
(0.188454 -0.019315 -0.00429837)
(0.154937 0.000913412 -0.000133155)
(0.126773 0.00604766 0.0144272)
(0.190991 -0.00770922 0.00114447)
(0.122077 -0.000389067 0.00904241)
(0.122737 0.00622346 0.00127783)
(0.147983 -0.0151805 0.00270872)
(0.196928 0.00829448 -0.0180231)
(0.166009 0.00438612 -0.00924311)
(0.132537 -0.00118134 0.00634057)
(0.17529 0.00693587 0.00284131)
(0.126226 0.00304689 0.00924859)
(0.176097 0.0129878 -0.0117705)
(0.143651 -0.013973 0.00315943)
(0.130737 0.00416064 -0.0111134)
(0.182652 -0.0115977 0.00659449)
(0.159557 0.00688194 -0.00124477)
(0.173582 -0.0099748 -0.0126256)
(0.0995267 0.000613017 -0.00441446)
(0.159854 -0.00164039 0.00119671)
(0.13174 0.0125809 -0.017857)
(0.14868 0.00215779 -0.00103265)
(0.157964 -0.0126971 0.00412061)
(0.153729 0.00148328 0.00304975)
(0.194303 -0.00841879 0.00843953)
(0.15178 -0.00916227 0.0136323)
(0.178738 -0.00860633 -0.00972007)
(0.1238 -0.00161543 -0.00810571)
(0.175216 -0.009055 0.0034635)
(0.159322 -0.0182964 0.0157483)
(0.175567 -0.00610889 0.00225997)
(0.186264 -0.0146527 0.00928605)
(0.149686 0.012295 0.0084887)
(0.152584 -0.00383681 0.0125895)
(0.169686 0.00847357 -0.011367)
(0.138888 -0.00293498 -0.00114356)
(0.13883 0.00351981 0.00181618)
(0.167098 0.00218217 0.00184235)
(0.168964 0.0177125 -0.010651)
(0.146279 0.00431707 0.00571785)
(0.155566 -0.000661303 0.00954603)
(0.152971 0.00686375 0.00388017)
(0.147354 0.00616859 -0.0137725)
(0.145214 -0.0123265 0.0098247)
(0.138668 0.00855142 -0.00707362)
(0.17701 0.00393817 0.0177077)
(0.157162 -0.00246352 0.0018681)
(0.127799 0.0111601 -0.00692709)
(0.164732 -0.000421187 0.0056364)
(0.12759 0.0228262 -0.000588176)
(0.149166 0.00271414 0.00438351)
(0.159324 0.00744317 0.00905818)
(0.160012 1.59103e-05 -0.010448)
(0.158741 0.0018379 -0.0100447)
(0.170829 -0.0110234 -0.00138272)
(0.125902 -7.86257e-05 -0.00199387)
(0.151852 0.0127849 -0.00333073)
(0.172099 0.00838436 -0.0066246)
(0.132183 -0.000847753 -0.00414026)
(0.167629 -0.00283737 0.00304817)
(0.154477 0.00422781 -0.00214818)
(0.143561 -0.00383426 -0.00114862)
(0.157317 -0.00112929 0.0112861)
(0.15809 0.0129626 0.00661238)
(0.158821 0.00156341 -0.000820547)
(0.139741 -0.0189498 0.00276753)
(0.0974075 -0.00411021 0.0113682)
(0.109676 0.00134399 0.0123477)
(0.127716 0.00200877 0.00738439)
(0.147436 -0.000109161 0.000450523)
(0.146112 -0.00225451 0.0151771)
(0.139438 0.00296316 0.0195419)
(0.171295 -0.014572 -0.00069266)
(0.140828 0.00581792 0.000273076)
(0.169763 -0.00771281 0.0117291)
(0.119132 -0.00167394 -0.00291162)
(0.124176 0.00383337 0.00531288)
(0.137637 0.00328849 0.0124688)
(0.165569 0.00757794 0.00276513)
(0.169814 0.00824803 -0.00600397)
(0.188883 -0.00208203 0.00153849)
(0.144069 -0.000627897 0.00791725)
(0.150731 0.00435627 -0.00241363)
(0.15577 -0.00712277 0.000806072)
(0.15928 -0.0117371 0.000510338)
(0.144203 -0.00883699 -0.00132281)
(0.169239 0.00220837 -0.00488426)
(0.161114 -0.00298121 -0.00969196)
(0.135284 -0.00435688 -0.00776839)
(0.14542 -0.00883681 0.0118557)
(0.140943 0.00731905 0.0112299)
(0.155052 0.0152614 -0.0096523)
(0.167465 -0.0006119 -0.00446894)
(0.146801 -0.00814203 0.00951051)
(0.168077 -0.00512897 0.0188316)
(0.166377 0.00519568 -0.00637524)
(0.130306 0.00560745 0.00479248)
(0.164447 0.0171637 0.0164363)
(0.163364 -0.00133007 0.00638758)
(0.117287 -0.00989412 -0.00314117)
(0.152231 0.0119505 -0.0127812)
(0.146669 0.0086019 0.00741782)
(0.126227 -0.00159766 0.00182437)
(0.141077 -0.0176153 0.012265)
(0.0883121 0.00454623 -0.00211531)
(0.14736 -0.00458917 0.00318318)
(0.125467 -0.00180069 0.00269288)
(0.120177 -0.00183261 0.00923577)
(0.161985 0.018296 0.00507424)
(0.123578 -0.000679091 -0.00363061)
(0.177916 0.0187789 0.00449104)
(0.157823 0.00417268 -0.00495282)
(0.15309 -0.00770914 -0.0110109)
(0.130646 -0.00530391 0.0126262)
(0.112083 -0.0067833 -0.00286505)
(0.16216 -0.00394271 -0.00587785)
(0.1613 -0.00769231 0.00994775)
(0.142459 0.0108927 0.00222939)
(0.106381 -0.0041566 -0.00437671)
(0.104864 -0.0124392 -0.00259502)
(0.150359 -0.00213787 -0.0115713)
(0.170556 0.00773067 -0.000406807)
(0.162125 -0.0059647 0.00148518)
(0.162121 0.00338203 0.00514635)
(0.135209 0.0013361 0.00611608)
(0.148557 0.00300886 -0.00372615)
(0.185794 -0.00349979 0.0124272)
(0.17743 0.0084806 -0.0168978)
(0.14096 0.00374085 -0.00511428)
(0.141691 -0.00939092 0.000476169)
(0.163203 -0.00554268 0.000366967)
(0.140769 -0.00835267 0.00696246)
(0.130851 0.000921432 -0.00645328)
(0.131103 -0.0122362 -0.027378)
(0.132626 0.00868845 0.014062)
(0.175441 -0.0122728 -0.00393994)
(0.130768 -0.00899708 0.0243965)
(0.15431 -0.0142118 -0.00016448)
(0.128714 -0.0107198 0.0059587)
(0.168154 -0.000435292 0.00272996)
(0.177531 0.0076922 0.02512)
(0.159951 1.18608e-05 0.00696696)
(0.165675 0.00109184 0.00611456)
(0.137074 0.0111893 0.00315577)
(0.138375 0.00737364 -0.00415532)
(0.0910735 0.00651876 0.0143201)
(0.13784 0.00097694 -7.67529e-05)
(0.182939 0.0162061 0.0102116)
(0.149089 0.00370181 -0.00229152)
(0.149556 0.0114351 0.00590583)
(0.109615 -0.00247328 -0.00756559)
(0.187458 -0.000899674 -0.00503146)
(0.137354 0.0143393 -0.0024331)
(0.133909 0.00898251 0.012102)
(0.138813 -0.00426371 -0.000175109)
(0.176041 0.0133214 -0.00426047)
(0.170718 0.00339198 0.00829673)
(0.129467 -0.00260726 -0.00331536)
(0.161631 -0.00999213 -0.0156639)
(0.112187 -0.00998624 0.0187707)
(0.18918 0.0142976 -0.00959147)
(0.126307 -0.00569824 -0.00543182)
(0.158441 0.0108977 0.0130504)
(0.158901 0.00333138 0.00141881)
(0.165826 -0.00081342 0.00227157)
(0.133745 0.00925105 -0.00428265)
(0.13399 0.000120453 -0.00349525)
(0.131442 -0.00542673 -0.00611143)
(0.151587 1.03813e-05 -0.00675294)
(0.163676 0.011994 0.0096534)
(0.125866 0.00269797 -0.000554597)
(0.0944268 0.000250489 0.00138841)
(0.164717 0.000740479 0.000182264)
(0.164788 0.00299158 0.00166106)
(0.164177 -0.00823097 6.14385e-05)
(0.165076 -0.00252068 0.00215614)
(0.136624 0.000529396 -0.00174166)
(0.147629 -0.0133406 0.000657423)
(0.184875 -0.0106661 0.00995402)
(0.136605 -0.0078234 -0.00211938)
(0.117294 -0.00260787 -0.00792702)
(0.150462 -0.0060641 0.0108865)
(0.136075 -0.0031747 0.0119496)
(0.173639 -0.000407997 0.0140101)
(0.130324 -0.00491285 -0.00423096)
(0.159819 -0.00651662 -0.0084113)
(0.144989 -0.0177255 -0.0120296)
(0.168951 0.00717193 0.00205689)
(0.187461 0.00792277 0.00153357)
(0.132242 0.00311924 -0.0138483)
(0.13577 -0.000278343 -0.00644189)
(0.104357 0.00203723 -0.00798818)
(0.175489 -0.0137722 -0.0123941)
(0.130656 -0.000276173 -0.00570415)
(0.133124 0.00617193 0.00280024)
(0.147149 -0.0022618 -0.00304995)
(0.17468 0.000646321 -0.00614816)
(0.187435 -0.00467106 -0.00563329)
(0.169811 -0.00212922 0.00414092)
(0.155867 -0.00412678 -0.00203003)
(0.141038 -0.00693535 -0.0151192)
(0.15033 -0.00501577 0.00107111)
(0.151303 0.00434439 0.00256907)
(0.161923 -0.00466704 0.00456536)
(0.158118 0.0022622 -0.00314195)
(0.129402 0.00224553 0.00195218)
(0.186457 0.00239307 0.0125863)
(0.183199 0.00636445 -0.0101593)
(0.144672 0.00701838 0.017832)
(0.192456 0.00135457 0.0084341)
(0.153197 0.0131549 0.036822)
(0.138782 0.0025968 0.00669261)
(0.152397 -0.00160358 0.0021063)
(0.182581 0.00814172 -0.00851455)
(0.165337 0.0166738 5.59727e-05)
(0.121924 -0.00215932 0.00376093)
(0.138299 -0.00873329 -0.0053366)
(0.183895 -0.00722165 -0.00564202)
(0.132897 -0.00296078 -0.00671875)
(0.142595 -0.00710881 0.010011)
(0.111132 -0.00129657 -0.00347094)
(0.155421 0.00225447 0.0104761)
(0.151985 -0.00752792 -0.0125304)
(0.106839 -0.0154195 -0.0034473)
(0.171578 0.00100954 0.00877009)
(0.130929 0.0146764 0.0072038)
(0.142058 0.0014095 0.00224898)
(0.162265 0.00242938 0.00236735)
(0.147232 0.0018977 0.00958078)
(0.14403 0.00232455 -0.0118794)
(0.161532 0.0109084 -0.0238874)
(0.0993326 -0.000228519 -0.0047316)
(0.140909 0.00584543 0.00255155)
(0.150077 -0.000330076 -0.000825065)
(0.129508 -0.00413821 -0.00706878)
(0.14994 0.000583277 -0.00283636)
(0.145274 -0.00919982 -0.00141888)
(0.13876 -0.0173072 -0.000728191)
(0.165497 -0.00938406 -0.00431886)
(0.119508 0.0115265 0.00471846)
(0.144435 0.00648082 0.00992445)
(0.141566 0.00263668 0.00220387)
(0.147153 0.0125865 0.00107124)
(0.162413 -0.00197828 0.00307956)
(0.10066 -0.00421751 0.0205024)
(0.193072 -0.00356197 0.00791548)
(0.156879 0.00238616 -0.0121734)
(0.141893 0.00374042 -0.00505997)
(0.153039 -0.00636143 0.0161599)
(0.138946 0.000969352 0.00302675)
(0.173982 0.00780298 0.008855)
(0.130344 0.00574532 0.0131826)
(0.09984 0.00296639 0.00812265)
(0.137088 -0.000956227 0.00314066)
(0.130997 0.00769367 0.00355554)
(0.144802 -0.00942337 0.00139661)
(0.172236 0.011 -0.0141302)
(0.185015 0.0103498 -0.0128364)
(0.109473 -0.00348289 0.0110046)
(0.173693 -0.00608882 0.00907305)
(0.128037 0.00185726 -0.00286178)
(0.168598 -0.00593578 -0.00222619)
(0.0987515 0.00492122 0.00249999)
(0.144578 -0.00459717 0.00970646)
(0.144298 0.000329528 -0.00322938)
(0.172079 0.00664889 -0.00133033)
(0.137831 -0.000837756 0.0104165)
(0.154495 0.00142033 0.000153407)
(0.133328 -0.0107546 0.000568943)
(0.167891 0.00238663 -0.00866327)
(0.132491 -0.000190853 0.00999178)
(0.168834 -0.0136807 0.0175544)
(0.167163 0.00744713 0.00366904)
(0.155395 -0.00730365 0.00526415)
(0.172379 -0.00933835 -0.00338002)
(0.161203 -0.00738418 -0.00270092)
(0.169267 -0.0101024 -0.00238008)
(0.13785 0.00337351 -0.000332448)
(0.181186 0.000215675 -0.0038944)
(0.19351 0.0140344 0.0078206)
(0.166431 -0.00104003 -0.0059989)
(0.149757 0.00427105 -0.00925535)
(0.177459 0.00179419 -0.0049262)
(0.140058 0.00452544 -0.0120107)
(0.169579 0.000338947 -0.0123734)
(0.146947 -0.00870428 -0.00739233)
(0.164573 -0.0181559 0.0134417)
(0.159183 -0.00176695 -0.00794523)
(0.141869 -0.00338529 0.015312)
(0.13049 -0.0133228 0.00326897)
(0.187144 0.00790315 0.0151716)
(0.108629 0.0121353 0.0195605)
(0.13944 0.00121314 0.000700794)
(0.139339 0.00765661 -0.00544362)
(0.143749 0.00485922 0.00651468)
(0.170144 -0.0103757 -0.0167022)
(0.118824 0.000431837 -0.000164947)
(0.1248 0.00710485 0.00725352)
(0.126713 -0.019587 -0.00804902)
(0.127812 -0.0126977 -0.012487)
(0.14055 0.0115612 0.00631819)
(0.180082 -0.00585152 0.00116623)
(0.111001 0.0149382 -0.00743672)
(0.140585 -0.00116309 0.00720176)
(0.183284 0.00804028 -0.0075707)
(0.140785 0.0114842 -0.00562551)
(0.164586 -0.00845239 -0.0150821)
(0.102551 0.0174723 0.00814778)
(0.147396 -0.00107007 -0.00380081)
(0.160337 0.00336527 -0.00938632)
(0.150758 -0.00613605 -0.00189743)
(0.158616 -0.0110777 -0.00132184)
(0.137629 0.000425981 0.00392206)
(0.187683 0.00510275 -0.0078033)
(0.140539 -0.00420902 -0.00854414)
(0.0912085 -0.00385324 0.0164203)
(0.126466 0.0229963 0.00233304)
(0.164247 0.0108879 0.00752678)
(0.145199 -0.00680522 -0.010422)
(0.108347 -0.00463088 0.0101969)
(0.128713 -0.0020111 -0.00282331)
(0.167889 0.00161104 -0.00588692)
(0.155318 0.00386592 0.000443319)
(0.126792 -0.0100649 0.00170028)
(0.156955 -0.0203583 -0.00874645)
(0.140105 0.00497453 0.00115872)
(0.155879 -0.00339792 0.0120259)
(0.167027 0.00708582 -0.00680284)
(0.176103 0.00676159 0.00584843)
(0.133555 -0.00761408 0.000414035)
(0.139472 0.0031439 -0.00301247)
(0.158905 0.00147131 -0.000382369)
(0.143449 -0.00671808 0.00622777)
(0.116617 0.0047773 -0.0023224)
(0.141663 0.0025509 -0.00164963)
(0.18548 -0.0142146 -0.00159323)
(0.166218 -0.00209273 0.00436613)
(0.160078 -0.0015373 -0.0116718)
(0.161146 -0.00508495 -0.00547185)
(0.144149 0.0108884 -0.0100348)
(0.166292 0.00508559 0.0134093)
(0.167671 0.00673019 0.0147151)
(0.177362 0.00752933 0.00542351)
(0.118616 -0.0175748 0.0164593)
(0.140877 4.45786e-05 0.00689947)
(0.121926 -0.00533926 0.0021766)
(0.186357 0.0205907 0.000534749)
(0.183503 0.00440059 0.000492796)
(0.153421 -0.00631575 0.00353812)
(0.157568 -0.0188061 -0.00801954)
(0.173863 -0.00700231 0.0157251)