/*--------------------------------*- C++ -*----------------------------------*\
| =========                 |                                                 |
| \\      /  F ield         | OpenFOAM: The Open Source CFD Toolbox           |
|  \\    /   O peration     | Version:  2406                                  |
|   \\  /    A nd           | Website:  www.openfoam.com                      |
|    \\/     M anipulation  |                                                 |
\*---------------------------------------------------------------------------*/
FoamFile
{
    version     2.0;
    format      ascii;
    arch        "LSB;label=32;scalar=64";
    class       volScalarField;
    location    "48";
    object      epsilon;
}
// * * * * * * * * * * * * * * * * * * * * * * * * * * * * * * * * * * * * * //

dimensions      [0 2 -3 0 0 0 0];

internalField   nonuniform List<scalar> 
59516
(
0.0112394
0.0102386
0.00796484
0.00716822
0.00925791
0.345183
0.00718222
0.0099421
0.00875179
0.022326
0.00724601
0.0243456
0.00838371
0.0737636
0.0193117
0.0227454
0.00485014
0.0383145
0.0133202
0.00431653
0.0322364
0.00514556
0.00517032
0.0316143
0.00420155
0.0173719
0.0310953
0.0426326
0.0225056
0.0546063
0.0458055
0.0380942
0.00607718
0.00898536
0.008754
0.00521424
0.0525649
0.0440225
0.0159219
0.00433823
0.0102486
0.0095768
0.00719708
0.0112012
0.00680898
0.0233302
0.00899211
0.0061124
0.0126416
0.0078748
0.0271148
0.0257167
0.00766542
0.00733468
0.0259429
0.00915832
0.00954447
0.0268487
0.00408932
0.0108965
0.00513948
0.0410793
0.00446421
0.00507053
0.00729256
0.00692893
0.0519001
0.0258812
0.0200431
0.00773475
0.0252336
0.00476859
0.0414473
0.00614521
0.0039321
0.005812
0.00576992
0.00520697
0.023552
0.00772721
0.0298771
0.00781682
0.00850477
0.0459382
0.00807297
0.00421589
0.0322296
0.00504477
0.0213539
0.0255594
0.00995088
0.00622214
0.00392713
0.00638664
0.00484329
0.0106543
0.0060243
0.0237729
0.0296749
0.00531957
0.0262906
0.0401254
0.0397791
0.0207887
0.00628406
0.00561615
0.0290098
0.00961249
0.0105269
0.0169354
0.019899
0.0217855
0.0184934
0.030123
0.00448602
0.0118895
0.0204808
0.00664669
0.0382587
0.00528566
0.0039682
0.00466707
0.00438231
0.00460534
0.015484
0.0186295
0.0384807
0.0126405
0.0817662
0.00384766
0.0038078
0.00886347
0.0389582
0.00488001
0.0105447
0.00790233
0.0365328
0.00611113
0.0273441
0.0117126
0.0242808
0.00369833
0.0525585
0.00728421
0.00434388
0.00554723
0.00755808
0.00924163
0.252798
0.00924497
0.0112155
0.0296065
0.00393544
0.00467578
0.0128535
0.0588706
0.00822135
0.00811351
0.0150025
0.0504449
0.0173
0.016358
0.0323378
0.0597521
0.0111327
0.00404478
0.0182272
0.004032
0.0461655
0.00663823
0.0144234
0.0253427
0.0157481
0.00595591
0.0236774
0.00914475
0.00437991
0.00741035
0.0162387
0.031142
0.00509436
0.0381791
0.0520772
0.0199745
0.00385361
0.0218474
0.0327874
0.0471462
0.00754921
0.0111332
0.00665436
0.0238391
0.00433569
0.0208409
0.00453725
0.0372999
0.0229715
0.0290552
0.00942498
0.00459026
0.0156796
0.00390123
0.0100863
0.0500105
0.00670266
0.00540711
0.00390832
0.00534497
0.0509587
0.00863745
0.0260093
0.0583452
0.00554511
0.0219243
0.00841926
0.00401023
0.00569371
0.00423504
0.0226273
0.00462253
0.0228835
0.00977399
0.00453987
0.0265187
0.00429822
0.00423906
0.0262606
0.0235659
0.00413908
0.0213727
0.00391214
0.00425278
0.0040324
0.0322317
0.0332642
0.0301131
0.0206362
0.0102334
0.00479116
0.0248917
0.00381134
0.0467733
0.0229061
0.0405674
0.00393078
0.0129156
0.00541879
0.0161588
0.00381418
0.00991868
0.00398092
0.00576527
0.00387859
0.0055336
0.00536009
0.00449733
0.0243065
0.00494128
0.0235468
0.0193523
0.00657133
0.00433908
0.0086904
0.00382752
0.0111673
0.02245
0.00467261
0.0127005
0.0210305
0.0245623
0.0128598
0.00418455
0.0104081
0.0122992
0.00416203
0.0125146
0.037955
0.00421369
0.0296767
0.0257124
0.0040628
0.00590827
0.0361059
0.00794569
0.0072347
0.00471928
0.00390418
0.0367073
0.00410676
0.00426439
0.00424038
0.00649707
0.00634726
0.0117451
0.0039888
0.0225353
0.0046766
0.0053564
0.00403136
0.00437654
0.00791802
0.0204025
0.0391355
0.0222487
0.00405885
0.0487664
0.0155843
0.024778
0.00422955
0.00380904
0.00435373
0.020548
0.0102427
0.0276673
0.0283045
0.00491994
0.01142
0.0117248
0.0133175
0.0283135
0.0178545
0.0101437
0.00406667
0.00393611
0.00410738
0.00437013
0.0193987
0.00692538
0.00449498
0.00464443
0.00419725
0.0205516
0.0406502
0.0051291
0.0238308
0.0325001
0.00451516
0.00535387
0.0284504
0.00423698
0.00397454
0.00389494
0.00418926
0.0305519
0.0044542
0.00429304
0.0228338
0.00405522
0.00433934
0.00671789
0.00722244
0.00499248
0.00516697
0.0189508
0.0370115
0.0273026
0.0112749
0.0524803
0.0968826
0.0163144
0.00881317
0.0064863
0.00675981
0.00447918
0.00629663
0.00513394
0.00534567
0.0314794
0.0360484
0.0227041
0.0270969
0.0281065
0.0047452
0.0115801
0.00460503
0.044024
0.00698026
0.0277166
0.00447438
0.0274079
0.0188755
0.00943276
0.0073839
0.0461716
0.0209714
0.00633393
0.0352089
0.0123852
0.00881767
0.00594955
0.0121703
0.0123562
0.00445319
0.0672201
0.00401052
0.0282621
0.0177817
0.0182105
0.00401006
0.00385901
0.0246234
0.00632643
0.011742
0.00394418
0.00394847
0.0212899
0.0068433
0.00518003
0.00506033
0.00458204
0.0389266
0.0407307
0.00657617
0.00393488
0.00391373
0.0295378
0.00442048
0.00910334
0.00431621
0.00403819
0.00393497
0.0041216
0.00411423
0.0126414
0.00411038
0.0184614
0.00446175
0.00989268
0.00504387
0.00422786
0.00520595
0.00573695
0.0266291
0.0326599
0.0420827
0.00793849
0.00351313
0.00614351
0.00676447
0.033094
0.0430786
0.00865828
0.00521874
0.00412112
0.00466811
0.0057428
0.00389361
0.00584149
0.0297267
0.00742813
0.0214354
0.11502
0.00510207
0.0114279
0.00558887
0.0457003
0.00396975
0.00404939
0.0042071
0.0130759
0.00516902
0.00424267
0.00762481
0.00422409
0.0156593
0.00421597
0.00505063
0.0407338
0.00390563
0.00824197
0.0225532
0.0121467
0.00413483
0.00680865
0.0152598
0.0431945
0.00381905
0.00674821
0.00444551
0.00704107
0.0289368
0.00575383
0.0552765
0.00462447
0.0169927
0.00441658
0.0208044
0.00972877
0.0113998
0.0294709
0.00405752
0.00451912
0.0475724
0.00447224
0.00422761
0.0280457
0.0185834
0.0204371
0.00498896
0.00429209
0.0850769
0.0231574
0.0221565
0.00893481
0.00421735
0.0369307
0.00445475
0.00539041
0.00406263
0.114205
0.00403608
0.0337582
0.00436561
0.0418443
0.0219459
0.004901
0.020069
0.0441847
0.0304673
0.0207477
0.0222361
0.00505042
0.0251359
0.0185185
0.0123888
0.00446359
0.0275668
0.00929588
0.0678642
0.00407297
0.0240097
0.00480654
0.0228063
0.00741461
0.0041972
0.0218099
0.00393265
0.0536184
0.0534024
0.00492166
0.00409316
0.00674153
0.00722074
0.00393438
0.0201467
0.0041492
0.0199387
0.00426992
0.00691495
0.0287262
0.00462027
0.0211445
0.0285752
0.00509249
0.0279761
0.00621363
0.00419539
0.00665653
0.0208929
0.00388583
0.0139216
0.00359951
0.00359226
0.0040198
0.00413211
0.0254503
0.023644
0.00403047
0.00432987
0.0351926
0.0046176
0.00362384
0.00375936
0.00377658
0.00822741
0.0457361
0.00370703
0.0105581
0.00513216
0.0108952
0.0260046
0.00424098
0.0133424
0.00585571
0.00385571
0.00568749
0.0533212
0.0402627
0.00426604
0.00452304
0.00412443
0.00555095
0.0136214
0.00547165
0.00415102
0.0355461
0.00427101
0.0138112
0.0286207
0.0187331
0.00523089
0.00557033
0.00610409
0.00732016
0.0106296
0.00409689
0.0123407
0.00397284
0.00420183
0.00348065
0.00416232
0.0266381
0.00437274
0.0349869
0.0949149
0.019532
0.0108897
0.00621913
0.0299705
0.00445072
0.0036699
0.00481035
0.00419154
0.0314421
0.0104283
0.0142887
0.00426861
0.00872997
0.0126032
0.00707457
0.00872038
0.0277736
0.0239757
0.0260364
0.0453928
0.0291143
0.0114726
0.00609923
0.0506196
0.0440274
0.00413317
0.0657022
0.0308646
0.00547903
0.00935613
0.0064736
0.0304207
0.0229064
0.00896204
0.0043077
0.00507944
0.0323563
0.0337266
0.0596121
0.0350659
0.00609159
0.0326242
0.0105711
0.00423181
0.00349862
0.0260426
0.0110114
0.0320718
0.0362427
0.00421924
0.0503602
0.00452361
0.0215106
0.00485362
0.00576336
0.0437759
0.0223485
0.00517356
0.0294025
0.0047742
0.0240354
0.0098648
0.004022
0.0297628
0.0407347
0.0225667
0.0190603
0.0105173
0.0238915
0.0156982
0.0388858
0.00405278
0.0289125
0.00388209
0.00514818
0.00431668
0.0523646
0.00486471
0.0138749
0.00471068
0.0248891
0.0141013
0.004236
0.0289124
0.0039863
0.0295029
0.00747041
0.0345947
0.0206907
0.00418693
0.00645153
0.0319307
0.00848319
0.0201918
0.0354114
0.00418293
0.0121264
0.00642084
0.00431265
0.00424712
0.00427436
0.00624819
0.0227669
0.0262055
0.00396975
0.0125882
0.00841981
0.00670443
0.0165799
0.00507071
0.0046262
0.0106678
0.010502
0.0329815
0.0137045
0.031096
0.00502312
0.00401533
0.0127657
0.0109112
0.0457703
0.016267
0.0230819
0.00415232
0.00402355
0.0127729
0.00471817
0.0158212
0.0160063
0.00629911
0.0417607
0.00405087
0.0263493
0.0058722
0.0368797
0.00382542
0.0106365
0.00476955
0.00867445
0.0055793
0.00509132
0.00399438
0.0280013
0.020279
0.0398555
0.00440385
0.00487579
0.00647646
0.00420222
0.0636
0.0109591
0.013017
0.00431566
0.00706307
0.00576853
0.0108103
0.00426631
0.043235
0.014445
0.00535968
0.0270594
0.0250506
0.0187915
0.0430249
0.0130105
0.00430912
0.0193364
0.0486479
0.00986675
0.0253188
0.0105375
0.00426668
0.0041531
0.0043494
0.00409584
0.00430954
0.00681824
0.03289
0.0041367
0.00678374
0.0140764
0.0111503
0.00451753
0.00841157
0.0173998
0.004412
0.0302587
0.013372
0.0122721
0.0194414
0.00466226
0.0424128
0.0154265
0.032552
0.037941
0.0206203
0.0437184
0.00717881
0.0052045
0.00703891
0.0302529
0.00666017
0.00561938
0.0412852
0.00498584
0.0103686
0.0266064
0.0423781
0.00855925
0.00906307
0.0336909
0.00445577
0.0405289
0.00395934
0.00498844
0.00766611
0.00462492
0.00573697
0.0105809
0.0040895
0.0603496
0.0323563
0.0110522
0.010754
0.0503574
0.00562214
0.0128213
0.00397799
0.00462031
0.0165959
0.0051572
0.00401303
0.0132052
0.0224551
0.00441956
0.0112334
0.027275
0.00465721
0.00452172
0.00443359
0.011794
0.00653466
0.00976349
0.0145093
0.0106018
0.0111654
0.00620903
0.0209005
0.00506358
0.00419687
0.00931861
0.00526948
0.00940848
0.00761248
0.0299901
0.020411
0.00732345
0.00574059
0.00623852
0.0040827
0.00490451
0.00394657
0.00374136
0.228222
0.00846697
0.0040253
0.0385124
0.00535094
0.00534256
0.0391424
0.00481433
0.00431018
0.0105669
0.00416842
0.00421325
0.00414762
0.0193597
0.0106219
0.0260022
0.00911733
0.00439023
0.0342612
0.0337476
0.022095
0.00790813
0.0261654
0.00525852
0.0043416
0.00427014
0.00443224
0.0139306
0.0194489
0.00498137
0.00432578
0.00862548
0.0141976
0.00475901
0.00434127
0.00389709
0.0315394
0.00358089
0.0122232
0.0157201
0.030534
0.0219045
0.0132462
0.00424349
0.0238975
0.00442577
0.00403317
0.00452015
0.00397782
0.00415446
0.00369039
0.00420723
0.00408645
0.00964273
0.00606821
0.00772019
0.0304511
0.0254001
0.0048016
0.00657642
0.0309239
0.00444275
0.0102791
0.00434285
0.00425218
0.00423788
0.00537112
0.0132844
0.0041729
0.122671
0.0116076
0.00423649
0.0701099
0.00447707
0.029498
0.0145413
0.004921
0.0162725
0.0276066
0.00484117
0.00511536
0.00471651
0.0297646
0.00454835
0.0302365
0.0127307
0.0185293
0.0206758
0.0109449
0.00412116
0.019279
0.00492475
0.00446
0.00916516
0.00412139
0.00409107
0.00871355
0.00380637
0.00438751
0.0171069
0.00410949
0.0215686
0.0314964
0.00457321
0.00814675
0.0224387
0.00418186
0.00969312
0.0153182
0.00786261
0.0472417
0.00416809
0.00453247
0.00883126
0.0350908
0.0228038
0.0112822
0.02223
0.00618263
0.00669377
0.0105973
0.0473296
0.00892569
0.0040685
0.00881117
0.00433297
0.00439541
0.027867
0.00495043
0.00408888
0.00873133
0.00574062
0.0313912
0.00855846
0.0050896
0.00361531
0.0187113
0.00479539
0.0130737
0.00916407
0.0399928
0.00836029
0.0140479
0.0276188
0.00776055
0.0274409
0.00458814
0.00978235
0.00403958
0.0661771
0.0036299
0.0118698
0.023296
0.0113087
0.00602606
0.0392123
0.00467163
0.00507592
0.0244108
0.0562035
0.0242325
0.00387425
0.00505198
0.0041981
0.0106253
0.025561
0.00527158
0.0374798
0.0098296
0.00424649
0.0084481
0.0236481
0.00534532
0.0409843
0.0141722
0.00469561
0.00410486
0.0381807
0.00495745
0.00736843
0.022176
0.00410665
0.00480667
0.00334928
0.00799965
0.0118659
0.0219162
0.00430551
0.00493964
0.0400647
0.0284776
0.0213078
0.00404892
0.0120402
0.00449474
0.0249828
0.00396121
0.0304605
0.00608578
0.0156284
0.0042194
0.00413087
0.00545653
0.00602024
0.0381478
0.0327988
0.00542102
0.00628514
0.0376074
0.0311671
0.00446302
0.00462664
0.00457612
0.0104175
0.00618763
0.00367838
0.00435509
0.0203013
0.0143046
0.0188425
0.00528069
0.014082
0.0322969
0.0305013
0.00377266
0.00912273
0.0118539
0.00463347
0.00450302
0.0377881
0.00422662
0.00418684
0.0272271
0.03884
0.00429985
0.00368518
0.0391428
0.0544291
0.00389587
0.0108857
0.0413537
0.0179518
0.00382033
0.00378003
0.00423366
0.00615958
0.00411348
0.0368597
0.0318056
0.00414748
0.00412626
0.0110457
0.00502188
0.0246758
0.0225052
0.0242041
0.0072139
0.0517211
0.00471587
0.00557149
0.0119794
0.0211258
0.0441961
0.00412663
0.00360016
0.00788707
0.00399877
0.00997089
0.00438318
0.0253588
0.0214507
0.210928
0.009717
0.00568643
0.0106046
0.0234136
0.0131405
0.00826293
0.0053405
0.012025
0.00469639
0.00385902
0.0101383
0.023083
0.0356071
0.00459384
0.0377043
0.0080851
0.00756637
0.0136309
0.039248
0.00544415
0.0195018
0.0511097
0.0426418
0.00651663
0.00392669
0.00684308
0.00673999
0.0144788
0.0095629
0.0523863
0.0297943
0.0267151
0.00399596
0.0106018
0.005532
0.00983723
0.0100437
0.00661047
0.0419366
0.00802467
0.040955
0.0043047
0.00941709
0.0357906
0.00391761
0.0122466
0.00670411
0.0133878
0.0232429
0.0418275
0.00471357
0.0251525
0.00447546
0.00428319
0.00762012
0.0184168
0.0375158
0.00889443
0.0273692
0.00471086
0.00468119
0.00424814
0.0243606
0.00461557
0.00473205
0.00482946
0.00457702
0.0430312
0.0253869
0.0043302
0.00950922
0.019077
0.00416374
0.00733845
0.00705736
0.0110803
0.0298502
0.132094
0.026268
0.0047908
0.00421602
0.00758701
0.0388082
0.0305499
0.00507115
0.00824036
0.0181196
0.00396974
0.00454113
0.00438987
0.00414817
0.00391825
0.0044084
0.00577126
0.00900799
0.00850629
0.00899014
0.0164286
0.0193286
0.00393589
0.00679103
0.0315006
0.0229075
0.00372294
0.0320347
0.00512529
0.0114877
0.00406497
0.0053443
0.00880949
0.00379216
0.00409145
0.0041159
0.0223964
0.0256057
0.00466412
0.0038656
0.0409932
0.0140158
0.00759867
0.00415382
0.00587279
0.0521668
0.0104237
0.00628923
0.0150491
0.00384323
0.00811964
0.0446432
0.00731053
0.0373225
0.0125307
0.0499258
0.00463707
0.00481457
0.00387626
0.0430875
0.0228044
0.0141585
0.00458347
0.0254527
0.0246471
0.0123839
0.00419567
0.0311297
0.00363999
0.00479577
0.018676
0.019607
0.0250579
0.00418111
0.00383957
0.00523447
0.00775909
0.0112071
0.0108375
0.0113447
0.0345768
0.0352284
0.0286085
0.0127098
0.00414062
0.0323906
0.0527351
0.024323
0.0386133
0.00500592
0.0367854
0.00417825
0.00429306
0.00546324
0.0186383
0.00464912
0.0311965
0.0200003
0.00411195
0.00428905
0.00790839
0.00988648
0.00426679
0.0417924
0.00668273
0.00471409
0.00431403
0.0124047
0.00476359
0.00373958
0.0103276
0.028914
0.0379731
0.0104292
0.00414191
0.0341453
0.014466
0.00379783
0.0289505
0.0312287
0.011033
0.0448468
0.0172068
0.0436864
0.0250375
0.0308879
0.0455332
0.0297731
0.0481434
0.00993772
0.0150563
0.00416252
0.0455628
0.00383537
0.00690184
0.00497882
0.00847304
0.00504074
0.0326105
0.00446039
0.0107123
0.0125517
0.00414619
0.00669297
0.0541048
0.00846535
0.0139773
0.0332604
0.034739
0.0057435
0.0125399
0.0372921
0.00540133
0.00592074
0.00406677
0.00430507
0.0249632
0.00817034
0.0139052
0.0111712
0.00579639
0.00566344
0.00431085
0.0124361
0.00465985
0.00641019
0.0106412
0.0101623
0.00983744
0.00803278
0.0133128
0.00426587
0.00654283
0.0435642
0.00576157
0.0479356
0.119866
0.0230766
0.00573815
0.00605335
0.00805216
0.00488109
0.00844397
0.0159808
0.00893055
0.0483945
0.0401963
0.0551365
0.0224121
0.0234511
0.00400031
0.0248116
0.00839549
0.0367495
0.0338887
0.00400362
0.0227267
0.00484679
0.0070378
0.00452058
0.0301767
0.0257422
0.00732362
0.00533566
0.0462789
0.00599596
0.0208993
0.0100314
0.00396034
0.00498237
0.0040964
0.01106
0.011513
0.0139218
0.0182791
0.0303126
0.025602
0.03483
0.00945758
0.0040612
0.0162784
0.0209297
0.011018
0.00477317
0.00489773
0.0224526
0.0060863
0.0370111
0.0185616
0.00509271
0.0248744
0.0147693
0.0119833
0.00788344
0.0102914
0.0054186
0.0124062
0.0109004
0.0043661
0.00934694
0.00437907
0.0409564
0.0421519
0.00710984
0.0104749
0.00525057
0.00959104
0.0114704
0.0459941
0.00647839
0.00679516
0.00559955
0.012897
0.0274343
0.0215488
0.0264237
0.0075199
0.0193945
0.0102121
0.0413999
0.00815916
0.0269654
0.0152044
0.00433729
0.0222833
0.00487215
0.00484226
0.0292245
0.0366374
0.0084661
0.0681087
0.00511512
0.00443752
0.0140071
0.00544262
0.018223
0.00822616
0.0333562
0.00978949
0.00751456
0.00393652
0.0514677
0.00448811
0.00718202
0.0149574
0.00634342
0.0310013
0.00461793
0.032642
0.00528311
0.00759133
0.00573369
0.00624361
0.027179
0.0406998
0.00615377
0.00398458
0.027942
0.00988755
0.0333011
0.00698085
0.0210297
0.0449231
0.0118069
0.00545789
0.0135851
0.00404376
0.00858317
0.00556737
0.0341362
0.00416014
0.0312911
0.0158355
0.00422975
0.00424688
0.00736432
0.0424546
0.0250576
0.00446901
0.00437695
0.00567163
0.00514741
0.00510451
0.0593767
0.00580028
0.00587505
0.00673871
0.0235911
0.00677406
0.00421022
0.00682261
0.00414865
0.00461009
0.0217071
0.00483985
0.0256867
0.00508671
0.0120084
0.00665457
0.00498586
0.00393502
0.0042392
0.0304761
0.00381964
0.0226042
0.0364046
0.00705396
0.0239871
0.00488522
0.0439632
0.0231817
0.024139
0.0149257
0.00734545
0.0335366
0.0332657
0.00593061
0.0122343
0.00390911
0.0106648
0.0411621
0.0136531
0.0282909
0.00925382
0.0052801
0.0228665
0.00537225
0.00386215
0.00444682
0.00449671
0.00386647
0.00446526
0.0038787
0.00509937
0.0212442
0.0474514
0.00557513
0.0493851
0.00770614
0.00777427
0.0145822
0.00402813
0.00695238
0.0289292
0.00405979
0.0270702
0.0115241
0.0199261
0.00630042
0.00393119
0.0150844
0.0100246
0.0268379
0.00733547
0.00783429
0.0133913
0.00573391
0.0518135
0.0365027
0.00366839
0.00722513
0.00422462
0.0105686
0.0588631
0.00405732
0.0192988
0.00380347
0.00491434
0.0321447
0.00480892
0.00407171
0.0309205
0.022187
0.00395525
0.0111781
0.0400058
0.00461537
0.0235168
0.0400045
0.0120278
0.003993
0.00409154
0.0056842
0.00444091
0.00532524
0.00418536
0.00879855
0.01013
0.00393525
0.00533676
0.0463939
0.0296712
0.00762404
0.00439144
0.00825219
0.0416094
0.0368616
0.00530239
0.0263681
0.00508858
0.00441134
0.00405218
0.0261457
0.0152528
0.00418389
0.00898022
0.00527742
0.00574091
0.0218915
0.0323231
0.00419211
0.0361327
0.0177809
0.031722
0.0267356
0.00419902
0.00420834
0.00532759
0.00991659
0.0123878
0.0126171
0.00416329
0.00520335
0.0233177
0.00359208
0.00468074
0.00464849
0.0381069
0.00738059
0.038369
0.0127116
0.025637
0.00461375
0.00552686
0.0117417
0.0327784
0.0143708
0.0191668
0.0504785
0.00486895
0.039629
0.022321
0.00417428
0.00435176
0.00400556
0.0295997
0.00973448
0.0242996
0.00409368
0.00476832
0.00419115
0.00410045
0.0272441
0.00536438
0.00836962
0.00413646
0.00409755
0.00415916
0.00443409
0.0041922
0.04568
0.0297534
0.00856908
0.00394967
0.0054409
0.0276346
0.00403711
0.0209352
0.00753751
0.00568066
0.013853
0.0212284
0.0211223
0.0494986
0.00470307
0.00533628
0.0220885
0.00785341
0.0469976
0.00498017
0.00352494
0.0420567
0.00793265
0.00679482
0.00430641
0.0917654
0.049188
0.0336918
0.0181449
0.0203395
0.0396432
0.0331651
0.0462033
0.0141879
0.00448557
0.00633193
0.00490299
0.007367
0.0426008
0.00447312
0.00837158
0.0515464
0.0507083
0.0347965
0.0131052
0.0264957
0.00475271
0.0149385
0.00419905
0.00825229
0.0267326
0.0137223
0.00486342
0.00405356
0.00510764
0.00438089
0.00430182
0.024619
0.00971738
0.00489016
0.00468512
0.056539
0.0135689
0.00988305
0.00711273
0.00842218
0.00406738
0.0215392
0.0351599
0.0434763
0.0112634
0.00394968
0.00353572
0.00501415
0.0198217
0.00967669
0.0257146
0.0111986
0.00437338
0.0268581
0.0202353
0.00421951
0.00531382
0.00477507
0.00430745
0.0131963
0.0179825
0.00506609
0.0105941
0.00757574
0.00567594
0.00660763
0.0044173
0.0149118
0.00556871
0.0459258
0.0353231
0.0502007
0.0121431
0.00820745
0.0107278
0.0266101
0.00494688
0.0256376
0.0215332
0.0449434
0.0080071
0.00359634
0.00410496
0.0443694
0.0208263
0.0257826
0.0383784
0.0216927
0.00369203
0.00360785
0.0335485
0.0292123
0.0220606
0.00422784
0.00351736
0.00554039
0.0121652
0.00467475
0.00543106
0.0114736
0.0302863
0.00381874
0.00576608
0.00556035
0.0077051
0.00524803
0.00393481
0.0163734
0.00772148
0.0178165
0.00967771
0.00415431
0.00386097
0.0535203
0.00425844
0.0387332
0.00444607
0.00495742
0.00424003
0.00452572
0.0231656
0.0411479
0.0229273
0.0043659
0.00398848
0.0071049
0.00402187
0.0371661
0.0127714
0.00438346
0.00398196
0.00918942
0.0268061
0.0151379
0.00920133
0.00392996
0.00449803
0.00447051
0.00355286
0.0047126
0.00515288
0.0133157
0.00416889
0.00435169
0.00533026
0.0132665
0.0307171
0.0414714
0.0163445
0.00993075
0.00369721
0.00377087
0.0352891
0.00924058
0.00582722
0.00631829
0.0119177
0.00427957
0.00542137
0.0067338
0.00356145
0.0106782
0.0063693
0.0238
0.00916769
0.00546832
0.0398848
0.00708562
0.00498515
0.0062188
0.00424311
0.0037312
0.0399153
0.00427048
0.014274
0.0038699
0.0165057
0.00393629
0.00669912
0.0124238
0.00743897
0.0405164
0.00703066
0.0260878
0.0291648
0.00518847
0.0368987
0.00424439
0.00457293
0.003825
0.0251994
0.0109624
0.0419807
0.00638243
0.0299922
0.0116388
0.00465894
0.00386815
0.00395391
0.00521807
0.00485701
0.0040994
0.00505678
0.00462244
0.00486237
0.0257759
0.0114029
0.00373711
0.00368558
0.0208287
0.00503264
0.00426835
0.00386021
0.0402059
0.00627264
0.0402392
0.00371515
0.0341086
0.02957
0.00856673
0.00640951
0.00594576
0.00838969
0.0315156
0.00447102
0.0320081
0.0320652
0.004887
0.0242574
0.0142425
0.00669147
0.00449527
0.0431959
0.0207463
0.0323386
0.0042782
0.00460154
0.0190466
0.00453859
0.01254
0.0197265
0.00550118
0.0284901
0.00616509
0.00517001
0.00421273
0.00411641
0.00403329
0.00359412
0.00770542
0.00343481
0.00492294
0.00435714
0.00982173
0.0114576
0.00359222
0.0154951
0.00505178
0.00518637
0.00481194
0.00555413
0.00371052
0.00601447
0.0287667
0.00459442
0.00370998
0.0208415
0.00759753
0.00392196
0.106277
0.00475489
0.00435869
0.0121356
0.00700825
0.0238506
0.00865705
0.00365769
0.00501787
0.0118712
0.0229525
0.020421
0.0069538
0.0272437
0.032054
0.0350873
0.00570807
0.00372476
0.00360001
0.00624703
0.00510937
0.00571352
0.0199347
0.00959457
0.00375404
0.00357154
0.00367801
0.00374719
0.0371369
0.054313
0.0469512
0.0178299
0.00521423
0.00426887
0.00387912
0.0133463
0.00498276
0.00423775
0.0433507
0.00412077
0.00468278
0.00386119
0.00426025
0.0168578
0.0232366
0.00780543
0.0244285
0.00442306
0.00538448
0.0113538
0.00502187
0.0120489
0.0193654
0.0107575
0.00401606
0.013667
0.00717195
0.00408307
0.0193058
0.0278275
0.00436938
0.00410065
0.0220116
0.0289678
0.0126036
0.0375562
0.00383487
0.00830421
0.0228267
0.00375767
0.00399224
0.00384249
0.00697899
0.00448669
0.00470167
0.00469582
0.0056063
0.0136214
0.00541281
0.0176912
0.0157031
0.0233785
0.00396491
0.00861486
0.00468464
0.00600673
0.0122572
0.0105015
0.0433499
0.0106113
0.044125
0.0124598
0.00567363
0.00455701
0.00388154
0.00457243
0.0311542
0.0250583
0.00443984
0.015436
0.018633
0.00696679
0.0265506
0.00368921
0.00528769
0.00426536
0.00839891
0.00432327
0.00782784
0.00493748
0.0293005
0.00427777
0.0317582
0.0329709
0.0190948
0.00609932
0.00798087
0.00408637
0.0325495
0.00733713
0.0049877
0.0106848
0.0147292
0.0131637
0.0285413
0.0206541
0.027889
0.0188701
0.00347195
0.0235988
0.00483639
0.0204914
0.0463122
0.0121016
0.0267804
0.055339
0.041786
0.00598634
0.00851184
0.0043998
0.0189773
0.00398694
0.0305625
0.00889466
0.0207346
0.00515172
0.00427793
0.0461766
0.00641817
0.00482872
0.00485025
0.00648424
0.00656028
0.00448373
0.00453439
0.00441086
0.00565021
0.0297039
0.0130305
0.024706
0.00464098
0.0381422
0.0132369
0.00471032
0.0168214
0.00961588
0.0456145
0.00888987
0.0103651
0.00377934
0.00732807
0.00412611
0.00597731
0.00398362
0.00606532
0.00352001
0.0228361
0.0235136
0.00461953
0.00470316
0.00601164
0.0049068
0.00438065
0.00543699
0.0051485
0.0318582
0.00478518
0.00392165
0.032014
0.00718867
0.0319955
0.00665237
0.0181492
0.0257228
0.00444215
0.0279953
0.0309304
0.0420803
0.0350848
0.0306432
0.00396587
0.0102569
0.00384369
0.00635641
0.0204914
0.00450514
0.00401029
0.0042546
0.0430209
0.00518729
0.00920814
0.00843155
0.00486368
0.0347945
0.0331678
0.00518477
0.0297769
0.00395678
0.024891
0.00747397
0.0179215
0.00372948
0.00381803
0.00444793
0.0271097
0.0415409
0.0300409
0.00457095
0.0208524
0.0548896
0.00854479
0.0120038
0.0343901
0.011383
0.0207292
0.00665743
0.00504159
0.00393583
0.00525358
0.0962736
0.00954553
0.040948
0.00387861
0.00492025
0.00751199
0.00466615
0.0126203
0.00914257
0.0417678
0.00533342
0.0108152
0.00399594
0.00413002
0.02141
0.0500602
0.00390226
0.0043858
0.00406234
0.0186091
0.00600062
0.0412078
0.0284351
0.0257134
0.00412767
0.0343172
0.00887865
0.0476634
0.0243735
0.00552388
0.0238132
0.0304346
0.0315855
0.00504117
0.00496893
0.00430398
0.02299
0.0066904
0.00375674
0.00775832
0.00798889
0.00530332
0.00409796
0.00418624
0.041154
0.00501741
0.0137025
0.0178874
0.0255049
0.003933
0.00401564
0.0113293
0.00541124
0.0498993
0.00868518
0.00696977
0.0456924
0.00420569
0.00437543
0.00532049
0.0212017
0.00389176
0.0231449
0.00369005
0.0209281
0.0427834
0.0040404
0.00412058
0.0188982
0.00516276
0.00419935
0.00391374
0.00383583
0.0215212
0.0333974
0.00417557
0.00526201
0.00528119
0.00460975
0.0236825
0.00604991
0.0218055
0.0187011
0.0043273
0.00447007
0.0107287
0.005168
0.00800661
0.0289303
0.0656594
0.00395566
0.00473876
0.0237333
0.0350876
0.0135896
0.00531506
0.00559575
0.042862
0.0126052
0.00463848
0.00400663
0.00444986
0.00499821
0.0087654
0.003882
0.00472761
0.00421157
0.0130865
0.0319139
0.0419666
0.00788224
0.00975207
0.00513643
0.00464424
0.00408738
0.00424119
0.00394542
0.00443709
0.00456674
0.00413566
0.0106059
0.00459018
0.0047718
0.0118122
0.0045621
0.0116205
0.0324292
0.00751294
0.00602041
0.00634975
0.00710253
0.00635723
0.0124561
0.023397
0.00514567
0.00495839
0.00548089
0.0079641
0.0371355
0.00725299
0.0104077
0.0405039
0.00586105
0.0325606
0.00764629
0.00476955
0.00532828
0.00604272
0.00910147
0.0287392
0.0380404
0.066313
0.00422151
0.02402
0.00451997
0.00446089
0.0260566
0.00400302
0.0114844
0.00388783
0.00796666
0.00751571
0.0159914
0.00363516
0.00379317
0.0496621
0.00459194
0.0292498
0.0508583
0.00619505
0.0189625
0.00398728
0.00417315
0.00406641
0.010285
0.0142172
0.00532182
0.00419975
0.00532141
0.0221099
0.0374271
0.0078456
0.00486341
0.00882606
0.00413914
0.0139608
0.0113596
0.00427236
0.00402792
0.00416573
0.0124207
0.00956069
0.013388
0.00642237
0.00532038
0.00893542
0.0102994
0.0296238
0.00499822
0.00540401
0.00453755
0.00445039
0.00520269
0.00384848
0.02819
0.00730107
0.0154142
0.0223066
0.00458117
0.0150358
0.00373959
0.00401498
0.00516979
0.0412877
0.010842
0.00537213
0.00383626
0.0203408
0.00461609
0.0149688
0.0064862
0.014363
0.00898134
0.00459903
0.00405266
0.0514782
0.00587235
0.00390079
0.00456726
0.0119839
0.00490332
0.00455647
0.132306
0.0036247
0.0258111
0.00511744
0.00399493
0.00423025
0.00834107
0.0117597
0.0158843
0.020426
0.0296695
0.00393749
0.00390673
0.0885295
0.0278174
0.00520302
0.0057151
0.0225151
0.0100178
0.00539482
0.00577979
0.00534641
0.044583
0.00450414
0.0205425
0.0258702
0.00413123
0.0220316
0.0134497
0.038204
0.0251171
0.0138578
0.0224628
0.00750432
0.0215386
0.00867914
0.0313537
0.0402175
0.00738018
0.0331089
0.0200814
0.00533253
0.0352025
0.00519789
0.0213316
0.0174804
0.0228556
0.00379586
0.0341685
0.0317579
0.00648445
0.00529805
0.00715842
0.0245701
0.00634598
0.0133108
0.00717083
0.0183509
0.0108734
0.00379919
0.0113358
0.00387419
0.00603716
0.0062746
0.00394987
0.0525997
0.00697911
0.0081086
0.00470092
0.0358797
0.00794222
0.0526547
0.0111249
0.0114846
0.00429601
0.00481133
0.00868209
0.00500539
0.0206778
0.00418231
0.00433408
0.0145038
0.00360973
0.0181238
0.00448393
0.00636538
0.0199667
0.0150202
0.0180551
0.00393693
0.00540844
0.0194953
0.00641366
0.0078017
0.0453318
0.00431458
0.0416777
0.0255379
0.0089058
0.0049836
0.00573691
0.0220678
0.00404834
0.00443873
0.0106876
0.0212294
0.0133366
0.0323979
0.0053574
0.0126193
0.00631854
0.0123064
0.00418617
0.00572799
0.029331
0.00634429
0.00418637
0.0121928
0.0526778
0.0180971
0.00544032
0.0221826
0.0129223
0.0205439
0.00580258
0.0128474
0.0240521
0.023452
0.00383629
0.0404228
0.00492387
0.0350293
0.00389345
0.0108406
0.00465702
0.0305131
0.00556932
0.00373289
0.00456823
0.00399629
0.0112198
0.0462393
0.0458274
0.0312875
0.0524596
0.00503076
0.0301126
0.00378012
0.00486399
0.00706245
0.0045307
0.0386304
0.0201522
0.0226014
0.00483186
0.0334235
0.00523385
0.0112105
0.00580716
0.0196915
0.0299026
0.0348497
0.00476804
0.0221414
0.00400421
0.00705959
0.00712181
0.0223665
0.0226016
0.00769574
0.0107471
0.0255197
0.00425119
0.00485566
0.0143529
0.0112723
0.00542082
0.004224
0.00480311
0.00397309
0.00429879
0.0103808
0.0137805
0.00440849
0.0533869
0.0342127
0.00691109
0.0047488
0.00386734
0.0355258
0.0248002
0.00371032
0.0110854
0.00364774
0.0281841
0.00375329
0.00370476
0.00487884
0.0202165
0.0138092
0.03741
0.041356
0.00790112
0.0443397
0.00688335
0.0156456
0.00690836
0.00637273
0.00435854
0.0381069
0.0588621
0.0039722
0.00666001
0.030732
0.00424886
0.00490022
0.0313891
0.0433889
0.0468418
0.0259852
0.0156318
0.0421297
0.0130807
0.00399596
0.0302669
0.0462901
0.00739448
0.00478134
0.00422036
0.00540785
0.0113048
0.0560022
0.00388617
0.028371
0.00433281
0.0245748
0.0101983
0.00709394
0.00995898
0.00848347
0.0323841
0.00410272
0.0103492
0.00385831
0.0402889
0.0077177
0.0229257
0.0104793
0.0174987
0.0370663
0.00907943
0.00937788
0.00805632
0.0154857
0.00493151
0.0239335
0.0307593
0.0242759
0.00638924
0.00865798
0.00654112
0.0309864
0.00876922
0.0393624
0.056418
0.00562234
0.00374809
0.0228127
0.029355
0.0122557
0.00421221
0.00781311
0.00474117
0.00723951
0.00597768
0.00454305
0.00546615
0.00381234
0.0221268
0.0431637
0.00710984
0.0041556
0.00400665
0.0121585
0.0514262
0.0114919
0.00421135
0.0212854
0.0105153
0.00782504
0.0108325
0.00397315
0.00461203
0.00402098
0.0342907
0.00685199
0.00458517