/*--------------------------------*- C++ -*----------------------------------*\
| =========                 |                                                 |
| \\      /  F ield         | OpenFOAM: The Open Source CFD Toolbox           |
|  \\    /   O peration     | Version:  2406                                  |
|   \\  /    A nd           | Website:  www.openfoam.com                      |
|    \\/     M anipulation  |                                                 |
\*---------------------------------------------------------------------------*/
FoamFile
{
    version     2.0;
    format      ascii;
    arch        "LSB;label=32;scalar=64";
    class       volScalarField;
    location    "48";
    object      k;
}
// * * * * * * * * * * * * * * * * * * * * * * * * * * * * * * * * * * * * * //

dimensions      [0 2 -2 0 0 0 0];

internalField   nonuniform List<scalar> 
59516
(
0.000486293
0.000873124
0.000155833
0.000460863
0.00755459
0.017374
0.000225661
0.000509176
0.000237596
0.00302179
0.003536
0.00268306
0.000304821
0.00727079
0.00251384
0.00263607
0.000953663
0.00421763
0.00092173
0.000493186
0.0045421
0.000199876
0.000334131
0.0042274
0.000143046
0.00218456
0.00410905
0.00559715
0.00291991
0.00602627
0.00702803
0.00522892
0.000139172
0.000528701
0.00089883
0.00019568
0.00585525
0.00423109
0.00118928
0.000275195
0.000449552
0.00268116
0.000806402
0.000742589
0.000388732
0.00268894
0.000513968
0.0016602
0.00759624
0.00159329
0.0090158
0.00371104
0.000149812
0.000188613
0.00414046
0.000493824
0.00335874
0.0039957
0.000756167
0.00114067
0.000368198
0.00561502
0.000774423
0.000918727
0.00040432
0.000638737
0.00695979
0.00369263
0.0061586
0.000234183
0.00542621
0.00060435
0.00595858
0.000290223
0.00112467
0.000810232
0.00139103
0.000304564
0.00352135
0.00150538
0.00404603
0.00101922
0.000715638
0.00593347
0.00107362
0.000983034
0.00408588
0.000201271
0.00253968
0.00239203
0.00535769
0.000441956
0.000686917
0.000361694
0.000702457
0.00779082
0.000368706
0.00262296
0.0033222
0.000332694
0.00410692
0.00594421
0.00580902
0.00253468
0.000190457
0.000576018
0.00417635
0.0002724
0.000632268
0.00232255
0.00465314
0.00484027
0.00255709
0.00453546
0.000427216
0.000583281
0.00248638
0.000306366
0.00554516
0.000321671
0.00140085
0.000866622
0.000269819
0.000805903
0.00398419
0.00141112
0.00627157
0.00244948
0.0105249
0.00102424
0.00118352
0.000310565
0.00558267
0.000150034
0.000744988
0.000167805
0.00444101
6.83847e-05
0.00393104
0.000961481
0.00361099
0.00101023
0.00590633
0.000238356
0.00110714
0.000244958
0.00043191
0.000384367
0.0198329
0.000413784
0.000848434
0.0039207
0.000361331
0.000288496
0.000867285
0.00632111
0.000418683
0.000246525
0.00113079
0.00596185
0.00237979
0.00224563
0.00423768
0.00705806
0.000579207
0.000760527
0.00234187
0.000995934
0.00577934
0.000565063
0.00105716
0.00272741
0.00179426
0.000156783
0.00325663
0.000629125
0.000761308
0.00103469
0.00220568
0.00379974
0.000175358
0.00458751
0.00710711
0.00208329
0.000937903
0.00250476
0.00379
0.00597532
0.000196442
0.000678051
0.000478248
0.00271683
0.000573568
0.00206997
0.000180465
0.00422345
0.00249679
0.00366502
0.000679864
0.000228159
0.00154615
0.00128191
0.000523911
0.00592425
0.000160116
0.000239912
0.00113925
0.000679565
0.00621373
0.000475478
0.00309162
0.00743299
0.000262103
0.00271261
0.000330326
0.000603741
0.000231528
0.000170809
0.00276311
0.000319092
0.00281103
0.000856182
0.00066807
0.00405514
0.000772184
0.000848513
0.00505751
0.00350465
0.000782979
0.00265268
0.000633007
0.000877021
0.00133016
0.00525987
0.00420379
0.00372908
0.00218691
0.000407611
0.000477428
0.00294439
0.00123116
0.0060838
0.00249063
0.00611195
0.00118088
0.000803398
0.000395175
0.00233119
0.000454918
0.000426239
0.000355645
0.000332803
0.00140433
0.000402826
0.000307159
0.000410272
0.00287
0.000411557
0.00358364
0.00246147
0.000155406
0.000519332
0.000415751
0.000774062
0.000463049
0.00242648
0.000554886
0.000856277
0.00369143
0.00259907
0.000996381
0.000811669
0.000533307
0.000919637
0.000541252
0.000800581
0.00527214
0.000373519
0.00517461
0.00368198
0.0012628
0.00023172
0.00569909
0.000318769
0.000205757
0.000929857
0.00110787
0.00590477
0.00129553
0.00168127
0.000914339
0.000248973
0.000357517
0.00078929
0.000586937
0.0048885
0.000601198
0.000140847
0.00144831
0.000899267
0.000174298
0.00231156
0.00565373
0.00451423
0.000251427
0.00602233
0.00266759
0.00303117
0.000640546
0.000657966
0.000144658
0.0023524
0.000617222
0.00415687
0.00294562
0.000626879
0.00073451
0.00822006
0.00107435
0.0036972
0.00251676
0.00059829
0.000905617
0.00126439
0.00146704
0.00034738
0.00169833
0.000294847
0.000763747
0.00048902
0.000344728
0.00241312
0.00579458
0.00032987
0.00342264
0.00409735
0.000535376
0.000158892
0.00298828
0.000897056
0.000349569
0.00118008
0.000873175
0.00381822
0.0003428
0.0012024
0.0026174
0.00126079
0.00106808
0.000311872
0.000334969
0.000403981
0.000146349
0.00151364
0.00440057
0.00397943
0.0008337
0.00602946
0.0111214
0.00118853
0.000442658
0.000326129
0.00289507
0.000252172
0.000175069
0.000324289
0.000413699
0.00418013
0.00682146
0.00280349
0.00368458
0.00394009
0.000577974
0.000889497
0.00047726
0.00559252
0.000245286
0.00390533
0.000724783
0.00265355
0.00230019
0.000305841
0.00379547
0.00605867
0.00257049
0.000259016
0.00546785
0.00122914
0.000381243
0.00011107
0.000960732
0.000947243
0.000473904
0.00648587
0.00124032
0.0035269
0.00238963
0.00239244
0.0010656
0.000923188
0.00252292
0.000113742
0.000622551
0.00113241
0.00105365
0.00344215
0.000304942
0.000248031
0.000219119
0.000313735
0.00579662
0.00560739
0.000131762
0.000859458
0.00122373
0.00404069
0.000835031
0.000355047
0.00121906
0.000998159
0.00120753
0.00090311
0.000835861
0.000651462
0.00116676
0.00233023
0.00071702
0.000543701
0.000445482
0.00103345
0.00019161
0.000372884
0.00357411
0.00423966
0.00561008
0.00258482
0.00110703
0.000350212
0.000137251
0.00401895
0.005973
0.000388134
0.000484859
0.00100569
0.000315907
0.000150667
0.00144091
0.000147292
0.00529853
0.000271032
0.00242832
0.0118169
0.000578713
0.00082681
0.000326238
0.00603144
0.00106711
0.00124707
0.00114632
0.000715919
0.00046399
0.000967502
0.000458078
0.00141286
0.00120801
0.00077928
0.000198228
0.00556877
0.00100631
0.000321274
0.00345696
0.000612702
0.00064794
0.000232552
0.00120564
0.00562724
0.000693638
0.000147694
0.0004281
0.000234688
0.00368347
0.000299668
0.00712162
0.000695839
0.00951607
0.000839388
0.00348914
0.000416791
0.00058438
0.00349314
0.00153059
0.00121171
0.00624157
0.000618451
0.00157017
0.00411182
0.00233451
0.00238188
0.00047564
0.00133407
0.00980258
0.00253414
0.00244268
0.000262592
0.00139132
0.00551566
0.000314133
0.000368363
0.00114262
0.0136549
0.000516016
0.00521115
0.000540335
0.00598568
0.00229095
0.000266907
0.00235696
0.00580871
0.00422446
0.0032164
0.00264162
0.000115595
0.00275072
0.00218064
0.0047828
0.00101426
0.00514246
0.000385024
0.0062478
0.000806016
0.00273499
0.000960428
0.00284523
0.000351256
0.0011333
0.00301024
0.000710228
0.00621806
0.00612824
0.000187486
0.00121877
0.000252217
0.000243607
0.00107167
0.00271297
0.000605516
0.00235501
0.00100533
0.000251605
0.00513306
0.000262287
0.00351679
0.00517287
0.000196519
0.00360455
0.000319086
0.00135988
0.000305433
0.00241386
0.000969826
0.00101527
0.00105549
0.000764569
0.00117995
0.00122447
0.00354937
0.00277461
0.000964101
0.000363598
0.00450197
0.000601598
0.000825528
0.000769374
0.00104524
0.000178562
0.00587355
0.00065343
0.000789449
0.000476605
0.000549892
0.00502413
0.00145206
0.00100055
0.000115275
0.00128105
0.000218908
0.0057036
0.00555803
0.00115954
0.000790092
0.00149308
0.000669046
0.000923771
0.000327295
0.000993027
0.00522357
0.0013305
0.00311161
0.00411127
0.00223326
0.000137722
0.000217906
0.000199988
0.000170486
0.000490883
0.00150373
0.000975124
0.000814853
0.00079118
0.000907805
0.00099943
0.00399366
0.000568234
0.0043027
0.0101776
0.00225056
0.00546893
0.000238942
0.00459472
0.00103017
0.000572192
0.000288891
0.000880608
0.00402754
0.00959803
0.00729508
0.00121963
0.000211139
0.00292148
0.00268604
0.000360951
0.00370972
0.00232835
0.00474076
0.00622834
0.00553321
0.0013616
0.000382145
0.00637069
0.00579152
0.00160244
0.00808174
0.00414067
0.000265164
0.000270209
0.000222737
0.0042491
0.00261415
0.000294583
0.000851782
0.000394894
0.00420768
0.00523797
0.0100844
0.00573316
0.000259876
0.0053983
0.000637526
0.00115299
0.000497634
0.00358305
0.000676655
0.0039075
0.00574872
0.00108891
0.00581734
0.000720573
0.00355885
0.000415953
0.000250778
0.00579323
0.00259526
0.000241276
0.00387598
0.000672143
0.00284259
0.000389363
0.00124662
0.00397367
0.00564469
0.00346577
0.00783047
0.000477539
0.00271246
0.000932115
0.00440077
0.00132022
0.0051134
0.000447599
5.57091e-05
0.000675006
0.00598593
0.000202092
0.00103235
0.000431108
0.00294823
0.00836961
0.000238214
0.003681
0.0014988
0.00801304
0.000144064
0.00425037
0.00344977
0.00128123
0.000146367
0.00408796
0.0002686
0.00239723
0.00549837
0.00107832
0.00908554
0.000106856
0.000866013
0.00105104
0.000742804
0.000160345
0.00340825
0.00380649
0.00106695
0.00850404
0.000205858
0.000241243
0.00131693
0.000219402
0.000662893
0.00070313
0.000432745
0.00477768
0.00201237
0.00440048
0.000347288
0.000847316
0.000848215
0.000523993
0.00580505
0.00123666
0.00281044
0.000886228
0.00101983
0.00886966
0.000600144
0.00103204
0.00955221
0.000326099
0.0062674
0.00104115
0.00284656
0.000189348
0.00607028
0.000601422
0.00949758
0.000408116
0.00025273
0.000355524
0.000250652
0.00118709
0.0039275
0.00353764
0.00423438
0.00117322
0.000499904
0.00033059
0.00023202
0.0065575
0.000985624
0.00100054
0.0010474
0.000247289
0.000412504
0.000868914
0.00135568
0.00568819
0.000911312
0.000569045
0.00510353
0.0033541
0.00225888
0.00566932
0.00120872
0.000633678
0.00230972
0.00585084
0.000437153
0.0047914
0.000446693
0.000988329
0.00152094
0.000978473
0.000307421
0.00110898
0.000276069
0.00397864
0.000940305
0.000192263
0.000949532
0.00103479
0.000683359
0.00026042
0.00196077
0.000185421
0.00403375
0.000940374
0.000736279
0.00243803
0.00034365
0.00728129
0.00186457
0.00414457
0.00595404
0.00233624
0.00583128
0.000235171
0.000456249
0.000243131
0.0034965
0.000308262
0.000420064
0.00603449
0.000527238
0.00563164
0.00348932
0.00588193
0.000238804
0.000371616
0.00538762
0.000450346
0.00574076
0.000844464
0.000476143
0.000362658
0.00024227
0.000547969
0.000687862
0.00114029
0.00639078
0.00411499
0.00058707
0.000573388
0.0059738
0.000251939
0.00430903
0.000872527
0.000909206
0.00133547
0.000483708
0.00151279
0.00100084
0.00360228
0.000848433
0.000527835
0.00410739
0.000571243
0.00124854
0.000212494
0.000732784
0.0001412
0.000395575
0.00108437
0.000495505
0.00079023
0.000131715
0.00221606
0.000760127
0.00108982
0.00879499
8.54542e-05
0.00051966
0.000370586
0.00420674
0.00309489
0.000264045
0.00022806
0.000186833
0.00146748
0.000276392
0.00129772
0.00103892
0.0173208
0.000455497
0.0010488
0.00567138
0.000140049
0.00043349
0.00454736
0.000435025
0.00117575
0.000576715
0.0010621
0.00148257
0.00101229
0.00235113
0.00922208
0.00398344
0.000321341
0.00101154
0.00554379
0.00361191
0.00250943
0.000377078
0.0034536
0.000450642
0.000925386
0.000778934
0.000296509
0.00112616
0.0033625
0.000489881
0.000532565
0.000325574
0.00113757
0.000326038
0.00139666
0.00112852
0.00432763
0.000743462
0.000844233
0.0012747
0.00432696
0.00252217
0.000795315
0.0010604
0.00316738
0.000796682
0.000575918
0.000784783
0.00109576
0.000614793
0.000869174
0.000961982
0.00129461
0.00866738
0.000170167
0.000370934
0.00424318
0.00278983
0.000682208
9.356e-05
0.00430088
0.000699717
0.000455109
0.00174827
0.00172754
0.00138823
0.000302606
0.000817663
0.00122027
0.0151094
0.000725198
0.0013188
0.00741756
0.00133101
0.00395076
0.00100995
0.000829412
0.00200485
0.00384991
0.000931472
0.000659593
0.000125002
0.0038248
0.00120472
0.00392366
0.000899645
0.00210177
0.0021609
0.000722323
0.00146924
0.00240539
0.000434457
0.000721977
0.000394337
0.00137973
0.00148036
0.000243881
0.00120127
0.00097686
0.0022853
0.00136787
0.00329877
0.0041901
0.000901941
0.00193571
0.00500899
0.0011981
0.000453931
0.000961022
0.00297445
0.00632532
0.000693319
0.0013309
0.000272698
0.0058389
0.00395327
0.000766989
0.00340168
0.000289654
0.000340695
0.000668732
0.00578171
0.000280178
0.000575288
0.00229632
0.00166374
0.00128086
0.00266531
0.000652508
0.0012093
0.000328963
0.000371646
0.00413179
0.000347995
0.000599411
0.00103715
0.00204521
0.000619012
0.000903809
0.00037903
0.00561518
0.000423354
0.00095595
0.00385551
0.000220791
0.00404959
0.000480457
0.000507861
0.00102233
0.00774959
0.00110902
0.00088733
0.00241651
0.000764067
0.000346615
0.00553266
0.00061813
0.000357526
0.00249794
0.00692342
0.003784
0.00123187
0.00019932
0.000943292
0.000891301
0.00248044
0.000354283
0.00416065
0.00046949
0.00131387
0.00107902
0.00271028
0.000184091
0.00609785
0.00104121
0.000242987
0.0013511
0.00474128
0.00042226
0.000199248
0.00457728
0.000508858
0.000598682
0.000851362
0.000879225
0.0006828
0.00464291
0.000662546
0.000154701
0.00601192
0.00381044
0.00337904
0.000731299
0.000924975
0.000597857
0.00263067
0.00067941
0.00502291
0.000177919
0.00153455
0.0005156
0.00120423
7.07947e-05
0.000265777
0.00436935
0.00420914
0.000353046
0.000222798
0.00556386
0.00561697
0.000676382
0.000132805
0.000542428
0.00048216
0.000263227
0.000227435
0.00082478
0.00250158
0.00142136
0.00225019
0.000260176
0.0010706
0.00421852
0.00552728
0.000737219
0.00031648
0.00054195
0.000641976
0.000517077
0.00416851
0.000657147
0.00100964
0.00412446
0.00601525
0.000920513
0.000900225
0.004745
0.00610664
0.000840566
0.000676528
0.00608352
0.00135974
0.000840801
0.000543186
0.000970081
0.000216888
0.000346571
0.00546619
0.00372242
0.00114362
0.000679122
0.000419835
0.000493904
0.00259087
0.00263677
0.00353291
0.0009132
0.00663127
0.000200363
0.000139967
0.00074721
0.00264958
0.00604846
0.00134715
0.000807462
0.000160629
0.00102272
0.000476974
0.000139027
0.00390741
0.00291801
0.0173309
0.000450949
0.000274111
0.000420935
0.0024727
0.00106444
0.000197778
0.000161525
0.000886259
0.000225124
0.00057142
0.000560103
0.0026488
0.00584701
0.000688634
0.00437994
0.000306249
0.000285981
0.00103156
0.00550621
0.000336665
0.00220934
0.00581807
0.00572635
0.000288954
0.00101948
0.000319613
0.000351581
0.00107748
0.00049395
0.00564395
0.00389959
0.0040389
0.00134221
0.000496774
0.000318145
0.000492436
0.000395774
0.000280551
0.00651252
0.000317524
0.0055414
0.000501642
0.000454364
0.00524235
0.00112444
0.000624258
0.000224382
0.000825714
0.00219702
0.00431476
0.000288132
0.0038755
0.00155332
0.00172072
0.000388245
0.00170983
0.00434757
0.00275036
0.00395409
0.000839757
0.00078436
0.000941932
0.00301719
0.00060898
0.000737214
0.000509549
0.000546246
0.00454262
0.00384474
0.000712571
0.000372954
0.00245503
0.0014296
0.000258306
0.000290316
0.000724605
0.00560246
0.0123571
0.00279673
0.000451131
0.000724537
0.000475736
0.00542072
0.0038927
0.000206157
0.000391518
0.00241641
0.00124527
0.000432626
0.000600916
0.000772292
0.00112071
0.0004617
0.000378856
0.000603338
0.000396322
0.000336872
0.00113042
0.00205794
0.00121679
0.000277197
0.00424192
0.00251506
0.000505519
0.00308071
0.000125759
0.000589873
0.000516502
0.000357001
0.00028948
0.000775423
0.000674284
0.000429393
0.00327721
0.00516718
0.00103795
0.00118026
0.00576166
0.000994872
0.000388441
0.000871675
0.000217187
0.00618634
0.000459301
0.000333473
0.00110198
0.000733122
0.000284991
0.00615462
0.000255755
0.00565643
0.000672077
0.0060772
0.000430586
0.000112864
0.000744066
0.00588637
0.00282327
0.000830216
0.000122691
0.0025826
0.00274451
0.000763966
0.00115457
0.00422191
0.00107837
0.000143965
0.00232792
0.0023274
0.00485773
0.000370641
0.000955218
9.21298e-05
0.000280541
0.000573182
0.000643837
0.000592206
0.00527405
0.00418678
0.00512303
0.00102448
0.00147922
0.00394808
0.00575259
0.00254275
0.00592197
0.000534423
0.00590939
0.000790609
0.00157607
0.000329767
0.0023333
0.00136688
0.00393051
0.00262075
0.00139196
0.000624114
0.000292402
0.00924307
0.000678058
0.00578189
0.000292604
0.000315479
0.00115709
0.000993349
0.000377762
0.000774696
0.000842252
0.00307572
0.00435437
0.000557743
0.001308
0.00427991
0.00099541
0.00022966
0.00403622
0.00545206
0.000570478
0.00412912
0.00237178
0.00596496
0.00248643
0.00411592
0.00564086
0.00404026
0.00632118
0.000471597
0.000994783
0.00114563
0.00577611
0.000655977
0.000147776
0.000169151
0.000384987
0.000499355
0.00405589
0.000508137
0.00911158
0.000981605
0.0015393
0.000215472
0.00591017
0.000471292
0.000890798
0.00590519
0.00411083
0.000118022
0.000699373
0.00528199
0.000411792
0.000248381
0.00118258
0.00050991
0.00366322
0.000137715
0.00105783
0.003079
0.000169807
0.000185636
0.000871466
0.000789646
0.000264308
0.000194225
0.00368362
0.000496908
0.000534655
0.000315658
0.00100812
0.00148272
0.000240933
0.00635113
0.000105568
0.00685779
0.0127727
0.00280917
0.000209197
0.000231629
0.00434226
0.000462041
0.000426641
0.00124165
0.000273633
0.00631264
0.00608288
0.00874006
0.00265689
0.00516676
0.000246244
0.00382552
0.000386069
0.00430022
0.00534027
0.00144614
0.00244361
0.000749266
0.0002434
0.000934169
0.00412803
0.00392834
0.000171021
0.000425001
0.00623197
0.00025446
0.00242136
0.000885828
0.000900228
0.000446813
0.000997984
0.000556858
0.000706564
0.00103889
0.00311245
0.00367522
0.00299157
0.00415968
0.000400711
0.000742923
0.00226016
0.0025021
0.000565756
0.000162035
0.000300895
0.00245528
0.000120269
0.00528607
0.00273453
0.000242178
0.00383684
0.00100816
0.000834427
0.000270255
0.000747123
0.000445516
0.000773805
0.000863691
0.000612385
0.00039613
0.000546568
0.00572996
0.0053066
0.000320858
0.000498438
0.00035905
0.000781941
0.000607634
0.00566188
0.000331067
0.000184304
0.000415238
0.000816353
0.00404429
0.00246154
0.00325589
0.000234499
0.00224812
0.00053058
0.00571957
0.000128013
0.00394073
0.00102638
0.00117297
0.00262969
0.000225916
0.000519832
0.00391983
0.00551735
0.000343331
0.00836442
0.000573424
0.000715244
0.00101908
0.000354645
0.0012216
0.00035954
0.00535107
0.000531194
0.00013978
0.0013682
0.00585457
0.000463678
0.000239733
0.00102357
0.000312434
0.00401086
0.000690472
0.00518259
0.000472124
0.000316486
0.00033864
5.0655e-05
0.00378593
0.00578615
0.00204544
0.00091356
0.00381263
0.00042841
0.00396197
0.000284677
0.00261152
0.00578216
0.000540256
0.000387664
0.000980842
0.00108508
0.000198528
0.000205564
0.00431503
0.00138037
0.00539892
0.00201755
0.00111038
0.00133829
0.000321001
0.00643504
0.0036201
0.00187524
0.00172737
0.000389422
0.000194913
0.000438008
0.0063483
5.37834e-05
0.000339141
0.000366461
0.00289701
0.000185737
0.000977373
0.000357574
0.000719513
0.001929
0.00241709
0.000358349
0.00366506
0.000616413
0.000854626
0.000246037
0.000393491
0.000442401
0.00106649
0.00398983
0.00133398
0.00265061
0.00563532
0.000232912
0.00374937
0.000423747
0.00575549
0.00364127
0.00263907
0.00138612
0.000282862
0.00377892
0.00541193
0.000407206
0.00110866
0.00078006
0.00051744
0.00555466
0.000992924
0.00400812
0.000388089
0.000566944
0.00239451
0.0005292
0.00072324
0.00036766
0.000656645
0.000758819
0.000304815
0.000781762
0.000118291
0.00474071
0.00614321
0.000195748
0.00659769
0.000181791
0.000219735
0.00104221
0.00129206
0.000177375
0.00406865
0.00138697
0.00261331
0.000834852
0.00336274
8.11669e-05
0.0013162
0.00139515
0.000487014
0.00374289
0.000291344
0.000182867
0.00095429
0.000232484
0.00596756
0.00560735
0.000637273
0.000272678
0.000788977
0.000618668
0.00672802
0.00149547
0.00211405
0.00129478
0.000660629
0.00413462
0.000194272
0.000411829
0.00413822
0.00487557
0.00134469
0.000888672
0.00578418
0.000162258
0.00363169
0.00604935
0.00105385
0.000888264
0.00129795
0.000358578
0.000865303
0.000264577
0.00108125
0.000314579
0.000429978
0.000743587
0.00028889
0.0057926
0.00401023
0.000188345
0.000769607
0.00045805
0.00580838
0.00574293
0.000159343
0.00503642
0.000353051
0.000665235
0.00130055
0.00378456
0.0021726
0.000974176
0.00033712
0.000398548
0.000173996
0.00243189
0.00556705
0.000827024
0.0059027
0.00323492
0.00396385
0.00367655
0.000540678
0.0014738
0.000265516
0.000414296
0.000752123
0.00069598
0.00061934
0.000580153
0.00263226
0.000965007
0.000668255
0.000632852
0.00411069
0.000380924
0.00594898
0.000925764
0.00377288
0.000400902
0.000170247
0.00945339
0.00521379
0.000828253
0.00261538
0.00593991
0.000209729
0.00557387
0.00261285
0.00075468
0.000570363
0.00128642
0.00381752
0.000475477
0.00251334
0.00121236
0.000558255
0.000561211
0.000832115
0.00375457
0.000121059
0.000199799
0.00143005
0.000470377
0.000594516
0.000479101
0.00153154
0.00582885
0.00384258
0.000305099
0.00130617
0.000194951
0.00348029
0.000833687
0.00231936
0.000152295
0.000173489
0.000966115
0.00259276
0.00231617
0.00575472
0.000367411
7.75775e-05
0.00244439
0.000272791
0.0056848
0.000378192
0.000739297
0.00612044
0.000370685
0.000285901
0.000467262
0.00996162
0.00645106
0.00453479
0.00241604
0.00225534
0.00601271
0.00550015
0.00639706
0.000988083
0.000720318
0.000404277
0.000645381
0.000435288
0.00581765
0.000365055
0.00020498
0.00584984
0.0059681
0.0058186
0.00110406
0.00523807
0.000444363
0.00455382
0.00159409
0.000998931
0.0034749
0.000841403
0.000434363
0.00119303
0.000134766
0.000427233
0.000838155
0.00277585
0.000450842
0.000319812
0.000524168
0.00584978
0.00141114
0.000445867
0.000115453
0.000368407
0.00105048
0.00232981
0.00414325
0.00612891
0.000632257
0.00144061
0.000948363
0.000471259
0.00326872
0.000385108
0.00283945
0.000459626
0.000666599
0.0035173
0.00334614
0.00100244
0.000296993
0.000447647
0.000448423
0.0011667
0.00207268
0.00010805
0.000518692
0.000213616
0.000301974
0.000200295
0.00110953
0.000923292
0.000117149
0.00579971
0.00378394
0.00649208
0.000573451
0.000364653
0.000756084
0.0025869
0.000261848
0.00326937
0.00231742
0.00562971
0.000173495
0.000714638
0.000586684
0.00561037
0.00322607
0.00296991
0.00563925
0.00354818
0.000729696
0.00093447
0.00528354
0.00400173
0.00240526
0.00128049
0.000832645
0.000220871
0.000748671
0.000345207
0.000121887
0.000678411
0.00392562
0.00139752
0.000270566
0.000140088
0.000272675
0.000140861
0.000513252
0.00154661
0.000314399
0.00251944
0.00407715
0.000463743
0.000658912
0.00612597
0.000843191
0.00563422
0.000244731
0.000286492
0.000569965
0.000614146
0.00256815
0.00608328
0.00261492
0.00144683
0.00106625
0.000415967
0.000463411
0.00451425
0.00107095
0.000459004
0.000834599
0.000359903
0.00551296
0.0024535
0.000365083
0.00058159
0.00103354
0.000785884
0.000542224
0.000193388
0.000148615
0.0006424
0.000656622
0.000903801
0.000270204
0.00100581
0.00534799
0.00555797
0.00115972
0.000369129
0.000595174
0.000668711
0.00557842
0.000431065
8.47446e-05
0.000332874
0.000905121
0.000381504
9.8674e-05
0.000232602
0.000905075
0.000361105
0.000136125
0.0034428
0.00030848
0.000173553
0.00574591
0.000151299
0.00031783
0.000225773
0.000184726
0.000670858
0.0044813
0.000586608
0.00109069
0.000776209
0.00120875
0.000490699
8.29636e-05
0.000991594
0.000120283
0.00571077
0.000122188
0.00368769
0.00407737
0.000113956
0.00539224
0.00096538
0.000510691
0.000668881
0.00257948
0.000752801
0.00574633
0.000189377
0.00382416
0.000763802
0.000287343
0.000221784
0.000722509
0.000290739
0.000383903
0.00111364
0.000410076
0.000393562
0.000369496
0.00390447
0.00100384
0.0010761
0.000884648
0.00245693
0.000114525
0.000501836
0.000568286
0.00558916
0.000267125
0.00589636
0.00097326
0.00542704
0.00371336
0.000530747
0.000182726
0.000267146
0.000396122
0.00488307
0.000608125
0.0054599
0.00507568
0.00024962
0.00282882
0.000871435
0.000179904
0.000368162
0.00577816
0.00241573
0.00408743
0.000946269
0.000623676
0.00218536
0.000206581
0.000942941
0.00240974
0.00157881
0.00519108
0.000278102
0.000634792
0.000889635
0.000237211
0.000888245
0.000606219
0.00019525
0.000986462
0.000270375
0.00106887
0.000589587
0.000929863
0.000760623
0.00111406
0.000542984
0.000210234
0.000452822
0.000352189
0.000944068
0.000345686
0.00402319
0.000532386
0.000974025
0.00221893
0.000188237
0.00126666
0.0104026
0.000459571
0.000779982
0.000817674
0.000220466
0.00362211
0.000281974
0.000483496
0.000442102
0.000826574
0.00258005
0.00257904
0.000185101
0.00377758
0.00412521
0.00604486
0.000113637
0.000466205
0.000902716
0.000190613
0.000146485
0.000145566
0.00282699
0.00042876
0.000742193
0.000826717
0.00113825
0.00124814
0.00443811
0.00632459
0.00600406
0.00205054
0.000550876
0.00112947
0.00105609
0.000979373
0.000430112
0.000662201
0.00583551
0.00158001
0.000757267
0.00078684
0.00124171
0.00240198
0.0028864
0.000143935
0.00351383
0.000485477
0.000225168
0.000668607
0.000393113
0.000859735
0.00207251
0.000649496
0.00133095
0.000802888
0.000343743
0.000896727
0.00259146
0.00388335
0.000813444
0.00136981
0.0025353
0.00416151
0.000881159
0.0051939
0.000762976
0.000384293
0.0034107
0.00102506
0.00130916
0.00039043
0.000180361
0.000710438
0.000316867
0.000612613
0.000370634
0.00104842
0.000342662
0.00213949
0.00129443
0.00253903
0.000975629
0.000456495
0.000775169
0.000293069
0.00080491
0.000751199
0.00565399
0.000865084
0.00567243
0.000977192
0.000300842
0.000170599
0.000608014
0.000252587
0.00406661
0.00401831
0.000640922
0.000985423
0.00291405
0.000276525
0.00376894
0.000495123
0.000124021
0.000297533
0.000280956
0.000665583
0.000354926
0.000545958
0.00376043
0.00094556
0.00428269
0.00408314
0.00226924
9.13362e-05
0.000363112
0.00149444
0.00422945
0.0034368
0.000378659
0.000696458
0.000944194
0.000946546
0.00387918
0.00315261
0.00393173
0.00225655
0.000818695
0.00269706
0.000302033
0.00222165
0.00532736
0.000804442
0.00354077
0.0065896
0.00581786
0.000407612
0.000200053
0.000881987
0.00231029
0.0014832
0.00446882
0.000333999
0.00211837
0.0005031
0.000344614
0.00616545
0.000170216
0.000659338
0.000517444
0.000363916
0.000118722
0.000876549
0.000304713
0.000677903
0.000228194
0.00566323
0.000940853
0.00261359
0.000253462
0.00450311
0.00108753
8.88748e-05
0.0015284
0.000414847
0.00557378
0.000302105
0.000446448
0.000819079
0.000256765
0.000421632
0.000304935
0.00043064
0.000187243
0.000914113
0.00256587
0.00260116
0.000218738
0.000780447
0.000203761
0.00026514
0.000535003
0.000472654
0.000281899
0.00409209
0.000234905
0.00120945
0.00454693
0.000200658
0.00464032
0.000225168
0.00215072
0.0036978
0.000218436
0.00362324
0.00535838
0.00561967
0.00428866
0.0038723
0.000723607
0.00068552
0.00106198
0.000148265
0.00248751
0.000542022
0.00121133
0.000507799
0.0058709
0.000132999
0.000430296
0.000233441
0.000483439
0.0053199
0.00399461
0.000136379
0.00554559
0.000952219
0.0038669
0.000202846
0.0019684
0.0012311
0.00123828
0.000403966
0.00386307
0.00550054
0.00400217
0.000211398
0.00232446
0.00564147
0.000354614
0.00090875
0.00538599
0.000750062
0.00469869
0.000117858
0.000167773
0.000931906
0.000618012
0.00935314
0.000405063
0.00427045
0.00101015
0.000333585
0.000330366
0.000513862
0.000900879
0.000398018
0.00471688
0.00021737
0.000525542
0.00123161
0.00117966
0.00246509
0.00582939
0.000438988
0.000359688
0.000706312
0.00204637
0.000289506
0.00619011
0.00551749
0.00374116
0.000720034
0.00437992
0.000272065
0.00595816
0.00373034
0.000369053
0.00251617
0.00395139
0.00409788
0.000115676
0.000356631
0.00113684
0.00253114
0.000203732
0.00028997
0.000298456
0.000311009
0.000430323
0.00076729
0.00100541
0.00600778
0.000411063
0.00128905
0.00223957
0.0048226
0.000742012
0.000597878
0.000626572
0.000315655
0.00634218
0.000360039
0.000171775
0.00605479
0.000208002
0.000584535
0.000329019
0.00331679
0.000711417
0.00340425
0.00103063
0.00228909
0.00559789
0.000931202
0.000415214
0.00218845
0.000142506
0.000516286
0.00049453
0.000820812
0.00263977
0.00547087
0.00068207
0.000250552
0.000196095
0.000479545
0.00264181
0.000140887
0.0027184
0.00216458
0.000232479
0.00184152
0.000459113
0.000417738
0.000437046
0.00388532
0.00594763
0.000903192
0.000531555
0.0033732
0.00445975
0.000901463
0.000364697
0.000302893
0.00589848
0.000898435
0.00046911
0.000571173
0.000355239
0.000163783
0.000339136
0.00118981
0.000123931
0.000506469
0.000980829
0.00544072
0.00608355
0.000260639
0.000528182
0.000286473
0.000394285
0.000643662
0.00038782
0.000827824
0.000449986
0.000286526
0.000659326
0.000571243
0.000385362
0.000581049
0.000748387
0.000582701
0.000721279
0.00506781
0.000160955
0.000179596
0.000141661
0.000190899
0.000203426
0.000758325
0.00384499
0.000160536
0.000550036
0.00024216
0.000163944
0.00389022
0.00147263
0.000410862
0.0062905
0.000340099
0.00420735
0.000260629
0.00016636
7.26102e-05
0.00013762
0.000237963
0.00380081
0.00572486
0.00985055
0.00144866
0.00377925
0.000315188
0.00058472
0.00362768
0.00153156
0.000496977
0.00106213
0.000254014
0.000199023
0.00144525
0.00115514
0.000538568
0.00602291
0.000687629
0.00389983
0.00613696
0.00039032
0.00214664
0.000460967
0.000392423
0.000901291
0.000683484
0.000997641
0.000216953
0.000261672
0.000209481
0.00308503
0.00477409
0.000348434
0.000472149
0.000487341
0.00119009
0.000950518
0.000732908
0.000273812
0.000380771
0.000387416
0.00091771
0.000475256
0.00119061
0.00012816
0.000202959
0.000413685
0.000629025
0.00411289
0.000201184
0.000193657
0.000292614
0.000806995
0.000159153
0.000800609
0.00390115
0.00016252
0.00209261
0.00321161
0.00028997
0.00101972
0.000916137
0.000597852
0.000130523
0.00558667
0.000696786
0.000380042
0.000536234
0.00226866
0.000593121
0.00119616
0.000149951
0.00123624
0.000433165
0.00010419
0.000257753
0.00617225
0.000177075
0.000206775
0.000477458
0.000700114
0.000254995
0.000315027
0.0123962
0.00107354
0.00363756
8.65139e-05
0.000667712
0.000436424
0.000499719
0.000771833
0.00119393
0.00337631
0.0053646
0.000480008
0.000402133
0.00889595
0.00372953
0.00016632
0.000235804
0.00282825
0.000364238
7.58811e-05
6.85304e-05
0.000136321
0.00594411
0.000195989
0.00181504
0.00387883
0.000441653
0.00236661
0.000813306
0.00547071
0.0040477
0.000885695
0.00255807
0.000219892
0.00283288
0.000415857
0.00415725
0.00459542
0.000232904
0.00530384
0.00276251
0.000111825
0.00544196
0.000326212
0.0031536
0.00224938
0.00285705
0.000697357
0.00429482
0.00427415
0.000222098
0.000523206
0.000295795
0.00278161
0.000311568
0.000881516
0.000221703