/*--------------------------------*- C++ -*----------------------------------*\
| =========                 |                                                 |
| \\      /  F ield         | OpenFOAM: The Open Source CFD Toolbox           |
|  \\    /   O peration     | Version:  2406                                  |
|   \\  /    A nd           | Website:  www.openfoam.com                      |
|    \\/     M anipulation  |                                                 |
\*---------------------------------------------------------------------------*/
FoamFile
{
    version     2.0;
    format      ascii;
    arch        "LSB;label=32;scalar=64";
    class       volVectorField;
    location    "48";
    object      momentum:angularMomentum;
}
// * * * * * * * * * * * * * * * * * * * * * * * * * * * * * * * * * * * * * //

dimensions      [1 1 -1 0 0 0 0];

internalField   nonuniform List<vector> 
59516
(
(-1.38994e-09 -1.26824e-09 2.24383e-07)
(5.83855e-10 -4.12613e-10 1.67398e-07)
(-7.88449e-10 1.39729e-09 2.04402e-07)
(-3.17538e-09 -5.69117e-10 1.73559e-07)
(-8.01631e-09 5.34182e-10 2.00074e-07)
(-5.20286e-09 2.76925e-09 5.03647e-08)
(-3.22112e-09 -2.53678e-09 2.10277e-07)
(-6.06038e-10 -1.20293e-09 1.96283e-07)
(-1.3477e-09 2.51912e-10 1.57441e-07)
(3.10392e-09 1.60204e-09 7.95642e-08)
(-3.18657e-09 -3.7903e-10 2.0833e-07)
(-4.98232e-09 -3.81203e-09 1.02051e-07)
(-2.52161e-09 -1.84924e-09 3.22533e-07)
(6.14173e-11 -1.65133e-10 1.56429e-08)
(4.83548e-10 -8.99747e-09 1.51558e-07)
(-2.37632e-09 6.01145e-09 8.47234e-08)
(-3.28735e-09 -7.02349e-10 2.68663e-07)
(-1.30031e-08 -3.61021e-09 1.59807e-07)
(-1.69993e-08 -3.62792e-09 3.30046e-07)
(-1.704e-09 1.34821e-09 3.71913e-07)
(-2.5704e-09 1.1993e-09 9.96678e-08)
(8.15781e-10 1.59304e-09 3.18345e-07)
(-4.64293e-09 -1.55225e-09 3.51463e-07)
(9.11951e-10 5.91218e-10 3.47276e-08)
(4.7369e-10 1.4775e-09 3.12026e-07)
(-6.27121e-10 4.8095e-09 2.01079e-07)
(-6.64661e-10 3.65851e-09 5.21536e-08)
(-5.81136e-09 -2.49503e-09 7.41537e-08)
(-5.74054e-09 -2.00071e-09 1.44748e-07)
(1.67583e-09 1.35829e-09 1.34106e-08)
(-3.76156e-08 2.1046e-09 1.89449e-07)
(-5.39081e-09 4.11599e-09 8.37727e-08)
(-1.03983e-09 -3.94717e-10 1.74716e-07)
(-3.32985e-09 -1.69365e-09 1.75323e-07)
(-6.2779e-09 -8.78638e-11 1.33562e-07)
(-1.07753e-09 3.12626e-10 3.99385e-07)
(-1.95439e-09 1.0275e-09 1.30098e-08)
(-1.30355e-08 -4.13894e-09 1.31702e-07)
(-1.05718e-08 1.19153e-09 2.66978e-07)
(9.00719e-10 1.10861e-09 2.8122e-07)
(8.74109e-11 -1.67172e-09 2.57139e-07)
(-3.26958e-08 -8.77391e-12 4.06901e-07)
(-1.13714e-08 2.25506e-09 3.43236e-07)
(-6.9902e-10 4.16033e-10 1.10769e-07)
(-9.24711e-09 1.44997e-09 2.65013e-07)
(2.66836e-09 7.34337e-10 1.02184e-07)
(-1.26544e-08 3.36441e-10 3.24694e-07)
(-7.64389e-09 1.0728e-09 2.54305e-07)
(-3.4384e-08 3.1149e-09 2.51869e-07)
(-1.36568e-08 3.60507e-10 2.40947e-07)
(-2.81977e-08 8.21128e-10 1.63912e-07)
(-7.05907e-09 -3.37756e-09 7.62144e-08)
(7.7406e-10 -6.60488e-09 3.15731e-07)
(-8.13044e-10 1.12689e-09 3.0062e-07)
(-5.02832e-09 1.25065e-09 8.23596e-08)
(-5.55553e-09 8.90958e-10 2.46258e-07)
(-1.67072e-08 1.86386e-11 2.03375e-07)
(-7.54623e-09 -2.82622e-09 7.73384e-08)
(-3.78095e-10 -2.80993e-10 2.09127e-07)
(-1.10789e-08 -4.08942e-10 1.45771e-07)
(-2.44687e-10 6.33926e-10 2.08603e-07)
(-1.17666e-09 1.6234e-09 1.52328e-08)
(-1.08811e-09 5.46816e-10 2.66894e-07)
(-6.47834e-09 7.8375e-11 3.42259e-07)
(-1.24006e-09 1.09516e-09 2.91427e-07)
(-9.44631e-09 1.53233e-10 2.15218e-07)
(1.42969e-10 2.05628e-09 1.8085e-08)
(-2.24241e-10 4.91831e-10 6.61399e-08)
(-3.7233e-08 6.14958e-10 1.98313e-07)
(-4.03799e-09 -1.08891e-09 1.69189e-07)
(-8.86979e-10 -1.22707e-09 5.20968e-08)
(-1.78105e-09 -8.11228e-10 1.57638e-07)
(3.56003e-09 -1.43401e-09 2.32884e-08)
(-1.64609e-09 -5.33186e-10 1.86192e-07)
(6.85908e-12 -7.32718e-10 3.77515e-07)
(-8.37133e-09 4.84678e-10 3.60256e-07)
(-5.78111e-09 1.81462e-10 2.14651e-07)
(2.27626e-10 1.76779e-10 2.26537e-07)
(3.41695e-09 1.86381e-09 8.48829e-08)
(-1.06297e-08 9.29889e-10 1.93005e-07)
(-3.40304e-09 2.77841e-11 5.06649e-08)
(-8.57567e-09 4.91487e-10 1.71351e-07)
(-8.07097e-09 5.1678e-10 1.82765e-07)
(-2.30709e-09 1.24934e-09 1.81232e-08)
(-1.05266e-08 1.14663e-09 2.15034e-07)
(-1.75645e-10 1.65932e-09 3.8149e-07)
(6.12583e-10 1.08814e-09 3.16043e-08)
(2.45811e-10 4.47827e-10 5.02607e-07)
(-4.17449e-09 -2.21141e-09 1.10407e-07)
(-1.54756e-08 -3.86064e-09 1.66809e-07)
(-1.60716e-08 -3.48165e-11 1.83412e-07)
(-1.56112e-09 1.7039e-09 1.89318e-07)
(-3.5279e-10 -1.12282e-12 2.60184e-07)
(-1.75651e-10 1.66497e-09 1.82502e-07)
(-2.61152e-10 3.33058e-10 1.83125e-07)
(-1.88076e-08 -1.11908e-10 1.83436e-07)
(-4.72043e-10 -3.62728e-10 1.24388e-07)
(3.39657e-09 6.48949e-09 8.48095e-08)
(-4.34636e-09 -1.76926e-09 1.1529e-07)
(2.05371e-09 1.59268e-09 2.07663e-07)
(-2.05232e-09 1.50289e-09 6.2068e-08)
(2.9174e-09 1.50912e-09 2.6355e-08)
(2.93349e-09 1.54013e-09 2.3273e-08)
(-3.12521e-09 3.58352e-09 8.47617e-08)
(1.28413e-09 -1.06061e-10 2.34052e-07)
(-9.07195e-11 -3.86982e-10 1.63701e-07)
(2.58869e-09 -4.54995e-09 5.52433e-08)
(-9.71439e-10 -5.54035e-10 1.37632e-07)
(-4.82287e-10 1.14657e-09 1.7564e-07)
(-4.14085e-09 6.52492e-09 1.88633e-07)
(-4.20053e-08 -5.25912e-10 2.80303e-07)
(3.23093e-09 -3.00756e-09 4.30933e-08)
(-7.27232e-09 9.36239e-09 1.87507e-07)
(-3.61864e-08 -8.71432e-11 2.19225e-07)
(9.07534e-11 -4.94096e-11 2.2116e-07)
(1.37734e-09 -1.6187e-09 1.37242e-07)
(-4.21647e-09 -2.63902e-09 1.2643e-07)
(-4.29447e-10 -7.25125e-10 1.43849e-07)
(-3.31987e-10 -8.60613e-10 1.83391e-08)
(-1.54917e-09 1.69022e-09 2.625e-07)
(1.09272e-09 1.79007e-10 4.12921e-07)
(-4.84994e-10 5.37384e-10 1.76875e-07)
(8.08395e-10 4.45531e-10 1.59854e-07)
(-7.53029e-10 4.42152e-10 1.83619e-07)
(-1.80786e-08 1.17092e-09 1.33051e-07)
(-5.19485e-09 1.75877e-10 1.43856e-07)
(-2.20313e-09 -1.02842e-09 3.57703e-08)
(-2.08537e-08 3.2061e-09 2.12217e-07)
(-2.37436e-08 5.58793e-09 1.63205e-07)
(3.73861e-10 -2.42013e-10 1.60811e-07)
(1.50243e-10 -4.61576e-10 2.85811e-07)
(4.68367e-09 5.69458e-09 3.23512e-07)
(-5.22542e-10 -1.97794e-09 2.26196e-08)
(5.26039e-10 9.76844e-10 2.55295e-07)
(3.81718e-09 1.05842e-09 3.14605e-07)
(-3.23944e-09 1.74484e-09 1.96838e-07)
(-2.19875e-08 1.98863e-09 1.51791e-07)
(4.03349e-10 1.24674e-09 3.12889e-07)
(-4.89513e-10 3.54843e-09 5.19227e-08)
(-1.5809e-09 1.42172e-09 1.58909e-07)
(-1.74615e-09 3.76778e-09 7.60769e-08)
(-9.14666e-10 -7.60962e-10 3.33055e-07)
(-6.56092e-10 -1.18109e-09 1.38551e-08)
(-5.45881e-10 1.32808e-09 1.5041e-07)
(-1.12643e-09 2.95526e-10 2.17878e-07)
(-3.32829e-09 1.39557e-09 2.83657e-07)
(-7.85768e-09 1.96656e-09 2.02896e-07)
(-5.27359e-09 2.16734e-09 2.0543e-07)
(9.76252e-10 -1.81771e-09 6.40331e-08)
(-3.8842e-10 2.12083e-09 2.06817e-07)
(-3.34782e-10 -2.61429e-09 3.18289e-07)
(2.56442e-10 1.96986e-09 5.21886e-08)
(2.3563e-09 2.41767e-09 3.87354e-07)
(6.26052e-10 2.88311e-10 2.18335e-07)
(-1.26255e-09 -3.57513e-09 1.58596e-07)
(-1.37084e-09 8.25025e-10 1.45839e-08)
(-5.12708e-10 -6.08421e-10 2.77333e-07)
(-3.42515e-09 2.15915e-09 3.29889e-07)
(-1.7498e-09 8.43063e-10 1.28607e-07)
(-2.26992e-09 -1.61019e-09 1.56917e-08)
(3.76129e-09 3.36115e-09 8.86053e-08)
(6.23669e-09 -3.53681e-09 1.11243e-07)
(-7.05251e-10 1.52238e-09 3.96147e-08)
(-2.1129e-10 -4.27664e-10 2.23221e-08)
(4.92724e-09 1.33493e-10 1.62563e-07)
(-2.01221e-09 6.45201e-10 3.30005e-07)
(2.11728e-09 -8.14963e-11 1.55326e-07)
(-1.20677e-09 -5.74216e-10 2.84245e-07)
(1.01643e-09 1.99966e-09 1.7142e-08)
(-3.34217e-11 -9.1303e-10 2.15069e-07)
(-1.42591e-09 -1.17597e-09 8.67807e-08)
(-1.13781e-09 8.6278e-10 6.68932e-08)
(-1.15133e-10 -3.02126e-09 1.05565e-07)
(3.37891e-10 -6.75732e-10 1.51276e-07)
(7.89418e-10 1.13469e-09 8.47114e-08)
(-1.85331e-08 -1.83635e-09 4.53111e-07)
(-1.3948e-09 6.40798e-10 2.4961e-07)
(-1.36482e-08 1.22288e-09 3.09988e-07)
(9.09476e-10 -7.09419e-09 1.48116e-07)
(7.11363e-10 4.87131e-10 6.19787e-08)
(-2.60468e-09 -4.02661e-09 3.07895e-07)
(1.13982e-09 3.94896e-09 4.24841e-08)
(-1.0438e-09 -2.11541e-09 2.96634e-08)
(9.5021e-10 2.49097e-09 1.04407e-07)
(1.09878e-10 -6.76194e-10 2.07561e-07)
(-6.32625e-10 1.12215e-09 9.69321e-08)
(-3.57395e-09 7.19921e-10 4.57207e-08)
(1.334e-10 2.34141e-10 2.01056e-08)
(-2.12671e-10 1.35934e-10 1.90719e-07)
(3.50281e-09 1.96279e-09 2.25167e-07)
(-3.32994e-09 -2.8757e-10 1.58768e-07)
(-2.0942e-09 -6.64908e-09 1.14427e-07)
(-8.44693e-10 -5.12002e-10 2.15868e-07)
(2.69999e-09 -2.25526e-09 9.37607e-08)
(-6.47495e-10 -8.74571e-11 3.39873e-07)
(4.07744e-10 7.22528e-10 2.85329e-08)
(1.27799e-09 3.64741e-10 9.66381e-08)
(4.40016e-10 -1.54268e-09 5.64104e-08)
(-7.86817e-09 -2.90475e-10 1.85231e-07)
(8.68322e-10 -1.15522e-09 2.65186e-07)
(-1.61202e-09 -2.15201e-09 7.70891e-08)
(-7.06755e-10 -4.20888e-10 1.96085e-07)
(5.00224e-10 3.49027e-09 3.11484e-07)
(1.35138e-09 -1.57621e-09 1.58804e-08)
(1.45128e-09 1.52611e-09 2.19861e-07)
(-3.95537e-10 -4.93122e-10 2.39124e-07)
(-3.11457e-11 -6.88342e-10 3.54218e-07)
(1.46625e-09 -1.262e-09 2.00002e-07)
(1.75938e-10 -5.66513e-10 1.80579e-08)
(4.74866e-09 2.55137e-09 3.01584e-07)
(-6.15864e-10 5.64131e-09 6.03275e-08)
(-4.10354e-09 8.46538e-10 2.5128e-08)
(-1.58195e-09 1.72665e-09 2.31965e-07)
(-5.37931e-10 2.34698e-09 9.45642e-08)
(-2.0755e-09 -3.04488e-09 2.92871e-07)
(3.33133e-10 -3.49449e-10 2.90533e-07)
(-2.27387e-09 8.63972e-10 2.72873e-07)
(-1.57774e-09 1.16935e-09 2.08194e-07)
(-2.65349e-09 4.82986e-09 8.25687e-08)
(1.16431e-09 -6.13997e-11 2.19499e-07)
(-2.11066e-09 -5.77454e-09 1.18127e-07)
(-3.69248e-10 5.27802e-10 1.94604e-07)
(-8.29667e-10 -9.54382e-10 1.81189e-07)
(7.73885e-10 -1.05709e-09 7.33399e-08)
(4.65204e-11 -4.66128e-10 2.99688e-07)
(1.40614e-09 2.75498e-10 3.13588e-07)
(-1.13542e-09 -1.1966e-09 3.16336e-08)
(-3.61036e-09 8.21069e-10 6.48405e-08)
(2.13117e-10 9.2142e-10 2.01375e-07)
(-4.49902e-09 7.573e-09 1.16847e-07)
(2.83428e-10 8.23336e-10 2.44128e-07)
(-3.86883e-10 3.31325e-10 1.8195e-07)
(-1.40181e-09 -8.26869e-10 3.2587e-07)
(-1.28907e-09 -2.2067e-09 2.65138e-08)
(-1.27455e-09 -1.13595e-09 3.10042e-08)
(-1.73342e-09 1.77149e-12 3.87751e-08)
(9.8465e-11 -6.85364e-10 1.08339e-07)
(-2.38299e-09 -4.4352e-10 1.73605e-07)
(-4.22396e-09 1.07803e-09 4.21754e-07)
(2.93548e-09 -4.56222e-10 8.61005e-08)
(7.27862e-10 4.8616e-10 2.56412e-07)
(2.2545e-09 1.59687e-09 1.85453e-08)
(1.47756e-09 1.08767e-09 1.09231e-07)
(2.51278e-09 1.53344e-09 2.65686e-08)
(6.85015e-10 3.0374e-10 1.67544e-07)
(-6.20961e-10 -7.4221e-10 1.51732e-07)
(-1.27619e-09 3.10548e-10 1.97364e-07)
(-2.11384e-09 4.38168e-09 1.84699e-07)
(-6.21299e-10 -2.52941e-10 2.80557e-07)
(-8.83763e-10 -5.52536e-10 1.98781e-07)
(9.57442e-10 -1.93471e-10 3.84166e-07)
(-9.63709e-10 1.46321e-10 2.13142e-07)
(7.29851e-10 2.8501e-10 1.97488e-07)
(5.71606e-10 1.73984e-09 2.82214e-07)
(-1.40717e-09 2.58783e-09 2.83284e-07)
(-9.28174e-10 1.10144e-09 3.01853e-07)
(-5.39e-10 8.26053e-11 1.1093e-07)
(-3.61381e-09 7.81264e-10 2.85111e-07)
(2.37039e-09 3.81568e-09 7.97213e-08)
(-4.54989e-10 3.45485e-09 9.68861e-08)
(-1.8972e-09 1.09591e-09 2.1801e-07)
(-4.36257e-10 8.39992e-10 2.63883e-07)
(6.91694e-09 1.54199e-09 2.37941e-07)
(5.9859e-10 5.58041e-10 2.88973e-07)
(1.61516e-09 5.34302e-11 7.40139e-08)
(-8.25562e-11 -5.02234e-09 1.06167e-07)
(-1.1035e-09 -2.12644e-09 3.06176e-07)
(4.69305e-09 2.80467e-10 2.13328e-07)
(-7.26095e-10 -1.17447e-09 6.07009e-08)
(-6.65116e-10 2.0302e-09 7.36113e-08)
(-4.16581e-09 3.87965e-09 1.64442e-07)
(-4.93339e-10 -3.56008e-10 1.89277e-07)
(-4.70739e-09 5.82894e-09 3.05865e-07)
(-1.10481e-09 2.46399e-09 1.47795e-07)
(-2.24204e-09 -5.82898e-10 3.36968e-07)
(9.4676e-11 5.13337e-09 1.88911e-07)
(-1.11953e-09 -2.39115e-09 1.91865e-08)
(1.43226e-09 9.25696e-10 2.99333e-07)
(2.41146e-09 -1.85505e-09 2.83455e-08)
(2.24772e-09 1.16157e-09 5.16483e-08)
(-1.81805e-09 -7.27737e-10 3.60784e-07)
(-6.80158e-10 -7.22806e-11 2.50021e-07)
(-3.68128e-09 1.92774e-09 2.73939e-08)
(-3.16196e-10 -2.46454e-09 2.9681e-07)
(-2.43622e-09 -4.1398e-09 2.45085e-07)
(-2.76021e-09 7.33784e-10 2.51148e-07)
(9.22593e-10 -7.60814e-10 3.30731e-07)
(1.92853e-09 -1.9637e-09 2.28172e-08)
(6.78042e-11 1.01065e-09 2.85176e-07)
(-2.14188e-10 -1.65909e-10 1.52088e-07)
(-4.24106e-10 -6.03419e-10 1.61713e-07)
(-1.91934e-09 5.4154e-10 2.52651e-07)
(-1.37826e-09 9.88408e-10 1.70419e-07)
(-6.82154e-10 -7.52101e-10 1.75761e-07)
(2.48899e-10 -1.45734e-09 2.6804e-07)
(6.31577e-12 2.22163e-09 3.81132e-08)
(-2.66414e-11 -1.25201e-09 2.84694e-07)
(6.9216e-10 8.95959e-10 1.90056e-07)
(-7.2162e-10 -1.68288e-10 3.68995e-07)
(-1.23901e-09 3.68132e-10 2.70606e-07)
(1.21343e-09 -1.68964e-09 3.06929e-07)
(2.32322e-09 -2.76308e-09 1.34552e-07)
(-5.93671e-10 -1.24935e-09 1.94503e-08)
(8.80355e-10 5.35639e-10 3.48528e-08)
(-4.00947e-09 9.27612e-10 5.12006e-07)
(-2.58302e-09 1.04682e-09 1.79258e-08)
(-2.25422e-09 -2.14279e-09 1.70854e-07)
(-1.3769e-09 4.09896e-09 7.24283e-08)
(-1.01509e-09 -1.6209e-09 3.16506e-07)
(-1.13394e-09 -7.48778e-11 3.75981e-07)
(-7.2003e-10 1.21698e-09 3.1456e-07)
(2.25448e-09 1.52416e-09 1.21212e-07)
(8.03201e-09 -1.47375e-11 2.93872e-07)
(9.99578e-11 7.12048e-09 6.67161e-08)
(4.85616e-10 -2.68817e-09 8.6831e-08)
(-3.52781e-10 9.92164e-10 2.00735e-07)
(6.63819e-10 -2.13326e-09 1.54667e-07)
(-3.19053e-08 -3.83747e-09 2.69475e-07)
(4.86365e-10 -4.44612e-09 1.90416e-07)
(-6.58002e-10 -8.05291e-11 6.31173e-08)
(3.52846e-09 -2.42472e-10 1.01578e-07)
(-1.3583e-09 -3.39782e-09 2.05358e-07)
(-3.8692e-10 -8.63902e-11 2.17524e-07)
(9.46726e-10 -2.50275e-09 4.2694e-07)
(-8.45345e-10 8.36904e-10 2.27932e-07)
(4.83446e-10 3.83121e-09 4.90271e-07)
(-1.02125e-08 -1.11909e-09 1.66618e-07)
(-2.84301e-09 -3.78648e-10 3.3595e-07)
(-2.25017e-09 9.18536e-10 2.78877e-07)
(9.53874e-10 2.9158e-10 1.97759e-07)
(2.09267e-09 3.5643e-10 3.38575e-07)
(-4.89213e-09 -4.12903e-09 1.0232e-07)
(2.83598e-09 -1.17944e-09 2.27617e-08)
(2.61904e-09 1.79922e-10 2.94255e-07)
(1.65681e-09 3.83161e-09 5.72068e-08)
(3.50511e-11 -1.22818e-10 2.76838e-08)
(-4.36743e-09 -1.57223e-10 3.95523e-07)
(6.73227e-10 3.3906e-10 1.99598e-07)
(-3.58691e-09 4.57033e-09 1.06375e-07)
(-7.46879e-10 -1.17458e-09 2.5625e-07)
(9.15271e-10 2.30832e-09 3.29448e-07)
(-2.08669e-09 6.36011e-10 4.29299e-07)
(-1.93846e-09 1.79312e-10 2.69373e-07)
(-1.01775e-10 -1.44893e-09 3.06171e-08)
(-1.7434e-10 9.24767e-11 3.17132e-07)
(-1.47283e-09 3.72398e-10 2.20891e-07)
(4.62417e-10 1.31694e-09 9.7228e-08)
(-3.73234e-10 -1.87885e-09 2.98671e-07)
(-6.63167e-10 6.15052e-10 2.5368e-07)
(8.78216e-10 7.31758e-10 1.72945e-07)
(9.86998e-10 1.2535e-09 1.98624e-07)
(-5.2171e-10 -3.31618e-09 2.76776e-07)
(1.02302e-09 1.54443e-09 2.0089e-07)
(-4.14911e-10 1.65119e-10 7.66869e-08)
(-3.89938e-10 9.67184e-10 1.97126e-08)
(3.573e-10 2.81166e-09 3.85551e-08)
(1.12269e-09 -4.3979e-10 2.16707e-07)
(-3.91519e-08 -2.09869e-10 2.67841e-07)
(-1.14162e-08 1.18989e-09 1.15792e-07)
(4.74414e-10 -4.99442e-10 1.09956e-07)
(3.35741e-09 -2.85929e-09 2.45683e-07)
(-1.22925e-09 1.38012e-09 3.07081e-07)
(-6.39599e-09 4.21076e-10 2.31887e-07)
(9.18877e-10 2.28326e-09 3.59406e-07)
(-1.24722e-09 -1.82945e-09 3.36141e-07)
(7.71565e-11 -9.27465e-10 2.23558e-07)
(-8.24552e-10 -1.27647e-10 1.3854e-07)
(-3.23134e-10 6.86943e-10 2.33593e-08)
(-4.78762e-08 1.72982e-09 2.41072e-07)
(6.59428e-10 2.20952e-09 8.57702e-08)
(-1.46721e-09 2.4584e-09 6.25164e-08)
(1.37766e-09 5.41512e-10 6.61985e-08)
(2.9153e-10 7.17606e-10 1.73701e-07)
(-8.85017e-10 5.18956e-10 1.71518e-07)
(-1.82124e-09 6.75853e-10 2.36471e-07)
(-1.08026e-09 1.29305e-09 1.65703e-08)
(5.17625e-10 -4.67855e-10 1.68607e-07)
(1.65342e-09 -1.00084e-09 6.31749e-08)
(-2.11469e-10 3.05081e-10 1.87645e-07)
(-5.87444e-10 7.10635e-10 5.43786e-08)
(4.13171e-09 1.76382e-09 1.45217e-07)
(1.60811e-09 5.69266e-09 2.15944e-07)
(-1.95217e-09 -4.13412e-10 1.85446e-07)
(2.4627e-09 -1.95977e-10 1.83713e-08)
(-2.55092e-10 4.79576e-09 1.10524e-07)
(1.29479e-10 -1.10581e-09 2.37817e-07)
(7.43707e-11 -2.47634e-09 2.45313e-08)
(-2.10677e-08 -6.43457e-10 2.89594e-07)
(8.53437e-10 -4.17006e-09 1.80804e-07)
(-5.91896e-10 -4.79236e-09 3.01998e-07)
(4.83885e-09 -5.64094e-09 1.9761e-07)
(2.40345e-09 8.13488e-10 9.25795e-08)
(1.46892e-09 -3.80563e-10 3.94912e-07)
(-1.87357e-08 -5.9419e-09 1.42006e-07)
(-4.25291e-10 -1.92834e-10 3.34004e-07)
(-1.74057e-08 1.1526e-09 1.55505e-07)
(-5.14175e-09 3.77632e-09 1.39317e-07)
(-8.80789e-10 3.3212e-09 1.41682e-07)
(5.91047e-11 -5.38436e-10 2.75184e-07)
(1.39738e-09 -1.20829e-09 5.45526e-07)
(9.27251e-10 -8.15553e-10 7.89419e-08)
(-9.78635e-10 -1.56626e-09 3.35447e-07)
(-2.70007e-09 8.88044e-10 1.18346e-07)
(-4.05565e-13 -1.43662e-09 4.41633e-07)
(6.85061e-10 -1.76802e-09 3.36746e-07)
(-1.59903e-09 -5.32836e-09 6.85847e-08)
(-7.05723e-10 1.65685e-09 2.17083e-07)
(6.21068e-09 -5.01619e-10 3.81221e-07)
(-1.09241e-09 -5.92359e-10 2.27844e-07)
(4.35861e-10 -1.22193e-09 2.22127e-07)
(2.67049e-09 -1.42593e-09 2.3179e-08)
(-2.5391e-09 -6.68908e-10 1.94344e-08)
(-3.46391e-09 3.18153e-09 2.92242e-07)
(-2.18812e-11 -6.85396e-11 2.8687e-07)
(1.66749e-09 1.18986e-09 2.23697e-07)
(-2.30821e-09 1.2388e-09 3.51168e-08)
(7.04638e-10 -5.33776e-10 8.97215e-08)
(-3.51264e-09 -5.09138e-10 2.99613e-07)
(-9.1298e-11 -4.28394e-10 1.69902e-07)
(-1.76789e-10 1.48319e-09 3.12316e-07)
(1.12645e-09 -1.54802e-11 2.88132e-07)
(6.61241e-11 -1.15791e-09 2.20537e-07)
(-3.73923e-10 -2.08468e-09 2.3483e-07)
(3.95177e-10 -7.62422e-10 1.2053e-07)
(-7.34383e-10 4.44473e-10 2.15957e-07)
(-2.88845e-09 3.52741e-09 8.70902e-08)
(-8.14023e-10 3.05474e-10 2.89817e-07)
(-1.70632e-09 -1.04419e-09 1.8881e-07)
(-1.33966e-09 -5.35847e-10 2.15039e-07)
(-2.48722e-10 -1.79273e-10 2.22848e-07)
(-3.31118e-10 1.09815e-09 3.50049e-07)
(1.77738e-09 -1.49603e-09 2.65795e-07)
(2.89862e-09 4.35239e-09 6.68432e-08)
(1.16956e-09 2.16947e-12 4.41248e-08)
(-1.7663e-09 -1.80897e-09 1.91764e-08)
(-1.30115e-08 6.83733e-11 2.31998e-07)
(3.6069e-10 6.83099e-12 2.974e-07)
(-2.00637e-09 4.22524e-10 2.71903e-07)
(-1.81164e-10 -1.44801e-09 1.92304e-07)
(1.08586e-09 2.21957e-10 2.94435e-08)
(6.74497e-10 -2.47777e-09 2.21903e-08)
(-9.08014e-10 -2.65222e-09 1.80001e-07)
(-1.61231e-09 1.54838e-09 2.33101e-07)
(-7.11138e-10 -1.54206e-09 3.13173e-07)
(8.87139e-10 -1.88145e-10 3.20048e-07)
(-2.09517e-09 1.42479e-10 1.98158e-07)
(-7.39688e-10 1.89097e-11 3.45651e-07)
(3.27585e-09 4.04902e-10 3.74424e-07)
(-1.31871e-09 2.69905e-09 3.12552e-08)
(3.01915e-10 1.183e-09 1.82213e-07)
(3.32433e-09 -1.88292e-09 7.2252e-08)
(-9.91504e-09 -1.09247e-09 9.7577e-08)
(-4.0961e-10 2.50742e-10 1.28751e-07)
(6.79314e-10 -4.53298e-10 1.41379e-07)
(-2.06643e-10 3.5045e-10 2.5271e-07)
(-3.23039e-09 2.03678e-09 1.90998e-08)
(5.75236e-10 -1.20638e-09 3.57608e-07)
(-5.22325e-10 -4.18902e-11 2.68496e-07)
(-7.45977e-10 -2.64666e-10 2.17079e-07)
(1.49753e-09 -1.44769e-09 2.00833e-07)
(5.94998e-10 -1.8565e-09 1.71501e-07)
(-5.00095e-10 -1.07391e-09 2.62864e-07)
(-1.46755e-10 8.96377e-10 2.46089e-07)
(-1.33939e-09 5.56485e-10 3.06101e-07)
(-8.84124e-09 -9.24804e-10 1.66763e-07)
(-7.33902e-10 -5.32282e-10 2.69047e-07)
(-5.08711e-09 2.2044e-09 2.90307e-07)
(1.33471e-09 -1.14543e-09 1.82706e-08)
(6.32968e-11 8.1022e-11 3.07581e-07)
(2.22357e-09 2.80764e-09 1.90784e-07)
(-4.1014e-09 -3.82621e-09 6.40964e-08)
(-1.87422e-09 2.73415e-09 1.7086e-07)
(3.92659e-10 2.49848e-10 3.44809e-07)
(-1.1576e-11 -1.88791e-09 2.23645e-07)
(1.32401e-09 3.0863e-09 1.18004e-07)
(-1.99063e-09 1.3953e-09 1.80239e-08)
(-1.96052e-10 5.65076e-10 2.57624e-07)
(1.60432e-09 6.49236e-09 3.35348e-07)
(-1.11826e-09 -1.52294e-10 2.3648e-07)
(-1.15048e-09 -2.7928e-10 1.87814e-07)
(-3.50862e-09 9.63721e-10 5.69629e-08)
(6.44518e-10 2.98462e-13 2.51422e-07)
(-4.01445e-09 3.19542e-10 2.65043e-08)
(4.75336e-11 8.58342e-10 1.74441e-07)
(-2.43908e-08 1.2282e-09 2.08664e-07)
(1.98958e-09 7.86018e-10 2.56372e-07)
(-3.90352e-10 3.04411e-09 8.75129e-08)
(-2.13193e-09 2.69273e-09 1.82093e-07)
(-1.89049e-10 1.51114e-09 1.15111e-07)
(2.70322e-09 -2.39204e-09 4.71473e-08)
(4.69005e-10 1.01465e-09 4.70638e-07)
(-7.04372e-10 -6.73923e-10 2.13047e-07)
(-1.6984e-09 -6.57936e-10 1.756e-08)
(-4.32439e-10 -5.15019e-10 2.80851e-07)
(-1.01884e-09 5.23041e-10 2.85264e-07)
(-6.06272e-10 2.22757e-09 3.85548e-08)
(3.0933e-09 4.68621e-09 1.26903e-07)
(-2.57028e-09 3.61898e-09 9.82871e-08)
(-7.75963e-10 2.72982e-10 1.90693e-07)
(-1.86128e-10 -5.54407e-10 2.6148e-07)
(-1.31831e-09 1.30885e-09 3.50014e-08)
(2.89118e-09 -1.29111e-09 9.03615e-08)
(-3.68371e-10 2.00476e-09 1.01324e-07)
(1.88536e-09 1.4745e-09 1.75701e-07)
(-7.6448e-10 -7.60325e-10 3.38627e-07)
(-2.71494e-09 -1.8615e-09 2.32618e-08)
(2.16647e-09 6.06148e-10 3.65813e-07)
(-5.25654e-09 -1.41807e-09 2.36939e-07)
(2.29789e-10 -1.81634e-09 2.75234e-07)
(-2.97656e-09 -6.1217e-09 1.14195e-07)
(1.34352e-09 7.01828e-10 3.32517e-07)
(1.16976e-09 -2.19698e-09 2.27357e-08)
(-1.30419e-09 -3.65178e-10 2.96662e-07)
(1.64333e-10 -3.89272e-10 2.74975e-08)
(-5.9339e-10 -4.15074e-09 1.36152e-07)
(-2.81326e-11 1.82939e-09 2.26977e-07)
(-2.47849e-09 3.50364e-09 1.36658e-07)
(-2.55115e-09 1.51823e-09 1.89859e-08)
(4.68956e-10 -1.81361e-09 5.02701e-08)
(7.29659e-10 4.80756e-09 7.53459e-08)
(1.76635e-09 -4.19459e-09 1.30967e-07)
(-1.64779e-09 -2.75441e-10 3.25307e-07)
(-2.55444e-11 1.30616e-09 5.7283e-08)
(2.54314e-09 -4.31965e-09 1.35402e-07)
(-2.73057e-08 1.11438e-09 2.25771e-07)
(-6.052e-10 -6.60517e-10 2.14815e-07)
(1.87818e-09 1.93982e-11 2.87699e-08)
(4.39842e-10 2.32876e-09 2.25159e-07)
(-1.54036e-08 -7.80216e-09 1.47298e-07)
(7.16372e-10 1.78908e-10 2.02237e-07)
(-1.87846e-09 1.45802e-09 9.95555e-08)
(-1.15227e-09 -6.86226e-10 1.76874e-07)
(2.42967e-09 4.71598e-09 1.05844e-07)
(-8.81281e-10 7.56118e-10 1.61085e-07)
(-5.56164e-10 3.28557e-10 1.6164e-07)
(3.80405e-09 -6.11335e-09 7.17783e-08)
(-1.35176e-11 -1.75821e-10 2.97506e-07)
(-4.7688e-09 -1.2172e-09 7.10572e-08)
(2.1192e-09 -1.33602e-09 1.54018e-08)
(-1.21829e-09 1.74583e-09 3.16508e-07)
(2.33255e-10 5.39005e-11 1.91294e-07)
(-2.14552e-09 1.2798e-09 2.93314e-07)
(1.32551e-09 -3.01067e-09 2.2696e-07)
(2.46154e-09 -1.07101e-10 4.67171e-07)
(3.97343e-09 -4.15495e-10 1.3676e-07)
(2.25137e-09 -7.59123e-10 4.09477e-07)
(2.22251e-09 4.73038e-09 9.73381e-08)
(-4.79881e-11 -2.78241e-10 1.53274e-07)
(4.42325e-09 1.9301e-09 3.04954e-07)
(-3.76979e-09 -2.5161e-09 3.21086e-08)
(-2.23715e-09 5.05992e-10 3.02565e-07)
(2.39307e-09 -2.70477e-09 1.1303e-07)
(1.45144e-09 2.66872e-09 2.95776e-08)
(-2.22034e-09 8.94026e-10 2.76579e-07)
(-2.36207e-09 1.19927e-10 6.20938e-08)
(6.74642e-12 3.16775e-10 2.02847e-07)
(-4.44922e-11 1.30558e-09 2.23918e-07)
(-4.06096e-10 1.23924e-09 3.7316e-07)
(1.66291e-10 6.32179e-09 9.53024e-08)
(2.23425e-09 -1.30214e-10 2.92e-07)
(3.01881e-09 7.25358e-10 1.51544e-07)
(1.25722e-10 5.32862e-10 3.2266e-07)
(-7.83694e-10 4.81349e-10 3.25837e-07)
(3.77388e-11 1.45705e-09 2.86666e-07)
(-1.70093e-10 1.55674e-10 1.70243e-07)
(3.27176e-09 -1.30714e-09 4.81447e-08)
(4.75452e-10 5.70981e-10 6.9379e-08)
(5.59856e-10 -1.38867e-10 1.81782e-07)
(5.38958e-10 -2.96841e-09 2.89183e-07)
(4.54066e-10 2.17561e-09 2.81342e-08)
(9.70762e-10 -2.70199e-10 2.48723e-07)
(-8.749e-11 7.85854e-10 4.83146e-07)
(6.55646e-10 1.26018e-09 3.56104e-07)
(1.31036e-09 1.60356e-09 3.84684e-07)
(-3.3578e-09 1.56481e-09 2.47358e-07)
(-1.5477e-09 2.17372e-09 1.99776e-08)
(7.28095e-10 -7.22116e-11 2.31675e-07)
(1.13104e-09 -1.96924e-09 1.46989e-07)
(-1.01053e-09 1.38792e-09 2.67232e-07)
(-2.72971e-10 4.9946e-10 1.59758e-07)
(-2.11044e-09 -1.34511e-09 3.51509e-08)
(-6.76949e-10 -4.26965e-10 2.1554e-07)
(-3.42937e-09 4.30789e-09 1.50157e-07)
(1.68443e-10 -4.50467e-10 2.43579e-07)
(6.96189e-10 7.45632e-10 2.78389e-07)
(-1.04761e-09 2.00991e-09 2.00102e-07)
(1.22106e-09 1.60967e-09 1.35357e-08)
(-2.07471e-09 9.69548e-10 1.9835e-08)
(-1.94006e-10 2.8903e-10 1.91591e-07)
(2.17704e-09 -1.2834e-09 3.13289e-07)
(-1.0533e-09 1.09652e-09 2.36449e-07)
(-1.21915e-09 -1.11578e-09 1.84204e-07)
(-6.1046e-10 2.56753e-09 1.59526e-07)
(-8.26728e-10 1.87065e-09 2.56792e-07)
(7.38459e-11 1.33029e-09 2.94076e-07)
(6.88423e-10 1.60396e-09 1.92431e-08)
(-4.81053e-10 2.73474e-10 1.5273e-07)
(-1.94318e-08 1.16774e-09 1.74136e-07)
(-7.30465e-11 2.53899e-09 4.57459e-08)
(-6.0885e-10 5.52893e-09 8.42336e-08)
(-8.19525e-10 1.7906e-09 3.06309e-07)
(2.74718e-09 -1.14596e-09 2.11885e-07)
(3.03817e-10 -6.50323e-10 1.97134e-07)
(1.55995e-09 -1.05388e-09 2.34975e-07)
(-4.05872e-09 2.92052e-09 1.38316e-07)
(-1.11317e-10 -2.19728e-10 3.42226e-07)
(1.23287e-09 -5.55368e-09 1.78621e-07)
(1.42704e-09 -9.91534e-10 4.35736e-07)
(3.02848e-10 1.29452e-09 2.23389e-07)
(6.18827e-10 -3.04855e-10 2.47733e-07)
(5.43869e-10 -8.78995e-10 3.23388e-07)
(1.91889e-09 1.4255e-09 4.72981e-08)
(1.66213e-09 8.65995e-11 5.45765e-07)
(-3.26464e-10 -1.65993e-09 3.32445e-08)
(-1.66898e-08 -2.26819e-09 1.48938e-07)
(3.91227e-09 -2.73102e-09 1.15459e-07)
(-1.68937e-08 -8.11686e-11 1.61663e-07)
(1.17098e-09 1.13644e-09 2.13496e-07)
(-4.83396e-08 1.14666e-09 2.90743e-07)
(9.24865e-11 4.58515e-10 1.41994e-07)
(-1.04157e-09 -3.12116e-10 3.28053e-07)
(-2.29689e-09 3.55847e-10 3.40833e-07)
(5.74636e-10 1.00732e-09 2.18532e-07)
(-6.37078e-10 -1.89847e-10 3.46019e-08)
(-5.35875e-09 1.66013e-10 1.18484e-07)
(-3.01382e-08 2.12364e-09 2.10303e-07)
(-3.2949e-10 -2.41444e-10 2.2177e-07)
(-6.76562e-10 2.02865e-09 1.00209e-07)
(-2.27505e-08 1.50345e-09 2.18178e-07)
(-8.92959e-09 3.62219e-10 2.38758e-07)
(1.6412e-09 3.09457e-09 3.07434e-07)
(-1.66656e-09 -6.73886e-10 4.3717e-08)
(1.44234e-09 2.65144e-09 5.36124e-08)
(-2.38631e-10 -1.40601e-10 2.69565e-08)
(1.10307e-09 1.01209e-09 1.94595e-08)
(-2.39488e-10 -5.66361e-12 4.3828e-08)
(-1.82847e-08 5.38882e-10 2.21562e-07)
(-1.09553e-09 -7.44795e-10 1.83138e-07)
(-1.77392e-09 -1.97031e-09 1.85194e-08)
(-2.59377e-09 7.0458e-10 2.03917e-08)
(5.35284e-10 2.90914e-10 3.65763e-07)
(-2.57709e-08 5.65662e-09 1.66146e-07)
(-2.14001e-09 1.67795e-10 4.64697e-08)
(-9.06174e-10 -1.13356e-10 2.28592e-07)
(-1.63381e-09 9.59368e-10 1.07314e-07)
(1.81347e-09 -5.68633e-10 2.02929e-07)
(1.42731e-09 2.18602e-09 4.40113e-08)
(-1.90513e-09 -2.42212e-09 9.27678e-08)
(3.55659e-10 2.11121e-09 1.92148e-07)
(1.22317e-09 5.15792e-10 2.74978e-07)
(1.123e-09 1.81091e-09 4.0245e-07)
(-2.20612e-09 3.01393e-09 4.26078e-08)
(-6.21556e-10 -2.14343e-09 2.43725e-08)
(-3.58787e-08 3.81613e-10 2.01612e-07)
(-2.917e-09 2.12516e-09 2.77354e-08)
(-2.26326e-10 3.10306e-09 3.11115e-07)
(-3.70583e-09 -1.1869e-09 2.86242e-08)
(8.12944e-10 3.05235e-09 1.47634e-07)
(-1.66793e-09 -4.79835e-10 3.15193e-07)
(3.06349e-09 5.95766e-10 4.38845e-07)
(-5.42605e-10 -1.32634e-09 5.86777e-08)
(1.29966e-09 -8.05862e-10 1.39435e-07)
(-2.11167e-09 -2.83703e-10 3.84367e-08)
(-3.59184e-09 -2.15611e-10 2.86245e-08)
(-7.41338e-11 -1.18729e-09 2.69222e-07)
(-2.0218e-09 9.92884e-10 1.46089e-08)
(8.22307e-10 4.22825e-10 1.83349e-07)
(-5.12347e-10 -3.14372e-09 6.10798e-08)
(-5.22765e-10 2.59678e-09 3.28526e-07)
(-3.9389e-10 1.07551e-09 2.27528e-07)
(2.85397e-09 1.15474e-09 1.91206e-08)
(-2.44635e-09 -6.17536e-09 1.34201e-07)
(-4.15486e-11 1.2079e-09 2.49511e-07)
(-1.2434e-10 1.50475e-09 3.1221e-08)
(1.02623e-09 -3.36883e-10 2.92308e-07)
(-1.9499e-09 5.50923e-09 7.89072e-08)
(4.93095e-10 2.39979e-10 2.14065e-07)
(9.77012e-10 2.3753e-10 2.34428e-07)
(2.0162e-09 9.85318e-12 5.49817e-08)
(-2.82654e-09 -5.79205e-10 2.11388e-08)
(-1.85123e-09 -6.604e-10 9.2165e-08)
(-3.91112e-08 2.05049e-10 2.43637e-07)
(-1.2707e-09 -4.43696e-12 2.25417e-07)
(1.19954e-10 5.14258e-09 7.70656e-08)
(2.72421e-09 -4.80936e-10 1.82623e-07)
(3.68065e-10 1.03092e-09 2.43394e-08)
(1.1442e-09 1.75855e-10 2.08313e-07)
(1.06268e-09 1.41736e-09 2.31374e-08)
(-1.37495e-09 7.4411e-10 3.38657e-07)
(3.60338e-10 -2.61596e-11 3.01835e-07)
(-5.29578e-10 6.83596e-11 2.23047e-07)
(-1.42529e-09 -1.61391e-10 1.43642e-08)
(9.28666e-10 -6.73797e-10 3.43819e-07)
(-1.3348e-09 8.48307e-10 1.55647e-07)
(1.6989e-11 2.1287e-10 3.59698e-07)
(2.08998e-10 6.85693e-10 6.26446e-08)
(-3.0102e-08 8.04614e-10 2.22565e-07)
(-2.13263e-09 1.04094e-09 2.64469e-07)
(1.08499e-09 -1.07482e-10 6.53066e-08)
(-1.47974e-10 8.92102e-10 2.61416e-07)
(-3.94804e-08 4.59606e-09 2.1006e-07)
(-1.22077e-09 -6.22153e-10 1.81407e-07)
(-7.64668e-10 -1.83086e-09 3.26367e-08)
(-2.47655e-09 4.87552e-09 1.00507e-07)
(-2.67128e-10 2.23424e-10 1.96362e-07)
(1.49049e-09 -1.68799e-09 2.17762e-07)
(-1.1027e-09 1.33755e-09 3.17762e-08)
(-5.40236e-10 -4.2924e-09 2.18146e-07)
(3.96336e-09 3.08746e-09 1.57368e-07)
(-1.67603e-09 1.94728e-09 2.4455e-08)
(-5.50045e-10 8.40742e-11 2.08208e-07)
(-1.54881e-08 7.42129e-10 1.58319e-07)
(-2.55922e-09 -5.40259e-09 3.24903e-07)
(-1.34224e-10 5.48993e-10 2.04639e-07)
(5.18323e-10 5.09905e-10 1.86465e-07)
(4.12327e-10 -8.13713e-10 3.1422e-07)
(1.44994e-09 -4.38972e-10 2.5529e-07)
(1.82752e-09 6.13886e-10 6.99952e-08)
(-8.6835e-10 4.84943e-09 7.16469e-08)
(5.96551e-10 1.10165e-09 3.851e-07)
(-2.6771e-08 -1.15486e-09 2.24789e-07)
(3.76691e-10 2.11742e-09 2.0858e-07)
(2.2094e-09 -1.67272e-09 1.87886e-07)
(2.97617e-09 -1.43538e-09 1.26667e-07)
(-1.31075e-09 2.7799e-09 3.23044e-07)
(5.19508e-10 1.2374e-09 2.04661e-07)
(-1.80899e-09 -1.70204e-09 1.80616e-07)
(-3.3232e-09 2.61327e-09 2.24846e-07)
(-1.59626e-09 2.32802e-09 4.33684e-08)
(-1.3687e-09 -7.78907e-10 1.69731e-07)
(-2.44558e-09 -1.87287e-09 3.89682e-08)
(1.83478e-09 -2.05374e-09 3.1358e-07)
(5.74393e-10 -3.1929e-10 3.28922e-07)
(-1.13372e-09 4.85434e-09 1.65308e-07)
(6.15023e-11 -1.60832e-09 1.60442e-07)
(1.02591e-09 -1.55218e-09 1.76295e-08)
(2.28856e-10 -1.01867e-09 1.04723e-07)
(-3.71729e-09 -1.74264e-09 7.50619e-08)
(-1.24685e-09 1.00166e-09 2.67699e-07)
(1.76222e-09 2.40359e-10 2.4078e-07)
(-2.37819e-08 -1.54269e-09 2.20567e-07)
(-2.32913e-09 8.21213e-10 3.15698e-07)
(-1.46334e-09 2.72888e-09 8.17267e-08)
(-1.11887e-08 5.09279e-10 1.36572e-07)
(1.2038e-09 -4.23946e-09 2.44695e-07)
(1.89286e-09 9.01897e-10 2.70671e-08)
(1.27731e-09 -3.97417e-10 2.47264e-07)
(-2.11935e-10 1.49746e-09 5.36034e-08)
(-1.99459e-09 -4.77884e-10 2.06597e-07)
(4.0416e-09 -2.078e-09 3.17875e-08)
(1.49982e-09 -5.3387e-10 3.64435e-07)