/*--------------------------------*- C++ -*----------------------------------*\
| =========                 |                                                 |
| \\      /  F ield         | OpenFOAM: The Open Source CFD Toolbox           |
|  \\    /   O peration     | Version:  2406                                  |
|   \\  /    A nd           | Website:  www.openfoam.com                      |
|    \\/     M anipulation  |                                                 |
\*---------------------------------------------------------------------------*/
FoamFile
{
    version     2.0;
    format      ascii;
    arch        "LSB;label=32;scalar=64";
    class       volVectorField;
    location    "48";
    object      momentum:angularVelocity;
}
// * * * * * * * * * * * * * * * * * * * * * * * * * * * * * * * * * * * * * //

dimensions      [0 1 -1 0 0 0 0];

internalField   nonuniform List<vector> 
59516
(
(-0.00064385 -0.000587472 0.103939)
(0.000335424 -0.000237046 0.0961698)
(-0.000430925 0.000763688 0.111716)
(-0.00234668 -0.000420591 0.128264)
(-0.00455608 0.000303603 0.113713)
(-0.010443 0.00555836 0.101091)
(-0.0019535 -0.00153847 0.127526)
(-0.000311241 -0.000617786 0.100804)
(-0.000951723 0.000177896 0.111182)
(0.00206675 0.00106672 0.0529779)
(-0.00235509 -0.000280128 0.153969)
(-0.00292885 -0.0022409 0.0599908)
(-0.000921307 -0.00067565 0.117842)
(7.56833e-05 -0.00020349 0.0192765)
(0.000188578 -0.00350891 0.0591061)
(-0.00142321 0.00360034 0.0507421)
(-0.00206848 -0.000441936 0.169049)
(-0.00570015 -0.0015826 0.0700543)
(-0.00589434 -0.00125795 0.11444)
(-0.000757831 0.000599598 0.165404)
(-0.00138949 0.000648312 0.053878)
(0.000380706 0.000743432 0.148564)
(-0.0020421 -0.000682726 0.154584)
(0.000856904 0.000555531 0.0326313)
(0.000244053 0.000761233 0.160761)
(-0.000200266 0.00153587 0.0642128)
(-0.000517729 0.00284975 0.0406243)
(-0.00347142 -0.00149041 0.0442958)
(-0.00259549 -0.000904588 0.0654454)
(0.00210791 0.0017085 0.0168682)
(-0.0215138 0.0012037 0.108353)
(-0.00293283 0.00223927 0.0455759)
(-0.000788173 -0.000299189 0.132432)
(-0.00211117 -0.0010738 0.111157)
(-0.00655189 -9.16986e-05 0.139391)
(-0.000393867 0.000114273 0.145986)
(-0.00244773 0.00128687 0.0162938)
(-0.0069235 -0.00219829 0.0699505)
(-0.00376866 0.000424759 0.0951729)
(0.000510232 0.000627999 0.159303)
(3.39205e-05 -0.000648725 0.099785)
(-0.0115723 -3.10541e-06 0.144017)
(-0.00491634 0.000974964 0.148396)
(-0.000667645 0.00039736 0.105797)
(-0.00497992 0.000780862 0.14272)
(0.00140356 0.000386262 0.053749)
(-0.00515956 0.000137176 0.132387)
(-0.00490646 0.000688606 0.163234)
(-0.0152742 0.00138371 0.111886)
(-0.00855828 0.000225918 0.150993)
(-0.0179002 0.000521262 0.104054)
(-0.00394846 -0.00188922 0.0426302)
(0.000291178 -0.00248456 0.118769)
(-0.000341407 0.000473196 0.126234)
(-0.0028903 0.000718877 0.0473407)
(-0.0029249 0.000469075 0.129651)
(-0.0119039 1.328e-05 0.144905)
(-0.00443791 -0.00166209 0.0454825)
(-0.000314197 -0.000233505 0.173785)
(-0.0102742 -0.000379239 0.135184)
(-0.000175085 0.000453604 0.149265)
(-0.00142462 0.0019655 0.0184427)
(-0.000681099 0.000342277 0.167061)
(-0.00314461 3.80435e-05 0.166134)
(-0.000515401 0.00045518 0.121125)
(-0.00647335 0.000105007 0.147484)
(0.000197611 0.00284217 0.024997)
(-0.000134972 0.000296035 0.0398098)
(-0.0228144 0.000376813 0.121516)
(-0.00323905 -0.000873463 0.135714)
(-0.000606451 -0.000838977 0.03562)
(-0.0018455 -0.000840581 0.163342)
(0.00340739 -0.00137252 0.0222899)
(-0.00126161 -0.000408649 0.142703)
(3.28721e-06 -0.000351155 0.180924)
(-0.00367204 0.000212601 0.158025)
(-0.00441656 0.00013863 0.163985)
(0.000149142 0.000115827 0.148429)
(0.00178804 0.000975308 0.044418)
(-0.00835019 0.000730477 0.151615)
(-0.00248341 2.02757e-05 0.0369733)
(-0.00734598 0.000421011 0.146781)
(-0.00616756 0.000394906 0.139663)
(-0.00245589 0.00132992 0.0192921)
(-0.00717752 0.000781824 0.146619)
(-8.08494e-05 0.000763784 0.1756)
(0.000611134 0.00108557 0.0315296)
(7.33113e-05 0.000133561 0.149899)
(-0.00200827 -0.00106387 0.0531144)
(-0.00994004 -0.0024797 0.107142)
(-0.0115264 -2.49701e-05 0.131542)
(-0.00114668 0.00125155 0.139059)
(-0.000234777 -7.47222e-07 0.173149)
(-0.000132045 0.00125163 0.137195)
(-0.00023041 0.00029385 0.161568)
(-0.011272 -6.70698e-05 0.109939)
(-0.000531515 -0.000408429 0.14006)
(0.00207984 0.00397374 0.0519318)
(-0.00243 -0.00098917 0.0644571)
(0.00146569 0.00113666 0.148204)
(-0.0012058 0.000882997 0.0364669)
(0.00261314 0.00135173 0.0236064)
(0.00281217 0.00147644 0.0223106)
(-0.001945 0.00223023 0.052752)
(0.000740075 -6.11254e-05 0.13489)
(-8.16315e-05 -0.000348216 0.147302)
(0.00180195 -0.00316715 0.038454)
(-0.000732925 -0.000418005 0.10384)
(-0.000274194 0.000651855 0.0998565)
(-0.00141278 0.00222619 0.0643582)
(-0.0187243 -0.00023443 0.124948)
(0.0022277 -0.00207369 0.0297124)
(-0.00252786 0.00325437 0.0651776)
(-0.0194843 -4.69216e-05 0.11804)
(6.57014e-05 -3.57704e-05 0.16011)
(0.000996236 -0.00117081 0.0992676)
(-0.00175921 -0.00110106 0.0527495)
(-0.000396743 -0.000669904 0.132895)
(-0.000383855 -0.000995071 0.0212043)
(-0.000867035 0.000945977 0.146915)
(0.000485794 7.95815e-05 0.183574)
(-0.00046215 0.000512073 0.168544)
(0.00080142 0.000441687 0.158474)
(-0.000685536 0.000402523 0.167161)
(-0.0179863 0.00116494 0.132372)
(-0.00324724 0.000109939 0.0899226)
(-0.00177173 -0.000827044 0.028766)
(-0.0135919 0.00208965 0.138317)
(-0.0130698 0.00307591 0.0898371)
(0.000416547 -0.000269645 0.179172)
(9.55478e-05 -0.000293541 0.181763)
(0.00161793 0.00196713 0.111754)
(-0.00052086 -0.00197158 0.0225469)
(0.000305204 0.000566758 0.14812)
(0.0012215 0.000338694 0.100674)
(-0.00189331 0.00101978 0.115043)
(-0.0155708 0.00140828 0.107493)
(0.000166767 0.000515472 0.129366)
(-0.000360894 0.00261608 0.03828)
(-0.000972872 0.000874912 0.0977909)
(-0.000974772 0.00210333 0.0424693)
(-0.000502544 -0.000418095 0.18299)
(-0.000854511 -0.00153828 0.0180453)
(-0.00045338 0.00110303 0.124923)
(-0.000909416 0.00023859 0.175901)
(-0.00166294 0.000697282 0.141726)
(-0.00543698 0.00136073 0.14039)
(-0.00301979 0.00124107 0.117634)
(0.000947207 -0.00176363 0.062128)
(-0.000199277 0.00108808 0.106106)
(-0.000108001 -0.000843371 0.10268)
(0.000165737 0.00127311 0.0337293)
(0.00101572 0.00104217 0.166975)
(0.000442338 0.000203706 0.154265)
(-0.000704102 -0.00199379 0.0884462)
(-0.00169302 0.00101893 0.0180115)
(-0.000207986 -0.000246813 0.112503)
(-0.00117536 0.000740925 0.113203)
(-0.00111209 0.000535814 0.0817368)
(-0.00267198 -0.0018954 0.0184711)
(0.00267957 0.0023945 0.0631229)
(0.00364542 -0.00206731 0.065023)
(-0.000597295 0.00128934 0.0335507)
(-0.000228371 -0.000462238 0.0241267)
(0.0029905 8.10213e-05 0.0986643)
(-0.00105536 0.000338393 0.17308)
(0.000814325 -3.13442e-05 0.0597398)
(-0.000754455 -0.00035899 0.177705)
(0.00112507 0.00221339 0.0189742)
(-2.11923e-05 -0.000578943 0.136373)
(-0.00135988 -0.00112151 0.0827617)
(-0.000855556 0.00064875 0.050299)
(-6.76568e-05 -0.00177542 0.0620343)
(0.000304865 -0.000609684 0.13649)
(0.000449673 0.00064635 0.0482539)
(-0.00551994 -0.000546943 0.134956)
(-0.000948326 0.000435679 0.16971)
(-0.00658184 0.000589734 0.149491)
(0.000399968 -0.00311988 0.0651383)
(0.000450109 0.000308228 0.0392165)
(-0.00123498 -0.00190918 0.145985)
(0.00085852 0.00297438 0.0319993)
(-0.000968213 -0.00196222 0.0275154)
(0.00056716 0.00148681 0.0623181)
(9.42727e-05 -0.000580157 0.178082)
(-0.000372217 0.000660237 0.057032)
(-0.00264465 0.000532725 0.0338323)
(0.000145336 0.000255091 0.0219046)
(-0.00013498 8.62759e-05 0.121048)
(0.00153779 0.000861696 0.0988518)
(-0.00283726 -0.000245023 0.135277)
(-0.000913083 -0.00289904 0.0498911)
(-0.000641246 -0.000388685 0.163876)
(0.00157773 -0.00131785 0.0547887)
(-0.000294676 -3.98019e-05 0.154677)
(0.000403403 0.000714835 0.0282292)
(0.000725246 0.000206987 0.0548412)
(0.000303257 -0.00106321 0.0388778)
(-0.00460918 -0.000170161 0.108508)
(0.000504619 -0.000671347 0.154111)
(-0.00165474 -0.00220904 0.0791321)
(-0.000659518 -0.000392757 0.182979)
(0.000162604 0.00113455 0.101252)
(0.00158139 -0.00184449 0.0185833)
(0.000838821 0.000882074 0.127077)
(-0.000240154 -0.000299404 0.145186)
(-1.58949e-05 -0.000351289 0.180772)
(0.00112797 -0.000970839 0.153859)
(0.000213646 -0.000687932 0.0219282)
(0.00177656 0.000954513 0.112828)
(-0.00049558 0.00453951 0.048545)
(-0.00385827 0.000795939 0.023626)
(-0.000978999 0.00106855 0.143553)
(-0.00030535 0.00133223 0.0536783)
(-0.000814083 -0.00119431 0.114874)
(0.000195643 -0.000205225 0.170625)
(-0.00116499 0.000442645 0.139803)
(-0.00119192 0.000883401 0.157283)
(-0.00167655 0.00305164 0.0521693)
(0.000831669 -4.38577e-05 0.156788)
(-0.000949151 -0.00259678 0.0531208)
(-0.000196415 0.000280755 0.103516)
(-0.000753726 -0.000867026 0.164604)
(0.000396903 -0.000542153 0.0376139)
(2.62282e-05 -0.000262803 0.168964)
(0.000767154 0.000150305 0.171086)
(-0.000967732 -0.00101988 0.0269618)
(-0.00249813 0.000568125 0.0448653)
(0.000180023 0.00077834 0.170105)
(-0.00201117 0.00338531 0.0522335)
(0.000199682 0.000580059 0.171994)
(-0.000365673 0.00031316 0.171974)
(-0.000778479 -0.000459192 0.180968)
(-0.00115833 -0.0019829 0.0238248)
(-0.00128743 -0.00114743 0.0313176)
(-0.00145808 1.4901e-06 0.0326159)
(5.55299e-05 -0.000386515 0.0610986)
(-0.00130549 -0.000242977 0.0951075)
(-0.00156874 0.00040037 0.156636)
(0.0018808 -0.000292306 0.0551656)
(0.000519177 0.000346773 0.182896)
(0.00237138 0.00167966 0.0195068)
(0.000708657 0.00052166 0.0523887)
(0.0022331 0.00136277 0.0236114)
(0.000735874 0.000326292 0.179984)
(-0.000371418 -0.000443941 0.0907564)
(-0.000942778 0.000229415 0.145801)
(-0.000721891 0.00149638 0.063076)
(-0.000374714 -0.000152552 0.169208)
(-0.00045881 -0.000286851 0.103198)
(0.000412471 -8.33483e-05 0.165501)
(-0.000635024 9.64164e-05 0.140447)
(0.000678166 0.000264827 0.183503)
(0.000293154 0.000892297 0.144736)
(-0.000730388 0.0013432 0.147037)
(-0.000485834 0.000576528 0.157999)
(-0.000260379 3.99049e-05 0.0535877)
(-0.00194983 0.00042153 0.153831)
(0.0011961 0.00192539 0.0402274)
(-0.000272177 0.00206671 0.0579578)
(-0.00112846 0.000651848 0.129673)
(-0.000267947 0.000515919 0.162076)
(0.00331135 0.000738196 0.11391)
(0.000363739 0.000339099 0.175597)
(0.0021231 7.02328e-05 0.0972897)
(-4.33935e-05 -0.00263986 0.0558039)
(-0.000576087 -0.00111011 0.15984)
(0.00200316 0.000119713 0.0910556)
(-0.000533132 -0.00086235 0.0445693)
(-0.000451292 0.00137752 0.0499463)
(-0.00243538 0.00226809 0.0961342)
(-0.000448243 -0.000323466 0.171975)
(-0.00149174 0.00184715 0.0969263)
(-0.000681118 0.00151906 0.0911163)
(-0.00109707 -0.000285222 0.164885)
(4.57035e-05 0.00247806 0.091194)
(-0.00118411 -0.00252906 0.0202931)
(0.000774248 0.000500411 0.161813)
(0.00208447 -0.00160351 0.024502)
(0.00169675 0.000876841 0.0389881)
(-0.000906028 -0.000362669 0.179797)
(-0.000378892 -4.0265e-05 0.139278)
(-0.00325444 0.00170422 0.0242176)
(-0.000127833 -0.000996373 0.119996)
(-0.0012285 -0.00208755 0.123588)
(-0.00183903 0.000488894 0.167331)
(0.00050099 -0.00041314 0.179595)
(0.00195884 -0.00199455 0.0231757)
(4.25071e-05 0.000633585 0.178779)
(-0.000257004 -0.000199074 0.18249)
(-0.000453032 -0.000644575 0.172742)
(-0.00102541 0.000289319 0.134979)
(-0.00111101 0.000796751 0.137374)
(-0.000365614 -0.000403103 0.0942024)
(0.000159362 -0.00093309 0.171618)
(4.50906e-06 0.0015861 0.0272104)
(-1.49972e-05 -0.000704792 0.160263)
(0.000507275 0.000656637 0.13929)
(-0.000356085 -8.3042e-05 0.182082)
(-0.000772622 0.000229559 0.168744)
(0.000458203 -0.000638023 0.115899)
(0.00099494 -0.00118331 0.0576232)
(-0.000677518 -0.0014258 0.0221974)
(0.000693883 0.000422183 0.0274705)
(-0.00128472 0.000297227 0.164058)
(-0.0028544 0.00115681 0.0198091)
(-0.00081822 -0.000777776 0.0620154)
(-0.000964828 0.00287224 0.0507522)
(-0.000538334 -0.000859616 0.167853)
(-0.000525371 -3.46921e-05 0.174198)
(-0.000353989 0.000598306 0.154648)
(0.00106963 0.000723131 0.0575081)
(0.00279802 -5.13392e-06 0.102373)
(5.8361e-05 0.00415734 0.0389527)
(0.000302964 -0.00167709 0.0541717)
(-0.000277359 0.000780047 0.15782)
(0.000416548 -0.00133862 0.097054)
(-0.0127557 -0.00153422 0.107736)
(0.000227775 -0.00208222 0.089176)
(-0.000434635 -5.31924e-05 0.0416913)
(0.00217924 -0.000149755 0.0627365)
(-0.000708609 -0.0017726 0.107133)
(-0.000312765 -6.98331e-05 0.175834)
(0.000404089 -0.00106824 0.18223)
(-0.000677005 0.000670245 0.182543)
(0.000159885 0.00126706 0.162143)
(-0.00594286 -0.000651218 0.0969582)
(-0.00107021 -0.000142537 0.126464)
(-0.00134437 0.000548781 0.166616)
(0.000777441 0.000237648 0.16118)
(0.00101228 0.000172414 0.163777)
(-0.00264708 -0.00223417 0.0553645)
(0.00269706 -0.00112166 0.0216468)
(0.00133971 9.20348e-05 0.15052)
(0.00111499 0.00257856 0.0384985)
(3.89315e-05 -0.000136415 0.0307486)
(-0.0017838 -6.4215e-05 0.161544)
(0.00049179 0.000247682 0.145806)
(-0.00201381 0.00256593 0.0597224)
(-0.000504902 -0.000794037 0.173229)
(0.000463873 0.00116989 0.166969)
(-0.00088366 0.000269334 0.181797)
(-0.0012525 0.000115859 0.17405)
(-0.000105628 -0.00150377 0.0317761)
(-8.79136e-05 4.66328e-05 0.159919)
(-0.00117755 0.000297737 0.176605)
(0.000268105 0.00076355 0.0563718)
(-0.000225463 -0.00113498 0.180421)
(-0.00045717 0.000424001 0.174881)
(0.000665899 0.000554849 0.131134)
(0.000608243 0.000772475 0.122403)
(-0.000286881 -0.00182352 0.152195)
(0.000729017 0.00110058 0.143157)
(-0.000370945 0.000147622 0.0685607)
(-0.000610593 0.00151449 0.0308674)
(0.000314846 0.00247759 0.0339741)
(0.000484754 -0.000189891 0.0935693)
(-0.0126075 -6.75812e-05 0.0862491)
(-0.00735574 0.000766675 0.0746076)
(0.000354228 -0.000372916 0.0821006)
(0.00155678 -0.00132581 0.113919)
(-0.000525144 0.000589598 0.131188)
(-0.00439371 0.000289257 0.159294)
(0.000402299 0.000999647 0.157354)
(-0.000487925 -0.000715704 0.131502)
(5.14538e-05 -0.000618505 0.149086)
(-0.000890283 -0.000137823 0.149583)
(-0.000421097 0.000895199 0.030441)
(-0.0226239 0.000817426 0.113918)
(0.000438151 0.00146809 0.0569892)
(-0.000940722 0.00157624 0.0400831)
(0.000840859 0.000330513 0.0404043)
(0.000271847 0.000669157 0.161974)
(-0.00047932 0.000281063 0.0928933)
(-0.00124021 0.000460238 0.16103)
(-0.00125751 0.00150521 0.0192891)
(0.00038677 -0.000349582 0.125983)
(0.0011314 -0.000684855 0.0432292)
(-0.000186772 0.000269452 0.165731)
(-0.000504215 0.000609953 0.0466743)
(0.00172481 0.000736318 0.0606217)
(0.000780971 0.00276462 0.104873)
(-0.0015991 -0.000338642 0.151906)
(0.00253949 -0.000202088 0.0189442)
(-0.000122632 0.0023055 0.0531333)
(7.23529e-05 -0.000617927 0.132892)
(6.83031e-05 -0.0022743 0.0225299)
(-0.0095167 -0.000290662 0.130815)
(0.000544125 -0.0026587 0.115275)
(-0.000257583 -0.00208555 0.131424)
(0.00228658 -0.00266561 0.09338)
(0.00226224 0.000765693 0.0871401)
(0.000603356 -0.000156315 0.162209)
(-0.0101841 -0.00322981 0.0771895)
(-0.000232097 -0.000105237 0.182279)
(-0.0124662 0.000825508 0.111375)
(-0.00214438 0.00157493 0.0581027)
(-0.000381542 0.00143868 0.0613742)
(3.85465e-05 -0.000351153 0.179467)
(0.000459002 -0.000396889 0.17919)
(0.000602336 -0.000529778 0.0512801)
(-0.000388021 -0.00062101 0.133002)
(-0.00220465 0.0007251 0.0966313)
(-1.64998e-07 -0.00058447 0.179673)
(0.000364232 -0.000940017 0.179041)
(-0.00103499 -0.00344886 0.0443924)
(-0.000430165 0.00100991 0.13232)
(0.00236958 -0.000191384 0.145449)
(-0.00070998 -0.000384986 0.148081)
(0.000307994 -0.000863455 0.156962)
(0.00240482 -0.00128407 0.020873)
(-0.00266312 -0.000701582 0.0203837)
(-0.00149493 0.00137306 0.126124)
(-1.34105e-05 -4.20063e-05 0.175816)
(0.00134813 0.000961973 0.180854)
(-0.0021995 0.00118045 0.0334628)
(0.00132913 -0.00100684 0.169238)
(-0.00123809 -0.000179454 0.105604)
(-9.41163e-05 -0.000441618 0.175146)
(-9.99091e-05 0.000838198 0.1765)
(0.000707221 -9.71899e-06 0.180899)
(5.2078e-05 -0.00091195 0.173691)
(-0.000275059 -0.0015335 0.172742)
(0.000286675 -0.000553088 0.0874364)
(-0.000608086 0.000368034 0.178817)
(-0.00181894 0.00222132 0.0548432)
(-0.000470447 0.000176542 0.167494)
(-0.000978555 -0.000598831 0.108281)
(-0.000957199 -0.000382869 0.153648)
(-0.000195539 -0.00014094 0.175197)
(-0.000141244 0.000468435 0.149319)
(0.000967877 -0.000814667 0.14474)
(0.00170085 0.00255388 0.0392221)
(0.000871987 1.61748e-06 0.032898)
(-0.00188663 -0.00193221 0.0204828)
(-0.00858795 4.51283e-05 0.153125)
(0.000226181 4.28356e-06 0.186493)
(-0.00102856 0.000216605 0.13939)
(-0.000118506 -0.000947196 0.125792)
(0.00110208 0.000225272 0.0298832)
(0.000696254 -0.0025577 0.0229061)
(-0.000571524 -0.00166937 0.113297)
(-0.00105829 0.00101633 0.153002)
(-0.00039881 -0.000864793 0.175629)
(0.000428676 -9.09138e-05 0.154651)
(-0.00142592 9.6968e-05 0.134862)
(-0.000395759 1.01174e-05 0.184935)
(0.00117152 0.000144802 0.133903)
(-0.0010802 0.00221089 0.0256022)
(0.000201851 0.000790915 0.121822)
(0.00257639 -0.00145928 0.055996)
(-0.00716141 -0.000789069 0.0704777)
(-0.000491056 0.000300599 0.154351)
(0.000441601 -0.000294675 0.0919063)
(-0.000119786 0.000203147 0.14649)
(-0.00336378 0.00212089 0.0198884)
(0.000288393 -0.000604815 0.179286)
(-0.000349589 -2.80368e-05 0.179702)
(-0.000610136 -0.00021647 0.177549)
(0.000672008 -0.000649643 0.0901225)
(0.00053295 -0.0016629 0.153616)
(-0.000329777 -0.000708165 0.17334)
(-7.18921e-05 0.000439116 0.120554)
(-0.000791677 0.000328923 0.180928)
(-0.005186 -0.000542461 0.0978182)
(-0.000467161 -0.000338821 0.17126)
(-0.00260866 0.00113041 0.148869)
(0.00144828 -0.00124289 0.0198252)
(3.6769e-05 4.70655e-05 0.178673)
(0.00134991 0.00170449 0.115823)
(-0.00285563 -0.00266402 0.0446276)
(-0.000982112 0.00143272 0.0895323)
(0.000190985 0.000121523 0.167712)
(-6.62888e-06 -0.00108109 0.128068)
(0.00092965 0.00216703 0.0828562)
(-0.00217437 0.00152409 0.0196876)
(-0.00013302 0.000383401 0.174796)
(0.000592336 0.00239707 0.123815)
(-0.00076234 -0.000103822 0.161214)
(-0.000755292 -0.000183348 0.1233)
(-0.00218847 0.000601112 0.0355301)
(0.000360914 1.67132e-07 0.14079)
(-0.00390584 0.000310897 0.0257872)
(4.44539e-05 0.00080273 0.163139)
(-0.0119555 0.000602025 0.10228)
(0.00130903 0.000517154 0.168678)
(-0.000222586 0.00173581 0.0499015)
(-0.00122568 0.00154809 0.104688)
(-0.000153707 0.00122863 0.0935911)
(0.00192247 -0.00170117 0.0335302)
(0.000181618 0.000392913 0.18225)
(-0.000569328 -0.000544717 0.172201)
(-0.00203643 -0.000788881 0.0210548)
(-0.000249704 -0.000297388 0.162172)
(-0.000649999 0.000333691 0.181993)
(-0.000562488 0.00206669 0.0357704)
(0.00145487 0.00220406 0.0596863)
(-0.00135723 0.00191099 0.0519001)
(-0.000627489 0.000220749 0.154205)
(-0.000127083 -0.000378533 0.178531)
(-0.001222 0.00121323 0.0324443)
(0.00166317 -0.00074272 0.0519811)
(-0.000198866 0.00108228 0.0546997)
(0.00122183 0.000955568 0.113865)
(-0.000406351 -0.000404142 0.179993)
(-0.00260479 -0.00178598 0.0223181)
(0.000945889 0.000264647 0.159716)
(-0.00336897 -0.000908858 0.151857)
(0.000149428 -0.00118114 0.178981)
(-0.00234851 -0.00483003 0.0900996)
(0.000681264 0.00035588 0.168611)
(0.00112257 -0.00210834 0.0218185)
(-0.000723502 -0.000202583 0.164573)
(0.000156276 -0.000370188 0.0261495)
(-0.000255912 -0.00179009 0.0587181)
(-1.91863e-05 0.00124764 0.154797)
(-0.00106178 0.00150095 0.0585442)
(-0.00264245 0.00157257 0.0196654)
(0.000329215 -0.00127319 0.0352905)
(0.000421857 0.00277952 0.0435617)
(0.000763966 -0.00181421 0.0566447)
(-0.000741279 -0.00012391 0.146343)
(-2.15817e-05 0.00110354 0.0483968)
(0.0010737 -0.00182373 0.057166)
(-0.0155096 0.000632969 0.128238)
(-0.000479359 -0.000523174 0.170148)
(0.00149622 1.54533e-05 0.0229191)
(0.000205553 0.00108831 0.105225)
(-0.00849949 -0.00430512 0.0812768)
(0.00060751 0.00015172 0.171504)
(-0.00106563 0.000827116 0.0564767)
(-0.00108294 -0.000644938 0.166232)
(0.00126928 0.00246367 0.0552938)
(-0.000667823 0.000572976 0.122068)
(-0.000608611 0.000359541 0.176883)
(0.00259422 -0.00416907 0.04895)
(-7.99e-06 -0.000103924 0.17585)
(-0.00318931 -0.00081405 0.0475221)
(0.00251782 -0.00158732 0.0182988)
(-0.000561546 0.000804707 0.145888)
(0.0002179 5.03522e-05 0.178701)
(-0.000942149 0.00056199 0.128801)
(0.000724536 -0.00164566 0.124059)
(0.000940326 -4.09132e-05 0.178463)
(0.00170467 -0.000178254 0.0586724)
(0.000922648 -0.000311101 0.16781)
(0.00125602 0.0026733 0.0550091)
(-5.47418e-05 -0.0003174 0.174845)
(0.00181413 0.000791601 0.125072)
(-0.00314153 -0.00209677 0.0267574)
(-0.00113734 0.000257241 0.153821)
(0.00105959 -0.00119761 0.050047)
(0.00121988 0.00224296 0.0248589)
(-0.00119035 0.000479298 0.148277)
(-0.00157779 8.01078e-05 0.0414768)
(4.56909e-06 0.000214539 0.13738)
(-3.54506e-05 0.00104026 0.178414)
(-0.000141757 0.000432583 0.13026)
(9.02419e-05 0.00343068 0.0517183)
(0.00137225 -7.99757e-05 0.179343)
(0.00175189 0.000420942 0.0879444)
(7.22554e-05 0.000306249 0.185441)
(-0.000434957 0.000267153 0.180842)
(2.37664e-05 0.000917595 0.180532)
(-0.000178017 0.000162926 0.178174)
(0.00286903 -0.00114624 0.0422185)
(0.000339945 0.000408247 0.0496055)
(0.000547241 -0.000135738 0.177686)
(0.000302818 -0.00166783 0.16248)
(0.000488877 0.0023424 0.0302912)
(0.000631624 -0.000175804 0.161831)
(-3.27197e-05 0.000293895 0.180688)
(0.00032518 0.00062501 0.176616)
(0.00061651 0.000754456 0.180989)
(-0.00155355 0.000723991 0.114445)
(-0.0015814 0.00222105 0.0204126)
(0.000558511 -5.53925e-05 0.177715)
(0.000756593 -0.0013173 0.0983265)
(-0.000573316 0.000787426 0.151612)
(-0.000160132 0.000292996 0.0937181)
(-0.00166846 -0.00106341 0.0277894)
(-0.000565449 -0.00035664 0.180039)
(-0.00204235 0.00256554 0.0894255)
(9.12257e-05 -0.000243965 0.131918)
(0.000457512 0.000490004 0.182948)
(-0.00073723 0.00141443 0.140817)
(0.00148394 0.00195621 0.0164498)
(-0.00218636 0.00102172 0.0209024)
(-0.000178004 0.00026519 0.175788)
(0.00117152 -0.000690629 0.168589)
(-0.000815791 0.000849267 0.183132)
(-0.0010097 -0.000924079 0.152557)
(-0.000343861 0.00144624 0.0898579)
(-0.000481067 0.00108852 0.149425)
(4.4066e-05 0.000793821 0.175484)
(0.000685123 0.00159627 0.0191509)
(-0.000559407 0.000318018 0.177607)
(-0.0150639 0.000905256 0.134994)
(-5.66317e-05 0.00196843 0.035466)
(-0.000379267 0.00344411 0.0524711)
(-0.000384325 0.000839722 0.143647)
(0.00181748 -0.000758142 0.140179)
(0.000211084 -0.000451826 0.136963)
(0.000812203 -0.000548714 0.122342)
(-0.00301445 0.0021691 0.102729)
(-5.91977e-05 -0.00011685 0.181993)
(0.000660322 -0.00297452 0.0956685)
(0.000575883 -0.000400135 0.175842)
(0.000232931 0.000995661 0.171816)
(0.00046252 -0.000227853 0.185159)
(0.000293742 -0.000474742 0.17466)
(0.00154699 0.00114923 0.0381312)
(0.000499481 2.60238e-05 0.164007)
(-0.000302812 -0.00153967 0.0308359)
(-0.0105816 -0.00143806 0.0944287)
(0.00195221 -0.00136277 0.0576135)
(-0.0132984 -6.3894e-05 0.127257)
(0.000710068 0.000689123 0.129461)
(-0.0195295 0.000463259 0.117462)
(0.000111141 0.000550997 0.170634)
(-0.000558508 -0.000167363 0.175908)
(-0.00103975 0.000161084 0.154288)
(0.000450633 0.000789944 0.171374)
(-0.00058359 -0.000173908 0.0316968)
(-0.00456533 0.000141433 0.100941)
(-0.0161212 0.00113596 0.112493)
(-0.000261827 -0.000191862 0.176228)
(-0.000745412 0.0022351 0.110407)
(-0.0142771 0.000943489 0.136917)
(-0.00587192 0.000238188 0.157002)
(0.000582151 0.00109768 0.10905)
(-0.00126506 -0.000511535 0.0331847)
(0.00138403 0.00254425 0.051445)
(-0.000203017 -0.000119617 0.0229334)
(0.00123388 0.00113211 0.0217672)
(-0.000177613 -4.20034e-06 0.0325045)
(-0.0110265 0.00032497 0.133612)
(-0.0008264 -0.000561827 0.138148)
(-0.00211681 -0.00235116 0.0220991)
(-0.00266302 0.00072339 0.0209361)
(0.000268492 0.000145919 0.183462)
(-0.0149119 0.00327309 0.0961373)
(-0.00161292 0.000126466 0.0350241)
(-0.000585095 -7.31915e-05 0.147597)
(-0.00157741 0.000926251 0.10361)
(0.00119355 -0.00037425 0.133559)
(0.00127491 0.0019526 0.039312)
(-0.00105938 -0.00134686 0.0515851)
(0.000202733 0.00120343 0.109528)
(0.000756261 0.000318904 0.170014)
(0.000424736 0.000684912 0.152212)
(-0.00172875 0.00236177 0.0333882)
(-0.000570911 -0.00196878 0.0223866)
(-0.0189053 0.00020108 0.106234)
(-0.00251614 0.00183312 0.023924)
(-9.72441e-05 0.00133327 0.133675)
(-0.00327192 -0.00104793 0.0252726)
(0.000562494 0.00211199 0.102151)
(-0.000931559 -0.000267993 0.176039)
(0.00123609 0.000240385 0.177069)
(-0.000378922 -0.000926233 0.0409769)
(0.000895452 -0.000555231 0.0960694)
(-0.00180471 -0.000242463 0.0328494)
(-0.00325281 -0.000195259 0.0259226)
(-4.86939e-05 -0.000779856 0.176835)
(-0.00244859 0.00120247 0.0176927)
(0.00074252 0.000381799 0.165559)
(-0.000376807 -0.00231206 0.0449213)
(-0.000247475 0.00122931 0.155523)
(-0.000244343 0.000667174 0.141143)
(0.00302433 0.00122367 0.020262)
(-0.000977265 -0.00246692 0.0536103)
(-2.47576e-05 0.000719756 0.148677)
(-0.00012684 0.00153501 0.0318488)
(0.000561352 -0.000184277 0.159894)
(-0.00125252 0.00353886 0.0506861)
(0.0002444 0.000118944 0.1061)
(0.000751271 0.000182648 0.180263)
(0.00123671 6.04382e-06 0.0337251)
(-0.00292666 -0.000599722 0.0218876)
(-0.000949392 -0.000338683 0.0472663)
(-0.0177859 9.32464e-05 0.110794)
(-0.000575809 -2.01058e-06 0.102146)
(8.20524e-05 0.0035177 0.0527154)
(0.001223 -0.000215911 0.0819866)
(0.000428628 0.00120054 0.0283443)
(0.000995332 0.000152975 0.181209)
(0.000999051 0.0013325 0.021752)
(-0.000688241 0.000372468 0.169517)
(0.000172529 -1.25252e-05 0.144518)
(-0.000397335 5.12893e-05 0.167349)
(-0.00178469 -0.000202088 0.0179863)
(0.000407346 -0.000295552 0.150811)
(-0.000686724 0.000436435 0.0800766)
(7.43242e-06 9.31275e-05 0.157363)
(0.000170914 0.000560742 0.0512292)
(-0.0146293 0.000391035 0.108164)
(-0.00129082 0.000630054 0.160076)
(0.000613733 -6.07978e-05 0.0369412)
(-0.00010438 0.00062928 0.1844)
(-0.0204615 0.002382 0.108868)
(-0.000782796 -0.000398945 0.116324)
(-0.000715774 -0.00171379 0.0305499)
(-0.00116444 0.0022924 0.0472572)
(-0.00024397 0.000204055 0.179338)
(0.000898704 -0.00101779 0.131302)
(-0.00103562 0.00125618 0.0298432)
(-0.00026762 -0.00212635 0.108064)
(0.00144132 0.00112279 0.0572288)
(-0.00155246 0.00180371 0.022652)
(-0.000468016 7.15361e-05 0.177158)
(-0.0101099 0.000484425 0.103343)
(-0.00102289 -0.00215934 0.129859)
(-0.000112922 0.000461865 0.172162)
(0.000487477 0.00047956 0.175369)
(0.000220817 -0.000435774 0.168277)
(0.000747707 -0.000226369 0.131648)
(0.00105738 0.000355186 0.0404983)
(-0.000450321 0.00251489 0.0371556)
(0.000278112 0.000513589 0.179534)
(-0.0128124 -0.000552705 0.107582)
(0.000217013 0.00121985 0.120164)
(0.00149551 -0.00113224 0.127177)
(0.00184609 -0.00089035 0.0785702)
(-0.000599343 0.00127111 0.147712)
(0.000413516 0.000984942 0.162905)
(-0.000970286 -0.000912922 0.0968765)
(-0.00150768 0.0011856 0.102009)
(-0.00131447 0.00191704 0.0357124)
(-0.000554509 -0.000315563 0.0687642)
(-0.00252884 -0.00193663 0.0402949)
(0.000884738 -0.000990321 0.15121)
(0.000303176 -0.000168528 0.173612)
(-0.00062798 0.00268887 0.0915661)
(3.68434e-05 -0.000963474 0.0961139)
(0.00113432 -0.0017162 0.0194924)
(0.000167458 -0.000745378 0.0766276)
(-0.00272192 -0.00127601 0.0549627)
(-0.000813591 0.000653601 0.174679)
(0.0012897 0.00017591 0.176218)
(-0.0113022 -0.000733149 0.104823)
(-0.00119644 0.000421844 0.162169)
(-0.00141476 0.00263829 0.0790136)
(-0.00833243 0.000379268 0.101708)
(0.000650824 -0.00229202 0.132292)
(0.00169501 0.000807628 0.024238)
(0.000910496 -0.000283287 0.176255)
(-0.000185764 0.00131255 0.0469842)
(-0.00134105 -0.000321301 0.138904)
(0.00335991 -0.0017275 0.0264259)
(0.000715179 -0.000254572 0.173778)
(-0.00507842 -0.000292073 0.101647)
(-0.000560977 -0.00021871 0.157601)
(0.000462927 -0.000430739 0.113773)
(-0.000361804 0.000608026 0.146126)
(0.000198143 0.00116423 0.149368)
(-0.000787011 4.05599e-05 0.182271)
(0.000181451 0.00192834 0.0322806)
(-7.44918e-05 -0.00113455 0.0446373)
(-0.000312 0.000676582 0.0269938)
(-9.82864e-05 0.000701889 0.174826)
(0.000699659 -0.000109541 0.156626)
(0.00160077 0.000672043 0.135782)
(0.000872603 -0.0011888 0.159306)
(0.00022646 -0.00057945 0.0195742)
(5.51971e-05 0.000303858 0.0959227)
(0.0015149 -0.00143093 0.0867314)
(-0.000414361 -0.000237758 0.174523)
(-0.000917732 -0.000133851 0.125631)
(8.92192e-05 -0.000555826 0.145153)
(-0.00127308 0.000489725 0.103947)
(-0.000168886 -8.81285e-05 0.178288)
(-0.00261687 0.0019011 0.0192718)
(0.000347202 0.00337871 0.0826963)
(-0.000437006 0.000322635 0.15203)
(-0.000161918 0.00288476 0.0242754)
(0.000321769 0.00208967 0.0421087)
(-0.00106076 -0.000495958 0.0590468)
(-0.00226201 -0.000988487 0.0201208)
(0.00139525 5.56204e-06 0.0925126)
(-0.000313029 0.00014737 0.168482)
(-0.000516789 0.00223965 0.0571912)
(0.00217038 0.00186633 0.0178875)
(-0.000301899 -0.000839059 0.102218)
(0.000386236 7.92731e-05 0.0241313)
(6.89914e-05 0.0014137 0.0962799)
(-2.73743e-05 0.000183838 0.172433)
(0.000292131 9.82392e-05 0.183427)
(0.000278969 -4.77747e-05 0.171924)
(0.000557604 0.00065242 0.163645)
(-3.14202e-05 -8.85003e-05 0.173452)
(-0.000505488 0.00199472 0.128742)
(0.00095977 -0.00103484 0.0440145)
(0.000831758 -3.24478e-06 0.174087)
(6.46354e-05 -0.000984048 0.122613)
(-0.000837822 -0.0015034 0.0855302)
(-0.00154813 -0.000548076 0.0938444)
(-0.000252473 -8.04556e-05 0.162884)
(-0.00122766 0.000673876 0.113778)
(0.000939842 0.00137862 0.0627167)
(-0.00115463 -0.00095643 0.154225)
(0.000374601 -0.00119556 0.0313708)
(0.000572612 0.000369963 0.0848978)
(0.000290858 -0.000216513 0.0940079)
(-0.000792707 0.000672994 0.0582647)
(-2.0806e-05 3.71287e-06 0.160112)
(-0.0184155 -0.000499397 0.106002)
(-0.00963656 0.000325882 0.127194)
(-0.00055019 0.00265756 0.0307188)
(0.00176123 -0.00027572 0.0248125)
(-0.000160068 0.00225043 0.0535122)
(0.00192612 -0.000436177 0.0192518)
(-0.000690108 0.000531135 0.124976)
(0.000447297 0.00104533 0.153555)
(-0.00104237 0.0013673 0.127691)
(-0.0153138 0.00120791 0.110223)
(-0.000277875 -0.000222073 0.132847)
(0.000433174 0.000596923 0.146351)
(0.0040311 0.00285528 0.0236668)
(-0.000228674 0.000668677 0.156768)
(-0.0131851 -0.000366491 0.12758)
(-0.00126809 -0.000338689 0.0417419)
(0.00263412 0.00237849 0.0207733)
(-0.000421539 -0.000533376 0.113452)