/*--------------------------------*- C++ -*----------------------------------*\
| =========                 |                                                 |
| \\      /  F ield         | OpenFOAM: The Open Source CFD Toolbox           |
|  \\    /   O peration     | Version:  2406                                  |
|   \\  /    A nd           | Website:  www.openfoam.com                      |
|    \\/     M anipulation  |                                                 |
\*---------------------------------------------------------------------------*/
FoamFile
{
    version     2.0;
    format      ascii;
    arch        "LSB;label=32;scalar=64";
    class       volVectorField;
    location    "48";
    object      momentum:momentum;
}
// * * * * * * * * * * * * * * * * * * * * * * * * * * * * * * * * * * * * * //

dimensions      [1 1 -1 0 0 0 0];

internalField   nonuniform List<vector> 
59516
(
(2.24383e-07 -1.54544e-09 -1.07331e-09)
(1.67398e-07 -2.07268e-10 -6.84233e-10)
(2.04402e-07 -1.43142e-09 -7.24648e-10)
(1.73559e-07 1.88129e-09 2.62062e-09)
(2.00074e-07 3.64648e-10 -8.02581e-09)
(5.03647e-08 -2.4072e-09 -5.37995e-09)
(2.10277e-07 -2.42556e-09 -3.30568e-09)
(1.96283e-07 1.33406e-09 -1.86064e-10)
(1.57441e-07 1.36859e-09 -8.19238e-11)
(7.95642e-08 -1.51863e-09 3.14557e-09)
(2.0833e-07 -3.90978e-10 -3.18513e-09)
(1.02051e-07 4.36595e-10 -6.25815e-09)
(3.22533e-07 3.12551e-09 -9.69413e-11)
(1.56429e-08 -8.53009e-11 -1.54158e-10)
(1.51558e-07 3.6732e-09 8.22776e-09)
(8.47234e-08 5.86891e-09 -2.7093e-09)
(2.68663e-07 -2.99932e-09 -1.5179e-09)
(1.59807e-07 9.12237e-09 -9.94472e-09)
(3.30046e-07 1.72687e-08 1.98227e-09)
(3.71913e-07 -2.15579e-09 2.71713e-10)
(9.96678e-08 1.65703e-09 -2.30207e-09)
(3.18345e-07 -1.70163e-09 5.54713e-10)
(3.51463e-07 -1.50656e-09 -4.65795e-09)
(3.47276e-08 -1.05205e-09 -2.72737e-10)
(3.12026e-07 -9.36387e-10 1.23716e-09)
(2.01079e-07 4.41316e-09 2.01211e-09)
(5.21536e-08 1.05451e-09 -3.56574e-09)
(7.41537e-08 6.31436e-09 3.54946e-10)
(1.44748e-07 5.96046e-09 -1.19562e-09)
(1.34106e-08 -2.09178e-09 5.27093e-10)
(1.89449e-07 -3.67906e-08 -8.11245e-09)
(8.37727e-08 6.70306e-09 -1.03497e-09)
(1.74716e-07 2.84093e-10 1.07533e-09)
(1.75323e-07 -1.41666e-09 3.45679e-09)
(1.33562e-07 5.05133e-09 3.72878e-09)
(3.99385e-07 5.58958e-10 -9.72819e-10)
(1.30098e-08 -1.26973e-09 -1.80642e-09)
(1.31702e-07 5.03897e-09 -1.27147e-08)
(2.66978e-07 -1.05951e-08 -9.62412e-10)
(2.8122e-07 -7.1512e-10 -1.2365e-09)
(2.57139e-07 -1.62336e-09 4.08643e-10)
(4.06901e-07 -2.39947e-08 -2.22097e-08)
(3.43236e-07 -8.99271e-09 -7.31603e-09)
(1.10769e-07 -7.20198e-10 3.7819e-10)
(2.65013e-07 -9.34322e-09 -5.61782e-10)
(1.02184e-07 -1.42185e-09 -2.3744e-09)
(3.24694e-07 -7.02609e-09 -1.05301e-08)
(2.54305e-07 -7.59238e-09 -1.39129e-09)
(2.51869e-07 -2.02988e-08 2.79271e-08)
(2.40947e-07 1.06819e-08 8.51687e-09)
(1.63912e-07 1.65024e-08 -2.28791e-08)
(7.62144e-08 -6.46145e-09 4.41452e-09)
(3.15731e-07 2.51356e-09 -6.15675e-09)
(3.0062e-07 -1.36629e-09 2.53344e-10)
(8.23596e-08 5.1815e-09 1.19491e-11)
(2.46258e-07 5.40455e-09 -1.5648e-09)
(2.03375e-07 1.16076e-08 1.20164e-08)
(7.73384e-08 6.60116e-09 -4.62144e-09)
(2.09127e-07 4.41141e-10 -1.6525e-10)
(1.45771e-07 6.8694e-09 8.70176e-09)
(2.08603e-07 -5.85768e-10 3.44399e-10)
(1.52328e-08 1.89355e-09 -6.59132e-10)
(2.66894e-07 1.00567e-09 6.86758e-10)
(3.42259e-07 5.22437e-09 3.83157e-09)
(2.91427e-07 5.29641e-10 -1.56736e-09)
(2.15218e-07 5.41038e-09 7.74493e-09)
(1.8085e-08 -1.22573e-09 1.6572e-09)
(6.61399e-08 4.12281e-10 -3.49579e-10)
(1.98313e-07 -8.26433e-09 3.63094e-08)
(1.69189e-07 1.56086e-09 -3.88005e-09)
(5.20968e-08 1.45147e-09 4.3089e-10)
(1.57638e-07 1.9571e-09 3.73235e-12)
(2.32884e-08 1.45802e-09 -3.55026e-09)
(1.86192e-07 1.51937e-09 8.27883e-10)
(3.77515e-07 1.69629e-10 -7.12845e-10)
(3.60256e-07 -5.30891e-09 -6.49072e-09)
(2.14651e-07 -3.2688e-09 -4.7717e-09)
(2.26537e-07 -2.6782e-10 1.06474e-10)
(8.48829e-08 -2.84614e-09 2.65496e-09)
(1.93005e-07 3.91137e-09 9.92755e-09)
(5.06649e-08 3.07692e-09 1.45396e-09)
(1.71351e-07 4.7664e-09 7.14599e-09)
(1.82765e-07 2.44375e-09 7.70945e-09)
(1.81232e-08 -6.89239e-10 2.53149e-09)
(2.15034e-07 4.77014e-09 9.45361e-09)
(3.8149e-07 -1.09511e-09 1.25894e-09)
(3.16043e-08 -1.14536e-09 4.97453e-10)
(5.02607e-07 -1.53182e-10 4.87347e-10)
(1.10407e-07 1.42967e-09 4.50253e-09)
(1.66809e-07 1.3147e-08 -9.03078e-09)
(1.83412e-07 -1.22638e-09 -1.60247e-08)
(1.89318e-07 2.27185e-09 -4.23163e-10)
(2.60184e-07 2.69628e-10 -2.27514e-10)
(1.82502e-07 1.6163e-09 -4.3653e-10)
(1.83125e-07 4.23232e-10 1.52795e-12)
(1.83436e-07 -1.76164e-08 6.58797e-09)
(1.24388e-07 -3.30652e-10 4.9504e-10)
(8.48095e-08 -2.99295e-09 -6.68524e-09)
(1.1529e-07 4.31778e-09 -1.8379e-09)
(2.07663e-07 -1.23821e-09 2.285e-09)
(6.2068e-08 9.92873e-10 2.34199e-09)
(2.6355e-08 1.34805e-09 -2.99524e-09)
(2.3273e-08 8.25962e-10 3.20861e-09)
(8.47617e-08 -1.30092e-09 -4.57342e-09)
(2.34052e-07 1.23229e-09 -3.76438e-10)
(1.63701e-07 -3.8033e-10 -1.15475e-10)
(5.52433e-08 4.84392e-09 -1.9849e-09)
(1.37632e-07 4.55946e-10 -1.02116e-09)
(1.7564e-07 -1.21233e-09 2.7834e-10)
(1.88633e-07 1.18617e-09 -7.63638e-09)
(2.80303e-07 2.89722e-08 -3.04193e-08)
(4.30933e-08 4.36622e-09 -6.48445e-10)
(1.87507e-07 2.36242e-09 -1.16172e-08)
(2.19225e-07 3.23386e-08 -1.62382e-08)
(2.2116e-07 7.25267e-11 -7.36027e-11)
(1.37242e-07 1.49439e-09 1.51131e-09)
(1.2643e-07 1.37218e-09 -4.78123e-09)
(1.43849e-07 -8.74071e-11 8.38207e-10)
(1.83391e-08 -2.59942e-10 8.85042e-10)
(2.625e-07 2.21222e-09 6.0238e-10)
(4.12921e-07 -7.80515e-10 7.85416e-10)
(1.76875e-07 -3.87665e-10 6.11324e-10)
(1.59854e-07 -3.11924e-10 8.68737e-10)
(1.83619e-07 -6.09819e-10 6.25038e-10)
(1.33051e-07 -1.79051e-08 2.75992e-09)
(1.43856e-07 2.03977e-09 -4.78087e-09)
(3.57703e-08 -6.51838e-10 2.34234e-09)
(2.12217e-07 -2.10292e-08 -1.71174e-09)
(1.63205e-07 -5.01098e-09 2.3872e-08)
(1.60811e-07 4.43988e-10 -3.48843e-11)
(2.85811e-07 4.17573e-10 2.47503e-10)
(3.23512e-07 4.84286e-09 5.55983e-09)
(2.26196e-08 1.331e-09 -1.55362e-09)
(2.55295e-07 -1.93942e-10 1.0924e-09)
(3.14605e-07 3.86891e-09 8.50069e-10)
(1.96838e-07 -1.14321e-09 -3.49736e-09)
(1.51791e-07 1.8085e-08 -1.26624e-08)
(3.12889e-07 -9.5931e-10 8.92623e-10)
(5.19227e-08 3.57848e-09 1.59609e-10)
(1.58909e-07 7.08332e-10 -2.0047e-09)
(7.60769e-08 -1.52351e-09 -3.86317e-09)
(3.33055e-07 -9.76499e-10 6.79799e-10)
(1.38551e-08 5.99944e-10 1.21058e-09)
(1.5041e-07 -1.30835e-09 -5.91604e-10)
(2.17878e-07 6.88739e-10 9.39057e-10)
(2.83657e-07 3.57137e-09 5.20039e-10)
(2.02896e-07 -7.61068e-09 -2.77275e-09)
(2.0543e-07 2.81919e-09 -4.95583e-09)
(6.40331e-08 -1.036e-09 1.78433e-09)
(2.06817e-07 -1.38026e-09 -1.65641e-09)
(3.18289e-07 -6.09249e-10 -2.56425e-09)
(5.21886e-08 -1.9861e-09 3.92023e-11)
(3.87354e-07 -2.17229e-09 2.58427e-09)
(2.18335e-07 -4.64876e-10 5.08876e-10)
(1.58596e-07 -4.96513e-10 3.75887e-09)
(1.45839e-08 -2.81388e-10 1.57502e-09)
(2.77333e-07 -6.37944e-10 -4.75471e-10)
(3.29889e-07 4.01309e-09 -5.37223e-10)
(1.28607e-07 1.91773e-09 3.07953e-10)
(1.56917e-08 1.88004e-09 -2.052e-09)
(8.86053e-08 2.14051e-09 -4.56759e-09)
(1.11243e-07 -6.05578e-09 -3.83834e-09)
(3.96147e-08 -1.63221e-09 3.8848e-10)
(2.23221e-08 -1.91046e-10 -4.37083e-10)
(1.62563e-07 3.00941e-09 3.90371e-09)
(3.30005e-07 1.05673e-10 2.11048e-09)
(1.55326e-07 -1.90591e-09 9.25756e-10)
(2.84245e-07 1.33582e-09 4.0231e-11)
(1.7142e-08 -1.06292e-09 1.97534e-09)
(2.15069e-07 -9.11287e-10 -6.55499e-11)
(8.67807e-08 1.40375e-09 1.20234e-09)
(6.68932e-08 9.92039e-10 -1.02707e-09)
(1.05565e-07 2.70455e-09 1.35155e-09)
(1.51276e-07 -4.5594e-10 6.02414e-10)
(8.47114e-08 -1.3152e-09 4.25391e-10)
(4.53111e-07 -5.30514e-09 -1.78523e-08)
(2.4961e-07 -5.37968e-10 -1.4376e-09)
(3.09988e-07 -1.16613e-08 -7.19607e-09)
(1.48116e-07 -1.8316e-09 6.91375e-09)
(6.19787e-08 -1.99142e-10 -8.38854e-10)
(3.07895e-07 4.58121e-09 1.41792e-09)
(4.24841e-08 -3.74107e-09 -1.70231e-09)
(2.96634e-08 -3.5663e-10 -2.3318e-09)
(1.04407e-07 -2.64919e-09 2.99362e-10)
(2.07561e-07 1.35579e-10 6.71513e-10)
(9.69321e-08 5.17427e-10 1.1797e-09)
(4.57207e-08 -7.6099e-10 -3.56544e-09)
(2.01056e-08 1.91269e-11 2.68797e-10)
(1.90719e-07 2.16223e-10 -1.3021e-10)
(2.25167e-07 -3.99749e-09 -3.77213e-10)
(1.58768e-07 -6.76986e-10 3.27305e-09)
(1.14427e-07 6.97107e-09 -7.41701e-12)
(2.15868e-07 -9.74873e-10 -1.58982e-10)
(9.37607e-08 3.51651e-09 1.01275e-10)
(3.39873e-07 -1.10371e-10 -6.43986e-10)
(2.85329e-08 -2.57247e-10 7.88749e-10)
(9.66381e-08 1.31692e-09 -1.7893e-10)
(5.64104e-08 -1.55441e-09 3.96611e-10)
(1.85231e-07 4.86672e-09 6.18931e-09)
(2.65186e-07 1.17786e-09 -8.37355e-10)
(7.70891e-08 -2.67053e-09 3.13028e-10)
(1.96085e-07 -6.73246e-10 4.7264e-10)
(3.11484e-07 -2.41119e-09 2.57262e-09)
(1.58804e-08 1.72047e-09 -1.16218e-09)
(2.19861e-07 -1.93197e-09 -8.38301e-10)
(2.39124e-07 4.75273e-10 4.16814e-10)
(3.54218e-07 6.65813e-10 1.77418e-10)
(2.00002e-07 -1.83912e-09 -6.00154e-10)
(1.80579e-08 -5.68261e-10 1.70206e-10)
(3.01584e-07 -5.38899e-09 -1.34527e-10)
(6.03275e-08 4.24817e-09 3.76255e-09)
(2.5128e-08 -4.13474e-09 -6.77911e-10)
(2.31965e-07 3.95261e-10 -2.30817e-09)
(9.45642e-08 -2.02099e-09 1.30892e-09)
(2.92871e-07 3.67071e-09 3.23922e-10)
(2.90533e-07 -1.01948e-10 -4.7191e-10)
(2.72873e-07 2.33127e-09 6.94323e-10)
(2.08194e-07 -1.87286e-09 5.90792e-10)
(8.25687e-08 3.34756e-09 -4.37749e-09)
(2.19499e-07 -2.883e-10 1.12973e-09)
(1.18127e-07 4.56088e-09 4.12294e-09)
(1.94604e-07 6.42838e-10 4.09629e-11)
(1.81189e-07 7.54551e-10 1.01481e-09)
(7.33399e-08 -3.48884e-10 1.26279e-09)
(2.99688e-07 -3.04699e-10 -3.55806e-10)
(3.13588e-07 -7.51177e-10 -1.22019e-09)
(3.16336e-08 -3.5306e-10 1.61133e-09)
(6.48405e-08 2.08636e-09 -3.05875e-09)
(2.01375e-07 5.79239e-10 7.47607e-10)
(1.16847e-07 5.07428e-10 -8.79398e-09)
(2.44128e-07 -8.54229e-10 1.68837e-10)
(1.8195e-07 2.78254e-10 -4.2665e-10)
(3.2587e-07 9.91494e-10 1.29063e-09)
(2.65138e-08 -2.07301e-09 -1.49461e-09)
(3.10042e-08 8.3666e-10 -1.48824e-09)
(3.87751e-08 1.02526e-09 -1.39771e-09)
(1.08339e-07 6.41579e-10 2.60376e-10)
(1.73605e-07 -2.12914e-09 1.1585e-09)
(4.21754e-07 2.7591e-09 3.37511e-09)
(8.61005e-08 -1.87882e-09 2.30114e-09)
(2.56412e-07 -3.37189e-10 8.07736e-10)
(1.85453e-08 3.33072e-10 2.74259e-09)
(1.09231e-07 8.90404e-11 1.83256e-09)
(2.65686e-08 1.72902e-10 2.93864e-09)
(1.67544e-07 6.39597e-10 3.90409e-10)
(1.51732e-07 -8.72593e-10 -4.18389e-10)
(1.97364e-07 3.15891e-10 1.27488e-09)
(1.84699e-07 2.5906e-09 -4.11779e-09)
(2.80557e-07 8.56948e-11 -6.65318e-10)
(1.98781e-07 5.24839e-10 9.00487e-10)
(3.84166e-07 -9.36537e-10 2.77533e-10)
(2.13142e-07 -4.43144e-12 9.74743e-10)
(1.97488e-07 3.1242e-10 7.18545e-10)
(2.82214e-07 1.12757e-09 -1.44304e-09)
(2.83284e-07 2.34607e-09 1.78127e-09)
(3.01853e-07 2.87667e-10 1.41136e-09)
(1.1093e-07 1.394e-10 -5.27174e-10)
(2.85111e-07 1.81758e-09 3.21969e-09)
(7.97213e-08 -7.68708e-10 -4.42575e-09)
(9.68861e-08 8.02239e-10 3.39108e-09)
(2.1801e-07 1.35153e-09 -1.72446e-09)
(2.63883e-07 -6.16273e-10 7.1841e-10)
(2.37941e-07 6.31887e-09 3.20836e-09)
(2.88973e-07 2.8215e-10 7.68187e-10)
(7.40139e-08 6.81854e-11 1.61461e-09)
(1.06167e-07 4.13289e-09 -2.8548e-09)
(3.06176e-07 -2.28949e-10 -2.38475e-09)
(2.13328e-07 4.55537e-09 1.16273e-09)
(6.07009e-08 -1.00733e-09 -9.44395e-10)
(7.36113e-08 3.36845e-10 -2.10965e-09)
(1.64442e-07 1.6231e-09 -5.4563e-09)
(1.89277e-07 -5.59671e-10 -2.38524e-10)
(3.05865e-07 -7.49176e-09 9.85971e-11)
(1.47795e-07 -2.22988e-09 1.52299e-09)
(3.36968e-07 -2.1352e-09 -8.98573e-10)
(1.88911e-07 -1.22393e-09 4.98623e-09)
(1.91865e-08 2.29674e-09 -1.30227e-09)
(2.99333e-07 4.65654e-10 1.64056e-09)
(2.83455e-08 1.82784e-09 -2.43215e-09)
(5.16483e-08 -2.10552e-09 1.40295e-09)
(3.60784e-07 7.91952e-10 1.79101e-09)
(2.50021e-07 3.09892e-11 -6.83286e-10)
(2.73939e-08 2.94301e-09 2.93371e-09)
(2.9681e-07 2.19603e-09 1.16249e-09)
(2.45085e-07 4.80318e-09 5.11122e-11)
(2.51148e-07 -1.40467e-09 2.48679e-09)
(3.30731e-07 -1.19362e-09 7.2676e-11)
(2.28172e-08 2.7049e-09 5.08795e-10)
(2.85176e-07 7.39508e-10 6.92194e-10)
(1.52088e-07 -2.45398e-10 1.14812e-10)
(1.61713e-07 1.46623e-10 7.2283e-10)
(2.52651e-07 1.23719e-09 1.56413e-09)
(1.70419e-07 1.42748e-09 9.15891e-10)
(1.75761e-07 9.2768e-10 -4.12796e-10)
(2.6804e-07 1.42927e-09 3.78136e-10)
(3.81132e-08 -1.37087e-09 -1.74826e-09)
(2.84694e-07 -8.51479e-10 9.18266e-10)
(1.90056e-07 -8.31538e-10 -7.68357e-10)
(3.68995e-07 -1.2256e-10 7.30777e-10)
(2.70606e-07 6.61648e-10 1.11036e-09)
(3.06929e-07 -1.30904e-09 1.6167e-09)
(1.34552e-07 2.067e-09 2.95964e-09)
(1.94503e-08 -2.93059e-10 1.35183e-09)
(3.48528e-08 -8.48061e-10 5.85429e-10)
(5.12006e-07 -3.16262e-09 -2.63328e-09)
(1.79258e-08 -1.04492e-09 2.58379e-09)
(1.70854e-07 -9.38092e-10 -2.96531e-09)
(7.24283e-08 4.01364e-09 1.60874e-09)
(3.16506e-07 1.06421e-09 1.58908e-09)
(3.75981e-07 -9.29743e-10 -6.53453e-10)
(3.1456e-07 -2.17864e-10 -1.39715e-09)
(1.21212e-07 1.02708e-10 -2.71941e-09)
(2.93872e-07 4.38683e-09 -6.72823e-09)
(6.67161e-08 -5.53268e-09 4.48338e-09)
(8.6831e-08 2.03476e-09 1.8226e-09)
(2.00735e-07 1.0528e-09 2.13662e-11)
(1.54667e-07 1.6583e-09 -1.49715e-09)
(2.69475e-07 3.09141e-08 8.77443e-09)
(1.90416e-07 -4.01791e-09 1.96492e-09)
(6.31173e-08 -2.7204e-10 -6.04521e-10)
(1.01578e-07 -1.49246e-09 3.20646e-09)
(2.05358e-07 -1.85715e-09 -3.15296e-09)
(2.17524e-07 -4.23154e-11 -3.94183e-10)
(4.2694e-07 -1.88794e-09 1.89624e-09)
(2.27932e-07 3.25e-11 1.1891e-09)
(4.90271e-07 -3.69899e-09 1.10876e-09)
(1.66618e-07 6.48555e-09 7.96781e-09)
(3.3595e-07 1.88258e-09 2.16378e-09)
(2.78877e-07 1.78926e-09 1.64485e-09)
(1.97759e-07 -9.89633e-10 1.24586e-10)
(3.38575e-07 -1.47575e-09 1.52593e-09)
(1.0232e-07 2.20444e-09 -6.01018e-09)
(2.27617e-08 -1.49569e-09 -2.68267e-09)
(2.94255e-07 -2.56984e-09 5.36364e-10)
(5.72068e-08 -2.75877e-09 3.13297e-09)
(2.76838e-08 1.1783e-10 4.92849e-11)
(3.95523e-07 1.27515e-09 4.18009e-09)
(1.99598e-07 -4.23933e-10 6.23279e-10)
(1.06375e-07 -2.31427e-09 -5.32898e-09)
(2.5625e-07 -1.23765e-09 6.36941e-10)
(3.29448e-07 -2.32161e-09 8.81e-10)
(4.29299e-07 -1.95278e-09 -9.72332e-10)
(2.69373e-07 -1.88345e-09 -4.92336e-10)
(3.06171e-08 1.45199e-09 3.84569e-11)
(3.17132e-07 -1.94832e-10 3.14178e-11)
(2.20891e-07 -1.15713e-09 9.84366e-10)
(9.7228e-08 1.55433e-10 1.38709e-09)
(2.98671e-07 5.80744e-11 1.91468e-09)
(2.5368e-07 -5.66938e-10 7.04741e-10)
(1.72945e-07 5.80283e-11 -1.14165e-09)
(1.98624e-07 3.00368e-10 -1.56691e-09)
(2.76776e-07 -2.02382e-09 2.67831e-09)
(2.0089e-07 -1.75212e-09 6.01604e-10)
(7.66869e-08 -3.92566e-10 -2.12855e-10)
(1.97126e-08 8.25047e-10 -6.37805e-10)
(3.85551e-08 -2.8258e-09 -2.19035e-10)
(2.16707e-07 1.10671e-09 -4.78588e-10)
(2.67841e-07 -2.10829e-08 3.29913e-08)
(1.15792e-07 -6.52695e-09 -9.44162e-09)
(1.09956e-07 4.97032e-10 4.76937e-10)
(2.45683e-07 1.75476e-10 4.40647e-09)
(3.07081e-07 5.34385e-10 1.76924e-09)
(2.31887e-07 -2.18659e-09 6.02535e-09)
(3.59406e-07 -1.54955e-09 1.9122e-09)
(3.36141e-07 -1.99997e-09 -9.50037e-10)
(2.23558e-07 -1.0241e-10 9.25017e-10)
(1.3854e-07 7.6002e-10 3.44311e-10)
(2.33593e-08 -7.17338e-10 -2.48461e-10)
(2.41072e-07 -4.75495e-08 5.84531e-09)
(8.57702e-08 2.18632e-09 7.32684e-10)
(6.25164e-08 -2.78975e-09 -6.43221e-10)
(6.61985e-08 1.38697e-09 5.17219e-10)
(1.73701e-07 -6.54712e-10 -4.13883e-10)
(1.71518e-07 -1.02499e-09 -4.43629e-11)
(2.36471e-07 8.59985e-10 -1.74187e-09)
(1.65703e-08 9.05693e-10 -1.42079e-09)
(1.68607e-07 -5.596e-10 4.1674e-10)
(6.31749e-08 1.49464e-09 -1.22537e-09)
(1.87645e-07 -3.4736e-10 -1.30899e-10)
(5.43786e-08 -7.34542e-10 -5.57263e-10)
(1.45217e-07 -3.46968e-09 2.85366e-09)
(2.15944e-07 -5.66237e-09 1.71169e-09)
(1.85446e-07 -1.41321e-09 1.40881e-09)
(1.83713e-08 1.47383e-09 -1.9827e-09)
(1.10524e-07 -1.22954e-09 4.64248e-09)
(2.37817e-07 -3.93755e-10 1.04141e-09)
(2.45313e-08 -1.52485e-09 -1.95259e-09)
(2.89594e-07 2.86208e-09 2.08823e-08)
(1.80804e-07 -1.27461e-09 4.06117e-09)
(3.01998e-07 -9.36722e-10 -4.73705e-09)
(1.9761e-07 4.37105e-09 -6.0107e-09)
(9.25795e-08 -1.29208e-09 2.18378e-09)
(3.94912e-07 1.49747e-09 2.45278e-10)
(1.42006e-07 -1.45498e-08 -1.3215e-08)
(3.34004e-07 4.33186e-10 1.74376e-10)
(1.55505e-07 1.20507e-08 1.26122e-08)
(1.39317e-07 -6.32083e-09 8.63334e-10)
(1.41682e-07 -9.39538e-10 -3.30506e-09)
(2.75184e-07 3.9343e-10 3.72317e-10)
(5.45526e-07 1.43453e-09 1.16395e-09)
(7.89419e-08 -7.88044e-10 9.50741e-10)
(3.35447e-07 1.09932e-09 -1.48405e-09)
(1.18346e-07 -5.8774e-10 -2.78093e-09)
(4.41633e-07 3.13478e-10 1.402e-09)
(3.36746e-07 -3.29116e-10 1.86732e-09)
(6.85847e-08 2.00864e-09 -5.18784e-09)
(2.17083e-07 -1.78851e-09 2.10795e-10)
(3.81221e-07 -4.64882e-09 4.1488e-09)
(2.27844e-07 9.90439e-10 -7.50522e-10)
(2.22127e-07 1.02835e-09 7.90928e-10)
(2.3179e-08 -8.0555e-10 -2.9182e-09)
(1.94344e-08 9.72745e-10 -2.4389e-09)
(2.92242e-07 2.73988e-09 -3.82281e-09)
(2.8687e-07 2.49564e-11 -6.74807e-11)
(2.23697e-07 -1.91003e-09 -7.40323e-10)
(3.51168e-08 3.6863e-10 -2.59356e-09)
(8.97215e-08 -8.57949e-10 2.12965e-10)
(2.99613e-07 -2.82462e-09 -2.14928e-09)
(1.69902e-07 -2.28119e-10 3.73923e-10)
(3.12316e-07 4.04073e-10 1.438e-09)
(2.88132e-07 7.85853e-10 -8.07189e-10)
(2.20537e-07 8.13528e-10 8.26626e-10)
(2.3483e-07 1.99964e-09 6.97972e-10)
(1.2053e-07 7.52997e-10 4.12853e-10)
(2.15957e-07 8.38375e-10 -1.84397e-10)
(8.70902e-08 -1.67676e-09 -4.23961e-09)
(2.89817e-07 3.53359e-10 -7.94409e-10)
(1.8881e-07 -7.3259e-10 -1.86149e-09)
(2.15039e-07 5.89245e-10 1.31704e-09)
(2.22848e-07 2.60406e-10 -1.61835e-10)
(3.50049e-07 -1.04815e-09 4.65779e-10)
(2.65795e-07 3.57884e-10 -2.29545e-09)
(6.68432e-08 3.82083e-09 3.57023e-09)
(4.41248e-08 1.11335e-09 3.58242e-10)
(1.91764e-08 1.66537e-09 -1.90229e-09)
(2.31998e-07 6.34554e-09 1.13595e-08)
(2.974e-07 -6.76736e-12 -3.60692e-10)
(2.71903e-07 -1.56206e-09 1.32817e-09)
(1.92304e-07 1.44614e-09 1.95567e-10)
(2.94435e-08 -9.45876e-11 1.10427e-09)
(2.21903e-08 -3.62496e-10 2.54222e-09)
(1.80001e-07 -8.47993e-10 2.67201e-09)
(2.33101e-07 -2.49898e-10 2.22139e-09)
(3.13173e-07 -9.52141e-10 1.40609e-09)
(3.20048e-07 8.42417e-10 3.35781e-10)
(1.98158e-07 -1.67161e-09 -1.27112e-09)
(3.45651e-07 4.58218e-10 5.80975e-10)
(3.74424e-07 2.03025e-09 2.60255e-09)
(3.12552e-08 -6.41116e-10 2.93476e-09)
(1.82213e-07 -3.19105e-10 1.17848e-09)
(7.2252e-08 6.90124e-10 3.7577e-09)
(9.7577e-08 -9.75388e-09 2.08885e-09)
(1.28751e-07 1.93396e-10 4.39602e-10)
(1.41379e-07 8.11737e-10 -8.96066e-11)
(2.5271e-07 -2.93893e-10 2.81324e-10)
(1.90998e-08 -3.58758e-09 -1.30888e-09)
(3.57608e-07 1.04184e-09 -8.37147e-10)
(2.68496e-07 -1.09186e-10 -5.125e-10)
(2.17079e-07 4.35136e-10 6.612e-10)
(2.00833e-07 2.06904e-09 2.39727e-10)
(1.71501e-07 -8.47e-10 1.75591e-09)
(2.62864e-07 1.00442e-10 1.18037e-09)
(2.46089e-07 8.56745e-10 3.0169e-10)
(3.06101e-07 1.4088e-09 3.44835e-10)
(1.66763e-07 6.84965e-09 -5.66615e-09)
(2.69047e-07 7.87653e-10 -4.48931e-10)
(2.90307e-07 -5.46954e-09 -9.06766e-10)
(1.82706e-08 -1.1765e-09 1.30741e-09)
(3.07581e-07 -9.46621e-11 -4.01264e-11)
(1.90784e-07 3.58035e-09 9.05785e-11)
(6.40964e-08 -1.86716e-09 5.28915e-09)
(1.7086e-07 1.55036e-09 -2.92996e-09)
(3.44809e-07 -1.22506e-10 -4.48996e-10)
(2.23645e-07 -7.20624e-10 1.745e-09)
(1.18004e-07 3.01983e-10 -3.34471e-09)
(1.80239e-08 -1.64217e-09 -1.79241e-09)
(2.57624e-07 -4.83575e-10 -3.51998e-10)
(3.35348e-07 4.47703e-09 -4.96798e-09)
(2.3648e-07 -6.43602e-10 -9.27074e-10)
(1.87814e-07 1.66956e-11 1.18377e-09)
(5.69629e-08 2.60661e-09 2.53865e-09)
(2.51422e-07 9.70994e-11 -6.37162e-10)
(2.65043e-08 2.1431e-09 -3.40956e-09)
(1.74441e-07 2.45475e-10 -8.23864e-10)
(2.08664e-07 2.32575e-08 -7.45035e-09)
(2.56372e-07 -1.8291e-09 -1.10933e-09)
(8.75129e-08 1.60848e-11 3.06899e-09)
(1.82093e-07 -2.13102e-09 -2.69345e-09)
(1.15111e-07 1.9804e-10 -1.50998e-09)
(4.71473e-08 2.68826e-09 2.40883e-09)
(4.70638e-07 8.51648e-11 1.11455e-09)
(2.13047e-07 -2.28289e-10 9.47732e-10)
(1.756e-08 6.11255e-10 1.71576e-09)
(2.80851e-07 -1.35935e-10 6.58611e-10)
(2.85264e-07 5.56131e-10 1.00116e-09)
(3.85548e-08 -9.06592e-11 -2.30682e-09)
(1.26903e-07 5.61344e-09 -1.35487e-10)
(9.82871e-08 3.62462e-09 2.56233e-09)
(1.90693e-07 1.74825e-10 8.03787e-10)
(2.6148e-07 1.72119e-10 5.58915e-10)
(3.50014e-08 -9.31003e-10 1.60757e-09)
(9.03615e-08 -3.00375e-09 -1.0017e-09)
(1.01324e-07 2.03256e-09 -1.53242e-10)
(1.75701e-07 2.32147e-09 5.8268e-10)
(3.38627e-07 5.25064e-10 9.41718e-10)
(2.32618e-08 1.25356e-09 -3.04379e-09)
(3.65813e-07 -1.29569e-09 1.83907e-09)
(2.36939e-07 5.39593e-09 -7.25278e-10)
(2.75234e-07 -6.50657e-10 1.71129e-09)
(1.14195e-07 4.9009e-09 -4.72402e-09)
(3.32517e-07 1.4147e-09 5.44255e-10)
(2.27357e-08 -2.74412e-10 -2.47381e-09)
(2.96662e-07 -1.1742e-09 -6.74925e-10)
(2.74975e-08 -4.19353e-10 -5.17749e-11)
(1.36152e-07 -3.79409e-09 1.78485e-09)
(2.26977e-07 -1.81986e-09 1.88602e-10)
(1.36658e-07 -4.0628e-09 -1.38275e-09)
(1.89859e-08 2.2203e-09 1.9707e-09)
(5.02701e-08 9.79424e-10 -1.59682e-09)
(7.53459e-08 -4.03388e-09 2.7153e-09)
(1.30967e-07 2.6112e-09 -3.72776e-09)
(3.25307e-07 1.49958e-10 -1.66391e-09)
(5.7283e-08 -1.3059e-09 3.65336e-11)
(1.35402e-07 4.39771e-09 -2.40564e-09)
(2.25771e-07 -1.25661e-08 -2.4268e-08)
(2.14815e-07 9.7327e-11 8.90549e-10)
(2.87699e-08 1.84834e-09 3.33983e-10)
(2.25159e-07 6.09478e-10 -2.29023e-09)
(1.47298e-07 1.60567e-08 -6.35038e-09)
(2.02237e-07 -7.01201e-10 -2.3133e-10)
(9.95555e-08 -2.11048e-10 -2.36852e-09)
(1.76874e-07 2.26097e-10 1.32193e-09)
(1.05844e-07 -4.29596e-09 -3.11263e-09)
(1.61085e-07 8.20203e-10 8.21972e-10)
(1.6164e-07 2.66425e-12 -6.45957e-10)
(7.17783e-08 3.2165e-09 -6.44189e-09)
(2.97506e-07 -3.62671e-11 -1.7257e-10)
(7.10572e-08 3.34666e-09 3.60872e-09)
(1.54018e-08 2.34548e-09 8.80171e-10)
(3.16508e-07 1.8954e-09 -9.69351e-10)
(1.91294e-07 -6.7876e-11 2.29578e-10)
(2.93314e-07 2.28989e-09 -9.98782e-10)
(2.2696e-07 2.99712e-09 -1.35587e-09)
(4.67171e-07 -2.431e-09 4.01095e-10)
(1.3676e-07 3.95695e-09 -5.50772e-10)
(4.09477e-07 -2.15431e-09 1.00195e-09)
(9.73381e-08 -3.07188e-09 4.22843e-09)
(1.53274e-07 2.3403e-10 1.57958e-10)
(3.04954e-07 -3.55591e-09 -3.26281e-09)
(3.21086e-08 8.17015e-10 -4.45809e-09)
(3.02565e-07 1.44295e-09 -1.7829e-09)
(1.1303e-07 1.11119e-10 3.60974e-09)
(2.95776e-08 -2.11563e-09 -2.18011e-09)
(2.76579e-07 -2.26681e-09 -7.68595e-10)
(6.20938e-08 -1.77042e-09 1.56824e-09)
(2.02847e-07 3.15578e-10 2.83255e-11)
(2.23918e-07 -2.86237e-10 1.27459e-09)
(3.7316e-07 1.06294e-09 7.55502e-10)
(9.53024e-08 -4.28561e-09 -4.6504e-09)
(2.92e-07 2.17087e-09 5.44221e-10)
(1.51544e-07 -2.3117e-09 2.07254e-09)
(3.2266e-07 5.2156e-10 1.66501e-10)
(3.25837e-07 -1.85272e-10 9.00859e-10)
(2.86666e-07 2.082e-10 1.44259e-09)
(1.70243e-07 -1.84666e-10 -1.38073e-10)
(4.81447e-08 -2.69891e-09 -2.26471e-09)
(6.9379e-08 4.00421e-10 -6.25889e-10)
(1.81782e-07 -5.75959e-10 -3.15218e-11)
(2.89183e-07 5.49166e-10 2.96654e-09)
(2.81342e-08 -2.01887e-09 -9.29305e-10)
(2.48723e-07 -3.07972e-10 9.59447e-10)
(4.83146e-07 9.86117e-11 7.84536e-10)
(3.56104e-07 -1.30229e-09 -5.67419e-10)
(3.84684e-07 -2.03347e-09 -3.91683e-10)
(2.47358e-07 -5.74297e-11 -3.70407e-09)
(1.99776e-08 2.02215e-09 1.74108e-09)
(2.31675e-07 6.75405e-10 -2.81363e-10)
(1.46989e-07 -1.40383e-09 -1.78505e-09)
(2.67232e-07 1.25571e-09 1.17076e-09)
(1.59758e-07 5.37337e-10 -1.87728e-10)
(3.51509e-08 2.49865e-09 -1.41431e-10)
(2.1554e-07 1.56554e-10 7.84889e-10)
(1.50157e-07 3.85022e-09 3.93628e-09)
(2.43579e-07 -1.7476e-10 4.48054e-10)
(2.78389e-07 -1.01891e-09 4.97827e-11)
(2.00102e-07 -2.24363e-09 -3.21436e-10)
(1.35357e-08 1.24318e-09 -1.59265e-09)
(1.9835e-08 -1.22521e-09 -1.93476e-09)
(1.91591e-07 2.56878e-10 2.34925e-10)
(3.13289e-07 -2.16791e-09 -1.29876e-09)
(2.36449e-07 6.62899e-10 1.36834e-09)
(1.84204e-07 -4.69922e-10 1.58444e-09)
(1.59526e-07 -2.44492e-09 9.93596e-10)
(2.56792e-07 -1.76655e-09 -1.03058e-09)
(2.94076e-07 3.70878e-10 1.27967e-09)
(1.92431e-08 1.69788e-09 4.0475e-10)
(1.5273e-07 2.80948e-10 4.76726e-10)
(1.74136e-07 -1.94592e-08 -5.4367e-10)
(4.57459e-08 -7.51797e-10 2.42623e-09)
(8.42336e-08 -5.39309e-09 1.36174e-09)
(3.06309e-07 -4.13131e-10 -1.92541e-09)
(2.11885e-07 -2.54354e-09 1.54616e-09)
(1.97134e-07 6.94121e-10 -1.82814e-10)
(2.34975e-07 -1.39781e-09 1.26105e-09)
(1.38316e-07 -4.7583e-09 1.53664e-09)
(3.42226e-07 2.24782e-10 -1.00723e-10)
(1.78621e-07 1.68764e-09 -5.43279e-09)
(4.35736e-07 1.69986e-09 -3.60645e-10)
(2.23389e-07 1.32827e-09 5.66177e-11)
(2.47733e-07 -6.35811e-10 2.67632e-10)
(3.23388e-07 -9.5423e-10 3.97329e-10)
(4.72981e-08 -4.49337e-10 2.34783e-09)
(5.45765e-07 -1.65391e-09 1.864e-10)
(3.32445e-08 1.00979e-09 -1.3573e-09)
(1.48938e-07 -1.45081e-08 8.55625e-09)
(1.15459e-07 3.71348e-09 2.99574e-09)
(1.61663e-07 -3.22155e-09 -1.65839e-08)
(2.13496e-07 -1.1379e-09 -1.16957e-09)
(2.90743e-07 -4.7199e-08 -1.05013e-08)
(1.41994e-07 2.3447e-10 -4.04739e-10)
(3.28053e-07 -9.30924e-10 -5.61837e-10)
(3.40833e-07 2.32006e-09 -1.40172e-10)
(2.18532e-07 -5.02944e-10 1.04496e-09)
(3.46019e-08 2.65332e-10 -6.09516e-10)
(1.18484e-07 -4.45243e-09 -2.98657e-09)
(2.10303e-07 -3.9306e-09 -2.99562e-08)
(2.2177e-07 3.42681e-10 2.22327e-10)
(1.00209e-07 -2.0711e-09 -5.32653e-10)
(2.18178e-07 -2.15155e-08 -7.54521e-09)
(2.38758e-07 -5.77754e-09 6.81827e-09)
(3.07434e-07 2.47869e-09 2.47507e-09)
(4.3717e-08 -8.8213e-10 1.56633e-09)
(5.36124e-08 -2.63461e-09 1.47285e-09)
(2.69565e-08 1.21953e-10 -2.48679e-10)
(1.94595e-08 1.48143e-10 -1.48968e-09)
(4.3828e-08 -1.0534e-10 2.15151e-10)
(2.21562e-07 -1.58373e-08 9.15423e-09)
(1.83138e-07 -6.9428e-10 1.12822e-09)
(1.85194e-08 -6.45468e-10 2.57144e-09)
(2.03917e-08 1.46563e-09 2.25301e-09)
(3.65763e-07 5.58136e-10 -2.44221e-10)
(1.66146e-07 -2.18271e-08 1.48228e-08)
(4.64697e-08 2.01039e-09 7.52426e-10)
(2.28592e-07 3.31415e-10 -8.50979e-10)
(1.07314e-07 -1.15529e-09 -1.50168e-09)
(2.02929e-07 3.27607e-10 1.87209e-09)
(4.40113e-08 2.29473e-09 -1.24502e-09)
(9.27678e-08 2.87519e-09 -1.10882e-09)
(1.92148e-07 -2.1387e-09 9.81993e-11)
(2.74978e-07 1.67575e-10 -1.31685e-09)
(4.0245e-07 3.16243e-11 -2.13062e-09)
(4.26078e-08 3.53317e-09 -1.21138e-09)
(2.43725e-08 -1.90551e-09 1.16173e-09)
(2.01612e-07 -2.88129e-08 -2.13833e-08)
(2.77354e-08 -3.60603e-09 1.4737e-10)
(3.11115e-07 -1.95767e-09 -2.4182e-09)
(2.86242e-08 1.59349e-09 -3.55003e-09)
(1.47634e-07 -6.44257e-10 3.09235e-09)
(3.15193e-07 -1.72558e-09 -1.86089e-10)
(4.38845e-07 -9.62977e-10 2.9686e-09)
(5.86777e-08 8.68624e-10 -1.13977e-09)
(1.39435e-07 -4.29547e-10 -1.46765e-09)
(3.84367e-08 1.40753e-09 -1.59952e-09)
(2.86245e-08 3.37792e-09 -1.23995e-09)
(2.69222e-07 -6.82398e-10 -9.74415e-10)
(1.46089e-08 -1.2377e-09 -1.88192e-09)
(1.83349e-07 -5.42584e-10 -7.48714e-10)
(6.10798e-08 1.36145e-09 -2.87958e-09)
(3.28526e-07 -2.60534e-09 -4.78259e-10)
(2.27528e-07 -1.11054e-09 -2.80297e-10)
(1.91206e-08 -5.09244e-10 3.03632e-09)
(1.34201e-07 -6.61784e-09 5.69114e-10)
(2.49511e-07 6.39658e-10 1.02547e-09)
(3.1221e-08 -1.50908e-09 4.89849e-11)
(2.92308e-07 -3.58999e-10 -1.0187e-09)
(7.89072e-08 -3.14572e-09 4.92526e-09)
(2.14065e-07 5.47485e-10 -3.15235e-11)
(2.34428e-07 -9.45232e-10 -3.42795e-10)
(5.49817e-08 1.63282e-09 1.18283e-09)
(2.11388e-08 9.02239e-10 -2.74058e-09)
(9.2165e-08 1.80515e-09 -7.77557e-10)
(2.43637e-07 3.82381e-08 8.22046e-09)
(2.25417e-07 8.23586e-10 9.67675e-10)
(7.70656e-08 -3.54539e-09 3.72703e-09)
(1.82623e-07 7.55641e-10 2.66113e-09)
(2.43394e-08 -9.27227e-10 5.81815e-10)
(2.08313e-07 -9.6891e-10 -6.33514e-10)
(2.31374e-08 -3.67665e-10 -1.73292e-09)
(3.38657e-07 -1.05948e-09 -1.14965e-09)
(3.01835e-07 -4.55709e-11 3.58401e-10)
(2.23047e-07 1.39313e-10 -5.15478e-10)
(1.43642e-08 1.43352e-09 5.0133e-11)
(3.43819e-07 1.78847e-11 1.14722e-09)
(1.55647e-07 1.5461e-09 3.33008e-10)
(3.59698e-07 1.60038e-10 1.41387e-10)
(6.26446e-08 -6.65287e-10 -2.66924e-10)
(2.22565e-07 -2.67816e-08 1.37666e-08)
(2.64469e-07 -2.25978e-09 -7.24596e-10)
(6.53066e-08 7.77191e-10 -7.64678e-10)
(2.61416e-07 7.80071e-10 4.57417e-10)
(2.1006e-07 3.88017e-09 -3.95572e-08)
(1.81407e-07 4.77717e-10 -1.28419e-09)
(3.26367e-08 8.45042e-10 -1.79518e-09)
(1.00507e-07 -9.76156e-10 -5.38063e-09)
(1.96362e-07 -2.80259e-10 -2.06714e-10)
(2.17762e-07 2.13592e-09 7.13261e-10)
(3.17762e-08 1.61199e-09 6.37557e-10)
(2.18146e-07 2.71627e-09 -3.36726e-09)
(1.57368e-07 -1.44686e-09 -4.81116e-09)
(2.4455e-08 -2.13083e-09 1.43546e-09)
(2.08208e-07 -5.16506e-11 -5.54031e-10)
(1.58319e-07 -1.96876e-09 1.53804e-08)
(3.24903e-07 3.48206e-09 -4.85931e-09)
(2.04639e-07 -5.56554e-10 -9.82692e-11)
(1.86465e-07 -3.2876e-10 6.48521e-10)
(3.1422e-07 -9.08047e-10 -8.71381e-11)
(2.5529e-07 1.48503e-09 -2.9954e-10)
(6.99952e-08 1.83092e-09 6.03657e-10)
(7.16469e-08 -3.51607e-09 -3.45084e-09)
(3.851e-07 5.04071e-10 1.14692e-09)
(2.24789e-07 -1.96276e-08 1.82421e-08)
(2.0858e-07 -1.95435e-09 8.97713e-10)
(1.87886e-07 -2.48874e-09 1.21884e-09)
(1.26667e-07 3.00631e-09 1.37114e-09)
(3.23044e-07 -8.12735e-10 2.96402e-09)
(2.04661e-07 -5.35512e-10 -1.23056e-09)
(1.80616e-07 -6.16798e-10 -2.40603e-09)
(2.24846e-07 4.118e-09 9.56525e-10)
(4.33684e-08 5.7158e-10 -2.76424e-09)
(1.69731e-07 1.28237e-09 -9.14097e-10)
(3.89682e-08 -1.0067e-09 -2.9112e-09)
(3.1358e-07 -1.80792e-09 2.07742e-09)
(3.28922e-07 -4.986e-10 -4.28102e-10)
(1.65308e-07 3.10923e-09 -3.89649e-09)
(1.60442e-07 1.28285e-09 -9.71988e-10)
(1.76295e-08 1.82434e-09 -3.65442e-10)
(1.04723e-07 -5.04766e-10 -9.13933e-10)
(7.50619e-08 -2.5514e-09 -3.21643e-09)
(2.67699e-07 -3.1827e-10 -1.56737e-09)
(2.4078e-07 -1.68116e-09 -5.80428e-10)
(2.20567e-07 -2.01397e-08 1.27418e-08)
(3.15698e-07 -8.97322e-10 2.30088e-09)
(8.17267e-08 -2.39242e-09 -1.96583e-09)
(1.36572e-07 -3.42484e-09 1.06638e-08)
(2.44695e-07 -2.8543e-09 3.35785e-09)
(2.70671e-08 -2.08952e-09 -1.73821e-10)
(2.47264e-07 -1.33681e-09 4.91998e-11)
(5.36034e-08 1.51066e-09 -7.21595e-11)
(2.06597e-07 -4.67255e-10 1.99711e-09)
(3.17875e-08 4.53191e-09 -3.38339e-10)
(3.64435e-07 3.97702e-10 -1.54153e-09)
(2.03961e-07 -8.69308e-09 5.34903e-09)
(2.63363e-07 -8.40308e-10 -5.53391e-10)