/*--------------------------------*- C++ -*----------------------------------*\
| =========                 |                                                 |
| \\      /  F ield         | OpenFOAM: The Open Source CFD Toolbox           |
|  \\    /   O peration     | Version:  2406                                  |
|   \\  /    A nd           | Website:  www.openfoam.com                      |
|    \\/     M anipulation  |                                                 |
\*---------------------------------------------------------------------------*/
FoamFile
{
    version     2.0;
    format      ascii;
    arch        "LSB;label=32;scalar=64";
    class       volScalarField;
    location    "48";
    object      nut;
}
// * * * * * * * * * * * * * * * * * * * * * * * * * * * * * * * * * * * * * //

dimensions      [0 2 -1 0 0 0 0];

internalField   nonuniform List<scalar> 
59516
(
4.95597e-06
1.51637e-05
7.43781e-07
6.96214e-06
0.00108651
0.000186194
1.72072e-06
6.00711e-06
1.5529e-06
7.30735e-05
0.000365444
6.00123e-05
2.64213e-06
0.00014876
6.56209e-05
6.0039e-05
4.23824e-05
9.19557e-05
1.49492e-05
1.32447e-05
0.000133416
1.8735e-06
5.10934e-06
0.000121864
1.18247e-06
5.43106e-05
0.000116089
0.000155781
7.25816e-05
0.000128614
0.000242152
0.000147525
7.77011e-07
7.20649e-06
2.04347e-05
1.76189e-06
0.000125523
8.35712e-05
1.91834e-05
4.11011e-06
4.64473e-06
0.000166813
2.09207e-05
1.15006e-05
5.24655e-06
5.94677e-05
6.85107e-06
0.000102104
0.000861936
7.11911e-05
0.000623653
0.000110271
7.1084e-07
1.1549e-06
0.000137996
6.38603e-06
0.000249021
0.000125494
3.24487e-05
2.76641e-05
6.13063e-06
0.000136707
2.8921e-05
3.77382e-05
5.2733e-06
1.38207e-05
0.000179416
0.000110343
0.000424123
1.71635e-06
0.000196107
1.7307e-05
0.000159115
3.21585e-06
7.52104e-05
2.6018e-05
7.68268e-05
4.2302e-06
0.000105866
6.51667e-05
0.000112928
3.03684e-05
1.41494e-05
0.000146155
3.30336e-05
5.18336e-05
0.000112251
1.92644e-06
6.01085e-05
4.91677e-05
0.000532175
6.90777e-06
2.81971e-05
4.82383e-06
2.28474e-05
0.00108709
5.38909e-06
5.91436e-05
7.33702e-05
4.91295e-06
0.000129301
0.000160009
0.000156867
5.9677e-05
1.40672e-06
1.28739e-05
0.000120805
1.8485e-06
8.80495e-06
6.25934e-05
0.000243932
0.000170608
6.68877e-05
0.00015387
9.35845e-06
6.89982e-06
5.96238e-05
3.30913e-06
0.000145532
4.53327e-06
0.000120333
3.53564e-05
4.00143e-06
3.20139e-05
0.000234029
2.22359e-05
0.000175357
0.000107307
0.000281
6.33478e-05
8.90851e-05
2.59721e-06
0.000139526
1.11843e-06
1.15703e-05
8.61884e-07
0.000111943
1.88793e-07
0.000119612
1.71421e-05
0.000111682
6.46313e-05
0.000124594
1.84231e-06
6.53897e-05
2.57816e-06
5.87924e-06
3.80892e-06
0.000251063
4.31696e-06
1.38451e-05
0.000109282
7.72998e-06
4.17388e-06
1.29858e-05
0.000136769
5.01939e-06
1.80065e-06
1.85617e-05
0.000138989
6.73517e-05
6.51479e-05
0.000117043
0.00016522
7.14023e-06
3.22462e-05
5.8503e-05
5.51678e-05
0.000131291
1.09041e-05
1.73763e-05
5.91166e-05
4.31692e-05
1.00495e-06
9.48611e-05
1.01477e-05
2.98827e-05
3.39656e-05
5.99003e-05
9.77613e-05
1.46289e-06
0.000113453
0.000186605
4.58081e-05
5.26564e-05
5.73884e-05
9.49209e-05
0.00013506
1.22442e-06
9.41846e-06
7.99045e-06
6.08525e-05
1.74459e-05
4.2624e-05
1.74122e-06
9.71587e-05
5.6891e-05
9.75688e-05
1.13883e-05
2.70814e-06
3.15564e-05
0.000100041
6.26646e-06
0.000128013
9.30684e-07
2.53854e-06
7.7696e-05
1.94824e-05
0.000140867
6.0925e-06
7.0163e-05
0.000177257
2.97231e-06
6.47735e-05
3.10152e-06
2.10844e-05
2.22107e-06
1.66146e-06
6.6115e-05
5.20408e-06
6.81313e-05
1.56531e-05
2.267e-05
0.000130705
3.29706e-05
3.80659e-05
0.000165558
0.000110095
3.44646e-05
6.2953e-05
2.40371e-05
4.06935e-05
0.000105123
0.000151497
0.000110898
9.64267e-05
4.78824e-05
3.89727e-06
1.09748e-05
7.12764e-05
9.61305e-05
0.000148495
5.56594e-05
0.000163704
8.31009e-05
1.13349e-05
6.63125e-06
6.25129e-05
1.30007e-05
4.30908e-06
7.49185e-06
4.45586e-06
0.000124544
6.83911e-06
4.1536e-06
8.89464e-06
7.18032e-05
8.00546e-06
0.000108929
6.21621e-05
8.9183e-07
1.39611e-05
4.74326e-06
3.64826e-05
4.59001e-06
5.2631e-05
1.46662e-05
1.26688e-05
0.000135823
5.6484e-05
1.64033e-05
3.52316e-05
6.29146e-06
1.44219e-05
1.65844e-05
1.16052e-05
0.00013427
7.63045e-06
0.000149938
0.000109292
9.0306e-05
2.15119e-06
0.000168352
3.01704e-06
1.42057e-06
4.12762e-05
7.46089e-05
0.000169372
9.5026e-05
0.000159785
4.39587e-05
2.28638e-06
4.73074e-06
1.15645e-05
2.03777e-05
0.000178252
1.76222e-05
8.97982e-07
0.00012616
4.12349e-05
9.27742e-07
5.21101e-05
0.000145246
0.000153394
3.76561e-06
0.000145847
9.42985e-05
7.13029e-05
2.15761e-05
2.45901e-05
1.1761e-06
5.40349e-05
8.43912e-06
0.000123227
6.25098e-05
1.77295e-05
1.05669e-05
0.0010805
1.8664e-05
0.000103874
6.8233e-05
8.35523e-06
4.70263e-05
9.51428e-05
0.000127517
6.48752e-06
3.13906e-05
2.98292e-06
2.94974e-05
1.20124e-05
6.69725e-06
5.64817e-05
0.000154121
4.99086e-06
0.000104721
0.000113724
1.49079e-05
1.13793e-06
6.46169e-05
4.28278e-05
7.22841e-06
8.30873e-05
4.27063e-05
0.000101087
6.14339e-06
7.69932e-05
5.92365e-05
9.22066e-05
5.95324e-05
3.44173e-06
3.61844e-06
7.53943e-06
1.01243e-06
2.46499e-05
0.000117827
0.000119957
1.35431e-05
0.000142935
0.000263608
1.84658e-05
5.24434e-06
3.83312e-06
0.000267463
3.36744e-06
1.17352e-06
4.84641e-06
7.30244e-06
0.00011999
0.00028776
6.86018e-05
0.000104948
0.000114884
1.60688e-05
1.46244e-05
1.17e-05
0.000133764
2.07503e-06
0.000115745
2.65756e-05
5.34324e-05
5.30193e-05
2.38483e-06
0.000388473
0.000154373
6.15008e-05
2.53881e-06
0.000145018
2.85322e-05
3.81842e-06
5.08778e-07
1.63776e-05
1.58944e-05
1.14062e-05
0.000128057
9.09946e-05
9.7716e-05
6.33531e-05
6.18937e-05
6.53935e-05
5.18553e-05
5.33051e-05
5.03619e-07
7.77694e-06
7.47857e-05
6.42716e-05
0.00011815
3.22065e-06
2.8652e-06
2.2517e-06
5.09287e-06
0.000157054
0.000147968
6.4435e-07
4.38652e-05
9.18289e-05
0.000114459
3.61313e-05
3.30106e-06
7.63171e-05
5.72213e-05
8.47154e-05
4.74421e-05
4.03698e-05
7.86649e-06
7.78483e-05
5.99957e-05
2.65037e-05
7.07449e-06
8.93558e-06
5.90717e-05
1.70724e-06
5.55193e-06
0.000100019
0.000114724
0.000137342
0.000187646
8.44757e-05
4.65834e-06
6.77472e-07
0.000103322
0.000146999
4.12042e-06
1.0395e-05
5.56875e-05
5.08657e-06
9.68367e-07
0.00012841
9.08289e-07
0.000162961
2.34008e-06
5.59126e-05
0.000254373
1.49572e-05
1.27475e-05
4.47437e-06
0.000148162
6.87549e-05
8.92969e-05
7.17443e-05
8.92601e-06
9.60769e-06
4.94473e-05
6.46866e-06
0.000106514
1.98847e-05
3.29321e-05
1.87953e-06
0.000138547
5.94102e-05
2.96423e-06
0.000112422
7.18804e-06
2.33788e-05
1.93102e-06
2.11553e-05
0.000143332
2.8993e-05
7.89983e-07
9.3192e-06
1.89692e-06
9.9112e-05
3.72108e-06
0.000174152
2.38832e-05
0.000792454
3.65756e-05
0.000121726
4.20092e-06
7.00064e-06
8.52824e-05
0.00013639
7.48041e-05
0.000161151
1.96332e-05
0.000138591
0.000129124
6.03454e-05
5.60946e-05
1.03172e-05
9.33911e-05
0.000214208
5.662e-05
5.42288e-05
1.84058e-06
0.000107191
0.000154864
5.23498e-06
6.0524e-06
7.53333e-05
0.000233243
1.52013e-05
0.000141314
1.56504e-05
0.00014365
4.89965e-05
3.46529e-06
5.43617e-05
0.000147476
0.000125033
0.000106864
6.22655e-05
6.46356e-07
6.0608e-05
5.21652e-05
0.000391135
5.20083e-05
0.000160224
3.83738e-06
0.000119487
3.77328e-05
6.19502e-05
4.45391e-05
6.70865e-05
3.91092e-06
6.79941e-05
8.66009e-05
2.92366e-05
0.000149399
0.000135248
1.71453e-06
8.32971e-05
2.26771e-06
1.94955e-06
6.63081e-05
7.00944e-05
2.04628e-05
5.47646e-05
5.32135e-05
2.21132e-06
0.000159406
3.54381e-06
0.000117672
0.000159406
1.81848e-06
0.00010073
3.83397e-06
0.000102542
3.33137e-06
5.40542e-05
5.51126e-05
1.66403e-05
7.40119e-05
3.87935e-05
7.77523e-05
8.52287e-05
0.000106445
6.62602e-05
5.29134e-05
7.25632e-06
0.000121939
1.84996e-05
4.43059e-05
3.65033e-05
6.78615e-05
9.45862e-07
0.000138517
2.61919e-05
1.30049e-05
1.04288e-05
6.54083e-06
0.000164205
0.000109006
1.67404e-05
5.60275e-07
0.000100305
2.00103e-06
0.000113209
0.000146485
7.21658e-05
3.11476e-05
0.000126922
1.78294e-05
1.43615e-05
4.64082e-06
5.33055e-05
0.000134401
9.59102e-05
0.000154729
0.000123387
5.45164e-05
8.79838e-07
2.00786e-06
1.58001e-06
9.63482e-07
5.37612e-06
0.000131197
1.70511e-05
3.73877e-05
3.36953e-05
5.72593e-05
5.53428e-05
0.000129277
1.6943e-05
0.000112972
0.000207517
5.28111e-05
0.000540485
2.18952e-06
0.000159516
5.37041e-05
2.07423e-05
4.1342e-06
4.10551e-05
0.000112126
0.00148414
0.00070161
7.90725e-05
1.22619e-06
0.000152765
0.00022488
3.59692e-06
0.000102538
4.79772e-05
0.000151225
0.000159715
0.000175629
3.67372e-05
5.56245e-06
0.000154879
0.00014908
0.000153267
0.00020939
0.000112172
3.08077e-06
1.89723e-06
1.81111e-06
0.000129065
5.84214e-05
2.30622e-06
3.76838e-05
7.15978e-06
0.000113695
0.000142849
0.000391291
0.000172809
2.65125e-06
0.000162117
8.83495e-06
7.34237e-05
1.68552e-05
0.000104715
9.53982e-06
0.000100244
0.000169503
6.42553e-05
0.000132504
2.6572e-05
0.000123286
8.21118e-06
2.60953e-06
0.000142157
6.00153e-05
2.69521e-06
0.000112188
2.1412e-05
6.52975e-05
3.68048e-06
8.9003e-05
0.000109103
0.000147579
0.000110541
0.00066731
5.1327e-06
6.34391e-05
1.24305e-05
0.000104433
0.000101249
0.000150239
1.18108e-05
1.48768e-07
2.41108e-05
0.000137354
1.99743e-06
1.6807e-05
9.2241e-06
6.89504e-05
0.000881344
3.20801e-06
9.58437e-05
0.00013942
0.000486835
6.79909e-07
0.000109826
0.000123209
8.83352e-05
8.06151e-07
0.000110979
2.04983e-06
5.77773e-05
0.00015385
6.47615e-05
0.00124518
4.36142e-07
3.90156e-05
6.07508e-05
2.93283e-05
1.00032e-06
0.000105416
0.000113122
6.67684e-05
0.000984109
1.20979e-06
2.11283e-06
2.15802e-05
2.25336e-06
2.14641e-05
1.03344e-05
4.2385e-06
0.000146801
5.85322e-05
0.000133938
5.67715e-06
4.0412e-05
1.26968e-05
5.91752e-06
0.000131147
2.04572e-05
6.63088e-05
4.29886e-05
5.88687e-05
0.00118127
1.80912e-05
1.55603e-05
0.000839712
4.02543e-06
0.000165454
6.14038e-05
6.23008e-05
1.4555e-06
0.000170582
2.15931e-05
0.00134836
8.26002e-06
1.77299e-06
5.41666e-06
2.91513e-06
8.35495e-05
0.000121737
0.0001269
9.73469e-05
7.06147e-05
1.19877e-05
3.94511e-06
3.10258e-06
0.000127075
1.88986e-05
1.69509e-05
5.91413e-05
2.06959e-06
6.81352e-06
1.48155e-05
0.00010192
0.000145203
1.29487e-05
1.38e-05
0.000162485
9.38695e-05
5.5569e-05
0.000144432
2.37418e-05
2.13478e-05
5.56997e-05
0.000135873
4.58792e-06
0.000150416
4.54959e-06
5.09167e-05
0.000133758
5.05926e-05
5.47593e-06
6.21164e-05
2.6469e-06
0.000103872
4.93399e-05
1.33353e-06
1.40742e-05
2.0633e-05
2.38758e-05
1.93403e-06
4.6118e-05
1.85728e-06
0.000114998
1.41838e-05
9.94577e-06
6.36575e-05
5.82985e-06
0.000264323
5.15106e-05
0.000110222
0.000172993
5.42004e-05
0.000138034
1.84075e-06
9.30777e-06
2.00047e-06
8.60098e-05
3.28698e-06
7.37306e-06
0.00015198
1.26244e-05
0.000584148
9.54088e-05
0.000151555
1.60126e-06
3.64999e-06
0.000151472
1.07783e-05
0.000146443
4.08989e-05
1.06339e-05
4.0118e-06
2.97003e-06
1.23376e-05
9.93637e-06
7.39302e-05
0.000133788
0.000116043
7.18617e-06
7.03065e-06
0.000132391
2.7034e-06
0.000314543
4.36426e-05
3.8843e-05
2.35924e-05
1.05332e-05
0.000139735
1.65656e-05
0.000122831
3.63679e-05
5.83959e-06
0.000128087
1.61985e-05
7.62423e-05
2.45525e-06
1.03213e-05
7.43231e-07
3.80715e-06
1.76878e-05
5.42951e-06
1.22638e-05
6.83157e-07
4.88924e-05
2.53747e-05
6.27013e-05
0.00155878
3.41187e-07
6.73458e-06
4.21072e-06
0.000128186
9.9388e-05
2.26987e-06
2.18074e-06
1.36217e-06
0.000127814
3.69673e-06
0.00010301
6.75018e-05
0.000224656
5.83625e-06
6.08693e-05
0.000144102
8.88197e-07
8.21269e-06
0.000112413
8.96776e-06
7.19892e-05
7.26977e-06
6.28e-05
0.000124486
5.55466e-05
5.7564e-05
0.0014379
0.000123949
2.71388e-06
5.29773e-05
0.000158955
7.73847e-05
5.7272e-05
4.20118e-06
9.56281e-05
9.08385e-06
4.40615e-05
3.35875e-05
4.62539e-06
1.90178e-05
0.000124585
1.09897e-05
1.54378e-05
2.93113e-06
1.96616e-05
5.18364e-06
0.000101014
7.42934e-05
0.000129842
3.63161e-05
1.27713e-05
2.28309e-05
0.000128093
5.87688e-05
1.09656e-05
6.04198e-05
8.45919e-05
3.25985e-05
1.92046e-05
2.90995e-05
7.06081e-05
2.14244e-05
4.8717e-05
4.9725e-05
9.78546e-05
0.00139923
1.16034e-06
4.26239e-06
0.00012144
6.13707e-05
2.27015e-05
3.28127e-07
0.000120931
2.61294e-05
4.70686e-06
0.000168814
0.000170523
0.000103377
4.05057e-06
1.16423e-05
7.95655e-05
0.000294725
1.00228e-05
9.55413e-05
0.00016629
8.44901e-05
0.000109029
1.5311e-05
3.12899e-05
5.0081e-05
0.000113969
3.65393e-05
1.96512e-05
8.09843e-07
0.000103201
7.07508e-05
0.000105393
1.3796e-05
4.98431e-05
4.7681e-05
1.07008e-05
0.00012559
5.9342e-05
8.93157e-06
2.72798e-05
4.07154e-06
0.000108618
0.000131877
1.64688e-06
9.23726e-05
5.00014e-05
5.80428e-05
0.000107292
0.000107866
0.000113201
3.89567e-05
0.000105149
0.00018394
7.50585e-05
5.0832e-06
1.3607e-05
0.000243779
0.000155027
2.6786e-05
8.4414e-05
2.02099e-06
0.000165854
0.000140357
1.20006e-05
0.000107083
3.26618e-06
3.96785e-06
9.44151e-06
0.000133411
2.1339e-06
1.87857e-05
0.000140797
0.000155326
8.56005e-05
5.4721e-05
1.95765e-05
8.02438e-05
2.97147e-06
5.63791e-06
0.000111571
3.30607e-06
1.61402e-05
7.20764e-05
4.65884e-05
1.824e-05
1.37214e-05
3.72731e-06
0.00014088
5.01189e-06
1.44309e-05
0.000112363
1.50331e-06
0.000123256
1.1642e-05
6.09986e-06
5.9552e-05
0.00018556
8.04314e-05
1.47354e-05
5.05276e-05
1.13381e-05
4.64026e-06
0.000143184
1.86217e-05
5.99571e-06
5.20356e-05
0.000169124
0.000123517
9.47514e-05
1.86923e-06
4.69047e-05
1.58945e-05
4.93648e-05
5.49099e-06
9.69393e-05
5.36088e-06
9.47105e-05
3.16635e-05
6.16527e-05
1.51917e-06
0.000163372
1.65077e-05
2.91621e-06
0.000104209
0.000123243
8.32327e-06
1.30765e-06
0.00015972
1.44444e-05
1.66495e-05
5.09482e-05
2.24283e-05
8.9237e-06
0.000163732
2.34787e-05
1.16508e-06
0.000161913
0.000105551
0.000108686
2.8916e-05
1.50856e-05
1.82752e-05
5.65497e-05
2.72499e-05
0.000149236
1.26482e-06
3.5329e-05
1.4728e-05
8.06415e-05
2.25919e-07
2.77037e-06
0.00010922
0.000112613
5.54712e-06
1.86383e-06
0.000144596
0.000175448
2.30805e-05
9.24764e-07
1.48923e-05
5.28474e-06
2.71098e-06
3.34805e-06
3.61689e-05
6.24806e-05
2.90972e-05
5.18762e-05
3.06442e-06
1.73701e-05
0.000112063
0.000165037
3.33905e-05
2.63541e-06
5.84752e-06
2.07719e-05
1.36188e-05
9.3709e-05
2.38845e-05
5.72679e-05
0.000128682
0.00016163
4.52394e-05
5.02915e-05
0.000123465
0.000127423
4.16425e-05
9.68536e-06
0.000169501
2.1672e-05
4.36568e-05
1.77577e-05
5.1684e-05
1.83718e-06
6.81292e-06
0.000145339
9.22107e-05
7.1949e-05
2.58872e-05
3.77568e-06
1.11641e-05
5.63871e-05
6.0498e-05
0.000109058
2.70491e-05
0.000168429
2.04752e-06
8.59973e-07
1.0385e-05
6.47442e-05
0.000146375
0.000103125
4.24979e-05
7.95721e-07
5.88815e-05
5.40718e-06
1.08125e-06
0.000126229
7.4709e-05
0.000241053
4.95572e-06
3.13603e-06
3.99452e-06
5.41461e-05
1.78759e-05
1.13583e-06
1.18736e-06
1.44359e-05
2.60216e-06
1.93382e-05
7.19862e-06
6.08648e-05
0.000172296
2.31059e-05
0.000110845
2.78846e-06
2.55398e-06
1.7485e-05
0.000140302
4.87509e-06
5.05426e-05
0.000120503
0.000137619
2.97719e-06
6.10067e-05
3.59194e-06
4.25492e-06
1.79935e-05
6.03941e-06
0.000125081
0.000110365
0.000125257
0.000103971
5.45079e-06
4.27619e-06
5.85074e-06
3.64057e-06
2.82766e-06
0.000191795
2.94326e-06
0.000136593
1.36209e-05
5.21072e-06
0.000139618
7.52381e-05
7.26495e-06
1.79153e-06
1.11876e-05
4.5515e-05
9.69758e-05
4.12518e-06
0.000126389
0.000126926
0.00016597
4.63571e-06
3.45283e-05
0.000109753
0.000191489
0.000119171
3.43215e-05
2.9653e-05
4.69577e-05
7.38654e-05
1.8388e-05
2.56813e-05
1.24654e-05
1.5114e-05
0.000101529
0.000120301
2.65483e-05
3.52231e-06
6.11904e-05
0.000116311
2.18913e-06
2.86874e-06
1.06843e-05
0.000170353
0.000201444
5.95336e-05
9.98186e-06
2.86868e-05
6.974e-06
0.00013738
0.000102022
2.04307e-06
4.35643e-06
6.23869e-05
9.47804e-05
9.62873e-06
1.89191e-05
3.2971e-05
7.3688e-05
1.12072e-05
5.75938e-06
9.14371e-06
4.31878e-06
2.99563e-06
1.70588e-05
4.49459e-05
8.58696e-05
2.63583e-06
0.000119089
5.62649e-05
1.59692e-05
6.07313e-05
7.52882e-07
7.09852e-06
1.50033e-05
5.66611e-06
2.26294e-06
3.67634e-05
2.5255e-05
1.04807e-05
0.000101705
0.00017443
5.24961e-05
8.32811e-05
0.000142194
1.56546e-05
4.74003e-06
4.24402e-05
1.92563e-06
0.000134589
4.74626e-06
4.10678e-06
1.69945e-05
3.23024e-05
2.40305e-06
0.000155585
2.13946e-06
0.000146925
8.27127e-06
0.000142819
9.33536e-06
6.4878e-07
3.25551e-05
0.00015177
6.59572e-05
1.08422e-05
7.98284e-07
5.21785e-05
6.26854e-05
1.06803e-05
7.25953e-05
0.000120505
7.48177e-05
1.06624e-06
5.9253e-05
5.75749e-05
0.000164402
7.62169e-06
5.60416e-05
4.00244e-07
2.39034e-06
6.88696e-06
9.05554e-06
7.01757e-06
0.000137244
0.000105123
0.00016316
1.76557e-05
0.000127002
0.000103089
0.000113863
5.46744e-05
0.000164387
1.30007e-05
0.000163756
3.40674e-05
0.000135316
4.6714e-06
5.79079e-05
8.64824e-05
0.000106776
6.74444e-05
0.000112768
2.09959e-05
2.55989e-06
0.0017133
2.51888e-05
0.000147619
3.06762e-06
5.04644e-06
6.79737e-05
1.74701e-05
7.16126e-06
3.65459e-05
1.47369e-05
6.22509e-05
0.00010783
6.95178e-06
9.75424e-05
0.000114279
1.50971e-05
3.30874e-06
0.000114732
0.000177052
7.01627e-06
7.91784e-05
6.51766e-05
0.000151907
4.95567e-05
0.000119834
0.000128179
0.000115962
0.000149641
5.34373e-06
1.42517e-05
7.25012e-05
0.000138088
2.49608e-05
7.81137e-07
1.40689e-06
4.07077e-06
1.1489e-05
0.000109431
1.33513e-05
0.00140611
1.63559e-05
0.000139623
1.66589e-06
0.000129871
5.93073e-06
1.21999e-05
0.00018608
0.000104786
5.8949e-07
8.87978e-06
0.000135658
7.28992e-06
2.45056e-06
8.06989e-05
1.39088e-05
0.000111034
5.66298e-07
1.79033e-05
0.000188177
1.20249e-06
1.45494e-06
3.97306e-05
1.14517e-05
3.58592e-06
1.42915e-06
0.000274515
5.71349e-06
6.93177e-06
2.90893e-06
1.70027e-05
0.000118851
2.14314e-06
0.00019253
4.75505e-07
0.000204317
0.00022826
6.73135e-05
1.81755e-06
2.14107e-06
0.000454123
1.02702e-05
5.11131e-06
1.97849e-05
2.02847e-06
0.00015615
0.00016393
0.000221121
6.28574e-05
0.000184107
3.65148e-06
0.000125303
4.22773e-06
0.000106336
0.000143504
0.000128756
5.53474e-05
2.64214e-05
2.02124e-06
4.42811e-05
0.000120329
0.000125597
9.64263e-07
7.54624e-06
0.00016018
2.57603e-06
5.70772e-05
1.65972e-05
4.50005e-05
9.40473e-06
5.53598e-05
6.64176e-06
9.99813e-06
1.713e-05
0.000113578
9.5573e-05
6.81973e-05
0.0001036
4.02493e-06
3.06386e-05
6.2948e-05
5.90605e-05
6.83432e-06
1.33298e-06
4.32405e-06
5.5378e-05
5.83187e-07
0.000138403
7.67879e-05
2.76467e-06
0.000122962
1.52867e-05
1.30284e-05
2.1883e-06
1.19881e-05
8.32514e-06
1.05597e-05
1.41881e-05
1.93571e-05
3.99007e-06
1.61047e-05
0.000153341
0.000120627
3.42935e-06
5.40016e-06
5.87617e-06
1.35687e-05
7.41402e-06
0.000132125
4.00445e-06
1.21804e-06
7.22682e-06
1.17687e-05
0.000125161
5.56648e-05
8.37966e-05
1.76006e-06
5.34861e-05
6.40174e-06
0.000152226
4.90498e-07
0.000116048
1.57765e-05
7.04051e-05
6.46103e-05
2.52321e-06
1.28592e-05
0.000110375
0.000158189
3.3402e-06
0.000188102
1.47326e-05
2.69223e-05
1.61196e-05
5.47638e-06
1.89819e-05
3.70826e-06
0.000154707
6.86326e-06
6.28522e-07
0.00011654
0.000130283
1.13731e-05
1.92435e-06
1.58376e-05
3.63472e-06
0.000107086
2.40076e-05
0.000145289
1.00433e-05
3.17438e-06
4.68954e-06
1.01714e-07
0.000109046
0.000147194
0.000150863
4.7816e-05
0.000109601
4.36717e-06
0.000102491
2.77856e-06
6.50616e-05
0.000131795
5.80302e-06
6.46831e-06
1.54545e-05
6.80509e-05
1.10848e-06
1.81049e-06
0.000118322
0.000105268
0.00017402
5.18758e-05
6.62908e-05
9.99657e-05
3.3329e-06
0.00018517
0.000108374
0.000192628
0.000159373
6.21912e-06
1.7736e-06
8.76824e-06
0.000125082
1.23495e-07
4.44495e-06
4.65687e-06
7.07025e-05
1.23219e-06
5.25665e-05
4.42011e-06
2.87991e-05
0.000187546
5.43164e-05
6.12953e-06
0.000103985
1.6914e-05
1.37469e-05
2.17812e-06
7.12401e-06
1.16445e-05
6.07386e-05
0.000109841
0.000114069
6.29767e-05
0.000158851
1.83872e-06
0.000124041
8.51778e-06
0.000149419
0.000116998
5.61991e-05
2.69212e-05
2.60218e-06
8.80994e-05
0.00016527
6.38741e-06
1.99809e-05
3.55933e-05
5.98379e-06
0.000140311
1.59081e-05
0.000120222
3.90011e-06
1.41401e-05
5.14775e-05
1.18385e-05
3.15995e-05
7.08405e-06
2.22274e-05
3.42923e-05
4.91755e-06
3.51785e-05
6.69849e-07
0.000173475
0.00015518
1.62052e-06
0.00017095
1.04069e-06
1.49494e-06
1.60434e-05
9.6927e-05
1.09484e-06
0.000118755
0.000114265
5.19059e-05
1.355e-05
0.000116342
2.57407e-07
0.00010282
2.79517e-05
5.4793e-06
0.000112664
2.7036e-06
1.02903e-06
1.47555e-05
2.28241e-06
0.000132454
0.000146808
2.5716e-05
2.42845e-06
3.25609e-05
8.34405e-06
0.000150431
0.000136497
4.84875e-05
0.000108313
1.96559e-05
0.000109991
1.88478e-06
9.58992e-06
0.000118586
0.000182274
0.000110349
1.52331e-05
0.000150679
1.39241e-06
0.000121023
0.000164798
1.96152e-05
4.55997e-05
9.36076e-05
5.31896e-06
3.67315e-05
3.11406e-06
6.40471e-05
2.69585e-06
4.4139e-06
3.1983e-05
3.71058e-06
0.000131199
0.000113944
1.12255e-06
3.03519e-05
5.91816e-06
0.000144079
0.000157888
1.16888e-06
0.00016935
5.73984e-06
2.3578e-05
9.36757e-05
0.000112745
6.29818e-05
5.12168e-05
2.93923e-06
7.16046e-06
1.28423e-06
5.53615e-05
0.000176092
3.74864e-05
0.000169881
0.00012294
0.000104941
0.000108727
1.6189e-05
0.000120328
3.11156e-06
4.15475e-06
1.03444e-05
9.06803e-06
2.13906e-05
1.45126e-05
5.98363e-05
6.01958e-05
2.14085e-05
1.90677e-05
9.53693e-05
4.56342e-06
0.00017075
1.47526e-05
0.000116112
8.08909e-06
1.26052e-06
0.0011672
0.000139902
1.0778e-05
6.70025e-05
0.000138618
2.19196e-06
0.000139874
6.08847e-05
3.16277e-05
1.71718e-05
9.98598e-05
0.000104135
5.4858e-06
5.26177e-05
8.41855e-05
1.49822e-05
1.75449e-05
3.89581e-05
0.000111121
6.65714e-07
1.15134e-06
0.000116373
1.24314e-05
1.98999e-05
1.20341e-05
0.000135682
0.000145748
0.000102296
2.60502e-06
0.000104857
1.70596e-06
9.20021e-05
4.05613e-05
5.25442e-05
7.54434e-07
1.29203e-06
1.46513e-05
6.37138e-05
5.24418e-05
0.000129039
6.51888e-06
2.77496e-07
5.49964e-05
2.30293e-06
0.000133037
6.7138e-06
3.59643e-05
0.000167488
4.14388e-06
2.89181e-06
1.1786e-05
0.000223811
0.000156763
0.000126804
6.00972e-05
5.19556e-05
0.000167491
0.000156749
0.000160739
1.51212e-05
2.57365e-05
5.88287e-06
1.85709e-05
5.7755e-06
0.000145472
6.97148e-06
1.2048e-06
0.000124058
0.000134085
0.000179738
1.90931e-05
0.000180626
9.67805e-06
0.000304519
0.000142537
2.8245e-05
9.53928e-05
1.14976e-05
8.84739e-06
8.24247e-05
8.64476e-07
9.7675e-06
3.73506e-05
6.43826e-05
4.90447e-06
5.01717e-06
1.38116e-05
0.000119264
3.42217e-05
4.84588e-06
4.56973e-07
3.83133e-06
6.22987e-05
5.14009e-05
0.000101611
0.000161872
7.98649e-06
0.00012577
6.19174e-05
1.04783e-05
0.000107293
3.68617e-06
6.25973e-05
4.48082e-06
2.40025e-05
9.77149e-05
0.000116656
5.34843e-05
3.96173e-06
9.58457e-06
1.06884e-05
2.17104e-05
4.78653e-05
5.62316e-07
5.92098e-06
1.43936e-06
3.74251e-06
1.46025e-06
6.27665e-05
1.3031e-05
6.0083e-07
0.000137418
8.7134e-05
0.000165075
6.38505e-06
3.89159e-06
1.17444e-05
5.21712e-05
3.26039e-06
8.69729e-05
5.22048e-05
0.000138203
8.99159e-07
3.2716e-05
1.88445e-05
0.000129297
0.0001057
6.60742e-05
0.00015117
0.000121228
3.24675e-05
5.81237e-05
0.000147127
0.000117157
5.39662e-05
8.64725e-05
4.72286e-05
2.10977e-06
1.02322e-05
6.03398e-06
6.65988e-07
9.00765e-06
0.000110069
0.00012254
3.00147e-06
8.60856e-07
2.31932e-06
9.23414e-07
1.57069e-05
3.06731e-05
3.07212e-06
6.80167e-05
0.000353007
1.20933e-05
2.55198e-05
0.000127198
3.81691e-05
0.000154118
3.28106e-06
3.9676e-06
1.75178e-05
1.91087e-05
5.77585e-05
0.000164672
6.00062e-05
0.000113905
6.72823e-05
5.70946e-06
1.23506e-05
0.000119813
1.90691e-05
1.09525e-05
4.05018e-05
3.3559e-06
0.000195245
8.89826e-05
3.412e-06
2.0474e-05
5.21676e-05
3.08844e-05
1.93242e-05
1.90877e-06
1.03591e-06
7.11888e-06
2.36835e-05
4.21123e-05
3.26355e-06
1.62342e-05
0.000156573
0.000137955
1.78481e-05
3.27973e-06
2.29479e-05
2.79879e-05
0.000160813
4.8676e-06
3.02219e-07
4.16249e-06
1.4707e-05
7.86393e-06
4.3821e-07
1.90995e-06
5.55117e-05
2.92115e-06
7.05338e-07
0.000104821
2.48881e-06
1.3229e-06
0.000143118
7.84791e-07
4.74891e-06
1.96524e-06
1.91449e-06
2.80718e-05
0.000109993
1.87647e-05
1.8294e-05
3.54465e-05
1.9343e-05
1.43697e-05
2.53053e-07
1.65048e-05
4.74209e-07
0.000145215
5.18073e-07
0.000111579
0.000118463
6.0611e-07
0.000138522
5.13951e-05
1.33087e-05
2.7135e-05
5.27453e-05
1.11886e-05
0.000146763
1.36776e-06
0.000101548
1.12859e-05
4.1877e-06
3.0474e-06
3.02314e-05
3.8246e-06
7.04341e-06
6.97912e-05
7.6137e-06
7.70339e-06
6.56537e-06
0.000122709
1.87834e-05
7.40615e-05
5.11405e-05
5.95431e-05
6.37817e-07
1.39347e-05
1.94049e-05
0.000136411
2.71953e-06
0.000154222
6.05756e-05
0.000160806
9.86653e-05
7.59694e-06
1.25339e-06
2.89055e-06
4.47546e-06
0.000140157
1.91219e-05
0.000166883
0.000143506
3.04254e-06
6.70014e-05
1.22808e-05
1.17272e-06
7.05874e-06
0.000143082
5.71482e-05
0.000111836
4.76457e-05
1.97134e-05
5.08245e-05
2.24509e-06
1.5348e-05
5.97034e-05
0.000102701
0.000157466
2.99161e-06
1.81125e-05
4.38205e-05
3.24251e-06
4.41781e-05
2.36183e-05
1.19963e-06
6.98527e-05
3.51291e-06
6.00441e-05
8.00525e-06
1.61295e-05
3.74198e-05
1.73927e-05
1.35205e-05
2.04288e-06
9.57717e-06
5.26481e-06
5.59069e-05
4.69377e-06
0.000117903
1.42436e-05
6.04017e-05
4.97584e-05
1.12285e-06
9.75972e-05
0.000190373
1.03376e-05
3.26997e-05
1.25501e-05
1.66394e-06
0.000118273
2.22354e-06
1.49876e-05
8.98475e-06
1.26035e-05
5.89404e-05
6.36325e-05
1.18728e-06
0.000112178
0.000111879
0.000184537
5.55661e-07
1.38237e-05
5.37801e-05
1.41836e-06
1.03436e-06
9.04658e-07
7.86318e-05
4.55524e-06
3.39439e-05
4.49349e-05
8.62352e-05
0.000101872
0.00011204
0.00014125
0.000148958
4.98705e-05
1.33107e-05
6.84364e-05
6.61993e-05
1.57219e-05
8.31737e-06
2.38909e-05
0.000148066
0.000147845
2.69328e-05
3.82836e-05
8.08076e-05
6.77178e-05
7.05018e-05
6.46509e-07
0.000103967
1.23023e-05
2.25886e-06
9.231e-06
7.24727e-06
1.35727e-05
4.69477e-05
8.86068e-06
0.000105285
1.09166e-05
3.86577e-06
4.45853e-05
7.63374e-05
0.000113141
3.43365e-05
0.000108292
5.94577e-05
0.000125922
1.38242e-05
0.000148603
3.53492e-05
4.17099e-06
0.000106067
6.57134e-05
0.000101279
9.37619e-06
1.12677e-06
2.48902e-05
5.14984e-06
1.85476e-05
5.56302e-06
1.77484e-05
5.05424e-06
5.30013e-05
2.30563e-05
5.54414e-05
5.33689e-05
5.59626e-06
2.88171e-05
3.42595e-06
1.19195e-05
1.20144e-05
0.000139935
1.55335e-05
0.000136092
1.67222e-05
3.70488e-06
1.53853e-06
2.17876e-05
3.34781e-06
0.000110756
0.000134971
2.08135e-05
1.42459e-05
9.38074e-05
2.56747e-06
0.000111655
1.53081e-05
7.09299e-07
4.93446e-06
2.24295e-06
2.37911e-05
3.82791e-06
1.33005e-05
0.000101993
4.64671e-05
0.000118156
0.000108109
5.48912e-05
3.34867e-07
3.81107e-06
0.000134703
0.000116271
0.000332772
6.59821e-06
1.03741e-05
1.26418e-05
1.48775e-05
0.000112066
0.00010015
0.000116955
5.44953e-05
4.53536e-05
5.9637e-05
4.49546e-06
5.00993e-05
0.00011911
1.2001e-05
9.86863e-05
0.000147173
0.000142952
6.33925e-06
1.1256e-06
3.91916e-05
6.00413e-05
0.000132278
0.000147683
2.9938e-06
4.58413e-05
1.10721e-05
6.66022e-06
0.000147598
1.09101e-06
2.01657e-05
1.242e-05
4.8606e-06
5.25846e-07
3.97234e-05
4.8999e-06
2.37001e-05
2.19676e-06
0.000175867
1.47421e-05
5.68851e-05
3.35856e-06
0.000110884
1.86377e-05
4.12678e-07
2.87819e-05
4.26768e-06
0.000132198
2.45157e-06
4.58581e-06
4.13044e-05
2.13103e-06
1.00643e-05
3.73076e-06
1.09707e-05
1.40332e-06
5.57016e-05
5.93114e-05
5.85019e-05
2.44934e-06
2.89087e-05
1.65999e-06
3.38759e-06
1.50357e-05
9.63673e-06
3.62984e-06
0.000112526
2.78171e-06
8.82942e-05
0.000140586
1.34977e-06
0.000147863
1.85703e-06
5.25454e-05
0.000111798
2.57284e-06
9.8324e-05
0.000155773
0.000129453
0.000113702
0.000107328
2.97259e-05
1.04669e-05
6.86588e-05
8.42137e-07
5.85988e-05
1.49884e-05
8.46057e-05
1.38988e-05
0.000149358
8.30924e-07
4.77737e-06
1.57112e-06
1.12242e-05
0.000142138
0.000101597
8.77728e-07
0.000177348
5.1777e-05
0.000127848
1.33828e-06
4.49972e-05
9.77026e-05
9.76572e-05
8.4932e-06
0.000112757
0.000131235
0.000113116
2.38641e-06
5.39126e-05
0.000111653
3.42117e-06
1.50359e-05
0.000146628
1.12754e-05
0.000161264
5.08751e-07
1.33865e-06
5.15902e-05
1.66871e-05
0.000181595
4.08897e-06
9.5168e-05
6.1266e-05
5.28804e-06
3.44166e-06
1.28484e-05
1.42228e-05
4.11493e-06
0.000110013
2.10672e-06
5.92345e-06
8.81341e-05
7.76539e-05
5.66586e-05
0.000130734
1.17415e-05
6.89322e-06
2.91882e-05
4.63024e-05
3.22476e-06
0.000171716
0.000195119
0.000110546
2.83298e-05
0.000118158
2.0128e-06
0.000148003
0.000119676
5.56301e-06
5.37453e-05
0.00010608
0.000108864
6.5001e-07
5.9765e-06
7.04624e-05
5.5526e-05
1.50029e-06
5.41071e-06
2.74196e-06
2.89364e-06
8.27979e-06
3.43284e-05
5.40045e-05
0.000162649
7.85531e-06
2.69564e-05
5.62356e-05
0.000158325
3.27131e-05
2.05972e-05
7.98968e-06
4.38777e-06
0.000160007
3.53305e-06
1.01797e-06
0.000140416
2.50281e-06
1.77357e-05
4.8315e-06
0.000110475
2.94532e-05
0.000102881
6.95439e-05
5.21624e-05
0.000141088
4.85824e-05
9.91547e-06
5.01021e-05
9.62994e-07
1.45648e-05
1.44381e-05
4.1124e-05
6.27943e-05
0.000157138
2.59607e-05
2.80875e-06
1.75505e-06
1.1271e-05
5.91894e-05
8.01771e-07
6.44542e-05
4.98168e-05
3.00686e-06
0.000183927
4.61081e-06
8.01144e-06
5.64148e-06
0.000107385
0.000113987
4.56648e-05
1.36238e-05
0.000101674
0.000120719
1.32165e-05
5.87376e-06
3.88661e-06
0.000151004
1.43546e-05
1.12909e-05
1.93427e-05
6.61141e-06
1.28478e-06
3.10168e-06
8.45354e-05
7.8823e-07
1.39535e-05
1.58439e-05
0.000161525
0.000161687
2.01518e-06
6.55328e-06
3.83018e-06
7.89429e-06
2.2909e-05
8.1621e-06
4.03322e-05
1.06471e-05
4.22805e-06
2.39681e-05
7.04927e-06
7.5211e-06
1.63489e-05
1.06252e-05
1.67057e-05
9.96971e-06
0.000136947
8.28981e-07
1.29238e-06
7.69342e-07
1.25431e-06
1.56131e-06
1.05543e-05
0.00013001
1.21276e-06
1.39445e-05
2.55386e-06
8.20026e-07
8.71668e-05
6.95166e-05
3.88516e-06
0.000172817
4.64719e-06
0.000115751
2.13506e-06
1.38865e-06
2.42831e-07
7.63489e-07
1.50342e-06
0.000105904
0.000160855
0.000253654
0.000116097
0.000126014
5.21064e-06
1.68505e-05
0.000108335
0.000140464
5.11033e-06
6.83878e-05
1.9435e-06
1.26551e-06
2.85476e-05
9.00015e-05
1.7343e-05
0.000133276
2.36713e-05
0.000110335
0.000136001
5.55014e-06
5.03632e-05
1.2609e-05
8.38443e-06
4.67885e-05
9.91621e-06
1.57825e-05
2.09156e-06
3.939e-06
1.94611e-06
9.20275e-05
0.000129782
3.74252e-06
1.04065e-05
6.4306e-06
7.58473e-05
1.39303e-05
1.0289e-05
4.1592e-06