/*--------------------------------*- C++ -*----------------------------------*\
| =========                 |                                                 |
| \\      /  F ield         | OpenFOAM: The Open Source CFD Toolbox           |
|  \\    /   O peration     | Version:  2406                                  |
|   \\  /    A nd           | Website:  www.openfoam.com                      |
|    \\/     M anipulation  |                                                 |
\*---------------------------------------------------------------------------*/
FoamFile
{
    version     2.0;
    format      ascii;
    arch        "LSB;label=32;scalar=64";
    class       volScalarField;
    location    "48";
    object      p;
}
// * * * * * * * * * * * * * * * * * * * * * * * * * * * * * * * * * * * * * //

dimensions      [0 2 -2 0 0 0 0];

internalField   nonuniform List<scalar> 
59516
(
0.244943
0.0141229
0.0134202
0.00186142
0.258374
0.278891
0.245763
0.218102
0.0713872
-0.000539058
0.253066
0.247033
0.17129
0.244211
0.229394
0.0724243
0.24608
0.253994
0.250343
0.243099
0.249482
0.217519
0.245653
0.157968
0.0633348
0.152439
0.0896277
0.252768
0.248153
0.22839
0.261705
0.252922
0.114422
0.001415
0.250527
0.205439
0.0615538
0.256837
0.248759
0.0122986
0.0145556
0.253107
0.249641
0.00149927
0.248164
0.0385964
0.248966
0.249479
0.260009
0.250801
0.266031
0.00115132
0.116595
0.222031
0.24894
0.248038
0.254287
0.00153047
0.15763
0.251606
0.0014734
0.200947
0.158796
0.246613
0.00307362
0.24846
0.00762932
0.209231
0.260329
0.248025
0.212941
0.243091
0.0429614
0.244337
0.210485
0.247609
0.249006
0.0273318
0.17463
0.250683
0.00139473
0.250694
0.249734
0.102045
0.250691
0.242631
0.071667
0.243308
0.11538
0.253963
0.256516
0.214196
0.238219
0.211443
0.212374
0.259725
0.22841
0.21878
0.250449
0.169466
0.0777417
0.140675
0.224291
0.00818959
0.0429446
0.00640197
0.00585792
0.0672779
0.121674
0.176126
0.258638
0.0838547
0.21471
0.259182
0.23587
0.195601
0.0300228
0.222464
0.222964
0.0301327
0.224318
0.220917
0.057862
0.222448
0.257113
0.250593
0.236051
0.254723
0.265785
0.237392
0.235068
0.0143931
0.210358
0.237949
0.238651
0.207245
0.257517
0.23178
0.14175
0.241704
0.0849215
0.106578
0.218242
0.0842416
0.242288
0.239985
0.248517
0.243997
0.264819
0.238853
0.242123
0.00291117
0.23597
0.00282339
0.237487
0.00513089
0.00372957
0.238172
0.238781
0.230185
0.242402
0.242145
0.229593
0.00422415
0.193862
0.0283063
0.0715073
0.239784
0.240419
0.00399831
0.237547
0.237571
0.233087
0.233932
0.23349
0.249546
0.196612
0.250321
0.0130449
0.194224
0.235775
0.125104
0.14856
0.23517
0.235472
0.0792752
0.109579
0.0609314
0.236799
0.23438
0.000332786
0.124004
0.239582
0.23436
0.240916
0.0192108
0.142397
0.141867
0.00378414
0.232718
-0.000548041
0.0598271
0.219416
0.170305
0.200672
0.125212
0.240485
0.00325884
0.162518
0.226379
0.0401849
0.252543
0.225386
0.201782
0.226531
0.0901853
0.239156
0.0191966
0.185801
0.226929
0.226761
0.240167
0.232959
0.0042184
0.229515
0.195946
0.161876
0.170425
0.232626
0.0349656
0.228756
0.123172
0.233132
0.129772
0.136616
0.233321
0.231837
0.0487916
0.231682
0.051989
0.236032
0.125342
0.121446
0.0030955
0.237219
0.236787
0.234345
0.0116351
0.233217
0.236378
0.0121081
0.234511
0.236503
0.147512
0.235477
0.236259
0.0728819
0.231135
0.179759
0.228003
0.16419
0.229831
0.231392
0.231088
0.20532
0.055346
0.18661
0.0660429
0.228724
0.155236
0.246289
0.200241
0.0701469
0.158042
0.22974
0.205463
0.155539
0.228555
0.229502
0.0907032
0.232778
0.170955
0.15913
0.227416
0.225718
0.245481
0.236143
0.00698624
0.231366
0.206443
0.230477
0.227884
0.21188
0.0278278
0.214994
0.120994
0.207271
0.20292
0.228455
0.206258
0.205755
0.0580622
0.0948589
0.200271
0.209402
0.152073
0.019079
0.205695
0.206674
0.0773825
0.0633151
0.206874
0.148441
0.139863
0.248369
0.208578
0.220047
0.260431
0.207908
0.0607965
0.123336
0.218925
0.131079
0.221907
0.171178
0.209115
0.25242
0.220163
0.161776
0.221394
0.0218597
0.242079
0.159061
0.221353
0.181935
0.22795
0.231245
0.199858
0.251755
0.226164
0.201852
0.199719
0.22232
0.0484416
0.100316
0.226079
0.0932578
0.230488
0.222607
0.180246
0.232509
0.234248
0.0358224
0.116273
0.161866
0.0493835
0.00734343
0.258495
0.263075
0.195407
0.0320427
0.238592
0.251475
0.215233
0.0315397
0.221403
0.220826
0.238972
0.262128
0.224832
0.082326
0.0808192
0.220474
0.166228
0.190777
0.220238
0.22185
0.216492
0.177205
0.210791
0.23944
0.00112387
0.252303
0.00975483
0.0184976
0.221813
0.00721641
0.251781
0.2212
0.0134828
0.0131963
0.0547835
0.216698
0.257093
0.219402
0.257584
0.0107851
0.0725133
0.216649
0.217788
0.227906
0.214756
0.178228
0.228261
0.229336
0.0584497
0.141249
0.229488
0.22792
0.226933
0.038424
0.0216325
0.0235546
0.128735
0.201365
0.0098009
0.0347632
0.0673428
0.00455518
0.216318
0.214018
0.219819
0.219456
0.230273
0.219137
0.168879
0.213644
0.146255
0.219664
0.183562
0.222908
0.218207
0.205417
0.130269
0.228368
0.252139
0.0224528
0.223552
0.165835
0.0800252
0.168446
0.18653
0.225352
0.223353
0.220254
0.218633
0.0773701
0.218324
0.170382
0.0276859
0.18863
0.263232
0.14588
0.0623295
0.220639
0.181721
0.217959
0.137004
0.217911
0.0614502
0.218741
0.00395671
0.0074752
0.215184
0.249666
0.212979
0.197107
0.0367897
0.200183
0.19849
0.0413387
0.207065
0.198554
0.194019
0.193358
0.097623
0.200683
0.195746
0.133582
0.193869
0.0859964
0.191456
0.252915
0.191653
0.265285
0.19268
0.232169
0.0836661
0.0965314
0.167697
0.00385837
0.00296817
0.181745
0.205171
0.209164
0.161463
0.1964
0.0490467
0.214804
0.212768
0.254097
0.142416
0.124884
0.17105
0.212523
0.0203906
0.207329
0.245285
0.00461722
0.284932
0.21361
0.064624
0.241922
0.180255
0.247168
0.199538
0.173468
0.191715
0.215917
0.176755
0.21616
0.238522
0.0742458
0.0745187
0.257787
0.00303644
0.214664
0.206231
0.257328
0.204599
0.241909
0.000869335
0.207916
0.0844202
0.000330116
0.156955
0.0387502
0.255273
0.221886
0.0689752
0.00231695
0.228221
0.127594
0.206934
0.227432
0.206291
0.239205
0.000766962
0.103956
0.0678932
0.206051
0.0351572
0.151501
0.214625
0.132939
0.21329
0.002596
0.217686
0.0642868
0.214091
0.168644
0.115071
0.107244
0.215779
0.00219191
0.0425807
0.20504
0.0797121
0.162556
0.185934
0.122078
0.117218
0.204738
0.204113
0.234462
0.203373
0.116205
0.204959
0.202864
0.111315
0.0994273
0.000917426
0.203877
0.203686
0.205398
0.0949063
0.196899
0.0102372
0.206177
0.0054631
0.216239
0.000877542
0.0239622
0.174917
0.124444
0.0107043
0.206625
0.255542
0.00350896
0.0168877
0.203459
0.200102
0.033068
0.202318
0.202974
0.137502
0.0396706
0.216207
0.209399
0.0134558
0.204965
0.2053
0.150774
0.201667
0.264337
0.20575
0.257577
0.176952
0.259985
0.179793
0.0228686
0.241116
0.00537059
0.00595341
0.261683
0.260353
0.181539
0.205056
0.255026
0.251806
0.127281
0.102016
0.166928
0.0620717
0.177694
0.118023
0.252048
0.18051
0.182774
0.198569
0.187872
0.262201
0.169827
0.191599
0.0532336
0.191755
0.142726
0.0176402
0.191759
0.190787
0.192181
0.143922
0.0869878
0.270432
0.121089
0.12436
0.147669
0.227833
0.192339
0.0628033
0.178113
0.147457
0.0129377
0.0654292
0.194829
0.22383
0.154571
0.144371
0.193949
0.19385
0.0778561
0.233809
0.203025
0.13365
0.200105
0.161078
0.209948
0.197903
0.00997876
0.0253368
0.180228
0.262834
0.141584
0.132123
0.00318602
0.151252
0.197575
0.113827
0.207188
0.202585
0.0864935
0.119117
0.205494
0.24169
0.216401
0.16443
0.262187
0.205365
0.0333117
0.213871
0.264983
0.0211984
0.118209
0.228257
0.193405
0.0751114
0.187733
0.0227822
0.0170912
0.163962
0.193769
0.262258
0.217999
0.193225
0.192845
0.198398
0.0878005
0.0105274
0.0636151
0.216584
0.261607
0.145998
0.195795
0.131665
0.0565127
0.192527
0.0603131
0.193442
0.246429
0.11979
0.0022198
0.221496
0.0927555
0.198912
0.0172852
0.0745627
0.148998
0.22449
0.197085
0.199013
0.262901
0.224754
0.0376096
0.264901
0.00323162
-0.000620723
0.198337
0.0404843
0.108196
0.148793
0.103926
0.262431
0.195122
0.221254
0.191084
0.0440362
0.159814
0.0505353
0.122311
0.219796
0.191069
0.192808
0.190511
0.0705968
0.236825
0.179335
0.0627924
0.191811
0.190187
0.18958
0.176701
0.191826
0.0186929
0.0116013
0.190812
0.00343284
0.115815
0.13279
0.0101114
0.139594
0.163249
0.243874
0.181371
0.213298
0.167354
0.122983
0.192322
0.194138
0.194655
0.10461
0.193567
0.237184
0.0161152
0.00273841
0.130111
0.110704
0.00293904
0.193234
0.190631
0.192108
0.0177187
0.0292752
0.18989
0.227504
0.0281475
0.0371135
0.26241
0.253886
0.195606
0.0383601
0.204783
0.18096
0.209699
0.164493
0.187491
0.256384
0.164666
0.164113
0.0839889
0.166115
0.257384
0.0315557
0.185599
0.164567
0.0990711
0.202586
0.208818
0.0853721
0.20125
0.225058
0.204118
0.164695
0.247629
0.0500968
0.164211
0.22018
0.0144404
0.176356
0.0676199
0.161463
0.0890636
0.256413
0.168148
0.00298508
0.162251
0.16149
0.172
0.16346
0.150672
0.00456566
0.0407569
0.201735
0.174278
0.143654
0.204146
0.104253
0.226099
0.0229822
0.173844
0.0773354
0.157449
0.204363
0.0148897
0.176539
0.173032
0.258711
0.0242607
0.209899
0.229939
0.0389103
0.169983
0.0406436
0.138005
0.19384
0.20863
0.169761
0.16863
0.168013
0.262323
0.0302015
0.207558
0.102955
0.0181452
0.170514
0.212615
0.180907
0.179841
0.0312993
0.182555
0.184175
0.0967734
0.232464
0.260919
0.243973
0.137472
0.184485
0.00389891
0.25111
0.166254
0.181587
0.151057
0.183854
0.18222
0.186883
0.203475
0.187026
0.208735
0.182676
0.24145
0.242669
0.182248
0.199924
0.181365
0.208662
0.209481
0.0127936
0.120401
0.143352
0.0125797
0.193448
0.184685
0.195016
0.101632
0.00624096
0.106102
0.18107
0.198018
0.198049
0.117459
0.135825
0.195578
0.259282
0.18586
0.0082141
0.0180988
0.21714
0.187118
0.111609
0.149425
0.184755
0.12133
0.177216
0.177689
0.177478
0.151287
0.200194
0.176854
0.263445
0.0230516
0.176609
0.263672
0.177075
0.231526
0.0399297
0.175357
0.111341
0.0847472
0.177583
0.176861
0.109435
0.111557
0.175672
0.0937284
0.173993
0.174717
0.181322
0.10393
0.172632
0.0296442
0.175066
0.174745
0.117664
0.17311
0.173548
0.245007
0.168413
0.142142
0.169733
0.171631
0.119242
0.0570325
0.102727
0.251842
0.173838
0.174823
0.14711
0.0584139
0.252326
0.149696
0.152463
0.148431
0.147341
0.0108653
0.00569374
0.0482157
0.0979247
0.175017
0.174256
0.00556608
0.217023
0.164509
0.07494
0.25241
0.143931
0.14272
0.254786
0.145498
0.210271
0.0441226
0.143671
0.204657
0.189884
0.144015
0.106077
0.0383536
0.144676
0.216978
0.194698
0.110991
0.0525844
0.0852678
0.151257
0.0884443
0.216745
0.0845133
0.148797
0.159225
0.25863
0.115045
0.010125
0.0556169
0.0860779
0.146184
0.215232
0.157993
0.1577
0.019697
0.12495
0.00792889
0.160214
0.160212
0.0874514
0.0121861
0.191605
0.0376671
0.235982
0.178291
0.174965
0.250861
0.0854911
0.205542
0.214203
0.14352
0.0150682
0.175008
0.248507
0.1733
0.171157
0.146055
0.0754858
0.174838
0.0162046
0.249894
0.218496
0.117007
0.174268
0.166703
0.216343
0.243555
0.206957
0.028429
0.0763223
0.171902
0.179597
0.201825
0.113914
0.198532
0.253861
0.170668
0.200678
0.0683875
0.177091
0.133095
0.0821152
0.176696
0.176689
0.175784
0.200772
0.1727
0.0395528
0.173505
0.0750331
0.19703
0.0193613
0.171682
0.200141
0.00367576
0.0220799
0.168563
0.0639901
0.0435265
0.0678647
0.0568311
0.10339
0.0371881
0.171345
0.169417
0.0298805
0.168552
0.169707
0.198997
0.00953294
0.171003
0.164031
0.00217331
0.0235063
0.161258
0.0934668
0.00357819
0.0121217
0.1617
0.115795
0.166813
0.246526
0.0157515
0.199358
0.150051
0.165994
0.163131
0.147482
0.188357
0.173403
0.167879
0.153501
0.249486
0.21962
0.166598
0.169206
0.22987
0.0337295
0.217436
0.1888
0.114253
0.107843
0.169019
0.0769693
0.0191234
0.156071
0.160737
0.264358
0.135366
0.160983
0.158946
0.184973
0.0763809
0.159143
0.160186
0.240296
0.160639
0.0721524
0.163515
0.163238
0.13089
0.118575
0.143642
0.163337
0.160433
0.163194
0.110148
0.138823
0.166677
0.145229
0.108982
0.116008
0.116768
0.117155
0.13604
0.161447
0.138857
0.252562
0.23114
0.0411814
0.0982782
0.102385
0.137067
0.134956
0.139124
0.178487
0.13599
0.135247
0.0812042
0.102443
0.189671
0.0806632
0.0324622
0.138324
0.137296
0.14002
0.2347
0.0133219
0.00655662
0.0961132
0.147963
0.145023
0.217565
0.0330868
0.137684
0.252665
0.0390303
0.146477
0.146179
0.174301
0.00174889
0.144611
0.14492
0.144159
0.156141
0.00486953
0.00715553
0.1566
0.156666
0.153495
0.155132
0.16092
0.152068
0.0759082
0.015174
0.25751
0.194294
0.156915
0.155839
0.117705
0.245203
0.238444
0.221791
0.00130215
0.221989
0.157767
0.157828
0.156518
0.157307
0.157982
0.156561
0.213098
0.131532
0.207275
0.138838
0.07555
0.0133375
0.158957
0.118212
0.00427201
0.140533
0.163588
0.249242
0.16477
0.11208
0.108578
0.191673
0.122801
0.161547
0.167941
0.165829
0.13466
0.145322
0.245253
0.161048
0.205751
0.0723153
0.0597301
0.15896
0.0618953
0.0216569
0.163718
0.163226
0.120978
0.0813354
0.0934444
0.231735
0.162627
0.0480207
0.00550277
0.146272
0.0268778
0.115074
0.15739
0.194233
0.145551
0.0244794
0.236054
0.014361
0.229875
0.127752
0.218393
0.150136
0.0425679
0.159034
0.143556
0.0907243
0.109124
0.159616
0.159957
0.237015
0.195825
0.207331
0.241726
0.201087
0.193937
0.194279
0.211778
0.156176
0.15547
0.122569
0.0608743
0.0700097
0.0170216
0.219562
0.123185
0.153114
0.151074
0.1523
0.0427675
0.149088
0.208655
0.0048893
0.149059
0.153478
0.17548
0.260035
0.209692
0.208493
0.149811
0.0120144
0.218967
0.151975
0.183343
0.159375
0.187148
0.198149
0.1399
0.216243
0.154956
0.195638
0.159312
0.0192137
0.210079
0.216651
0.125596
0.255653
0.070214
0.0809697
0.0705365
0.138344
0.20455
0.0568004
0.182839
0.0582197
0.155577
0.155546
0.133903
0.16148
0.146441
0.22806
0.188567
0.144688
0.19358
0.151572
0.261049
0.214362
0.151206
0.147043
0.1883
0.224406
0.148672
0.0251327
0.182385
0.227831
0.145665
0.132773
0.149957
0.152687
0.153997
0.154834
0.0036304
0.0704729
0.155973
0.254932
0.15448
0.126647
0.201664
0.124234
0.107776
0.229025
0.255128
0.210661
0.210748
0.212324
0.0334776
0.144994
0.173617
0.253622
0.242118
0.255685
0.259315
0.241902
0.128703
0.125565
0.254072
0.0553011
0.129858
0.193026
0.126707
0.210199
0.198253
0.253845
0.23559
0.209869
0.0699637
0.128879
0.142822
0.137116
0.143969
0.21271
0.19414
0.143425
0.139073
0.141179
0.0150486
0.224696
0.0397607
0.144578
0.170688
0.150042
0.146029
0.140893
0.0400689
0.147456
0.129937
0.146724
0.145809
0.216953
0.132933
0.0756354
0.0454366
0.203621
0.104198
0.103357
0.198912
0.086336
0.0480558
0.0413917
0.031058
0.196027
0.0649666
0.132319
0.1648
0.0307914
0.221777
0.222517
0.0922873
0.0894873
0.239513
0.136818
0.0146504
0.159605
0.0311853
0.191641
0.029734
0.0463834
0.018535
0.00959062
0.0774364
0.218002
0.0445767
0.0235453
0.0246121
0.143675
0.0284419
0.141545
0.223445
0.145159
0.142659
0.195504
0.0439255
0.148082
0.146732
0.0115371
0.0705441
0.218812
0.147969
0.148441
0.19739
0.223764
0.213223
0.222829
0.0528771
0.246026
0.254046
0.148057
0.148906
0.0123643
0.230459
0.252946
0.146279
0.110825
0.145642
0.0167729
0.21392
0.00641321
0.043852
0.137422
0.176898
0.139093
0.11313
0.220041
0.10381
0.209313
0.137737
0.138835
0.0680893
0.130957
0.118723
0.249263
0.220192
0.189509
0.137865
0.224809
0.0759655
0.0432704
0.06273
0.0129327
0.138067
0.222062
0.137595
0.0131144
0.0109478
0.216616
0.139909
0.0658381
0.231272
0.139999
0.140432
0.216895
0.0191015
0.215334
0.140935
0.143622
0.144864
0.151863
0.144825
0.211562
0.208368
0.144992
0.238402
0.154784
0.208146
0.176417
0.142864
0.223018
0.139939
0.112031
0.240531
0.158005
0.142181
0.0113251
0.145566
0.144288
0.108438
0.138953
0.192231
0.0551111
0.220448
0.132493
0.201332
0.211375
0.142417
0.155427
0.0100418
0.066052
0.0533032
0.140721
0.220885
0.0183445
0.138051
0.24073
0.0525631
0.199623
0.0495947
0.138912
0.169644
0.137072
0.00129541
0.182099
0.220832
0.10856
0.0340403
0.0536194
0.104929
0.106616
0.113794
0.218647
0.010507
0.0345892
0.119202
0.120497
0.20746
0.192431
0.121087
0.12635
0.115553
0.176447
0.241923
0.226612
0.154186
0.0283751
0.20506
0.203977
0.0920527
0.0473209
0.187699
0.0871597
0.119042
0.195591
0.154364
0.158064
0.13474
0.115248
0.12539
0.125137
0.123479
0.199094
0.127826
0.172196
0.238074
0.220657
0.193462
0.213559
0.116307
0.084859
0.219511
0.128627
0.196241
0.152471
0.201887
0.247518
0.120791
0.00667852
0.129967
0.131822
0.138327
0.21796
0.12925
0.135964
0.157168
0.138211
0.156916
0.131822
0.00181739
0.155733
0.135839
0.135269
0.00490149
0.194398
0.243663
0.155348
0.162431
0.122635
0.137623
0.136191
0.0554482
0.241663
0.137933
0.13755
0.139562
0.0335258
0.218428
0.148232
0.123913
0.155442
0.0806188
0.105324
0.206804
0.127844
0.124307
0.100567
0.124798
0.135247
0.0842605
0.127965
0.218376
0.145021
0.0733042
0.217386
0.218342
0.111523
0.112473
0.0946711
0.128004
0.0559747
0.131365
0.0616642
0.263065
0.203252
0.168578
0.0805504
0.0200623
0.226773
0.0180511
0.0208865
0.12734
0.00206381
0.127869
0.0292928
0.169751
0.0891072
0.126541
0.190283
0.170785
0.12765
0.0253794
0.0206659
0.166155
0.125522
0.0369986
0.128454
0.126977
0.145001
0.133513
0.246676
0.196262
0.226689
0.167739
0.191702
0.127388
0.195762
0.169093
0.127828
0.228254
0.250356
0.19069
0.186152
0.127887
0.211965
0.124859
0.227558
0.164544
0.193949
0.018632
0.0391309
0.184001
0.00993033
0.2202
0.262703
0.229835
0.0117271
0.0539735
0.0179999
0.216721
0.225566
0.00603451
0.170806
0.120906
0.211661
0.175033
0.12036
0.128729
0.0299085
0.187217
0.190744
0.0524644
0.246598
0.22645
0.137356
0.122332
0.257683
0.121526
0.251561
0.189124
0.187166
0.122658
0.235143
0.108738
0.233174
0.217769
0.237601
0.00665529
0.125769
0.244711
0.0658373
0.253361
0.126138
0.239038
0.0949044
0.0941639
0.100206
0.247573
0.203893
0.236615
0.202778
0.10692
0.24449
0.244895
0.0954813
0.246105
0.111093
0.196495
0.10507
0.203756
0.135625
0.0915844
0.128859
0.0886863
0.12967
0.0197346
0.112525
0.102941
0.227796
0.0999346
0.190023
0.143342
0.169766
0.110236
0.0371643
0.0820909
0.191431
0.105149
0.227438
0.0708315
0.114772
0.233974
0.194874
0.1169
0.211608
0.115158
0.104762
0.102535
0.13406
0.109991
0.00204552
0.0371957
0.040872
0.105374
0.106063
0.193544
0.0469428
0.0271328
0.10024
0.0666955
0.225954
0.205839
0.0330104
0.1176
0.17233
0.111309
0.118978
0.0955896
0.116517
0.205339
0.116048
0.161929
0.00066148
0.222893
0.159205
0.255009
0.119732
0.116141
0.0209982
0.228082
0.0888677
0.120452
0.196295
0.124483
0.121435
0.113961
0.112015
0.0307075
0.124134
0.118965
0.119693
0.114396
0.133737
0.116538
0.223128
0.0965434
0.121739
0.225023
0.254696
0.166388
0.100054
0.18514
0.119318
0.108905
0.103738
0.0558557
0.0971071
0.0887709
0.242619
0.0983356
0.134247
0.131961
0.0328959
0.0972999
0.22264
0.111015
0.113958
0.157858
0.149133
0.108683
0.172888
0.134435
0.112231
0.109739
0.124704
0.110103
0.221297
0.213216
0.0998128
0.0965103
0.106342
0.0432334
0.112628
0.134171
0.192861
0.109557
0.113652
0.103853
0.115527
0.223732
0.0959486
0.216744
0.113424
0.109576
0.101216
0.109997
0.0854983
0.106557
0.0872546
0.0762596
0.108663
0.239946
0.123686
0.237928
0.158751
0.0732437
0.0236283
0.0944495
0.222725
0.110886
0.109529
0.080604
0.111341
0.0802638
0.224617
0.223167
0.0840769
0.0847558
0.088395
0.0889358
0.179246
0.141216
0.086532
0.0870915
0.0655522
0.107822
0.0885293
0.0889232
0.0510905
0.0494943
0.00236115
0.0891755
0.18124
0.0306961
0.141319
0.0923715
0.0952115
0.0994199
0.127204
0.220521
0.112877
0.0815489
0.0117969
0.0191515
0.143183
0.093643
0.08876
0.122346
0.031996
0.0209908
0.0948565
0.22208
0.105376
0.107186
0.0500771
0.0995132
0.24837
0.101947
0.100081
0.140302
0.102247
0.105701
0.222017
0.106339
0.120186
0.0189442
0.00413619
0.174466
0.0372068
0.021512
0.109655
0.0904921
0.22246
0.107666
0.230267
0.230794
0.104674
0.221366
0.00732239
0.101159
0.107633
0.0348343
0.108767
0.230607
0.255141
0.0501849
0.226764
0.107181
0.191992
0.210793
0.10781
0.11244
0.229132
0.105503
0.246997
0.10719
0.130268
0.1166
0.247789
0.226737
0.131674
0.110022
0.106813
0.199841
0.12995
0.199521
0.226839
0.223553
0.110276
0.0123637
0.110834
0.103109
0.198455
0.0839608
0.199127
0.0425081
0.210284
0.000306744
0.223273
0.13069
0.0930125
0.102339
0.225618
0.0999332
0.222953
0.216507
0.225257
0.0136455
0.00361068
0.201069
0.00377609
0.0997385
0.128672
0.173458
0.0975416
0.216828
0.148315
0.220794
0.0952184
0.219132
0.18217
0.198019
0.256212
0.134875
0.241821
0.0948293
0.010269
0.148322
0.0100185
0.253555
0.0465675
0.143559
0.198277
0.104406
0.0994348
0.0140938
0.0342291
0.101491
0.203571
0.225276
0.00687882
0.230943
0.13089
0.246505
0.0596567
0.205944
0.101324
0.18287
0.226962
0.180303
0.169263
0.190753
0.207492
0.220849
0.167128
0.043558
0.194794
0.102938
0.103255
0.102825
0.0616519
0.241048
0.242038
0.19644
0.11272
0.216795
0.223385
0.112414
0.103868
0.102678
0.0992976
0.241128
0.0493968
0.0970827
0.153567
0.0996591
0.194442
0.18014
0.11961
0.0587071
0.10068
0.0987697
0.140224
0.252119
0.162
0.0988524
0.218239
0.070186
0.053507
0.237153
0.00490471
0.0698465
0.0141804
0.0700216
0.0702558
0.219331
0.0975332
0.181596
0.217936
0.12193
0.10387
0.226498
0.0739813
0.223698
0.0934447
0.0963031
0.0965564
0.198237
0.167331
0.223279
0.202528
0.21469
0.0828295
0.14394
0.227186
0.212199
0.103848
0.211418
0.0720079
0.195022
0.0471343
0.19704
0.099377
0.177252
0.0880296
0.134467
0.211737
0.0700129
0.21242
0.0537328
0.107412
0.0859837
0.0309786
0.0906534
0.0848653
0.11988
0.223388
0.0887054
0.0409145
0.0180533
0.199021
0.0200805
0.213971
0.00426204
0.0930538
0.0502884
0.0919065
0.212127
0.215761
0.0468101
0.240105
0.0328486
0.00229571
0.197589
0.178754
0.0906851
0.212432
0.0683814
0.0195758
0.116926
0.00260053
0.148654
0.189614
0.138208
0.0928244
0.250578
0.0942346
0.152138
0.197577
0.124738
0.214832
0.0906208
0.136158
0.0897865
0.140812
0.239625
0.0964395
0.0830995
0.141308
0.0905126
0.157553
0.089132
0.0583579
0.089066
0.239461
0.0887962
0.0853301
0.0880703
0.233315
0.112377
0.224721
0.243074
0.241477
0.173022
0.0482276
0.0645919
0.180821
0.212884
0.0224278
0.0621963
0.0880714
0.0865873
0.214188
0.253705
0.00305038
0.0320169
0.0795593
0.224662
0.032504
0.126236
0.214313
0.085678
0.0844542
0.0851376
0.0826745
0.085471
0.173893
0.105709
0.210727
0.0227789
0.0886979
0.0855925
0.235093
0.134691
0.23114
0.244839
0.0466421
0.0861627
0.0644271
0.233382
0.235886
0.230628
0.229773
0.11932
0.0636032
0.225523
0.0468467
0.0859717
0.206964
0.0959866
0.0850548
0.0675894
0.0835857
0.205348
0.204176
0.0859435
0.151956
0.0963805
0.0957595
0.251053
0.0246743
0.0529178
0.085867
0.0866255
0.00773315
0.0865991
0.065866
0.0918069
0.200966
0.0868464
0.0164409
0.0933784
0.00771269
0.235787
0.228733
0.120581
0.089078
0.0917885
0.105497
0.0784375
0.0712602
0.107647
0.0753945
0.0741689
0.0648721
0.0756983
0.237156
0.211634
0.126676
0.198134
0.0798902
0.204484
0.063289
0.197708
0.164413
0.189767
0.0769329
0.143838
0.0178771
0.204776
0.22077
0.0882624
0.258729
0.079492
0.0814909
0.13686
0.0210244
0.106168
0.0822576
0.203665
0.0624005
0.0880696
0.0853289
0.0593019
0.169383
0.0594306
0.0584896
0.05992
0.0607215
0.0595387
0.200106
0.200615
0.206795
0.197259
0.0380577
0.0600891
0.232001
0.0659727
0.0366245
0.0653179
0.0648261
0.039114
0.0657073
0.0644067
0.065022
0.0826957
0.0792972
0.146071
0.09078
0.10242
0.132403
0.114225
0.105076
0.0390479
0.0832137
0.0824692
0.0623186
0.067269
0.0804959
0.159644
0.0164777
0.188848
0.250712
0.14833
0.240718
0.0815665
0.0180813
0.0197433
0.0194406
0.110299
0.0207307
0.0781748
0.0804024
0.225744
0.25829
0.137442
0.0727739
0.229193
0.124386
0.153266
0.0797902
0.155699
0.0799384
0.160455
0.0669724
0.0356913
0.0432468
0.0757985
0.00149571
0.0820125
0.227581
0.0605557
0.186595
0.024259
0.0733811
0.0755937
0.212966
0.103021
0.160711
0.115495
0.159625
0.0746911
0.0144582
0.230147
0.0898264
0.148888
0.226567
0.22665
0.0766346
0.0650138
0.0774624
0.117804
0.0769522
0.156549
0.212499
0.120907
0.0781266
0.0787737
0.12517
0.142943
0.176163
0.0779896
0.0798433
0.0802867
0.227625
0.0789515
0.0803488
0.0288383
0.0704545
0.037206
0.0140894
0.0365942
0.0227315
0.0690757
0.0708452
0.0115436
0.0560232
0.0111318
0.225133
0.0722855
0.0408546
0.225376
0.173192
0.108251
0.0624844
0.0755111
0.0115986
0.0737167
0.165935
0.116486
0.0721909
0.231012
0.0355302
0.00341008
0.0730286
0.265816
0.114649
0.150943
0.0130004
0.0734361
0.0727491
0.176131
0.0131301
0.113588
0.146147
0.067541
0.0729417
0.075234
0.257967
0.237711
0.231426
0.110149
0.0371431
0.0144502
0.0130077
0.23283
0.0130998
0.0461324
0.0763256
0.25417
0.0896187
0.0777719
0.209781
0.23249
0.166318
0.157846
0.0768728
0.0748399
0.225448
0.193267
0.204845
0.0223908
0.189526
0.0497975
0.104244
0.0409632
0.0741892
0.118013
0.237535
0.118755
0.116845
0.245499
0.069805
0.227059
0.0524704
0.155654
0.182678
0.237272
0.11871
0.230542
0.0658601
0.0550549
0.0329186
0.0699612
0.230599
0.0530492
0.0478633
0.142925
0.0544925
0.054637
0.0588331
0.018866
0.108261
0.0714105
0.0844608
0.0496434
0.0647818
0.0573105
0.0392566
0.232803
0.161952
0.0528543
0.0733132
0.262943
0.138024
0.0701191
0.148403
0.0707241
0.131939
0.0687743
0.231135
0.051358
0.259809
0.0447606
0.039613
0.144187
0.0539628
0.157664
0.138004
0.166594
0.0218633
-0.0010066
0.0300831
0.024972
0.0446382
0.0160321
0.0493535
0.0458515
0.0452474
0.243866
0.030259
0.233266
0.233534
0.035412
0.222216
0.0740283
0.228089
0.211955
0.0513445
0.224354
0.0515638
0.00171235
0.166137
0.106509
0.21658
0.211171
0.11667
0.0177877
0.0322472
0.168163
0.18316
0.052939
0.0512866
0.0690685
0.186511
0.203123
0.15037
0.0185625
0.0134191
0.068273
0.171288
0.188428
0.206105
0.244247
0.0703612
0.217094
0.198882
0.149157
0.260693
0.106389
0.137082
0.173785
0.0661803
0.235452
0.0113765
0.102591
0.198623
0.17946
0.210453
0.234189
0.0209641
0.102382
0.0685747
0.12232
0.069425
0.113265
0.125641
0.121433
0.0878554
0.0691579
0.0682398
0.065966
0.0895593
0.242811
0.0967089
0.0868304
0.0929341
0.229373
0.20171
0.0198668
0.235068
0.0687509
0.0658903
0.138014
0.0580335
0.0586585
0.0811651
0.0203243
0.0570925
0.0618259
0.0142005
0.0542968
0.0532116
0.058466
0.076995
0.0641957
0.0647429
0.233225
0.042934
0.0521348
0.0382648
0.0705893
0.0378717
0.0356211
0.0668141
0.0156585
0.0168745
0.0952908
0.0390359
0.0345425
0.234455
0.0673678
0.0518161
0.0477221
0.0180167
0.0426491
0.0666942
0.068931
0.0611423
0.107482
0.147364
0.169914
0.127183
0.0170285
0.0609185
0.0593464
0.0611577
0.193999
0.0935624
0.0682712
0.249969
0.0599887
0.0928462
0.0594761
0.0618516
0.163121
0.169175
0.0593926
0.0993788
0.21268
0.21156
0.0937261
0.0601111
0.232352
0.0600714
0.129394
0.0607119
0.254734
0.0610869
0.191615
0.0597294
0.162913
0.197369
0.227543
0.206933
0.0583134
0.200225
0.145442
0.162544
0.0602168
0.0248308
0.105673
0.148075
0.0600271
0.0596001
0.0604465
0.105621
0.0538862
0.24499
0.177456
0.0229281
0.232974
0.0566561
0.226464
0.023106
0.0520803
0.0553581
0.193458
0.0598826
0.166963
0.243
0.0526856
0.0563111
0.091084
0.238735
0.193534
0.19259
0.0575075
0.203068
0.173708
0.055817
0.093629
0.0791367
0.0548688
0.0550625
0.166617
0.205639
0.0608532
0.0959999
0.0777184
0.230608
0.225731
0.229992
0.0599644
0.231929
0.0406217
0.182692
0.21056
0.121089
0.164244
0.0596881
0.236657
0.0289565
0.0326637
0.0350039
0.100804
0.0349738
0.108036
0.105998
0.0942445
0.117225
0.188616
0.0962709
0.142908
0.00818365
0.0404879
0.0818352
0.13646
0.0571926
0.152598
0.213849
0.110639
0.184395
0.177829
0.010633
0.0349598
0.161374
0.0410497
0.000360358
0.235092
0.19491
0.22538
0.0331697
0.234925
0.0900583
0.22335
0.0860125
0.226672
0.0851534
0.231643
0.0380229
0.203603
0.0550673
0.173468
0.0870912
0.178867
0.0898904
0.269063
0.0555467
0.0750665
0.189328
0.173877
0.053669
0.117063
0.174028
0.0555901
0.156345
0.0223117
0.155893
0.0509601
0.049406
0.0758704
0.234794
0.0557398
0.0356391
0.0548356
0.056712
0.101903
0.196242
0.0635279
0.0571346
0.101448
0.101506
0.00443312
0.228461
0.0550824
0.0728133
0.131766
0.180551
0.00173522
0.0566814
0.23315
0.0471512
0.0455109
0.143908
0.0270067
0.0401875
0.210812
0.0570272
0.23057
0.105808
0.036159
0.0446439
0.118888
0.0421622
0.0549043
0.0810659
0.052058
0.0534773
0.052885
0.0220224
0.138844
0.0511813
0.0722746
0.0488501
0.0660511
0.0735345
0.0506371
0.0475674
0.227963
0.051775
0.0449183
0.0475614
0.232861
0.0557119
0.0465462
0.0645637
0.172425
0.0694542
0.0506132
0.0565495
0.0493227
0.00279243
0.230933
0.070167
0.0494054
0.0365748
0.238222
0.0935015
0.0251275
0.0479531
0.0101054
0.10182
0.229687
0.0469471
0.22831
0.0437709
0.028893
0.232468
0.229144
0.237239
0.0352802
0.233821
0.0139298
0.016963
0.0482007
0.0252935
0.0216534
0.0592722
0.174653
0.233354
0.22392
0.241538
0.221848
0.137665
0.100095
0.0369456
0.0451468
0.0529939
0.130707
0.146859
0.09011
0.195168
0.0691442
0.0494539
0.158536
0.0623296
0.22266
0.222214
0.0276809
0.223976
0.147585
0.203009
0.23814
0.0462535
0.185288
0.149751
0.158852
0.149129
0.046722
0.114125
0.225057
0.239976
0.0561045
0.219831
0.238023
0.229179
0.190665
0.039249
0.241372
0.0417323
0.213587
0.214271
0.0415064
0.0461221
0.0370956
0.132112
0.234579
0.0961061
0.148417
0.0377381
0.164529
0.234955
0.0494503
0.192288
0.0477215
0.196226
0.222371
0.241441
0.221533
0.0804739
0.0888442
0.105391
0.186136
0.0495952
0.208187
0.208532
0.0479206
0.197801
0.114197
0.0480524
0.148426
0.201056
0.0465959
0.225289
0.0392012
0.205294
0.245196
0.04374
0.125192
0.0444567
0.1523
0.0466741
0.0222588
0.23501
0.154582
0.0757076
0.102566
0.130672
0.123733
0.018818
0.117653
0.115596
0.224119
0.158114
0.248362
0.214132
0.0625792
0.228919
0.0235865
0.0245047
0.166622
0.141952
0.197975
0.197279
0.0259572
0.0222404
0.11366
0.231856
0.187766
0.21383
0.24578
0.0252956
0.190066
0.155717
0.190609
0.1965
0.145589
0.236035
0.200566
0.204199
0.0578171
0.0621112
0.244589
0.0253868
0.0225323
0.0426505
0.216587
0.232363
0.235566
0.0414024
0.0392228
0.172687
0.0407473
0.041937
0.177851
0.240312
0.19626
0.0650652
0.223466
0.113747
0.193608
0.195499
0.241555
0.0397425
0.142913
0.143616
0.0419253
0.0399823
0.0381301
0.040497
0.152558
0.0420094
0.240806
0.191057
0.176136
0.0418859
0.0370686
0.0826351
0.185265
0.242147
0.110979
0.0997444
0.23972
0.0181723
0.0324483
0.0658507
0.10312
0.0319629
0.0411401
0.0426084
0.0796667
0.0428794
0.239664
0.240776
0.0877845
0.239725
0.140348
0.0790382
0.0383716
0.0629631
0.0590473
0.0704111
0.0410366
0.0349692
0.0445918
0.0514719
0.0373378
0.0611366
0.0653324
0.186149
0.0374244
0.0406269
0.0714364