/*--------------------------------*- C++ -*----------------------------------*\
| =========                 |                                                 |
| \\      /  F ield         | OpenFOAM: The Open Source CFD Toolbox           |
|  \\    /   O peration     | Version:  2406                                  |
|   \\  /    A nd           | Website:  www.openfoam.com                      |
|    \\/     M anipulation  |                                                 |
\*---------------------------------------------------------------------------*/
FoamFile
{
    version     2.0;
    format      ascii;
    arch        "LSB;label=32;scalar=64";
    class       surfaceScalarField;
    location    "48";
    object      phi;
}
// * * * * * * * * * * * * * * * * * * * * * * * * * * * * * * * * * * * * * //

dimensions      [0 3 -1 0 0 0 0];

oriented        oriented;

internalField   nonuniform List<scalar> 
113358
(
-1.46747e-05
3.05256e-05
-2.13907e-05
5.54144e-06
2.19e-05
2.80745e-07
-5.88598e-06
-1.62964e-05
-2.55933e-05
1.93104e-05
-3.01995e-06
9.30317e-06
-2.38799e-05
-6.25723e-06
2.3481e-05
6.6552e-06
-1.72954e-05
9.2044e-07
3.01439e-05
-1.3769e-05
1.36158e-05
-1.41962e-05
-7.96043e-06
8.54092e-06
-7.17236e-06
3.39488e-05
-2.47342e-05
-2.04043e-06
-7.33387e-07
-3.14125e-05
1.71517e-05
1.49937e-05
8.25516e-06
6.03846e-07
1.80422e-05
-2.6902e-05
7.21247e-06
3.64842e-06
-1.05623e-05
-3.02205e-07
-6.10089e-06
2.31003e-05
-2.17665e-05
4.76724e-06
-1.47223e-05
9.21876e-08
-3.43609e-07
1.49742e-05
-4.47342e-05
3.47049e-06
1.19712e-05
2.92912e-05
1.2022e-06
-2.56149e-06
1.35946e-06
1.94673e-06
-1.41198e-06
1.91625e-05
-1.96961e-05
1.02904e-06
3.29289e-07
1.16012e-05
-1.29606e-05
9.94047e-06
3.55367e-05
-2.91507e-05
-1.63262e-05
-1.95128e-05
1.07938e-05
6.71654e-06
2.00226e-06
1.50507e-05
-3.79831e-05
3.18257e-05
-8.89383e-06
2.58764e-05
3.28391e-06
2.80685e-05
-5.72286e-05
1.89391e-05
3.76979e-07
-4.82317e-07
-1.88338e-05
-1.1641e-05
4.65593e-05
4.34735e-06
-3.92697e-05
-8.0542e-07
-4.53593e-05
4.93371e-05
-3.17128e-06
-9.07207e-07
4.32049e-06
3.21776e-07
-3.73427e-06
-4.77543e-05
2.08971e-05
-4.05331e-06
3.0914e-05
-2.19373e-05
5.12752e-06
1.80715e-05
-1.2631e-06
-9.35593e-06
9.06739e-06
-1.80917e-07
4.70286e-07
-1.89367e-06
-7.45805e-06
5.34276e-06
4.00899e-06
1.89285e-05
-3.9582e-07
4.06477e-07
-2.20772e-06
2.20032e-06
7.50634e-09
-5.44194e-06
-2.58617e-05
2.74648e-05
3.83882e-06
5.08114e-06
-2.57806e-07
-8.08792e-06
3.26427e-06
2.03239e-05
-1.09826e-06
1.19748e-06
-2.04236e-05
-2.76044e-05
1.26784e-05
-2.96229e-06
1.78863e-05
1.75105e-05
2.5352e-06
-1.98373e-05
-2.08236e-07
-3.4049e-05
8.58692e-06
-1.19111e-05
3.73708e-05
-3.73619e-08
-2.14414e-06
2.18209e-06
9.34669e-06
1.07821e-05
1.76084e-06
-2.18896e-05
7.30721e-06
-3.70502e-05
3.04167e-05
-6.7396e-07
-3.53942e-06
4.48206e-06
3.68205e-05
-3.77669e-05
-1.87837e-05
1.58959e-05
-1.97737e-05
2.26613e-05
1.32334e-07
-2.4073e-05
-3.10316e-05
5.4973e-05
-1.24756e-06
4.33856e-05
-1.23442e-05
-2.9795e-05
5.19486e-06
-1.82647e-05
-7.29978e-06
-6.26602e-06
3.24731e-05
-3.52072e-07
-2.5856e-05
-2.24792e-06
1.55789e-05
-1.04115e-05
-2.92065e-06
-3.04429e-05
-1.2062e-05
4.12568e-05
-1.15966e-05
3.57261e-05
1.53934e-06
-2.56682e-05
-3.41006e-05
4.26134e-06
-5.52524e-06
3.53646e-05
3.55488e-05
1.58144e-05
-4.70392e-05
-4.32357e-06
2.32261e-05
-1.61793e-05
1.55185e-06
-8.59851e-06
-1.03393e-05
3.00412e-06
1.0454e-05
-3.11786e-06
2.91035e-05
-7.6902e-06
1.64727e-05
-3.78868e-05
-1.02415e-05
-3.77594e-05
4.09788e-05
7.02282e-06
-2.05887e-06
7.5796e-06
-8.79102e-06
3.27005e-06
2.80522e-05
-1.20955e-05
2.01401e-05
-3.60968e-05
-2.13831e-05
4.97025e-06
3.74067e-05
-2.0994e-05
1.1636e-05
-5.68989e-06
4.51273e-06
-1.04588e-05
3.86506e-05
-1.00255e-05
-2.98722e-05
1.2448e-06
-1.30019e-05
-1.47853e-05
8.14836e-06
1.96385e-05
-3.08084e-05
-5.024e-06
1.45697e-05
2.12622e-05
-2.82435e-06
3.2314e-06
-4.0733e-07
3.54875e-05
-6.05791e-06
-3.50579e-05
5.62926e-06
-1.58386e-05
-4.30889e-05
1.7092e-05
4.18353e-05
-4.09372e-06
4.3511e-06
-3.42399e-05
3.39816e-05
1.64411e-06
2.17264e-05
3.00416e-06
-2.63748e-05
3.47842e-06
-2.88095e-06
-5.97943e-07
-2.07654e-08
6.62723e-08
1.14771e-05
-1.15216e-05
6.24504e-06
-3.0196e-05
3.26533e-05
-8.70226e-06
9.78366e-06
-2.42746e-05
2.34044e-05
-8.91379e-06
7.29553e-06
-7.5321e-06
2.35901e-07
-1.95841e-05
-6.47244e-06
3.40395e-05
-7.98265e-06
-2.42388e-07
4.05606e-06
-3.81385e-06
7.47015e-06
-2.93761e-05
8.97058e-06
1.29348e-05
4.74954e-05
-3.509e-06
-3.10875e-06
-4.0876e-05
-2.73563e-05
-3.30609e-05
3.58225e-05
2.4594e-05
3.83711e-06
-3.73848e-05
6.19131e-06
3.6534e-05
-2.93471e-05
-8.75471e-07
-6.31173e-06
1.07222e-07
1.72989e-07
-1.51285e-05
1.48489e-05
6.4696e-06
8.41055e-06
1.29264e-05
-2.7806e-05
7.77897e-06
-4.08568e-06
3.16742e-06
-6.8625e-06
-1.61119e-05
-1.11682e-05
2.73399e-05
-5.98778e-08
-2.11623e-05
2.60989e-05
-1.88454e-05
1.39091e-05
-3.02998e-06
2.56781e-09
3.02708e-06
-3.08047e-05
3.39583e-05
-3.49307e-05
2.68508e-05
-2.84799e-06
-9.45822e-07
-6.18406e-07
4.41192e-06
6.41059e-05
-6.19231e-05
1.906e-06
-4.0898e-06
-1.16933e-05
3.64437e-06
1.12653e-05
-3.21597e-06
-4.63781e-06
2.57592e-05
-2.82952e-05
7.17393e-06
-1.79879e-05
-2.12982e-05
3.14805e-05
7.8056e-06
9.10968e-06
-1.29838e-05
1.84835e-05
-1.46076e-05
7.7101e-06
2.53216e-05
-5.21403e-05
1.91103e-05
-3.37464e-05
1.20539e-05
1.46916e-05
7.00184e-06
9.23845e-07
-3.0312e-05
2.47252e-05
4.66384e-06
-2.71016e-05
2.49908e-06
9.68218e-06
1.49204e-05
2.34566e-05
-2.03167e-05
6.99383e-06
-1.01346e-05
1.30276e-06
1.18226e-05
-1.2925e-05
-2.00818e-07
1.71638e-05
-2.42838e-06
-2.53362e-06
-1.22016e-05
1.59383e-05
1.83642e-05
-1.59372e-05
-1.83635e-05
2.37497e-06
-7.47246e-07
4.25213e-06
-5.87984e-06
4.61408e-06
-2.77157e-07
-4.33612e-06
3.56547e-08
3.82682e-06
-3.86266e-06
-4.76301e-07
2.97442e-06
-1.28699e-05
1.03707e-05
-2.0383e-05
4.13298e-05
4.37672e-07
-2.13829e-05
4.8241e-06
-2.20927e-05
1.70817e-05
1.85118e-07
-3.01097e-06
-3.99253e-06
1.12211e-06
5.88101e-06
-5.71024e-06
-1.39317e-05
3.6715e-06
1.59713e-05
-3.03071e-06
1.95492e-05
8.45267e-06
-2.49715e-05
4.08926e-06
3.65627e-06
-1.77081e-05
9.96335e-06
-2.72006e-06
2.83779e-05
-3.22789e-05
6.6213e-06
-7.33409e-06
7.52887e-06
-1.94557e-07
1.79981e-05
-2.23148e-05
3.55937e-06
7.56827e-07
1.84081e-05
1.08481e-05
-3.24466e-05
3.19039e-06
-2.65731e-05
-1.50848e-05
7.4838e-06
3.41749e-05
-2.17847e-06
-2.09003e-05
8.9056e-07
2.21876e-05
1.26798e-05
-1.31588e-05
1.00205e-07
3.80122e-07
1.61717e-05
-2.83051e-05
-5.4132e-06
1.75471e-05
-3.42601e-06
2.66753e-07
3.15869e-06
-4.40974e-06
-1.34932e-06
2.9504e-05
-2.37454e-05
-1.51476e-05
9.51914e-06
4.8619e-05
-4.29883e-05
-1.0844e-05
2.21188e-05
-3.23139e-05
2.10394e-05
1.63215e-06
-2.55242e-05
2.04248e-05
3.46705e-06
-3.88147e-06
-9.29421e-06
3.29656e-05
-1.97888e-05
2.31816e-05
-9.8224e-06
-1.02923e-05
-3.06692e-06
-2.82163e-06
-1.22682e-05
1.81162e-05
-3.02552e-06
5.9809e-06
-2.9215e-06
-3.06016e-06
-1.09608e-06
-2.50163e-05
-6.59523e-06
3.2708e-05
-1.47472e-05
2.06288e-05
5.87014e-06
-1.17517e-05
5.81592e-06
-1.43772e-05
2.44905e-05
-1.593e-05
-4.75737e-05
1.13574e-05
-7.97687e-07
3.70134e-05
-2.55358e-06
-4.22059e-05
3.82381e-05
6.5206e-06
5.56975e-08
-3.89961e-06
3.84546e-06
2.0969e-05
-3.25026e-05
6.33577e-07
1.08991e-05
3.53617e-05
4.06748e-06
-3.81661e-05
-1.26447e-06
1.0854e-05
1.2057e-06
-2.56922e-05
1.36329e-05
-9.41682e-06
1.29888e-05
1.48362e-05
-2.62237e-05
-2.18839e-05
1.30239e-05
3.50827e-05
5.67008e-06
3.00658e-06
-4.06052e-06
6.84882e-06
-5.0764e-06
-2.61166e-05
2.43452e-05
4.45323e-06
1.40753e-05
-6.32594e-06
-1.22037e-05
-7.81738e-06
1.69933e-05
3.4491e-05
-4.36671e-05
1.76836e-07
2.39107e-06
-2.56779e-06
-2.23299e-05
3.54037e-06
1.37856e-05
5.00506e-06
3.48914e-05
-1.885e-05
-2.36529e-05
7.61164e-06
3.28284e-05
-8.10813e-06
-3.64483e-06
-2.10756e-05
-2.87033e-05
-1.08811e-06
-7.84305e-07
3.05751e-05
2.55782e-05
1.15341e-05
-3.51707e-05
-1.94128e-06
6.92826e-06
4.83022e-06
-1.17584e-05
1.75999e-06
-2.5089e-05
-1.91767e-07
2.35203e-05
3.95044e-05
-3.03662e-05
-2.86188e-06
-6.27474e-06
4.41423e-06
-6.31031e-07
-3.52909e-06
-2.5574e-07
-3.27999e-05
4.66696e-05
1.97733e-05
-3.36417e-05
1.8209e-05
-2.95662e-05
-2.97763e-06
1.43343e-05
-2.38191e-05
2.5902e-05
-8.75657e-07
-1.20624e-06
-2.99439e-06
1.4797e-06
1.51361e-06
3.47616e-05
-3.85861e-06
9.86478e-06
-4.07656e-05
-2.59946e-05
3.5262e-05
-3.3084e-05
6.63355e-08
2.38131e-06
1.86998e-05
-2.11464e-05
2.64585e-06
-2.55825e-06
-8.83853e-08
-1.10947e-05
-6.24918e-06
1.06057e-06
1.6283e-05
-8.49486e-06
2.11415e-05
-1.61017e-05
3.45368e-06
1.56452e-06
-4.77515e-06
2.9879e-06
2.23243e-07
-1.88313e-06
-1.75653e-06
3.63901e-06
-2.24265e-05
2.24244e-05
2.24874e-05
-2.24864e-05
5.28969e-05
-1.32357e-05
-1.15766e-05
-2.80848e-05
1.3022e-05
5.36133e-07
-4.15086e-07
-1.31425e-05
3.65361e-05
-4.45283e-05
6.15937e-06
1.83382e-06
3.0773e-06
-5.33509e-08
-3.02323e-06
-5.98172e-06
2.8853e-05
-2.7676e-05
4.80385e-06
-1.39968e-05
1.46068e-05
-1.60484e-06
9.94616e-07
-1.04183e-05
9.11248e-06
6.24418e-07
6.81193e-07
2.47314e-06
-1.97297e-05
7.19042e-06
1.00663e-05
-1.14274e-05
-1.07282e-05
2.62022e-05
-4.04637e-06
-1.47525e-05
1.44598e-05
2.60562e-07
3.26086e-08
-3.02683e-05
-3.60031e-05
3.58283e-05
-1.15348e-05
3.6896e-05
1.17982e-05
-3.71594e-05
5.97274e-06
3.04232e-05
7.01742e-06
-4.3414e-05
-1.34052e-05
6.00234e-06
1.80279e-05
-1.06227e-05
-2.03348e-08
7.48692e-08
1.06219e-05
-1.06757e-05
1.35297e-06
3.8499e-05
-5.67465e-06
-3.41751e-05
-3.91139e-06
-2.52115e-06
4.20882e-06
2.22427e-06
4.25327e-06
-4.0171e-06
-2.35387e-07
-3.51849e-06
-1.22409e-05
1.00711e-06
-3.05128e-05
4.65311e-07
-5.99365e-06
3.60413e-05
-1.50035e-05
1.34817e-05
4.22025e-07
1.09753e-06
-4.39935e-07
8.25832e-06
-1.34631e-07
-7.68309e-06
-2.87581e-06
2.80726e-06
6.84464e-08
3.13198e-06
-8.09489e-07
2.10826e-05
-2.34043e-05
2.84418e-05
3.2152e-06
-2.4844e-05
-6.81314e-06
-3.37396e-06
-1.57465e-05
-1.01166e-05
1.37477e-05
-1.51343e-05
1.02176e-06
3.62527e-07
7.74833e-06
-3.20793e-05
3.77924e-05
-1.34609e-05
1.10319e-05
2.26586e-06
-5.76773e-06
-7.52918e-06
-1.66923e-05
-3.85132e-05
9.85141e-06
4.53575e-05
5.41366e-08
2.61581e-06
-2.02567e-07
-2.46777e-06
9.79712e-06
-6.44475e-07
1.53135e-06
-1.06838e-05
-9.94851e-06
2.14686e-07
9.82761e-06
-9.19571e-08
2.24403e-05
3.75247e-06
-2.82036e-05
2.01094e-06
-3.14952e-05
-1.77819e-05
4.02586e-05
9.01931e-06
-7.02387e-06
3.00219e-06
-6.47579e-06
7.15916e-06
3.00744e-05
-3.86912e-05
1.45634e-06
-2.24247e-05
-2.26489e-05
9.07795e-06
3.59969e-05
-2.74631e-06
2.99926e-06
-2.53074e-07
1.77049e-05
1.01526e-05
-2.03493e-06
-2.58211e-05
-7.13214e-07
-4.4169e-06
-2.93922e-05
3.45213e-05
-2.28546e-05
5.80757e-06
5.5654e-05
-3.86069e-05
2.78796e-05
-2.0657e-05
-1.10539e-05
3.83186e-06
2.62836e-06
-1.00247e-07
-2.52817e-06
4.24686e-05
-2.12125e-05
2.96213e-06
-2.42179e-05
9.42419e-06
-1.01545e-05
1.29952e-06
-5.67947e-07
2.42949e-06
2.31581e-06
-4.74547e-06
-1.65639e-05
-2.1167e-05
4.32309e-06
3.34068e-05
-1.13713e-05
2.18255e-07
1.17746e-05
-6.21659e-07
2.09455e-05
-4.29693e-05
5.23272e-07
2.15004e-05
-2.20364e-05
-2.67807e-05
3.57449e-05
1.30704e-05
-1.30816e-05
1.78391e-05
2.80711e-05
5.39727e-06
2.89444e-05
-3.02173e-05
-4.12426e-06
1.87574e-06
1.42175e-06
-1.26261e-05
9.32749e-06
-3.37422e-05
1.47986e-05
1.20958e-05
6.84874e-06
1.33537e-05
3.51015e-06
-1.52217e-06
-1.53408e-05
-3.30114e-06
-2.57157e-05
2.63383e-06
2.63846e-05
6.84438e-06
-2.6138e-06
2.76637e-05
-3.18946e-05
-2.00382e-06
-8.04166e-08
-5.0325e-06
7.11495e-06
6.72572e-07
1.09855e-05
-4.11072e-05
2.94478e-05
-1.46944e-05
-2.99173e-05
-1.04027e-06
4.56487e-05
3.59743e-07
5.04615e-06
-5.40576e-06
8.26297e-08
-1.92874e-07
1.10514e-05
-1.09396e-05
2.74304e-06
1.7273e-05
1.47967e-05
-3.4812e-05
2.70218e-07
-1.45069e-05
1.4424e-07
1.40913e-05
4.35951e-06
-2.12366e-05
-1.62774e-05
3.31566e-05
1.57503e-05
1.96335e-05
-1.71558e-05
-1.82274e-05
3.45343e-05
2.06606e-05
-4.64121e-05
-8.78336e-06
1.31524e-07
-4.37841e-06
4.24771e-06
2.72862e-06
1.33764e-06
-7.39024e-09
-4.05868e-06
1.94706e-06
2.52611e-06
3.19579e-07
-4.79327e-06
2.49852e-06
-2.99118e-06
1.49527e-05
1.80529e-07
-2.83945e-05
1.06193e-05
1.75949e-05
5.89376e-05
6.02564e-06
-1.23741e-05
-5.25899e-05
-8.0549e-06
1.09207e-05
-2.71264e-06
-1.53309e-07
-1.75815e-05
1.66772e-05
-2.83021e-05
2.92072e-05
3.11746e-06
6.04705e-08
-3.1787e-06
1.17434e-06
8.51256e-06
-1.62747e-05
6.58839e-06
3.09501e-06
-4.66731e-06
1.57196e-06
2.917e-05
-1.56234e-05
-7.72992e-06
-1.61994e-05
5.86845e-06
-1.50302e-05
2.53613e-05
3.32797e-05
-3.24361e-05
5.17049e-06
-6.01426e-06
1.42774e-05
4.77729e-06
-1.70911e-05
-1.96261e-06
3.37293e-06
-3.99808e-05
1.38027e-05
2.28067e-05
2.6897e-05
-5.5386e-06
4.54362e-06
5.10055e-05
-5.65253e-05
1.97681e-06
-3.24835e-05
2.52433e-06
3.35062e-05
-3.54537e-06
-3.12816e-05
-2.01387e-05
3.38405e-05
-1.19533e-05
-1.19861e-05
-1.66128e-05
4.05529e-05
-1.35035e-06
4.58745e-06
3.9742e-05
-4.29804e-05
1.47087e-06
2.92654e-05
-5.05652e-05
1.98296e-05
-9.56643e-08
4.92175e-08
1.79676e-05
-1.7922e-05
-4.24008e-05
7.18246e-06
3.13576e-06
3.20817e-05
1.20749e-05
-1.21562e-05
4.13174e-06
-4.04989e-06
7.38457e-07
1.10956e-05
-1.41353e-05
2.30056e-06
-2.3076e-05
3.51636e-05
-4.62853e-06
-7.46084e-06
-3.64121e-05
2.69406e-05
1.69029e-06
7.77982e-06
-2.74907e-05
2.76951e-05
3.61641e-05
-3.63688e-05
3.49956e-05
-2.85862e-05
1.1502e-06
-7.55744e-06
-1.31461e-05
1.69268e-05
-1.01495e-05
6.3685e-06
-7.4694e-06
1.72124e-05
1.447e-06
-1.119e-05
-3.77618e-05
3.10734e-06
4.1239e-05
-6.5839e-06
-4.43715e-06
-2.46266e-05
3.94187e-07
2.86701e-05
2.37733e-06
-8.20321e-06
6.56546e-06
9.42628e-06
7.71073e-07
-9.02905e-06
-1.16854e-06
9.82483e-06
1.84489e-05
-2.14947e-05
-6.77804e-06
-1.06406e-05
1.48763e-05
2.5468e-05
-2.97049e-05
8.777e-07
4.2818e-06
-3.59994e-05
3.08396e-05
1.67822e-05
-2.55039e-05
8.509e-06
2.14387e-07
-4.10744e-05
-6.55874e-06
1.1223e-05
-3.26207e-06
-8.60049e-07
-2.42266e-05
2.83473e-05
-3.22606e-06
4.38911e-08
3.18245e-06
-5.34835e-06
-6.69528e-06
4.38509e-05
-3.18082e-05
5.20734e-06
-4.95742e-06
-2.49916e-07
2.54944e-07
1.98289e-07
-9.50984e-06
9.05705e-06
-2.03578e-05
1.9938e-05
3.49544e-05
5.83473e-06
3.27588e-05
-2.34914e-05
-1.51009e-05
4.44776e-06
-4.51993e-06
7.21815e-08
-4.41025e-06
4.88938e-05
-2.69061e-05
-1.75778e-05
-2.62286e-05
2.79183e-05
1.92554e-05
-2.04589e-06
2.58429e-05
1.09537e-05
-3.47518e-05
-3.55826e-05
-1.31569e-05
4.74305e-05
1.30904e-06
-4.67065e-06
4.23609e-06
4.33805e-07
3.47207e-05
-3.69826e-05
-4.76899e-07
2.73864e-06
-2.28103e-05
-1.44291e-05
2.07186e-05
1.6521e-05
-4.09893e-06
1.9047e-06
-2.33411e-05
2.55343e-05
-2.84395e-05
-7.44369e-06
6.47773e-07
3.52338e-05
-1.79667e-05
-9.01727e-06
-6.76232e-06
1.56631e-05
-3.58584e-05
-3.07913e-06
2.32743e-05
8.44766e-06
-3.51838e-05
-1.06954e-05
3.74322e-05
7.39238e-06
-7.03509e-06
-3.5749e-07
-2.97937e-05
4.99255e-05
-7.05572e-06
-1.30736e-05
-6.40043e-06
-2.6687e-05
3.01201e-05
2.96894e-06
-4.84899e-05
4.97758e-05
-5.66992e-06
4.38416e-06
-2.81457e-05
-6.93576e-06
2.02674e-05
1.48129e-05
-2.62841e-05
-5.6503e-06
3.20753e-05
-1.3854e-07
-3.49086e-07
9.17797e-08
-1.24742e-05
1.27324e-05
3.40703e-06
1.70639e-07
-3.57776e-06
-6.2131e-06
6.27517e-06
-6.30445e-08
4.3468e-05
-3.74574e-05
-5.07712e-05
4.47605e-05
2.8955e-06
1.19251e-07
-3.01421e-06
-2.86594e-05
2.8202e-05
-3.55675e-07
8.13002e-07
-1.04654e-05
8.85562e-06
2.16051e-07
1.39311e-06
5.22054e-06
5.17615e-05
-2.80134e-05
-2.89678e-05
-2.97351e-05
-9.14382e-06
3.58997e-06
3.52845e-05
3.36301e-05
1.53444e-05
-1.52514e-05
-3.37245e-05
1.27702e-05
-4.75387e-06
1.56824e-06
-9.58654e-06
3.63225e-05
-3.51777e-06
-2.6234e-05
-6.57273e-06
-3.93212e-06
5.84496e-06
-6.49312e-06
4.58062e-06
-2.57152e-06
8.46864e-06
3.11246e-06
-9.00946e-06
-1.48177e-05
-7.67147e-06
4.16784e-05
-1.9187e-05
6.2251e-06
2.43744e-05
-2.38119e-05
-6.7871e-06
-2.25503e-05
2.32376e-05
1.49977e-05
-1.56849e-05
2.29579e-05
-2.07692e-05
-2.76876e-06
5.80158e-07
-5.58536e-08
-1.09462e-05
-4.60509e-08
1.10489e-05
-7.02126e-06
1.32543e-05
-1.46432e-06
-4.7699e-06
-3.2421e-05
-1.11448e-05
1.60007e-05
2.75639e-05
2.51037e-05
-2.1134e-05
-4.2948e-06
3.27056e-07
9.90601e-06
-3.35558e-05
-3.87936e-05
6.24451e-05
2.17163e-05
-2.82833e-05
-1.37226e-05
2.0291e-05
-6.24303e-06
-5.56325e-05
1.4856e-05
4.70178e-05
1.76983e-05
-1.57127e-05
2.45593e-06
-4.44146e-06
3.0431e-05
-1.07801e-05
-3.65525e-05
1.68999e-05
1.33126e-05
2.29977e-05
-5.26564e-05
1.63451e-05
-7.82468e-06
3.1788e-05
-2.80845e-05
4.12098e-06
-2.97503e-05
3.42348e-05
3.46333e-05
-3.91175e-05
-9.26051e-08
-1.38283e-05
1.2051e-05
1.86816e-06
4.07561e-06
-3.82912e-06
-2.4563e-07
3.83711e-05
-4.75938e-05
1.39823e-06
-4.04659e-06
5.42714e-06
2.86365e-06
-4.24479e-06
-2.92019e-06
1.36736e-07
-1.43039e-06
4.21572e-06
1.9021e-05
-2.48585e-06
1.79543e-05
-2.73966e-05
1.10247e-06
8.33894e-06
-9.17883e-06
-2.29567e-06
8.65317e-06
2.63033e-05
-3.43389e-05
1.94769e-05
-1.14402e-05
-2.85664e-05
-4.07993e-06
3.43305e-05
-1.68404e-06
-5.94709e-05
-9.03854e-06
5.27256e-05
1.57814e-05
-4.30289e-05
1.19071e-05
9.71017e-07
3.01518e-05
-4.07996e-06
3.23118e-07
8.50937e-07
2.90563e-06
-2.68858e-05
-3.24677e-05
2.4605e-05
3.47498e-05
2.02463e-05
1.76197e-05
-3.04393e-05
-7.42582e-06
1.34042e-07
1.41335e-05
-1.19804e-05
-2.28742e-06
-4.50154e-07
-2.01796e-05
3.9813e-05
-1.91863e-05
4.13669e-05
-2.9487e-05
-1.57596e-05
2.80733e-05
-3.15526e-05
6.26804e-06
-2.7894e-06
-3.99218e-06
-2.57486e-05
2.79986e-05
1.74339e-06
4.09528e-05
-2.85918e-06
-4.20838e-05
2.32769e-05
-2.60986e-05
6.45482e-06
-3.63288e-06
1.75982e-06
-1.1732e-05
-9.61663e-07
1.09339e-05
-2.50051e-06
2.40743e-06
-2.87843e-06
2.97138e-06
-1.78172e-06
4.41589e-06
1.45148e-06
-4.08644e-06
-7.074e-06
-1.88162e-05
-1.4637e-06
2.7354e-05
1.09299e-05
8.75676e-06
-2.97786e-05
1.0092e-05
-1.87057e-05
5.97688e-07
6.69757e-06
1.14105e-05
-1.66212e-06
-1.77574e-05
1.72416e-05
-2.26397e-05
2.68329e-05
8.50722e-06
-1.27013e-05
-3.3148e-05
3.8598e-05
-1.24101e-05
6.96055e-06
-6.10845e-06
-1.98466e-05
2.07552e-06
2.38794e-05
1.49773e-06
3.47734e-05
-4.081e-05
4.53657e-06
1.73214e-05
-5.4506e-05
1.15935e-05
2.55921e-05
4.97163e-06
-3.835e-05
2.09474e-05
1.24305e-05
1.61943e-06
2.11025e-05
-7.26845e-06
-1.54534e-05
-3.86578e-06
1.86881e-06
3.78909e-06
-1.79226e-06
-3.96777e-06
7.89653e-06
-2.92746e-05
2.53459e-05
-1.5316e-06
-1.08289e-05
2.82088e-07
1.20776e-05
1.67581e-07
1.11202e-05
-1.73435e-07
-1.11158e-05
1.74113e-07
2.44556e-07
1.13476e-05
-1.17647e-05
-9.5287e-06
-1.61476e-05
2.8743e-05
-3.06631e-06
3.22921e-06
-3.22021e-05
1.73724e-05
1.16011e-05
3.36052e-05
8.37622e-07
2.69126e-06
-3.71333e-05
2.62228e-06
-2.68471e-06
6.30276e-08
1.05988e-05
2.13736e-05
-2.7002e-05
-1.09217e-05
4.14098e-08
1.32357e-07
1.0748e-05
2.22255e-06
-2.83146e-05
1.02825e-05
1.58098e-05
8.58529e-07
7.17539e-06
-7.26178e-06
-7.72517e-07
-5.53474e-06
-1.17147e-05
2.24842e-05
-5.23605e-06
2.7689e-05
-3.0664e-05
2.6401e-05
-2.34269e-05
1.91087e-05
-8.7765e-06
-3.26574e-05
2.23251e-05
-1.88859e-06
-1.79404e-06
3.6821e-06
1.14641e-05
2.42113e-06
-3.30648e-06
-1.05779e-05
-2.45595e-05
3.67765e-05
2.80289e-06
2.36699e-06
-5.16973e-06
2.37762e-06
-3.10725e-05
-3.68989e-07
2.90642e-05
-1.58236e-07
5.48869e-07
2.09824e-05
-1.37896e-06
2.21974e-05
-4.43282e-05
2.35082e-05
-7.0661e-06
-2.01928e-05
-2.84364e-06
3.01009e-05
5.61975e-06
-9.13502e-06
9.46771e-06
-5.95235e-06
-7.25098e-06
-3.57524e-05
-4.50268e-06
4.75071e-05
1.97361e-05
3.73963e-06
-2.274e-05
-7.35803e-07
6.94295e-06
3.26611e-05
-5.39753e-05
1.43705e-05
-2.43645e-06
-1.42227e-05
-8.31633e-06
2.49755e-05
-1.85351e-05
-5.93427e-06
9.79708e-06
1.46713e-05
-1.07563e-06
-1.15676e-06
-1.26634e-05
1.48943e-05
4.13392e-05
-1.71239e-05
-9.9444e-06
-1.42697e-05
-2.55558e-05
6.19327e-05
-3.38579e-05
-2.51503e-06
1.09522e-05
2.87572e-07
2.92423e-07
-1.15351e-05
2.9474e-05
-3.53518e-05
3.51244e-05
-2.92465e-05
-5.20937e-06
1.63461e-05
-1.32008e-05
2.06319e-06
1.54408e-05
-5.59972e-05
2.09886e-06
3.84579e-05
1.0265e-05
4.97102e-05
-4.2454e-05
-1.75225e-05
6.20125e-06
-6.04667e-06
-1.00139e-05
9.8615e-06
-2.23342e-05
-1.37741e-05
3.98595e-05
-3.75222e-06
3.54555e-05
-2.89635e-05
-4.1963e-05
3.54678e-05
1.82198e-05
1.49325e-05
-9.4894e-06
-2.36623e-05
1.1757e-07
-1.56394e-05
8.46622e-08
3.7946e-06
-3.87835e-06
-3.30561e-06
3.19459e-06
1.11036e-07
2.60216e-05
-2.44668e-05
-2.23197e-05
2.07658e-05
-7.55987e-06
9.70198e-06
-2.75115e-05
2.53674e-05
4.11561e-05
-3.20811e-05
-6.70211e-06
-2.37003e-06
-4.61166e-06
1.14493e-06
2.98983e-06
-8.8749e-06
3.13739e-05
-8.45263e-06
-1.40463e-05
-4.12954e-05
1.03647e-06
1.43043e-05
2.59572e-05
1.57092e-05
-6.84899e-06
-1.5265e-05
6.40345e-06
8.89669e-06
3.86501e-05
-3.64744e-05
-1.10729e-05
-2.31025e-05
-4.53499e-06
4.38851e-05
-1.62495e-05
2.20335e-06
2.49626e-05
5.59731e-06
-3.27629e-05
8.41659e-06
2.71819e-05
-3.33954e-05
1.85334e-05
-1.36569e-05
-7.19585e-06
2.31928e-06
2.39672e-05
-3.05317e-05
1.3507e-05
-1.28395e-05
8.16238e-06
7.65563e-06
-2.97827e-06
1.00437e-05
1.15981e-05
2.32133e-05
-4.48573e-05
4.31603e-06
-2.68047e-05
-4.17152e-06
2.6661e-05
3.2929e-07
2.79556e-05
2.5196e-06
-3.08046e-05
1.34214e-05
2.51626e-05
-4.20298e-05
3.44628e-06
-5.66086e-05
4.70862e-05
-7.20544e-07
2.70895e-07
3.89702e-05
-3.01267e-06
-3.62298e-05
-3.22344e-06
7.24348e-06
-9.91164e-06
5.89249e-06
-7.92326e-07
-3.45626e-06
2.28849e-07
4.01976e-06
-3.31541e-06
3.19517e-06
1.19899e-07
-4.86857e-06
-8.32233e-06
3.8054e-05
-2.48627e-05
-3.2209e-05
4.82355e-06
-1.4215e-05
4.16005e-05
4.39036e-05
-1.0559e-05
-1.43124e-05
-1.90339e-05
3.36758e-06
-3.16117e-05
1.14852e-05
1.67598e-05
3.35348e-06
-3.0302e-06
-1.17577e-06
8.51802e-07
-3.87398e-06
3.73319e-06
1.40476e-07
1.87623e-06
2.66701e-05
-4.73968e-06
-2.38048e-05
-5.56586e-06
2.6922e-05
-3.49179e-05
1.35613e-05
1.24135e-05
2.08642e-05
-4.83974e-05
1.51203e-05
-1.93004e-06
2.59108e-05
1.92063e-05
-4.31863e-05
-4.11519e-05
2.21916e-05
2.38402e-05
-4.87941e-06
4.10754e-05
-4.21415e-05
8.4797e-06
-7.41311e-06
-3.13442e-05
-5.27451e-07
-9.27859e-06
2.32876e-07
5.16422e-06
-5.39724e-06
2.95445e-05
3.93627e-06
-2.44443e-05
-9.03755e-06
-1.84079e-06
-2.62663e-06
1.25013e-05
-8.03441e-06
3.0378e-06
5.32229e-07
9.9712e-06
-1.35412e-05
-3.42935e-05
1.54151e-05
1.65362e-05
2.34166e-06
1.32845e-05
-2.10842e-05
-3.02831e-06
1.08281e-05
-2.49173e-05
5.61214e-06
4.08539e-05
-2.15498e-05
-3.03282e-06
-1.88401e-07
3.22114e-06
-1.54406e-05
3.92249e-05
2.81158e-05
-5.18983e-05
3.52005e-05
9.65528e-07
-5.57284e-05
1.9562e-05
-2.36408e-06
3.59612e-05
-3.10196e-06
-3.04941e-05
1.81896e-05
-1.4109e-05
1.09469e-05
-1.50277e-05
-1.31069e-06
-2.46663e-05
2.76323e-05
-1.65201e-06
-2.26748e-05
-3.47152e-06
-1.51346e-05
4.12813e-05
-7.85535e-06
-8.41306e-06
-1.45385e-05
3.08091e-05
-1.30095e-06
3.75664e-05
-4.1905e-06
-3.20739e-05
2.2876e-05
-2.28268e-05
7.81879e-07
-8.308e-07
3.85782e-05
1.0238e-07
-2.66794e-05
-1.20004e-05
-8.56797e-06
-4.46686e-06
-2.46315e-05
3.76658e-05
-2.91277e-07
-3.05279e-06
3.34434e-06
-3.34666e-05
4.96477e-05
-3.70262e-06
-1.2476e-05
2.75114e-06
1.87553e-05
6.01732e-06
-2.75242e-05
-4.26781e-06
9.88184e-06
3.45641e-06
-9.07145e-06
-1.55567e-05
-3.84506e-06
1.61167e-05
3.28609e-06
2.16764e-05
1.49584e-05
-5.40396e-05
1.74049e-05
1.22117e-05
-9.53996e-06
3.03838e-05
-3.30551e-05
-2.37268e-06
1.93695e-05
1.58393e-06
-1.8581e-05
2.95224e-06
-2.90745e-06
-4.53645e-08
2.69754e-06
3.32648e-05
1.41147e-06
-3.73731e-05
2.82456e-05
-4.4185e-06
-2.72031e-05
3.37871e-06
-5.49785e-06
6.67672e-06
-3.14092e-05
3.02308e-05
-2.8287e-05
-4.40251e-06
2.19002e-05
1.07893e-05
1.04568e-05
-9.90433e-06
-8.72331e-08
-4.64939e-07
-4.23987e-05
2.76888e-05
-1.63364e-06
1.63427e-05
-4.80086e-06
4.0393e-06
7.61613e-07
1.39159e-05
-1.18672e-05
1.8532e-05
-2.0581e-05
1.95605e-05
1.64089e-05
-8.5532e-06
1.4808e-05
-3.98566e-05
-1.82565e-05
4.33052e-05
1.44848e-07
-1.5169e-05
1.52228e-05
-1.99206e-07
8.64955e-06
-1.40147e-05
-1.61912e-05
2.15566e-05
1.38339e-05
6.03455e-06
-2.35872e-06
-1.75097e-05
-4.15072e-06
9.73274e-07
5.27696e-06
-2.1003e-06
-4.91388e-06
5.97407e-05
-2.03135e-05
-3.45138e-05
1.60659e-05
1.82701e-05
-9.84495e-07
-3.33523e-05
1.38124e-07
2.9414e-06
-3.07856e-06
-8.47463e-07
5.39846e-06
3.31718e-05
-3.77246e-05
4.37773e-05
5.67133e-06
-2.14731e-05
-2.79737e-05
-1.06507e-06
5.49556e-06
-4.32936e-06
-1.01038e-07
1.32804e-05
-1.20071e-06
-1.44708e-05
2.39334e-06
-4.01907e-06
-1.27069e-05
6.53606e-06
1.01897e-05
-6.27527e-06
2.82949e-05
4.47727e-06
-2.64972e-05
3.19369e-05
-4.28514e-06
-3.46907e-05
7.039e-06
-2.97416e-06
5.75818e-06
-2.78399e-06
2.4803e-06
-1.08878e-05
9.72378e-06
-1.31608e-06
6.66524e-07
1.04667e-05
-1.10272e-05
-1.05322e-07
1.06649e-05
1.24874e-05
-1.45114e-06
-2.1701e-05
2.22518e-05
3.05773e-05
-2.08929e-05
-1.31779e-07
3.88989e-06
-3.75843e-06
-4.08776e-05
2.0047e-05
3.82986e-05
-1.74669e-05
3.99232e-05
7.00929e-06
-4.20416e-05
-4.89196e-06
2.92815e-05
-1.96725e-05
-3.22853e-05
8.34095e-06
1.43276e-05
-3.54829e-05
-1.99719e-06
-7.68572e-06
4.51667e-05
-9.15636e-08
3.80689e-06
-3.71537e-06
3.93844e-05
-1.49143e-06
-4.64527e-06
-3.32495e-05
4.01402e-06
-4.00898e-06
-4.34679e-09
-1.22474e-05
3.02543e-06
-7.42256e-06
1.66444e-05
-2.16881e-05
-1.8517e-05
1.64823e-05
2.37223e-05
2.02768e-05
-1.54709e-05
-4.29501e-06
-5.11532e-07
-4.54597e-08
3.05478e-06
-3.00981e-06
-6.89686e-07
-3.99196e-06
1.63251e-08
4.66608e-06
7.51134e-06
3.00867e-06
-5.319e-06
-5.20169e-06
-1.1693e-05
1.2673e-05
-1.66862e-06
-3.2025e-07
4.23938e-05
-1.15825e-06
-4.09149e-05
-7.27087e-06
-7.19179e-07
9.53993e-06
-1.54903e-06
3.49897e-06
-1.3794e-05
1.08373e-05
-5.42572e-07
1.07873e-05
-2.01859e-05
1.44441e-05
-5.04558e-06
9.01825e-06
2.09931e-05
3.55529e-06
-3.35677e-05
5.49817e-06
-5.64482e-06
1.4678e-07
1.56113e-05
-1.26939e-05
-3.18969e-05
2.89764e-05
1.10788e-06
1.18468e-06
1.59521e-05
-1.82447e-05
4.46591e-06
1.92382e-05
-2.47416e-05
1.03458e-06
1.15907e-05
-5.33296e-07
-1.81688e-06
-9.24158e-06
1.10499e-05
2.31145e-05
-3.39109e-05
-2.52165e-07
1.40343e-05
-1.03938e-07
-1.19603e-06
-1.27351e-05
-2.57336e-05
9.34603e-06
1.28281e-06
1.51041e-05
-1.26587e-05
-1.20028e-05
-1.68035e-06
9.79583e-06
-1.72338e-05
1.29969e-05
-5.5605e-06
-4.50161e-06
-1.87118e-05
-2.80478e-05
5.12603e-05
-6.09838e-06
7.54027e-06
-1.73792e-06
2.9613e-07
4.12267e-08
2.54151e-06
-2.58273e-06
-7.90603e-06
4.0652e-05
1.20562e-05
-4.48011e-05
3.19249e-05
1.34217e-05
-1.17936e-05
-3.35512e-05
2.76575e-05
-2.31016e-05
2.64957e-05
-3.10512e-05
3.49202e-05
-3.84515e-05
4.27403e-06
-7.44305e-07
-5.92675e-05
2.59005e-05
1.12756e-05
2.20939e-05
-1.16559e-05
-1.45703e-06
1.28494e-05
2.63582e-07
3.51393e-05
-4.68017e-05
1.64153e-05
-4.75111e-06
1.05721e-05
-1.1584e-05
3.68367e-06
-2.67442e-06
-1.77884e-05
1.62086e-05
-1.10787e-05
-1.41651e-05
4.82239e-05
5.28814e-06
-3.93477e-05
-5.37869e-06
1.42213e-07
5.23619e-06
-4.77277e-06
1.08496e-05
-4.01246e-05
-1.98231e-05
-3.32255e-07
1.94647e-07
1.99613e-05
4.55846e-06
1.25105e-07
-4.68332e-06
8.5353e-06
-5.48348e-07
-3.03641e-05
2.23782e-05
-5.96324e-08
-2.02023e-07
1.05931e-05
-1.03325e-05
8.33144e-06
1.82072e-05
-3.03525e-05
3.81273e-06
2.82608e-05
1.93212e-06
1.83913e-06
-3.20305e-05
-2.63113e-06
6.52357e-06
3.89965e-05
-4.28872e-05
-8.76119e-06
-1.06386e-06
-3.67364e-07
1.01926e-05
-9.66558e-06
8.32456e-06
-3.34646e-05
3.48032e-05
-1.35973e-06
2.48239e-05
-2.17009e-05
-1.76231e-06
4.03076e-05
1.24073e-05
-1.835e-05
-3.43645e-05
8.7865e-06
-4.74901e-05
3.0886e-05
-4.03325e-05
5.15167e-05
-2.28774e-06
2.23672e-05
-8.84217e-06
1.83999e-05
-1.34466e-05
-3.29985e-06
6.49813e-06
1.02478e-05
-7.0906e-06
7.35457e-07
6.45818e-06
-1.04666e-07
-1.27148e-05
3.23049e-05
-2.27055e-05
3.11509e-06
-3.39742e-05
3.04869e-05
3.24879e-05
-2.89999e-05
-3.26799e-06
3.01045e-06
1.80731e-07
7.76787e-08
3.46016e-05
-5.03808e-05
-1.88144e-05
3.45952e-05
-4.70882e-05
-1.89454e-05
3.14472e-05
3.45843e-05
4.28385e-05
4.44304e-06
1.99864e-06
-4.92806e-05
3.66318e-05
-2.47137e-05
3.092e-05
-3.80146e-05
-3.69942e-06
1.47495e-05
2.69635e-05
3.20435e-06
2.71941e-07
-3.47644e-06
4.01938e-05
-3.71062e-05
-1.26152e-05
9.52822e-06
-2.03788e-05
-7.18169e-06
5.93083e-06
2.16305e-05
1.56716e-05
2.7425e-05
-1.58094e-05
-2.72864e-05
6.89628e-06
2.17064e-05
-2.11205e-05
-7.48194e-06
4.57021e-07
-6.34613e-06
5.88901e-06
-1.87997e-05
-1.67815e-05
1.62675e-05
1.93135e-05
1.55947e-06
2.01292e-05
-4.65228e-06
-1.70373e-05
-3.43119e-05
3.43835e-05
-6.47083e-06
-3.00675e-06
4.10738e-05
-4.00734e-05
2.00688e-06
2.05785e-05
4.21601e-06
1.11672e-05
-3.59607e-05
-5.30041e-08
-2.21156e-06
2.26489e-06
-3.21405e-06
3.20075e-06
1.34799e-08
-2.70526e-05
-1.27414e-05
1.53847e-05
2.44073e-05
-3.3956e-05
-6.7469e-07
4.1039e-05
-6.4121e-06
-1.04191e-05
3.83522e-05
-3.95872e-05
1.16537e-05
-2.65035e-05
2.17094e-05
-9.77098e-06
1.45649e-05
3.61655e-07
2.06905e-05
-2.31593e-05
2.10713e-06
-3.6337e-05
8.03401e-06
2.38244e-05
4.47783e-06
2.44918e-06
4.9437e-05
-1.85835e-05
-3.33027e-05
2.18429e-06
-4.0731e-06
-2.45851e-05
-1.28679e-05
1.04e-05
2.04942e-05
-1.29666e-06
3.38027e-06
-2.25779e-05
-1.96435e-06
-4.54703e-06
5.73392e-06
7.76644e-07
1.34972e-05
-4.09917e-06
-9.59718e-06
1.99671e-07
1.29851e-05
-4.40311e-05
4.2141e-05
-1.10971e-05
-1.67859e-05
2.96258e-05
4.36147e-06
-1.71999e-05
-3.53074e-06
4.27861e-06
2.79502e-05
-2.86979e-05
-3.75485e-05
2.79636e-06
3.78397e-07
3.43756e-05
-2.095e-05
2.45777e-06
1.68911e-05
1.6024e-06
-2.74863e-05
1.70078e-05
3.90343e-05
-2.85562e-05
-1.41774e-05
-2.62606e-05
7.12403e-06
3.33146e-05
5.54642e-06
-4.3066e-05
-5.3495e-06
4.28708e-05
-3.30345e-05
4.32135e-06
-1.29648e-06
3.00103e-05
-3.50991e-05
-2.57665e-06
-2.27309e-06
3.99494e-05
7.42549e-06
-4.13637e-06
3.78274e-05
-4.11186e-05
6.95009e-06
-3.96047e-06
-9.43586e-09
-2.98072e-06
4.95987e-06
-5.12657e-05
-7.9528e-06
5.42584e-05
-3.99179e-06
2.52932e-06
2.04633e-06
-5.84885e-07
-2.87881e-05
-7.55582e-06
1.58099e-05
2.05341e-05
-1.41165e-06
1.38202e-05
2.60485e-06
-1.50134e-05
-1.31014e-05
-1.42002e-05
9.31371e-06
-6.11945e-06
2.45385e-06
3.16138e-05
-2.79488e-05
2.47839e-05
-3.4008e-05