/*--------------------------------*- C++ -*----------------------------------*\
| =========                 |                                                 |
| \\      /  F ield         | OpenFOAM: The Open Source CFD Toolbox           |
|  \\    /   O peration     | Version:  2406                                  |
|   \\  /    A nd           | Website:  www.openfoam.com                      |
|    \\/     M anipulation  |                                                 |
\*---------------------------------------------------------------------------*/
FoamFile
{
    version     2.0;
    format      ascii;
    arch        "LSB;label=32;scalar=64";
    class       volVectorField;
    location    "48";
    object      U;
}
// * * * * * * * * * * * * * * * * * * * * * * * * * * * * * * * * * * * * * //

dimensions      [0 1 -1 0 0 0 0];

internalField   nonuniform List<vector> 
59516
(
(0.103939 -0.000715877 -0.000497178)
(0.0961698 -0.000119075 -0.000393092)
(0.111716 -0.000782341 -0.000396055)
(0.128264 0.00139032 0.0019367)
(0.113713 0.000207248 -0.00456148)
(0.101091 -0.00483166 -0.0107985)
(0.127526 -0.00147102 -0.00200479)
(0.100804 0.000685127 -9.55565e-05)
(0.111182 0.000966476 -5.78531e-05)
(0.0529779 -0.00101118 0.00209448)
(0.153969 -0.000288959 -0.00235402)
(0.0599908 0.000256652 -0.00367885)
(0.117842 0.00114195 -3.5419e-05)
(0.0192765 -0.000105115 -0.000189966)
(0.0591061 0.00143251 0.00320873)
(0.0507421 0.00351497 -0.00162264)
(0.169049 -0.00188725 -0.000955103)
(0.0700543 0.00399895 -0.00435944)
(0.11444 0.00598776 0.000687334)
(0.165404 -0.000958761 0.000120841)
(0.053878 0.000895748 -0.00124444)
(0.148564 -0.000794112 0.000258872)
(0.154584 -0.000662631 -0.00204871)
(0.0326313 -0.000988546 -0.000256274)
(0.160761 -0.000482442 0.000637407)
(0.0642128 0.00140931 0.000642549)
(0.0406243 0.000821393 -0.00277748)
(0.0442958 0.00377189 0.000212028)
(0.0654454 0.00269493 -0.000540583)
(0.0168682 -0.0026311 0.000662991)
(0.108353 -0.0210419 -0.00463981)
(0.0455759 0.00364675 -0.000563068)
(0.132432 0.000215338 0.000815083)
(0.111157 -0.000898183 0.00219165)
(0.139391 0.00527179 0.00389152)
(0.145986 0.000204314 -0.000355591)
(0.0162938 -0.00159025 -0.00226242)
(0.0699505 0.00267632 -0.00675312)
(0.0951729 -0.00377697 -0.000343082)
(0.159303 -0.000405096 -0.000700441)
(0.099785 -0.000629959 0.000158577)
(0.144017 -0.00849263 -0.00786084)
(0.148396 -0.00388795 -0.00316304)
(0.105797 -0.000687873 0.000361216)
(0.14272 -0.00503168 -0.000302541)
(0.053749 -0.000747897 -0.00124894)
(0.132387 -0.00286473 -0.00429339)
(0.163234 -0.0048734 -0.000893042)
(0.111886 -0.00901719 0.0124058)
(0.150993 0.00669396 0.00533724)
(0.104054 0.0104759 -0.0145239)
(0.0426302 -0.00361419 0.00246924)
(0.118769 0.000945527 -0.00231599)
(0.126234 -0.000573721 0.000106382)
(0.0473407 0.00297835 6.86841e-06)
(0.129651 0.00284541 -0.000823842)
(0.144905 0.00827041 0.00856173)
(0.0454825 0.00388212 -0.00271785)
(0.173785 0.000366588 -0.000137322)
(0.135184 0.00637046 0.00806974)
(0.149265 -0.000419144 0.000246433)
(0.0184427 0.00229257 -0.000798028)
(0.167061 0.000629491 0.000429873)
(0.166134 0.00253593 0.00185986)
(0.121125 0.000220133 -0.000651436)
(0.147484 0.00370761 0.00530743)
(0.024997 -0.00169419 0.00229057)
(0.0398098 0.000248154 -0.000210413)
(0.121516 -0.00506394 0.0222485)
(0.135714 0.00125203 -0.00311236)
(0.03562 0.000992406 0.000294611)
(0.163342 0.00202791 3.8674e-06)
(0.0222899 0.00139551 -0.00339804)
(0.142703 0.00116449 0.000634513)
(0.180924 8.12945e-05 -0.000341631)
(0.158025 -0.00232873 -0.00284712)
(0.163985 -0.00249724 -0.0036454)
(0.148429 -0.000175478 6.9763e-05)
(0.044418 -0.00148935 0.00138931)
(0.151615 0.00307259 0.00779862)
(0.0369733 0.00224542 0.00106105)
(0.146781 0.00408293 0.00612131)
(0.139663 0.00186743 0.0058913)
(0.0192921 -0.000733694 0.00269477)
(0.146619 0.00325249 0.00644589)
(0.1756 -0.000504078 0.000579489)
(0.0315296 -0.00114265 0.000496276)
(0.149899 -4.56855e-05 0.000145348)
(0.0531144 0.000687788 0.00216608)
(0.107142 0.00844438 -0.00580049)
(0.131542 -0.000879548 -0.0114928)
(0.139059 0.00166873 -0.000310822)
(0.173149 0.000179434 -0.000151408)
(0.137195 0.00121505 -0.00032816)
(0.161568 0.00037341 1.34808e-06)
(0.109939 -0.0105581 0.00394838)
(0.14006 -0.000372311 0.000557411)
(0.0519318 -0.00183269 -0.0040936)
(0.0644571 0.00241402 -0.00102755)
(0.148204 -0.000883681 0.00163075)
(0.0364669 0.000583345 0.00137599)
(0.0236064 0.00120746 -0.00268285)
(0.0223106 0.000791804 0.00307591)
(0.052752 -0.000809637 -0.0028463)
(0.13489 0.000710197 -0.000216951)
(0.147302 -0.000342229 -0.000103907)
(0.038454 0.00337177 -0.00138166)
(0.10384 0.000343999 -0.000770436)
(0.0998565 -0.000689243 0.000158244)
(0.0643582 0.000404698 -0.00260539)
(0.124948 0.0129146 -0.0135597)
(0.0297124 0.00301047 -0.000447097)
(0.0651776 0.000821178 -0.00403815)
(0.11804 0.0174125 -0.00874334)
(0.16011 5.25062e-05 -5.32851e-05)
(0.0992676 0.0010809 0.00109314)
(0.0527495 0.000572504 -0.00199484)
(0.132895 -8.07507e-05 0.000774374)
(0.0212043 -0.000300554 0.00102332)
(0.146915 0.00123813 0.000337138)
(0.183574 -0.000346996 0.000349174)
(0.168544 -0.000369406 0.00058253)
(0.158474 -0.000309233 0.000861242)
(0.167161 -0.000555162 0.000569016)
(0.132372 -0.0178137 0.00274583)
(0.0899226 0.00127504 -0.00298847)
(0.028766 -0.0005242 0.00188368)
(0.138317 -0.0137063 -0.00111567)
(0.0898371 -0.00275833 0.0131405)
(0.179172 0.000494681 -3.88673e-05)
(0.181763 0.000265557 0.0001574)
(0.111754 0.00167291 0.00192059)
(0.0225469 0.00132672 -0.00154862)
(0.14812 -0.000112524 0.0006338)
(0.100674 0.00123806 0.000272023)
(0.115043 -0.000668157 -0.00204405)
(0.107493 0.0128072 -0.00896711)
(0.129366 -0.000396633 0.00036906)
(0.03828 0.00263823 0.000117672)
(0.0977909 0.0004359 -0.00123367)
(0.0424693 -0.00085049 -0.00215659)
(0.18299 -0.000536517 0.000373501)
(0.0180453 0.000781381 0.00157669)
(0.124923 -0.00108665 -0.000491355)
(0.175901 0.000556047 0.000758139)
(0.141726 0.00178439 0.000259831)
(0.14039 -0.00526607 -0.00191855)
(0.117634 0.00161434 -0.00283784)
(0.062128 -0.00100518 0.00173124)
(0.106106 -0.000708134 -0.000849813)
(0.10268 -0.000196544 -0.00082723)
(0.0337293 -0.00128361 2.53363e-05)
(0.166975 -0.0009364 0.00111399)
(0.154265 -0.000328459 0.000359547)
(0.0884462 -0.000276896 0.00209625)
(0.0180115 -0.000347521 0.00194519)
(0.112503 -0.000258789 -0.00019288)
(0.113203 0.00137712 -0.000184351)
(0.0817368 0.00121883 0.000195721)
(0.0184711 0.00221305 -0.00241546)
(0.0631229 0.00152491 -0.00325397)
(0.065023 -0.00353968 -0.00224355)
(0.0335507 -0.00138236 0.000329013)
(0.0241267 -0.000206491 -0.000472418)
(0.0986643 0.00182651 0.00236929)
(0.17308 5.54228e-05 0.0011069)
(0.0597398 -0.00073303 0.000356054)
(0.177705 0.000835131 2.51517e-05)
(0.0189742 -0.00117653 0.00218647)
(0.136373 -0.000577838 -4.15645e-05)
(0.0827617 0.00133874 0.00114665)
(0.050299 0.000745944 -0.000772283)
(0.0620343 0.00158931 0.000794227)
(0.13649 -0.000411375 0.000543533)
(0.0482539 -0.000749172 0.000242314)
(0.134956 -0.0015801 -0.00531716)
(0.16971 -0.000365765 -0.000977423)
(0.149491 -0.00562365 -0.0034703)
(0.0651383 -0.0008055 0.00304052)
(0.0392165 -0.000126005 -0.000530777)
(0.145985 0.00217213 0.000672291)
(0.0319993 -0.0028178 -0.00128219)
(0.0275154 -0.000330805 -0.00216294)
(0.0623181 -0.00158125 0.000178683)
(0.178082 0.000116323 0.000576141)
(0.057032 0.000304438 0.000694101)
(0.0338323 -0.000563116 -0.00263834)
(0.0219046 2.08383e-05 0.000292847)
(0.121048 0.000137234 -8.26428e-05)
(0.0988518 -0.00175496 -0.000165602)
(0.135277 -0.000576823 0.00278879)
(0.0498911 0.00303943 -3.23387e-06)
(0.163876 -0.000740072 -0.00012069)
(0.0547887 0.00205486 5.91797e-05)
(0.154677 -5.02299e-05 -0.000293079)
(0.0282292 -0.000254508 0.000780352)
(0.0548412 0.000747339 -0.000101541)
(0.0388778 -0.00107129 0.000273343)
(0.108508 0.00285092 0.0036257)
(0.154111 0.000684504 -0.000486623)
(0.0791321 -0.00274131 0.000321324)
(0.182979 -0.000628249 0.00044105)
(0.101252 -0.000783786 0.000836262)
(0.0185833 0.0020133 -0.00135999)
(0.127077 -0.00111665 -0.000484527)
(0.145186 0.000288567 0.000253073)
(0.180772 0.000339791 9.05436e-05)
(0.153859 -0.00141481 -0.00046169)
(0.0219282 -0.000690055 0.000206685)
(0.112828 -0.00201612 -5.03289e-05)
(0.048545 0.00341846 0.00302769)
(0.023626 -0.0038876 -0.000637392)
(0.143553 0.00024461 -0.00142843)
(0.0536783 -0.00114719 0.000742991)
(0.114874 0.00143978 0.000127054)
(0.170625 -5.98718e-05 -0.000277144)
(0.139803 0.0011944 0.000355728)
(0.157283 -0.00141488 0.000446322)
(0.0521693 0.00211508 -0.00276582)
(0.156788 -0.000205933 0.000806962)
(0.0531208 0.002051 0.00185406)
(0.103516 0.000341946 2.17895e-05)
(0.164604 0.000685486 0.000921926)
(0.0376139 -0.000178932 0.000647646)
(0.168964 -0.000171789 -0.000200604)
(0.171086 -0.000409824 -0.000665704)
(0.0269618 -0.000300918 0.00137336)
(0.0448653 0.00144363 -0.00211645)
(0.170105 0.000489294 0.000631517)
(0.0522335 0.000226832 -0.00393112)
(0.171994 -0.000601824 0.00011895)
(0.171974 0.000262999 -0.000403259)
(0.180968 0.000550615 0.000716736)
(0.0238248 -0.00186277 -0.00134303)
(0.0313176 0.000845119 -0.00150328)
(0.0326159 0.000862403 -0.00117569)
(0.0610986 0.000361822 0.000146841)
(0.0951075 -0.00116642 0.00063467)
(0.156636 0.00102471 0.00125349)
(0.0551656 -0.00120378 0.00147436)
(0.182896 -0.000240514 0.00057615)
(0.0195068 0.000350339 0.00288478)
(0.0523887 4.2705e-05 0.00087892)
(0.0236114 0.000153657 0.00261156)
(0.179984 0.000687084 0.000419395)
(0.0907564 -0.000521928 -0.000250253)
(0.145801 0.000233363 0.000941808)
(0.063076 0.000884708 -0.00140626)
(0.169208 5.16837e-05 -0.000401262)
(0.103198 0.000272473 0.000467492)
(0.165501 -0.000403465 0.000119563)
(0.140447 -2.92004e-06 0.000642295)
(0.183503 0.000290296 0.000667661)
(0.144736 0.000578289 -0.000740078)
(0.147037 0.00121772 0.000924563)
(0.157999 0.000150574 0.000738746)
(0.0535877 6.73412e-05 -0.000254666)
(0.153831 0.000980673 0.00173718)
(0.0402274 -0.000387891 -0.00223323)
(0.0579578 0.000479904 0.00202856)
(0.129673 0.00080389 -0.00102571)
(0.162076 -0.000378512 0.000441244)
(0.11391 0.00302504 0.00153594)
(0.175597 0.000171451 0.000466796)
(0.0972897 8.96282e-05 0.00212237)
(0.0558039 0.00217234 -0.00150055)
(0.15984 -0.000119523 -0.00124497)
(0.0910556 0.00194439 0.000496294)
(0.0445693 -0.000739629 -0.000693417)
(0.0499463 0.000228555 -0.00143143)
(0.0961342 0.000948882 -0.00318981)
(0.171975 -0.000508512 -0.00021672)
(0.0969263 -0.00237408 3.12447e-05)
(0.0911163 -0.00137473 0.000938926)
(0.164885 -0.00104479 -0.000439687)
(0.091194 -0.000590832 0.00240703)
(0.0202931 0.00242921 -0.00137739)
(0.161813 0.000251723 0.000886853)
(0.024502 0.00157999 -0.00210236)
(0.0389881 -0.00158941 0.00105906)
(0.179797 0.000394671 0.000892553)
(0.139278 1.7263e-05 -0.000380634)
(0.0242176 0.00260177 0.00259355)
(0.119996 0.000887819 0.000469978)
(0.123588 0.00242207 2.5774e-05)
(0.167331 -0.00093588 0.00165686)
(0.179595 -0.000648165 3.94648e-05)
(0.0231757 0.0027474 0.00051679)
(0.178779 0.000463605 0.000433943)
(0.18249 -0.000294453 0.000137763)
(0.172742 0.000156624 0.000772129)
(0.134979 0.000660973 0.000835639)
(0.137374 0.00115068 0.000738295)
(0.0942024 0.000497208 -0.000221246)
(0.171618 0.000915116 0.000242109)
(0.0272104 -0.000978713 -0.00124814)
(0.160263 -0.000479323 0.000516919)
(0.13929 -0.000609424 -0.000563119)
(0.182082 -6.04777e-05 0.000360604)
(0.168744 0.00041259 0.000692396)
(0.115899 -0.000494305 0.00061048)
(0.0576232 0.00088521 0.00126749)
(0.0221974 -0.00033445 0.00154275)
(0.0274705 -0.000668429 0.000461427)
(0.164058 -0.00101337 -0.000843758)
(0.0198091 -0.0011547 0.00285526)
(0.0620154 -0.000340502 -0.00107633)
(0.0507522 0.00281245 0.00112728)
(0.167853 0.000564386 0.000842741)
(0.174198 -0.000430765 -0.000302755)
(0.154648 -0.000107109 -0.000686882)
(0.0575081 4.87292e-05 -0.00129021)
(0.102373 0.00152819 -0.00234384)
(0.0389527 -0.00323029 0.00261765)
(0.0541717 0.00126943 0.00113708)
(0.15782 0.000827719 1.67983e-05)
(0.097054 0.00104059 -0.000939467)
(0.107736 0.0123594 0.003508)
(0.089176 -0.00188168 0.000920216)
(0.0416913 -0.000179692 -0.000399309)
(0.0627365 -0.000921768 0.00198037)
(0.107133 -0.000968852 -0.00164486)
(0.175834 -3.42054e-05 -0.000318636)
(0.18223 -0.000805823 0.000809369)
(0.182543 2.6028e-05 0.000952306)
(0.162143 -0.00122333 0.00036669)
(0.0969582 0.00377406 0.00463661)
(0.126464 0.000708671 0.000814526)
(0.166616 0.001069 0.00098272)
(0.16118 -0.000806586 0.000101542)
(0.163777 -0.000713857 0.000738132)
(0.0553645 0.0011928 -0.00325204)
(0.0216468 -0.00142243 -0.00255127)
(0.15052 -0.00131454 0.000274365)
(0.0384985 -0.00185657 0.00210839)
(0.0307486 0.000130874 5.47411e-05)
(0.161544 0.000520812 0.00170728)
(0.145806 -0.000309682 0.000455303)
(0.0597224 -0.00129931 -0.00299186)
(0.173229 -0.000836671 0.000430582)
(0.166969 -0.00117663 0.000446505)
(0.181797 -0.000826953 -0.000411757)
(0.17405 -0.00121695 -0.000318113)
(0.0317761 0.00150695 3.99126e-05)
(0.159919 -9.82467e-05 1.58429e-05)
(0.176605 -0.000925138 0.000787013)
(0.0563718 9.01184e-05 0.000804218)
(0.180421 3.50816e-05 0.00115662)
(0.174881 -0.000390833 0.000485831)
(0.131134 4.39994e-05 -0.000865646)
(0.122403 0.000185103 -0.000965615)
(0.152195 -0.00111287 0.00147277)
(0.143157 -0.00124858 0.000428711)
(0.0685607 -0.000350968 -0.000190299)
(0.0308674 0.00129192 -0.00099872)
(0.0339741 -0.00249004 -0.00019301)
(0.0935693 0.000477853 -0.000206643)
(0.0862491 -0.00678904 0.0106237)
(0.0746076 -0.00420548 -0.00608348)
(0.0821006 0.000371117 0.000356113)
(0.113919 8.13651e-05 0.00204321)
(0.131188 0.000228293 0.000755833)
(0.159294 -0.00150207 0.00413909)
(0.157354 -0.000678418 0.000837191)
(0.131502 -0.000782411 -0.000371666)
(0.149086 -6.82949e-05 0.000616872)
(0.149583 0.000820606 0.000371758)
(0.030441 -0.000934808 -0.000323785)
(0.113918 -0.0224695 0.0027622)
(0.0569892 0.00145268 0.000486825)
(0.0400831 -0.00178869 -0.000412409)
(0.0404043 0.000846537 0.000315685)
(0.161974 -0.00061051 -0.00038594)
(0.0928933 -0.000555128 -2.40267e-05)
(0.16103 0.000585627 -0.00118617)
(0.0192891 0.0010543 -0.00165391)
(0.125983 -0.000418133 0.000311389)
(0.0432292 0.00102275 -0.000838498)
(0.165731 -0.000306794 -0.000115612)
(0.0466743 -0.000630472 -0.00047831)
(0.0606217 -0.00144844 0.00119128)
(0.104873 -0.00274991 0.000831274)
(0.151906 -0.00115761 0.00115401)
(0.0189442 0.00151979 -0.00204453)
(0.0531333 -0.000591087 0.00223181)
(0.132892 -0.00022003 0.000581942)
(0.0225299 -0.00140044 -0.00179329)
(0.130815 0.00129286 0.00943295)
(0.115275 -0.000812652 0.00258928)
(0.131424 -0.000407645 -0.00206148)
(0.09338 0.00206553 -0.00284034)
(0.0871401 -0.00121617 0.00205547)
(0.162209 0.00061508 0.000100747)
(0.0771895 -0.00790875 -0.0071832)
(0.182279 0.000236406 9.51635e-05)
(0.111375 0.00863083 0.00903303)
(0.0581027 -0.00263612 0.000360056)
(0.0613742 -0.000406991 -0.00143169)
(0.179467 0.000256584 0.000242815)
(0.17919 0.000471203 0.000382324)
(0.0512801 -0.000511908 0.000617595)
(0.133002 0.000435872 -0.000588412)
(0.0966313 -0.000479898 -0.00227067)
(0.179673 0.000127534 0.000570386)
(0.179041 -0.000174984 0.000992813)
(0.0443924 0.00130012 -0.0033579)
(0.13232 -0.00109016 0.000128487)
(0.145449 -0.00177368 0.00158291)
(0.148081 0.000643706 -0.000487779)
(0.156962 0.000726669 0.000558897)
(0.020873 -0.000725411 -0.00262789)
(0.0203837 0.00102026 -0.00255803)
(0.126124 0.00118246 -0.00164982)
(0.175816 1.52952e-05 -4.13573e-05)
(0.180854 -0.00154422 -0.000598535)
(0.0334628 0.000351268 -0.00247141)
(0.169238 -0.00161831 0.000401706)
(0.105604 -0.000995585 -0.000757548)
(0.175146 -0.000235161 0.000385466)
(0.1765 0.000228355 0.000812658)
(0.180899 0.000493385 -0.000506781)
(0.173691 0.000640719 0.000651034)
(0.172742 0.00147094 0.00051343)
(0.0874364 0.00054625 0.000299498)
(0.178817 0.000694193 -0.000152685)
(0.0548432 -0.00105591 -0.00266981)
(0.167494 0.000204216 -0.000459112)
(0.108281 -0.000420132 -0.00106755)
(0.153648 0.000421022 0.000941041)
(0.175197 0.000204724 -0.00012723)
(0.149319 -0.000447107 0.000198686)
(0.14474 0.000194887 -0.00125)
(0.0392221 0.00224198 0.00209493)
(0.032898 0.000830076 0.000267094)
(0.0204828 0.00177883 -0.00203189)
(0.153125 0.00418823 0.00749757)
(0.186493 -4.24366e-06 -0.000226181)
(0.13939 -0.000800779 0.00068088)
(0.125792 0.00094597 0.000127927)
(0.0298832 -9.60002e-05 0.00112076)
(0.0229061 -0.000374189 0.00262423)
(0.113297 -0.000533746 0.00168182)
(0.153002 -0.000164028 0.00145808)
(0.175629 -0.000533966 0.000788541)
(0.154651 0.000407066 0.000162253)
(0.134862 -0.00113766 -0.000865096)
(0.184935 0.000245163 0.000310842)
(0.133903 0.000726063 0.00093073)
(0.0256022 -0.000525161 0.00240397)
(0.121822 -0.000213344 0.000787893)
(0.055996 0.000534852 0.00291225)
(0.0704777 -0.00704501 0.00150873)
(0.154351 0.00023185 0.000527012)
(0.0919063 0.000527685 -5.82504e-05)
(0.14649 -0.000170363 0.000163077)
(0.0198884 -0.00373572 -0.00136292)
(0.179286 0.000522324 -0.000419701)
(0.179702 -7.30777e-05 -0.000343013)
(0.177549 0.000355899 0.000540797)
(0.0901225 0.000928471 0.000107576)
(0.153616 -0.000758673 0.0015728)
(0.17334 6.62347e-05 0.000778373)
(0.120554 0.000419701 0.000147791)
(0.180928 0.000832706 0.000203823)
(0.0978182 0.00401779 -0.00332358)
(0.17126 0.000501376 -0.000285764)
(0.148869 -0.00280476 -0.000464987)
(0.0198252 -0.0012766 0.00141865)
(0.178673 -5.49891e-05 -2.33093e-05)
(0.115823 0.0021736 5.49893e-05)
(0.0446276 -0.00130002 0.00368261)
(0.0895323 0.000812406 -0.00153533)
(0.167712 -5.95855e-05 -0.000218387)
(0.128068 -0.000412658 0.000999258)
(0.0828562 0.000212036 -0.00234847)
(0.0196876 -0.00179375 -0.00195786)
(0.174796 -0.000328103 -0.000238829)
(0.123815 0.00165298 -0.00183425)
(0.161214 -0.000438758 -0.000632007)
(0.1233 1.09607e-05 0.00077715)
(0.0355301 0.00162585 0.00158346)
(0.14079 5.43733e-05 -0.000356795)
(0.0257872 0.00208512 -0.00331731)
(0.163139 0.000229571 -0.000770486)
(0.10228 0.0114 -0.00365192)
(0.168678 -0.00120344 -0.000729878)
(0.0499015 9.17186e-06 0.00175)
(0.104688 -0.00122515 -0.0015485)
(0.0935911 0.000161017 -0.0012277)
(0.0335302 0.00191184 0.00171311)
(0.18225 3.29793e-05 0.0004316)
(0.172201 -0.000184521 0.000766031)
(0.0210548 0.000732911 0.00205724)
(0.162172 -7.84933e-05 0.000380303)
(0.181993 0.000354801 0.000638721)
(0.0357704 -8.41118e-05 -0.00214022)
(0.0596863 0.00264016 -6.37234e-05)
(0.0519001 0.00191397 0.00135303)
(0.154205 0.000141374 0.000649989)
(0.178531 0.000117518 0.000381611)
(0.0324443 -0.000862985 0.00149012)
(0.0519811 -0.00172793 -0.000576233)
(0.0546997 0.00109728 -8.27281e-05)
(0.113865 0.00150446 0.000377613)
(0.179993 0.000279091 0.000500559)
(0.0223181 0.00120271 -0.00292031)
(0.159716 -0.000565702 0.000802947)
(0.151857 0.00345831 -0.000464839)
(0.178981 -0.000423113 0.00111283)
(0.0900996 0.00386681 -0.00372725)
(0.168611 0.000717362 0.000275978)
(0.0218185 -0.000263341 -0.00237401)
(0.164573 -0.000651389 -0.000374415)
(0.0261495 -0.000398795 -4.92367e-05)
(0.0587181 -0.00163628 0.000769751)
(0.154797 -0.00124114 0.000128626)
(0.0585442 -0.0017405 -0.00059237)
(0.0196654 0.00229976 0.00204123)
(0.0352905 0.000687572 -0.001121)
(0.0435617 -0.00233221 0.00156987)
(0.0566447 0.00112937 -0.0016123)
(0.146343 6.74603e-05 -0.00074853)
(0.0483968 -0.00110332 3.08662e-05)
(0.057166 0.00185668 -0.00101565)
(0.128238 -0.00713755 -0.0137842)
(0.170148 7.70895e-05 0.000705375)
(0.0229191 0.00147246 0.000266063)
(0.105225 0.00028483 -0.0010703)
(0.0812768 0.00885986 -0.00350405)
(0.171504 -0.000594645 -0.000196176)
(0.0564767 -0.000119725 -0.00134363)
(0.166232 0.000212493 0.00124239)
(0.0552938 -0.00224425 -0.00162607)
(0.122068 0.000621539 0.00062288)
(0.176883 2.9155e-06 -0.000706873)
(0.04895 0.00219353 -0.00439313)
(0.17585 -2.14368e-05 -0.000102003)
(0.0475221 0.0022382 0.00241347)
(0.0182988 0.00278666 0.00104573)
(0.145888 0.000873644 -0.000446803)
(0.178701 -6.34078e-05 0.000214465)
(0.128801 0.00100554 -0.000438588)
(0.124059 0.00163826 -0.000741131)
(0.178463 -0.00092866 0.000153221)
(0.0586724 0.0016976 -0.00023629)
(0.16781 -0.000882871 0.000410614)
(0.0550091 -0.00173603 0.00238963)
(0.174845 0.000266967 0.000180188)
(0.125072 -0.0014584 -0.00133819)
(0.0267574 0.000680854 -0.00371511)
(0.153821 0.000733582 -0.000906408)
(0.050047 4.92007e-05 0.0015983)
(0.0248589 -0.0017781 -0.0018323)
(0.148277 -0.00121526 -0.000412053)
(0.0414768 -0.00118259 0.00104754)
(0.13738 0.000213728 1.91837e-05)
(0.178414 -0.000228068 0.00101557)
(0.13026 0.000371042 0.000263725)
(0.0517183 -0.0023257 -0.00252366)
(0.179343 0.00133332 0.000334254)
(0.0879444 -0.00134153 0.00120274)
(0.185441 0.000299754 9.56925e-05)
(0.180842 -0.000102827 0.000499984)
(0.180532 0.000131117 0.00090849)
(0.178174 -0.000193269 -0.000144506)
(0.0422185 -0.0023667 -0.00198594)
(0.0496055 0.000286298 -0.000447506)
(0.177686 -0.000562982 -3.08115e-05)
(0.16248 0.000308554 0.00166678)
(0.0302912 -0.00217365 -0.00100055)
(0.161831 -0.000200381 0.000624262)
(0.180688 3.6879e-05 0.000293402)
(0.176616 -0.000645895 -0.000281422)
(0.180989 -0.000956727 -0.000184283)
(0.114445 -2.65709e-05 -0.00171376)
(0.0204126 0.00206618 0.00177898)
(0.177715 0.000518094 -0.000215829)
(0.0983265 -0.000939073 -0.00119409)
(0.151612 0.000712418 0.000664223)
(0.0937181 0.000315216 -0.000110126)
(0.0277894 0.00197537 -0.000111812)
(0.180039 0.000130768 0.00065561)
(0.0894255 0.00229298 0.00234424)
(0.131918 -9.46469e-05 0.000242658)
(0.182948 -0.000669591 3.27155e-05)
(0.140817 -0.00157891 -0.000226204)
(0.0164498 0.00151082 -0.00193553)
(0.0209024 -0.00129115 -0.00203888)
(0.175788 0.000235691 0.000215548)
(0.168589 -0.00116661 -0.000698894)
(0.183132 0.000513422 0.0010598)
(0.152557 -0.000389187 0.00131223)
(0.0898579 -0.00137718 0.000559674)
(0.149425 -0.00102795 -0.000599686)
(0.175484 0.000221314 0.000763619)
(0.0191509 0.00168974 0.000402809)
(0.177607 0.000326709 0.000554376)
(0.134994 -0.0150852 -0.000421463)
(0.035466 -0.000582855 0.00188101)
(0.0524711 -0.00335949 0.000848261)
(0.143647 -0.000193742 -0.000902941)
(0.140179 -0.00168275 0.00102291)
(0.136963 0.000482256 -0.000127014)
(0.122342 -0.00072778 0.000656579)
(0.102729 -0.00353404 0.00114128)
(0.181993 0.000119537 -5.35636e-05)
(0.0956685 0.000903892 -0.00290978)
(0.175842 0.00068598 -0.000145539)
(0.171816 0.00102162 4.35466e-05)
(0.185159 -0.000475214 0.000200032)
(0.17466 -0.000515376 0.000214596)
(0.0381312 -0.00036225 0.00189279)
(0.164007 -0.000497012 5.60146e-05)
(0.0308359 0.000936634 -0.00125896)
(0.0944287 -0.00919835 0.00542478)
(0.0576135 0.00185301 0.00149486)
(0.127257 -0.00253593 -0.0130545)
(0.129461 -0.000690006 -0.00070921)
(0.117462 -0.0190687 -0.0042426)
(0.170634 0.000281763 -0.000486374)
(0.175908 -0.000499179 -0.000301268)
(0.154288 0.00105024 -6.34531e-05)
(0.171374 -0.000394411 0.000819464)
(0.0316968 0.000243055 -0.000558342)
(0.100941 -0.0037932 -0.00254438)
(0.112493 -0.00210252 -0.0160239)
(0.176228 0.000272308 0.00017667)
(0.110407 -0.00228186 -0.000586859)
(0.136917 -0.013502 -0.00473498)
(0.157002 -0.0037992 0.00448355)
(0.10905 0.000879217 0.000877936)
(0.0331847 -0.000669609 0.00118897)
(0.051445 -0.0025281 0.00141331)
(0.0229334 0.000103752 -0.000211565)
(0.0217672 0.000165711 -0.00166634)
(0.0325045 -7.81238e-05 0.000159564)
(0.133612 -0.00955059 0.0055204)
(0.138148 -0.000523721 0.00085106)
(0.0220991 -0.000770233 0.00306848)
(0.0209361 0.00150475 0.00231315)
(0.183462 0.000279955 -0.000122498)
(0.0961373 -0.0126298 0.00857692)
(0.0350241 0.00151522 0.000567101)
(0.147597 0.000213987 -0.000549457)
(0.10361 -0.00111541 -0.00144984)
(0.133559 0.000215617 0.00123213)
(0.039312 0.00204971 -0.00111208)
(0.0515851 0.0015988 -0.000616578)
(0.109528 -0.0012191 5.59754e-05)
(0.170014 0.000103608 -0.000814185)
(0.152212 1.19608e-05 -0.00080583)
(0.0333882 0.00276865 -0.00094926)
(0.0223866 -0.00175025 0.00106707)
(0.106234 -0.0151822 -0.0112674)
(0.023924 -0.00311049 0.000127119)
(0.133675 -0.000841139 -0.00103901)
(0.0252726 0.00140691 -0.00313436)
(0.102151 -0.000445776 0.00213966)
(0.176039 -0.000963754 -0.000103933)
(0.177069 -0.00038855 0.0011978)
(0.0409769 0.000606594 -0.000795948)
(0.0960694 -0.000295954 -0.0010112)
(0.0328494 0.00120293 -0.00136701)
(0.0259226 0.00305909 -0.00112291)
(0.176835 -0.000448225 -0.000640032)
(0.0176927 -0.00149896 -0.00227917)
(0.165559 -0.000489938 -0.000676067)
(0.0449213 0.00100128 -0.00211779)
(0.155523 -0.00123336 -0.000226406)
(0.141143 -0.000688906 -0.000173877)
(0.020262 -0.000539643 0.00321757)
(0.0536103 -0.00264368 0.000227349)
(0.148677 0.000381155 0.000611051)
(0.0318488 -0.00153943 4.997e-05)
(0.159894 -0.000196375 -0.000557236)
(0.0506861 -0.00202065 0.00316374)
(0.1061 0.000271357 -1.56244e-05)
(0.180263 -0.000726834 -0.000263592)
(0.0337251 0.00100155 0.000725533)
(0.0218876 0.000934199 -0.00283766)
(0.0472663 0.000925763 -0.000398766)
(0.110794 0.0173888 0.00373827)
(0.102146 0.000373203 0.000438496)
(0.0527154 -0.00242516 0.00254941)
(0.0819866 0.000339236 0.00119468)
(0.0283443 -0.0010798 0.000677548)
(0.181209 -0.000842845 -0.000551088)
(0.021752 -0.000345651 -0.00162916)
(0.169517 -0.00053033 -0.000575464)
(0.144518 -2.18193e-05 0.000171602)
(0.167349 0.000104525 -0.000386756)
(0.0179863 0.001795 6.27747e-05)
(0.150811 7.84487e-06 0.00050321)
(0.0800766 0.000795432 0.000171325)
(0.157363 7.00141e-05 6.18547e-05)
(0.0512292 -0.000544055 -0.000218284)
(0.108164 -0.0130156 0.00669044)
(0.160076 -0.00136778 -0.000438579)
(0.0369412 0.000439623 -0.000432546)
(0.1844 0.000550255 0.000322658)
(0.108868 0.00201098 -0.0205013)
(0.116324 0.000306328 -0.000823462)
(0.0305499 0.000791009 -0.00168039)
(0.0472572 -0.000458975 -0.0025299)
(0.179338 -0.000255962 -0.000188793)
(0.131302 0.00128787 0.000430067)
(0.0298432 0.00151393 0.000598775)
(0.108064 0.00134557 -0.00166806)
(0.0572288 -0.000526167 -0.00174963)
(0.022652 -0.00197373 0.00132963)
(0.177158 -4.39478e-05 -0.000471407)
(0.103343 -0.00128511 0.0100396)
(0.129859 0.00139173 -0.0019422)
(0.172162 -0.000468226 -8.26735e-05)
(0.175369 -0.000309194 0.000609926)
(0.168277 -0.000486294 -4.66658e-05)
(0.131648 0.0007658 -0.000154467)
(0.0404983 0.00105935 0.000349268)
(0.0371556 -0.00182341 -0.00178958)
(0.179534 0.000234998 0.000534692)
(0.107582 -0.00939363 0.00873053)
(0.120164 -0.00112591 0.000517175)
(0.127177 -0.00168459 0.000825016)
(0.0785702 0.00186478 0.000850502)
(0.147712 -0.000371624 0.0013553)
(0.162905 -0.000426255 -0.000979496)
(0.0968765 -0.000330831 -0.00129052)
(0.102009 0.00186827 0.00043396)
(0.0357124 0.000470676 -0.00227625)
(0.0687642 0.000519532 -0.000370333)
(0.0402949 -0.00104097 -0.00301031)
(0.15121 -0.000871785 0.00100174)
(0.173612 -0.000263171 -0.00022596)
(0.0915661 0.00172224 -0.00215831)
(0.0961139 0.0007685 -0.000582277)
(0.0194924 0.00201712 -0.000404058)
(0.0766276 -0.000369346 -0.000668741)
(0.0549627 -0.00186822 -0.00235517)
(0.174679 -0.000207678 -0.00102274)
(0.176218 -0.00123038 -0.000424793)
(0.104823 -0.00957122 0.00605542)
(0.162169 -0.00046094 0.00118193)
(0.0790136 -0.00231299 -0.00190057)
(0.101708 -0.00255053 0.00794154)
(0.132292 -0.00154315 0.00181538)
(0.024238 -0.00187112 -0.000155653)
(0.176255 -0.000952903 3.50706e-05)
(0.0469842 0.00132412 -6.32489e-05)
(0.138904 -0.000314155 0.00134274)
(0.0264259 0.00376751 -0.000281271)
(0.173778 0.000189641 -0.000735067)
(0.101647 -0.00433235 0.00266578)
(0.157601 -0.000502855 -0.000331159)
(0.113773 0.00038658 0.000500393)
(0.146126 -3.50357e-05 0.000706662)
(0.149368 0.00113629 0.000321786)
(0.182271 0.000758987 0.000212062)
(0.0322806 -0.00193664 -2.96373e-05)
(0.0446373 0.000609267 -0.000959967)
(0.0269938 -0.000709898 -0.00022617)
(0.174826 -0.000261183 0.000658857)
(0.156626 0.000334407 -0.000624255)
(0.135782 0.00171527 -0.000268288)
(0.159306 0.000636791 -0.0013301)
(0.0195742 0.00035466 0.000511139)
(0.0959227 -0.000206908 -0.000229272)
(0.0867314 0.000950524 -0.00185445)
(0.174523 -0.000177491 -0.000443533)
(0.125631 -0.000879057 -0.000295647)
(0.145153 -4.30774e-05 -0.00056129)
(0.103947 -0.000304519 0.0013296)
(0.178288 -0.000136632 -0.000132743)
(0.0192718 -0.0022281 -0.00234473)
(0.0826963 -0.00336676 0.000448478)
(0.15203 -0.000312584 0.000444251)
(0.0242754 -0.00219148 0.00188293)
(0.0421087 -0.000749319 -0.00197706)
(0.0590468 -0.000989189 0.000626644)
(0.0201208 0.00124533 -0.00213142)
(0.0925126 0.000488774 -0.00130684)
(0.168482 0.000327251 -0.000112302)
(0.0571912 -0.0017101 -0.00153579)
(0.0178875 -0.00231734 -0.00168038)
(0.102218 0.000422866 -0.000785078)
(0.0241313 0.000158727 0.000360926)
(0.0962799 0.00122492 -0.000709138)
(0.172433 0.000173221 6.73814e-05)
(0.183427 -9.20959e-05 -0.000294125)
(0.171924 -0.000217093 -0.000181594)
(0.163645 0.00085302 -9.45084e-05)
(0.173452 -8.78462e-05 3.32052e-05)
(0.128742 0.000612002 0.00196465)
(0.0440145 0.000870688 -0.00111083)
(0.174087 0.000529579 0.000641388)
(0.122613 -0.000303181 0.000938408)
(0.0855302 0.000530556 -0.00163728)
(0.0938444 -0.000949849 0.00133973)
(0.162884 -0.000126261 0.000232967)
(0.113778 -0.0012396 -0.000651649)
(0.0627167 6.86206e-05 0.00166709)
(0.154225 0.000788397 0.00127529)
(0.0313708 0.00114473 0.000509203)
(0.0848978 3.64205e-05 0.000680757)
(0.0940079 -0.000292652 0.000214082)
(0.0582647 0.000331566 0.000985581)
(0.160112 -1.44495e-05 -1.54236e-05)
(0.106002 -0.0126029 0.0134368)
(0.127194 0.00806275 0.00528787)
(0.0307188 0.000570189 -0.00265334)
(0.0248125 -0.00158848 0.000809122)
(0.0535122 0.00199939 -0.00104523)
(0.0192518 -0.00123747 -0.00153912)
(0.124976 0.000626146 -0.000605223)
(0.153555 0.000764595 -0.000841541)
(0.127691 0.00170131 0.000248128)
(0.110223 0.0100902 -0.0115828)
(0.132847 -0.00012275 0.000333861)
(0.146351 0.0004568 -0.000579043)
(0.0236668 -0.00196248 0.00453333)
(0.156768 0.000698595 -0.000106702)
(0.12758 -0.00406825 0.0125471)
(0.0417419 0.000757497 -0.00107189)
(0.0207733 -0.00348158 0.000688789)
(0.113452 0.000337345 0.000590239)
(0.106812 -0.00129162 -0.000678836)
(0.0242844 -0.00167315 0.00273461)