/*--------------------------------*- C++ -*----------------------------------*\
| =========                 |                                                 |
| \\      /  F ield         | OpenFOAM: The Open Source CFD Toolbox           |
|  \\    /   O peration     | Version:  2406                                  |
|   \\  /    A nd           | Website:  www.openfoam.com                      |
|    \\/     M anipulation  |                                                 |
\*---------------------------------------------------------------------------*/
FoamFile
{
    version     2.0;
    format      ascii;
    arch        "LSB;label=32;scalar=64";
    class       volScalarField;
    location    "64";
    object      epsilon;
}
// * * * * * * * * * * * * * * * * * * * * * * * * * * * * * * * * * * * * * //

dimensions      [0 2 -3 0 0 0 0];

internalField   nonuniform List<scalar> 
59516
(
0.0100624
0.00852746
0.00648076
0.00520925
0.00921736
0.345174
0.00617474
0.00821087
0.00719971
0.019011
0.00698225
0.0231137
0.00682939
0.0685692
0.0165089
0.0197026
0.00401272
0.0380452
0.0128961
0.00313895
0.0312861
0.0036967
0.00431228
0.0275703
0.00295236
0.0147642
0.0272049
0.0418959
0.0216617
0.0480362
0.0457915
0.0373933
0.00465614
0.00692863
0.00830151
0.00387922
0.0464087
0.0437606
0.0152892
0.00291545
0.0086715
0.00943678
0.00681446
0.00901811
0.00620584
0.0202883
0.0085579
0.00571668
0.0126253
0.00754673
0.0271112
0.0220874
0.00626351
0.00580831
0.0247657
0.00857291
0.00939604
0.0229885
0.00218931
0.0106121
0.00348182
0.0358128
0.0024699
0.00415155
0.00574668
0.00621621
0.0453668
0.0226297
0.0200256
0.00707049
0.021982
0.00344607
0.0364902
0.00501519
0.00194965
0.00524009
0.00525552
0.00360848
0.0202466
0.00731713
0.0256455
0.00731392
0.00796102
0.0406018
0.0076245
0.00271695
0.0283829
0.00405214
0.0185204
0.0253711
0.00986991
0.00430173
0.00227319
0.00455691
0.00284978
0.010632
0.00424237
0.0203427
0.028969
0.00367231
0.0230648
0.0351117
0.0348385
0.0178711
0.00477485
0.00361822
0.0248964
0.00798216
0.00863826
0.0144808
0.0198584
0.0189593
0.0156989
0.0300802
0.00293179
0.00978871
0.0177769
0.00484577
0.0332554
0.00366902
0.0017769
0.00257235
0.00291612
0.00257831
0.0154321
0.0180797
0.0337812
0.0125236
0.0817457
0.00200842
0.00183222
0.0074609
0.0343637
0.00362726
0.00890377
0.00640878
0.0364452
0.00495201
0.0236781
0.00989573
0.0210932
0.00172229
0.0459423
0.00552401
0.00263337
0.00413098
0.00701293
0.00802877
0.252762
0.0077008
0.00965655
0.0257046
0.00252281
0.00321154
0.010869
0.0513477
0.00642785
0.00661253
0.0128454
0.0442841
0.0147855
0.0140259
0.0282799
0.0522202
0.00924753
0.00220218
0.0159206
0.00222477
0.0415312
0.00455514
0.0123004
0.0220959
0.0135287
0.00447762
0.020695
0.00874633
0.00242352
0.00707624
0.0140091
0.0269659
0.00373805
0.0334903
0.0456508
0.0173513
0.00198601
0.0188248
0.0289373
0.0415707
0.00606346
0.00933374
0.00469636
0.0207209
0.00278965
0.018187
0.00334187
0.0331912
0.019744
0.0250811
0.00732887
0.00325064
0.0130161
0.00172525
0.00842474
0.0439317
0.00526553
0.00391961
0.00221299
0.00327689
0.044956
0.00690657
0.022496
0.0572347
0.00397048
0.01897
0.0067543
0.0023283
0.00424495
0.00300054
0.0193174
0.00303815
0.0196805
0.00794588
0.00265303
0.0228517
0.0023948
0.00231969
0.0229552
0.0204748
0.00234854
0.0184501
0.00219472
0.00228329
0.00186577
0.0282284
0.0290518
0.0263074
0.0178812
0.00840232
0.0030645
0.0215315
0.0018271
0.0410942
0.0199225
0.0354025
0.00197043
0.0110078
0.0037767
0.0139176
0.00228669
0.00820552
0.00249373
0.00416061
0.00181288
0.00379758
0.00382679
0.00298588
0.0213568
0.00325923
0.0202504
0.0165118
0.00514396
0.00270762
0.00713343
0.00205686
0.0092624
0.0195439
0.00291659
0.0108379
0.0180542
0.0214001
0.011641
0.0022937
0.00897009
0.0103012
0.00253139
0.0106888
0.0332134
0.00274574
0.0258858
0.0223824
0.00191696
0.00431627
0.0318534
0.00629818
0.00568933
0.00369946
0.00194527
0.0321963
0.00196722
0.00193054
0.00221054
0.00481626
0.00451431
0.00981749
0.00229045
0.0195798
0.00285724
0.00402513
0.00182387
0.00240933
0.00641318
0.0176917
0.0343699
0.0193967
0.00270871
0.0425855
0.0136129
0.0214847
0.00248167
0.00213849
0.00309975
0.0177414
0.00834526
0.0240102
0.0267327
0.00302242
0.00955893
0.011713
0.0111684
0.0248206
0.0152069
0.00820773
0.00216694
0.00182337
0.00189694
0.00287142
0.0189625
0.00524557
0.00251182
0.00289165
0.00269409
0.0183072
0.0358774
0.00346658
0.0206412
0.0282121
0.00274679
0.00388977
0.0276819
0.00222755
0.0024742
0.00185318
0.00220029
0.0268208
0.00288808
0.00213193
0.019866
0.00187776
0.00220127
0.0049751
0.00557333
0.00330021
0.0037724
0.0163681
0.0322971
0.0238598
0.00938059
0.0524106
0.0968257
0.0137385
0.00706507
0.00506274
0.00640564
0.00307421
0.00481097
0.00343728
0.0035289
0.0276568
0.0360368
0.0195289
0.0235271
0.0244621
0.00287744
0.0097387
0.00287339
0.038379
0.00531312
0.0241557
0.00260837
0.0239119
0.0165347
0.00780686
0.00712199
0.0406326
0.0184105
0.00464782
0.0305639
0.0121225
0.00697822
0.00471409
0.0103369
0.0102949
0.00278707
0.0671246
0.00183714
0.028189
0.0155627
0.0158399
0.0019553
0.00195177
0.0211597
0.00502521
0.00972846
0.00187101
0.00193177
0.0184707
0.00515867
0.0037305
0.00356856
0.0030148
0.0344154
0.0364034
0.00518494
0.00210254
0.00188158
0.0256021
0.00241815
0.00773275
0.00205475
0.002047
0.00188326
0.00214154
0.00219814
0.0106443
0.00197355
0.0159031
0.00254515
0.00803522
0.00323731
0.00217307
0.00376326
0.00396275
0.023251
0.0284959
0.0368426
0.0076717
0.00164453
0.00435882
0.00536194
0.0288084
0.0378609
0.00679945
0.00338396
0.00207317
0.00309093
0.00436059
0.00174053
0.00445862
0.0259587
0.00582865
0.0181815
0.114979
0.00320721
0.00968353
0.00388512
0.0401258
0.00194995
0.00201981
0.00204942
0.0111292
0.0033344
0.00217452
0.00578708
0.0019471
0.0149489
0.00230578
0.00357303
0.0358767
0.0019736
0.00648237
0.0197156
0.0102439
0.00237411
0.00520327
0.0128045
0.0379328
0.00211992
0.00524913
0.00287038
0.00541503
0.0251706
0.00413673
0.0539867
0.00273822
0.0169911
0.00243735
0.0180523
0.00783696
0.00939815
0.0258548
0.00174284
0.00223671
0.0414573
0.00268507
0.00193721
0.0243181
0.015869
0.0177784
0.00322122
0.00204677
0.0843343
0.0197702
0.0191825
0.00711641
0.00197135
0.0328989
0.00296139
0.00439565
0.00190871
0.114203
0.00239052
0.0296688
0.00297902
0.0366572
0.0206533
0.00333556
0.0172238
0.0386187
0.0266339
0.0178418
0.0193006
0.00383845
0.0219257
0.0162225
0.0123234
0.00233319
0.0241257
0.00768822
0.0677612
0.00224438
0.0213185
0.00263924
0.01971
0.00556425
0.0020724
0.0188058
0.0021035
0.0532815
0.0469426
0.00353608
0.00193147
0.00502199
0.00563313
0.00198332
0.0172204
0.00245268
0.0174334
0.0021657
0.0054058
0.0253171
0.00319269
0.0182527
0.0250261
0.00368102
0.0244507
0.00454204
0.00194243
0.00497651
0.0182804
0.00195762
0.0118442
0.00170579
0.00179292
0.00192807
0.00196173
0.0221367
0.0204783
0.00200633
0.00277158
0.0304197
0.0027914
0.00187364
0.0020533
0.0018962
0.0068207
0.040092
0.00203115
0.00862023
0.00333238
0.0091876
0.0225718
0.00194428
0.0111781
0.00451055
0.00184017
0.00407009
0.0467678
0.0353222
0.00215698
0.00245035
0.00185099
0.00349328
0.0116415
0.00376666
0.00214704
0.0312738
0.00208133
0.0137281
0.0246267
0.0163273
0.00396043
0.00407419
0.00457348
0.00582516
0.00890463
0.00194854
0.010319
0.0021181
0.00230825
0.00161987
0.00217263
0.0232129
0.00263454
0.0304735
0.0948994
0.0168375
0.0108247
0.00466509
0.0299438
0.00238146
0.00206387
0.0034969
0.00220481
0.0273864
0.010426
0.01427
0.0021036
0.00709224
0.0125037
0.00676377
0.007042
0.0242416
0.0208418
0.0228261
0.0394258
0.0256639
0.0112866
0.00433281
0.0441633
0.0385133
0.00183401
0.0656704
0.026786
0.00380828
0.00768849
0.0048222
0.0263849
0.0201432
0.00713306
0.00234914
0.00342483
0.0277512
0.0294517
0.0596081
0.0309662
0.00459146
0.0282212
0.00873689
0.00209173
0.0019464
0.0225328
0.008999
0.0282746
0.0321718
0.00208025
0.0441839
0.00257148
0.0184386
0.00313754
0.00410735
0.038481
0.0194657
0.00362081
0.0257706
0.00285712
0.0207796
0.00825334
0.00189337
0.0262027
0.03624
0.0195058
0.019052
0.00857372
0.020747
0.0135157
0.0339069
0.00187373
0.0254372
0.00238975
0.00392975
0.0024899
0.0465974
0.00354615
0.0120241
0.00304263
0.0215178
0.0140935
0.00290985
0.0252801
0.00178243
0.029496
0.00609009
0.0304433
0.0177642
0.00195733
0.00507591
0.0276134
0.00702131
0.0178316
0.0311069
0.0020354
0.0121219
0.00505119
0.00230331
0.00214012
0.00241012
0.00490021
0.0197468
0.0231262
0.00196833
0.0125804
0.00676851
0.00509938
0.014257
0.0036036
0.00271273
0.00887702
0.00871955
0.0307828
0.0115331
0.0267838
0.00333604
0.00216785
0.0107183
0.00927301
0.0407245
0.013705
0.0197846
0.0021454
0.00208214
0.0127678
0.00284865
0.0134682
0.0160047
0.00460748
0.0359662
0.00208143
0.0231496
0.0043485
0.0320006
0.00209209
0.0106339
0.00305798
0.00704149
0.00380466
0.00358193
0.00183994
0.0244548
0.0174042
0.0348524
0.00220542
0.00313303
0.00470246
0.00286724
0.0567152
0.00907101
0.0108974
0.00218793
0.0053641
0.00391369
0.0087848
0.00198762
0.0385352
0.012219
0.00339233
0.0233622
0.0220398
0.0160885
0.0377299
0.010725
0.00248769
0.0171933
0.0427348
0.00819603
0.0223379
0.00874728
0.00223947
0.00180171
0.00230879
0.00260584
0.00220609
0.00543632
0.0290432
0.00209384
0.00525694
0.0121469
0.00900364
0.00265175
0.00681675
0.0148783
0.00306968
0.0263924
0.0113005
0.0100351
0.016862
0.00308059
0.0423966
0.0152854
0.0280577
0.0333792
0.0178144
0.0380951
0.00555264
0.00335025
0.00536978
0.0301641
0.00480974
0.00373175
0.0363322
0.00312081
0.0103065
0.0231887
0.0369486
0.00685675
0.0074859
0.0294059
0.00282216
0.0356528
0.0021158
0.0031887
0.00587505
0.00315424
0.00508189
0.00877616
0.00197916
0.0528088
0.0284479
0.00909377
0.0089436
0.0445033
0.00404289
0.0127666
0.00210738
0.00253354
0.0140977
0.00329186
0.00184277
0.011059
0.0193645
0.00239942
0.00944105
0.0235185
0.00287199
0.00230545
0.00304317
0.0098984
0.00512997
0.00814088
0.0121744
0.00870857
0.00919506
0.00486733
0.0183648
0.00303005
0.00216856
0.00930182
0.00399253
0.00763446
0.00589074
0.0261466
0.0176827
0.00576088
0.00420604
0.00471587
0.00189705
0.00339286
0.0018637
0.00183062
0.228157
0.00673878
0.00207248
0.0339485
0.00410496
0.00354491
0.0342814
0.00315021
0.00217071
0.0086544
0.00216942
0.00192689
0.00208899
0.0167767
0.010616
0.0236522
0.00752174
0.00232836
0.0299051
0.0331227
0.0194091
0.00616759
0.0227076
0.00345109
0.00235496
0.00234139
0.00299741
0.0116642
0.0167476
0.00317676
0.00284527
0.00738018
0.0118197
0.00319122
0.00209511
0.00193216
0.0275009
0.00179242
0.0102657
0.0130824
0.0266741
0.0187063
0.0111601
0.00218103
0.0205452
0.00243568
0.00228488
0.00261968
0.00190896
0.00234024
0.00191977
0.00227631
0.0019
0.00962846
0.00458232
0.00601459
0.026885
0.0218768
0.0028974
0.005303
0.0265597
0.00254206
0.00836299
0.00196052
0.00191986
0.00203477
0.00370614
0.0110418
0.00209476
0.122634
0.0097498
0.00205921
0.0700797
0.00223375
0.0256661
0.0124807
0.00286915
0.0141485
0.0240313
0.00274866
0.00313072
0.00339755
0.0263792
0.0023712
0.0265325
0.0105946
0.0158078
0.0176426
0.00924717
0.00190038
0.0165423
0.00319813
0.00257375
0.00750296
0.00194801
0.00187667
0.00757478
0.00179757
0.00232779
0.0146947
0.00194341
0.0187695
0.0275475
0.00244691
0.00789484
0.0195336
0.00211912
0.00790091
0.0131711
0.00764603
0.0414632
0.00236789
0.00226739
0.00710365
0.0307161
0.0194055
0.0093769
0.0191484
0.00458616
0.00508477
0.00870806
0.04153
0.00742432
0.00237652
0.00858031
0.00198469
0.00220081
0.0276796
0.0030443
0.00201292
0.00726583
0.0040117
0.0273382
0.00666347
0.00319493
0.00163554
0.016345
0.00295558
0.0110001
0.00729545
0.0353232
0.00653524
0.0117952
0.0238008
0.00606572
0.0239944
0.00283332
0.00796089
0.00197702
0.0660672
0.00171295
0.00979433
0.0201568
0.00953637
0.00425294
0.0343819
0.00277644
0.00336939
0.021513
0.0495216
0.0209302
0.00171277
0.00357904
0.00220988
0.00889198
0.0221982
0.00361323
0.0329367
0.0079246
0.00211326
0.00815077
0.0206123
0.00393756
0.0359651
0.0118625
0.00328228
0.00195776
0.0366057
0.00324276
0.00578601
0.0192232
0.00249395
0.00294476
0.00162027
0.00747281
0.00974322
0.019158
0.00251379
0.0035717
0.0353017
0.0259127
0.0185362
0.00223758
0.0101385
0.0027145
0.0214946
0.00222379
0.0270892
0.00460189
0.0154097
0.00253428
0.00201192
0.00428525
0.00432769
0.0337071
0.0283504
0.0036906
0.00467526
0.0324996
0.0272014
0.00260503
0.00335194
0.00280285
0.00867272
0.0044865
0.00241361
0.00241674
0.017344
0.0116963
0.016559
0.00374056
0.0121575
0.0284214
0.0270407
0.0019674
0.00753798
0.00989507
0.00277896
0.00279826
0.0331548
0.0024577
0.002174
0.0234898
0.0339587
0.00232002
0.00181172
0.0339976
0.0487316
0.00197425
0.00901424
0.0359004
0.0155453
0.00194794
0.0022315
0.0022089
0.00521125
0.00260276
0.0322437
0.02756
0.00208003
0.00229931
0.00908697
0.00323207
0.0212551
0.0193835
0.0208222
0.00683275
0.0457581
0.00332716
0.00418406
0.0101555
0.0180387
0.0389547
0.00191793
0.00185091
0.00637361
0.00205246
0.0082648
0.00317591
0.022093
0.0184655
0.210898
0.00797835
0.00400986
0.0088962
0.0201935
0.0111184
0.00670225
0.00388798
0.010392
0.00320633
0.00225013
0.00820422
0.0199679
0.0315759
0.00270927
0.032509
0.00637655
0.0058354
0.0114167
0.0349155
0.00372516
0.0167101
0.0446777
0.0376778
0.00485203
0.002015
0.0051892
0.00506304
0.0122061
0.00771499
0.0515939
0.0259561
0.0233388
0.00179574
0.0089106
0.00385188
0.00793898
0.00809797
0.00498594
0.0368579
0.00625583
0.0359964
0.00261747
0.00762764
0.0310803
0.0017919
0.010067
0.00506304
0.0111161
0.0203635
0.0369067
0.00327714
0.0217958
0.00206135
0.00194084
0.00576902
0.0158617
0.0325527
0.00874174
0.0238669
0.00263927
0.00268089
0.00227018
0.020661
0.00279946
0.00274982
0.00304269
0.00275902
0.0372561
0.021886
0.00241096
0.00780926
0.0164722
0.00185912
0.00577845
0.00530758
0.00940509
0.0263257
0.131902
0.0226049
0.00298933
0.00233775
0.00587137
0.0352519
0.0270614
0.00357603
0.00639065
0.0154466
0.0018018
0.00286438
0.00258779
0.00223042
0.00184082
0.00275559
0.00401767
0.00724973
0.00674329
0.00709121
0.0141748
0.0168271
0.00178776
0.0050614
0.0271695
0.0199996
0.00214341
0.0305471
0.00375467
0.00967361
0.00241184
0.0036646
0.00707021
0.00195
0.00229947
0.00256629
0.0195028
0.0222411
0.00362693
0.0017571
0.0361976
0.0119017
0.00585247
0.00216252
0.00429912
0.0466646
0.00855054
0.00448776
0.0127558
0.00204889
0.00659941
0.0393882
0.00572307
0.032859
0.0106593
0.043339
0.00296331
0.00354647
0.00204823
0.0374608
0.01956
0.0121717
0.00333617
0.0222774
0.0212077
0.010481
0.0020267
0.0268292
0.00166235
0.00347052
0.0159123
0.0168567
0.0221235
0.00262882
0.00187414
0.00397802
0.00596065
0.00936471
0.00926179
0.00957839
0.0298013
0.0307864
0.025088
0.0106848
0.0018244
0.0282416
0.0466619
0.0212396
0.0344548
0.00311251
0.0321938
0.0022966
0.00190226
0.00387349
0.0161563
0.0022945
0.0272505
0.0168765
0.00188661
0.00251207
0.00625511
0.0098799
0.00248811
0.0368139
0.00507767
0.00313757
0.00210784
0.0103998
0.00308233
0.00191988
0.00837121
0.0250138
0.0329309
0.00833712
0.00190647
0.0295105
0.0122099
0.00249666
0.0252395
0.027075
0.00915015
0.0445396
0.0147479
0.0384028
0.0221936
0.02659
0.0400267
0.0261371
0.0420526
0.00814729
0.0127901
0.00197659
0.0402457
0.00207396
0.00535283
0.00357004
0.0068837
0.00318678
0.0283278
0.00274134
0.010706
0.0105158
0.00183878
0.00516873
0.047492
0.00652187
0.0117745
0.029618
0.0303603
0.00436644
0.010434
0.0329559
0.00361711
0.00426259
0.00188446
0.00256893
0.0215073
0.00672601
0.0116466
0.0110584
0.0043302
0.00418267
0.00236286
0.0104111
0.0031515
0.00489411
0.010547
0.00849294
0.00809076
0.00639442
0.0111442
0.00201824
0.00480251
0.0431798
0.0046034
0.0475943
0.11972
0.0204662
0.00422998
0.00441631
0.00787502
0.0031396
0.00672554
0.0136122
0.00727018
0.0426309
0.0350527
0.0547808
0.0193311
0.0203934
0.00266599
0.0215402
0.00654331
0.031923
0.0295092
0.00183974
0.0196376
0.00286897
0.00533518
0.00245637
0.0268067
0.0222439
0.00581788
0.00362282
0.0408758
0.00446798
0.0177839
0.00801846
0.00200278
0.00328464
0.00210136
0.00905941
0.0094788
0.0115352
0.0156788
0.0266423
0.0221456
0.0305211
0.00783796
0.00215369
0.013738
0.0181282
0.00938064
0.00344333
0.00326594
0.0194361
0.00476338
0.0324675
0.0158019
0.00350463
0.0215429
0.0125127
0.0100098
0.00629422
0.00866301
0.00363201
0.0105714
0.00897272
0.00251365
0.00752869
0.00260716
0.0363123
0.0376865
0.00557256
0.00877767
0.00355575
0.00781454
0.00965928
0.040761
0.00473047
0.00530225
0.00382078
0.0108752
0.0234332
0.0183681
0.0226723
0.00596946
0.0165827
0.00830155
0.0365724
0.00671513
0.0235175
0.0127425
0.00217402
0.0191902
0.00341548
0.00300777
0.0252744
0.0322508
0.00741747
0.067035
0.00323758
0.00251951
0.0119772
0.00374299
0.0178891
0.00648128
0.0296383
0.00792008
0.00616057
0.00178651
0.0452715
0.00278365
0.00548402
0.0126094
0.00470277
0.0272015
0.00264688
0.0284006
0.00345347
0.0058731
0.00400627
0.00507645
0.0236164
0.0357724
0.00563096
0.00202327
0.0240973
0.00796807
0.0290127
0.00558673
0.0181686
0.0394927
0.00995955
0.0037323
0.0113902
0.00209155
0.00703228
0.00420527
0.0296142
0.00201972
0.0277917
0.0136779
0.00220628
0.00209558
0.0055249
0.0378756
0.0217898
0.00204467
0.00199082
0.00381584
0.0036909
0.00332379
0.05237
0.00462181
0.00407975
0.00511418
0.0201923
0.00537544
0.00222567
0.00503217
0.00229163
0.00212444
0.0190416
0.0033931
0.0222788
0.0031632
0.00996704
0.0049158
0.00330662
0.0023533
0.00221262
0.0263516
0.00165206
0.0195351
0.0319314
0.00551353
0.0208189
0.00317185
0.0388436
0.0200375
0.0212024
0.0124905
0.00553934
0.0292954
0.0295536
0.00419763
0.0102811
0.00202613
0.00880818
0.0363848
0.0114252
0.0246429
0.00744707
0.00334067
0.0195272
0.00346127
0.00203936
0.00284741
0.00262976
0.00199562
0.00290861
0.00208648
0.00374587
0.0183295
0.0418381
0.00413258
0.043674
0.00648293
0.00618772
0.0124763
0.00187732
0.00553265
0.0250209
0.00233063
0.0234213
0.00966434
0.0173625
0.00504122
0.00188247
0.0130265
0.00833723
0.023096
0.00573418
0.00631379
0.0112793
0.00411849
0.0453144
0.0318608
0.00200859
0.00565669
0.00234156
0.00862319
0.0515151
0.00183679
0.0165927
0.00186014
0.00297683
0.0279595
0.0034179
0.00255143
0.0269414
0.0194199
0.00183215
0.00914022
0.0349034
0.00332354
0.0219719
0.0354315
0.00991839
0.00211154
0.00199536
0.00393329
0.00242909
0.00380677
0.00218982
0.00722694
0.00821146
0.00209982
0.00372633
0.0404278
0.0257462
0.00598116
0.00254248
0.00668075
0.0365605
0.0337856
0.00386847
0.0230824
0.0034845
0.00259382
0.00200984
0.0226959
0.013187
0.00223308
0.00703454
0.00346857
0.00428527
0.0190674
0.0279704
0.00226451
0.0315163
0.0152981
0.027822
0.023369
0.00250552
0.00194169
0.00374662
0.0080994
0.0103981
0.0104578
0.00242163
0.00323294
0.0200678
0.00176906
0.00272583
0.00279709
0.0338254
0.00584957
0.0334952
0.0106358
0.022368
0.00302656
0.00409992
0.0117397
0.0287423
0.0122489
0.0162713
0.0451198
0.00341591
0.0353778
0.0196477
0.00231869
0.00260688
0.00185894
0.0260152
0.00803283
0.0210268
0.00196412
0.00295174
0.0024778
0.00220459
0.0237644
0.00407469
0.00675113
0.00191002
0.00240694
0.00244347
0.00275574
0.00192898
0.0405917
0.0280572
0.00694371
0.00178738
0.00393467
0.0238198
0.00215789
0.0180576
0.00604507
0.00425661
0.0117552
0.0202692
0.0181362
0.0429886
0.00314178
0.00413241
0.0189705
0.00622194
0.0414358
0.00328023
0.00182751
0.037015
0.0063687
0.00537986
0.00264499
0.091735
0.0433617
0.0295005
0.0155413
0.0177861
0.0346029
0.0288822
0.0401636
0.0119512
0.00261388
0.00443627
0.00304847
0.00565304
0.0376722
0.0029091
0.00662129
0.0451485
0.0448634
0.032497
0.0108905
0.0230216
0.0030279
0.014883
0.00190211
0.00791818
0.0231474
0.0115928
0.00317672
0.00201038
0.00374458
0.00286369
0.00229593
0.0214863
0.00805116
0.00334517
0.00358186
0.0504633
0.013385
0.0080925
0.00582806
0.00676862
0.00206166
0.0184918
0.0330875
0.0383498
0.00963662
0.00181984
0.00163433
0.00381595
0.0179298
0.00796889
0.0237754
0.00948565
0.00253422
0.0236043
0.0174756
0.00227799
0.00370094
0.00308987
0.00270196
0.0110698
0.0157035
0.00371752
0.00873871
0.00603441
0.00397857
0.00495865
0.00228955
0.0127421
0.004227
0.0405429
0.030861
0.0435994
0.0102957
0.00652632
0.00906375
0.0233901
0.00353557
0.0219641
0.0187823
0.0396896
0.00656452
0.00184214
0.00234267
0.0389317
0.0182895
0.0221385
0.0339338
0.018871
0.00194156
0.00169748
0.0293234
0.0253437
0.0190182
0.00190618
0.00170212
0.00399382
0.0103714
0.00309312
0.00405858
0.00952528
0.0266609
0.00179549
0.00411972
0.00420002
0.00608074
0.00390681
0.00229636
0.0137363
0.00606866
0.0153348
0.00956724
0.00256221
0.00217212
0.0480306
0.00225527
0.0340629
0.00298862
0.00335207
0.0025227
0.00273547
0.0203449
0.0363922
0.0196502
0.00206426
0.00203217
0.00540551
0.00244738
0.0324902
0.0106891
0.00273338
0.00209038
0.00742867
0.0232034
0.0150531
0.00763692
0.0022355
0.00240036
0.00254846
0.00192789
0.00333682
0.00375353
0.0110385
0.00238914
0.00282915
0.00372444
0.0110383
0.0268415
0.0364329
0.0137799
0.00821556
0.0020127
0.00203855
0.0309665
0.00736366
0.00449001
0.00466013
0.00998233
0.00272415
0.00412788
0.00503574
0.00170588
0.00882671
0.00492037
0.0205757
0.00732081
0.00407958
0.035356
0.00580606
0.0033851
0.00457427
0.00289543
0.0020281
0.0348503
0.00254251
0.0119107
0.00211867
0.0141958
0.00230335
0.00547633
0.0104192
0.00606435
0.0357705
0.0057621
0.0228428
0.0253748
0.00388502
0.0326655
0.00219702
0.00292903
0.00206549
0.0221032
0.0091647
0.0369803
0.00483687
0.0264932
0.00997747
0.00312251
0.0025878
0.00207341
0.00359005
0.00318248
0.00200799
0.00326011
0.00300867
0.00324733
0.0223458
0.00933233
0.00173775
0.00180172
0.0179473
0.00372
0.00263775
0.00219435
0.0354696
0.00458891
0.035015
0.00183067
0.0296934
0.025882
0.00679531
0.00490013
0.00426994
0.00671899
0.0275802
0.00263795
0.0283577
0.0281296
0.00340447
0.0213588
0.0119285
0.00516103
0.00296576
0.037817
0.017892
0.028693
0.00225373
0.00267888
0.0164763
0.00314969
0.0105288
0.0170669
0.00493449
0.0250614
0.0044678
0.00325098
0.00215217
0.00277879
0.00210055
0.00192326
0.0061615
0.0016176
0.00343399
0.00228229
0.00804068
0.00957078
0.00179804
0.0130629
0.00319587
0.00365989
0.00311476
0.00379423
0.00175053
0.00423665
0.0247944
0.00283327
0.00176954
0.0180238
0.00622168
0.00184508
0.105941
0.00297217
0.00237899
0.0102213
0.0054404
0.0207238
0.00725335
0.00215359
0.00330259
0.00995769
0.0215538
0.0178372
0.00550675
0.0238793
0.0305171
0.0306442
0.00436824
0.00219163
0.00169506
0.0047167
0.00374831
0.00423711
0.0170071
0.00777124
0.0019494
0.00173573
0.00169118
0.00162782
0.0323799
0.0477736
0.0412906
0.0154059
0.00331167
0.00214029
0.00187953
0.0112074
0.00329902
0.00241985
0.0378525
0.00174209
0.00270851
0.00204579
0.0020878
0.0144864
0.0198322
0.00643089
0.0209136
0.00275176
0.00390971
0.00930541
0.00331307
0.0102245
0.0165316
0.00897796
0.00184999
0.0115858
0.00541368
0.00217643
0.0192077
0.0242422
0.002768
0.00188214
0.0190812
0.02502
0.0106363
0.0369567
0.00198116
0.0063496
0.0196307
0.00177092
0.00179249
0.00233036
0.00547334
0.00255355
0.003198
0.00283134
0.00393609
0.0114242
0.00378091
0.015955
0.0134667
0.020317
0.00195146
0.00679692
0.00267713
0.00438715
0.0103073
0.00854284
0.0380668
0.00860856
0.0388525
0.0105344
0.00399361
0.00325952
0.00219015
0.00313084
0.027254
0.022278
0.00298232
0.0131858
0.0163274
0.00543459
0.0230682
0.00215693
0.00405607
0.0028309
0.00668282
0.00276841
0.00624113
0.00306365
0.0256569
0.00222901
0.0275267
0.02861
0.016449
0.00478167
0.00625089
0.00175803
0.0281217
0.00708268
0.00329771
0.00871113
0.0124628
0.0111891
0.0251126
0.0180447
0.0241921
0.0162998
0.00168002
0.0206046
0.00328291
0.0176787
0.0405022
0.0101097
0.0233648
0.0486695
0.0366522
0.00416827
0.00696403
0.00237406
0.0163104
0.00177565
0.0263286
0.00724469
0.0181417
0.00331392
0.00277855
0.040826
0.00487698
0.0029544
0.00307866
0.00462835
0.00517639
0.00244751
0.00301973
0.00251805
0.00417602
0.0257533
0.0109758
0.0213063
0.00320069
0.0332909
0.0111637
0.00349676
0.0143191
0.00789446
0.0405353
0.00708665
0.00844776
0.00200527
0.00554479
0.00258458
0.00428313
0.00244612
0.00470488
0.00169604
0.0196242
0.0206908
0.00323742
0.00268732
0.00444421
0.00340964
0.00268385
0.00355162
0.00362645
0.0278317
0.00350256
0.00178627
0.0272913
0.0056447
0.0276234
0.00509284
0.0156122
0.0227063
0.0030768
0.0245837
0.0264511
0.0366481
0.0303258
0.0266434
0.00222201
0.00983415
0.0018877
0.0049575
0.0174831
0.00274566
0.00188288
0.0026047
0.0377276
0.00389832
0.00755045
0.00707644
0.0030978
0.0303664
0.0287609
0.00386547
0.0260709
0.0020527
0.0216266
0.00586242
0.0156242
0.00170968
0.00175398
0.00284692
0.0236397
0.0369991
0.025972
0.00352441
0.0183471
0.0484786
0.0068623
0.0102522
0.0300529
0.00936203
0.0180173
0.00531458
0.00368569
0.00199643
0.0032531
0.0953031
0.00782146
0.035929
0.00186806
0.00329704
0.00594656
0.00290628
0.0105234
0.00751707
0.0364275
0.00384768
0.00886912
0.00187327
0.00206961
0.0185206
0.0442109
0.00233455
0.00283611
0.00219781
0.016139
0.00437479
0.0363626
0.025623
0.0224637
0.00231184
0.0302164
0.00731746
0.0417514
0.0212586
0.00390243
0.0207503
0.026766
0.0273374
0.00372095
0.00326988
0.00219739
0.0198238
0.0050156
0.00239449
0.00629478
0.0063409
0.0035217
0.0021621
0.00215511
0.035847
0.00328478
0.0134789
0.0154348
0.0224072
0.00208352
0.00227675
0.0094914
0.00370453
0.0442901
0.00709166
0.005404
0.0401504
0.00289026
0.00263953
0.00372188
0.0185157
0.00211187
0.0200037
0.0018281
0.0181642
0.0378681
0.00209665
0.00257422
0.0164031
0.00378948
0.00253761
0.00230271
0.0020171
0.0186813
0.0293257
0.00234434
0.00369197
0.003868
0.00292323
0.0205036
0.00457462
0.0188401
0.016014
0.00292711
0.00200223
0.00917385
0.00342734
0.00624335
0.0251748
0.0655485
0.00205668
0.00293197
0.0205386
0.0309165
0.0115553
0.00364279
0.00396516
0.037704
0.0107422
0.00294279
0.00226827
0.00287641
0.00361698
0.00720219
0.00175564
0.00351457
0.00248875
0.0109655
0.0278513
0.0370427
0.00609854
0.00816315
0.00351604
0.00306696
0.00226192
0.00263903
0.00201532
0.00271946
0.00307976
0.00227932
0.00884804
0.00292914
0.00286348
0.00979666
0.00277659
0.00991946
0.0281606
0.00607709
0.00452445
0.00489793
0.0056967
0.00488708
0.0103279
0.0202911
0.0037717
0.00305271
0.00386533
0.00651186
0.0322581
0.00684791
0.00849429
0.0363052
0.00410652
0.0287642
0.00623341
0.00341642
0.00406253
0.00471341
0.00751375
0.0250536
0.0330506
0.0660108
0.00207959
0.0210678
0.00299736
0.00270303
0.0224579
0.00175618
0.00959235
0.00189927
0.00632667
0.00606996
0.0136521
0.001628
0.00222413
0.043268
0.00267988
0.0252339
0.0448888
0.00438981
0.0165549
0.00242678
0.00261354
0.00209254
0.00847601
0.0119949
0.003864
0.00272121
0.00390868
0.0194209
0.032708
0.00621538
0.00313979
0.00696445
0.00200489
0.0118882
0.00952368
0.00285173
0.00253841
0.0026207
0.0103351
0.00767238
0.0112237
0.00504802
0.00385591
0.00725794
0.00839132
0.0255776
0.00358009
0.00401132
0.00305825
0.00246649
0.00382996
0.00200023
0.024534
0.00595558
0.0131976
0.0196909
0.0030932
0.0130489
0.00179126
0.0023137
0.00392742
0.0364793
0.00909131
0.00358551
0.00222599
0.0178847
0.00274714
0.0127001
0.00517805
0.0121936
0.00739972
0.003381
0.00270659
0.0453555
0.0044287
0.00259918
0.00286253
0.0100013
0.00348031
0.00309223
0.132285
0.00168819
0.0222648
0.00391273
0.0022983
0.00269404
0.0064166
0.00996673
0.0137079
0.0175395
0.0260339
0.00238128
0.00241476
0.0884047
0.0245776
0.00385182
0.00420207
0.0194975
0.00844259
0.00419788
0.00455651
0.00397236
0.0395558
0.00314017
0.0203292
0.0225636
0.0025534
0.0191436
0.0114706
0.0335925
0.0218389
0.0117667
0.0194682
0.00583104
0.0184393
0.00688719
0.0277586
0.0348826
0.00585355
0.0289824
0.0172938
0.00398905
0.0310683
0.00368243
0.0185498
0.0150721
0.0209577
0.00206611
0.0296741
0.0277985
0.00486707
0.00343025
0.00554944
0.0214454
0.00457046
0.0113533
0.00569815
0.015636
0.00907303
0.00174667
0.0095442
0.00208512
0.00423646
0.00494195
0.00232543
0.0465369
0.00557613
0.00657596
0.00320168
0.0312759
0.00651387
0.046581
0.00936873
0.00958222
0.0024212
0.00294896
0.00719342
0.00349321
0.0206722
0.00204574
0.00277324
0.0121777
0.00168395
0.0155009
0.0030299
0.00480737
0.0173355
0.0149945
0.0154946
0.00233156
0.00354601
0.0168705
0.00497676
0.00615318
0.0397077
0.0028235
0.0360495
0.0223952
0.00730324
0.00340422
0.00440722
0.0192652
0.00235102
0.00286995
0.00930967
0.0184033
0.0112328
0.0283901
0.0037427
0.0105008
0.00492326
0.0101987
0.00199424
0.00410066
0.0254826
0.00473609
0.00193915
0.0101661
0.046733
0.0154445
0.00390598
0.0193181
0.0111097
0.0176054
0.0040955
0.0107861
0.0206935
0.0202649
0.00201285
0.0351633
0.00326827
0.0304876
0.00244221
0.00909796
0.00325338
0.0264825
0.00390092
0.00209304
0.00341115
0.00225716
0.00912841
0.0405167
0.0400077
0.0312657
0.0465573
0.00323076
0.0261388
0.00207169
0.00362156
0.00567831
0.00271189
0.0335515
0.0171782
0.0195424
0.00361815
0.029579
0.00353538
0.00964207
0.0043119
0.0172756
0.0263278
0.0303396
0.00316914
0.0190927
0.00260599
0.00563468
0.00572702
0.0193265
0.0203607
0.00633838
0.00876548
0.0220201
0.00218673
0.00305575
0.0124014
0.00960416
0.00412395
0.00299979
0.00288902
0.0020811
0.00226031
0.00846298
0.0119393
0.00235791
0.0471195
0.0303762
0.00531864
0.00326581
0.00178525
0.0312554
0.0216072
0.00171594
0.00938051
0.00166772
0.0245997
0.00177974
0.00212258
0.00308829
0.0173225
0.0117691
0.0332069
0.0369151
0.00633842
0.0391709
0.005328
0.0137347
0.00555498
0.00475655
0.00264743
0.0339115
0.0525889
0.00253933
0.00528349
0.0267137
0.00283865
0.00296311
0.0274203
0.0382473
0.0418011
0.022816
0.0134547
0.0374823
0.0108162
0.00196446
0.0266062
0.0446511
0.00609853
0.00317623
0.00236584
0.00374732
0.00939862
0.0497339
0.00210602
0.0245117
0.00250487
0.0215017
0.00846189
0.00559826
0.00849806
0.00685145
0.0283053
0.00226946
0.0102216
0.00193618
0.0352782
0.00625197
0.0199086
0.00861073
0.0147339
0.0325063
0.00749344
0.00748896
0.00628661
0.0131154
0.00369277
0.0209348
0.0270273
0.020926
0.00512568
0.00718437
0.00524388
0.027224
0.00709615
0.0367424
0.0494364
0.00426857
0.00220991
0.0197151
0.0254079
0.010459
0.00238216
0.00626307
0.00295313
0.00579334
0.00444635
0.00348086
0.00379159
0.00185361
0.0191361
0.0381046
0.00551014
0.0019032
0.00212032
0.0101466
0.0451453