/*--------------------------------*- C++ -*----------------------------------*\
| =========                 |                                                 |
| \\      /  F ield         | OpenFOAM: The Open Source CFD Toolbox           |
|  \\    /   O peration     | Version:  2406                                  |
|   \\  /    A nd           | Website:  www.openfoam.com                      |
|    \\/     M anipulation  |                                                 |
\*---------------------------------------------------------------------------*/
FoamFile
{
    version     2.0;
    format      ascii;
    arch        "LSB;label=32;scalar=64";
    class       volScalarField;
    location    "64";
    object      k;
}
// * * * * * * * * * * * * * * * * * * * * * * * * * * * * * * * * * * * * * //

dimensions      [0 2 -2 0 0 0 0];

internalField   nonuniform List<scalar> 
59516
(
0.000300577
0.000673763
1.34247e-05
4.13925e-05
0.00752975
0.0173738
1.16604e-05
0.000313142
8.30597e-05
0.00271814
0.00333274
0.00257161
0.000109509
0.00696955
0.00225443
0.00240434
0.000412001
0.00419409
0.000827188
1.20248e-05
0.00445318
2.73717e-08
2.11649e-05
0.00389427
1.73854e-09
0.00192358
0.00378925
0.00553911
0.00282513
0.0055837
0.00702637
0.00516877
4.14629e-07
0.000142078
0.000705131
2.7067e-07
0.00543672
0.00420858
0.00108929
5.11182e-08
0.000274778
0.002593
0.000611042
0.000453789
0.000145864
0.00244603
0.000358206
0.0013656
0.0075895
0.00140185
0.00901515
0.00336887
1.27492e-05
1.03369e-05
0.00401214
0.000309736
0.00326064
0.00363563
9.35674e-06
0.001022
5.96402e-07
0.00517427
8.19105e-06
0.000367179
0.0001473
0.0003082
0.00642429
0.00339517
0.00615308
3.19443e-05
0.00499691
3.05965e-05
0.00552236
1.24913e-06
8.65726e-05
0.000485585
0.00103735
1.96479e-07
0.00320329
0.00125564
0.00368815
0.000758668
0.000484869
0.00551334
0.000845662
0.000125445
0.00379334
5.46887e-08
0.00230795
0.0023649
0.00530614
3.24541e-06
7.21657e-06
4.88816e-06
6.78168e-06
0.00777996
2.13838e-06
0.00234633
0.00325887
3.13521e-07
0.00379035
0.00548803
0.00536746
0.00229415
6.20756e-07
3.21069e-06
0.00381043
0.000145017
0.000403809
0.00207322
0.0046386
0.00445616
0.0022623
0.00452593
1.06628e-06
0.00035856
0.00225677
3.39819e-06
0.00509985
1.60067e-07
0.000134994
2.32132e-05
5.54785e-08
1.42288e-05
0.00395831
0.0013352
0.00580312
0.00239746
0.0105234
5.99323e-05
8.55384e-05
0.00016792
0.00518115
4.12131e-09
0.000524121
2.34398e-05
0.00442892
8.933e-09
0.00360141
0.000715217
0.00331345
2.26662e-05
0.00544947
1.91936e-06
0.000116159
5.53248e-08
0.000229245
0.000164011
0.0198314
0.000226848
0.000627716
0.00360436
5.566e-07
8.57191e-08
0.000684131
0.00582482
0.000119414
5.68981e-05
0.000930395
0.00551744
0.00210157
0.00197876
0.00391506
0.00651259
0.000377875
1.07247e-05
0.00213341
5.02338e-05
0.00543128
1.94294e-05
0.00087368
0.00249568
0.00161105
1.11981e-08
0.00300341
0.000487223
9.72769e-06
0.000857494
0.00197924
0.00348363
3.51703e-08
0.00423598
0.00656755
0.00189623
3.512e-05
0.00225237
0.00351508
0.00554404
3.12435e-05
0.000500478
2.21129e-05
0.0024697
3.89899e-06
0.00189585
1.62291e-08
0.00394336
0.00224675
0.00334991
0.000327954
1.648e-08
0.00123865
6.38865e-05
0.000352905
0.00548284
1.71469e-06
2.03252e-07
9.83089e-05
7.63506e-06
0.00576564
0.000233816
0.00281738
0.00735253
1.93583e-07
0.00247182
0.000113867
6.86174e-06
9.32855e-08
5.69343e-09
0.00247588
7.21608e-08
0.00253831
0.000573299
5.53211e-06
0.00370873
1.44754e-05
2.19765e-05
0.00466744
0.00321743
2.01434e-05
0.0024031
4.22642e-06
2.81977e-05
0.00011944
0.00485963
0.00387907
0.00344187
0.00199007
0.000206188
7.80206e-07
0.00266334
0.000105538
0.00563171
0.00225627
0.00563568
9.78916e-05
0.000626747
2.7554e-06
0.00209545
1.05969e-06
0.00024926
4.87402e-08
2.46244e-06
0.000150916
5.64477e-07
4.52123e-07
4.99427e-07
0.00264426
4.44837e-07
0.00326797
0.00219066
3.4849e-06
1.80939e-06
0.000227701
1.84068e-05
0.000306339
0.00221643
4.36253e-06
0.000698877
0.00335859
0.00236973
0.000810019
2.17543e-05
0.000413407
0.000723107
1.59927e-06
0.000653384
0.00486867
5.38661e-07
0.00477003
0.00337958
0.00010654
1.30691e-07
0.00528871
9.16927e-05
7.22664e-06
0.000256484
6.50749e-05
0.00546238
0.000130629
0.00027836
2.96956e-05
1.47334e-06
2.66879e-06
0.000586523
2.83536e-06
0.00449446
4.68234e-06
6.15643e-09
0.00015719
4.00881e-05
1.43457e-05
0.00210663
0.00523171
0.0041608
2.83056e-08
0.00555269
0.00244427
0.00274952
7.26622e-06
7.54479e-06
2.18598e-09
0.00210816
0.000374904
0.00381321
0.00281905
6.88599e-06
0.000542817
0.00821463
0.000820262
0.0034188
0.00224282
0.000318032
4.62748e-05
9.45096e-05
0.000207988
1.8097e-07
0.00162468
1.45544e-05
6.66076e-06
1.06678e-06
1.1044e-07
0.0022253
0.00537866
4.52917e-07
0.00313866
0.00377143
1.42891e-06
7.68574e-09
0.00292022
2.49751e-05
2.77856e-07
9.03886e-05
2.04424e-05
0.00353126
5.73956e-08
8.55689e-05
0.00238752
9.60289e-05
5.08634e-05
1.65859e-05
4.07597e-05
9.35067e-07
2.67451e-09
0.00133202
0.00405439
0.00367192
0.000616807
0.00602289
0.0111175
0.000962441
0.00021608
2.3533e-05
0.00260617
6.39076e-08
4.07e-07
9.38816e-08
3.81321e-07
0.00387609
0.00681933
0.00252434
0.00337932
0.00361156
2.04862e-06
0.000676552
1.20164e-06
0.00515194
4.84543e-06
0.00358899
1.48638e-05
0.00243823
0.00207945
0.000142995
0.00359214
0.00561612
0.0023683
2.35045e-07
0.00502534
0.00113037
0.00013745
6.36769e-08
0.000789347
0.000753813
1.24256e-06
0.00647879
7.96164e-05
0.00351443
0.00217654
0.00217592
4.68644e-05
2.73026e-05
0.0022759
1.87759e-06
0.000428739
6.35018e-05
5.03306e-05
0.0031554
2.53554e-05
1.97884e-07
2.93445e-08
7.6482e-08
0.00538688
0.00524628
2.08276e-06
2.29111e-05
0.000115593
0.00371388
1.45349e-05
0.000224616
5.70287e-05
3.78829e-05
8.64439e-05
2.16816e-05
1.48147e-05
0.000488224
6.42575e-05
0.00211062
7.52314e-06
0.000286487
3.53953e-07
5.54653e-05
1.43852e-08
7.10622e-07
0.00329211
0.00390481
0.00518324
0.00239838
7.1306e-05
5.62952e-07
2.16976e-05
0.00370078
0.00553035
9.45167e-05
5.13588e-07
3.64728e-05
4.23275e-08
1.65797e-07
0.00015882
5.67968e-08
0.00488709
3.99777e-05
0.00217022
0.0118144
3.54065e-06
0.000675951
2.5818e-07
0.00558066
4.84398e-05
0.000125618
6.5925e-05
0.000568848
5.28662e-07
2.23427e-05
0.000103159
0.000128934
0.00109768
1.70423e-05
1.02169e-08
0.00516355
6.45642e-05
6.60369e-05
0.00317804
0.00043456
4.94287e-06
3.65836e-06
0.00100138
0.00520655
1.83394e-05
1.98843e-06
1.07645e-06
4.61363e-06
0.00337969
3.27037e-07
0.00702642
9.52637e-06
0.00951585
1.96177e-05
0.00319684
0.00018492
0.000370638
0.00323322
0.000122004
6.40121e-05
0.00574899
5.30387e-06
0.000213681
0.00377906
0.00207488
0.00215451
9.80113e-07
0.000112623
0.00975481
0.00227839
0.00221408
4.35306e-05
0.000134288
0.00515079
5.59969e-08
1.07102e-05
3.98073e-05
0.0136548
2.12612e-06
0.00482538
8.73481e-06
0.00553087
0.00215235
3.40186e-08
0.00211776
0.00535963
0.0038944
0.0029294
0.00239274
2.19386e-09
0.00252069
0.00199559
0.00474705
3.37422e-05
0.00475012
0.000206445
0.00623956
1.8726e-05
0.00251967
3.36434e-05
0.00257178
1.90085e-05
7.06424e-05
0.00274961
3.90187e-06
0.00619088
0.00567466
1.2932e-08
8.04236e-05
1.21598e-06
1.48953e-05
6.82896e-05
0.00241685
4.89892e-06
0.00215294
4.58572e-05
4.6702e-05
0.00476251
2.55268e-08
0.0032095
0.00478008
1.48711e-08
0.00331949
2.8989e-06
0.000108929
1.23184e-05
0.00220629
4.00065e-05
0.00083875
8.68214e-05
4.5066e-06
7.44808e-05
8.47147e-05
0.00326022
0.00251077
3.13017e-05
1.72806e-07
0.00413111
2.60585e-06
2.57246e-05
1.81395e-05
7.46581e-05
5.11108e-05
0.0054299
1.12477e-05
0.000528774
9.02333e-07
0.000386351
0.00461661
0.000137753
0.000762138
2.44781e-09
0.000138652
1.25504e-07
0.00527481
0.00514216
9.55735e-05
4.20002e-06
0.000164093
1.19681e-05
0.000742807
1.91857e-07
4.26985e-05
0.00484165
0.000146814
0.00307276
0.00375373
0.00203513
2.79163e-08
5.3989e-08
1.05892e-07
7.45401e-06
0.000324665
0.0002098
0.000747246
1.51599e-05
1.6572e-05
1.27551e-05
5.04164e-05
0.00368615
1.99636e-06
0.00396425
0.0101764
0.00204543
0.00542856
1.86978e-07
0.00458831
6.04981e-05
3.29935e-06
4.66959e-08
1.73622e-05
0.0037115
0.00959711
0.00728776
9.94116e-05
6.71411e-05
0.00287576
0.00245401
0.000144713
0.00341517
0.00211656
0.00438386
0.00572504
0.00513235
0.00128689
5.87995e-06
0.00587174
0.00534733
0.000202053
0.00807889
0.00379412
3.92299e-08
0.000109951
5.36018e-07
0.00389596
0.00239518
6.99925e-05
2.40101e-05
4.03683e-07
0.0038397
0.00483124
0.0100841
0.00532272
6.33484e-07
0.00494944
0.000422234
5.70434e-05
6.74132e-07
0.00327916
0.000409055
0.00362192
0.0053562
4.73691e-05
0.00538068
6.70496e-06
0.00323551
2.91117e-07
2.80209e-08
0.00536396
0.00235379
1.95819e-08
0.00358646
8.53862e-06
0.00258029
0.000250859
9.52485e-05
0.00368351
0.00526552
0.00316512
0.00782828
0.000248833
0.0024817
0.000782103
0.00406207
0.000118072
0.00473829
1.14871e-06
1.58829e-10
9.06142e-06
0.00558291
9.16659e-09
0.000825524
5.72168e-07
0.00268835
0.0083674
3.29607e-08
0.00338644
0.000163142
0.00801174
1.11472e-05
0.00393888
0.00314186
8.6599e-05
6.21688e-06
0.00374649
0.000108962
0.00219692
0.00509004
4.22645e-05
0.00908434
5.99222e-08
1.84573e-05
4.56825e-05
1.13509e-05
2.45244e-07
0.00312243
0.00353159
5.24746e-05
0.00850149
3.85641e-05
6.74268e-06
0.00114288
3.80741e-08
6.12262e-06
0.000513406
0.000258049
0.00458088
0.0017557
0.00403021
1.6968e-07
3.06424e-05
0.000659883
0.000373315
0.00541515
0.0010262
0.0025317
2.29226e-05
5.70224e-05
0.00886824
2.52407e-06
0.000854987
0.00955208
8.41911e-06
0.00573177
5.71453e-05
0.00261966
2.30253e-07
0.00557575
1.80661e-06
0.00949672
2.44188e-07
7.18023e-05
1.18089e-07
6.96276e-08
6.87084e-05
0.00362585
0.00321777
0.00391444
7.81196e-05
9.40558e-07
4.85878e-06
2.30457e-08
0.00612671
0.000753227
0.000789033
4.39033e-05
6.3544e-06
9.21528e-07
0.000579662
0.000107768
0.00531337
0.000734692
3.46052e-06
0.00467534
0.00309854
0.00201677
0.00524363
0.000918255
4.39244e-06
0.00211777
0.00541459
0.000274283
0.00444711
0.000264035
4.12958e-05
0.000162929
3.86788e-05
6.335e-08
6.34679e-05
1.97476e-05
0.00370712
2.83929e-05
6.67587e-07
0.000818916
0.0006994
5.21547e-06
7.04051e-05
0.00173946
1.17572e-08
0.00371311
0.000756453
0.000498543
0.0022052
7.84881e-08
0.00727902
0.00181682
0.00379106
0.0055171
0.00210108
0.00537042
4.98581e-06
5.44848e-07
5.72974e-06
0.00348042
8.69212e-07
3.46279e-07
0.0055925
1.58968e-06
0.00559481
0.00320456
0.00541948
4.51489e-05
0.000192039
0.0049681
7.60279e-07
0.00531959
2.62771e-05
6.08033e-07
3.53687e-05
3.13958e-08
0.000225817
0.000456332
7.40097e-05
0.00590059
0.00381634
0.000364753
0.00041818
0.00554924
4.62055e-08
0.00427867
2.80764e-05
2.47521e-05
0.00111733
9.33907e-07
0.000218688
0.000765214
0.00328947
1.37212e-05
0.000362226
0.00375946
5.08805e-06
0.00011841
7.15076e-09
0.000543502
1.01215e-06
0.00022321
0.000848626
0.000305984
0.000550603
2.16594e-07
0.0020247
1.86753e-05
8.41159e-05
0.00878483
1.66499e-09
0.000275444
6.974e-05
0.00387556
0.00283149
3.89351e-05
1.71484e-07
3.92138e-07
0.000169346
1.0917e-07
0.000138081
6.83343e-05
0.0173181
0.000201461
6.9072e-05
0.00526214
1.9086e-07
1.14902e-06
0.00420239
6.9715e-07
8.93026e-05
0.000341916
7.30415e-05
0.000160863
3.54128e-05
0.00213853
0.00921977
0.00375632
0.000117942
4.85011e-05
0.00511207
0.00355986
0.00229805
8.14081e-05
0.00316292
6.17847e-07
3.88125e-05
1.42218e-05
1.35776e-07
0.000910584
0.00305897
9.06165e-07
1.92057e-06
9.39715e-05
0.000899767
9.47149e-08
0.000164366
8.23284e-05
0.00398575
4.0392e-06
0.000647201
0.0010227
0.00398914
0.00225933
0.000615241
5.46188e-05
0.00288752
7.66811e-06
1.26919e-06
2.87475e-05
6.04111e-05
3.41469e-06
3.74528e-05
5.1095e-05
9.45523e-05
0.00865935
1.09042e-07
0.000120053
0.00393816
0.00251509
9.63572e-06
1.33152e-06
0.00392525
6.77989e-06
0.000230268
0.000281962
0.000275233
0.000163118
1.77797e-07
0.000591346
0.000107225
0.0151069
0.00054045
0.000145057
0.00741488
0.000130953
0.0036384
0.000839649
2.71702e-05
0.00180769
0.00353354
4.38029e-05
8.28692e-06
1.36428e-09
0.00356006
0.000107388
0.00362084
0.000682111
0.0018701
0.00194131
0.000549029
0.000205817
0.00216385
5.22364e-07
1.66508e-05
0.000202654
0.000172035
0.000208994
8.70825e-05
0.00010884
4.649e-05
0.00204719
0.00017302
0.00303
0.0038686
1.51032e-05
0.0017798
0.00461115
0.000106354
0.000241281
0.000817655
0.00281768
0.00585245
4.25336e-06
0.000129096
7.93301e-05
0.00539428
0.00358008
0.000546263
0.00309647
3.55848e-06
3.57089e-05
0.00042225
0.00534759
0.000114322
4.09829e-06
0.00215785
0.000253603
0.000129887
0.0026364
7.10338e-06
9.43162e-05
0.000163513
3.22702e-06
0.00380914
6.27965e-05
5.64081e-06
2.6445e-05
0.00184389
7.49385e-06
0.000669466
0.000132287
0.00521496
0.000122831
0.00074417
0.00352334
1.25257e-05
0.00372294
4.71029e-07
0.000270465
3.82794e-05
0.00774146
0.000100189
0.000657487
0.00217748
0.000562399
1.69359e-06
0.00511496
2.40445e-06
1.17853e-07
0.00229371
0.00641903
0.00344799
8.34732e-05
1.0078e-08
4.71854e-05
0.000698768
0.00224617
4.10617e-07
0.00385517
0.000228609
0.000136415
0.000934731
0.00246937
1.06101e-08
0.00563943
0.000815127
4.15708e-08
0.000147766
0.00461215
5.71466e-07
7.36156e-06
0.00420186
2.19354e-06
5.04165e-06
2.04972e-05
0.000638342
0.00044063
0.00428435
9.29221e-06
6.91985e-09
0.00557564
0.0035935
0.00310407
9.35766e-06
0.000743439
5.98713e-06
0.00239067
1.09364e-05
0.00468462
1.75853e-07
0.00148118
2.99215e-06
9.82928e-05
2.81368e-09
3.64704e-07
0.00406251
0.00386234
2.70947e-07
3.02548e-07
0.00509875
0.0051792
1.34727e-05
2.09099e-09
2.19566e-06
0.000313463
8.18956e-08
5.39901e-08
2.77338e-05
0.00222049
0.00110846
0.00206925
5.41795e-08
0.00092007
0.00390955
0.00514649
9.81102e-06
0.000169236
0.000365467
9.80517e-06
3.55756e-06
0.00385783
3.64424e-06
6.00842e-05
0.00376791
0.00555381
4.5833e-05
2.68797e-05
0.00436098
0.00571838
1.53617e-05
0.000450069
0.00559013
0.00119206
1.73307e-05
5.24134e-06
4.82176e-05
5.75826e-07
6.60613e-08
0.00504739
0.00340873
8.03784e-05
5.30113e-06
0.000236838
1.77092e-06
0.00234694
0.00238872
0.00322029
0.000727023
0.0061643
9.40079e-09
5.12663e-09
0.000599672
0.00237192
0.00561021
0.00011979
2.79069e-05
1.50763e-05
6.36993e-05
0.000316577
3.583e-09
0.00359956
0.00264358
0.0173295
0.000238423
8.94665e-08
0.000264999
0.00224226
0.000867117
3.65886e-05
3.98714e-09
0.000679918
1.11919e-08
3.94763e-06
0.000298762
0.00238915
0.00544271
8.04482e-06
0.00400788
8.09208e-05
1.9017e-05
0.000811856
0.00513661
2.48253e-07
0.00196698
0.00536739
0.00531955
5.36933e-06
7.36731e-05
2.51272e-05
4.34283e-05
0.000862197
0.000227614
0.00558839
0.00359646
0.00371764
7.95255e-05
0.000336144
3.82221e-07
0.000217767
0.000156901
7.94033e-06
0.00602798
3.51753e-05
0.00513051
1.04617e-06
0.000221153
0.00481893
3.64679e-05
0.000401385
1.21191e-06
0.000608004
0.00202573
0.00400657
7.92707e-08
0.00354614
0.000178196
0.000273788
4.54599e-05
0.00151376
0.00399604
0.00265256
0.00364102
2.56551e-05
2.25192e-05
4.35812e-05
0.0027088
7.86912e-06
1.23006e-05
1.6769e-06
1.14811e-06
0.00416246
0.00350696
6.72044e-06
0.000158811
0.00221035
0.000117167
5.24294e-05
4.68339e-06
0.000573606
0.00520067
0.0123471
0.00252603
2.27855e-07
6.23074e-06
0.000163012
0.00512451
0.00361274
1.0775e-08
9.43614e-05
0.00213593
6.76785e-05
6.87973e-07
2.25609e-06
9.77683e-06
6.11374e-05
4.99479e-07
1.34032e-06
0.000344381
9.87672e-05
8.58671e-05
0.000971851
0.00185409
8.20881e-05
5.87217e-06
0.00387666
0.00228547
9.87733e-07
0.00297052
1.98011e-09
0.000415063
7.69704e-07
2.61167e-07
7.68358e-05
9.14999e-06
9.49706e-06
2.86031e-07
0.00301219
0.00474979
0.000360115
7.73989e-05
0.00535067
0.000816529
7.16167e-05
1.79648e-05
3.62785e-07
0.00579023
0.000270799
1.23082e-06
0.000894102
9.01014e-06
0.000102901
0.00571276
2.40203e-05
0.00524308
0.000523894
0.00558305
5.74216e-07
2.5901e-09
9.76822e-06
0.00541418
0.00253336
0.000674231
8.90105e-10
0.00236689
0.00247542
0.00059395
6.08017e-05
0.00385867
5.13719e-05
2.73088e-09
0.00207644
0.00209007
0.00451143
2.85438e-07
3.26796e-05
9.74123e-10
2.15038e-05
0.00041684
0.000406434
0.000467174
0.00482571
0.0038615
0.00473747
0.000835749
0.000121248
0.0036351
0.00534892
0.00233323
0.00553591
1.1955e-06
0.00545682
1.24545e-05
0.000149745
5.19933e-07
0.00209659
0.000120387
0.00362674
0.00231123
0.00011921
2.87474e-06
6.15389e-05
0.00923942
1.22021e-05
0.00536169
1.74744e-05
3.89597e-08
6.47583e-05
0.000783178
2.12078e-07
1.1949e-05
0.000560815
0.00280659
0.00399619
0.000252408
8.45171e-05
0.00392263
0.000806463
2.11749e-08
0.00372207
0.0050059
0.000380865
0.00410329
0.0021312
0.00552296
0.00229541
0.00376282
0.00522404
0.00373652
0.00582999
0.000264534
0.000821402
5.50196e-05
0.00536358
5.99961e-06
1.26576e-07
4.59843e-09
0.000183744
1.87457e-06
0.00372631
1.02794e-06
0.00910918
0.000753689
0.00014248
1.22118e-05
0.00546768
0.000114493
0.000718913
0.00551155
0.00378387
1.35615e-08
0.000520941
0.00490646
5.38338e-07
3.07004e-07
5.91682e-05
1.01055e-06
0.00333934
1.90527e-05
0.000849485
0.00301944
4.03998e-08
3.86335e-08
2.77168e-05
0.000600758
3.82697e-08
1.13583e-06
0.00362852
0.00033215
0.00031655
7.51837e-05
0.000773612
0.00019001
5.85832e-07
0.00631602
6.91657e-09
0.00682816
0.012764
0.00258578
2.00203e-07
5.72793e-08
0.00421437
5.38226e-07
0.000190737
0.00104104
8.85652e-05
0.00585275
0.00560576
0.00870831
0.00240274
0.00475317
3.71235e-08
0.00350789
0.000115902
0.00395188
0.00491583
0.000144459
0.00220978
1.67515e-05
2.80807e-06
4.28446e-05
0.00384592
0.00358542
1.25407e-05
1.4087e-06
0.00578722
9.76416e-07
0.00215854
0.000575399
1.95982e-05
5.95206e-07
5.02582e-05
0.000340858
0.000477099
0.000773771
0.00282402
0.00340072
0.00271081
0.0038491
0.000230965
3.19397e-06
0.00196967
0.00226437
0.000422064
8.58901e-09
8.32317e-08
0.00222701
1.82732e-06
0.00488827
0.0024521
2.16861e-08
0.00350649
0.000823067
0.000629204
6.83782e-05
0.000512363
1.78259e-06
0.000624272
0.00060367
1.90726e-06
0.000168848
1.73443e-06
0.00533455
0.00496623
9.21541e-05
0.000342571
1.51164e-07
0.00052493
0.000450164
0.0052685
5.67797e-06
6.70872e-06
9.98634e-07
0.000613972
0.00367644
0.00219698
0.0029597
2.27728e-05
0.00201144
0.000272273
0.00531393
1.46773e-05
0.0036247
0.00079847
7.67312e-05
0.00238013
1.95155e-08
1.34636e-06
0.00359174
0.0051131
0.00015144
0.00828954
2.39764e-06
9.21128e-06
0.000826808
2.05572e-07
0.00115835
8.37881e-05
0.00498811
0.00027275
1.9182e-05
0.000123261
0.00542461
4.84005e-07
4.69975e-06
0.000826043
2.51874e-06
0.00371122
4.79554e-06
0.00476957
1.02809e-06
3.21287e-05
2.34007e-07
1.48229e-08
0.00347944
0.0053566
0.00164939
2.91119e-05
0.00347328
0.000197921
0.00364652
9.1011e-05
0.00235249
0.00535596
0.000379139
5.41204e-07
0.000751492
7.99392e-05
4.6273e-05
3.87543e-07
0.00396021
0.000165195
0.00503212
0.00183403
8.971e-05
0.000151446
1.29633e-05
0.00601393
0.00332076
0.000355417
0.000281796
3.34417e-07
1.05477e-08
7.26835e-07
0.00588981
1.22365e-09
4.26934e-07
4.58212e-05
0.0026219
4.15202e-06
5.11111e-05
1.37506e-05
8.35611e-06
0.000401502
0.00221373
1.13587e-07
0.00336849
6.44003e-06
0.00063408
1.19176e-06
7.66845e-07
2.98255e-07
7.21627e-05
0.00365105
8.84933e-05
0.00240377
0.00521047
1.78916e-05
0.00343547
7.74569e-07
0.00534665
0.00332435
0.00242
0.00111384
1.68239e-05
0.00348334
0.00504571
5.59912e-06
0.000837495
9.05964e-06
0.000328237
0.00516102
0.000760759
0.003679
0.000169761
3.61979e-06
0.00216139
1.69172e-06
5.52251e-06
1.43786e-07
3.875e-06
4.608e-06
3.04412e-08
2.02236e-05
3.80682e-10
0.00434242
0.00570011
4.83473e-08
0.00613019
0.000106071
2.41894e-05
0.000862715
9.18451e-05
1.38998e-05
0.00372525
0.000210173
0.00235803
0.000619415
0.00308717
5.70077e-07
0.00014464
0.00124006
0.000332624
0.00341945
7.55393e-05
1.47019e-05
0.000782923
4.2278e-08
0.00550928
0.00516877
8.1005e-06
3.42713e-05
1.46774e-05
0.00036911
0.00621404
0.00018114
0.00189614
0.000115533
5.41391e-06
0.00380055
2.10908e-08
1.33452e-06
0.0038066
0.00450375
0.000156413
0.000643699
0.00533071
5.62247e-09
0.00347901
0.00562647
0.000795196
3.16621e-05
0.00016341
4.38113e-07
2.46745e-05
1.03221e-07
8.5361e-05
0.000169277
0.000209079
9.28794e-06
1.55992e-07
0.00533485
0.0036838
6.37927e-06
1.84705e-05
0.000258483
0.00537779
0.00545867
3.03845e-09
0.0046519
1.33149e-07
8.99193e-06
0.000149912
0.00347872
0.00193258
4.89754e-05
8.84292e-05
3.32142e-07
3.47729e-08
0.00219674
0.00510541
2.34937e-05
0.00544051
0.00294167
0.0036677
0.00339114
1.91775e-06
0.000132178
1.00169e-08
0.000195717
0.000577045
0.000477416
4.3818e-06
2.16626e-06
0.00238125
5.46007e-05
4.68869e-06
5.13353e-06
0.00383113
0.000150644
0.00548463
0.000708385
0.00347097
8.63029e-07
8.4154e-09
0.00945287
0.00482167
0.000661518
0.00235121
0.00555755
1.42062e-08
0.0052115
0.00241712
9.66018e-06
2.87868e-06
0.000101584
0.00352723
0.000272599
0.0022741
7.64257e-05
3.85215e-06
3.87896e-06
2.062e-05
0.00345641
4.4346e-08
2.79773e-05
0.000131821
5.61775e-07
1.66689e-06
6.47961e-07
0.000197494
0.00543278
0.00369013
0.000101301
9.67734e-05
1.4551e-08
0.00317502
1.5536e-05
0.00209525
2.50349e-06
1.71046e-08
0.000800148
0.00248533
0.00208342
0.0052897
1.92782e-07
6.34657e-11
0.00219444
6.75156e-05
0.00527351
2.19536e-07
1.82619e-05
0.00567287
0.000147497
6.50567e-05
8.96149e-07
0.00995912
0.00598475
0.00418923
0.0021699
0.00206093
0.00554303
0.00506572
0.00588536
0.000793021
1.27378e-05
4.17862e-06
9.09565e-06
9.96166e-05
0.00540618
4.29185e-07
1.71062e-05
0.00540562
0.0055486
0.00559243
0.00086057
0.0048151
4.08389e-07
0.00453027
0.000210394
0.000839674
0.00318275
0.000658734
5.21625e-07
9.07314e-05
3.125e-09
1.11443e-06
1.26982e-05
0.00254397
0.000286385
6.72077e-08
4.02301e-05
0.00546797
0.00135453
0.000235412
5.76633e-06
0.0001461
5.09847e-05
0.00208892
0.00398009
0.00568854
0.00050964
0.000191261
1.7003e-05
1.22504e-05
0.00305562
0.000207032
0.00268468
0.000324479
4.98111e-06
0.00325038
0.00306655
7.18457e-05
1.41388e-07
4.53163e-07
9.45319e-07
0.000940583
0.00190713
1.05542e-09
0.000313172
4.04771e-05
9.33579e-08
5.92945e-07
7.6248e-05
0.000752883
3.26044e-08
0.00538517
0.00348334
0.00596665
0.000414786
0.00013044
0.000585773
0.00237068
4.1694e-08
0.00296994
0.00210945
0.00522801
5.54838e-05
3.23526e-06
1.91484e-06
0.00518858
0.00298408
0.00267951
0.00524123
0.00325614
4.55096e-06
1.46443e-05
0.00487609
0.00367295
0.00217318
5.897e-05
1.13176e-05
3.08856e-08
0.000617114
9.22879e-08
2.21534e-09
0.000468557
0.00363453
0.000164063
2.89538e-07
1.03873e-08
3.20409e-05
5.49123e-09
1.32429e-06
0.00129523
6.23739e-05
0.00227909
0.00401039
6.70254e-07
8.82315e-06
0.00574509
1.56337e-05
0.00521925
2.06018e-08
4.3088e-08
2.986e-06
5.3026e-06
0.00236687
0.00565428
0.00235142
0.000134423
7.21156e-05
9.92252e-05
2.14842e-06
0.00416404
0.000825362
7.50448e-07
1.48347e-05
0.000143298
0.00505852
0.00242147
0.000214274
1.61142e-06
5.07871e-05
1.55443e-05
1.41577e-06
9.47058e-09
6.35936e-09
0.000449046
1.30712e-05
7.6805e-05
5.60738e-08
0.000756189
0.00493353
0.00514572
0.000950204
0.000206629
3.88048e-06
9.17767e-06
0.00516067
0.000177779
1.16222e-08
1.0909e-05
0.000722203
2.36707e-07
1.89288e-09
4.6896e-07
2.65332e-05
0.000184972
1.13016e-07
0.00315124
8.9129e-05
3.06977e-07
0.005348
4.00538e-05
3.66279e-07
2.74656e-07
6.93858e-09
9.56483e-06
0.00413862
5.78994e-06
0.000854561
1.2383e-05
0.00101732
1.28428e-06
9.6422e-07
0.000794521
9.41628e-06
0.00530341
7.68132e-06
0.00339875
0.00375431
9.45134e-09
0.00501664
3.09366e-05
1.73014e-06
4.69318e-06
0.00236979
0.000550137
0.00532661
5.06206e-08
0.00355907
0.000632687
2.30812e-08
1.60851e-08
5.74174e-06
9.75235e-08
1.41688e-07
5.45613e-05
2.18363e-07
2.3701e-07
2.70203e-07
0.00357511
0.000718861
6.66735e-05
3.12276e-05
0.00223
1.18463e-09
1.54795e-06
5.4958e-06
0.00518661
6.65743e-07
0.00542553
6.17623e-05
0.0049959
0.00342281
0.000220375
4.97018e-07
2.6258e-07
0.000154181
0.00450946
3.13334e-06
0.0050807
0.00469409
3.47146e-08
0.00260449
0.000647584
9.95168e-07
1.60682e-07
0.00533671
0.00218122
0.00380758
3.28248e-05
3.88987e-06
0.00197628
5.37391e-09
0.000737642
0.00218932
0.00116815
0.00481033
3.55688e-07
7.70587e-06
1.22882e-05
1.25361e-08
2.38793e-05
2.45557e-06
2.68014e-05
4.32263e-05
7.5268e-08
6.6393e-05
0.000393357
0.000716012
1.21933e-05
0.000905831
1.74696e-06
1.19835e-08
7.96277e-07
3.88862e-07
1.61963e-05
1.26281e-06
0.00367405
1.0827e-06
2.25938e-05
0.00198651
5.88155e-05
0.000111255
0.0103842
3.20279e-07
1.01962e-05
0.000608675
9.84857e-06
0.00331431
0.000162976
2.22514e-06
1.00937e-06
0.000632971
0.00243717
0.00235987
7.32103e-06
0.00349198
0.0039919
0.00557608
2.04166e-08
8.69041e-07
1.30673e-05
5.60947e-07
3.16433e-09
2.35893e-08
0.00252428
0.000168197
8.95385e-06
6.6491e-06
8.2653e-05
5.20114e-05
0.00408568
0.00585853
0.00556147
0.00183402
2.7207e-06
6.87163e-05
4.95729e-05
0.000761769
8.29896e-07
3.49134e-06
0.00538153
0.000123452
1.04384e-05
1.23836e-05
9.88881e-05
0.00215992
0.00259144
3.13243e-05
0.00316096
6.43158e-07
1.67923e-08
0.000419504
1.96541e-07
0.000701141
0.00183643
0.000464626
0.0001048
0.000649028
1.82125e-05
3.06286e-05
0.00256102
0.0035695
3.86516e-05
0.000121303
0.00230231
0.00380313
0.000698257
0.00514003
7.85135e-06
8.42154e-05
0.00310928
2.57792e-05
7.43173e-05
1.60824e-07
1.45426e-05
4.12144e-06
1.85366e-07
3.96072e-06
3.3609e-06
0.000847701
2.01478e-06
0.00196647
0.00106323
0.00231645
2.416e-05
0.000179721
1.4095e-05
1.01458e-06
0.000604631
0.000488276
0.00523235
0.000571433
0.00525735
0.000774272
1.37174e-07
4.84649e-09
2.8308e-06
2.13652e-08
0.00375971
0.00373405
1.37349e-05
0.000791604
0.00267324
5.15827e-05
0.0034512
2.29071e-06
6.49401e-08
1.23914e-07
6.6135e-05
1.17417e-05
0.000118106
1.87114e-06
0.0034672
2.02465e-05
0.00392502
0.00375554
0.00201684
9.84953e-08
0.000133515
0.000116795
0.00386072
0.0032431
2.53951e-07
0.0004725
0.00078301
0.000769727
0.00359255
0.00290331
0.00360556
0.00203447
8.99007e-06
0.00246496
4.44857e-08
0.00201594
0.00491701
0.000581505
0.00326259
0.0061028
0.00538118
7.01806e-06
5.37056e-05
2.55302e-05
0.0020766
0.000128917
0.00409702
0.000176778
0.00192726
1.25089e-06
3.08169e-07
0.00572886
4.83541e-07
1.2485e-05
1.6012e-06
3.43293e-06
2.68866e-07
2.12095e-05
7.47213e-08
3.70104e-06
7.86973e-07
0.0052011
0.000741308
0.00236582
5.00711e-08
0.0041524
0.000875813
6.61048e-10
0.00129886
0.000192377
0.00519611
7.8041e-05
0.000238675
3.14102e-05
6.20999e-06
1.06687e-06
1.63084e-07
7.94778e-07
1.45508e-06
2.8852e-05
0.00230059
0.0023818
2.02028e-08
1.16274e-05
1.83407e-07
1.15449e-07
2.96548e-06
9.26551e-07
8.88159e-08
0.00376698
3.24421e-08
5.44786e-05
0.00413888
6.85098e-06
0.00425021
8.44372e-06
0.00194411
0.00342288
2.38654e-08
0.00335087
0.00487941
0.00517313
0.00392757
0.00355432
1.6765e-05
0.000553932
6.18853e-05
1.32135e-07
0.00221008
2.00207e-06
7.69166e-05
3.50599e-06
0.00542683
2.4733e-08
0.000211102
9.42602e-05
1.72132e-06
0.00490562
0.00366564
6.40286e-08
0.00512303
4.82005e-05
0.00356162
9.85218e-06
0.00176529
0.000128312
9.14656e-05
2.44382e-07
0.00355515
0.0051346
0.00365738
1.69632e-08
0.00212924
0.00523836
0.000125031
0.000752921
0.00496946
0.000488219
0.00432256
1.91712e-06
5.66763e-08
3.15698e-05
3.08805e-06
0.00929968
0.000224633
0.00395229
3.30222e-05
1.32796e-07
0.000147354
2.45366e-06
0.000663684
0.000209187
0.00434554
6.59352e-08
0.000311997
9.82425e-05
9.48827e-05
0.00223297
0.0054135
5.64252e-07
3.94663e-07
4.35075e-06
0.00185586
7.37635e-07
0.00574643
0.00519121
0.00344665
1.0912e-05
0.00406255
0.0001152
0.00550606
0.0034319
6.49596e-06
0.00229449
0.0036584
0.0037653
1.65377e-09
1.28755e-07
7.50908e-05
0.00228676
3.72862e-07
3.6279e-08
0.00011566
6.08886e-05
7.00724e-07
5.47952e-06
3.71463e-05
0.00553168
4.1118e-07
0.00121909
0.00201111
0.0044642
7.57688e-06
2.35291e-06
0.000455812
5.70677e-08
0.00590868
0.000171049
9.55697e-07
0.00560522
1.1056e-08
4.51172e-06
2.66249e-07
0.00306146
8.5405e-06
0.00311871
6.58357e-05
0.00206897
0.00520636
3.28776e-05
2.49003e-07
0.00198585
5.62321e-09
1.69961e-06
7.1143e-07
1.95721e-05
0.00239212
0.00506193
5.08054e-06
4.39784e-08
3.74777e-07
1.41017e-06
0.00241027
1.27195e-08
0.00245891
0.00193466
1.72396e-08
0.000338083
0.000352869
4.39957e-07
0.000169314
0.00356638
0.00593864
2.2679e-05
1.18843e-06
0.00308253
0.00413191
0.000732692
5.40551e-07
2.68464e-07
0.00546544
0.000706927
5.54457e-07
8.40204e-07
1.78187e-07
4.69721e-09
0.000182098
4.98089e-05
3.10543e-09
5.99161e-07
0.000777828
0.00501786
0.00564879
1.30953e-05
0.000340596
8.1533e-08
6.57322e-07
2.44747e-06
1.96946e-07
7.4708e-06
3.74142e-07
3.97497e-08
1.84248e-06
0.000413966
1.7055e-07
1.31397e-06
0.00056158
4.26729e-06
0.000572401
0.00465897
2.13367e-05
7.63738e-07
1.82647e-07
7.22154e-06
2.53828e-06
0.000557702
0.00353107
8.80455e-09
1.23532e-06
1.50153e-08
1.45296e-05
0.00357078
0.00123875
0.000185241
0.00589752
1.46175e-06
0.00391096
0.000111726
7.1919e-09
9.04053e-10
5.8041e-08
7.58743e-05
0.00349441
0.0052639
0.00982533
0.000194797
0.00349352
5.55157e-08
2.87276e-06
0.00331058
0.00015043
0.00033184
4.06931e-05
4.06248e-05
6.1618e-05
0.0012579
6.1035e-05
3.86297e-06
0.00554606
6.46774e-06
0.00356107
0.0056975
5.02175e-06
0.00195314
1.17428e-06
4.56158e-07
1.87617e-05
0.000474484
0.000776957
3.38541e-07
1.16278e-08
1.38569e-07
0.00285004
0.00441329
0.000103618
9.28096e-07
0.000213612
7.8233e-05
0.000790318
0.000551655
9.7451e-08
3.55967e-07
5.8335e-07
0.000683492
0.000196261
0.00095144
2.36273e-07
7.98004e-08
0.00018375
0.000373433
0.00376245
1.31821e-08
6.62909e-07
4.58977e-08
1.53371e-05
2.49829e-08
8.26351e-06
0.00358313
1.55622e-05
0.00186191
0.00297517
4.03463e-08
0.000870391
2.21856e-05
3.3683e-06
1.28456e-07
0.00518961
0.000497068
2.74852e-07
1.61134e-06
0.00207082
2.4153e-06
0.00099057
1.48399e-06
0.000995856
0.000246282
4.42662e-10
5.2557e-08
0.0057236
2.26786e-07
1.18117e-08
7.15567e-07
0.000516449
1.70253e-07
1.48452e-07
0.0123949
9.58025e-05
0.00331721
5.92034e-10
1.18622e-05
1.49181e-06
0.000138186
0.000612605
0.00103563
0.00307613
0.00496335
2.15079e-06
4.75333e-07
0.00888793
0.00346008
1.71399e-08
3.8479e-06
0.00256001
0.000226825
2.15015e-08
4.76747e-10
2.42048e-09
0.00553579
1.06721e-08
0.00177647
0.00357329
4.68033e-07
0.00216359
0.000662972
0.00506699
0.00371664
0.000723378
0.00233039
9.28369e-06
0.00253899