/*--------------------------------*- C++ -*----------------------------------*\
| =========                 |                                                 |
| \\      /  F ield         | OpenFOAM: The Open Source CFD Toolbox           |
|  \\    /   O peration     | Version:  2406                                  |
|   \\  /    A nd           | Website:  www.openfoam.com                      |
|    \\/     M anipulation  |                                                 |
\*---------------------------------------------------------------------------*/
FoamFile
{
    version     2.0;
    format      ascii;
    arch        "LSB;label=32;scalar=64";
    class       volScalarField;
    location    "64";
    object      momentum:cyl_r;
}
// * * * * * * * * * * * * * * * * * * * * * * * * * * * * * * * * * * * * * //

dimensions      [0 1 0 0 0 0 0];

internalField   nonuniform List<scalar> 
59516
(
0.0699395
0.0711786
0.0660586
0.0600118
0.0120662
0.0935671
0.0605353
0.0707252
0.0674034
0.0846656
0.00846794
0.0844271
0.0657052
0.0962294
0.0835117
0.0859828
0.0308383
0.0849
0.0670713
0.0376145
0.0884718
0.051561
0.0466309
0.0905506
0.0453237
0.0821001
0.090745
0.0896955
0.0821137
0.0962336
0.0758087
0.0896025
0.0582821
0.0660506
0.0548
0.0520181
0.0962485
0.0854163
0.0742516
0.0449129
0.0711299
0.0414369
0.0495581
0.0710055
0.0530332
0.0853678
0.0582397
0.029825
0.0476018
0.0426855
0.0724125
0.0892319
0.063939
0.0612037
0.088204
0.060569
0.0367165
0.0883822
0.0309423
0.0569522
0.0493432
0.0957324
0.036926
0.0348498
0.0636013
0.049688
0.0952159
0.089923
0.0606587
0.0580551
0.0932363
0.0379325
0.0951531
0.0525131
0.0216082
0.0407532
0.0322885
0.0505024
0.0891035
0.0428316
0.090519
0.0491549
0.0549264
0.0956509
0.0497673
0.0271954
0.0909321
0.0495583
0.0851128
0.0737799
0.0283927
0.0535869
0.0307817
0.0558402
0.0409381
0.034413
0.0538206
0.0858634
0.0845174
0.0503899
0.0893181
0.0949937
0.0951936
0.0851886
0.0582906
0.050054
0.0897664
0.0689167
0.0703063
0.0825246
0.0596849
0.0933491
0.0818078
0.0696059
0.0437543
0.0731788
0.0847166
0.0577263
0.0953476
0.0498722
0.00825741
0.0360932
0.0452272
0.0371678
0.0529975
0.0765582
0.0943905
0.0539101
0.087353
0.0224578
0.0147318
0.0676637
0.0952759
0.0507388
0.0714347
0.0653276
0.075622
0.0600368
0.0896328
0.0728001
0.0891139
0.017562
0.0961535
0.0613641
0.0258712
0.0532799
0.0543912
0.0662648
0.0952189
0.0678546
0.0722323
0.0903723
0.0386206
0.0473518
0.0750295
0.0962247
0.0644404
0.0665795
0.0774101
0.0959934
0.0826026
0.081964
0.0907375
0.0956176
0.0719089
0.032562
0.0836644
0.0233528
0.0957543
0.0562302
0.0774584
0.0868917
0.0818023
0.056158
0.0886024
0.0581399
0.0363687
0.0462075
0.0814766
0.0911513
0.0507427
0.0916418
0.0950103
0.0836107
0.0235551
0.0843533
0.0917846
0.0956457
0.0636284
0.0724547
0.0572022
0.0861519
0.0384058
0.0846709
0.0473622
0.0924612
0.085774
0.0910144
0.0684489
0.0484684
0.0770431
0.0114058
0.0712493
0.095922
0.0602723
0.0531859
0.0197695
0.0458448
0.0957857
0.0655033
0.0863209
0.0953238
0.0523141
0.0845111
0.0652839
0.034772
0.0542094
0.0457067
0.0853075
0.0456808
0.0853249
0.0700892
0.0387252
0.0888377
0.0335676
0.0327294
0.0941206
0.0892785
0.032933
0.0848938
0.0323423
0.0318235
0.0151203
0.0948144
0.0913238
0.09139
0.0835733
0.0710429
0.0442215
0.0850474
0.0109861
0.0955889
0.0857826
0.0949044
0.0195766
0.0758742
0.0499471
0.0821259
0.0357408
0.0698781
0.0394558
0.0536284
0.00335707
0.0514521
0.0512011
0.0442859
0.0877306
0.046668
0.0896442
0.0830988
0.0589119
0.041179
0.0676036
0.0293211
0.0729748
0.0846942
0.0416891
0.0750931
0.0875347
0.086999
0.0729346
0.0316532
0.0726136
0.0735309
0.0380877
0.0741017
0.0955296
0.0405361
0.0945485
0.0900904
0.0193863
0.0548744
0.0948602
0.0637918
0.0623428
0.0327682
0.0222437
0.0946142
0.0198969
0.00862076
0.0304474
0.0583245
0.0559245
0.0733938
0.0339023
0.0935265
0.0411881
0.0526063
0.0082854
0.0338165
0.0641864
0.0853006
0.0953174
0.0940904
0.0418684
0.0957728
0.085537
0.0859314
0.0333937
0.0312587
0.0463428
0.0846628
0.0698063
0.0897506
0.08644
0.0416687
0.0729297
0.0440566
0.0751634
0.0902314
0.0828952
0.0691689
0.028029
0.0146697
0.00987496
0.0424545
0.075341
0.0605533
0.0369761
0.0426398
0.0406782
0.0846811
0.0952308
0.0487065
0.0895898
0.0912027
0.040275
0.0525884
0.0857129
0.0310186
0.0377864
0.0183221
0.0290002
0.0913322
0.0442892
0.026367
0.0852103
0.0178611
0.0282179
0.0588633
0.0604777
0.0480027
0.0525543
0.080305
0.091944
0.0903746
0.0725324
0.0838769
0.088799
0.0785072
0.0663765
0.0583044
0.0147081
0.0454288
0.0579403
0.0490663
0.0490806
0.0910273
0.0726398
0.0850605
0.0903418
0.0901275
0.0418399
0.0733467
0.0416047
0.0957935
0.0603025
0.0898285
0.0379801
0.0882171
0.0829298
0.068959
0.00801448
0.0955491
0.0845955
0.0579127
0.0950514
0.0599656
0.0660402
0.0582493
0.0741748
0.0748888
0.0399456
0.0855305
0.0160638
0.0723716
0.0831591
0.0832228
0.0216806
0.024887
0.0865951
0.0593421
0.0734565
0.0209892
0.0228373
0.088645
0.05892
0.0518144
0.0506257
0.044909
0.0951201
0.0955122
0.0610608
0.0269227
0.0165646
0.0907322
0.0346254
0.0685297
0.0250874
0.0258112
0.0173439
0.0293023
0.0307083
0.0750772
0.0217197
0.0839116
0.0370743
0.0693471
0.0461833
0.0284766
0.0518341
0.0510152
0.0897708
0.0909077
0.0955693
0.0334943
0.00552171
0.054049
0.061783
0.091557
0.0952986
0.0661835
0.0481751
0.0267693
0.0461054
0.0571157
0.0050439
0.0567393
0.0943526
0.0620788
0.0848495
0.0897372
0.0466323
0.0735991
0.052181
0.0955917
0.0221584
0.0224616
0.0241879
0.0739742
0.046962
0.0303582
0.0637847
0.0178515
0.0738859
0.0319651
0.0491259
0.0955102
0.023621
0.0637091
0.0883879
0.0736873
0.0364987
0.0596481
0.0769361
0.0957475
0.0275718
0.0614182
0.0417218
0.0618542
0.0909771
0.0543445
0.0952825
0.0407061
0.0724479
0.0356019
0.088119
0.0694515
0.0728753
0.0908068
0.00751122
0.0297185
0.0956066
0.0400998
0.0120398
0.0898041
0.0825268
0.085083
0.045253
0.0215125
0.0950583
0.086332
0.0857315
0.065236
0.018753
0.0952416
0.0438319
0.0459767
0.0226446
0.0940085
0.0356703
0.095101
0.0382791
0.0950873
0.0842343
0.0474097
0.0838407
0.0956444
0.0901037
0.088181
0.0849014
0.0516545
0.086866
0.0830961
0.0439954
0.0334848
0.0944178
0.0684405
0.085144
0.0316962
0.0859792
0.0371317
0.0842232
0.0623515
0.0255613
0.0877171
0.0305991
0.0900064
0.096065
0.0509487
0.0190791
0.0600215
0.0609545
0.0220387
0.0841588
0.0365595
0.08453
0.0291466
0.0633174
0.0944537
0.0459665
0.0879265
0.0943627
0.0505379
0.090552
0.0560014
0.0206536
0.0591188
0.0851342
0.0243076
0.0768192
0.0100134
0.0231606
0.0181634
0.0216795
0.0899762
0.0861135
0.0249762
0.041526
0.0914212
0.0412426
0.0215741
0.0272538
0.0194168
0.0661537
0.0956004
0.0283536
0.0712744
0.0473613
0.0724854
0.0940676
0.0179316
0.0747521
0.0569922
0.0137591
0.0537593
0.0963093
0.095539
0.0265333
0.0361236
0.00963612
0.0477765
0.075791
0.0509203
0.0277455
0.0953933
0.0215627
0.0534044
0.0901604
0.084195
0.0528061
0.0527838
0.0566498
0.0633342
0.0706161
0.0133029
0.0732478
0.028583
0.0336972
0.01162
0.0274833
0.0890461
0.0403702
0.0915021
0.0871121
0.0847271
0.0346931
0.0562384
0.0694644
0.0333412
0.0296565
0.0470473
0.0319707
0.0910945
0.0447401
0.0510772
0.025615
0.0673911
0.0523204
0.0249227
0.0670493
0.0907403
0.0860115
0.0945338
0.0953665
0.0938866
0.0567841
0.054801
0.095631
0.0956008
0.0025313
0.0824244
0.0903801
0.052927
0.0691021
0.0570455
0.0899749
0.0856584
0.0663631
0.0334747
0.049528
0.0906562
0.0950466
0.0840265
0.0946401
0.0579478
0.0947175
0.0693249
0.0250968
0.0279182
0.090108
0.0709943
0.0912775
0.0948538
0.0280474
0.096117
0.0379553
0.0882879
0.0454212
0.0531855
0.0956161
0.0850458
0.0510484
0.0909506
0.0397422
0.0857433
0.0702267
0.0188473
0.0901383
0.095449
0.0882078
0.0619232
0.0712773
0.0856816
0.0774524
0.0921395
0.0176117
0.0947783
0.0373874
0.0537911
0.0367961
0.0961476
0.0493779
0.0769498
0.0449678
0.0861908
0.0558987
0.0450405
0.0904813
0.00256416
0.0706748
0.064617
0.0915044
0.0867433
0.0217078
0.0593502
0.0913433
0.0675789
0.0842764
0.0949472
0.0262037
0.0534182
0.0596253
0.0328041
0.0290349
0.0347094
0.0593611
0.0886997
0.0898072
0.0223509
0.0519754
0.064371
0.0603932
0.0783338
0.0514385
0.0400098
0.073011
0.0715074
0.0900699
0.0806001
0.0904411
0.0471816
0.0302894
0.0746063
0.0723582
0.095704
0.0783654
0.0849235
0.0286278
0.0274172
0.0561371
0.0417915
0.0786496
0.0711516
0.0568937
0.0947663
0.0271476
0.0874305
0.0552159
0.0945046
0.0317519
0.0484875
0.045482
0.0669647
0.0507025
0.0487421
0.0186078
0.0905077
0.0878336
0.0927322
0.0293863
0.0459347
0.0567176
0.0445323
0.0962488
0.0722377
0.0762979
0.029625
0.0605445
0.0519596
0.0697742
0.0205663
0.0956838
0.0773041
0.0473646
0.0942723
0.0900368
0.082421
0.0956737
0.0736614
0.035625
0.0840035
0.095981
0.070053
0.0943097
0.0713946
0.0301478
0.00607059
0.0336767
0.041248
0.0289458
0.0592413
0.0906745
0.0300571
0.0620976
0.0762129
0.0732082
0.0399473
0.0671764
0.0823577
0.0464575
0.0907068
0.0755478
0.0728205
0.0832429
0.0440688
0.0748136
0.0622177
0.0913841
0.0947612
0.0847455
0.0955423
0.0610861
0.0469582
0.060288
0.0732579
0.0570646
0.0499926
0.0951408
0.0449895
0.0328708
0.0900276
0.0953795
0.0659641
0.0683735
0.094827
0.0413622
0.0953827
0.0278328
0.0457318
0.0625015
0.0462075
0.0445734
0.0706618
0.022897
0.0962849
0.0912808
0.0711895
0.0716097
0.0959398
0.0536063
0.0454502
0.0276464
0.0360198
0.0778041
0.0470765
0.00576263
0.0746313
0.0876631
0.0356691
0.0724639
0.0897438
0.0404562
0.0287076
0.0466163
0.0749254
0.0599207
0.0686406
0.0770329
0.0711313
0.0733696
0.0585533
0.0839621
0.0430703
0.0259381
0.00425683
0.054366
0.0674437
0.0608535
0.0902479
0.0880153
0.061755
0.0538915
0.0578727
0.0122297
0.0488078
0.0119701
0.0175238
0.0956031
0.0656127
0.0238086
0.0951339
0.0538182
0.0480192
0.0920392
0.0466902
0.0258751
0.0709558
0.0278004
0.0147873
0.0294756
0.0834793
0.0436584
0.0893732
0.0682913
0.031532
0.0947317
0.0857292
0.0852376
0.0644244
0.0899666
0.0486968
0.0320118
0.0332881
0.0450099
0.0754605
0.0867211
0.0448671
0.0403285
0.0636116
0.0767377
0.0460761
0.022436
0.0187337
0.0906496
0.0222038
0.0740876
0.0774943
0.0902648
0.0856577
0.0763844
0.0297864
0.0903252
0.0368189
0.0355352
0.0374112
0.0213995
0.0351826
0.0242415
0.0292592
0.0170569
0.0235009
0.0577592
0.0648814
0.0903547
0.0865739
0.0421632
0.0607727
0.0904434
0.0383694
0.0691308
0.00813359
0.00635798
0.0201352
0.0506185
0.0745252
0.0239529
0.0935646
0.0728104
0.0208334
0.0841385
0.0252074
0.0909308
0.0769567
0.0400401
0.0823409
0.0899666
0.0389003
0.0451236
0.0497367
0.0902996
0.0304483
0.0907795
0.0756798
0.0841463
0.0848309
0.0724665
0.0117509
0.0834818
0.0462787
0.0377438
0.0691765
0.0169389
0.0109163
0.0674412
0.0117646
0.0308973
0.0826598
0.0144109
0.0883543
0.0907829
0.0360623
0.0410978
0.093274
0.0250238
0.0686013
0.0778636
0.0299417
0.0954225
0.035501
0.0289342
0.0665136
0.0944692
0.088617
0.0727507
0.0887206
0.0573348
0.0586505
0.0711783
0.0959179
0.0679352
0.0360035
0.0421469
0.0125448
0.0245367
0.0764239
0.0433754
0.0217932
0.0682501
0.0537817
0.0913317
0.065758
0.0453424
0.0106304
0.0823906
0.0432133
0.0744257
0.0669468
0.0953512
0.0633942
0.0766824
0.0902502
0.0635393
0.0894317
0.0427556
0.0692757
0.024239
0.0890256
0.00733333
0.0742106
0.0856268
0.0727314
0.0540921
0.0954472
0.0417234
0.0490368
0.086877
0.0955314
0.0885389
0.0083859
0.0496459
0.0303632
0.0727146
0.0856429
0.0494615
0.092552
0.0699296
0.0223269
0.0504422
0.0854358
0.0524281
0.0949279
0.0764994
0.0461159
0.0162927
0.0907799
0.0461463
0.0620049
0.0940162
0.0380511
0.0439637
0.0116794
0.0526659
0.0729666
0.093825
0.0370826
0.0508939
0.0948994
0.0901614
0.0889315
0.0311456
0.073916
0.0396779
0.0866832
0.0308438
0.0948882
0.0572618
0.0656019
0.0377546
0.022618
0.0556772
0.0558137
0.0922345
0.0910733
0.0514719
0.0565217
0.0952344
0.0941946
0.0389447
0.0487859
0.0415109
0.0708137
0.0553945
0.0373102
0.033773
0.0838058
0.0763044
0.0846851
0.0518197
0.076274
0.0913459
0.0941564
0.0281687
0.0678657
0.0732298
0.0417397
0.0404526
0.0918975
0.0369932
0.0270703
0.0891998
0.0947777
0.0312989
0.0196897
0.0917105
0.0960684
0.0253913
0.070611
0.0950526
0.079163
0.025238
0.0319678
0.0287749
0.0544811
0.0393731
0.095173
0.0913568
0.0241835
0.0334912
0.0713427
0.0466616
0.0871959
0.08576
0.0887237
0.045957
0.095455
0.0474259
0.0549076
0.074783
0.0835969
0.0952452
0.017389
0.0193975
0.0653131
0.0244004
0.0712086
0.0474648
0.0889104
0.0842743
0.0953983
0.0685064
0.0538491
0.0710751
0.0862116
0.0756747
0.0652961
0.0526425
0.0726677
0.0474177
0.0339582
0.0707527
0.0856161
0.0946393
0.039467
0.0919345
0.065809
0.0619204
0.0767435
0.0954857
0.050187
0.0844346
0.0960958
0.0954869
0.0568698
0.0238533
0.0605464
0.0596728
0.0775448
0.069096
0.0916125
0.0910581
0.0897304
0.016745
0.070826
0.0514638
0.068445
0.069579
0.0587699
0.0946021
0.0629799
0.0955345
0.0399546
0.0692325
0.0955392
0.0175544
0.0740589
0.0585338
0.0753749
0.0857362
0.0925125
0.0472938
0.089327
0.0210489
0.0100121
0.0612977
0.0825874
0.091983
0.0386103
0.0900667
0.0389152
0.0383831
0.0308325
0.0860802
0.0413485
0.0398554
0.0437734
0.0412728
0.0925686
0.088797
0.0355736
0.0695675
0.0829887
0.0156886
0.0615424
0.0609171
0.073132
0.093943
0.0953971
0.0870417
0.0441568
0.034649
0.0632738
0.0954536
0.0907922
0.0511574
0.0641294
0.0823218
0.0131629
0.0421251
0.0386952
0.0327642
0.019207
0.0412893
0.0531747
0.0653724
0.0647135
0.0662905
0.07904
0.0844414
0.0149551
0.0594617
0.0910388
0.0854882
0.0318627
0.0880087
0.051277
0.072679
0.0375949
0.0509155
0.0673528
0.0249792
0.0338387
0.039694
0.0888362
0.0937652
0.028234
0.0129591
0.0953952
0.0761328
0.061853
0.0298384
0.0552854
0.0958503
0.070036
0.0561077
0.0776725
0.0277186
0.0647461
0.0953248
0.0619667
0.0950776
0.0749797
0.0958499
0.0443788
0.0488742
0.026029
0.0954276
0.0847707
0.0764151
0.0476505
0.0871235
0.0860436
0.0748459
0.0238541
0.0904979
0.0112871
0.048311
0.0827496
0.0837642
0.0942746
0.0394793
0.0215291
0.0533764
0.0625044
0.0731854
0.0709046
0.0735886
0.0953397
0.0917598
0.0944649
0.0735047
0.01142
0.0912092
0.0962653
0.0866319
0.0946259
0.0455191
0.0946218
0.0335835
0.0140732
0.0520818
0.0832218
0.0284229
0.0912002
0.0843424
0.0188039
0.0382575
0.063535
0.0287945
0.0366383
0.0954355
0.0583065
0.0455175
0.0269764
0.0747008
0.0454171
0.0232571
0.0703504
0.0877867
0.0920821
0.0691663
0.0184274
0.0912325
0.0771953
0.0383566
0.0906408
0.0945425
0.0719952
0.0861989
0.0832626
0.0953919
0.0851714
0.09056
0.0958656
0.0900399
0.0953921
0.0695535
0.0769625
0.023811
0.0957964
0.0287073
0.0603172
0.050737
0.0667593
0.0456738
0.0910769
0.0422399
0.0429613
0.0732002
0.0111119
0.0610534
0.0962702
0.0626564
0.076343
0.0938937
0.0908674
0.0558629
0.073405
0.0954495
0.0493205
0.0545804
0.0210478
0.0380901
0.0891695
0.066403
0.0759153
0.0445344
0.054645
0.0534436
0.033829
0.0744508
0.0459251
0.0595817
0.0398802
0.0704814
0.0698633
0.0633363
0.076269
0.0189627
0.0575575
0.0882009
0.0552917
0.0883358
0.0949106
0.0856475
0.0545334
0.0550991
0.0135791
0.0456271
0.0666
0.0776226
0.0677468
0.0954613
0.0948815
0.0937486
0.0847902
0.0932094
0.0416935
0.089561
0.0657348
0.0919392
0.0949426
0.00867541
0.0848002
0.0410083
0.0604111
0.0337036
0.0904135
0.0888657
0.0611164
0.0484646
0.0953557
0.0581827
0.0849424
0.0688655
0.0254075
0.0482919
0.0245394
0.0727635
0.0723336
0.0758688
0.0864381
0.0913728
0.0861322
0.0921729
0.0690114
0.032816
0.0812663
0.0851228
0.0730709
0.0503884
0.0459294
0.0846983
0.0581705
0.0954045
0.083985
0.0498611
0.0888451
0.0765427
0.0729752
0.0642978
0.0709261
0.0498367
0.0753849
0.0707079
0.0376367
0.0683818
0.0393308
0.0954419
0.095887
0.0625933
0.0712859
0.0486102
0.0691632
0.0727193
0.0959529
0.0571801
0.0612347
0.0515836
0.0747399
0.0898724
0.0848201
0.088663
0.0632663
0.0830568
0.0694062
0.0954625
0.0656857
0.0899867
0.0775068
0.0274844
0.0850404
0.0494017
0.044026
0.0901038
0.0951609
0.0656451
0.0952446
0.046956
0.0372351
0.076445
0.0504802
0.0721846
0.0646614
0.0949511
0.0684051
0.0652598
0.00835201
0.096141
0.0414543
0.0603786
0.0774173
0.0580147
0.0911195
0.0389205
0.0949978
0.0486686
0.0622554
0.0530908
0.0593432
0.0902121
0.0952615
0.0231133
0.0263881
0.0896991
0.0688199
0.0916704
0.0619967
0.0846455
0.0956534
0.0732776
0.0498379
0.0752186
0.0250054
0.0664826
0.0561383
0.0912036
0.0208562
0.0945191
0.0824464
0.0284233
0.0222957
0.0603737
0.094721
0.0894119
0.0029272
0.0108805
0.0517359
0.0506203
0.0464445
0.0961755
0.0585554
0.0529133
0.0582117
0.0856253
0.0609604
0.0292108
0.0568492
0.0351017
0.0100949
0.0856846
0.0468069
0.0900794
0.043762
0.0744189
0.058684
0.0470102
0.0366722
0.0271954
0.0908413
0.0035858
0.0859251
0.0950046
0.0608702
0.088858
0.0461829
0.0956845
0.0884211
0.0867084
0.0766184
0.0607016
0.0915765
0.0948702
0.0532957
0.0732178
0.0286705
0.0717207
0.0955333
0.0759974
0.0897532
0.0678861
0.0469533
0.0858262
0.0470426
0.0290602
0.0426771
0.0382332
0.0276324
0.0449311
0.0287348
0.0530889
0.0935133
0.0955683
0.0540297
0.0952586
0.0658046
0.0641293
0.0777479
0.0156144
0.0616704
0.0902476
0.0110877
0.0868721
0.0737873
0.0870839
0.0597742
0.0143329
0.0800312
0.0710668
0.0897697
0.0620492
0.0641333
0.0760115
0.0538664
0.0960784
0.0949316
0.0268498
0.0622109
0.0325332
0.0715107
0.0959424
0.00129263
0.0840735
0.00898227
0.0415282
0.090989
0.0482624
0.0376281
0.090893
0.0934867
0.0101208
0.0719169
0.095133
0.0477921
0.0883875
0.0949519
0.0735622
0.0279935
0.0170987
0.0517002
0.0341226
0.0515845
0.0271542
0.0669647
0.0704841
0.0288561
0.0512787
0.0959079
0.0901488
0.0624244
0.0367682
0.0655395
0.095305
0.0948832
0.0522849
0.0942087
0.0490817
0.0375443
0.0191956
0.0894763
0.0815721
0.0294341
0.0652052
0.0483314
0.056306
0.0855178
0.0944931
0.0305496
0.0945413
0.0874166
0.0916284
0.0897635
0.0382506
0.0153253
0.0509987
0.0693257
0.074197
0.0744829
0.0363368
0.0464497
0.0871234
0.0190558
0.0408681
0.0412074
0.092272
0.0637776
0.0948762
0.0740188
0.0896804
0.0439607
0.054286
0.0564468
0.0949768
0.0769682
0.0845781
0.095977
0.04883
0.0953712
0.0859948
0.0325116
0.0401195
0.0137693
0.0908167
0.0697158
0.0866227
0.0204256
0.0428137
0.0366724
0.0293482
0.0900985
0.0539277
0.0647449
0.0156269
0.0372852
0.0371468
0.0409184
0.0139663
0.09577
0.0900867
0.0671804
0.012706
0.0523664
0.090502
0.0283904
0.0841343
0.0645248
0.0549138
0.0764078
0.0827657
0.0854665
0.0961056
0.0455469
0.0556924
0.08493
0.0648293
0.0960204
0.045947
0.0205186
0.0951284
0.0646598
0.0621814
0.0396663
0.0886436
0.0953953
0.0905571
0.0819169
0.0855284
0.0949526
0.0946289
0.0952338
0.0764905
0.0375846
0.0551441
0.0405259
0.0609542
0.0954889
0.0434176
0.0651788
0.0960979
0.096011
0.0945705
0.07379
0.093842
0.0453424
0.0515041
0.0131234
0.0509132
0.0899343
0.0756153
0.0462132
0.0202988
0.0522443
0.0415931
0.0341019
0.086572
0.0700465
0.0489711
0.0401582
0.0965113
0.0625097
0.0703516
0.0634939
0.0666994
0.0275402
0.0852694
0.0915828
0.0951659
0.0740088
0.00701881
0.0127663
0.0434705
0.0882893
0.0703674
0.0864991
0.0726714
0.0376918
0.089934
0.0874295
0.0303639
0.0519071
0.0447813
0.0394853
0.0752971
0.0843588
0.051902
0.0706853
0.0634099
0.0540448
0.0596286
0.0293854
0.0778941
0.055344
0.0957049
0.0919729
0.0955191
0.0742799
0.0658933
0.0723206
0.0870755
0.0495139
0.0883954
0.0847685
0.0958608
0.0652
0.0234251
0.0346031
0.0957678
0.0884802
0.0861034
0.0951485
0.0886295
0.0272232
0.0152662
0.0949719
0.0904642
0.0838843
0.0219707
0.0163804
0.052551
0.0742116
0.0456909
0.0536978
0.0737072
0.0907881
0.00647302
0.0546397
0.0540792
0.0644907
0.0517264
0.0342208
0.0777783
0.063212
0.0823689
0.0329439
0.0392264
0.0315688
0.0959877
0.0322883
0.0952334
0.0451304
0.048401
0.0372533
0.0404442
0.0861155
0.0950105
0.0857987
0.0211057
0.0258595
0.0617042
0.0370379
0.0915745
0.0744454
0.0422202
0.0292
0.0688617
0.0934853
0.059724
0.0687277
0.0349579
0.0327621
0.0376928
0.0272803
0.0494094
0.0517184
0.0745774
0.0339278
0.0304032
0.0511112
0.0754332
0.0944607
0.0956577
0.079149
0.0707551
0.0270554
0.0278466
0.0948875
0.0673581
0.0563999
0.0569204
0.073549
0.041256
0.0547161
0.0582735
0.0152687
0.0711175
0.0575628
0.0889123
0.0676943
0.0546836
0.0951919
0.0636812
0.0482347
0.0564708
0.044446
0.0254983
0.0923879
0.0379182
0.0769642
0.0308543
0.079422
0.0349494
0.0629441
0.0742471
0.0641437
0.095392
0.0620232
0.0896398
0.0906954
0.0541359
0.0952629
0.029578
0.0425534
0.0280318
0.0865817
0.071165
0.0955165
0.0586975
0.0909205
0.0745801
0.0454826
0.0412127
0.0291434
0.0500623
0.045537
0.0241288
0.046949
0.0440055
0.0462816
0.0896108
0.0718707
0.0108827
0.0193997
0.0837145
0.051839
0.0385553
0.0332726
0.0954055
0.055907
0.0950394
0.0205738
0.09496
0.0897514
0.0660839
0.0584672
0.0557143
0.0660389
0.0952633
0.0380769
0.0945626
0.0951358
0.0486488
0.0856034
0.0761267
0.0600308
0.0439685
0.0955804
0.0848564
0.0914667
0.031203
0.0402774
0.0832019
0.0471617
0.0747996
0.0851311
0.0246945
0.0942959
0.0566953
0.0468664
0.0311773
0.0436871
0.0292629
0.0271207
0.0631145
0.00394025
0.0486469
0.0285203
0.0698095
0.0729901
0.0215805
0.0781532
0.0464172
0.051556
0.044483
0.0520705
0.0212149
0.0555575
0.0899982
0.043177
0.0178339
0.083739
0.0653477
0.0147511
0.0956779
0.0434876
0.0336068
0.0747285
0.0624234
0.0888544
0.0678559
0.0313562
0.0479615
0.0733094
0.0851483
0.0841494
0.0607617
0.0901767
0.0903786
0.0942732
0.0565619
0.0333624
0.0169171
0.0573814
0.0515373
0.0545148
0.0837755
0.0687398
0.0253589
0.018835
0.00505264
0.00650459
0.0918618
0.0959367
0.0957247
0.0829834
0.0450385
0.0271176
0.0223861
0.0748686
0.0470619
0.0381266
0.0955649
0.00731531
0.0405153
0.0291705
0.0234918
0.0822533
0.0858233
0.0655473
0.0883491
0.0424018
0.0518376
0.0718193
0.048415
0.0740427
0.0840293
0.0724513
0.0166917
0.0766415
0.0601967
0.0311939
0.0645947
0.0902054
0.0333846
0.0172293
0.084389
0.089322
0.0748081
0.0891094
0.0275586
0.0640094
0.0883796
0.0179095
0.0170704
0.03582
0.0610902
0.0388523
0.0463101
0.0415652
0.0521658
0.0760197
0.0500741
0.082946
0.07724
0.0850874
0.0259314
0.0669907
0.038694
0.0545586
0.0739721
0.0711843
0.095754
0.0709972
0.0957225
0.0741692
0.0530213
0.048107
0.0331573
0.0467438
0.0914667
0.0887229
0.0367622
0.0783094
0.0877071
0.0609847
0.0893722
0.0301426
0.0552768
0.0434621
0.065444
0.0366343
0.0653037
0.0434654
0.0907154
0.0314392
0.0905827
0.0914773
0.0831026
0.0586131
0.065264
0.01049
0.0899418
0.0146474
0.0481941
0.071315
0.07656
0.0756391
0.0901535
0.0884383
0.0894842
0.0833508
0.0176874
0.0862441
0.0476904
0.0845658
0.0963263
0.072794
0.0902131
0.0957737
0.0953162
0.0532614
0.0662534
0.0323399
0.083774
0.010383
0.0902576
0.0678377
0.0840971
0.0460597
0.0411173
0.0953448
0.0583652
0.0432026
0.0435826
0.0570164
0.0612457
0.0352673
0.0448589
0.0367881
0.0541966
0.0938978
0.0755592
0.0865214
0.0479898
0.0919208
0.0756761
0.049536
0.0780916
0.0695072
0.0960265
0.0668832
0.0697073
0.02715
0.0610373
0.0383086
0.0544193
0.0374772
0.0589055
0.0148627
0.0847947
0.0855645
0.047379
0.0394642
0.0572521
0.0486877
0.0396172
0.0488968
0.0503477
0.0904622
0.0488703
0.0155372
0.0903229
0.0630449
0.0899351
0.0580379
0.0837406
0.0897836
0.0449477
0.0906421
0.0945438
0.0955494
0.0914052
0.0905591
0.0321555
0.0611685
0.0226052
0.0598078
0.0834865
0.0399135
0.0168192
0.0385002
0.0953897
0.0544215
0.0686013
0.0675369
0.0451917
0.0950911
0.0915409
0.0542888
0.0940993
0.02429
0.0888639
0.0630165
0.0818889
0.00592532
0.00958844
0.0428834
0.0896846
0.0956419
0.0904807
0.0461512
0.0847938
0.0964915
0.066508
0.0744167
0.0949648
0.0731188
0.0934152
0.0609035
0.0517384
0.0254463
0.0459316
0.0958725
0.0694521
0.0929655
0.0187501
0.0472969
0.063761
0.0420259
0.0745661
0.0685446
0.0921787
0.0516355
0.0716179
0.0154639
0.0214571
0.0854163
0.0961255
0.0348599
0.0426086
0.0288819
0.0828303
0.0547868
0.0948493
0.0938941
0.0895523
0.0329069
0.0910132
0.0668146
0.0957974
0.0888924
0.0513575
0.0864976
0.0907093
0.0912208
0.051797
0.0462448
0.0261787
0.0861055
0.0591227
0.0378551
0.0658315
0.0648202
0.0488843
0.0307511
0.028708
0.0951452
0.0471463
0.0628287
0.0821324
0.0943933
0.0265996
0.0331588
0.0724591
0.0502563
0.0956015
0.0670697
0.0612336
0.0954183
0.0444853
0.0395552
0.0520796
0.0885179
0.0295877
0.0887516
0.0176313
0.0836944
0.0957243
0.0284832
0.039393
0.0841114
0.0524182
0.0381058
0.0353985
0.0283926
0.0838172
0.0947323
0.0355259
0.0514474
0.0530013
0.043128
0.0859521
0.0563318
0.0839004
0.0835809
0.0446195
0.0101727
0.0710042
0.0485475
0.0632213
0.0903517
0.0852564
0.0269558
0.0432842
0.0893029
0.0910819
0.0766854
0.0505843
0.0537234
0.0954043
0.0751622
0.0424879
0.0346258
0.0427965
0.0510298
0.0677509
0.0147211
0.0499733
0.0377387
0.0756951
0.0946466
0.0951529
0.0622215
0.0701713
0.0498621
0.0446826
0.03313
0.0402522
0.0272445
0.0413051
0.0456255
0.0338629
0.0704032
0.043279
0.043284
0.073487
0.0409888
0.0726094
0.0951051
0.0645185
0.0574094
0.0582404
0.0627268
0.0582176
0.0754198
0.0888915
0.0525786
0.0439945
0.0521794
0.0654614
0.0923738
0.0405695
0.0716396
0.0945093
0.0543641
0.0912249
0.0658212
0.0496848
0.0538104
0.0594072
0.0670164
0.0902975
0.095141
0.093786
0.0203197
0.0887653
0.0455004
0.0392551
0.0901215
0.00477684
0.0723638
0.0225331
0.0644624
0.0645267
0.0810076
0.00618517
0.0315012
0.0959426
0.0393955
0.0905223
0.0957874
0.0546657
0.0837397
0.0361258
0.0393923
0.0277706
0.0717337
0.0765301
0.0525247
0.0413908
0.0523329
0.0886229
0.091208
0.0638082
0.046688
0.0667269
0.0230926
0.0761663
0.0726738
0.0427629
0.0388134
0.0407607
0.0743814
0.0686071
0.0747122
0.0594621
0.0516887
0.0673905
0.0702816
0.090462
0.0496172
0.05428
0.0460743
0.0346337
0.052517
0.0270974
0.0901647
0.0631021
0.0806768
0.0887054
0.0470266
0.0779214
0.0202016
0.0342517
0.0538799
0.0955169
0.0730473
0.0498497
0.0330936
0.0840822
0.0404674
0.0765885
0.0592383
0.076856
0.0681692
0.0495545
0.042743
0.0958683
0.0558167
0.0402819
0.0430273
0.0748285
0.0486537
0.0449147
0.0897067
0.00763431
0.0899872
0.0539787
0.0332939
0.0404046
0.0642921
0.074597
0.0785334
0.0876335
0.0942487
0.0350186
0.0366733
0.0908331
0.0902081
0.0531626
0.0555282
0.0854368
0.0705101
0.0572157
0.0559701
0.0537681
0.095508
0.0479848
0.0714953
0.0894829
0.0392011
0.0847791
0.0762201
0.095422
0.0890647
0.0764201
0.0859848
0.061664
0.0840622
0.0662523
0.0907952
0.0921207
0.0629523
0.0950251
0.0843362
0.054954
0.0949957
0.0499716
0.0879336
0.0828848
0.0845271
0.0288345
0.0914146
0.089951
0.0596662
0.0469831
0.0612336
0.0863419
0.0575523
0.0760759
0.0631685
0.0827954
0.0729994
0.0106156
0.0729681
0.0303018
0.0539577
0.0592934
0.0376441
0.0952123
0.061712
0.0664782
0.0459969
0.0914341
0.0649943
0.0956265
0.0720817
0.073836
0.0349091
0.0415646
0.0676612
0.0504231
0.065851
0.0191358
0.0427814
0.0768926
0.0107534
0.0827569
0.0457345
0.058972
0.0841392
0.0503982
0.0831499
0.0351338
0.0475387
0.0840299
0.058261
0.0632214
0.0958304
0.0416671
0.0950223
0.0894561
0.0675139
0.0481608
0.0563636
0.0937243
0.0346613
0.0424583
0.0718035
0.0856165
0.0755727
0.090766
0.0508433
0.074031
0.0588635
0.0736973
0.0185384
0.0537037
0.0941286
0.0573493
0.0180244
0.0750173
0.0963203
0.0858173
0.0526394
0.0827762
0.0759261
0.0840826
0.0526496
0.0751406
0.0857453
0.0886273
0.0282792
0.0948978
0.0475009
0.0905985
0.0371082
0.0713779
0.0479714
0.0911186
0.0523471
0.0291441
0.0402299
0.0325849
0.0708885
0.0956022
0.0957354
0.0695667
0.0963211
0.0460062
0.0906099
0.0302782
0.0514789
0.0614231
0.0404315
0.091615
0.084593
0.0846973
0.0513699
0.0913648
0.0507042
0.0731119
0.055273
0.0843487
0.0906967
0.0913514
0.045041
0.0852977
0.0407327
0.0616967
0.0628005
0.0881783
0.0879159
0.0655209
0.0704908
0.0865384
0.0286926
0.0437396
0.0774934
0.0731632
0.0538421
0.0461927
0.0401773
0.029546
0.0331313
0.0710416
0.0796779
0.0332476
0.0962504
0.0916839
0.0593116
0.0471299
0.0177828
0.0920786
0.0892128
0.0145399
0.073147
0.0113166
0.0899604
0.017359
0.0304856
0.0443727
0.0845035
0.0766215
0.0919626
0.0955249
0.0653466
0.0955615
0.0621433
0.0925263
0.0629876
0.0580008
0.0398063
0.0941349
0.0958133
0.0397802
0.0618414
0.090289
0.0423006
0.0426784
0.0905636
0.0958241
0.0959045
0.093799
0.0777894
0.0948802
0.0742422
0.022462
0.0905006
0.0948088
0.0638061
0.0467549
0.0350208
0.0522136
0.0717625
0.0959549
0.0315452
0.0904759
0.0367485
0.0939546
0.069977
0.0616743
0.0698707
0.0671585
0.0952314
0.0352844
0.0404041
0.0271249
0.0952952
0.0652812
0.086113
0.0716457
0.0828178
0.0947816
0.0672616
0.0675312
0.0655356
0.077538
0.0528724
0.085896
0.0914173
0.0891892
0.0611606
0.0671465
0.061007
0.0913959
0.0676332
0.0948212
0.0962677
0.0550589
0.0341822
0.0886581
0.0906831
0.0750053
0.0363372
0.065237
0.0440763
0.0633067
0.0569395
0.0448422
0.0521048
0.0234914
0.0848424
0.0957269
0.0609174
0.0180578
0.0313096
0.0745203
0.0960804
0.0731936
0.0387508
0.0874864
0.0714083
0.0657219
0.0710135
0.0338243
0.0486461
0.0207431
0.0921468
0.0594278
0.0383897
0.050202
0.0357087
0.0659464
0.0859778
0.0347246
0.0725447
0.0956823
0.027575
0.0296243
0.0678671
0.0748958
0.0486095
0.0359264
0.0522756
0.0194753
0.0645615
0.0734803
0.0906746
0.0860166
0.0403356
0.0607033
0.0151793
0.0561535
0.0893583
0.09071
0.0897025
0.0923497
0.0837856
0.0950375
0.043018
0.0949286
0.0598918
0.0771252
0.0271005
0.0906078
0.0463282
0.0895223
0.0441636
0.0961085
0.0870322
0.0862251
0.00508006
0.0302798
0.0777445
0.0743463
0.0958772
0.0947218
0.0313761
0.0608546
0.0618999
0.0291748
0.0299145
0.0507926
0.0498914
0.0395588
0.0812892
0.0641454
0.0830327
0.0852705
0.0926997
0.024517
0.0846452
0.0955152
0.0311574
0.084712
0.0434923
0.0951147
0.0509431
0.0343576
0.066725
0.0718129
0.0406056
0.0580921
0.095484
0.0450131
0.0271799
0.0876187
0.0903196
0.0506016
0.065202
0.0957148
0.0820857
0.0415895
0.0227193
0.0657308
0.0449006
0.0634136
0.0668308
0.0145278
0.0109407
0.0733754
0.0545194
0.0688958
0.0736832
0.0474967
0.0631498
0.0958573
0.0172479
0.0638791
0.0961759
0.0472404
0.0826152
0.0537953
0.0958864
0.0498614
0.0686481
0.0609581
0.0529813
0.0539329
0.0932684
0.049861
0.0694853
0.0656408
0.0952116
0.0490618
0.07456
0.0295423
0.0596531
0.0889147
0.0913594
0.0573989
0.0906788
0.0837091
0.0674388
0.0908848
0.0957653
0.073988
0.0288965
0.0564118
0.0326894
0.0951919
0.0915276
0.0951994
0.0376472
0.0938475
0.0674975
0.0190713
0.0750854
0.0245097
0.0452552
0.0373721
0.0910915
0.0499486
0.0620071
0.0954238
0.06981
0.0964389
0.0492651