/*--------------------------------*- C++ -*----------------------------------*\
| =========                 |                                                 |
| \\      /  F ield         | OpenFOAM: The Open Source CFD Toolbox           |
|  \\    /   O peration     | Version:  2406                                  |
|   \\  /    A nd           | Website:  www.openfoam.com                      |
|    \\/     M anipulation  |                                                 |
\*---------------------------------------------------------------------------*/
FoamFile
{
    version     2.0;
    format      ascii;
    arch        "LSB;label=32;scalar=64";
    class       volVectorField;
    location    "64";
    object      momentum:angularMomentum;
}
// * * * * * * * * * * * * * * * * * * * * * * * * * * * * * * * * * * * * * //

dimensions      [1 1 -1 0 0 0 0];

internalField   nonuniform List<vector> 
59516
(
(-2.33174e-09 -1.48003e-09 2.2284e-07)
(5.86467e-10 -3.77069e-10 1.6422e-07)
(-9.29149e-10 9.71338e-10 2.01309e-07)
(-2.89086e-09 -5.90525e-10 1.71841e-07)
(-8.01776e-09 5.28702e-10 1.99987e-07)
(-5.20284e-09 2.76863e-09 5.03649e-08)
(-4.49793e-09 -2.71342e-09 2.09164e-07)
(-5.98616e-10 -1.05838e-09 1.91546e-07)
(-1.22715e-09 2.16112e-10 1.5484e-07)
(2.92633e-09 1.60409e-09 7.64435e-08)
(-3.42775e-09 -3.52958e-10 2.08451e-07)
(-5.14843e-09 -3.78777e-09 1.01545e-07)
(-2.43108e-09 -2.0995e-09 3.1724e-07)
(4.25231e-11 -1.67273e-10 1.53783e-08)
(6.02211e-10 -8.83008e-09 1.46271e-07)
(-2.37653e-09 5.7556e-09 8.2103e-08)
(-4.90451e-09 -9.12076e-10 2.70281e-07)
(-1.30771e-08 -3.61302e-09 1.59726e-07)
(-1.74133e-08 -3.45138e-09 3.29735e-07)
(-4.25289e-09 1.23158e-09 3.74205e-07)
(-2.67323e-09 1.24359e-09 9.93687e-08)
(8.41829e-10 1.97895e-09 3.17352e-07)
(-6.79446e-09 -1.57517e-09 3.51265e-07)
(8.79495e-10 5.95952e-10 3.34276e-08)
(-2.68693e-10 1.39578e-09 3.13496e-07)
(-4.98796e-10 4.88036e-09 1.94392e-07)
(-6.17221e-10 3.63277e-09 5.03165e-08)
(-5.84938e-09 -2.46878e-09 7.40294e-08)
(-5.95981e-09 -1.91498e-09 1.44302e-07)
(1.58504e-09 1.3053e-09 1.28077e-08)
(-3.76116e-08 2.10454e-09 1.89464e-07)
(-5.42389e-09 4.16525e-09 8.3672e-08)
(-9.25711e-10 -5.18684e-10 1.73215e-07)
(-2.96133e-09 -1.7968e-09 1.7298e-07)
(-6.52301e-09 -5.09459e-12 1.33668e-07)
(-1.57829e-09 4.55475e-10 3.99467e-07)
(-1.86877e-09 9.78062e-10 1.24273e-08)
(-1.30642e-08 -4.15134e-09 1.31644e-07)
(-1.09371e-08 1.10398e-09 2.66378e-07)
(-2.3329e-10 1.44673e-09 2.84225e-07)
(-1.55274e-10 -1.51854e-09 2.52296e-07)
(-3.3157e-08 -1.17954e-10 4.06997e-07)
(-1.24862e-08 2.31081e-09 3.43339e-07)
(-6.76583e-10 3.51451e-10 1.08265e-07)
(-1.03674e-08 1.29167e-09 2.64679e-07)
(2.55774e-09 7.12446e-10 9.90997e-08)
(-1.35819e-08 3.49463e-10 3.24329e-07)
(-8.42484e-09 9.92717e-10 2.55048e-07)
(-3.43138e-08 3.12069e-09 2.51868e-07)
(-1.40251e-08 5.37239e-10 2.41316e-07)
(-2.81933e-08 8.17338e-10 1.63915e-07)
(-7.04346e-09 -3.37189e-09 7.3417e-08)
(1.07402e-09 -6.59605e-09 3.11031e-07)
(-7.50634e-10 1.17007e-09 2.96153e-07)
(-5.10591e-09 1.32919e-09 8.20236e-08)
(-6.12336e-09 1.10707e-09 2.45994e-07)
(-1.67662e-08 9.6296e-11 2.0348e-07)
(-7.39833e-09 -2.77589e-09 7.37371e-08)
(-3.8696e-10 1.9282e-10 2.14707e-07)
(-1.1215e-08 -3.54172e-10 1.45872e-07)
(-6.54617e-10 4.69824e-10 2.08954e-07)
(-1.15306e-09 1.58289e-09 1.46292e-08)
(-1.45755e-09 -1.93394e-10 2.73854e-07)
(-7.70731e-09 -1.45618e-10 3.44841e-07)
(-1.60526e-09 1.35209e-09 2.84825e-07)
(-1.0122e-08 1.6757e-10 2.15563e-07)
(1.33895e-10 1.96653e-09 1.72876e-08)
(-2.14278e-10 5.26897e-10 6.40362e-08)
(-3.7208e-08 6.29258e-10 1.98343e-07)
(-4.6985e-09 -1.02681e-09 1.68899e-07)
(-8.2767e-10 -1.1577e-09 4.99468e-08)
(-2.63581e-09 -7.63794e-10 1.58771e-07)
(3.40022e-09 -1.36785e-09 2.22954e-08)
(-2.49676e-09 -5.597e-10 1.86241e-07)
(-1.05028e-09 -9.27799e-10 3.9334e-07)
(-9.99361e-09 4.86925e-10 3.60726e-07)
(-6.71525e-09 1.69679e-10 2.15252e-07)
(8.35825e-10 5.42882e-11 2.2694e-07)
(3.29438e-09 1.73734e-09 8.15673e-08)
(-1.09814e-08 9.35319e-10 1.93365e-07)
(-3.31416e-09 1.40666e-12 4.83971e-08)
(-8.95237e-09 5.0146e-10 1.71614e-07)
(-8.43386e-09 4.97493e-10 1.82946e-07)
(-2.21045e-09 1.20797e-09 1.73597e-08)
(-1.09478e-08 1.15679e-09 2.15319e-07)
(-2.11704e-09 1.81876e-09 3.88404e-07)
(6.01372e-10 1.06404e-09 3.03957e-08)
(-2.65098e-09 3.16918e-10 5.01735e-07)
(-3.8583e-09 -2.01873e-09 1.07029e-07)
(-1.5552e-08 -3.87514e-09 1.66758e-07)
(-1.61306e-08 -3.91715e-11 1.83368e-07)
(-1.18882e-09 1.53981e-09 1.89688e-07)
(-1.06751e-09 -4.19715e-11 2.66452e-07)
(-2.227e-11 1.29062e-09 1.82327e-07)
(6.57452e-11 -6.52198e-11 1.87011e-07)
(-1.87514e-08 -1.17485e-10 1.83415e-07)
(-3.26396e-10 -2.9066e-10 1.24051e-07)
(3.46416e-09 6.31016e-09 8.17995e-08)
(-4.43505e-09 -1.75769e-09 1.1504e-07)
(2.35058e-09 1.45554e-09 2.07908e-07)
(-2.00863e-09 1.39781e-09 5.99657e-08)
(2.76487e-09 1.46659e-09 2.51503e-08)
(2.78601e-09 1.45514e-09 2.2221e-08)
(-3.14209e-09 3.50873e-09 8.20854e-08)
(1.44784e-09 -2.97481e-11 2.32025e-07)
(1.84218e-10 -7.81668e-10 1.64921e-07)
(2.4861e-09 -4.41526e-09 5.30595e-08)
(-1.02392e-09 -4.67015e-10 1.34723e-07)
(-3.33792e-10 1.22143e-09 1.7162e-07)
(-3.9645e-09 6.26622e-09 1.82664e-07)
(-4.20643e-08 -5.38758e-10 2.80325e-07)
(3.07132e-09 -2.95892e-09 4.13976e-08)
(-7.19865e-09 9.20876e-09 1.81427e-07)
(-3.62292e-08 -9.39007e-11 2.19234e-07)
(-2.5247e-10 1.96808e-10 2.23164e-07)
(1.50391e-09 -1.63861e-09 1.3349e-07)
(-3.96493e-09 -2.60194e-09 1.22227e-07)
(-3.54141e-10 -6.64462e-10 1.42817e-07)
(-3.10659e-10 -8.30194e-10 1.75595e-08)
(-1.44301e-09 1.48165e-09 2.62767e-07)
(2.21208e-10 -1.40961e-10 4.35757e-07)
(-3.9928e-10 6.32343e-10 1.81661e-07)
(8.16329e-10 1.78911e-10 1.6035e-07)
(-3.93902e-10 3.01381e-10 1.88525e-07)
(-1.81131e-08 1.15353e-09 1.33089e-07)
(-5.35327e-09 1.79163e-10 1.43613e-07)
(-2.10687e-09 -1.03007e-09 3.43725e-08)
(-2.10302e-08 3.16152e-09 2.12296e-07)
(-2.37431e-08 5.59446e-09 1.63212e-07)
(3.7607e-11 -2.60842e-10 1.66774e-07)
(-2.8736e-10 -1.95383e-10 2.99155e-07)
(4.91956e-09 5.6116e-09 3.17801e-07)
(-4.83711e-10 -1.909e-09 2.16274e-08)
(-3.17795e-10 9.63891e-10 2.54307e-07)
(3.2192e-09 1.07662e-09 3.08633e-07)
(-3.53118e-09 1.65615e-09 1.92775e-07)
(-2.20197e-08 1.98306e-09 1.51778e-07)
(2.8304e-10 1.15317e-09 3.08607e-07)
(-4.9028e-10 3.42831e-09 4.98057e-08)
(-1.92575e-09 1.38328e-09 1.56702e-07)
(-1.74306e-09 3.66038e-09 7.34929e-08)
(-4.79351e-10 -7.97813e-10 3.47715e-07)
(-6.09142e-10 -1.12833e-09 1.32621e-08)
(-7.73666e-10 1.13083e-09 1.48518e-07)
(-1.92284e-09 -1.78457e-11 2.22949e-07)
(-4.72045e-09 1.38639e-09 2.83912e-07)
(-8.53174e-09 1.93303e-09 2.02721e-07)
(-6.16219e-09 2.30675e-09 2.04262e-07)
(9.76146e-10 -1.81766e-09 6.40332e-08)
(-9.18189e-10 2.01633e-09 2.03706e-07)
(-1.4058e-09 -2.83405e-09 3.13924e-07)
(2.22743e-10 1.90827e-09 4.98224e-08)
(2.07674e-09 2.34936e-09 3.9257e-07)
(-1.05337e-10 1.76254e-11 2.18851e-07)
(-1.7778e-09 -3.55352e-09 1.55334e-07)
(-1.29002e-09 7.90387e-10 1.39033e-08)
(-1.09802e-09 -9.22612e-10 2.72253e-07)
(-4.69428e-09 2.30914e-09 3.25419e-07)
(-2.09143e-09 8.47758e-10 1.26377e-07)
(-2.15409e-09 -1.52142e-09 1.49588e-08)
(3.46837e-09 3.39995e-09 8.67011e-08)
(5.88121e-09 -3.49744e-09 1.08934e-07)
(-6.61152e-10 1.43814e-09 3.80077e-08)
(-2.01912e-10 -4.02268e-10 2.12956e-08)
(4.94239e-09 1.75798e-10 1.586e-07)
(-2.00033e-09 -6.45753e-11 3.39128e-07)
(2.36137e-09 -1.58384e-10 1.51046e-07)
(-2.00365e-09 -6.15784e-10 2.93011e-07)
(9.47268e-10 1.9396e-09 1.66588e-08)
(3.79397e-10 -9.03816e-10 2.15297e-07)
(-1.55103e-09 -1.1993e-09 8.491e-08)
(-1.20756e-09 8.15672e-10 6.49496e-08)
(-2.36248e-10 -2.98465e-09 1.0218e-07)
(-9.25698e-11 -5.8876e-10 1.50353e-07)
(6.74025e-10 1.02793e-09 8.17652e-08)
(-1.96194e-08 -1.83816e-09 4.52774e-07)
(-1.21145e-09 5.60168e-10 2.55057e-07)
(-1.45125e-08 1.12181e-09 3.10068e-07)
(8.1937e-10 -6.85367e-09 1.44489e-07)
(6.71989e-10 4.89335e-10 5.94035e-08)
(-3.48191e-09 -4.43278e-09 3.07951e-07)
(1.08411e-09 3.8668e-09 4.0816e-08)
(-9.8355e-10 -2.00591e-09 2.82551e-08)
(8.87126e-10 2.29501e-09 1.01158e-07)
(-3.69431e-10 -1.10568e-09 2.15452e-07)
(-5.93926e-10 1.10277e-09 9.40957e-08)
(-3.4684e-09 6.27513e-10 4.41607e-08)
(1.26171e-10 2.30264e-10 1.92554e-08)
(-6.14217e-10 8.78433e-11 1.88435e-07)
(3.37589e-09 1.76672e-09 2.2025e-07)
(-3.11962e-09 -1.52544e-10 1.58819e-07)
(-2.2159e-09 -6.43734e-09 1.10432e-07)
(-1.92274e-09 -6.50802e-10 2.18295e-07)
(2.48722e-09 -2.02168e-09 9.04461e-08)
(-2.09502e-09 -8.62611e-11 3.39833e-07)
(3.99979e-10 6.87317e-10 2.76265e-08)
(1.231e-09 4.77079e-10 9.31714e-08)
(4.44629e-10 -1.54624e-09 5.40342e-08)
(-7.79287e-09 -4.39429e-12 1.81005e-07)
(6.79758e-10 -1.36883e-09 2.66577e-07)
(-1.5352e-09 -2.1962e-09 7.52178e-08)
(-3.09562e-10 -3.52438e-10 2.06791e-07)
(3.29813e-10 3.44013e-09 3.04134e-07)
(1.28052e-09 -1.52694e-09 1.51782e-08)
(8.65666e-10 1.41916e-09 2.16909e-07)
(-7.94511e-10 -6.85224e-10 2.38951e-07)
(-1.03326e-09 -5.55744e-10 3.65973e-07)
(2.05089e-09 -1.09309e-09 2.02565e-07)
(1.83824e-10 -5.67926e-10 1.73656e-08)
(4.77616e-09 2.8472e-09 2.96298e-07)
(-6.51867e-10 5.50641e-09 5.82563e-08)
(-4.10473e-09 8.39e-10 2.5058e-08)
(-1.47303e-09 1.99273e-09 2.31114e-07)
(-5.8428e-10 2.29593e-09 9.10411e-08)
(-2.43911e-09 -3.1426e-09 2.87797e-07)
(7.09071e-10 -2.27082e-10 2.96687e-07)
(-3.55079e-09 9.55866e-10 2.72842e-07)
(-1.61764e-09 1.25613e-09 2.09139e-07)
(-2.52393e-09 4.71947e-09 7.94949e-08)
(1.10656e-09 -1.96328e-10 2.20607e-07)
(-1.86609e-09 -5.67441e-09 1.13751e-07)
(-8.71492e-10 4.95633e-10 1.92363e-07)
(-9.88878e-10 -1.05667e-09 1.84713e-07)
(6.62171e-10 -9.56735e-10 6.9888e-08)
(7.63749e-10 -3.69991e-10 3.07929e-07)
(8.47799e-10 1.96571e-10 3.22591e-07)
(-1.07297e-09 -1.17008e-09 3.05288e-08)
(-3.48152e-09 7.94599e-10 6.24285e-08)
(1.79307e-10 1.08683e-09 2.06736e-07)
(-4.53563e-09 7.45423e-09 1.13211e-07)
(4.80186e-11 8.70521e-10 2.49814e-07)
(-4.71794e-10 3.43882e-10 1.8703e-07)
(-1.61638e-09 -7.88336e-10 3.43318e-07)
(-1.2178e-09 -2.10779e-09 2.53918e-08)
(-1.20455e-09 -1.07622e-09 2.97289e-08)
(-1.70442e-09 -3.75169e-11 3.72302e-08)
(-2.17399e-10 -6.57849e-10 1.04853e-07)
(-2.34953e-09 -3.62545e-10 1.69309e-07)
(-4.60424e-09 1.12722e-09 4.26556e-07)
(2.94526e-09 -5.05688e-10 8.31776e-08)
(5.62163e-10 4.77694e-10 2.69639e-07)
(2.14856e-09 1.52742e-09 1.7722e-08)
(1.46316e-09 1.09371e-09 1.0563e-07)
(2.39272e-09 1.49994e-09 2.53923e-08)
(4.80564e-10 4.94053e-10 1.7482e-07)
(-8.44331e-10 -5.32508e-10 1.47792e-07)
(-1.79022e-09 3.86377e-10 1.9799e-07)
(-2.60525e-09 4.4071e-09 1.79958e-07)
(-1.13758e-09 -6.77726e-10 2.85334e-07)
(-1.30503e-09 -5.08711e-10 1.95315e-07)
(-6.75342e-10 -3.1153e-10 3.89676e-07)
(-1.25884e-09 1.79564e-11 2.12758e-07)
(8.65122e-10 2.30016e-10 2.08419e-07)
(5.51583e-10 2.7048e-09 2.82581e-07)
(-2.21227e-09 2.57463e-09 2.84097e-07)
(-2.01478e-09 1.11498e-09 3.05045e-07)
(-4.84036e-10 1.81622e-10 1.07305e-07)
(-4.107e-09 7.91486e-10 2.87e-07)
(2.35774e-09 3.63029e-09 7.65223e-08)
(-4.77996e-10 3.284e-09 9.35318e-08)
(-2.03424e-09 1.13786e-09 2.15526e-07)
(-3.55698e-10 5.31223e-10 2.67722e-07)
(7.49482e-09 1.56454e-09 2.3384e-07)
(7.11326e-10 1.94241e-10 2.98742e-07)
(1.57292e-09 -4.33151e-11 7.19926e-08)
(-2.38152e-10 -4.84607e-09 1.02586e-07)
(-1.45304e-09 -2.4336e-09 3.10247e-07)
(4.7509e-09 2.26049e-10 2.0825e-07)
(-7.13413e-10 -1.19257e-09 5.83194e-08)
(-7.44481e-10 1.98029e-09 7.13762e-08)
(-4.59061e-09 4.0544e-09 1.63445e-07)
(1.10161e-10 -2.74311e-10 1.94952e-07)
(-4.85842e-09 6.17435e-09 2.99198e-07)
(-1.40342e-09 2.54706e-09 1.44058e-07)
(-2.31587e-09 -1.02024e-09 3.42816e-07)
(-3.82456e-11 4.82943e-09 1.83342e-07)
(-1.05822e-09 -2.28974e-09 1.82839e-08)
(1.42321e-09 5.10738e-10 3.02687e-07)
(2.30503e-09 -1.79693e-09 2.71243e-08)
(2.22763e-09 1.09984e-09 4.97334e-08)
(-2.34774e-09 -5.55105e-10 3.79313e-07)
(-6.47919e-10 -6.36996e-10 2.48321e-07)
(-3.52799e-09 1.84729e-09 2.64051e-08)
(-1.55102e-10 -2.36858e-09 2.92343e-07)
(-2.75201e-09 -4.13665e-09 2.40971e-07)
(-4.15611e-09 3.9331e-10 2.53353e-07)
(1.12949e-10 -8.89662e-10 3.45795e-07)
(1.82159e-09 -1.90887e-09 2.18873e-08)
(3.83295e-10 1.12983e-09 2.99348e-07)
(3.93926e-11 9.02814e-11 1.61776e-07)
(-4.65524e-10 -5.26275e-10 1.6715e-07)
(-2.04936e-09 1.04082e-09 2.51151e-07)
(-1.01615e-09 4.92669e-10 1.70285e-07)
(-6.26237e-10 -8.60038e-10 1.71519e-07)
(3.4417e-10 -1.02623e-09 2.73245e-07)
(1.41038e-12 2.13219e-09 3.65718e-08)
(-3.7165e-10 -8.35771e-10 2.90554e-07)
(1.68542e-10 9.29232e-10 1.89519e-07)
(-4.58476e-10 7.99293e-10 3.90563e-07)
(-1.52453e-09 1.33754e-09 2.79361e-07)
(1.0009e-09 -1.72823e-09 3.03731e-07)
(2.24432e-09 -2.77982e-09 1.29893e-07)
(-5.57564e-10 -1.1979e-09 1.86504e-08)
(8.22976e-10 5.20514e-10 3.33399e-08)
(-4.83687e-09 8.25191e-10 5.15042e-07)
(-2.4476e-09 9.93118e-10 1.70263e-08)
(-2.22264e-09 -2.18138e-09 1.66399e-07)
(-1.30217e-09 4.00356e-09 7.00979e-08)
(-1.54901e-09 -1.66514e-09 3.24122e-07)
(-1.21119e-09 -1.52372e-10 3.86338e-07)
(-1.22819e-09 1.62896e-09 3.1624e-07)
(2.15146e-09 1.73161e-09 1.17817e-07)
(8.53875e-09 2.12355e-10 2.8752e-07)
(5.77026e-11 6.91595e-09 6.40601e-08)
(3.35382e-10 -2.68151e-09 8.63209e-08)
(-3.37863e-10 1.04149e-09 2.04149e-07)
(5.78602e-10 -2.03106e-09 1.51023e-07)
(-3.18618e-08 -3.82832e-09 2.69465e-07)
(6.06309e-10 -4.5502e-09 1.8686e-07)
(-6.02319e-10 -9.89231e-11 6.07281e-08)
(3.48614e-09 -2.96466e-10 9.83331e-08)
(-1.38366e-09 -3.38207e-09 2.02184e-07)
(-5.56532e-10 -1.15907e-10 2.24858e-07)
(1.07285e-09 -2.77786e-09 4.48369e-07)
(-7.22019e-10 1.35727e-09 2.40891e-07)
(4.25837e-10 4.62616e-09 4.94722e-07)
(-1.032e-08 -1.00002e-09 1.66583e-07)
(-2.80704e-09 -6.65695e-10 3.3224e-07)
(-1.91399e-09 3.08523e-10 2.85793e-07)
(9.38545e-10 3.0055e-10 2.00241e-07)
(2.54823e-09 7.24704e-10 3.43629e-07)
(-5.10519e-09 -4.02294e-09 1.00495e-07)
(2.71011e-09 -1.18051e-09 2.18976e-08)
(2.73827e-09 3.68417e-10 2.95341e-07)
(1.57286e-09 3.73962e-09 5.47696e-08)
(2.65326e-11 -6.58741e-11 2.65015e-08)
(-4.89478e-09 -3.44307e-10 4.01783e-07)
(4.77546e-10 -1.49815e-10 1.98458e-07)
(-3.70419e-09 4.5462e-09 1.06138e-07)
(-5.36545e-10 -8.69654e-10 2.64703e-07)
(8.43194e-10 1.19183e-09 3.34147e-07)
(-1.02734e-09 -6.03137e-10 4.50996e-07)
(-2.11274e-09 4.245e-12 2.77701e-07)
(-6.8194e-11 -1.42548e-09 2.94555e-08)
(-7.42414e-10 3.86848e-10 3.18963e-07)
(-9.69369e-10 1.86102e-10 2.30352e-07)
(5.80836e-10 1.34435e-09 9.3897e-08)
(-2.9834e-10 -1.627e-09 3.14108e-07)
(-1.17602e-10 2.92776e-10 2.63864e-07)
(1.03118e-09 6.43513e-10 1.71188e-07)
(8.80445e-10 1.46595e-09 1.96676e-07)
(-8.49547e-10 -3.68106e-09 2.7899e-07)
(6.57523e-10 1.44224e-09 2.00562e-07)
(-3.33479e-10 2.36276e-10 7.45336e-08)
(-3.81886e-10 9.34366e-10 1.89815e-08)
(3.92968e-10 2.76895e-09 3.70854e-08)
(1.04678e-09 -8.41495e-10 2.11545e-07)
(-3.91708e-08 -2.07402e-10 2.67862e-07)
(-1.14181e-08 1.18332e-09 1.15791e-07)
(5.68209e-10 -5.45114e-10 1.06551e-07)
(3.24103e-09 -2.8281e-09 2.41646e-07)
(-2.39641e-09 1.53431e-09 3.05541e-07)
(-6.58022e-09 2.42358e-10 2.32403e-07)
(8.03969e-10 2.94286e-09 3.6079e-07)
(-1.31248e-09 -2.43318e-09 3.33372e-07)
(1.02062e-10 -8.06086e-10 2.24059e-07)
(-8.50624e-10 -3.18236e-11 1.39101e-07)
(-3.4352e-10 6.81181e-10 2.25541e-08)
(-4.7872e-08 1.73003e-09 2.41095e-07)
(6.68856e-10 2.06797e-09 8.29368e-08)
(-1.3866e-09 2.32796e-09 6.00832e-08)
(1.39801e-09 5.31014e-10 6.37823e-08)
(1.76449e-10 8.1922e-10 1.75876e-07)
(-8.82534e-10 5.56032e-10 1.67765e-07)
(-1.8739e-09 7.10393e-10 2.38578e-07)
(-1.01176e-09 1.23777e-09 1.58211e-08)
(3.80405e-10 -4.7646e-10 1.66467e-07)
(1.57777e-09 -9.8057e-10 6.08967e-08)
(-1.16281e-10 1.53177e-10 1.91038e-07)
(-6.02541e-10 7.05344e-10 5.23467e-08)
(3.69588e-09 1.75606e-09 1.4206e-07)
(1.33495e-09 5.76472e-09 2.10378e-07)
(-1.90085e-09 -5.71408e-10 1.85499e-07)
(2.33287e-09 -2.2919e-10 1.75765e-08)
(-2.71596e-10 4.46252e-09 1.07203e-07)
(8.84695e-11 -9.70181e-10 2.35853e-07)
(9.74946e-11 -2.40496e-09 2.34853e-08)
(-2.13386e-08 -6.26693e-10 2.89741e-07)
(8.74277e-10 -4.1988e-09 1.77644e-07)
(-1.18603e-09 -4.95947e-09 2.99261e-07)
(4.74813e-09 -5.83219e-09 1.93395e-07)
(2.4407e-09 8.34607e-10 9.00498e-08)
(1.3007e-09 2.90533e-10 4.00185e-07)
(-1.87531e-08 -5.94426e-09 1.42012e-07)
(-2.08273e-10 3.87301e-11 3.50541e-07)
(-1.74227e-08 1.18524e-09 1.55532e-07)
(-5.14927e-09 3.72424e-09 1.35301e-07)
(-6.68983e-10 3.22967e-09 1.3757e-07)
(5.01585e-10 -1.85298e-10 2.85991e-07)
(1.00305e-09 -1.84761e-10 5.64153e-07)
(9.07424e-10 -7.91171e-10 7.61804e-08)
(-1.15994e-09 -1.25215e-09 3.30908e-07)
(-2.60889e-09 8.3737e-10 1.14994e-07)
(-6.02727e-10 -1.14787e-09 4.61851e-07)
(8.46931e-10 -1.6903e-09 3.51699e-07)
(-1.56615e-09 -5.19822e-09 6.59725e-08)
(-5.83485e-10 1.7808e-09 2.14541e-07)
(6.52977e-09 -7.55355e-10 3.81146e-07)
(-1.47181e-09 -4.13975e-10 2.27701e-07)
(3.45102e-10 -1.35798e-09 2.2338e-07)
(2.55249e-09 -1.35887e-09 2.2251e-08)
(-2.44056e-09 -6.28447e-10 1.87617e-08)
(-3.31273e-09 3.14041e-09 2.8961e-07)
(-2.80378e-10 -1.18568e-10 2.96867e-07)
(1.08692e-09 1.24103e-09 2.34411e-07)
(-2.26649e-09 1.21899e-09 3.37916e-08)
(7.52309e-10 -4.19599e-10 9.21139e-08)
(-3.86056e-09 -8.42257e-10 2.93731e-07)
(1.68746e-10 2.05482e-10 1.77172e-07)
(-1.54012e-09 1.76144e-09 3.23445e-07)
(2.09733e-10 -9.86517e-10 3.01822e-07)
(4.33256e-11 -1.28992e-09 2.26819e-07)
(-6.42621e-10 -2.29867e-09 2.40633e-07)
(3.95e-10 -7.47939e-10 1.17095e-07)
(-6.45415e-10 5.39277e-10 2.2532e-07)
(-2.70495e-09 3.2898e-09 8.42107e-08)
(-7.51509e-10 7.41849e-10 2.95963e-07)
(-1.59727e-09 -1.12388e-09 1.84361e-07)
(-1.44122e-09 -6.541e-10 2.16752e-07)
(-4.17858e-10 4.86737e-11 2.30917e-07)
(-4.98727e-10 9.16238e-10 3.49104e-07)
(1.95613e-09 -1.86989e-09 2.66976e-07)
(2.76415e-09 4.22102e-09 6.40839e-08)
(1.16673e-09 -7.02211e-11 4.235e-08)
(-1.67163e-09 -1.72175e-09 1.82955e-08)
(-1.31832e-08 1.04895e-10 2.32355e-07)
(3.79532e-10 -3.62459e-10 3.12061e-07)
(-1.67677e-09 5.41873e-10 2.71991e-07)
(-2.5458e-10 -1.32836e-09 1.89747e-07)
(1.05805e-09 2.35916e-10 2.82236e-08)
(6.28613e-10 -2.37694e-09 2.1257e-08)
(-6.87981e-10 -2.75462e-09 1.76382e-07)
(-1.22835e-09 1.79894e-09 2.35488e-07)
(-8.12518e-10 -9.42735e-10 3.24701e-07)
(1.32961e-09 -2.13539e-10 3.21232e-07)
(-1.88238e-09 4.16738e-10 1.96218e-07)
(-3.10997e-10 -2.69639e-10 3.65687e-07)
(3.51767e-09 8.49717e-10 3.7132e-07)
(-1.22507e-09 2.58332e-09 2.99478e-08)
(4.10449e-10 1.35361e-09 1.79813e-07)
(3.22915e-09 -1.79481e-09 6.94607e-08)
(-9.91474e-09 -1.08899e-09 9.75826e-08)
(-3.96909e-10 5.10645e-10 1.30115e-07)
(6.76391e-10 -6.44317e-10 1.37656e-07)
(-3.5979e-11 4.48427e-10 2.53264e-07)
(-3.08533e-09 1.96793e-09 1.81854e-08)
(-2.23272e-10 -1.33369e-09 3.71499e-07)
(3.69755e-11 4.62597e-10 2.80872e-07)
(-5.51983e-10 -7.74682e-10 2.25958e-07)
(1.29769e-09 -1.45604e-09 1.95597e-07)
(8.00751e-10 -2.13122e-09 1.72653e-07)
(-5.58515e-10 -3.13633e-10 2.71551e-07)
(-5.09585e-10 1.07846e-09 2.42716e-07)
(-5.8741e-10 -2.82226e-11 3.22452e-07)
(-9.07799e-09 -8.62059e-10 1.66391e-07)
(-6.08209e-10 1.552e-10 2.75684e-07)
(-5.11065e-09 2.48053e-09 2.90223e-07)
(1.26567e-09 -1.1161e-09 1.75632e-08)
(-6.72277e-10 -7.3709e-10 3.20068e-07)
(2.36055e-09 3.10086e-09 1.88334e-07)
(-4.01126e-09 -3.7149e-09 6.1856e-08)
(-1.96966e-09 2.73989e-09 1.67171e-07)
(-5.58443e-10 7.58008e-10 3.5302e-07)
(-2.3495e-10 -2.2485e-09 2.20433e-07)
(1.21085e-09 2.9724e-09 1.14293e-07)
(-1.88096e-09 1.33316e-09 1.72137e-08)
(-5.86284e-10 -4.93181e-10 2.65108e-07)
(1.50715e-09 6.70349e-09 3.31251e-07)
(-1.04316e-09 -1.44662e-10 2.39462e-07)
(-1.17307e-09 -3.32285e-10 1.85347e-07)
(-3.3437e-09 9.80815e-10 5.47835e-08)
(3.10544e-10 -7.95798e-11 2.51219e-07)
(-4.0123e-09 3.27015e-10 2.64219e-08)
(6.03479e-11 8.53285e-10 1.77329e-07)
(-2.43871e-08 1.22613e-09 2.08665e-07)
(2.52832e-09 6.45279e-10 2.62666e-07)
(-3.22276e-10 2.99173e-09 8.42542e-08)
(-2.31776e-09 2.5943e-09 1.78173e-07)
(-2.39767e-11 1.43946e-09 1.12255e-07)
(2.64154e-09 -2.23348e-09 4.5307e-08)
(3.3268e-10 -6.66676e-10 5.00238e-07)
(-1.7401e-10 -6.63334e-10 2.21287e-07)
(-1.60786e-09 -6.37708e-10 1.67303e-08)
(-1.03538e-09 3.62835e-10 2.86831e-07)
(-9.23795e-10 5.86679e-10 3.02376e-07)
(-5.9953e-10 2.20699e-09 3.7047e-08)
(3.09901e-09 4.47206e-09 1.22987e-07)
(-2.48004e-09 3.5487e-09 9.52559e-08)
(-9.75979e-10 -4.50278e-10 1.92495e-07)
(6.29272e-10 -8.36723e-10 2.74137e-07)
(-1.32496e-09 1.30119e-09 3.49687e-08)
(2.7509e-09 -1.29339e-09 8.67176e-08)
(-3.39999e-10 1.90388e-09 9.78388e-08)
(1.932e-09 1.6968e-09 1.72692e-07)
(-1.19325e-10 -1.36284e-09 3.56536e-07)
(-2.59689e-09 -1.81982e-09 2.24912e-08)
(2.07677e-09 7.62975e-10 3.68669e-07)
(-6.40929e-09 -1.16085e-09 2.37089e-07)
(2.10061e-10 -1.33708e-09 2.87674e-07)
(-2.97659e-09 -6.12226e-09 1.14195e-07)
(-5.95617e-11 6.62442e-10 3.38589e-07)
(1.09155e-09 -2.12894e-09 2.17985e-08)
(-2.88139e-09 -6.06009e-10 2.99095e-07)
(1.50738e-10 -3.46849e-10 2.63823e-08)
(-8.69079e-10 -4.06012e-09 1.35564e-07)
(-1.03119e-10 1.75921e-09 2.27266e-07)
(-2.41176e-09 3.41712e-09 1.31895e-07)
(-2.4215e-09 1.4396e-09 1.80859e-08)
(4.92918e-10 -1.73121e-09 4.83391e-08)
(8.036e-10 4.75398e-09 7.22232e-08)
(1.75957e-09 -4.14296e-09 1.26933e-07)
(-2.47309e-09 -4.70515e-10 3.23997e-07)
(3.92821e-11 1.29629e-09 5.53153e-08)
(2.56029e-09 -4.04743e-09 1.31382e-07)
(-2.73551e-08 1.09836e-09 2.25785e-07)
(-3.28668e-10 -9.38278e-11 2.2148e-07)
(1.80701e-09 2.59595e-11 2.76498e-08)
(3.67967e-10 2.5316e-09 2.21929e-07)
(-1.5429e-08 -7.81429e-09 1.4728e-07)
(-1.06661e-10 4.79642e-10 2.08323e-07)
(-2.04132e-09 1.43326e-09 9.75603e-08)
(-8.68843e-10 -6.18545e-10 1.81734e-07)
(2.30452e-09 4.66839e-09 1.02538e-07)
(-8.39403e-10 1.08127e-09 1.59098e-07)
(-8.07458e-10 8.48456e-10 1.6772e-07)
(3.5261e-09 -5.90309e-09 6.91181e-08)
(3.54198e-10 -3.96278e-10 3.06041e-07)
(-4.78447e-09 -1.1857e-09 7.10232e-08)
(2.01411e-09 -1.27088e-09 1.46886e-08)
(-8.3782e-10 1.65176e-09 3.17483e-07)
(-2.10177e-10 4.28307e-10 2.00582e-07)
(-2.25594e-09 1.43634e-09 2.90002e-07)
(1.12545e-09 -3.25604e-09 2.24123e-07)
(2.16728e-09 6.23585e-10 4.87997e-07)
(4.00497e-09 -5.13076e-10 1.32333e-07)
(1.89826e-09 -5.07737e-10 4.19414e-07)
(1.92917e-09 4.64389e-09 9.46824e-08)
(-1.51992e-10 -6.62387e-11 1.58135e-07)
(4.07254e-09 2.20389e-09 3.01458e-07)
(-3.6053e-09 -2.42396e-09 3.08568e-08)
(-2.55781e-09 4.76742e-10 3.04459e-07)
(2.30561e-09 -2.57181e-09 1.09193e-07)
(1.35126e-09 2.61389e-09 2.84239e-08)
(-2.77033e-09 1.19776e-09 2.75468e-07)
(-2.30208e-09 1.14744e-10 5.9706e-08)
(-4.44785e-11 -2.88103e-10 2.02058e-07)
(-3.80577e-10 1.06488e-09 2.3627e-07)
(-4.27404e-11 6.36752e-10 3.71568e-07)
(1.5642e-10 6.17472e-09 9.27143e-08)
(1.17446e-09 4.33556e-10 3.03022e-07)
(3.15232e-09 5.88924e-10 1.477e-07)
(-2.68395e-11 1.75783e-10 3.37696e-07)
(-7.82933e-10 3.83906e-10 3.37064e-07)
(-1.06094e-09 1.68612e-09 2.98993e-07)
(-8.52688e-10 4.84638e-10 1.78272e-07)
(3.22531e-09 -1.25118e-09 4.64683e-08)
(3.87802e-10 6.03093e-10 6.71825e-08)
(8.73423e-10 2.31338e-10 1.88596e-07)
(1.03049e-09 -2.82922e-09 2.92142e-07)
(4.76019e-10 2.12844e-09 2.68759e-08)
(1.10312e-09 -2.57028e-10 2.52754e-07)
(7.57914e-11 1.22421e-09 5.01181e-07)
(-1.32834e-10 7.95545e-10 3.67955e-07)
(4.12921e-10 1.15531e-09 4.02086e-07)
(-4.06262e-09 1.26854e-09 2.43002e-07)
(-1.46695e-09 2.10528e-09 1.91557e-08)
(6.57194e-10 2.82486e-11 2.38759e-07)
(1.03115e-09 -1.79623e-09 1.43882e-07)
(-9.69126e-10 2.52117e-09 2.69933e-07)
(-2.22263e-10 6.65927e-10 1.56481e-07)
(-1.97934e-09 -1.31062e-09 3.36055e-08)
(-1.56387e-10 -3.50855e-10 2.2768e-07)
(-3.56025e-09 4.46137e-09 1.46569e-07)
(-4.44559e-10 -3.82508e-10 2.41887e-07)
(6.27456e-11 2.33325e-10 2.9361e-07)
(-7.5406e-10 2.2484e-09 1.99296e-07)
(1.15111e-09 1.55847e-09 1.29706e-08)
(-1.98187e-09 9.49588e-10 1.90063e-08)
(-9.03184e-11 8.26728e-10 1.99807e-07)
(2.52539e-09 -7.06213e-10 3.21993e-07)
(-1.54812e-09 3.86992e-10 2.50065e-07)
(-1.01501e-09 -1.32087e-09 1.86435e-07)
(-5.6353e-10 2.62784e-09 1.55982e-07)
(-8.22724e-10 1.86864e-09 2.56766e-07)
(7.45557e-11 1.78693e-09 3.05036e-07)
(6.54231e-10 1.5569e-09 1.84704e-08)
(-4.40292e-10 6.90199e-10 1.60184e-07)
(-1.9535e-08 1.12634e-09 1.74186e-07)
(-6.94949e-11 2.48423e-09 4.38528e-08)
(-6.02294e-10 5.35387e-09 8.2023e-08)
(-1.3913e-09 1.55551e-09 3.05529e-07)
(2.34294e-09 -1.19364e-09 2.10913e-07)
(7.5602e-12 -6.7107e-10 1.96109e-07)
(1.26755e-09 -1.09668e-09 2.31642e-07)
(-3.90457e-09 2.86635e-09 1.34787e-07)
(1.30301e-09 1.55953e-10 3.62219e-07)
(1.18653e-09 -5.69517e-09 1.74741e-07)
(4.24726e-10 -7.44905e-10 4.49012e-07)
(1.5715e-10 1.01411e-09 2.29762e-07)
(-1.951e-10 -2.78925e-10 2.58917e-07)
(-1.79835e-10 -1.80827e-10 3.3663e-07)
(1.88474e-09 1.29345e-09 4.53173e-08)
(-5.54809e-10 -6.75803e-11 5.56053e-07)
(-2.77393e-10 -1.61901e-09 3.18325e-08)
(-1.66875e-08 -2.26181e-09 1.48944e-07)
(3.92347e-09 -2.76836e-09 1.11345e-07)
(-1.69232e-08 -9.59126e-11 1.61642e-07)
(1.01328e-09 1.29962e-09 2.11118e-07)
(-4.83572e-08 1.13e-09 2.90782e-07)
(6.49229e-11 5.91073e-10 1.46628e-07)
(-1.31646e-09 1.21093e-11 3.36535e-07)
(-4.06888e-09 3.95912e-10 3.42838e-07)
(-2.31883e-11 4.78917e-10 2.25485e-07)
(-6.60687e-10 -2.19338e-10 3.30675e-08)
(-5.34855e-09 1.64853e-10 1.18483e-07)
(-3.01156e-08 2.1125e-09 2.10307e-07)
(-1.98858e-10 -2.61912e-10 2.31621e-07)
(-7.32429e-10 1.92042e-09 9.79094e-08)
(-2.29004e-08 1.46385e-09 2.1824e-07)
(-9.22313e-09 1.69572e-10 2.39179e-07)
(1.45433e-09 3.28475e-09 3.01286e-07)
(-1.64543e-09 -6.22491e-10 4.20558e-08)
(1.36601e-09 2.56012e-09 5.17331e-08)
(-2.25751e-10 -1.40553e-10 2.58426e-08)
(1.0378e-09 9.69594e-10 1.85295e-08)
(-1.99749e-10 4.42877e-12 4.21025e-08)
(-1.86085e-08 4.36696e-10 2.21596e-07)
(-1.03852e-09 -1.00905e-09 1.82494e-07)
(-1.6738e-09 -1.89262e-09 1.76362e-08)
(-2.46422e-09 6.67622e-10 1.94841e-08)
(3.80313e-10 -2.85398e-10 3.89214e-07)
(-2.57727e-08 5.66541e-09 1.6616e-07)
(-2.02331e-09 2.09215e-10 4.46111e-08)
(-1.11761e-09 7.93143e-12 2.28252e-07)
(-1.53551e-09 1.04383e-09 1.048e-07)
(1.83841e-09 -6.78581e-10 2.00646e-07)
(1.3588e-09 2.09548e-09 4.22614e-08)
(-1.85501e-09 -2.35634e-09 9.03933e-08)
(2.86554e-10 2.16292e-09 1.8806e-07)
(1.49991e-09 2.78744e-10 2.82699e-07)
(1.54259e-09 1.15776e-09 4.04163e-07)
(-2.12191e-09 2.8684e-09 4.06008e-08)
(-5.70021e-10 -2.04207e-09 2.33765e-08)
(-3.5875e-08 3.79353e-10 2.01614e-07)
(-2.76292e-09 2.09524e-09 2.65932e-08)
(-5.92923e-10 2.78851e-09 3.08587e-07)
(-3.49828e-09 -1.13597e-09 2.71589e-08)
(6.82534e-10 3.04085e-09 1.4425e-07)
(-2.48341e-09 6.68289e-11 3.28121e-07)
(2.93132e-09 5.96162e-10 4.50023e-07)
(-4.47641e-10 -1.24533e-09 5.61466e-08)
(1.38167e-09 -6.40014e-10 1.36059e-07)
(-2.07769e-09 -2.52323e-10 3.71898e-08)
(-3.45631e-09 -2.36943e-10 2.75659e-08)
(-6.24601e-10 -1.09752e-09 2.80974e-07)
(-1.91043e-09 9.51112e-10 1.39083e-08)
(6.84279e-10 2.41849e-10 1.88097e-07)
(-4.08901e-10 -3.09204e-09 5.86357e-08)
(-5.37107e-10 2.8761e-09 3.30301e-07)
(-3.72792e-10 1.31465e-09 2.26118e-07)
(2.7294e-09 1.09512e-09 1.82801e-08)
(-2.58816e-09 -6.05165e-09 1.301e-07)
(2.566e-10 1.46454e-09 2.49479e-07)
(-1.3146e-10 1.46964e-09 3.00121e-08)
(9.7669e-10 1.07919e-09 2.98079e-07)
(-1.90685e-09 5.31201e-09 7.63494e-08)
(2.47057e-10 2.00365e-10 2.09014e-07)
(2.00856e-10 -2.62076e-10 2.45621e-07)
(1.90177e-09 -6.99714e-11 5.30025e-08)
(-2.69403e-09 -5.59436e-10 2.03365e-08)
(-1.83502e-09 -6.76052e-10 8.84896e-08)
(-3.90847e-08 2.10102e-10 2.43644e-07)
(-1.35781e-09 -7.48487e-11 2.19557e-07)
(2.07299e-11 5.03842e-09 7.43576e-08)
(2.37449e-09 -5.74309e-10 1.76982e-07)
(3.32715e-10 9.6681e-10 2.32187e-08)
(4.63555e-10 -6.73871e-11 2.19096e-07)
(1.06486e-09 1.43013e-09 2.23206e-08)
(-1.81784e-09 3.50065e-10 3.43805e-07)
(-6.80236e-11 -6.98154e-10 2.99889e-07)
(-8.91966e-10 -1.15e-10 2.28048e-07)
(-1.34496e-09 -1.3969e-10 1.37545e-08)
(2.19593e-10 -1.34943e-09 3.45107e-07)
(-1.96135e-09 9.22286e-10 1.53485e-07)
(-3.05794e-10 -4.16769e-11 3.63707e-07)
(2.47775e-10 7.31332e-10 6.05226e-08)
(-3.00696e-08 8.06634e-10 2.22572e-07)
(-2.07587e-09 6.03494e-10 2.65113e-07)
(1.0268e-09 -1.64608e-10 6.26625e-08)
(-7.6432e-10 3.69666e-12 2.77323e-07)
(-3.94733e-08 4.58907e-09 2.10066e-07)
(-1.11865e-09 -6.74529e-10 1.79318e-07)
(-7.30199e-10 -1.75929e-09 3.13763e-08)
(-2.47377e-09 4.82817e-09 9.6525e-08)
(-1.81248e-10 3.12545e-10 2.05775e-07)
(1.98331e-09 -1.45362e-09 2.15511e-07)
(-1.08152e-09 1.27465e-09 3.03745e-08)
(-3.3028e-10 -4.44569e-09 2.14605e-07)
(3.68864e-09 3.16578e-09 1.53407e-07)
(-1.58091e-09 1.88022e-09 2.34501e-08)
(-4.8225e-10 4.49334e-11 2.16182e-07)
(-1.54661e-08 7.47563e-10 1.5832e-07)
(-2.39558e-09 -5.29676e-09 3.20517e-07)
(-8.97424e-11 7.29076e-10 2.10355e-07)
(6.81344e-10 8.45848e-10 1.93402e-07)
(-5.75208e-11 -3.79831e-11 3.22645e-07)
(1.53929e-09 -7.85127e-10 2.52545e-07)
(1.71582e-09 5.91463e-10 6.74776e-08)
(-8.89019e-10 4.61861e-09 6.9153e-08)
(-8.1161e-10 1.69817e-09 4.00952e-07)
(-2.6727e-08 -1.15018e-09 2.24793e-07)
(3.0499e-10 1.79792e-09 2.04321e-07)
(2.09556e-09 -1.97022e-09 1.84871e-07)
(2.98883e-09 -1.50813e-09 1.23172e-07)
(-1.30503e-09 3.39639e-09 3.23556e-07)
(8.93265e-10 1.13732e-09 2.07702e-07)
(-1.69671e-09 -1.82171e-09 1.76299e-07)
(-3.4975e-09 2.26594e-09 2.19499e-07)
(-1.69158e-09 2.31018e-09 4.29271e-08)
(-1.13027e-09 -7.12248e-10 1.64485e-07)
(-2.32603e-09 -1.79294e-09 3.72462e-08)
(2.05775e-09 -1.84951e-09 3.15029e-07)
(1.00627e-09 -7.97226e-10 3.39162e-07)
(-1.59024e-09 4.85223e-09 1.61281e-07)
(5.83787e-13 -1.69226e-09 1.57536e-07)
(9.73033e-10 -1.47528e-09 1.69396e-08)
(3.21521e-10 -9.80083e-10 1.0123e-07)
(-3.55499e-09 -1.68279e-09 7.24056e-08)
(-1.53543e-09 4.51534e-10 2.75892e-07)
(1.03055e-09 3.98609e-10 2.50137e-07)
(-2.37555e-08 -1.53689e-09 2.20569e-07)
(-1.87976e-09 1.17848e-09 3.21639e-07)
(-1.49021e-09 2.65648e-09 7.96204e-08)
(-1.11838e-08 5.1038e-10 1.36574e-07)
(1.29908e-09 -3.77503e-09 2.41766e-07)
(1.75532e-09 8.83524e-10 2.56506e-08)
(4.92126e-10 -5.22917e-10 2.56836e-07)
(-1.81924e-10 1.44884e-09 5.18301e-08)
(-2.0039e-09 -2.83253e-10 2.0596e-07)
(3.83581e-09 -2.00373e-09 3.02497e-08)