/*--------------------------------*- C++ -*----------------------------------*\
| =========                 |                                                 |
| \\      /  F ield         | OpenFOAM: The Open Source CFD Toolbox           |
|  \\    /   O peration     | Version:  2406                                  |
|   \\  /    A nd           | Website:  www.openfoam.com                      |
|    \\/     M anipulation  |                                                 |
\*---------------------------------------------------------------------------*/
FoamFile
{
    version     2.0;
    format      ascii;
    arch        "LSB;label=32;scalar=64";
    class       volVectorField;
    location    "64";
    object      momentum:momentum;
}
// * * * * * * * * * * * * * * * * * * * * * * * * * * * * * * * * * * * * * //

dimensions      [1 1 -1 0 0 0 0];

internalField   nonuniform List<vector> 
59516
(
(2.2284e-07 -2.50697e-09 -1.15871e-09)
(1.6422e-07 -1.72717e-10 -6.75496e-10)
(2.01309e-07 -1.01224e-09 -8.8441e-10)
(1.71841e-07 1.66228e-09 2.43774e-09)
(1.99987e-07 3.70255e-10 -8.02664e-09)
(5.03649e-08 -2.40658e-09 -5.37989e-09)
(2.09164e-07 -3.60865e-09 -3.81729e-09)
(1.91546e-07 1.19482e-09 -2.2562e-10)
(1.5484e-07 1.24452e-09 -6.14328e-11)
(7.64435e-08 -1.52542e-09 2.9681e-09)
(2.08451e-07 -4.73753e-10 -3.41315e-09)
(1.01545e-07 3.24836e-10 -6.38341e-09)
(3.1724e-07 3.20838e-09 1.55947e-10)
(1.53783e-08 -9.92314e-11 -1.41215e-10)
(1.46271e-07 3.49125e-09 8.1329e-09)
(8.2103e-08 5.69246e-09 -2.52404e-09)
(2.70281e-07 -4.50944e-09 -2.13333e-09)
(1.59726e-07 9.15847e-09 -1.00093e-08)
(3.29735e-07 1.76639e-08 1.76686e-09)
(3.74205e-07 -4.27641e-09 -1.14724e-09)
(9.93687e-08 1.72512e-09 -2.39096e-09)
(3.17352e-07 -2.08683e-09 5.19659e-10)
(3.51265e-07 -2.76516e-09 -6.4031e-09)
(3.34276e-08 -1.02275e-09 -2.87485e-10)
(3.13496e-07 -1.29643e-09 5.82812e-10)
(1.94392e-07 4.51859e-09 1.91026e-09)
(5.03165e-08 1.00457e-09 -3.54526e-09)
(7.40294e-08 6.34109e-09 3.17273e-10)
(1.44302e-07 6.10569e-09 -1.38092e-09)
(1.28077e-08 -1.99494e-09 4.86192e-10)
(1.89464e-07 -3.67868e-08 -8.11144e-09)
(8.3672e-08 6.75568e-09 -1.0624e-09)
(1.73215e-07 1.16871e-10 1.05466e-09)
(1.7298e-07 -1.5495e-09 3.0979e-09)
(1.33668e-07 5.29877e-09 3.80431e-09)
(3.99467e-07 8.20409e-10 -1.42316e-09)
(1.24273e-08 -1.20972e-09 -1.72785e-09)
(1.31644e-07 5.05334e-09 -1.27424e-08)
(2.66378e-07 -1.09353e-08 -1.12175e-09)
(2.84225e-07 4.57956e-10 -1.39202e-09)
(2.52296e-07 -1.40552e-09 5.95474e-10)
(4.06997e-07 -2.42591e-08 -2.2603e-08)
(3.43339e-07 -9.74705e-09 -8.13879e-09)
(1.08265e-07 -6.94351e-10 3.14895e-10)
(2.64679e-07 -1.04037e-08 -9.56075e-10)
(9.90997e-08 -1.357e-09 -2.28214e-09)
(3.24329e-07 -7.53119e-09 -1.1308e-08)
(2.55048e-07 -8.30828e-09 -1.71345e-09)
(2.51868e-07 -2.02482e-08 2.78781e-08)
(2.41316e-07 1.10774e-08 8.61873e-09)
(1.63915e-07 1.65028e-08 -2.28733e-08)
(7.3417e-08 -6.44873e-09 4.40386e-09)
(3.11031e-07 2.80021e-09 -6.06796e-09)
(2.96153e-07 -1.35098e-09 3.27671e-10)
(8.20236e-08 5.27589e-09 -4.53259e-11)
(2.45994e-07 5.94163e-09 -1.84884e-09)
(2.0348e-07 1.17044e-08 1.2005e-08)
(7.37371e-08 6.47596e-09 -4.528e-09)
(2.14707e-07 4.78808e-11 -4.2968e-10)
(1.45872e-07 6.99934e-09 8.76993e-09)
(2.08954e-07 -8.04821e-10 -3.89909e-11)
(1.46292e-08 1.85102e-09 -6.39386e-10)
(2.73854e-07 5.37253e-10 1.36866e-09)
(3.44841e-07 6.07188e-09 4.74933e-09)
(2.84825e-07 7.18301e-10 -1.97207e-09)
(2.15563e-07 5.80016e-09 8.297e-09)
(1.72876e-08 -1.17439e-09 1.58303e-09)
(6.40362e-08 4.18194e-10 -3.85551e-10)
(1.98343e-07 -8.2445e-09 3.62885e-08)
(1.68899e-07 1.57765e-09 -4.54327e-09)
(4.99468e-08 1.36215e-09 4.12127e-10)
(1.58771e-07 2.71606e-09 -3.92286e-10)
(2.22954e-08 1.39385e-09 -3.38964e-09)
(1.86241e-07 2.35053e-09 1.01097e-09)
(3.9334e-07 -8.17662e-10 -1.13813e-09)
(3.60726e-07 -6.26353e-09 -7.80241e-09)
(2.15252e-07 -3.76237e-09 -5.56488e-09)
(2.2694e-07 -4.70815e-10 6.92736e-10)
(8.15673e-08 -2.68747e-09 2.57852e-09)
(1.93365e-07 4.01649e-09 1.02632e-08)
(4.83971e-08 2.98541e-09 1.43909e-09)
(1.71614e-07 4.96575e-09 7.46577e-09)
(1.82946e-07 2.51236e-09 8.06632e-09)
(1.73597e-08 -6.52436e-10 2.43303e-09)
(2.15319e-07 4.92755e-09 9.8444e-09)
(3.88404e-07 -2.77726e-09 2.767e-10)
(3.03957e-08 -1.12023e-09 4.88779e-10)
(5.01735e-07 -2.06326e-09 -1.69442e-09)
(1.07029e-07 1.33902e-09 4.14352e-09)
(1.66758e-07 1.32085e-08 -9.0784e-09)
(1.83368e-07 -1.22666e-09 -1.60839e-08)
(1.89688e-07 1.87569e-09 -5.15848e-10)
(2.66452e-07 8.40841e-10 -6.59036e-10)
(1.82327e-07 1.21183e-09 -4.44608e-10)
(1.87011e-07 -9.18488e-11 -1.18256e-11)
(1.83415e-07 -1.75658e-08 6.56274e-09)
(1.24051e-07 -2.68394e-10 3.44938e-10)
(8.17995e-08 -3.0714e-09 -6.51038e-09)
(1.1504e-07 4.37206e-09 -1.90899e-09)
(2.07908e-07 -1.0547e-09 2.55567e-09)
(5.99657e-08 9.00593e-10 2.27539e-09)
(2.51503e-08 1.31389e-09 -2.84061e-09)
(2.2221e-08 7.90047e-10 3.04222e-09)
(8.20854e-08 -1.22902e-09 -4.5468e-09)
(2.32025e-07 1.40847e-09 -3.36646e-10)
(1.64921e-07 -5.84039e-10 -5.51216e-10)
(5.30595e-08 4.6801e-09 -1.94215e-09)
(1.34723e-07 3.64193e-10 -1.06484e-09)
(1.7162e-07 -1.18634e-09 4.42595e-10)
(1.82664e-07 1.12798e-09 -7.32874e-09)
(2.80325e-07 2.90217e-08 -3.04538e-08)
(4.13976e-08 4.20713e-09 -6.98769e-10)
(1.81427e-07 2.36458e-09 -1.14469e-08)
(2.19234e-07 3.23798e-08 -1.62514e-08)
(2.23164e-07 -1.84554e-10 2.61561e-10)
(1.3349e-07 1.50335e-09 1.63912e-09)
(1.22227e-07 1.40599e-09 -4.52923e-09)
(1.42817e-07 -1.11714e-10 7.44611e-10)
(1.75595e-08 -2.5837e-10 8.47924e-10)
(2.62767e-07 1.97819e-09 6.03601e-10)
(4.35757e-07 -1.37771e-11 2.61941e-10)
(1.81661e-07 -2.87196e-10 6.90508e-10)
(1.6035e-07 -4.74112e-11 8.34359e-10)
(1.88525e-07 -3.0051e-10 3.94567e-10)
(1.33089e-07 -1.7941e-08 2.74564e-09)
(1.43613e-07 2.10386e-09 -4.92578e-09)
(3.43725e-08 -6.69309e-10 2.24766e-09)
(2.12296e-07 -2.11906e-08 -1.79599e-09)
(1.63212e-07 -5.00484e-09 2.38743e-08)
(1.66774e-07 1.57232e-10 -2.11497e-10)
(2.99155e-07 2.5347e-10 -2.37704e-10)
(3.17801e-07 5.07631e-09 5.47021e-09)
(2.16274e-08 1.29632e-09 -1.4825e-09)
(2.54307e-07 -8.47482e-10 5.5844e-10)
(3.08633e-07 3.27279e-09 9.0064e-10)
(1.92775e-07 -1.00424e-09 -3.76876e-09)
(1.51778e-07 1.81157e-08 -1.26736e-08)
(3.08607e-07 -9.25376e-10 7.44034e-10)
(4.98057e-08 3.45894e-09 1.7147e-10)
(1.56702e-07 1.02957e-09 -2.13588e-09)
(7.34929e-08 -1.44788e-09 -3.78686e-09)
(3.47715e-07 -8.96449e-10 2.50323e-10)
(1.32621e-08 5.55521e-10 1.15567e-09)
(1.48518e-07 -1.10332e-09 -8.12412e-10)
(2.22949e-07 6.89911e-10 1.7949e-09)
(2.83912e-07 4.75953e-09 1.24562e-09)
(2.02721e-07 -8.15026e-09 -3.17812e-09)
(2.04262e-07 3.4333e-09 -5.61303e-09)
(6.40332e-08 -1.0359e-09 1.78428e-09)
(2.03706e-07 -9.60754e-10 -1.9964e-09)
(3.13924e-07 -1.6975e-09 -2.66958e-09)
(4.98224e-08 -1.92119e-09 1.24508e-11)
(3.9257e-07 -2.13202e-09 2.29931e-09)
(2.18851e-07 1.52084e-11 -1.05713e-10)
(1.55334e-07 -2.75189e-11 3.97333e-09)
(1.39033e-08 -2.54256e-10 1.49138e-09)
(2.72253e-07 -1.27949e-09 -6.47907e-10)
(3.25419e-07 5.22947e-09 -1.45246e-10)
(1.26377e-07 2.20079e-09 4.99308e-10)
(1.49588e-08 1.77755e-09 -1.94811e-09)
(8.67011e-08 2.26174e-09 -4.29812e-09)
(1.08934e-07 -5.85375e-09 -3.54322e-09)
(3.80077e-08 -1.53875e-09 3.70971e-10)
(2.12956e-08 -1.82866e-10 -4.11276e-10)
(1.586e-07 2.98619e-09 3.94218e-09)
(3.39128e-07 -5.77144e-10 1.91635e-09)
(1.51046e-07 -2.0985e-09 1.09428e-09)
(2.93011e-07 2.08209e-09 -2.42286e-10)
(1.66588e-08 -1.05303e-09 1.88427e-09)
(2.15297e-07 -8.57466e-10 -4.74949e-10)
(8.491e-08 1.52842e-09 1.22799e-09)
(6.49496e-08 1.06818e-09 -9.91212e-10)
(1.0218e-07 2.73067e-09 1.22775e-09)
(1.50353e-07 -1.68315e-11 5.95755e-10)
(8.17652e-08 -1.1795e-09 3.46025e-10)
(4.52774e-07 -5.71406e-09 -1.88586e-08)
(2.55057e-07 -4.70845e-10 -1.24888e-09)
(3.10068e-07 -1.22928e-08 -7.79473e-09)
(1.44489e-07 -1.71074e-09 6.68711e-09)
(5.94035e-08 -1.68511e-10 -8.14016e-10)
(3.07951e-07 5.51471e-09 1.16673e-09)
(4.0816e-08 -3.64243e-09 -1.6912e-09)
(2.82551e-08 -3.3224e-10 -2.20922e-09)
(1.01158e-07 -2.44369e-09 2.8711e-10)
(2.15452e-07 7.35531e-10 9.04431e-10)
(9.40957e-08 5.2517e-10 1.13712e-09)
(4.41607e-08 -6.67374e-10 -3.46096e-09)
(1.92554e-08 1.42831e-11 2.62176e-10)
(1.88435e-07 6.16343e-10 -7.142e-11)
(2.2025e-07 -3.80208e-09 -2.49282e-10)
(1.58819e-07 -5.18175e-10 3.08006e-09)
(1.10432e-07 6.80549e-09 -1.86937e-10)
(2.18295e-07 -2.02661e-09 1.15428e-10)
(9.04461e-08 3.20237e-09 1.35118e-10)
(3.39833e-07 -5.44806e-10 -2.02478e-09)
(2.76265e-08 -2.36533e-10 7.59237e-10)
(9.31714e-08 1.31898e-09 -5.71773e-11)
(5.40342e-08 -1.5598e-09 3.94415e-10)
(1.81005e-07 5.03623e-09 5.94687e-09)
(2.66577e-07 1.06298e-09 -1.0981e-09)
(7.52178e-08 -2.67017e-09 2.24408e-10)
(2.06791e-07 -4.48255e-10 1.38235e-10)
(3.04134e-07 -2.4786e-09 2.40828e-09)
(1.51782e-08 1.63909e-09 -1.13342e-09)
(2.16909e-07 -1.35108e-09 -9.68495e-10)
(2.38951e-07 9.01578e-10 5.36598e-10)
(3.65973e-07 8.40894e-10 -8.18151e-10)
(2.02565e-07 -1.99759e-09 -1.18771e-09)
(1.73656e-08 -5.73836e-10 1.64451e-10)
(2.96298e-07 -5.54699e-09 -3.86136e-10)
(5.82563e-08 4.11727e-09 3.71398e-09)
(2.5058e-08 -4.13316e-09 -6.85377e-10)
(2.31114e-07 1.59637e-10 -2.47291e-09)
(9.10411e-08 -2.01868e-09 1.24001e-09)
(2.87797e-07 3.97671e-09 1.04558e-10)
(2.96687e-07 2.10479e-10 -7.14176e-10)
(2.72842e-07 3.40162e-09 1.3967e-09)
(2.09139e-07 -1.93888e-09 6.59814e-10)
(7.94949e-08 3.20291e-09 -4.28777e-09)
(2.20607e-07 -1.42292e-10 1.1148e-09)
(1.13751e-07 4.29784e-09 4.14846e-09)
(1.92363e-07 8.76513e-10 4.86699e-10)
(1.84713e-07 9.05507e-10 1.12893e-09)
(6.9888e-08 -2.80002e-10 1.12934e-09)
(3.07929e-07 2.60525e-10 -8.07671e-10)
(3.22591e-07 -4.30516e-10 -7.56346e-10)
(3.05288e-08 -3.66157e-10 1.54476e-09)
(6.24285e-08 2.00998e-09 -2.95167e-09)
(2.06736e-07 6.1777e-10 9.11979e-10)
(1.13211e-07 5.94614e-10 -8.70539e-09)
(2.49814e-07 -8.68965e-10 -7.08021e-11)
(1.8703e-07 3.5622e-10 -4.62549e-10)
(3.43318e-07 1.20492e-09 1.33503e-09)
(2.53918e-08 -1.96776e-09 -1.43308e-09)
(2.97289e-08 7.93302e-10 -1.40708e-09)
(3.72302e-08 1.03974e-09 -1.35107e-09)
(1.04853e-07 6.90823e-10 -5.28363e-11)
(1.69309e-07 -2.05211e-09 1.20025e-09)
(4.26556e-07 2.9641e-09 3.69915e-09)
(8.31776e-08 -1.85303e-09 2.34447e-09)
(2.69639e-07 -3.60731e-10 6.435e-10)
(1.7722e-08 3.13286e-10 2.61748e-09)
(1.0563e-07 7.52629e-11 1.82521e-09)
(2.53923e-08 1.31979e-10 2.8209e-09)
(1.7482e-07 4.12091e-10 5.52459e-10)
(1.47792e-07 -9.89056e-10 -1.35008e-10)
(1.9799e-07 3.93874e-10 1.78858e-09)
(1.79958e-07 3.08177e-09 -4.0881e-09)
(2.85334e-07 3.64372e-10 -1.27304e-09)
(1.95315e-07 9.18062e-10 1.05786e-09)
(3.89676e-07 7.00286e-10 2.50474e-10)
(2.12758e-07 -1.76882e-10 1.24648e-09)
(2.08419e-07 4.46788e-10 7.75708e-10)
(2.82581e-07 1.9405e-09 -1.96333e-09)
(2.84097e-07 2.21164e-09 2.57517e-09)
(3.05045e-07 -3.76048e-10 2.27181e-09)
(1.07305e-07 2.6674e-11 -5.163e-10)
(2.87e-07 1.97357e-09 3.68767e-09)
(7.65223e-08 -8.26406e-10 -4.24912e-09)
(9.35318e-08 7.20028e-10 3.23955e-09)
(2.15526e-07 1.46303e-09 -1.8145e-09)
(2.67722e-07 -4.67441e-10 4.3614e-10)
(2.3384e-07 6.87313e-09 3.37346e-09)
(2.98742e-07 5.46996e-10 4.94479e-10)
(7.19926e-08 1.6148e-10 1.56521e-09)
(1.02586e-07 3.89992e-09 -2.88648e-09)
(3.10247e-07 -4.38385e-10 -2.80028e-09)
(2.0825e-07 4.62247e-09 1.12023e-09)
(5.83194e-08 -9.99811e-10 -9.65176e-10)
(7.13762e-08 4.23085e-10 -2.07287e-09)
(1.63445e-07 1.90062e-09 -5.82233e-09)
(1.94952e-07 4.69944e-11 -2.91845e-10)
(2.99198e-07 -7.85402e-09 2.02894e-10)
(1.44058e-07 -2.52787e-09 1.4377e-09)
(3.42816e-07 -2.14551e-09 -1.34198e-09)
(1.83342e-07 -1.27452e-09 4.65838e-09)
(1.82839e-08 2.20041e-09 -1.23325e-09)
(3.02687e-07 7.32606e-10 1.32274e-09)
(2.71243e-08 1.74081e-09 -2.3477e-09)
(4.97334e-08 -2.04179e-09 1.41531e-09)
(3.79313e-07 1.29149e-09 2.03767e-09)
(2.48321e-07 5.9662e-10 -6.85278e-10)
(2.64051e-08 2.8203e-09 2.81161e-09)
(2.92343e-07 2.02475e-09 1.2388e-09)
(2.40971e-07 4.96353e-09 -2.20951e-10)
(2.53353e-07 -2.62389e-09 3.24702e-09)
(3.45795e-07 -6.14608e-10 6.5308e-10)
(2.18873e-08 2.59982e-09 4.50482e-10)
(2.99348e-07 1.05141e-09 5.639e-10)
(1.61776e-07 9.83078e-11 6.17236e-12)
(1.6715e-07 2.15494e-10 6.6876e-10)
(2.51151e-07 1.74811e-09 1.49241e-09)
(1.70285e-07 8.33064e-10 7.62417e-10)
(1.71519e-07 1.01272e-09 -3.25933e-10)
(2.73245e-07 9.91368e-10 4.34501e-10)
(3.65718e-08 -1.31201e-09 -1.68073e-09)
(2.90554e-07 -3.14099e-10 8.59056e-10)
(1.89519e-07 -3.20747e-10 -8.88256e-10)
(3.90563e-07 8.26551e-10 4.07288e-10)
(2.79361e-07 1.6715e-09 1.1486e-09)
(3.03731e-07 -1.0991e-09 1.66751e-09)
(1.29893e-07 2.1036e-09 2.88777e-09)
(1.86504e-08 -2.90224e-10 1.28904e-09)
(3.33399e-08 -8.10853e-10 5.39205e-10)
(5.15042e-07 -3.58118e-09 -3.35431e-09)
(1.70263e-08 -9.89293e-10 2.44915e-09)
(1.66399e-07 -8.91801e-10 -2.98383e-09)
(7.00979e-08 3.92266e-09 1.52868e-09)
(3.24122e-07 1.59924e-09 1.61696e-09)
(3.86338e-07 -9.55454e-10 -7.59815e-10)
(3.1624e-07 -8.75098e-11 -2.03821e-09)
(1.17817e-07 3.33259e-10 -2.74157e-09)
(2.8752e-07 4.85438e-09 -7.02783e-09)
(6.40601e-08 -5.39812e-09 4.32365e-09)
(8.63209e-08 2.10782e-09 1.69116e-09)
(2.04149e-07 1.09489e-09 -8.36712e-12)
(1.51023e-07 1.5329e-09 -1.45265e-09)
(2.69465e-07 3.08726e-08 8.75859e-09)
(1.8686e-07 -4.16998e-09 1.91916e-09)
(6.07281e-08 -2.27457e-10 -5.66425e-10)
(9.83331e-08 -1.42474e-09 3.1955e-09)
(2.02184e-07 -1.87983e-09 -3.13355e-09)
(2.24858e-07 -6.87766e-11 -5.64297e-10)
(4.48369e-07 -2.11559e-09 2.09566e-09)
(2.40891e-07 4.96502e-10 1.45499e-09)
(4.94722e-07 -4.49255e-09 1.18307e-09)
(1.66583e-07 6.64566e-09 7.95847e-09)
(3.3224e-07 1.66581e-09 2.35536e-09)
(2.85793e-07 1.09416e-09 1.60043e-09)
(2.00241e-07 -9.79321e-10 1.10126e-10)
(3.43629e-07 -2.03692e-09 1.69399e-09)
(1.00495e-07 2.03181e-09 -6.17404e-09)
(2.18976e-08 -1.48238e-09 -2.55751e-09)
(2.95341e-07 -2.73567e-09 3.87218e-10)
(5.47696e-08 -2.71138e-09 3.01779e-09)
(2.65015e-08 6.2287e-11 3.41131e-11)
(4.01783e-07 1.2702e-09 4.73962e-09)
(1.98458e-07 8.62802e-11 4.93002e-10)
(1.06138e-07 -2.23727e-09 -5.42067e-09)
(2.64703e-07 -9.14854e-10 4.55216e-10)
(3.34147e-07 -1.20418e-09 8.25459e-10)
(4.50996e-07 -3.3162e-10 -1.14422e-09)
(2.77701e-07 -1.9876e-09 -7.16334e-10)
(2.94555e-08 1.42541e-09 6.96194e-11)
(3.18963e-07 -8.27435e-10 1.27203e-10)
(2.30352e-07 -7.87628e-10 5.94939e-10)
(9.3897e-08 2.64694e-10 1.44034e-09)
(3.14108e-07 2.57666e-11 1.65393e-09)
(2.63864e-07 -7.38897e-11 3.06738e-10)
(1.71188e-07 -1.04375e-10 -1.21101e-09)
(1.96676e-07 5.3068e-10 -1.6256e-09)
(2.7899e-07 -2.0587e-09 3.16759e-09)
(2.00562e-07 -1.56127e-09 2.73569e-10)
(7.45336e-08 -3.95049e-10 -1.04742e-10)
(1.89815e-08 8.01521e-10 -6.13547e-10)
(3.70854e-08 -2.79118e-09 -1.75461e-10)
(2.11545e-07 1.01687e-09 -8.77408e-10)
(2.67862e-07 -2.10909e-08 3.30086e-08)
(1.15791e-07 -6.52209e-09 -9.44642e-09)
(1.06551e-07 5.42229e-10 5.70962e-10)
(2.41646e-07 2.22816e-10 4.29567e-09)
(3.05541e-07 5.5967e-11 2.84495e-09)
(2.32403e-07 -2.42431e-09 6.12215e-09)
(3.6079e-07 -2.18193e-09 2.13212e-09)
(3.33372e-07 -2.36097e-09 -1.43832e-09)
(2.24059e-07 -1.23998e-10 8.03004e-10)
(1.39101e-07 8.10858e-10 2.59003e-10)
(2.25541e-08 -7.13771e-10 -2.69343e-10)
(2.41095e-07 -4.75453e-08 5.84516e-09)
(8.29368e-08 2.07601e-09 6.43495e-10)
(6.00832e-08 -2.64088e-09 -6.06463e-10)
(6.37823e-08 1.40713e-09 5.06365e-10)
(1.75876e-07 -6.20269e-10 -5.63492e-10)
(1.67765e-07 -1.04302e-09 -1.18734e-11)
(2.38578e-07 8.74551e-10 -1.80314e-09)
(1.58211e-08 8.44839e-10 -1.3572e-09)
(1.66467e-07 -4.23811e-10 4.38299e-10)
(6.08967e-08 1.42263e-09 -1.19457e-09)
(1.91038e-07 -1.76863e-10 -7.55252e-11)
(5.23467e-08 -7.29885e-10 -5.72568e-10)
(1.4206e-07 -3.26192e-09 2.47047e-09)
(2.10378e-07 -5.73941e-09 1.43989e-09)
(1.85499e-07 -1.51746e-09 1.27947e-09)
(1.75765e-08 1.36336e-09 -1.90684e-09)
(1.07203e-07 -1.17761e-09 4.31289e-09)
(2.35853e-07 -3.21081e-10 9.19775e-10)
(2.34853e-08 -1.46146e-09 -1.91246e-09)
(2.89741e-07 2.92357e-09 2.11467e-08)
(1.77644e-07 -1.29827e-09 4.08764e-09)
(2.99261e-07 -1.54138e-09 -4.86077e-09)
(1.93395e-07 4.2653e-09 -6.19407e-09)
(9.00498e-08 -1.32043e-09 2.21586e-09)
(4.00185e-07 1.07247e-09 7.91219e-10)
(1.42012e-07 -1.45646e-08 -1.32244e-08)
(3.50541e-07 2.06416e-10 -4.76463e-11)
(1.55532e-07 1.20866e-08 1.26044e-08)
(1.35301e-07 -6.30257e-09 8.13982e-10)
(1.3757e-07 -1.07486e-09 -3.11817e-09)
(2.85991e-07 -1.55272e-10 5.11677e-10)
(5.64153e-07 3.57726e-10 9.5513e-10)
(7.61804e-08 -7.72281e-10 9.23554e-10)
(3.30908e-07 7.40647e-10 -1.53779e-09)
(1.14994e-07 -5.47331e-10 -2.68476e-09)
(4.61851e-07 8.38395e-10 9.88932e-10)
(3.51699e-07 -5.02986e-10 1.82248e-09)
(6.59725e-08 1.95471e-09 -5.06492e-09)
(2.14541e-07 -1.83534e-09 3.78463e-10)
(3.81146e-07 -4.75007e-09 4.54371e-09)
(2.27701e-07 9.84555e-10 -1.16972e-09)
(2.2338e-07 1.18574e-09 7.46471e-10)
(2.2251e-08 -7.66007e-10 -2.78837e-09)
(1.87617e-08 9.206e-10 -2.34601e-09)
(2.8961e-07 2.60031e-09 -3.75163e-09)
(2.96867e-07 -1.47936e-10 -2.66054e-10)
(2.34411e-07 -1.36017e-09 -9.33544e-10)
(3.37916e-08 3.59885e-10 -2.54822e-09)
(9.21139e-08 -8.56777e-10 8.92415e-11)
(2.93731e-07 -2.96725e-09 -2.60935e-09)
(1.77172e-07 1.86548e-11 -2.65236e-10)
(3.23445e-07 -7.491e-10 2.21664e-09)
(3.01822e-07 -5.48974e-10 -8.46068e-10)
(2.26819e-07 9.26645e-10 8.98385e-10)
(2.40633e-07 2.318e-09 5.68984e-10)
(1.17095e-07 7.38522e-10 4.12338e-10)
(2.2532e-07 7.84662e-10 -3.02796e-10)
(8.42107e-08 -1.55842e-09 -3.96369e-09)
(2.95963e-07 -1.47755e-12 -1.05598e-09)
(1.84361e-07 -5.97547e-10 -1.85939e-09)
(2.16752e-07 5.79898e-10 1.47264e-09)
(2.30917e-07 1.13929e-10 -4.04962e-10)
(3.49104e-07 -1.0197e-09 2.20063e-10)
(2.66976e-07 2.47162e-10 -2.69478e-09)
(6.40839e-08 3.65978e-09 3.47327e-09)
(4.235e-08 1.1327e-09 2.88428e-10)
(1.82955e-08 1.58582e-09 -1.8011e-09)
(2.32355e-07 6.46045e-09 1.14921e-08)
(3.12061e-07 -3.76505e-10 -3.65602e-10)
(2.71991e-07 -1.21543e-09 1.2759e-09)
(1.89747e-07 1.34927e-09 9.39673e-11)
(2.82236e-08 -1.11676e-10 1.07826e-09)
(2.1257e-08 -3.2945e-10 2.43649e-09)
(1.76382e-07 -1.08577e-09 2.62342e-09)
(2.35488e-07 2.05537e-10 2.16859e-09)
(3.24701e-07 -3.86745e-10 1.18295e-09)
(3.21232e-07 1.2246e-09 5.60193e-10)
(1.96218e-07 -1.69179e-09 -9.24582e-10)
(3.65687e-07 -2.96232e-11 4.10545e-10)
(3.7132e-07 1.88674e-09 3.08808e-09)
(2.99478e-08 -5.77589e-10 2.80013e-09)
(1.79813e-07 -3.08543e-10 1.38041e-09)
(6.94607e-08 6.38051e-10 3.63891e-09)
(9.75826e-08 -9.7525e-09 2.09206e-09)
(1.30115e-07 4.52646e-10 4.61959e-10)
(1.37656e-07 8.97095e-10 -2.60519e-10)
(2.53264e-07 -1.56173e-10 4.2189e-10)
(1.81854e-08 -3.44436e-09 -1.23627e-09)
(3.71499e-07 3.77728e-10 -1.29842e-09)
(2.80872e-07 -4.32718e-10 1.67685e-10)
(2.25958e-07 -2.73213e-11 9.50827e-10)
(1.95597e-07 1.94876e-09 7.99212e-11)
(1.72653e-07 -1.0889e-09 1.9994e-09)
(2.71551e-07 4.16659e-10 4.86517e-10)
(2.42716e-07 9.72368e-10 6.9083e-10)
(3.22452e-07 4.56601e-10 3.70625e-10)
(1.66391e-07 6.97057e-09 -5.87913e-09)
(2.75684e-07 1.0955e-10 -6.18065e-10)
(2.90223e-07 -5.63907e-09 -6.87537e-10)
(1.75632e-08 -1.1118e-09 1.26946e-09)
(3.20068e-07 9.45504e-10 3.18246e-10)
(1.88334e-07 3.89327e-09 1.73183e-10)
(6.1856e-08 -1.80117e-09 5.16202e-09)
(1.67171e-07 1.64452e-09 -2.94654e-09)
(3.5302e-07 9.23094e-10 -1.85287e-10)
(2.20433e-07 -6.54366e-10 2.16397e-09)
(1.14293e-07 3.47409e-10 -3.19071e-09)
(1.72137e-08 -1.56631e-09 -1.69175e-09)
(2.65108e-07 6.42441e-10 -4.17405e-10)
(3.31251e-07 4.70633e-09 -5.00587e-09)
(2.39462e-07 -5.98469e-10 -8.66572e-10)
(1.85347e-07 -2.89946e-11 1.21888e-09)
(5.47835e-08 2.53791e-09 2.38775e-09)
(2.51219e-07 -3.20345e-11 -3.18974e-10)
(2.64219e-08 2.13582e-09 -3.41229e-09)
(1.77329e-07 2.31706e-10 -8.23438e-10)
(2.08665e-07 2.32545e-08 -7.44742e-09)
(2.62666e-07 -2.38384e-09 -1.06118e-09)
(8.42542e-08 7.66277e-11 3.00806e-09)
(1.78173e-07 -1.99254e-09 -2.8517e-09)
(1.12255e-07 3.25432e-11 -1.43929e-09)
(4.5307e-08 2.52364e-09 2.36588e-09)
(5.00238e-07 5.4454e-10 -5.08536e-10)
(2.21287e-07 -4.85848e-10 4.83987e-10)
(1.67303e-08 5.67429e-10 1.63399e-09)
(2.86831e-07 9.2665e-10 5.87351e-10)
(3.02376e-07 6.16621e-10 9.04084e-10)
(3.7047e-08 -9.09117e-11 -2.28517e-09)
(1.22987e-07 5.43495e-09 -2.53948e-10)
(9.52559e-08 3.55415e-09 2.47224e-09)
(1.92495e-07 -5.67631e-10 9.12732e-10)
(2.74137e-07 -6.50127e-10 8.20624e-10)
(3.49687e-08 -9.39418e-10 1.60191e-09)
(8.67176e-08 -2.90187e-09 -9.05235e-10)
(9.78388e-08 1.92778e-09 -1.55044e-10)
(1.72692e-07 2.45429e-09 7.66939e-10)
(3.56536e-07 -2.61273e-10 1.34288e-09)
(2.24912e-08 1.23745e-09 -2.91964e-09)
(3.68669e-07 -1.41349e-09 1.7021e-09)
(2.37089e-07 6.3595e-09 -1.40831e-09)
(2.87674e-07 -5.18732e-10 1.25013e-09)
(1.14195e-07 4.90143e-09 -4.72422e-09)
(3.38589e-07 1.62687e-11 6.64916e-10)
(2.17985e-08 -3.00572e-10 -2.3735e-09)
(2.99095e-07 -2.64361e-09 -1.29652e-09)
(2.63823e-08 -3.7483e-10 -5.02825e-11)
(1.35564e-07 -3.62658e-09 2.02182e-09)
(2.27266e-07 -1.75905e-09 1.05836e-10)
(1.31895e-07 -3.96091e-09 -1.34332e-09)
(1.80859e-08 2.10606e-09 1.87099e-09)
(4.83391e-08 9.78208e-10 -1.51102e-09)
(7.22232e-08 -3.95382e-09 2.75923e-09)
(1.26933e-07 2.59368e-09 -3.67872e-09)
(3.23997e-07 2.8202e-10 -2.50161e-09)
(5.53153e-08 -1.29296e-09 1.00818e-10)
(1.31382e-07 4.27291e-09 -2.1631e-09)
(2.25785e-07 -1.25725e-08 -2.43195e-08)
(2.2148e-07 2.09522e-10 2.7005e-10)
(2.76498e-08 1.77709e-09 3.28522e-10)
(2.21929e-07 7.61934e-10 -2.4421e-09)
(1.4728e-07 1.60826e-08 -6.36132e-09)
(2.08323e-07 1.41796e-10 -4.70453e-10)
(9.75603e-08 -1.02174e-10 -2.49214e-09)
(1.81734e-07 9.35774e-11 1.06242e-09)
(1.02538e-07 -4.1628e-09 -3.12663e-09)
(1.59098e-07 1.14129e-09 7.5578e-10)
(1.6772e-07 -3.15158e-10 -1.12807e-09)
(6.91181e-08 2.9594e-09 -6.2066e-09)
(3.06041e-07 2.99658e-10 -4.38974e-10)
(7.10232e-08 3.37691e-09 3.59075e-09)
(1.46886e-08 2.23005e-09 8.35847e-10)
(3.17483e-07 1.5153e-09 -1.06494e-09)
(2.00582e-07 -4.14845e-10 -2.35636e-10)
(2.90002e-07 2.41918e-09 -1.14013e-09)
(2.24123e-07 3.01206e-09 -1.67211e-09)
(4.87997e-07 -2.22636e-09 -3.59569e-10)
(1.32333e-07 3.98514e-09 -6.49371e-10)
(4.19414e-07 -1.83097e-09 7.13277e-10)
(9.46824e-08 -3.1376e-09 3.92975e-09)
(1.58135e-07 1.53012e-10 -6.38476e-11)
(3.01458e-07 -3.13526e-09 -3.40777e-09)
(3.08568e-08 7.97566e-10 -4.27056e-09)
(3.04459e-07 1.71282e-09 -1.95855e-09)
(1.09193e-07 8.36878e-11 3.45298e-09)
(2.84239e-08 -2.00439e-09 -2.15423e-09)
(2.75468e-07 -2.88193e-09 -8.96566e-10)
(5.9706e-08 -1.72678e-09 1.52674e-09)
(2.02058e-07 -2.91254e-10 1.23459e-11)
(2.3627e-07 -5.71763e-10 9.75656e-10)
(3.71568e-07 5.95396e-10 2.29746e-10)
(9.27143e-08 -4.18139e-09 -4.54617e-09)
(3.03022e-07 9.90946e-10 7.65085e-10)
(1.477e-07 -2.27524e-09 2.25992e-09)
(3.37696e-07 1.3689e-10 1.13494e-10)
(3.37064e-07 -2.55807e-10 8.33625e-10)
(2.98993e-07 -8.56067e-10 1.79881e-09)
(1.78272e-07 -6.35171e-10 -7.47335e-10)
(4.64683e-08 -2.62764e-09 -2.25024e-09)
(6.71825e-08 4.57541e-10 -5.52058e-10)
(1.88596e-07 -7.67097e-10 -4.77439e-10)
(2.92142e-07 4.02268e-11 3.01077e-09)
(2.68759e-08 -1.99401e-09 -8.83597e-10)
(2.52754e-07 -3.9174e-10 1.06277e-09)
(5.01181e-07 3.59827e-10 1.17258e-09)
(3.67955e-07 -3.97052e-10 -7.02059e-10)
(4.02086e-07 -1.05723e-09 -6.22496e-10)
(2.43002e-07 5.00801e-10 -4.2265e-09)
(1.91557e-08 1.96143e-09 1.65438e-09)
(2.38759e-07 6.36876e-10 -1.64595e-10)
(1.43882e-07 -1.28069e-09 -1.62775e-09)
(2.69933e-07 2.38566e-09 1.26653e-09)
(1.56481e-07 6.11274e-10 -3.45259e-10)
(3.36055e-08 2.3721e-09 -9.28252e-11)
(2.2768e-07 -1.46724e-10 3.55005e-10)
(1.46569e-07 3.98632e-09 4.08516e-09)
(2.41887e-07 4.39137e-10 3.88721e-10)
(2.9361e-07 -2.18642e-10 -1.02824e-10)
(1.99296e-07 -2.37123e-09 3.46105e-11)
(1.29706e-08 1.21161e-09 -1.51192e-09)
(1.90063e-08 -1.19362e-09 -1.84521e-09)
(1.99807e-07 8.04026e-10 2.12554e-10)
(3.21993e-07 -1.82745e-09 -1.88063e-09)
(2.50065e-07 -1.74245e-10 1.58622e-09)
(1.86435e-07 -7.43664e-10 1.49061e-09)
(1.55982e-07 -2.46678e-09 1.06682e-09)
(2.56766e-07 -1.765e-09 -1.02638e-09)
(3.05036e-07 4.74179e-10 1.72448e-09)
(1.84704e-08 1.63971e-09 4.04102e-10)
(1.60184e-07 6.96986e-10 4.29467e-10)
(1.74186e-07 -1.95584e-08 -5.9398e-10)
(4.38528e-08 -7.33681e-10 2.37444e-09)
(8.2023e-08 -5.22678e-09 1.3067e-09)
(3.05529e-07 1.85792e-10 -2.07866e-09)
(2.10913e-07 -2.13672e-09 1.5325e-09)
(1.96109e-07 5.20439e-10 -4.23715e-10)
(2.31642e-07 -1.1023e-09 1.26268e-09)
(1.34787e-07 -4.59496e-09 1.5323e-09)
(3.62219e-07 -2.17853e-10 1.2941e-09)
(1.74741e-07 1.65315e-09 -5.57763e-09)
(4.49012e-07 6.8033e-10 -5.21947e-10)
(2.29762e-07 1.01899e-09 1.21496e-10)
(2.58917e-07 1.78221e-10 2.90001e-10)
(3.3663e-07 4.07536e-11 2.5175e-10)
(4.53173e-08 -3.45269e-10 2.25965e-09)
(5.56053e-07 5.58391e-10 -2.40663e-11)
(3.18325e-08 1.01247e-09 -1.29346e-09)
(1.48944e-07 -1.45023e-08 8.55982e-09)
(1.11345e-07 3.75246e-09 2.99609e-09)
(1.61642e-07 -3.21286e-09 -1.66157e-08)
(2.11118e-07 -9.7558e-10 -1.32816e-09)
(2.90782e-07 -4.72122e-08 -1.05217e-08)
(1.46628e-07 3.42934e-10 -4.85777e-10)
(3.36535e-07 -1.27794e-09 -3.16347e-10)
(3.42838e-07 4.08807e-09 -1.4871e-11)
(2.25485e-07 -4.07402e-10 2.52829e-10)
(3.30675e-08 2.97455e-10 -6.29394e-10)
(1.18483e-07 -4.44347e-09 -2.98158e-09)
(2.10307e-07 -3.91812e-09 -2.99343e-08)
(2.31621e-07 2.13422e-10 2.50186e-10)
(9.79094e-08 -1.96705e-09 -5.95972e-10)
(2.1824e-07 -2.16378e-08 -7.64044e-09)
(2.39179e-07 -6.11804e-09 6.90395e-09)
(3.01286e-07 2.35601e-09 2.7118e-09)
(4.20558e-08 -8.28449e-10 1.55197e-09)
(5.17331e-08 -2.54418e-09 1.39547e-09)
(2.58426e-08 1.22889e-10 -2.35833e-10)
(1.85295e-08 1.53297e-10 -1.41196e-09)
(4.21025e-08 -7.95474e-11 1.8328e-10)
(2.21596e-07 -1.61708e-08 9.21802e-09)
(1.82494e-07 -9.60856e-10 1.08327e-09)
(1.76362e-08 -6.3685e-10 2.44501e-09)
(1.94841e-08 1.39074e-09 2.14101e-09)
(3.89214e-07 7.95639e-12 -4.75422e-10)
(1.6616e-07 -2.18255e-08 1.48316e-08)
(4.46111e-08 1.92213e-09 6.65564e-10)
(2.28252e-07 2.65488e-10 -1.08565e-09)
(1.048e-07 -1.22685e-09 -1.39363e-09)
(2.00646e-07 4.33371e-10 1.91113e-09)
(4.22614e-08 2.19893e-09 -1.18409e-09)
(9.03933e-08 2.79758e-09 -1.08026e-09)
(1.8806e-07 -2.18169e-09 2.33569e-11)
(2.82699e-07 -1.35205e-10 -1.51959e-09)
(4.04163e-07 -6.74064e-10 -1.8071e-09)
(4.06008e-08 3.38087e-09 -1.14013e-09)
(2.33765e-08 -1.82121e-09 1.08543e-09)
(2.01614e-07 -2.88086e-08 -2.13829e-08)
(2.65932e-08 -3.46128e-09 2.08054e-10)
(3.08587e-07 -1.4751e-09 -2.43956e-09)
(2.71589e-08 1.51969e-09 -3.34946e-09)
(1.4425e-07 -7.55619e-10 3.02352e-09)
(3.28121e-07 -2.43499e-09 4.92572e-10)
(4.50023e-07 -9.47337e-10 2.83735e-09)
(5.61466e-08 8.46894e-10 -1.01686e-09)
(1.36059e-07 -2.47821e-10 -1.5024e-09)
(3.71898e-08 1.36258e-09 -1.58866e-09)
(2.75659e-08 3.26225e-09 -1.16615e-09)
(2.80974e-07 -1.10528e-09 -6.10759e-10)
(1.39083e-08 -1.18234e-09 -1.77663e-09)
(1.88097e-07 -5.01205e-10 -5.24902e-10)
(5.86357e-08 1.41732e-09 -2.77833e-09)
(3.30301e-07 -2.88486e-09 -4.8782e-10)
(2.26118e-07 -1.34621e-09 -2.34526e-10)
(1.82801e-08 -4.78011e-10 2.9018e-09)
(1.301e-07 -6.54009e-09 7.40483e-10)
(2.49479e-07 1.03028e-09 1.07203e-09)
(3.00121e-08 -1.47502e-09 3.78861e-11)
(2.98079e-07 1.05782e-09 -9.99802e-10)
(7.63494e-08 -3.05916e-09 4.74289e-09)
(2.09014e-07 3.13456e-10 5.41186e-11)
(2.45621e-07 -2.28272e-10 2.38576e-10)
(5.30025e-08 1.58633e-09 1.05128e-09)
(2.03365e-08 8.67277e-10 -2.61125e-09)
(8.84896e-08 1.80395e-09 -7.55061e-10)
(2.43644e-07 3.82133e-08 8.20981e-09)
(2.19557e-07 8.26818e-10 1.07964e-09)
(7.43576e-08 -3.54214e-09 3.58321e-09)
(1.76982e-07 8.12944e-10 2.30372e-09)
(2.32187e-08 -8.72258e-10 5.33466e-10)
(2.19096e-07 -4.49897e-10 -1.30449e-10)
(2.23206e-08 -3.6427e-10 -1.74543e-09)
(3.43805e-07 -7.86497e-10 -1.67586e-09)
(2.99889e-07 6.97827e-10 7.12961e-11)
(2.28048e-07 4.47297e-10 -7.80227e-10)
(1.37545e-08 1.35175e-09 3.47399e-11)
(3.45107e-07 9.78274e-10 9.55074e-10)
(1.53485e-07 2.04422e-09 7.202e-10)
(3.63707e-07 -2.48992e-10 1.82345e-10)
(6.05226e-08 -7.25153e-10 -2.65315e-10)
(2.22572e-07 -2.67516e-08 1.37544e-08)
(2.65113e-07 -1.91606e-09 -1.00107e-09)
(6.26625e-08 6.96034e-10 -7.72626e-10)
(2.77323e-07 -2.70063e-10 7.15027e-10)
(2.10066e-07 3.88549e-09 -3.95487e-08)
(1.79318e-07 5.41482e-10 -1.18877e-09)
(3.13763e-08 8.15076e-10 -1.72161e-09)
(9.6525e-08 -9.49734e-10 -5.34123e-09)
(2.05775e-07 -3.46542e-10 -1.02194e-10)
(2.15511e-07 2.11253e-09 1.25848e-09)
(3.03745e-08 1.54563e-09 6.3676e-10)
(2.14605e-07 2.97233e-09 -3.32242e-09)
(1.53407e-07 -1.17747e-09 -4.71612e-09)
(2.34501e-08 -2.02137e-09 1.3959e-09)
(2.16182e-07 -1.65557e-11 -4.84056e-10)
(1.5832e-07 -1.95957e-09 1.53597e-08)
(3.20517e-07 3.46893e-09 -4.66487e-09)
(2.10355e-07 -7.33367e-10 -4.21803e-11)
(1.93402e-07 -5.99465e-10 9.05721e-10)
(3.22645e-07 -1.4387e-11 6.7412e-11)
(2.52545e-07 1.60679e-09 -6.35666e-10)
(6.74776e-08 1.7191e-09 5.81859e-10)
(6.9153e-08 -3.31377e-09 -3.3378e-09)
(4.00952e-07 -9.48319e-10 1.62579e-09)
(2.24793e-07 -1.95934e-08 1.82141e-08)
(2.04321e-07 -1.6632e-09 7.47872e-10)
(1.84871e-07 -2.43396e-09 1.53264e-09)
(1.23172e-07 3.07035e-09 1.33437e-09)
(3.23556e-07 -7.00998e-10 3.57031e-09)
(2.07702e-07 -9.0794e-10 -1.12564e-09)
(1.76299e-07 -4.57901e-10 -2.44699e-09)
(2.19499e-07 3.95617e-09 1.30984e-09)
(4.29271e-08 6.66377e-10 -2.78465e-09)
(1.64485e-07 1.1216e-09 -7.25824e-10)
(3.72462e-08 -9.51077e-10 -2.77858e-09)
(3.15029e-07 -2.03353e-09 1.87612e-09)
(3.39162e-07 -1.09661e-09 -6.67529e-10)
(1.61281e-07 3.52056e-09 -3.69846e-09)
(1.57536e-07 1.30915e-09 -1.07232e-09)
(1.69396e-08 1.73251e-09 -3.48791e-10)
(1.0123e-07 -4.09838e-10 -9.46558e-10)
(7.24056e-08 -2.43276e-09 -3.09054e-09)
(2.75892e-07 3.02936e-10 -1.57151e-09)
(2.50137e-07 -9.32667e-10 -5.92496e-10)
(2.20569e-07 -2.01149e-08 1.27309e-08)
(3.21639e-07 -3.33383e-10 2.19344e-09)
(7.96204e-08 -2.31617e-09 -1.97812e-09)
(1.36574e-07 -3.4221e-09 1.06596e-08)
(2.41766e-07 -2.74829e-09 2.89575e-09)
(2.56506e-08 -1.95439e-09 -2.05299e-10)
(2.56836e-07 -6.11849e-10 3.75861e-10)
(5.18301e-08 1.45728e-09 -9.25371e-11)
(2.0596e-07 -2.72577e-10 2.00538e-09)
(3.02497e-08 4.31344e-09 -3.50159e-10)
(3.7439e-07 2.66862e-10 -1.52375e-09)
(2.0396e-07 -8.67778e-09 5.33945e-09)