/*--------------------------------*- C++ -*----------------------------------*\
| =========                 |                                                 |
| \\      /  F ield         | OpenFOAM: The Open Source CFD Toolbox           |
|  \\    /   O peration     | Version:  2406                                  |
|   \\  /    A nd           | Website:  www.openfoam.com                      |
|    \\/     M anipulation  |                                                 |
\*---------------------------------------------------------------------------*/
FoamFile
{
    version     2.0;
    format      ascii;
    arch        "LSB;label=32;scalar=64";
    class       volScalarField;
    location    "64";
    object      nut;
}
// * * * * * * * * * * * * * * * * * * * * * * * * * * * * * * * * * * * * * //

dimensions      [0 2 -1 0 0 0 0];

internalField   nonuniform List<scalar> 
59516
(
2.15321e-06
1.09756e-05
6.93331e-09
8.15442e-08
0.0010849
0.000186194
5.49465e-09
2.80529e-06
2.35624e-07
6.8743e-05
0.000336914
5.80033e-05
4.29422e-07
0.000146687
6.13423e-05
5.71921e-05
9.96013e-06
9.1545e-05
1.24914e-05
1.14873e-08
0.000131958
5.06673e-14
2.58542e-08
0.00011806
2.5594e-16
4.92799e-05
0.000112401
0.000155079
7.05217e-05
0.000125297
0.000242104
0.00014668
9.22974e-12
7.0771e-07
1.35139e-05
4.72107e-12
0.000122364
8.31684e-05
1.68665e-05
2.24067e-13
2.08344e-06
0.000158608
1.28644e-05
5.41833e-06
8.36999e-07
5.62048e-05
3.55928e-06
7.44565e-05
0.000861266
5.79343e-05
0.000623633
0.000105263
6.46678e-09
4.58253e-09
0.000135458
2.71935e-06
0.000238709
0.000120847
9.97264e-09
2.29305e-05
2.55342e-11
0.000132366
6.76565e-09
7.70056e-06
9.16448e-07
3.68771e-06
0.000174466
0.000106199
0.000423682
3.59032e-08
0.000189985
6.73398e-08
0.000154848
7.77525e-11
9.44587e-07
1.06275e-05
4.74941e-05
2.6744e-12
0.000101378
4.83984e-05
0.000108851
1.82711e-05
7.05253e-06
0.000142455
2.19526e-05
1.41123e-06
0.000109583
1.8452e-13
5.68664e-05
4.84393e-05
0.000526694
6.11152e-10
5.7185e-09
1.30924e-09
4.02561e-09
0.00108645
2.69352e-10
5.50716e-05
7.22549e-05
6.69105e-12
0.000124719
0.000155448
0.000152566
5.64001e-05
2.0173e-11
7.11239e-10
0.000116377
6.40106e-07
4.4431e-06
5.78874e-05
0.0002429
0.000165025
6.12249e-05
0.000153444
9.69123e-11
3.19571e-06
5.62732e-05
5.95122e-10
0.000140964
1.7457e-12
2.53978e-06
5.19355e-08
2.63863e-13
1.95508e-08
0.000231815
2.05974e-05
0.000170138
0.00010385
0.000280982
4.41117e-07
9.87681e-07
9.16349e-07
0.000135878
1.17066e-15
6.91931e-06
2.13065e-08
0.000111598
4.02858e-15
0.00011542
1.14021e-05
0.000107706
7.41978e-08
0.000120962
1.66617e-10
1.25966e-06
1.85234e-13
1.82139e-06
8.17639e-07
0.000251054
1.59298e-06
8.97036e-06
0.000105982
3.06937e-11
5.71962e-13
9.63075e-06
0.000132942
5.41692e-07
1.20996e-07
1.47573e-05
0.000135413
6.1098e-05
5.87284e-05
0.000113746
0.00016067
3.69887e-06
1.30109e-08
5.52074e-05
2.79688e-07
0.000128292
2.0604e-08
1.39758e-05
5.64154e-05
4.02865e-05
7.00128e-15
9.19477e-05
6.43775e-06
9.73137e-09
2.45981e-05
5.54823e-05
9.45368e-05
8.2726e-14
0.000109868
0.000181631
4.34812e-05
1.53969e-07
5.35695e-05
9.22291e-05
0.000131476
3.98946e-08
6.18758e-06
2.58931e-08
5.75357e-05
1.36083e-09
4.07791e-05
1.97032e-14
9.47975e-05
5.33749e-05
9.40899e-05
3.49812e-06
2.08873e-14
2.44989e-05
5.86782e-07
3.45775e-06
0.000124458
1.3954e-10
2.63475e-12
1.07593e-06
4.43702e-09
0.000136998
1.89117e-06
6.68632e-05
0.000176528
2.35944e-12
6.17494e-05
4.70649e-07
5.04599e-09
5.12485e-13
2.70078e-15
6.17572e-05
4.28474e-13
6.41617e-05
8.86958e-06
2.87957e-09
0.000126324
2.18219e-08
5.16779e-08
0.000160214
0.00010636
4.29865e-08
5.93485e-05
2.03271e-09
8.62557e-08
1.88207e-06
0.000147097
0.000107653
9.36699e-05
4.55166e-05
1.23306e-06
4.9647e-11
6.70197e-05
1.50189e-06
0.000144504
5.2294e-05
0.000158889
1.19645e-06
8.16411e-06
5.02098e-10
5.80734e-05
1.22744e-10
1.81093e-06
2.38154e-13
3.64036e-10
3.12513e-06
2.09727e-11
1.33525e-11
2.08816e-11
6.91636e-05
1.51764e-11
0.000104727
5.73585e-05
5.89693e-10
3.02054e-10
1.75921e-06
4.09998e-08
2.44353e-06
5.01608e-05
1.62824e-09
9.95214e-06
0.00013028
5.3627e-05
1.21568e-05
5.11933e-08
4.42302e-06
1.07549e-05
2.52498e-10
9.09977e-06
0.000130572
2.64127e-11
0.000145388
0.000105255
1.44505e-06
9.89249e-13
0.000163726
3.26453e-07
2.29163e-09
4.25867e-06
5.39526e-07
0.00016452
2.12049e-06
9.83723e-06
9.87385e-08
1.12635e-10
3.94154e-10
7.75288e-06
8.76903e-10
0.000172427
1.91547e-09
2.35406e-15
3.35936e-06
1.64704e-07
7.99424e-09
4.96403e-05
0.000141036
0.00014887
7.39466e-14
0.000141855
9.01719e-05
6.71824e-05
5.3026e-09
6.62748e-09
3.85393e-16
4.99756e-05
3.91406e-06
0.0001188
6.04899e-05
3.91137e-09
6.98237e-06
0.00108017
1.31396e-05
0.000100982
6.31049e-05
2.96948e-06
2.44566e-07
1.20706e-06
5.62206e-06
2.85123e-12
2.94761e-05
1.00596e-08
4.40755e-09
9.83603e-11
1.13179e-12
5.36196e-05
0.000149897
1.47916e-11
0.000101318
0.00011063
1.85768e-10
3.79652e-15
6.33733e-05
6.94966e-08
7.80015e-12
1.08218e-06
4.73006e-08
9.81204e-05
2.85154e-13
8.43165e-07
5.63352e-05
1.20814e-06
2.90074e-07
1.37702e-08
7.36158e-08
6.62131e-11
4.74034e-16
2.20734e-05
0.000114272
0.000116247
9.03409e-06
0.000142798
0.000263562
1.44967e-05
1.59292e-06
2.71618e-08
0.000229031
3.32125e-13
8.60688e-12
6.41024e-13
1.02995e-11
0.000117004
0.000287664
6.42426e-05
0.000101274
0.000110441
3.64393e-10
1.02017e-05
1.25596e-10
0.00012988
1.10355e-09
0.000111709
2.10797e-08
5.14933e-05
4.92037e-05
6.40294e-07
0.000360398
0.000150384
5.9035e-05
2.97144e-12
0.000140409
2.47405e-05
6.52885e-07
2.15031e-13
1.30878e-05
1.2152e-05
1.38421e-10
0.000127946
8.52994e-07
9.72869e-05
5.96685e-05
5.84085e-05
2.77715e-07
9.49318e-08
5.02349e-05
1.75326e-10
4.49544e-06
5.30711e-07
3.23676e-07
0.000113947
3.09588e-08
2.62406e-12
6.03247e-14
4.85053e-13
0.000152939
0.000144533
2.09053e-10
6.20942e-08
1.75604e-06
0.000110871
2.17601e-08
1.57294e-06
3.88481e-07
1.73936e-07
9.70738e-07
5.47168e-08
2.49072e-08
5.28382e-06
5.17813e-07
5.6732e-05
5.54847e-09
2.4629e-06
9.67356e-12
3.50009e-07
1.37469e-14
3.18495e-11
9.68742e-05
0.000111115
0.000133563
0.000167485
7.68354e-07
1.81734e-11
2.18271e-08
0.000100304
0.000142877
3.227e-07
1.9484e-11
1.58788e-07
1.44907e-13
1.57593e-12
3.5781e-06
1.80877e-13
0.000158
6.77997e-08
5.23379e-05
0.000254342
9.76104e-10
1.01062e-05
4.28889e-12
0.000144221
2.99001e-07
1.91069e-06
5.2256e-07
6.66228e-06
2.09511e-11
5.69954e-08
4.50716e-07
2.06778e-06
1.73178e-05
3.13319e-08
7.30371e-15
0.000134701
5.19825e-07
1.65672e-07
0.000108286
4.33289e-06
2.56908e-09
6.42634e-10
1.74215e-05
0.00013952
3.94205e-08
1.88233e-10
1.00873e-10
9.81895e-10
9.55387e-05
6.46314e-12
0.000173273
8.26286e-09
0.000792519
3.9275e-08
0.000117194
1.05381e-06
3.46637e-06
8.29767e-05
2.09703e-06
4.52279e-07
0.000156551
2.61504e-09
5.74493e-06
0.000125208
5.54454e-05
5.25049e-05
7.45272e-11
1.5066e-06
0.000213839
5.33043e-05
5.1206e-05
6.58824e-08
2.2412e-06
0.000151064
2.64706e-13
6.51418e-09
2.05985e-07
0.000233241
4.72378e-10
0.000137305
6.39045e-09
0.000139279
4.59706e-05
8.67361e-14
5.08386e-05
0.00014339
0.000121025
0.000102724
5.84866e-05
3.13475e-16
5.80387e-05
4.95389e-05
0.000387269
1.20913e-07
0.000155254
1.35083e-06
0.000119345
3.89455e-08
5.88913e-05
1.06557e-07
6.29467e-05
1.61561e-08
5.87345e-07
8.34785e-05
1.80721e-09
0.000148977
0.000131718
1.18236e-14
8.19645e-07
7.35865e-11
9.80278e-09
5.76904e-07
6.46247e-05
2.44296e-09
5.20178e-05
2.39297e-07
1.00014e-07
0.000155065
5.10236e-14
0.000112784
0.000154576
1.50194e-14
9.74508e-05
4.62125e-10
1.49854e-06
7.60101e-09
5.12286e-05
2.0203e-07
1.34073e-05
1.09087e-06
2.82972e-09
7.03604e-07
9.01796e-07
0.000102882
6.23125e-05
1.21108e-07
2.69346e-12
0.000118361
6.07855e-10
8.78535e-08
3.98725e-08
7.23671e-07
9.49323e-08
0.000134552
1.55109e-08
7.30063e-06
6.10705e-11
3.86457e-06
0.00015898
2.33414e-06
1.17146e-05
3.32098e-16
2.55382e-06
9.67459e-13
0.000110017
0.000142494
1.03707e-06
1.79747e-09
3.55404e-06
1.02063e-08
1.09274e-05
2.44296e-12
2.09384e-07
0.000130658
2.51688e-06
0.000151872
0.000118879
5.15937e-05
4.91936e-14
1.78854e-13
6.12923e-13
2.3805e-09
2.83607e-06
5.50219e-06
1.20924e-05
2.69789e-08
2.95989e-08
2.50685e-08
2.89145e-07
0.00012593
3.77956e-10
0.000109739
0.000207498
5.03199e-05
0.000535814
1.87342e-12
0.000159214
3.78047e-07
1.31736e-09
1.55886e-13
3.39588e-08
0.000108916
0.00148491
0.00070094
1.1465e-06
1.56337e-07
0.000149259
0.000196818
7.29211e-07
9.91327e-05
4.5442e-05
0.000146927
0.000154939
0.000170698
3.34648e-05
1.99129e-09
0.000150559
0.000144987
5.52958e-06
0.000209334
0.000107918
1.01028e-13
3.87583e-07
1.48925e-11
0.000124661
5.54191e-05
1.69115e-07
6.08741e-08
1.18941e-11
0.000109862
0.000138516
0.000391296
0.000168237
2.1847e-11
0.000157229
4.76353e-06
3.84995e-07
5.83612e-11
0.000101014
4.35338e-06
9.72983e-05
0.00016521
2.66776e-07
0.000129071
4.36378e-09
0.00011834
6.75213e-12
4.77901e-14
0.000138306
5.63772e-05
2.64752e-14
0.000109233
6.36196e-09
6.17564e-05
1.84375e-06
1.17332e-06
0.000106033
0.000144033
0.000106191
0.000667152
1.74219e-06
6.08541e-05
1.02043e-05
0.000101723
1.8242e-06
0.000145611
1.37976e-10
1.60484e-18
8.22188e-09
0.000134145
5.92376e-15
1.25244e-05
2.68945e-11
6.58484e-05
0.000881143
9.33381e-14
9.24019e-05
3.72333e-06
0.000486754
5.09006e-09
0.000106765
0.000118474
9.34405e-07
1.90039e-09
0.000107322
4.14999e-07
5.46669e-05
0.000149564
2.17491e-07
0.00124552
1.77711e-13
3.67437e-08
2.41651e-07
1.33189e-08
3.06829e-12
0.000101516
0.000109819
3.46129e-07
0.000984168
5.44123e-08
2.22651e-09
1.89055e-05
1.00567e-13
3.4476e-09
6.71428e-06
1.84001e-06
0.000144233
5.26103e-05
0.000129984
2.15748e-12
1.07287e-07
9.22132e-06
3.56694e-06
0.000127859
1.67833e-05
6.23088e-05
6.07851e-08
3.84729e-07
0.00118147
5.58857e-10
1.25855e-05
0.000839839
3.83914e-09
0.000160216
3.86973e-07
5.97793e-05
3.04771e-12
0.000165274
3.89755e-10
0.00134898
4.87449e-12
1.8054e-07
9.16286e-13
3.38358e-13
6.35604e-07
0.000118452
0.000121618
9.48623e-05
6.78713e-07
7.05742e-11
1.2532e-09
4.63079e-14
0.000124022
1.34852e-05
1.26981e-05
2.18202e-07
1.87878e-09
5.42302e-11
8.31785e-06
1.4379e-06
0.000141765
1.00065e-05
8.81571e-10
0.000156968
9.06859e-05
5.14618e-05
0.000140542
1.68308e-05
1.93633e-09
5.24059e-05
0.000132282
2.20048e-06
0.000145982
1.93584e-06
1.87938e-07
3.62522e-06
1.60637e-07
3.85014e-13
4.46492e-07
1.78399e-08
0.000101782
9.55811e-08
2.11923e-11
1.21378e-05
1.1933e-05
2.56101e-09
1.79244e-07
4.22675e-05
1.12577e-14
0.000111301
1.09385e-05
5.66817e-06
5.97249e-05
4.99918e-13
0.000264251
4.94184e-05
0.000106532
0.000168235
5.04635e-05
0.000133769
1.11774e-09
2.21486e-11
1.52601e-09
8.54872e-05
3.92569e-11
8.03235e-12
0.000147594
2.02323e-10
0.000579726
9.19684e-05
0.000147258
7.36056e-08
1.19844e-06
0.000146862
5.11952e-11
0.000142367
8.09278e-08
2.89809e-11
5.27426e-08
7.81234e-14
2.43691e-06
5.39125e-06
6.82771e-07
0.00013015
0.000113135
3.43588e-06
4.53619e-06
0.000128907
1.32017e-13
0.000311642
9.27874e-08
5.98683e-08
1.94994e-05
6.62199e-11
6.41255e-06
1.17e-05
0.000118278
1.95231e-08
3.307e-06
0.000123716
2.25025e-09
1.46967e-06
4.20066e-15
6.84209e-06
4.99117e-11
1.47675e-06
1.30353e-05
2.55925e-06
7.36796e-06
2.40946e-12
4.62286e-05
2.86038e-08
7.94349e-07
0.00155929
1.73586e-16
2.37842e-06
2.02745e-07
0.000124289
9.56372e-05
6.51637e-08
1.74781e-12
8.15123e-12
3.72948e-06
8.78142e-13
2.52785e-06
6.28847e-07
0.000224641
1.46415e-06
5.63339e-07
0.000139969
2.21838e-12
9.30792e-11
0.000109228
3.85598e-11
8.96219e-07
3.18363e-06
6.04633e-07
3.28439e-06
1.48466e-07
5.45764e-05
0.00143821
0.000120556
4.53469e-07
2.49465e-07
0.00015446
7.65379e-05
5.43489e-05
2.63343e-07
9.2017e-05
2.7649e-11
1.57859e-07
2.15405e-08
1.5375e-12
1.49503e-05
0.000119226
6.45999e-11
3.23967e-10
2.943e-07
1.49036e-05
7.02753e-13
3.08304e-06
8.57413e-07
0.000125861
2.27339e-09
9.03198e-06
1.77542e-05
0.000124047
5.49618e-05
7.84994e-06
3.37333e-07
8.13516e-05
6.0212e-09
1.76191e-10
7.77824e-08
4.72353e-07
1.24462e-09
1.81587e-07
2.82898e-07
1.1627e-06
0.00139914
6.48682e-13
5.87685e-07
0.000117755
5.75994e-05
7.99624e-09
8.35608e-11
0.000116439
4.51527e-09
1.5175e-06
9.92857e-06
9.74142e-06
3.15241e-06
2.13229e-12
7.39127e-06
1.33095e-06
0.000294702
6.71377e-06
2.49128e-06
0.000166238
1.83121e-06
0.000105758
1.23921e-05
6.37985e-08
4.65284e-05
0.000109864
1.70585e-07
5.47308e-09
1.36956e-16
0.00010054
1.18165e-06
0.00010189
9.64762e-06
4.60562e-05
4.48825e-05
7.39346e-06
5.4471e-06
5.55219e-05
2.13268e-11
2.6836e-08
1.33306e-06
3.69811e-06
5.76334e-06
2.46573e-07
1.63449e-06
2.29395e-07
5.38024e-05
3.75273e-06
0.000104171
0.000109738
2.31779e-08
9.2005e-05
0.000178114
1.28855e-06
1.78793e-06
1.14838e-05
0.000225172
0.000150764
1.90797e-09
1.76389e-06
2.18067e-07
0.000160944
0.000134411
7.40598e-06
0.000102513
6.89797e-10
6.18517e-08
4.69435e-06
0.000129657
4.33448e-07
1.76466e-09
0.000127815
7.92374e-06
1.86223e-06
5.39295e-05
4.13452e-09
1.07637e-06
8.96528e-07
6.4837e-10
0.00010837
1.45488e-07
2.48571e-09
1.06588e-07
4.31663e-05
4.73927e-09
9.08259e-06
5.86185e-07
0.000137089
5.62249e-07
1.05126e-05
0.000108349
6.44453e-09
0.000118524
1.95738e-11
2.17929e-06
1.83617e-07
0.000185451
1.44627e-06
9.92466e-06
4.71707e-05
7.3982e-06
1.68511e-10
0.000139084
5.20187e-10
1.03053e-12
4.9538e-05
0.000164784
0.000118172
1.01003e-06
7.09446e-15
2.47783e-07
1.17778e-05
4.64407e-05
1.16641e-11
9.43463e-05
1.60342e-06
2.15394e-06
2.48107e-05
5.83325e-05
7.14741e-15
0.000158652
1.22051e-05
1.31623e-13
2.72402e-06
0.000121375
2.51725e-11
2.33808e-09
0.000154561
4.81951e-10
2.15395e-09
6.45387e-08
1.28527e-05
4.61327e-06
0.000158473
8.56482e-09
3.35164e-15
0.00015747
0.000102742
0.000104852
9.74186e-09
1.16618e-05
3.29552e-09
5.39881e-05
1.34091e-08
0.000145411
1.67991e-12
3.34168e-05
8.82455e-10
1.17491e-06
4.61863e-16
7.68265e-12
0.000106542
0.000109177
4.97271e-12
4.89412e-12
0.000139754
0.000170303
1.73422e-08
3.26097e-16
4.29733e-10
2.71325e-06
3.73721e-13
3.01921e-13
7.90489e-08
5.72985e-05
2.18234e-05
4.95718e-05
1.96185e-13
1.48896e-05
0.000108754
0.000160591
1.21995e-08
9.24686e-07
3.21812e-06
8.63026e-09
1.12934e-09
9.11115e-05
1.34979e-09
4.10875e-07
0.000123703
0.000156813
2.23929e-07
9.89184e-08
0.000119607
0.000124462
2.97629e-08
5.25286e-06
0.000164626
1.92236e-05
3.84178e-08
3.07156e-09
2.60569e-07
1.59047e-11
4.19169e-13
0.000141224
8.89699e-05
7.62371e-07
3.05113e-09
1.48522e-06
2.42445e-10
5.3486e-05
5.7268e-05
0.000104915
1.82684e-05
0.000164215
6.64039e-15
1.57038e-15
7.94048e-06
6.02544e-05
0.000142204
1.83132e-06
1.04557e-07
8.88579e-09
4.85008e-07
2.90296e-06
1.01056e-15
0.000122432
7.06258e-05
0.000241043
1.71836e-06
4.99022e-13
1.90751e-06
5.13816e-05
1.41291e-05
4.94469e-08
1.02221e-15
9.9588e-06
9.76656e-15
1.72904e-09
2.59143e-06
5.69203e-05
0.000167843
5.95576e-09
0.000107326
2.53274e-07
1.54128e-08
1.30247e-05
0.000136788
4.13571e-12
4.65495e-05
0.000116986
0.000133843
1.48244e-09
6.62942e-07
3.02898e-08
9.18807e-08
1.37511e-05
1.62583e-06
0.000124392
0.000107369
0.000120866
8.63116e-07
3.0049e-06
9.48068e-12
1.45027e-06
7.33813e-07
3.15478e-09
0.000186742
4.89534e-08
0.000132838
1.04501e-10
1.55382e-06
0.000135238
1.84114e-07
3.72315e-06
7.24961e-11
7.41397e-06
4.40321e-05
9.45506e-05
4.79354e-13
0.000121616
3.75393e-06
9.35767e-06
8.85989e-08
3.13404e-05
0.000106574
0.000181533
0.000115313
6.19704e-08
4.6967e-08
2.06542e-07
6.96705e-05
5.51591e-09
1.37006e-08
2.30931e-10
1.19401e-10
9.80769e-05
0.000115585
4.67294e-09
7.9155e-07
5.70763e-05
1.8154e-06
1.17716e-07
1.03218e-09
7.94471e-06
0.000165083
0.000201379
5.61581e-05
4.34166e-12
4.14433e-09
1.09658e-06
0.000134372
9.87995e-05
8.11664e-15
3.4084e-07
5.68186e-05
6.32431e-07
4.13006e-11
4.91391e-10
1.06842e-08
4.9987e-07
2.26301e-11
1.11735e-10
3.80062e-06
3.53607e-07
2.5544e-07
1.46503e-05
4.17512e-05
9.24531e-07
1.69948e-09
0.000114786
5.29787e-05
1.13756e-10
5.91101e-05
2.61063e-16
4.21686e-06
6.13929e-11
4.65289e-12
2.05207e-07
1.0708e-08
9.7751e-09
7.96933e-12
9.82836e-05
0.000169049
8.50175e-06
8.38781e-07
0.00013807
1.24763e-05
2.16502e-07
3.71455e-08
7.65269e-12
0.000131364
2.04581e-06
8.43554e-11
1.32949e-05
9.88022e-09
3.93654e-07
0.000151597
2.50593e-08
0.000142549
5.95367e-06
0.000138687
2.78124e-11
4.72909e-16
1.16063e-08
0.000147371
6.14988e-05
8.37544e-06
5.93711e-17
4.97965e-05
5.89999e-05
7.69113e-06
4.49196e-07
0.000116305
3.92957e-07
5.37217e-16
5.49756e-05
5.37185e-05
0.000159793
7.74735e-12
1.4157e-07
5.96349e-17
1.92722e-08
4.39285e-06
4.27951e-06
5.20467e-06
0.000132613
0.000101931
0.000158588
1.40501e-05
1.99158e-06
9.9904e-05
0.000110915
5.24391e-05
0.00016056
1.14751e-10
0.0001589
1.6822e-08
2.877e-06
1.74447e-11
5.36492e-05
1.51817e-06
0.00010378
6.18203e-05
1.85703e-06
8.21772e-10
1.49056e-07
0.00171368
1.49206e-08
0.000143845
1.498e-08
1.20941e-13
4.87031e-07
1.30471e-05
3.64782e-12
1.85146e-08
8.26198e-06
5.94898e-05
0.000104387
1.83407e-06
9.23242e-07
0.000110641
1.18166e-05
4.48972e-14
0.000111344
0.00017149
3.80511e-06
7.87156e-05
6.08799e-05
0.000147652
4.74164e-05
0.000115928
0.000124717
0.000112588
0.000145305
2.07931e-06
1.14952e-05
3.77774e-07
0.000134547
4.3271e-09
7.4826e-13
1.48076e-15
1.17342e-06
2.75523e-10
0.000105983
9.63326e-11
0.00140648
1.16471e-05
2.73141e-06
7.18987e-09
0.00012647
4.85324e-07
9.49482e-06
0.00018144
0.00010134
1.053e-14
5.97446e-06
0.000132062
2.00269e-11
5.5272e-12
4.59048e-07
9.93449e-11
0.000106571
1.34351e-08
1.38709e-05
0.000183012
9.42291e-14
8.92089e-14
8.06283e-08
7.98523e-06
1.16179e-13
6.58853e-11
0.000268905
3.08975e-06
2.99236e-06
2.16554e-07
1.20801e-05
4.31352e-06
1.78635e-11
0.000192
2.59801e-15
0.000203898
0.000228192
6.3926e-05
2.36873e-12
1.85725e-13
0.000437255
2.30642e-11
1.31213e-06
1.64019e-05
2.66143e-07
0.000152052
0.0001589
0.000220773
5.9189e-05
0.000177928
1.29234e-13
0.000120862
5.03431e-07
0.000103012
0.000139067
2.81021e-06
5.21069e-05
2.43437e-08
3.69243e-10
1.84831e-07
0.00011711
0.000120573
6.73525e-09
1.36847e-10
0.000156123
5.3331e-11
5.30406e-05
9.00997e-06
4.75707e-08
2.696e-11
2.96583e-07
3.07787e-06
5.6099e-06
1.16171e-05
0.000108582
9.27937e-05
6.43049e-05
0.000100745
1.63844e-06
1.18282e-09
5.62521e-05
5.55331e-05
4.50078e-06
5.35606e-15
5.30267e-13
5.23131e-05
1.75181e-10
0.000134501
7.17877e-05
3.35474e-14
0.000118033
1.2088e-05
8.95615e-06
1.82213e-07
6.84398e-06
2.18577e-10
8.1183e-06
8.6254e-06
3.61528e-10
9.21032e-07
2.88347e-10
0.000149557
0.000117695
3.73179e-07
3.09378e-06
1.60654e-12
7.6878e-06
4.874e-06
0.000128754
1.70142e-09
2.11944e-09
6.52359e-11
7.97548e-06
0.000120423
5.17247e-05
8.04059e-05
2.16112e-08
4.98072e-05
2.12844e-06
0.000148351
7.99285e-09
0.000112007
1.14812e-05
6.60791e-07
6.1069e-05
2.78771e-14
1.50603e-10
0.000106654
0.000154085
7.56561e-07
0.000187436
4.43599e-10
8.40092e-09
1.25067e-05
2.82246e-12
1.74265e-05
2.65862e-07
0.000150659
2.27503e-06
1.48444e-08
2.10513e-06
0.000126979
2.10368e-11
1.00584e-09
1.23056e-05
3.37022e-10
0.000103986
2.16966e-09
0.000140889
7.65006e-11
4.37018e-08
3.41685e-12
1.08205e-14
0.000105489
0.000143049
0.000108003
1.03845e-07
0.000105098
1.18583e-06
9.93796e-05
3.63938e-07
6.07267e-05
0.000128091
3.42104e-06
1.96164e-11
1.09468e-05
7.52788e-07
7.53381e-08
8.92748e-12
0.000114442
3.25728e-06
0.000169658
4.9226e-05
8.92536e-07
2.68265e-06
7.58282e-09
0.000180764
0.000104419
1.50961e-05
9.52373e-06
7.32621e-12
7.53564e-15
3.97271e-11
0.000121734
8.09923e-17
1.11671e-11
1.01423e-07
6.72227e-05
8.00965e-10
2.90255e-07
9.36184e-09
7.60044e-09
1.79691e-05
5.16316e-05
9.50565e-13
0.000100742
3.27134e-09
9.21774e-06
7.22088e-11
4.44468e-11
9.44928e-12
5.76333e-07
0.000105951
1.17811e-06
5.95961e-05
0.00015442
1.44465e-08
0.000119527
4.72751e-11
0.000145607
0.000112216
5.34536e-05
2.09137e-05
1.27262e-08
8.54199e-05
0.00016109
1.86342e-09
1.38312e-05
1.00999e-08
2.9459e-06
0.000136641
1.12864e-05
0.000115806
9.44562e-07
9.79683e-10
4.88641e-05
2.06595e-10
3.73353e-09
1.81511e-12
1.42613e-09
2.65643e-09
7.96477e-14
4.86507e-08
9.67188e-18
0.000167473
0.000151232
1.41401e-13
0.000166646
4.24839e-07
2.35104e-08
1.29246e-05
1.10202e-06
8.7003e-09
0.000114615
4.66782e-06
4.86666e-05
9.00803e-06
0.000111919
1.61142e-11
2.7091e-06
2.55531e-05
3.11181e-06
0.000108889
2.42902e-07
8.52569e-09
1.18393e-05
1.08499e-13
0.000128801
0.000142192
8.1486e-09
5.13927e-08
2.28634e-08
3.71685e-06
0.000146366
4.45137e-06
4.52122e-05
1.78276e-06
2.4565e-09
0.000106333
3.25358e-14
1.74408e-10
0.000114716
0.000176887
3.28519e-06
9.93428e-06
0.000146241
2.37789e-15
0.000118526
0.000160508
1.37255e-05
1.17743e-07
3.21993e-06
1.21984e-11
6.20679e-08
6.99695e-13
8.16366e-07
9.63786e-07
1.30419e-06
1.0238e-08
1.63247e-12
0.000127287
0.000110437
1.69821e-09
3.33549e-08
2.37341e-06
0.000140074
0.000154724
5.96631e-16
0.000164078
1.27191e-12
7.7786e-09
2.68485e-06
0.000109242
5.73779e-05
2.64741e-07
2.70771e-07
7.95069e-12
7.05408e-14
5.16477e-05
0.00017059
6.05269e-08
0.00016496
0.0001175
0.000102013
0.00010551
3.66764e-10
2.19264e-06
6.69527e-15
1.15415e-06
7.31743e-06
5.19639e-06
1.9798e-09
3.62599e-10
5.65589e-05
4.16203e-07
2.01303e-09
2.35048e-09
9.30537e-05
9.33152e-07
0.000165828
1.04371e-05
0.000112082
6.15055e-11
4.3183e-15
0.00116754
0.000135919
8.12273e-06
6.30587e-05
0.000135436
1.47702e-14
0.000136336
5.87918e-05
1.00383e-08
7.93988e-10
1.372e-06
0.000100831
2.22143e-06
4.95326e-05
7.32479e-07
1.25525e-09
1.51658e-09
4.79576e-08
0.000107568
1.20656e-13
2.88015e-08
2.22182e-06
3.27726e-11
2.84171e-10
3.80812e-11
4.96363e-06
0.000142267
9.97654e-05
3.63022e-07
1.2984e-06
1.34529e-14
8.85173e-05
2.78819e-08
4.94279e-05
2.59089e-10
1.71831e-14
1.18991e-05
6.12644e-05
4.92386e-05
0.000125332
2.95703e-12
2.43677e-19
5.13872e-05
1.81502e-07
0.00012959
3.67295e-12
4.53882e-08
0.000162905
8.34639e-07
1.94371e-07
7.5885e-11
0.000223766
0.000152708
0.000122993
5.61614e-05
4.93564e-05
0.000162567
0.000151984
0.000155879
1.16414e-05
1.54461e-08
9.82472e-10
6.75816e-09
4.23583e-07
0.000141729
1.58272e-11
1.09987e-08
0.000120612
0.000130689
0.000176865
1.41165e-05
0.00017492
1.37687e-11
0.000302518
5.65662e-06
2.09513e-05
9.20794e-05
8.4109e-06
2.14087e-11
1.00733e-06
6.51984e-16
1.08387e-10
1.74986e-08
6.16403e-05
2.42217e-06
3.37562e-13
1.12188e-07
0.0001165
3.20113e-05
1.67111e-06
1.42405e-09
7.68195e-07
3.11578e-07
4.79128e-05
9.93543e-05
0.000157637
6.10438e-06
4.92911e-06
4.41407e-08
9.81135e-09
0.000103084
1.31048e-06
6.0318e-05
2.65723e-06
2.44541e-09
9.45997e-05
0.000112914
5.55261e-07
1.35032e-12
1.66125e-11
8.26536e-11
1.69438e-05
4.6056e-05
7.49091e-17
2.66301e-06
6.7108e-08
5.47645e-13
1.77229e-11
6.21559e-07
1.01941e-05
6.2872e-14
0.000133861
8.42865e-05
0.000160393
3.97256e-06
6.39851e-07
8.42687e-06
4.96355e-05
1.22919e-13
8.34581e-05
4.93588e-05
0.000134797
1.15159e-07
1.41906e-09
3.90959e-10
0.000125666
0.000102564
6.22227e-05
0.000147252
0.000116787
2.66214e-09
3.15166e-08
0.000142785
0.000113302
5.08397e-05
4.47901e-07
1.87791e-08
5.97117e-14
8.18997e-06
6.88369e-13
3.02306e-16
5.26946e-06
0.000106771
3.67085e-06
5.08679e-12
6.42238e-15
4.1948e-08
1.92955e-15
1.90857e-10
2.56978e-05
1.58522e-07
6.40493e-05
0.000345608
4.38242e-11
8.93322e-09
0.00012424
2.69779e-08
0.00014993
3.55041e-14
1.38464e-13
8.82689e-10
2.5658e-09
5.55498e-05
0.000160326
5.62919e-05
2.14937e-06
6.32906e-07
4.45724e-07
4.71141e-10
0.000116253
1.36889e-05
5.14934e-11
2.6219e-08
6.74321e-07
0.000188947
8.72184e-05
1.439e-06
2.9029e-10
2.64267e-07
2.35849e-08
2.59803e-10
6.71984e-15
2.69356e-15
4.2471e-06
1.78065e-08
5.11723e-07
2.11053e-13
1.1199e-05
0.000151777
0.000134181
1.42945e-05
1.25983e-06
1.86906e-09
1.03086e-08
0.000156434
1.05469e-06
7.5208e-15
6.36857e-09
1.12578e-05
5.14152e-12
2.16999e-16
1.09165e-11
1.0285e-07
9.4257e-07
6.4894e-13
0.000101175
2.6708e-07
5.7742e-12
0.000139213
6.84254e-08
9.90685e-12
4.12253e-12
4.15688e-15
1.12476e-08
0.000107148
3.29136e-09
1.35776e-05
1.80245e-08
1.59948e-05
1.78958e-10
4.24333e-11
1.27187e-05
3.64612e-09
0.000141321
2.55486e-09
0.000107852
0.000114931
5.7482e-15
0.000134825
1.08232e-07
2.55376e-10
2.66227e-09
5.05021e-05
7.26211e-06
0.000142825
1.32442e-13
9.9182e-05
9.07157e-06
4.26531e-14
2.49951e-14
3.9678e-09
6.62283e-13
1.57694e-12
3.66086e-07
3.65619e-12
4.66722e-12
5.62028e-12
0.000118157
1.19807e-05
6.32793e-07
1.34717e-07
5.65594e-05
9.43115e-17
2.27022e-10
3.43499e-09
0.000132707
2.41418e-11
0.000149541
5.15578e-07
0.000156118
9.54705e-05
1.71045e-06
1.26012e-11
4.03663e-12
8.65112e-07
0.000136205
9.29618e-10
0.00016262
0.000139283
8.8493e-14
6.4157e-05
8.16728e-06
4.79616e-11
2.17628e-12
0.000139047
5.3731e-05
0.00010897
1.18462e-07
1.41074e-09
4.77824e-05
2.2922e-15
1.12962e-05
5.66372e-05
6.32069e-05
0.00015287
7.07856e-12
4.55859e-09
1.74927e-08
1.41385e-14
6.73598e-08
7.83144e-10
2.89877e-08
2.88105e-07
4.1243e-13
4.76053e-07
4.42474e-06
1.15815e-05
2.06016e-08
1.37202e-05
2.38626e-10
9.80933e-15
5.0873e-11
9.9623e-12
3.73181e-08
9.40706e-11
0.000113612
1.03403e-10
7.17907e-08
4.59337e-05
1.36935e-07
1.65196e-06
0.000190247
8.62748e-12
1.09013e-08
8.34636e-06
4.44588e-09
0.000113491
8.95064e-07
5.74401e-10
7.70983e-11
8.90812e-06
5.59413e-05
6.05119e-05
2.42852e-09
0.00010896
0.000109805
0.000179065
2.3856e-14
8.61309e-11
2.51212e-08
1.66763e-11
6.67833e-16
3.28321e-14
7.29011e-05
8.87559e-07
1.02565e-08
6.35751e-09
1.00492e-06
4.13894e-07
0.000108407
0.000137514
0.00014495
4.59644e-05
5.58315e-10
5.42867e-07
3.22852e-07
1.14387e-05
5.21721e-11
1.2581e-09
0.000143783
2.17081e-06
1.00194e-08
1.87047e-08
1.13946e-06
6.31683e-05
6.60216e-05
3.78736e-08
9.78189e-05
3.7573e-11
1.80306e-14
4.49788e-06
2.91471e-12
1.06961e-05
4.30161e-05
5.50961e-06
1.46325e-06
8.45485e-06
1.52433e-08
1.06808e-07
7.49764e-05
0.000109295
1.33727e-07
1.92283e-06
5.62268e-05
0.000121279
1.03586e-05
0.000147765
7.7632e-09
2.73955e-07
0.000102038
9.33084e-08
7.5988e-07
2.77459e-12
9.62498e-09
1.66035e-09
2.68599e-12
1.38372e-09
7.16426e-10
1.39063e-05
2.68229e-10
4.94789e-05
1.82474e-05
5.28571e-05
7.41225e-08
1.14144e-06
1.84676e-08
5.86454e-11
8.08767e-06
6.37722e-06
0.000136223
8.5402e-06
0.000132328
1.25228e-05
1.17786e-12
1.80152e-15
9.13775e-10
3.64494e-14
0.000107735
0.000130436
1.57499e-08
1.08358e-05
8.96478e-05
1.20328e-07
0.000107316
6.07691e-10
2.59928e-13
1.35594e-12
1.61263e-07
1.24176e-08
5.46791e-07
2.85451e-10
9.8621e-05
4.56681e-08
0.000113906
0.000105037
5.01516e-05
5.07199e-13
6.85173e-07
1.92605e-06
0.000111799
0.000306965
4.88861e-12
5.93983e-06
1.03178e-05
1.1635e-05
0.000108851
9.68075e-05
0.000112981
5.09017e-05
1.20025e-08
5.66599e-05
1.50702e-13
4.75527e-05
0.000115802
7.61122e-06
9.56923e-05
0.000143193
0.000138836
2.94662e-09
1.02016e-07
6.80144e-08
5.62057e-05
2.29753e-06
0.000143734
1.04575e-06
4.31688e-05
1.17985e-10
8.54415e-12
0.000143636
1.19839e-11
1.31312e-08
2.08065e-10
6.36117e-10
3.49106e-12
4.57374e-08
4.62225e-13
1.35835e-09
3.70674e-11
0.000169849
1.09754e-05
5.38082e-05
1.95824e-13
0.000107606
1.44512e-05
3.1242e-17
2.44569e-05
1.14025e-06
0.000128927
2.11523e-07
1.63315e-06
1.22098e-07
1.73553e-09
1.10057e-10
1.55234e-12
6.45439e-11
1.12467e-10
1.21974e-07
5.52118e-05
5.54782e-05
3.15183e-14
1.25291e-08
1.89215e-12
9.77226e-13
8.1839e-10
6.04161e-11
5.43784e-13
0.000108783
7.51222e-14
4.11393e-07
0.000136211
2.07524e-09
0.000143046
3.49516e-09
4.96285e-05
0.000108076
4.62782e-14
9.54165e-05
0.000150111
0.000125444
0.000109909
0.000103711
3.14457e-08
7.22267e-06
5.0107e-07
8.80438e-13
5.3849e-05
3.64724e-10
7.73137e-07
1.17838e-09
0.000145254
3.92295e-14
1.42991e-06
3.09596e-07
2.39002e-10
0.00013776
9.83027e-05
2.65143e-13
0.000171827
2.79042e-07
0.000124223
4.13157e-09
4.13206e-05
2.38106e-06
1.18142e-06
5.24405e-12
0.000109002
0.000127993
0.000108818
2.04112e-14
5.11622e-05
0.000108834
5.50704e-07
1.21443e-05
0.000142319
5.91749e-06
0.000155576
1.72797e-10
2.17879e-13
1.24009e-07
7.32247e-10
0.000181244
1.55774e-06
9.25859e-05
1.44758e-07
1.33711e-12
8.84524e-07
5.17396e-10
9.38542e-06
1.4067e-06
0.000106548
2.82466e-13
2.59529e-06
1.26182e-06
1.06553e-06
5.33982e-05
0.0001273
3.40897e-11
1.3728e-11
2.15162e-09
4.368e-05
3.10836e-11
0.00016741
0.000190403
0.000106853
1.28266e-08
0.000114986
4.45147e-07
0.000143965
0.000115635
2.69544e-09
5.10418e-05
0.00010303
0.000105667
1.83754e-16
1.2674e-12
6.34006e-07
5.22442e-05
6.92908e-12
1.37415e-13
5.19287e-07
1.44473e-07
3.48511e-11
3.46905e-09
1.58091e-07
0.000157887
1.2866e-11
2.46086e-05
5.22134e-05
0.000153571
6.87602e-09
6.07488e-10
5.09463e-06
2.19777e-13
0.000156269
9.97796e-07
4.22412e-11
0.000136366
1.0573e-14
1.92492e-09
4.76128e-12
0.000107324
8.60717e-09
9.94023e-05
5.8867e-07
4.88681e-05
0.000137531
1.27716e-07
6.02115e-12
4.72423e-05
2.08607e-15
2.84425e-10
5.49359e-11
4.72919e-08
5.90045e-05
0.000152396
2.74904e-09
1.30964e-13
9.07727e-12
1.69968e-10
5.65573e-05
8.84142e-15
6.05541e-05
4.62081e-05
2.53835e-14
1.3912e-05
3.20281e-06
1.41176e-11
1.11498e-06
0.000103491
0.000113827
6.20231e-08
1.2038e-10
9.77183e-05
0.000117176
1.03297e-05
2.00499e-11
4.54379e-12
0.000146998
1.05223e-05
2.61136e-11
7.77929e-11
2.75939e-12
1.52502e-15
1.10892e-06
3.49522e-07
6.85977e-16
3.60539e-11
1.19842e-05
0.000156808
0.000157431
6.99692e-09
3.31933e-06
4.72655e-13
3.52135e-11
6.61459e-10
3.67415e-12
6.91117e-09
1.28671e-11
1.28258e-13
3.72116e-10
4.48484e-06
2.48242e-12
1.50679e-10
7.28965e-06
1.63692e-09
7.41746e-06
0.000132603
1.86024e-08
3.22233e-11
1.70267e-12
2.28609e-09
3.29348e-10
6.95929e-06
0.000125728
5.13826e-15
1.24922e-10
1.4582e-14
8.07868e-09
8.43215e-05
5.23829e-05
9.85867e-07
0.000168607
1.30029e-10
0.000112662
4.90097e-07
3.7849e-15
5.02957e-17
1.78677e-13
1.8899e-07
0.000102299
0.00015599
0.000253391
4.43419e-06
0.000122272
2.57055e-13
7.62252e-10
0.000104248
3.17985e-06
2.75476e-06
2.16461e-07
6.46578e-08
1.53907e-07
2.53074e-05
5.70461e-07
1.67466e-09
0.000129283
3.89517e-09
0.000106189
0.000132523
1.43312e-09
4.74989e-05
1.42012e-10
1.98997e-11
4.18987e-08
5.91222e-06
1.14361e-05
7.41428e-12
1.24214e-14
1.22805e-12
8.91103e-05
0.000126417
4.26297e-07
6.85606e-11
1.59642e-06