/*--------------------------------*- C++ -*----------------------------------*\
| =========                 |                                                 |
| \\      /  F ield         | OpenFOAM: The Open Source CFD Toolbox           |
|  \\    /   O peration     | Version:  2406                                  |
|   \\  /    A nd           | Website:  www.openfoam.com                      |
|    \\/     M anipulation  |                                                 |
\*---------------------------------------------------------------------------*/
FoamFile
{
    version     2.0;
    format      ascii;
    arch        "LSB;label=32;scalar=64";
    class       volScalarField;
    location    "64";
    object      p;
}
// * * * * * * * * * * * * * * * * * * * * * * * * * * * * * * * * * * * * * //

dimensions      [0 2 -2 0 0 0 0];

internalField   nonuniform List<scalar> 
59516
(
0.234769
0.0135398
0.0128529
0.00178525
0.248224
0.268731
0.23557
0.208779
0.068293
-0.000532373
0.242911
0.236855
0.163775
0.234019
0.219574
0.0693549
0.235865
0.24383
0.24019
0.232882
0.23932
0.208184
0.235464
0.151055
0.060496
0.14576
0.0858155
0.242604
0.237986
0.218588
0.251544
0.24276
0.109606
0.00132438
0.240365
0.196579
0.0589312
0.246673
0.238587
0.0118296
0.0139428
0.242943
0.239488
0.00147922
0.237995
0.0369664
0.238795
0.23931
0.249854
0.240628
0.255872
0.00105298
0.11164
0.21242
0.238769
0.237881
0.244122
0.00142368
0.150698
0.241444
0.00136019
0.192215
0.151948
0.236467
0.00292387
0.238303
0.00727294
0.200225
0.250168
0.237852
0.203782
0.232874
0.0411412
0.234151
0.201496
0.237444
0.238858
0.0261854
0.167042
0.240524
0.00131697
0.240533
0.239582
0.0976768
0.24054
0.232503
0.068658
0.233137
0.110471
0.243798
0.246359
0.204963
0.228051
0.202305
0.203259
0.249571
0.218615
0.209407
0.240286
0.162159
0.0744347
0.134543
0.214678
0.00777127
0.0411606
0.0062183
0.00557697
0.0643997
0.11644
0.168489
0.248477
0.0802825
0.205451
0.249021
0.225885
0.187179
0.0287814
0.212827
0.2134
0.0287891
0.214698
0.211383
0.0554651
0.212895
0.246949
0.240418
0.225986
0.24456
0.255626
0.227289
0.225056
0.013741
0.201282
0.227813
0.228533
0.19826
0.247357
0.221821
0.135579
0.231565
0.0813
0.102032
0.208879
0.0806528
0.232158
0.229831
0.238348
0.233805
0.254659
0.228699
0.231918
0.00277253
0.225954
0.0026131
0.227375
0.00492507
0.00349182
0.228017
0.228619
0.220318
0.23219
0.231952
0.21977
0.00404128
0.185488
0.0271336
0.0685173
0.229615
0.230253
0.00382978
0.227442
0.227456
0.22309
0.223924
0.2235
0.239386
0.188159
0.240166
0.012459
0.185755
0.225759
0.119716
0.142077
0.225147
0.225321
0.0758917
0.104886
0.0583285
0.226745
0.224415
0.000299724
0.118658
0.229343
0.224367
0.23074
0.0184244
0.136216
0.135704
0.00362083
0.222841
-0.000568425
0.0572377
0.209947
0.162908
0.191922
0.119977
0.230328
0.0031562
0.155447
0.216652
0.0384684
0.24238
0.215693
0.193051
0.216785
0.0863456
0.228965
0.0184235
0.17771
0.217247
0.217028
0.230015
0.223003
0.0040021
0.219695
0.187413
0.154833
0.163032
0.222599
0.0334693
0.218844
0.117889
0.223188
0.124175
0.130711
0.223321
0.221881
0.0467694
0.221763
0.0498365
0.225894
0.119938
0.116262
0.00292387
0.227177
0.226728
0.224309
0.0110988
0.223272
0.226316
0.0115563
0.224576
0.22637
0.141016
0.225338
0.226169
0.0698073
0.221295
0.171969
0.218222
0.156987
0.22005
0.221582
0.221252
0.196505
0.0529972
0.178337
0.0632885
0.218912
0.148433
0.236111
0.191527
0.0672048
0.15105
0.219795
0.196541
0.148711
0.21866
0.219677
0.0868483
0.222888
0.163475
0.152197
0.217671
0.215952
0.235297
0.226165
0.00662904
0.221512
0.197602
0.220615
0.218186
0.202747
0.0266277
0.20572
0.115814
0.198303
0.193998
0.218661
0.197467
0.196807
0.0556025
0.0908093
0.191584
0.200317
0.145402
0.0183053
0.196812
0.197472
0.0740856
0.0605825
0.197963
0.141918
0.133771
0.238184
0.199564
0.210584
0.250275
0.198919
0.0582044
0.118068
0.20948
0.125377
0.212309
0.16369
0.199975
0.242256
0.210737
0.154691
0.211874
0.0210096
0.231893
0.152103
0.211844
0.174036
0.218175
0.221326
0.191208
0.241576
0.216456
0.193111
0.191125
0.212653
0.0464349
0.0959787
0.216455
0.0892743
0.220655
0.213006
0.17247
0.222548
0.224377
0.0343366
0.111322
0.154806
0.0473232
0.00695918
0.248336
0.252916
0.186966
0.0307173
0.228467
0.241315
0.205857
0.0302316
0.211884
0.211303
0.22883
0.251967
0.215196
0.0788494
0.0773956
0.211003
0.15896
0.18235
0.21078
0.212354
0.207188
0.169621
0.201707
0.229298
0.00100551
0.242165
0.00929023
0.0177374
0.212334
0.00691547
0.241619
0.211744
0.0128628
0.0126687
0.0524837
0.207312
0.246932
0.209932
0.247425
0.0102592
0.0694747
0.207249
0.20848
0.218136
0.205548
0.170457
0.218566
0.219515
0.0559365
0.135123
0.219681
0.218116
0.21716
0.0367913
0.0207791
0.0225994
0.123126
0.192718
0.0093238
0.0332301
0.064477
0.00435673
0.207081
0.204787
0.210451
0.210081
0.220438
0.209671
0.161523
0.20447
0.139844
0.210134
0.175572
0.213321
0.208784
0.19654
0.124666
0.21857
0.241964
0.0215377
0.213952
0.158706
0.0766278
0.161112
0.178473
0.215765
0.213778
0.210894
0.209253
0.0741556
0.208915
0.163001
0.0265161
0.180444
0.253072
0.13954
0.0596593
0.211223
0.173832
0.208693
0.131129
0.208501
0.05883
0.209248
0.00381317
0.00713315
0.205925
0.239492
0.203801
0.188504
0.0352329
0.191441
0.18986
0.0396036
0.198128
0.189902
0.185554
0.184895
0.0934487
0.191841
0.187248
0.127761
0.185498
0.0823217
0.183142
0.242747
0.183314
0.255126
0.184337
0.222237
0.0800962
0.0924271
0.160435
0.00362401
0.00282739
0.173841
0.196358
0.200146
0.15442
0.187876
0.0469717
0.205563
0.203606
0.243935
0.136222
0.119527
0.163623
0.203402
0.019587
0.19832
0.235148
0.00443502
0.274772
0.204289
0.0618521
0.231787
0.17244
0.236991
0.1909
0.165925
0.183378
0.206643
0.169101
0.206882
0.228368
0.0711228
0.0713705
0.247627
0.00289128
0.205428
0.197344
0.247167
0.195763
0.231715
0.000732763
0.198928
0.0808719
0.000214398
0.150075
0.0372014
0.245114
0.212361
0.0660758
0.00195912
0.218394
0.122118
0.198027
0.217697
0.197482
0.22905
0.000688055
0.0995962
0.0650147
0.197081
0.0336691
0.144828
0.205319
0.127188
0.204082
0.00250475
0.208378
0.0615593
0.20494
0.16137
0.110126
0.102712
0.206379
0.00204478
0.0407974
0.196181
0.0761919
0.15549
0.17787
0.116822
0.112226
0.195879
0.195243
0.22439
0.194583
0.111286
0.196143
0.194137
0.10656
0.0951693
0.000868495
0.194997
0.194868
0.196524
0.0908055
0.188328
0.00976863
0.197293
0.00522847
0.206908
0.000913252
0.0229436
0.167258
0.11906
0.0102174
0.19767
0.245379
0.00336465
0.0161819
0.194672
0.191361
0.0317045
0.193579
0.194122
0.131597
0.037961
0.206812
0.200479
0.0128025
0.196063
0.19645
0.144142
0.192948
0.254177
0.196874
0.247422
0.169183
0.249824
0.172076
0.0220029
0.230916
0.00510078
0.00565885
0.251527
0.250194
0.173774
0.196196
0.244867
0.241649
0.121834
0.0976031
0.159669
0.0594277
0.169981
0.112983
0.241874
0.172661
0.174865
0.189933
0.179665
0.252041
0.162451
0.183356
0.0510035
0.183356
0.136501
0.0168992
0.183414
0.182423
0.183838
0.137614
0.0832787
0.260273
0.115935
0.119061
0.141219
0.218047
0.183896
0.0601074
0.170384
0.141
0.0123658
0.0626845
0.186597
0.214225
0.14782
0.138119
0.18557
0.185452
0.0745464
0.22382
0.19426
0.127908
0.191393
0.154049
0.200865
0.18928
0.00953098
0.0243329
0.172381
0.252675
0.135395
0.126402
0.00299713
0.144615
0.189006
0.108985
0.198236
0.19378
0.0827997
0.114036
0.196703
0.231511
0.207067
0.157276
0.252027
0.196515
0.0319375
0.204603
0.254823
0.0203443
0.113155
0.218453
0.185047
0.0719067
0.179564
0.0218626
0.0163791
0.156833
0.185342
0.252102
0.208545
0.184815
0.184484
0.189756
0.084078
0.0100626
0.0609229
0.207228
0.251449
0.139543
0.187245
0.125998
0.0542409
0.184118
0.0578315
0.18501
0.23624
0.114679
0.0021305
0.211939
0.0887539
0.190224
0.0166005
0.0714001
0.142453
0.214848
0.188428
0.190442
0.252742
0.215061
0.036016
0.254744
0.00302448
-0.000620383
0.189699
0.0387912
0.103497
0.142273
0.0994359
0.252273
0.186648
0.211742
0.182729
0.0421202
0.1528
0.0484417
0.117051
0.210359
0.18292
0.184551
0.182222
0.0676314
0.226741
0.171589
0.0601737
0.183444
0.181893
0.18133
0.168996
0.183549
0.0179445
0.0111154
0.182609
0.00325505
0.110897
0.127066
0.00964578
0.13352
0.156085
0.233651
0.1735
0.204122
0.160079
0.117704
0.183883
0.185598
0.186327
0.100104
0.185117
0.227043
0.0154039
0.00265618
0.124689
0.105922
0.00278149
0.184845
0.182343
0.183802
0.0170169
0.0280481
0.181618
0.217759
0.0270306
0.0354305
0.252252
0.243726
0.187078
0.0367514
0.195924
0.173095
0.200681
0.157299
0.179258
0.246224
0.157481
0.15692
0.0803915
0.159003
0.24723
0.0302225
0.177534
0.157347
0.0948047
0.193821
0.199791
0.0817072
0.192466
0.215337
0.19533
0.157605
0.237469
0.0480053
0.157161
0.210722
0.0138361
0.168679
0.0647397
0.154413
0.0852752
0.246253
0.160847
0.00281454
0.155154
0.154477
0.164566
0.156397
0.144053
0.00435689
0.0390728
0.192998
0.166655
0.137293
0.195401
0.0998174
0.216429
0.022044
0.166338
0.0740331
0.150597
0.195494
0.0142696
0.16889
0.165508
0.248563
0.0233398
0.200883
0.220073
0.0372681
0.162602
0.0389674
0.132016
0.185483
0.199621
0.162466
0.161346
0.160742
0.252162
0.0289471
0.198611
0.0984748
0.0173738
0.16309
0.203479
0.173151
0.171975
0.0299741
0.174592
0.176113
0.0926504
0.222522
0.250763
0.233755
0.131538
0.176582
0.00374055
0.240943
0.159015
0.173639
0.144399
0.175936
0.174229
0.178664
0.194647
0.178841
0.199755
0.17464
0.231333
0.232497
0.174375
0.191216
0.173582
0.199571
0.200473
0.0122901
0.115259
0.137109
0.0120456
0.185043
0.176706
0.186588
0.097243
0.00601834
0.101556
0.173142
0.189455
0.189405
0.112595
0.129904
0.186966
0.249128
0.17778
0.00793442
0.0173704
0.207812
0.179033
0.106782
0.142842
0.17672
0.11618
0.169536
0.170011
0.169868
0.144589
0.191515
0.169166
0.253285
0.0220563
0.168924
0.253512
0.16923
0.221602
0.0382674
0.167636
0.106636
0.0811626
0.17
0.169276
0.104761
0.10678
0.16805
0.0897434
0.166475
0.167138
0.173429
0.0995055
0.165218
0.0284113
0.167394
0.167194
0.112655
0.165666
0.166043
0.234812
0.161131
0.136034
0.16234
0.164112
0.114159
0.0546279
0.0984182
0.24168
0.166304
0.167258
0.140665
0.0559017
0.242161
0.143106
0.145755
0.142024
0.140872
0.0103863
0.0054125
0.0461984
0.0937266
0.167546
0.166698
0.00530785
0.20769
0.157278
0.0718467
0.242252
0.137719
0.136452
0.244626
0.139067
0.201222
0.0422806
0.137427
0.195809
0.181647
0.137712
0.101429
0.0367765
0.138411
0.207599
0.186259
0.106244
0.0503424
0.0816286
0.144605
0.084715
0.207411
0.0809621
0.142221
0.152313
0.248472
0.110069
0.00968596
0.0532722
0.0823742
0.139868
0.205974
0.15115
0.150842
0.0189159
0.119583
0.00754721
0.153212
0.153209
0.0838825
0.0116372
0.18328
0.035993
0.225923
0.170585
0.167334
0.240701
0.0818311
0.196644
0.20499
0.137246
0.0143752
0.167374
0.238332
0.165784
0.163752
0.139688
0.0723092
0.167436
0.0154661
0.239732
0.209133
0.112004
0.166693
0.159556
0.207043
0.233355
0.198034
0.0272112
0.0730663
0.164499
0.171787
0.193004
0.109082
0.189896
0.243703
0.163278
0.192117
0.0655634
0.1695
0.127369
0.0786243
0.169108
0.168959
0.168159
0.192076
0.165248
0.0378574
0.165969
0.0718073
0.188476
0.0185128
0.164172
0.191462
0.00347207
0.0211892
0.161225
0.0612053
0.0417198
0.0649824
0.0544382
0.0989699
0.0356674
0.164108
0.162068
0.0286455
0.161247
0.162343
0.190368
0.00909848
0.163635
0.156876
0.00209537
0.022566
0.154251
0.0894909
0.00340547
0.0115622
0.154637
0.11084
0.159631
0.236341
0.0149832
0.190728
0.143477
0.158807
0.156037
0.140982
0.180127
0.165887
0.160564
0.14675
0.239326
0.210193
0.159366
0.161843
0.220041
0.0323035
0.208075
0.180695
0.109278
0.103264
0.161724
0.0737178
0.0183962
0.149235
0.153712
0.254197
0.129478
0.153981
0.151978
0.176935
0.073195
0.152179
0.153215
0.230104
0.153666
0.0691252
0.156438
0.156113
0.125245
0.113461
0.137389
0.156288
0.153393
0.156121
0.105424
0.132832
0.159452
0.138888
0.104315
0.111002
0.111849
0.112146
0.130237
0.154377
0.132841
0.242401
0.221227
0.0394848
0.0940788
0.0978798
0.131143
0.12908
0.133081
0.170809
0.13014
0.129373
0.077757
0.0980747
0.181443
0.077212
0.0311548
0.1323
0.131367
0.133954
0.224681
0.0127526
0.0062638
0.0919916
0.14156
0.138657
0.208182
0.0316667
0.131711
0.242507
0.0373818
0.140274
0.139729
0.166845
0.00166265
0.138447
0.138591
0.137899
0.149315
0.00467511
0.00681786
0.149733
0.149852
0.146731
0.148384
0.153891
0.145387
0.0726911
0.0145327
0.247349
0.185865
0.149969
0.149023
0.112673
0.23497
0.228307
0.212298
0.00121051
0.212466
0.1508
0.150793
0.149721
0.150482
0.15107
0.149723
0.203987
0.125868
0.198243
0.132805
0.0723781
0.0127625
0.152003
0.113194
0.00408228
0.13446
0.156449
0.239057
0.157568
0.107265
0.104024
0.183346
0.117539
0.154517
0.160704
0.158689
0.128856
0.138982
0.235056
0.153985
0.196864
0.0691989
0.0572387
0.151967
0.0592898
0.0207958
0.156571
0.156219
0.115805
0.077818
0.0894096
0.221827
0.155521
0.046036
0.00521974
0.139881
0.0258212
0.110053
0.150404
0.185791
0.139191
0.0234527
0.225855
0.0137542
0.220038
0.122204
0.20898
0.143541
0.0408726
0.15208
0.137289
0.0868683
0.10445
0.152614
0.15295
0.226949
0.187372
0.198415
0.231571
0.192389
0.185518
0.185843
0.202686
0.149303
0.148781
0.117289
0.0582456
0.0670522
0.0163221
0.210198
0.1179
0.146496
0.144377
0.14574
0.0410293
0.142498
0.199655
0.00471014
0.14261
0.146788
0.167896
0.249881
0.200679
0.199475
0.143179
0.0114765
0.209683
0.145338
0.175282
0.15237
0.179042
0.18954
0.133835
0.206994
0.14822
0.187142
0.152407
0.0183738
0.200981
0.207336
0.120215
0.245492
0.0672418
0.0775126
0.0675474
0.132353
0.195692
0.0543951
0.174888
0.0557722
0.148715
0.14868
0.128118
0.154363
0.140021
0.218232
0.180323
0.13836
0.185181
0.144998
0.250895
0.205147
0.14447
0.140667
0.180101
0.214757
0.142197
0.0240918
0.174451
0.217998
0.139272
0.127053
0.14349
0.146066
0.14732
0.14807
0.0034474
0.0675049
0.149163
0.244766
0.147619
0.121165
0.193014
0.118856
0.103148
0.219328
0.244969
0.201529
0.201653
0.203156
0.0321428
0.138667
0.166104
0.243463
0.231934
0.245524
0.249154
0.231687
0.123146
0.120122
0.243919
0.0530752
0.124348
0.184608
0.12122
0.201132
0.189653
0.243683
0.22551
0.200809
0.0669246
0.123312
0.136663
0.131168
0.137693
0.203446
0.185695
0.137286
0.133034
0.135112
0.014392
0.215067
0.0380106
0.138178
0.163307
0.143526
0.139643
0.13475
0.0383551
0.140991
0.124297
0.140285
0.139385
0.207674
0.127206
0.0724185
0.0435057
0.194795
0.0997138
0.0988722
0.190313
0.0826588
0.046102
0.0397076
0.0296245
0.187514
0.0622211
0.126622
0.157614
0.029526
0.212275
0.212943
0.0883257
0.0856677
0.229374
0.130879
0.0140032
0.152592
0.0298417
0.183354
0.0285357
0.0444761
0.0177967
0.00911558
0.0741248
0.208658
0.0427711
0.0225973
0.0235942
0.13749
0.0273135
0.135404
0.21391
0.138789
0.136419
0.187001
0.0419826
0.141587
0.140324
0.0110186
0.0675639
0.209429
0.141527
0.141997
0.188828
0.214168
0.204066
0.21328
0.0506791
0.235841
0.243876
0.141681
0.142386
0.0118076
0.220618
0.242783
0.139911
0.106105
0.139275
0.0160742
0.204637
0.00609849
0.0420294
0.131447
0.169214
0.133114
0.108325
0.210539
0.0993398
0.200427
0.131724
0.132868
0.0651809
0.12533
0.113626
0.239117
0.210786
0.181256
0.131837
0.215164
0.0727223
0.0415022
0.0600553
0.0123516
0.13195
0.212565
0.131627
0.0125243
0.0104732
0.207319
0.134018
0.0630705
0.22133
0.134032
0.134371
0.207486
0.018348
0.206077
0.134831
0.137311
0.138637
0.145146
0.138433
0.20246
0.199361
0.138719
0.228254
0.147982
0.199146
0.168758
0.136567
0.213564
0.133872
0.10727
0.230363
0.15109
0.135986
0.01087
0.139212
0.137914
0.103813
0.132871
0.183877
0.0527551
0.210994
0.126766
0.192631
0.202247
0.136227
0.148615
0.00959557
0.0632711
0.0510943
0.134562
0.21141
0.0176107
0.132044
0.230515
0.0504254
0.191044
0.0475153
0.132951
0.162297
0.13107
0.00117939
0.174181
0.211257
0.10393
0.0325645
0.0513944
0.100384
0.102023
0.108986
0.209334
0.0100484
0.033179
0.114127
0.115335
0.198488
0.184052
0.115982
0.120857
0.110627
0.168779
0.231848
0.216914
0.147425
0.0272027
0.196199
0.195124
0.0881555
0.0454161
0.17953
0.0834946
0.113952
0.18711
0.147605
0.151127
0.128911
0.11027
0.119934
0.119672
0.118217
0.190453
0.122225
0.164757
0.227892
0.211045
0.185061
0.204258
0.111357
0.0812488
0.210091
0.123066
0.187787
0.145817
0.193019
0.237323
0.115657
0.00637085
0.124436
0.126137
0.132274
0.208574
0.123692
0.130145
0.150291
0.132177
0.150038
0.126161
0.00176859
0.148906
0.129865
0.129421
0.00468483
0.185951
0.233482
0.148545
0.155372
0.117396
0.131771
0.130256
0.053123
0.23147
0.131943
0.131547
0.133575
0.0320415
0.209054
0.141747
0.118512
0.148618
0.0772054
0.100805
0.19788
0.122372
0.118926
0.0961161
0.119453
0.129377
0.0806231
0.122488
0.209122
0.138692
0.0702678
0.208106
0.209029
0.106746
0.107695
0.0905933
0.12245
0.0536012
0.125692
0.0590455
0.252908
0.194448
0.16124
0.0770876
0.0192681
0.216956
0.0172991
0.0200312
0.121791
0.00205343
0.122303
0.0280776
0.162349
0.0853315
0.121057
0.18193
0.163347
0.122165
0.0243376
0.0198238
0.158884
0.120067
0.0354712
0.122934
0.121562
0.138735
0.127774
0.23649
0.187733
0.216915
0.160479
0.183386
0.121814
0.18727
0.161751
0.122366
0.218439
0.240174
0.182431
0.178057
0.122437
0.202801
0.119535
0.217864
0.157389
0.185457
0.0178758
0.0374802
0.176007
0.00948187
0.210676
0.252543
0.219977
0.0112125
0.0516717
0.0172653
0.207415
0.215883
0.00571886
0.163386
0.115743
0.202576
0.167306
0.115165
0.123173
0.0286259
0.179088
0.182463
0.0502404
0.236423
0.216712
0.131411
0.117069
0.247522
0.116403
0.241403
0.180902
0.179007
0.117377
0.224984
0.104074
0.223063
0.208415
0.227482
0.0063225
0.120495
0.234542
0.0630399
0.243197
0.120767
0.228898
0.0908227
0.0901267
0.0958711
0.237383
0.195051
0.226551
0.193992
0.102323
0.234334
0.234709
0.0913839
0.235905
0.106286
0.187973
0.100553
0.194936
0.129934
0.0877855
0.123321
0.0848695
0.124124
0.018902
0.107683
0.0984625
0.218018
0.0956168
0.181863
0.137068
0.162426
0.105566
0.0356253
0.0785957
0.183101
0.10063
0.217706
0.0678198
0.109886
0.224016
0.186405
0.111944
0.202497
0.11029
0.100155
0.0979345
0.128304
0.105259
0.00194548
0.0356886
0.0391397
0.100739
0.101395
0.185137
0.0449643
0.0259908
0.0959255
0.0638842
0.216291
0.196914
0.0317204
0.11256
0.164908
0.106569
0.114002
0.0915553
0.111522
0.196486
0.111062
0.154796
0.000641426
0.213278
0.152229
0.244852
0.114585
0.11123
0.0201659
0.218323
0.0851204
0.115303
0.18778
0.119028
0.116303
0.109122
0.107218
0.0294252
0.118847
0.113998
0.114583
0.109561
0.127991
0.111561
0.21365
0.0924039
0.116575
0.215342
0.244535
0.159103
0.0957711
0.177094
0.114275
0.104236
0.0993385
0.0534697
0.0929113
0.0849031
0.232458
0.0940104
0.128525
0.126261
0.0315123
0.0931356
0.213114
0.106277
0.109158
0.150933
0.142646
0.103919
0.165322
0.128634
0.107462
0.105073
0.119269
0.105377
0.2118
0.203999
0.095508
0.0923934
0.101821
0.0413943
0.107833
0.128322
0.184509
0.104855
0.10879
0.0993643
0.110709
0.214163
0.0918392
0.207457
0.108666
0.104948
0.0967985
0.105309
0.0818358
0.101929
0.083537
0.0730231
0.104149
0.229765
0.1184
0.227811
0.151762
0.0701585
0.022582
0.0903805
0.213136
0.106152
0.104857
0.0770819
0.10672
0.0768076
0.214985
0.213539
0.0804925
0.0811729
0.0845784
0.0851787
0.171458
0.135106
0.0827465
0.0833294
0.0627792
0.103187
0.0847234
0.0851433
0.048937
0.047487
0.00225754
0.085423
0.173393
0.0293983
0.135171
0.0883882
0.0912366
0.0951281
0.121747
0.21096
0.10805
0.0780868
0.0113001
0.0183493
0.136978
0.089691
0.0849608
0.117091
0.0306612
0.0201472
0.0908246
0.212593
0.10083
0.102594
0.0479174
0.0952157
0.238213
0.0975366
0.0957023
0.1344
0.0979212
0.10117
0.212455
0.101873
0.114941
0.0181247
0.00391935
0.16681
0.0356597
0.0206674
0.104987
0.0866436
0.212974
0.103087
0.220358
0.221018
0.100227
0.211978
0.00701307
0.0968202
0.103009
0.0333847
0.104097
0.220596
0.244982
0.0480202
0.216893
0.102577
0.183728
0.20169
0.103163
0.107575
0.219331
0.100934
0.2368
0.102567
0.124644
0.111626
0.237604
0.217009
0.126076
0.105327
0.102283
0.191297
0.124378
0.19079
0.217103
0.213972
0.105524
0.0117795
0.106069
0.0986621
0.189875
0.0803822
0.190509
0.040769
0.201111
0.000261091
0.213785
0.125001
0.0891304
0.0981258
0.215935
0.0956922
0.213543
0.207193
0.21553
0.0130699
0.00345857
0.192319
0.00361543
0.0955217
0.123062
0.165898
0.0933778
0.20749
0.14184
0.211327
0.0911416
0.209753
0.17421
0.189422
0.24605
0.129044
0.231671
0.090752
0.00981677
0.141835
0.00958054
0.243389
0.0446113
0.137359
0.189654
0.0998483
0.0951836
0.013501
0.0327869
0.0971962
0.194754
0.21567
0.0066445
0.221036
0.125179
0.236284
0.0570904
0.197067
0.0970846
0.17495
0.217329
0.172469
0.161932
0.18254
0.198524
0.211389
0.159883
0.0417212
0.186425
0.0983898
0.0987933
0.0982822
0.0590664
0.230866
0.231878
0.187949
0.107947
0.207451
0.213804
0.107497
0.0993856
0.0981889
0.0950295
0.230942
0.0473128
0.0928194
0.146817
0.0954076
0.185984
0.172313
0.114542
0.0562418
0.0964486
0.0945402
0.134108
0.241971
0.155071
0.0946106
0.208843
0.0671904
0.0512614
0.227044
0.00465084
0.0668882
0.0135555
0.0670443
0.0673324
0.209902
0.0933485
0.173659
0.208567
0.116684
0.0993883
0.216784
0.0708178
0.214059
0.0894936
0.0920689
0.0924133
0.189706
0.160065
0.213676
0.193729
0.205462
0.0793106
0.137643
0.217511
0.203135
0.0994074
0.202392
0.0688993
0.186511
0.0452212
0.188475
0.0951389
0.16956
0.0843461
0.128659
0.202623
0.0670402
0.203289
0.0515008
0.102828
0.0822721
0.0296355
0.0868474
0.0812694
0.114654
0.21379
0.0848978
0.0392807
0.017327
0.190425
0.0192624
0.204781
0.00417963
0.0891751
0.0480943
0.0879657
0.203021
0.206571
0.0448219
0.229962
0.031456
0.00219684
0.189076
0.171006
0.0867733
0.20325
0.0655251
0.0186838
0.111932
0.00247343
0.142125
0.181376
0.132232
0.0888363
0.240407
0.090273
0.145451
0.189028
0.119298
0.205518
0.0867539
0.130264
0.0859687
0.134724
0.229476
0.0923068
0.0795369
0.13518
0.0867439
0.150648
0.0851407
0.0558786
0.0852294
0.229305
0.0849876
0.0817041
0.0843589
0.223344
0.107563
0.215085
0.232914
0.231256
0.165525
0.0461732
0.0618137
0.172964
0.203782
0.0215026
0.059559
0.0843931
0.0829149
0.205084
0.243543
0.00295644
0.0306503
0.076013
0.214968
0.031199
0.120862
0.205073
0.082041
0.0808647
0.0814107
0.0791535
0.0817564
0.166226
0.101168
0.201655
0.0217344
0.0848481
0.0817702
0.225051
0.128906
0.22126
0.234599
0.0447159
0.0824573
0.0616875
0.223409
0.225816
0.220728
0.220093
0.114256
0.060905
0.21586
0.0448229
0.0822535
0.197926
0.0918357
0.0813407
0.0647403
0.0800383
0.196472
0.195432
0.082378
0.145239
0.0922241
0.0915819
0.240894
0.0236818
0.0507081
0.0820715
0.0828626
0.00732585
0.0828984
0.0630759
0.0879168
0.192248
0.0831283
0.0157769
0.0893693
0.00738609
0.22571
0.218808
0.115428
0.0853221
0.0879371
0.100984
0.0752151
0.0682784
0.103043
0.0722135
0.0710217
0.0621112
0.072556
0.227048
0.202514
0.121303
0.189602
0.0765645
0.195721
0.0605888
0.189042
0.157236
0.181542
0.0736483
0.137636
0.0171259
0.19606
0.211247
0.0844876
0.248568
0.0760939
0.0780156
0.130931
0.0201474
0.101629
0.0787489
0.194917
0.0597306
0.0843463
0.0816153
0.0567804
0.161938
0.0569396
0.0560776
0.057314
0.0581276
0.0570112
0.19145
0.191917
0.197889
0.188611
0.0365339
0.057539
0.222089
0.0631434
0.0350551
0.062512
0.0621198
0.0374632
0.0628822
0.0616317
0.0622501
0.0792791
0.0758628
0.139659
0.0868966
0.0979876
0.126766
0.109505
0.10053
0.0374884
0.0797036
0.0789909
0.0596599
0.064466
0.0769397
0.152719
0.0158073
0.180638
0.24055
0.141875
0.230534
0.0781841
0.017335
0.0190183
0.018615
0.105525
0.0199899
0.0748416
0.0769811
0.216074
0.24813
0.131495
0.069723
0.219453
0.118986
0.146542
0.0764059
0.148863
0.076623
0.153425
0.0641071
0.0342039
0.041504
0.0725374
0.00144326
0.0785108
0.217805
0.0579732
0.178523
0.0232891
0.0702212
0.0723722
0.203785
0.0986011
0.153659
0.110604
0.152569
0.0715804
0.0138595
0.220282
0.0859825
0.142299
0.216873
0.216981
0.0733324
0.0622264
0.0740745
0.112785
0.0736954
0.14965
0.203411
0.115733
0.0748091
0.0754556
0.119771
0.136738
0.168516
0.0746245
0.0764718
0.0769073
0.217826
0.0755376
0.0769314
0.0276459
0.0674931
0.0356523
0.0134671
0.0351355
0.0218041
0.0662279
0.0678394
0.0110546
0.0536697
0.010654
0.215537
0.0691921
0.0391379
0.215699
0.165674
0.103548
0.0598688
0.0723067
0.0110217
0.0707203
0.158737
0.111581
0.0691142
0.2212
0.0340622
0.00313619
0.0699334
0.255657
0.109781
0.144292
0.0124351
0.0703087
0.0696905
0.16855
0.0126033
0.108782
0.139772
0.0646574
0.0697738
0.072018
0.247807
0.227599
0.221498
0.105507
0.0355888
0.0137764
0.0124517
0.222778
0.0125719
0.0442042
0.0731494
0.24401
0.0858343
0.0744994
0.200737
0.222559
0.159098
0.150961
0.0735412
0.0716493
0.215735
0.184835
0.196004
0.021462
0.181303
0.0477429
0.0997774
0.0392251
0.0710633
0.112964
0.227483
0.113678
0.111835
0.235306
0.066854
0.217317
0.050252
0.1488
0.174582
0.227243
0.113665
0.220832
0.0630633
0.0527156
0.0315187
0.0670193
0.220675
0.0508341
0.0458678
0.136705
0.0521724
0.0523871
0.0563276
0.0180354
0.103688
0.068463
0.0808698
0.0475051
0.062017
0.0548693
0.0376295
0.222882
0.154795
0.0506345
0.0702799
0.252783
0.13206
0.0672195
0.141946
0.0677315
0.126286
0.0658037
0.221197
0.0491703
0.24965
0.0429136
0.0379124
0.137932
0.0517027
0.150769
0.132016
0.159352
0.0208801
-0.000975261
0.0288441
0.0239311
0.0427875
0.0154191
0.0473211
0.0439546
0.0433415
0.233689
0.029019
0.22326
0.223557
0.0338428
0.212699
0.0708798
0.2183
0.202765
0.0491789
0.21474
0.0493595
0.00148448
0.158941
0.101957
0.207244
0.202048
0.111705
0.0170957
0.0308567
0.160857
0.175188
0.05072
0.0491367
0.0661636
0.178397
0.194289
0.143756
0.0178168
0.0128482
0.0653091
0.163839
0.180192
0.197187
0.234065
0.067355
0.207685
0.190253
0.142617
0.250533
0.101846
0.131126
0.166244
0.0634081
0.225452
0.0107823
0.0982003
0.190001
0.171689
0.201374
0.224258
0.0201154
0.0980006
0.0656733
0.117088
0.0664854
0.108422
0.120236
0.116244
0.0841034
0.0662868
0.065354
0.0631567
0.0857404
0.23261
0.092484
0.0830824
0.0890005
0.219536
0.192874
0.0190928
0.22501
0.0658102
0.0630908
0.132018
0.0556023
0.0562987
0.0776246
0.0195337
0.0545481
0.0591948
0.0135882
0.0520145
0.0509718
0.0559813
0.0737385
0.0614643
0.0619416
0.223301
0.0411413
0.0499231
0.036545
0.067641
0.0362223
0.0341548
0.0639526
0.0149924
0.0161727
0.0912413
0.0374324
0.0331174
0.224428
0.064537
0.0497187
0.045718
0.017305
0.0408747
0.0639038
0.0661135
0.0585556
0.102842
0.140855
0.162557
0.121699
0.016324
0.0583585
0.0568326
0.0585428
0.18556
0.0895899
0.065365
0.239797
0.0574252
0.0888173
0.0568593
0.0592888
0.155977
0.161839
0.0568989
0.0950906
0.203555
0.202463
0.0896908
0.0575876
0.222436
0.0575539
0.123819
0.0582633
0.244572
0.0585605
0.183305
0.0572132
0.155812
0.188761
0.217772
0.197992
0.0557631
0.191543
0.139127
0.155466
0.0577279
0.0237861
0.101141
0.141555
0.057479
0.0570975
0.0579066
0.101089
0.0515918
0.234809
0.169767
0.0219178
0.223049
0.0542517
0.216743
0.0221827
0.0500281
0.0530595
0.185043
0.0574378
0.159698
0.232802
0.0504686
0.0539296
0.0871845
0.228564
0.18507
0.184114
0.0552472
0.194235
0.166157
0.0534066
0.0896378
0.075743
0.0524895
0.0527337
0.159317
0.196748
0.0582136
0.0918923
0.0744528
0.22074
0.215871
0.220141
0.0575582
0.222012
0.0389432
0.174794
0.201432
0.115928
0.15701
0.0571023
0.226663
0.0277328
0.0313482
0.0335467
0.0964794
0.0334263
0.103333
0.101407
0.0902069
0.112217
0.180392
0.0920905
0.136589
0.00768488
0.038773
0.0783467
0.130561
0.054791
0.145887
0.204646
0.105944
0.17636
0.17015
0.0101375
0.033562
0.154311
0.0393434
0.000319021
0.225032
0.186464
0.215725
0.0317546
0.224886
0.0861815
0.213748
0.0823821
0.216929
0.0815163
0.221743
0.0364408
0.194794
0.0528389
0.165993
0.0833716
0.171042
0.0859965
0.258905
0.0531874
0.0718835
0.181125
0.166321
0.0514548
0.112098
0.166467
0.0531963
0.149481
0.0214885
0.149034
0.0488266
0.0474512
0.0726591
0.224777
0.0534351
0.0342183
0.0525018
0.0543141
0.0975035
0.187745
0.0608501
0.0546886
0.097059
0.097132
0.00423481
0.218776
0.0527061
0.0697321
0.12606
0.172638
0.0016591
0.0542356
0.223324
0.04516
0.0437174
0.137614
0.0259035
0.0385099
0.201731
0.054621
0.220749
0.101283
0.0346342
0.0427694
0.113799
0.0402173
0.0525844
0.0777669
0.0498499
0.0511634
0.0508218
0.0210458
0.132808
0.0490506
0.0692369
0.0467925
0.0632712
0.070411
0.0485715
0.045444
0.21823
0.0495755
0.0430698
0.0455329
0.222885
0.0533691
0.0446007
0.0618009
0.164929
0.0665102
0.0485611
0.0541647
0.0473514
0.00272076
0.22105
0.0672025
0.0474151
0.0350434
0.228091
0.0895026
0.0240994
0.046138
0.00971723
0.0974341
0.219854
0.0449702
0.218473
0.0419289
0.0276533
0.222507
0.219298
0.227166
0.0337815
0.22382
0.0132702
0.0162795
0.0461789
0.0243041
0.0207825
0.0567288
0.167116
0.223361
0.214346
0.231347
0.212406
0.131744
0.0957166
0.0353954
0.0432875
0.0508049
0.125089
0.140354
0.0862793
0.18672
0.0662282
0.0474024
0.151599
0.059708
0.213191
0.212673
0.0265792
0.21437
0.141175
0.194237
0.227937
0.044412
0.177253
0.143208
0.151911
0.142585
0.044715
0.109239
0.215404
0.229807
0.053755
0.210384
0.227927
0.219375
0.182369
0.0375898
0.231198
0.0400178
0.204373
0.205055
0.0397728
0.0442215
0.0355544
0.126417
0.224537
0.0919281
0.141923
0.0361215
0.157348
0.224909
0.047392
0.183889
0.0457446
0.187817
0.212835
0.231138
0.212083
0.0770758
0.0850535
0.100803
0.178047
0.047555
0.199312
0.199503
0.0459136
0.189215
0.109337
0.04613
0.14188
0.192348
0.0446525
0.21569
0.0375724
0.19648
0.235016
0.0418803
0.119816
0.0425952
0.145628
0.0447504
0.021368
0.224968
0.147796
0.0724967
0.0980977
0.125081
0.118416
0.0180065
0.112654
0.110688
0.214382
0.151204
0.238202
0.204858
0.0599655
0.219082
0.022637
0.0235588
0.159421
0.135817
0.189376
0.188699
0.0249677
0.0213206
0.10883
0.22192
0.179567
0.204596
0.235613
0.0242566
0.181787
0.148895
0.182271
0.187988
0.13919
0.225959
0.191874
0.195356
0.0553876
0.0594817
0.234353
0.0243535
0.0216278
0.0408536
0.207268
0.222379
0.225468
0.0397104
0.0375611
0.165175
0.0390258
0.0401469
0.170085
0.230145
0.18777
0.0622699
0.213923
0.108887
0.18516
0.187033
0.231382
0.0380685
0.136682
0.13749
0.0401971
0.0385642
0.0365831
0.038823
0.145832
0.0403043
0.230611
0.182773
0.168539
0.0401914
0.0355246
0.0792091
0.177196
0.231926
0.10624
0.095471
0.229586
0.0174044
0.0310726
0.0630924
0.098699
0.0305525
0.039407
0.0409183
0.0762685
0.0410752
0.229534
0.230612
0.0840541
0.229618
0.134257
0.07569
0.0367444
0.0602807
0.056663
0.067461
0.0393626
0.0334976
0.0427487