/*--------------------------------*- C++ -*----------------------------------*\
| =========                 |                                                 |
| \\      /  F ield         | OpenFOAM: The Open Source CFD Toolbox           |
|  \\    /   O peration     | Version:  2406                                  |
|   \\  /    A nd           | Website:  www.openfoam.com                      |
|    \\/     M anipulation  |                                                 |
\*---------------------------------------------------------------------------*/
FoamFile
{
    version     2.0;
    format      ascii;
    arch        "LSB;label=32;scalar=64";
    class       surfaceScalarField;
    location    "64";
    object      phi;
}
// * * * * * * * * * * * * * * * * * * * * * * * * * * * * * * * * * * * * * //

dimensions      [0 3 -1 0 0 0 0];

oriented        oriented;

internalField   nonuniform List<scalar> 
113358
(
-1.46403e-05
3.02775e-05
-2.12798e-05
5.64284e-06
2.14655e-05
2.70592e-07
-5.74981e-06
-1.59869e-05
-2.52372e-05
1.89287e-05
-2.91944e-06
9.22804e-06
-2.36828e-05
-6.13858e-06
2.32173e-05
6.60403e-06
-1.72876e-05
9.19665e-07
3.01304e-05
-1.37624e-05
1.36156e-05
-1.41962e-05
-7.96038e-06
8.54097e-06
-7.1903e-06
3.36461e-05
-2.46143e-05
-1.84126e-06
-7.08651e-07
-3.06411e-05
1.67316e-05
1.46176e-05
8.0942e-06
5.76197e-07
1.77903e-05
-2.6461e-05
6.90931e-06
3.50524e-06
-1.01348e-05
-2.80402e-07
-6.07625e-06
2.30935e-05
-2.18155e-05
4.79824e-06
-1.46594e-05
1.21801e-07
-3.51518e-07
1.48892e-05
-4.40531e-05
3.41217e-06
1.1698e-05
2.89425e-05
1.18594e-06
-2.52283e-06
1.33689e-06
1.8779e-06
-1.36958e-06
1.84965e-05
-1.90044e-05
9.8603e-07
3.19856e-07
1.12402e-05
-1.25463e-05
9.75477e-06
3.5984e-05
-2.93697e-05
-1.6369e-05
-1.95092e-05
1.0786e-05
6.70867e-06
2.01448e-06
1.50639e-05
-3.79579e-05
3.17555e-05
-8.8615e-06
2.64438e-05
3.03853e-06
2.80775e-05
-5.75599e-05
1.88964e-05
3.6973e-07
-4.82951e-07
-1.87832e-05
-1.15962e-05
4.65411e-05
4.35462e-06
-3.93008e-05
-9.41296e-07
-4.52484e-05
4.95354e-05
-3.34568e-06
-8.78166e-07
4.15526e-06
3.11315e-07
-3.58823e-06
-4.80247e-05
2.09625e-05
-4.16621e-06
3.12297e-05
-2.11787e-05
4.96252e-06
1.74416e-05
-1.22517e-06
-9.06032e-06
8.77158e-06
-1.79804e-07
4.68652e-07
-1.88156e-06
-7.44668e-06
5.32767e-06
4.00063e-06
1.88643e-05
-4.09145e-07
4.41292e-07
-2.11285e-06
2.10488e-06
8.01637e-09
-5.44175e-06
-2.58639e-05
2.7467e-05
3.83869e-06
5.07054e-06
-2.59903e-07
-8.07917e-06
3.26861e-06
2.01717e-05
-1.05471e-06
1.17711e-06
-2.02941e-05
-2.72681e-05
1.25793e-05
-2.93537e-06
1.76241e-05
1.75054e-05
2.57856e-06
-1.98262e-05
-2.57675e-07
-3.41268e-05
8.68071e-06
-1.19236e-05
3.7369e-05
-3.52439e-08
-2.05007e-06
2.08551e-06
9.3502e-06
1.07755e-05
1.75607e-06
-2.18818e-05
7.31546e-06
-3.69778e-05
3.03711e-05
-7.08798e-07
-3.5015e-06
4.36734e-06
3.72279e-05
-3.80952e-05
-1.8422e-05
1.56538e-05
-1.94305e-05
2.21986e-05
9.20864e-08
-2.41144e-05
-3.10161e-05
5.50384e-05
-1.34091e-06
4.33934e-05
-1.23858e-05
-2.96668e-05
5.09021e-06
-1.78912e-05
-7.1332e-06
-6.39862e-06
3.24325e-05
-3.00901e-07
-2.57331e-05
-2.17693e-06
1.51072e-05
-1.0087e-05
-2.84373e-06
-3.04425e-05
-1.21393e-05
4.12408e-05
-1.17577e-05
3.58386e-05
1.58956e-06
-2.56704e-05
-3.41004e-05
4.25134e-06
-5.51788e-06
3.5367e-05
3.55934e-05
1.58842e-05
-4.71103e-05
-4.36723e-06
2.32256e-05
-1.61794e-05
1.55247e-06
-8.59862e-06
-9.9666e-06
2.87013e-06
1.01174e-05
-3.02059e-06
2.86539e-05
-7.67233e-06
1.62165e-05
-3.71984e-05
-1.01536e-05
-3.71805e-05
4.0457e-05
6.87793e-06
-2.05997e-06
7.53648e-06
-8.75865e-06
3.28212e-06
2.79534e-05
-1.20271e-05
2.01397e-05
-3.6066e-05
-2.13903e-05
4.97318e-06
3.7433e-05
-2.10159e-05
1.11252e-05
-5.42549e-06
4.27253e-06
-9.97218e-06
3.96841e-05
-1.03341e-05
-3.05255e-05
1.17471e-06
-1.30285e-05
-1.47852e-05
8.15899e-06
1.96548e-05
-3.08176e-05
-5.08094e-06
1.45039e-05
2.13941e-05
-2.71255e-06
3.11039e-06
-3.97867e-07
3.63659e-05
-6.24024e-06
-3.592e-05
5.79446e-06
-1.60102e-05
-4.33302e-05
1.73468e-05
4.19936e-05
-3.9614e-06
4.30352e-06
-3.34613e-05
3.31189e-05
1.58368e-06
2.1736e-05
3.11685e-06
-2.64365e-05
3.32721e-06
-2.75578e-06
-5.7149e-07
-2.33706e-08
6.98437e-08
1.11436e-05
-1.11897e-05
6.24116e-06
-3.0198e-05
3.26594e-05
-8.70255e-06
9.67847e-06
-2.42489e-05
2.34797e-05
-8.90939e-06
7.00622e-06
-7.22596e-06
2.19533e-07
-1.97612e-05
-6.42086e-06
3.43509e-05
-8.16875e-06
-2.33937e-07
3.89148e-06
-3.65762e-06
7.56306e-06
-2.93401e-05
8.76515e-06
1.30118e-05
4.96786e-05
-3.60919e-06
-3.38179e-06
-4.26866e-05
-2.72934e-05
-3.32389e-05
3.59348e-05
2.45975e-05
3.9677e-06
-3.74874e-05
6.22629e-06
3.67204e-05
-2.96065e-05
-8.60294e-07
-6.25396e-06
1.04349e-07
1.62986e-07
-1.45801e-05
1.43127e-05
6.41388e-06
8.48521e-06
1.29739e-05
-2.78729e-05
7.44807e-06
-3.90953e-06
3.01579e-06
-6.55442e-06
-1.61241e-05
-1.12165e-05
2.7339e-05
1.50459e-09
-2.11514e-05
2.60996e-05
-1.88898e-05
1.39416e-05
-2.90593e-06
1.37924e-09
2.90443e-06
-3.08616e-05
3.45664e-05
-3.54198e-05
2.72976e-05
-2.73179e-06
-9.05114e-07
-6.02891e-07
4.23978e-06
6.42587e-05
-6.18026e-05
1.85928e-06
-4.31551e-06
-1.13563e-05
3.52536e-06
1.09226e-05
-3.09134e-06
-4.64455e-06
2.57616e-05
-2.82899e-05
7.1729e-06
-1.79903e-05
-2.12964e-05
3.14739e-05
7.8128e-06
9.11062e-06
-1.31006e-05
1.85083e-05
-1.45178e-05
7.79866e-06
2.61433e-05
-5.33952e-05
1.94539e-05
-3.37099e-05
1.21153e-05
1.4628e-05
6.96666e-06
9.61917e-07
-3.10946e-05
2.53126e-05
4.82019e-06
-2.70989e-05
2.50593e-06
9.68304e-06
1.49099e-05
2.33856e-05
-2.03064e-05
6.97084e-06
-1.00502e-05
1.2436e-06
1.14025e-05
-1.24628e-05
-1.83274e-07
1.71211e-05
-2.43058e-06
-2.51406e-06
-1.21764e-05
1.60086e-05
1.83803e-05
-1.60887e-05
-1.82994e-05
2.29685e-06
-7.18487e-07
4.10046e-06
-5.67894e-06
4.41437e-06
-2.67017e-07
-4.1472e-06
3.18621e-08
3.66306e-06
-3.69501e-06
-4.70265e-07
2.90748e-06
-1.24681e-05
1.00305e-05
-2.03183e-05
4.09801e-05
4.35428e-07
-2.10965e-05
4.81341e-06
-2.22848e-05
1.72375e-05
2.33548e-07
-2.89858e-06
-3.82796e-06
1.0873e-06
5.63915e-06
-5.59998e-06
-1.36206e-05
3.6195e-06
1.56014e-05
-2.98171e-06
1.90959e-05
8.27548e-06
-2.43898e-05
3.95548e-06
3.52786e-06
-1.71014e-05
9.61835e-06
-2.71604e-06
2.83819e-05
-3.22823e-05
6.61651e-06
-7.0615e-06
7.23682e-06
-1.75341e-07
1.73949e-05
-2.15663e-05
3.44723e-06
7.2442e-07
1.84038e-05
1.08547e-05
-3.24489e-05
3.19046e-06
-2.67196e-05
-1.51676e-05
7.48904e-06
3.43981e-05
-2.09058e-06
-2.03808e-05
8.71763e-07
2.15993e-05
1.2256e-05
-1.27173e-05
9.97299e-08
3.62193e-07
1.6055e-05
-2.81543e-05
-5.35797e-06
1.74574e-05
-3.28638e-06
2.58766e-07
3.02738e-06
-4.45497e-06
-1.31942e-06
2.95387e-05
-2.37642e-05
-1.59764e-05
1.01552e-05
5.11478e-05
-4.53253e-05
-1.11101e-05
2.27903e-05
-3.31698e-05
2.14896e-05
1.64045e-06
-2.55744e-05
2.04131e-05
3.52055e-06
-4.08521e-06
-9.50206e-06
3.37686e-05
-2.01809e-05
2.31885e-05
-9.81881e-06
-1.02989e-05
-3.07078e-06
-2.84172e-06
-1.22334e-05
1.81154e-05
-3.04014e-06
5.75051e-06
-2.81086e-06
-2.93965e-06
-1.10393e-06
-2.49985e-05
-6.61164e-06
3.27141e-05
-1.4749e-05
2.06306e-05
5.87002e-06
-1.17516e-05
6.04697e-06
-1.48999e-05
2.53774e-05
-1.65245e-05
-4.97629e-05
1.19838e-05
-8.85771e-07
3.86641e-05
-2.50831e-06
-4.15952e-05
3.77158e-05
6.38748e-06
5.33852e-08
-3.73154e-06
3.67864e-06
2.07198e-05
-3.23814e-05
6.56516e-07
1.10049e-05
3.47903e-05
3.98159e-06
-3.75018e-05
-1.27026e-06
1.05592e-05
1.20671e-06
-2.51499e-05
1.33841e-05
-9.41937e-06
1.29919e-05
1.48312e-05
-2.58368e-05
-2.15827e-05
1.29508e-05
3.44688e-05
5.42721e-06
2.894e-06
-3.9063e-06
6.78658e-06
-5.01266e-06
-2.57495e-05
2.3976e-05
4.28485e-06
1.3629e-05
-6.10231e-06
-1.18119e-05
-8.12281e-06
1.77538e-05
3.59775e-05
-4.56083e-05
1.69541e-07
2.29178e-06
-2.46124e-06
-2.20488e-05
3.49293e-06
1.36786e-05
4.87748e-06
3.5553e-05
-1.93035e-05
-2.41617e-05
7.912e-06
3.2798e-05
-7.89768e-06
-3.73465e-06
-2.11658e-05
-2.86519e-05
-1.17039e-06
-7.48039e-07
3.05703e-05
2.55901e-05
1.14378e-05
-3.49969e-05
-2.03098e-06
6.92835e-06
4.83016e-06
-1.17585e-05
1.79627e-06
-2.47664e-05
-1.38085e-07
2.31081e-05
3.88953e-05
-2.99419e-05
-2.90552e-06
-6.04769e-06
4.20534e-06
-6.00775e-07
-3.36298e-06
-2.4209e-07
-3.30824e-05
4.7093e-05
2.01527e-05
-3.41631e-05
1.80571e-05
-2.9661e-05
-2.92625e-06
1.45304e-05
-2.33421e-05
2.54484e-05
-8.77938e-07
-1.22826e-06
-2.86444e-06
1.41451e-06
1.44972e-06
3.40647e-05
-3.78628e-06
9.76315e-06
-4.0041e-05
-2.5689e-05
3.50539e-05
-3.27066e-05
6.13508e-08
2.28157e-06
1.84662e-05
-2.0809e-05
2.52808e-06
-2.44646e-06
-8.18181e-08
-1.08406e-05
-6.0859e-06
1.0178e-06
1.59088e-05
-8.29728e-06
2.06798e-05
-1.57628e-05
3.38019e-06
1.5067e-06
-4.57538e-06
2.8661e-06
2.0261e-07
-1.80073e-06
-1.68055e-06
3.48117e-06
-2.1815e-05
2.1889e-05
2.19368e-05
-2.20111e-05
5.44041e-05
-1.34825e-05
-1.2006e-05
-2.89158e-05
1.26581e-05
4.67296e-07
-3.9814e-07
-1.27272e-05
3.77438e-05
-4.5897e-05
6.40686e-06
1.74639e-06
2.99198e-06
-4.77185e-08
-2.94412e-06
-6.02058e-06
2.89428e-05
-2.77596e-05
4.83751e-06
-1.3711e-05
1.43234e-05
-1.55922e-06
9.46693e-07
-1.01145e-05
8.83344e-06
5.96779e-07
6.84296e-07
2.38623e-06
-1.91136e-05
7.02091e-06
9.70667e-06
-1.13564e-05
-1.07006e-05
2.60889e-05
-4.03159e-06
-1.4269e-05
1.39927e-05
2.44733e-07
3.17274e-08
-3.01756e-05
-3.60755e-05
3.58086e-05
-1.16647e-05
3.76777e-05
1.20596e-05
-3.80727e-05
6.01288e-06
3.03366e-05
7.08791e-06
-4.34375e-05
-1.30763e-05
5.90184e-06
1.75306e-05
-1.03557e-05
-2.18e-08
7.18674e-08
1.02073e-05
-1.02571e-05
1.22822e-06
3.85634e-05
-5.68723e-06
-3.41038e-05
-3.77005e-06
-2.41662e-06
4.03658e-06
2.15022e-06
4.05882e-06
-3.83513e-06
-2.23552e-07
-3.38905e-06
-1.18751e-05
9.95367e-07
-3.1636e-05
4.27227e-07
-6.28814e-06
3.74971e-05
-1.4547e-05
1.30799e-05
4.05036e-07
1.06141e-06
-4.20292e-07
7.98944e-06
-1.34657e-07
-7.43432e-06
-2.75615e-06
2.6869e-06
6.92012e-08
3.09292e-06
-8.413e-07
2.08882e-05
-2.31395e-05
2.78107e-05
3.13488e-06
-2.4312e-05
-6.63371e-06
-3.38039e-06
-1.58324e-05
-1.0044e-05
1.32555e-05
-1.46081e-05
1.01233e-06
3.39728e-07
8.02828e-06
-3.25279e-05
3.8176e-05
-1.36763e-05
1.0652e-05
2.1673e-06
-5.54928e-06
-7.26979e-06
-1.66684e-05
-3.85346e-05
1.008e-05
4.51238e-05
5.69873e-08
2.52969e-06
-2.00332e-07
-2.38648e-06
9.44165e-06
-6.30037e-07
1.46335e-06
-1.02752e-05
-9.56337e-06
2.12108e-07
9.44263e-06
-9.09372e-08
2.20323e-05
3.63087e-06
-2.76516e-05
1.9884e-06
-3.17663e-05
-1.77907e-05
4.05458e-05
9.0117e-06
-6.88633e-06
2.94597e-06
-6.30457e-06
7.51094e-06
3.17139e-05
-4.06928e-05
1.46718e-06
-2.19232e-05
-2.21201e-05
8.80086e-06
3.52428e-05
-2.62704e-06
2.87063e-06
-2.43628e-07
1.7463e-05
9.98361e-06
-1.94126e-06
-2.55048e-05
-7.18852e-07
-4.41408e-06
-2.93847e-05
3.45173e-05
-2.35308e-05
5.77813e-06
5.75644e-05
-3.98118e-05
2.82683e-05
-2.07764e-05
-1.13665e-05
3.87439e-06
2.53253e-06
-1.02928e-07
-2.42957e-06
4.16937e-05
-2.09661e-05
2.95529e-06
-2.36827e-05
9.0917e-06
-9.80791e-06
1.26833e-06
-5.51898e-07
2.42315e-06
2.30895e-06
-4.73208e-06
-1.65879e-05
-2.10197e-05
4.34953e-06
3.32578e-05
-1.09369e-05
2.06658e-07
1.13377e-05
-6.07587e-07
2.06109e-05
-4.2186e-05
5.49746e-07
2.10251e-05
-2.25748e-05
-2.71955e-05
3.64005e-05
1.33688e-05
-1.31405e-05
1.80877e-05
2.78507e-05
5.40496e-06
2.91642e-05
-3.04315e-05
-4.13763e-06
1.804e-06
1.36996e-06
-1.21425e-05
8.96811e-06
-3.39178e-05
1.47974e-05
1.21728e-05
6.9478e-06
1.28489e-05
3.38324e-06
-1.46392e-06
-1.4768e-05
-3.30575e-06
-2.53748e-05
2.67303e-06
2.6008e-05
6.93288e-06
-2.70137e-06
2.83445e-05
-3.25759e-05
-1.89197e-06
-8.05268e-08
-4.78992e-06
6.76205e-06
6.79575e-07
1.12679e-05
-4.21367e-05
3.01888e-05
-1.51901e-05
-3.08682e-05
-1.10408e-06
4.71612e-05
3.46359e-07
4.87553e-06
-5.22185e-06
7.69889e-08
-1.84182e-07
1.06721e-05
-1.05642e-05
2.77374e-06
1.78656e-05
1.51229e-05
-3.5762e-05
2.53131e-07
-1.40494e-05
1.57328e-07
1.36387e-05
4.49322e-06
-2.16835e-05
-1.67024e-05
3.38938e-05
1.6103e-05
2.02694e-05
-1.77154e-05
-1.86567e-05
3.6331e-05
2.18466e-05
-4.89235e-05
-9.25429e-06
1.31729e-07
-4.20069e-06
4.06917e-06
2.61442e-06
1.27699e-06
-3.45992e-09
-3.88793e-06
1.86051e-06
2.44323e-06
2.98998e-07
-4.60278e-06
2.38609e-06
-2.87986e-06
1.44866e-05
1.94816e-07
-2.76953e-05
1.03668e-05
1.71337e-05
5.97656e-05
6.00576e-06
-1.25287e-05
-5.32426e-05
-7.743e-06
1.05413e-05
-2.65144e-06
-1.46987e-07
-1.85155e-05
1.7458e-05
-2.97032e-05
3.07613e-05
2.98318e-06
5.79703e-08
-3.04131e-06
1.14945e-06
8.22497e-06
-1.57307e-05
6.35618e-06
2.96134e-06
-4.46585e-06
1.50438e-06
3.04292e-05
-1.6286e-05
-8.09607e-06
-1.57487e-05
5.69045e-06
-1.46559e-05
2.47142e-05
3.34286e-05
-3.2599e-05
5.24245e-06
-6.07207e-06
1.38752e-05
4.6152e-06
-1.66319e-05
-1.85846e-06
3.47926e-06
-4.06681e-05
1.4142e-05
2.30472e-05
2.6372e-05
-5.3828e-06
4.45927e-06
5.20635e-05
-5.74057e-05
1.83925e-06
-3.24471e-05
2.50515e-06
3.34938e-05
-3.55105e-06
-3.29541e-05
-2.13158e-05
3.57552e-05
-1.1899e-05
-1.19623e-05
-1.67611e-05
4.06228e-05
-1.43572e-06
4.5717e-06
4.00693e-05
-4.32056e-05
1.39968e-06
2.98248e-05
-5.11044e-05
1.98801e-05
-8.32193e-08
3.27269e-08
1.74159e-05
-1.73656e-05
-4.2795e-05
7.24064e-06
3.08488e-06
3.24697e-05
1.1627e-05
-1.17161e-05
3.96293e-06
-3.87369e-06
6.99201e-07
1.06979e-05
-1.36298e-05
2.2325e-06
-2.27946e-05
3.47794e-05
-4.61257e-06
-7.37305e-06
-3.69391e-05
2.7314e-05
1.69564e-06
7.92888e-06
-2.68331e-05
2.72435e-05
3.55123e-05
-3.59231e-05
3.62808e-05
-2.96705e-05
1.12858e-06
-7.73744e-06
-1.28064e-05
1.64701e-05
-9.83952e-06
6.17579e-06
-7.23558e-06
1.66399e-05
1.3857e-06
-1.07899e-05
-3.82397e-05
3.19015e-06
4.17181e-05
-6.66748e-06
-4.29716e-06
-2.40793e-05
4.01629e-07
2.79747e-05
2.28025e-06
-7.86823e-06
6.28754e-06
9.12703e-06
7.42349e-07
-8.74737e-06
-1.12211e-06
9.77081e-06
1.83309e-05
-2.13193e-05
-6.78231e-06
-1.07957e-05
1.5316e-05
2.62609e-05
-3.07817e-05
8.44844e-07
4.17052e-06
-3.52589e-05
3.02431e-05
1.6379e-05
-2.49053e-05
8.3715e-06
1.55132e-07
-4.1763e-05
-6.67046e-06
1.14955e-05
-3.18681e-06
-8.41081e-07
-2.35323e-05
2.75598e-05
-3.07989e-06
4.44805e-08
3.03552e-06
-5.44004e-06
-6.76119e-06
4.44075e-05
-3.22065e-05
4.98827e-06
-4.75235e-06
-2.35968e-07
2.53536e-07
1.90834e-07
-9.19637e-06
8.75194e-06
-2.13123e-05
2.10871e-05
3.65564e-05
5.78862e-06
3.25709e-05
-2.33377e-05
-1.50214e-05
4.29557e-06
-4.37144e-06
7.5813e-08
-4.36375e-06
4.80648e-05
-2.63433e-05
-1.73582e-05
-2.58207e-05
2.73272e-05
1.91041e-05
-1.95217e-06
2.61586e-05
1.07033e-05
-3.49101e-05
-3.71479e-05
-1.37067e-05
4.95978e-05
1.25677e-06
-4.4889e-06
4.0685e-06
4.20237e-07
3.64353e-05
-3.8795e-05
-5.14699e-07
2.87407e-06
-2.41862e-05
-1.54111e-05
2.20654e-05
1.75319e-05
-4.22276e-06
1.9739e-06
-2.41999e-05
2.64483e-05
-2.83163e-05
-7.33424e-06
6.00418e-07
3.50496e-05
-1.80499e-05
-8.98698e-06
-6.67329e-06
1.52935e-05
-3.50202e-05
-2.99527e-06
2.27221e-05
8.57292e-06
-3.5809e-05
-1.08399e-05
3.80764e-05
7.10814e-06
-6.76267e-06
-3.45459e-07
-3.03886e-05
5.0967e-05
-7.16479e-06
-1.34132e-05
-6.41362e-06
-2.66459e-05
2.99905e-05
3.06947e-06
-5.12443e-05
5.26387e-05
-5.95347e-06
4.55936e-06
-2.91843e-05
-7.08273e-06
2.10927e-05
1.51735e-05
-2.60174e-05
-5.62416e-06
3.18104e-05
-1.67989e-07
-3.27644e-07
9.73755e-08
-1.20294e-05
1.22598e-05
3.27034e-06
1.65065e-07
-3.43541e-06
-5.94843e-06
6.00873e-06
-6.05561e-08
4.34328e-05
-3.77246e-05
-5.10935e-05
4.53857e-05
2.75682e-06
1.13631e-07
-2.87028e-06
-2.79463e-05
2.75011e-05
-3.34913e-07
7.8029e-07
-1.01207e-05
8.56566e-06
2.16198e-07
1.33864e-06
5.40462e-06
5.30673e-05
-2.87291e-05
-2.97426e-05
-3.0676e-05
-9.38862e-06
3.67053e-06
3.63929e-05
3.36638e-05
1.55817e-05
-1.53845e-05
-3.38622e-05
1.24027e-05
-4.62299e-06
1.49691e-06
-9.27704e-06
3.55513e-05
-3.53775e-06
-2.56589e-05
-6.35501e-06
-3.7673e-06
5.59804e-06
-6.24992e-06
4.41933e-06
-2.52983e-06
8.41694e-06
3.08632e-06
-8.97337e-06
-1.49952e-05
-7.89323e-06
4.23941e-05
-1.95051e-05
6.04927e-06
2.38457e-05
-2.32635e-05
-6.63155e-06
-2.25509e-05
2.32361e-05
1.49945e-05
-1.56797e-05
2.25459e-05
-2.04125e-05
-2.69654e-06
5.63233e-07
-4.89743e-08
-1.05597e-05
-4.86992e-08
1.06576e-05
-6.77219e-06
1.28037e-05
-1.43319e-06
-4.59871e-06
-3.19466e-05
-1.09526e-05
1.5684e-05
2.72149e-05
2.59534e-05
-2.17867e-05
-4.45853e-06
2.92208e-07
1.0418e-05
-3.51248e-05
-4.08583e-05
6.55657e-05
2.28829e-05
-2.99643e-05
-1.43975e-05
2.14794e-05
-6.34628e-06
-5.61376e-05
1.48003e-05
4.76831e-05
1.76746e-05
-1.56965e-05
2.48071e-06
-4.45882e-06
3.00063e-05
-1.05858e-05
-3.62568e-05
1.68359e-05
1.35599e-05
2.36403e-05
-5.38831e-05
1.66827e-05
-7.88438e-06
3.22697e-05
-2.85321e-05
4.14679e-06
-2.99954e-05
3.47868e-05
3.51223e-05
-3.99136e-05
-2.71262e-08
-1.35928e-05
1.18045e-05
1.815e-06
3.92949e-06
-3.69533e-06
-2.34021e-07
3.85112e-05
-4.77858e-05
1.39024e-06
-3.89188e-06
5.18239e-06
2.76119e-06
-4.05199e-06
-2.79422e-06
1.38818e-07
-1.37696e-06
4.03293e-06
1.951e-05
-2.54017e-06
1.7748e-05
-2.71475e-05
1.02954e-06
8.36972e-06
-9.16442e-06
-2.29759e-06
8.62037e-06
2.71841e-05
-3.54092e-05
2.0038e-05
-1.18124e-05
-2.89772e-05
-4.15134e-06
3.49789e-05
-1.85052e-06
-6.23498e-05
-9.64793e-06
5.54708e-05
1.65265e-05
-4.42737e-05
1.22425e-05
1.03637e-06
3.09959e-05
-3.91718e-06
3.0573e-07
8.20461e-07
2.79084e-06
-2.70751e-05
-3.27309e-05
2.4589e-05
3.52171e-05
2.11287e-05
1.83548e-05
-3.18695e-05
-7.61361e-06
1.07071e-07
1.36356e-05
-1.15526e-05
-2.19e-06
-5.23041e-07
-2.10789e-05
4.18362e-05
-2.02358e-05
4.29525e-05
-3.05882e-05
-1.64484e-05
2.78586e-05
-3.12944e-05
6.19827e-06
-2.76281e-06
-3.97094e-06
-2.5463e-05
2.77069e-05
1.72746e-06
4.13016e-05
-2.88015e-06
-4.23917e-05
2.31408e-05
-2.60716e-05
6.54127e-06
-3.61043e-06
1.72336e-06
-1.14294e-05
-9.28978e-07
1.06349e-05
-2.41279e-06
2.32356e-06
-2.76754e-06
2.85676e-06
-1.72404e-06
4.24738e-06
1.39746e-06
-3.92107e-06
-6.89981e-06
-1.83947e-05
-1.4689e-06
2.67637e-05
1.09295e-05
8.75936e-06
-2.97811e-05
1.00923e-05
-1.87058e-05
5.98693e-07
6.69717e-06
1.141e-05
-1.58988e-06
-1.72366e-05
1.6736e-05
-2.21968e-05
2.63475e-05
8.37858e-06
-1.25296e-05
-3.29838e-05
3.84327e-05
-1.23224e-05
6.8736e-06
-6.16536e-06
-1.98522e-05
2.0511e-06
2.39665e-05
1.52308e-06
3.48334e-05
-4.09571e-05
4.60017e-06
1.72543e-05
-5.40725e-05
1.14017e-05
2.54171e-05
4.94415e-06
-3.84802e-05
2.09818e-05
1.25539e-05
1.60637e-06
2.1259e-05
-7.33241e-06
-1.55331e-05
-3.7339e-06
1.81468e-06
3.65341e-06
-1.73426e-06
-3.96735e-06
7.89596e-06
-2.92769e-05
2.53483e-05
-1.50312e-06
-1.04335e-05
2.69872e-07
1.16666e-05
1.62822e-07
1.07109e-05
-1.61801e-07
-1.07123e-05
1.72844e-07
2.38187e-07
1.09638e-05
-1.13746e-05
-9.64638e-06
-1.63018e-05
2.90607e-05
-3.11221e-06
3.14404e-06
-3.1515e-05
1.70129e-05
1.13581e-05
3.38521e-05
8.33972e-07
2.71918e-06
-3.74045e-05
2.50548e-06
-2.56607e-06
6.08272e-08
1.04935e-05
2.10562e-05
-2.66062e-05
-1.05586e-05
3.88427e-08
1.30239e-07
1.03894e-05
2.28773e-06
-2.89148e-05
1.04795e-05
1.61479e-05
8.21217e-07
6.90162e-06
-6.98408e-06
-7.38945e-07
-5.43386e-06
-1.14673e-05
2.19853e-05
-5.08464e-06
2.69379e-05
-3.00049e-05
2.58769e-05
-2.28105e-05
1.90966e-05
-8.79072e-06
-3.26612e-05
2.23553e-05
-1.8097e-06
-1.72231e-06
3.53182e-06
1.11359e-05
2.32115e-06
-3.21571e-06
-1.0241e-05
-2.42922e-05
3.63915e-05
2.68285e-06
2.26965e-06
-4.95239e-06
2.41277e-06
-3.11094e-05
-3.70493e-07
2.90671e-05
-1.40909e-07
5.35777e-07
2.0661e-05
-1.43226e-06
2.18666e-05
-4.39291e-05
2.34941e-05
-6.94278e-06
-1.97664e-05
-2.76883e-06
2.94775e-05
5.4871e-06
-8.86203e-06
9.21333e-06
-5.83831e-06
-7.33823e-06
-3.62737e-05
-4.52862e-06
4.81412e-05
1.97353e-05
3.74293e-06
-2.27418e-05
-7.36368e-07
7.29737e-06
3.42149e-05
-5.66045e-05
1.50919e-05
-2.44208e-06
-1.42247e-05
-8.31566e-06
2.49824e-05
-1.80097e-05
-5.77633e-06
9.57247e-06
1.42133e-05
-1.0324e-06
-1.16886e-06
-1.22431e-05
1.4444e-05
4.30597e-05
-1.7777e-05
-1.02787e-05
-1.50036e-05
-2.6618e-05
6.41262e-05
-3.47998e-05
-2.70646e-06
1.05588e-05
2.87511e-07
2.83053e-07
-1.11303e-05
2.91172e-05
-3.50132e-05
3.46489e-05
-2.8753e-05
-5.0691e-06
1.59233e-05
-1.28541e-05
1.99949e-06
1.62512e-05
-5.86249e-05
2.1482e-06
4.02253e-05
1.06451e-05
5.2032e-05
-4.43408e-05
-1.83372e-05
5.94861e-06
-5.80684e-06
-9.66578e-06
9.52478e-06
-2.20087e-05
-1.3736e-05
3.94318e-05
-3.68705e-06
3.54315e-05
-2.91659e-05
-4.16644e-05
3.53981e-05
1.82996e-05
1.48074e-05
-9.47807e-06
-2.36286e-05
1.24156e-07
-1.57421e-05
7.75127e-08
3.64988e-06
-3.72721e-06
-3.19966e-06
3.08858e-06
1.11041e-07
2.5876e-05
-2.43254e-05
-2.20756e-05
2.05256e-05
-7.84445e-06
1.01217e-05
-2.84882e-05
2.62102e-05
4.29908e-05
-3.35634e-05
-6.96565e-06
-2.46036e-06
-4.43934e-06
1.10237e-06
2.86654e-06
-9.12558e-06
3.22224e-05
-8.62441e-06
-1.44724e-05
-4.04428e-05
1.03572e-06
1.40475e-05
2.53603e-05
1.62856e-05
-7.30644e-06
-1.57561e-05
6.7765e-06
9.43565e-06
3.97608e-05
-3.77176e-05
-1.14792e-05
-2.41629e-05
-4.73353e-06
4.60117e-05
-1.7116e-05
2.28805e-06
2.55915e-05
5.80616e-06
-3.36854e-05
8.67165e-06
2.77794e-05
-3.41632e-05
1.79864e-05
-1.3239e-05
-7.00003e-06
2.25273e-06
2.4969e-05
-3.1776e-05
1.4104e-05
-1.24274e-05
7.86637e-06
7.42715e-06
-2.86604e-06
1.03242e-05
1.18494e-05
2.3587e-05
-4.57619e-05
4.19019e-06
-2.62668e-05
-4.04511e-06
2.61221e-05
3.17825e-07
2.82561e-05
2.50221e-06
-3.10765e-05
1.40337e-05
2.59441e-05
-4.35157e-05
3.53837e-06
-5.65944e-05
4.71785e-05
-7.38249e-07
2.75762e-07
3.91734e-05
-2.99088e-06
-3.64592e-05
-3.08179e-06
6.97505e-06
-9.53584e-06
5.64294e-06
-7.68038e-07
-3.31201e-06
2.20471e-07
3.85943e-06
-3.16844e-06
3.05039e-06
1.17946e-07
-4.86186e-06
-8.35039e-06
3.81278e-05
-2.49156e-05
-3.38075e-05
5.09547e-06
-1.49073e-05
4.36196e-05
4.39605e-05
-1.04673e-05
-1.44552e-05
-1.9039e-05
3.31327e-06
-3.12407e-05
1.13723e-05
1.65554e-05
3.21197e-06
-2.90025e-06
-1.13177e-06
8.19891e-07
-3.71289e-06
3.58015e-06
1.32658e-07
1.82385e-06
2.61246e-05
-4.61995e-06
-2.33279e-05
-5.70645e-06
2.72455e-05
-3.52493e-05
1.37101e-05
1.2978e-05
2.14535e-05
-5.01644e-05
1.57332e-05
-1.96704e-06
2.59388e-05
1.93192e-05
-4.32911e-05
-4.07581e-05
2.20931e-05
2.35316e-05
-4.86666e-06
4.34282e-05
-4.46235e-05
9.0485e-06
-7.85269e-06
-3.11529e-05
-4.90318e-07
-9.1143e-06
2.23722e-07
4.95398e-06
-5.1776e-06
2.91551e-05
3.87265e-06
-2.41412e-05
-8.88669e-06
-1.78079e-06
-2.51389e-06
1.20087e-05
-7.71416e-06
3.03723e-06
5.3274e-07
9.97183e-06
-1.35418e-05
-3.46597e-05
1.56363e-05
1.66803e-05
2.3429e-06
1.29375e-05
-2.05626e-05
-2.95877e-06
1.0584e-05
-2.50196e-05
5.61037e-06
4.10194e-05
-2.16109e-05
-2.8911e-06
-1.81614e-07
3.07287e-06
-1.60385e-05
4.04962e-05
2.94076e-05
-5.38644e-05
3.68972e-05
9.6612e-07
-5.82606e-05
2.03971e-05
-2.38642e-06
3.74417e-05
-3.22689e-06
-3.18281e-05
1.77055e-05
-1.37246e-05
1.06755e-05
-1.46567e-05
-1.3107e-06
-2.49082e-05
2.78551e-05
-1.63474e-06
-2.35972e-05
-3.43688e-06
-1.55466e-05
4.25803e-05
-7.73751e-06
-8.29883e-06
-1.4346e-05
3.03828e-05
-1.32355e-06
3.95476e-05
-4.59851e-06
-3.36249e-05
2.28103e-05
-2.27923e-05
8.32103e-07
-8.50077e-07
3.93908e-05
1.09492e-07
-2.71449e-05
-1.23552e-05
-8.5507e-06
-4.53283e-06
-2.45287e-05
3.76123e-05
-2.79553e-07
-2.93814e-06
3.21778e-06
-3.49946e-05
5.17094e-05
-3.72243e-06
-1.29917e-05
2.75669e-06
1.85121e-05
5.94911e-06
-2.7218e-05
-4.12965e-06
9.56193e-06
3.32129e-06
-8.75382e-06
-1.51958e-05
-3.75823e-06
1.57257e-05
3.22865e-06
2.23587e-05
1.50674e-05
-5.53662e-05
1.79404e-05
1.21016e-05
-9.48129e-06
2.98821e-05
-3.25022e-05
-2.30559e-06
1.8815e-05
1.51725e-06
-1.80265e-05
2.8258e-06
-2.78433e-06
-4.16037e-08
2.87723e-06
3.40403e-05
1.51566e-06
-3.8433e-05
2.78753e-05
-4.34318e-06
-2.69503e-05
3.41904e-06
-5.62138e-06
6.72034e-06
-3.17943e-05
3.06949e-05
-2.79443e-05
-4.36457e-06
2.15689e-05
1.07397e-05
1.00917e-05
-9.56152e-06
-7.84104e-08
-4.51674e-07
-4.23964e-05
2.78304e-05
-1.64016e-06
1.6206e-05
-4.78815e-06
4.02618e-06
7.61992e-07
1.41064e-05
-1.20269e-05
1.89185e-05
-2.09981e-05
1.95606e-05
1.64084e-05
-8.55278e-06
1.51589e-05
-4.06378e-05
-1.88913e-05
4.43707e-05
1.49422e-07
-1.4646e-05
1.46893e-05
-1.92811e-07
8.53371e-06
-1.37162e-05
-1.58331e-05
2.10156e-05
1.34912e-05
5.90804e-06
-2.34332e-06
-1.70559e-05
-3.9965e-06
9.3231e-07
5.07453e-06
-2.01056e-06
-5.1595e-06
6.3569e-05
-2.17451e-05
-3.66645e-05
1.66559e-05
1.89598e-05
-1.09103e-06
-3.4525e-05
1.31951e-07
2.81159e-06
-2.94319e-06
-7.46143e-07
5.36208e-06
3.37959e-05
-3.84132e-05
4.64644e-05
5.97662e-06
-2.27742e-05
-2.9666e-05
-1.03585e-06
5.27739e-06
-4.15483e-06
-8.65688e-08
1.28352e-05
-1.14874e-06
-1.40159e-05
2.32991e-06
-3.89832e-06
-1.23227e-05
6.36548e-06
9.85557e-06
-6.43339e-06
2.87129e-05
4.41559e-06
-2.66951e-05
3.34043e-05
-4.35876e-06
-3.64304e-05
7.38475e-06
-2.97049e-06
5.7519e-06
-2.78141e-06
2.3699e-06
-1.0431e-05
9.31911e-06
-1.25791e-06
6.45768e-07
1.00891e-05
-1.06292e-05
-1.05512e-07
1.04152e-05
1.22908e-05
-1.45524e-06
-2.12505e-05
2.33385e-05
3.22011e-05
-2.21359e-05
-1.28296e-07
3.76835e-06
-3.64016e-06
-4.11527e-05
2.00452e-05
3.88073e-05
-1.76988e-05
3.99058e-05
6.96018e-06
-4.21343e-05
-4.73192e-06
3.0594e-05
-2.05337e-05
-3.36578e-05
8.34104e-06
1.43275e-05
-3.62201e-05
-1.8689e-06
-7.91473e-06
4.60041e-05
-8.59789e-08
3.65243e-06
-3.56634e-06
3.96335e-05
-1.41855e-06
-4.54712e-06
-3.36682e-05
3.84881e-06
-3.84191e-06
-6.75992e-09
-1.22106e-05
2.99527e-06
-7.35315e-06
1.65685e-05
-2.16246e-05
-1.86212e-05
1.64968e-05
2.37488e-05
1.95833e-05
-1.49029e-05
-4.18663e-06
-4.94089e-07
-4.29029e-08
2.91725e-06
-2.87447e-06
-6.69254e-07
-3.82974e-06
2.00639e-08
4.47892e-06
7.19403e-06
2.90262e-06
-5.13226e-06
-4.96451e-06
-1.12972e-05
1.22618e-05
-1.63395e-06
-4.54327e-07
4.24712e-05
-1.16242e-06
-4.08543e-05
-7.01289e-06
-6.93148e-07
9.21665e-06
-1.51028e-06
3.40571e-06
-1.33848e-05
1.04869e-05
-5.07905e-07
1.07915e-05
-2.01812e-05
1.44475e-05
-5.05778e-06
9.25668e-06
2.17588e-05
3.55452e-06
-3.45707e-05
5.29467e-06
-5.43546e-06
1.40853e-07
1.54516e-05
-1.25678e-05
-3.14029e-05
2.85183e-05
1.11282e-06
1.18439e-06
1.59476e-05
-1.82448e-05
4.60958e-06
1.96576e-05
-2.54582e-05
1.18969e-06
1.13367e-05
-5.36995e-07
-1.74001e-06
-9.05985e-06
1.13151e-05
2.37749e-05
-3.48505e-05
-2.38728e-07
1.35877e-05
-1.01386e-07
-1.16137e-06
-1.23252e-05
-2.53894e-05
9.24571e-06
1.27002e-06
1.48737e-05
-1.30806e-05
-1.25217e-05
-1.72103e-06
9.41096e-06
-1.662e-05
1.25588e-05
-5.35009e-06
-4.55661e-06
-1.92995e-05
-2.88817e-05
5.27373e-05
-6.09612e-06
7.53402e-06
-1.74011e-06
3.02256e-07
3.81156e-08
2.43005e-06
-2.46819e-06
-7.94538e-06
4.08133e-05
1.2049e-05
-4.49163e-05
3.34234e-05
1.42017e-05
-1.23717e-05
-3.52529e-05
2.75185e-05
-2.28332e-05
2.60616e-05
-3.0746e-05
3.44979e-05
-3.78984e-05
4.15314e-06
-7.532e-07
-6.18788e-05
2.70434e-05
1.19637e-05
2.28724e-05
-1.12237e-05
-1.41499e-06
1.24027e-05
2.36062e-07
3.60364e-05
-4.80089e-05
1.68704e-05
-4.89813e-06
1.02675e-05
-1.12795e-05
3.57425e-06
-2.56282e-06
-1.83098e-05
1.66408e-05
-1.14114e-05
-1.3906e-05
4.7681e-05
5.18747e-06
-3.89632e-05
-5.17889e-06
1.38876e-07
5.03995e-06
-4.80683e-06
1.0945e-05
-4.02645e-05
-1.92145e-05
-3.1768e-07
1.86764e-07
1.93456e-05
4.37337e-06
1.30278e-07
-4.50367e-06
8.61412e-06
-5.77118e-07
-3.01995e-05
2.21627e-05
-5.92598e-08
-1.9579e-07
1.02083e-05
-9.95349e-06
8.17634e-06
1.82629e-05
-3.02326e-05
3.79272e-06
2.98085e-05
1.94393e-06
2.03017e-06
-3.37818e-05
-2.54345e-06
6.62789e-06
3.87173e-05
-4.28011e-05
-8.50578e-06
-1.03433e-06
-3.63441e-07
9.90342e-06
-1.00393e-05
8.54257e-06
-3.47197e-05
3.62156e-05
-1.2942e-06
2.41986e-05
-2.1179e-05
-1.72522e-06
4.21826e-05
1.29766e-05
-1.91626e-05
-3.59963e-05
9.07967e-06
-4.91084e-05
3.19059e-05
-4.22044e-05
5.39022e-05
-2.26226e-06
2.33724e-05
-9.37322e-06
1.9424e-05
-1.30076e-05
-3.17394e-06
6.26707e-06
9.9143e-06
-6.85803e-06
7.0274e-07
6.24505e-06
-9.00965e-08
-1.31247e-05
3.35407e-05
-2.37079e-05
3.29222e-06
-3.4112e-05
3.07863e-05
3.28001e-05
-2.9474e-05
-3.1087e-06
2.8699e-06
1.82615e-07
5.64494e-08
3.53247e-05
-5.11623e-05
-1.91368e-05
3.49753e-05
-4.86933e-05
-1.97009e-05
3.24872e-05
3.59056e-05
4.45987e-05
4.53539e-06
1.9343e-06
-5.10677e-05
3.81719e-05
-2.59047e-05
3.23316e-05
-3.73888e-05
-3.66438e-06
1.43779e-05
2.66746e-05
3.07572e-06
2.61144e-07
-3.33688e-06
4.14309e-05
-3.81777e-05
-1.30122e-05
9.75935e-06
-1.99747e-05
-7.03659e-06
5.79835e-06
2.12134e-05
1.56808e-05
2.7865e-05
-1.61726e-05
-2.73728e-05
6.75203e-06
2.12457e-05
-2.06681e-05
-7.32963e-06
4.34494e-07
-6.07843e-06
5.64389e-06
-1.97262e-05
-1.7837e-05
1.72211e-05
2.03423e-05
1.48588e-06
1.97183e-05
-4.51259e-06
-1.66917e-05
-3.40551e-05
3.40356e-05
-6.3937e-06
-3.04496e-06
4.34012e-05
-4.23193e-05
1.96362e-06
2.05362e-05
4.21477e-06
1.11107e-05
-3.58614e-05
-4.77767e-08
-2.12143e-06
2.16931e-06
-3.08247e-06
3.07393e-06
8.69007e-09
-2.83438e-05
-1.31493e-05
1.59439e-05
2.55481e-05
-3.4938e-05
-5.84668e-07
4.22524e-05
-6.7308e-06
-1.1021e-05
4.0668e-05
-4.18539e-05
1.22068e-05
-2.67018e-05
2.19717e-05
-9.98871e-06
1.47188e-05
3.41175e-07
2.02577e-05
-2.26495e-05
2.05062e-06
-3.63524e-05
7.97582e-06
2.39153e-05
4.46068e-06
2.58666e-06
5.11098e-05
-1.91191e-05
-3.4577e-05
2.10478e-06
-3.91452e-06
-2.57654e-05
-1.35434e-05
1.09648e-05
2.05063e-05
-1.28923e-06
3.36582e-06
-2.25829e-05
-1.8924e-06
-4.34919e-06
5.48973e-06
7.51807e-07
1.31363e-05
-3.98593e-06
-9.34758e-06
1.97259e-07
1.29822e-05
-4.40155e-05
4.21006e-05
-1.10683e-05
-1.66869e-05
2.93697e-05
4.45193e-06
-1.71343e-05
-3.53379e-06
4.32551e-06
2.77382e-05
-2.85298e-05
-3.69996e-05
2.79433e-06
3.52059e-07
3.38537e-05
-2.04264e-05
2.38407e-06
1.64979e-05
1.54479e-06
-2.8873e-05
1.80123e-05
4.12898e-05
-3.04294e-05
-1.38555e-05
-2.57393e-05
6.92981e-06
3.2665e-05
5.79741e-06
-4.43714e-05
-5.66301e-06
4.42379e-05
-3.39941e-05
4.42962e-06
-1.35663e-06
3.09214e-05
-3.67339e-05
-2.73119e-06
-2.28695e-06
4.17522e-05
7.52289e-06
-4.26427e-06
3.96411e-05
-4.2901e-05
6.6635e-06
-3.78642e-06
1.05022e-09
-2.87836e-06
5.06491e-06
-5.23854e-05
-8.32446e-06
5.56452e-05
-3.81648e-06
2.42069e-06
1.95969e-06
-5.64214e-07
-2.87894e-05
-7.55639e-06
1.58115e-05
2.05343e-05
-1.35496e-06
1.33221e-05
2.50051e-06
-1.44677e-05
-1.31011e-05
-1.41967e-05
9.30754e-06
-6.05915e-06
2.43582e-06
3.1299e-05