/*--------------------------------*- C++ -*----------------------------------*\
| =========                 |                                                 |
| \\      /  F ield         | OpenFOAM: The Open Source CFD Toolbox           |
|  \\    /   O peration     | Version:  2406                                  |
|   \\  /    A nd           | Website:  www.openfoam.com                      |
|    \\/     M anipulation  |                                                 |
\*---------------------------------------------------------------------------*/
FoamFile
{
    version     2.0;
    format      ascii;
    arch        "LSB;label=32;scalar=64";
    class       volVectorField;
    location    "64";
    object      U;
}
// * * * * * * * * * * * * * * * * * * * * * * * * * * * * * * * * * * * * * //

dimensions      [0 1 -1 0 0 0 0];

internalField   nonuniform List<vector> 
59516
(
(0.103224 -0.00116128 -0.000536736)
(0.0943441 -9.92256e-05 -0.000388072)
(0.110025 -0.000553239 -0.000483372)
(0.126995 0.00122846 0.00180155)
(0.113663 0.000210435 -0.00456195)
(0.101091 -0.00483041 -0.0107984)
(0.126851 -0.00218853 -0.00231506)
(0.0983717 0.000613622 -0.000115871)
(0.109345 0.000878854 -4.33828e-05)
(0.0509 -0.0010157 0.00197631)
(0.154059 -0.000350135 -0.00252254)
(0.0596933 0.000190954 -0.00375248)
(0.115908 0.00117223 5.69777e-05)
(0.0189504 -0.000122281 -0.000174017)
(0.0570439 0.00136155 0.00317174)
(0.0491727 0.0034093 -0.00151168)
(0.170067 -0.00283745 -0.00134234)
(0.0700186 0.00401478 -0.00438777)
(0.114332 0.0061248 0.000612643)
(0.166423 -0.00190188 -0.000510219)
(0.0537163 0.000932558 -0.00129249)
(0.148101 -0.000973876 0.000242513)
(0.154497 -0.0012162 -0.00281627)
(0.0314099 -0.000961017 -0.000270131)
(0.161518 -0.000667943 0.000300274)
(0.0620774 0.00144297 0.000610024)
(0.0391934 0.000782497 -0.00276153)
(0.0442215 0.00378786 0.000189523)
(0.0652439 0.00276059 -0.000624362)
(0.0161099 -0.00250929 0.000611545)
(0.108361 -0.0210397 -0.00463923)
(0.0455211 0.00367538 -0.000577992)
(0.131294 8.85862e-05 0.000799417)
(0.109671 -0.0009824 0.00196411)
(0.139502 0.00553004 0.00397034)
(0.146016 0.000299881 -0.000520202)
(0.0155643 -0.00151509 -0.00216401)
(0.0699195 0.00268395 -0.00676783)
(0.0949588 -0.00389824 -0.000399885)
(0.161006 0.00025942 -0.000788543)
(0.0979056 -0.000545424 0.000231079)
(0.144051 -0.00858619 -0.00800003)
(0.14844 -0.00421408 -0.00351876)
(0.103406 -0.000663186 0.000300762)
(0.14254 -0.0056028 -0.000514883)
(0.0521266 -0.000713783 -0.00120041)
(0.132238 -0.00307067 -0.00461058)
(0.16371 -0.00533292 -0.00109983)
(0.111885 -0.00899471 0.0123841)
(0.151225 0.00694185 0.00540107)
(0.104055 0.0104762 -0.0145203)
(0.0410655 -0.00360707 0.00246328)
(0.117001 0.00105336 -0.00228259)
(0.124358 -0.000567291 0.000137593)
(0.0471475 0.00303261 -2.60536e-05)
(0.129512 0.00312817 -0.000973388)
(0.14498 0.00833942 0.0085536)
(0.0433645 0.00380849 -0.0026629)
(0.178421 3.97889e-05 -0.000357064)
(0.135277 0.00649096 0.00813295)
(0.149516 -0.000575887 -2.78998e-05)
(0.017712 0.00224108 -0.000774122)
(0.171418 0.000336291 0.000856705)
(0.167387 0.00294731 0.00230534)
(0.118381 0.000298545 -0.000819644)
(0.14772 0.00397472 0.00568576)
(0.0238948 -0.00162323 0.00218806)
(0.0385436 0.000251712 -0.000232065)
(0.121534 -0.00505179 0.0222357)
(0.135481 0.00126551 -0.00364435)
(0.0341499 0.000931339 0.000281782)
(0.164516 0.00281433 -0.00040648)
(0.0213395 0.00133409 -0.00324431)
(0.14274 0.00180151 0.000774837)
(0.188508 -0.000391864 -0.000545448)
(0.158231 -0.00274746 -0.00342248)
(0.164444 -0.00287431 -0.00425137)
(0.148693 -0.000308482 0.000453887)
(0.0426831 -0.00140632 0.0013493)
(0.151898 0.00315517 0.00806231)
(0.0353183 0.00217864 0.00105019)
(0.147006 0.0042537 0.00639523)
(0.139801 0.00191986 0.00616401)
(0.0184794 -0.000694518 0.00258995)
(0.146814 0.00335982 0.00671234)
(0.178782 -0.00127837 0.000127365)
(0.0303238 -0.00111758 0.000487623)
(0.149639 -0.000615354 -0.000505349)
(0.0514896 0.000644178 0.00199337)
(0.107109 0.00848388 -0.00583108)
(0.13151 -0.000879754 -0.0115352)
(0.13933 0.00137774 -0.000378902)
(0.17732 0.000559568 -0.000438579)
(0.137064 0.000910987 -0.000334233)
(0.164996 -8.10364e-05 -1.04335e-05)
(0.109926 -0.0105277 0.00393325)
(0.13968 -0.000302209 0.000388397)
(0.0500886 -0.00188072 -0.00398653)
(0.0643173 0.00244437 -0.0010673)
(0.148379 -0.000752717 0.00182392)
(0.0352318 0.000529127 0.00133686)
(0.0225273 0.00117686 -0.00254435)
(0.021302 0.000757374 0.00291641)
(0.0510864 -0.000764889 -0.00282973)
(0.133722 0.000811738 -0.000194018)
(0.1484 -0.000525532 -0.000495997)
(0.0369338 0.00325774 -0.0013519)
(0.101645 0.000274774 -0.000803395)
(0.097571 -0.000674469 0.000251628)
(0.0623215 0.000384845 -0.00250043)
(0.124958 0.0129367 -0.0135751)
(0.0285433 0.00290078 -0.000481795)
(0.0630641 0.00082193 -0.00397893)
(0.118045 0.0174347 -0.00875046)
(0.161561 -0.000133609 0.000189359)
(0.0965535 0.00108738 0.00118558)
(0.0509961 0.000586613 -0.0018897)
(0.131941 -0.000103206 0.000687906)
(0.0203029 -0.000298736 0.0009804)
(0.147064 0.00110714 0.000337821)
(0.193726 -6.12492e-06 0.000116452)
(0.173105 -0.000273669 0.000657984)
(0.158967 -4.70022e-05 0.00082716)
(0.171628 -0.000273576 0.000359202)
(0.13241 -0.0178494 0.00273163)
(0.0897711 0.0013151 -0.00307905)
(0.0276419 -0.00053825 0.00180754)
(0.138369 -0.0138114 -0.00117058)
(0.0898413 -0.00275495 0.0131418)
(0.185816 0.000175184 -0.000235645)
(0.190249 0.000161195 -0.000151169)
(0.109781 0.00175356 0.00188963)
(0.0215578 0.00129215 -0.00147773)
(0.147547 -0.000491703 0.000324003)
(0.0987629 0.0010473 0.000288206)
(0.112668 -0.000586933 -0.00220267)
(0.107484 0.012829 -0.00897504)
(0.127595 -0.000382602 0.000307625)
(0.0367192 0.0025501 0.000126416)
(0.0964328 0.000633584 -0.0013144)
(0.0410268 -0.000808266 -0.00211398)
(0.191045 -0.000492535 0.000137535)
(0.0172729 0.000723525 0.00150517)
(0.123351 -0.000916362 -0.000674747)
(0.179996 0.000556993 0.00144909)
(0.141853 0.00237804 0.000622361)
(0.140269 -0.00563942 -0.00219904)
(0.116966 0.001966 -0.00321417)
(0.0621281 -0.00100508 0.0017312)
(0.10451 -0.00049291 -0.00102424)
(0.101272 -0.000547615 -0.000861208)
(0.0322 -0.00124165 8.04691e-06)
(0.169223 -0.00091904 0.000991152)
(0.154629 1.07455e-05 -7.46916e-05)
(0.0866267 -1.53468e-05 0.00221585)
(0.0171709 -0.000314012 0.00184189)
(0.110442 -0.000519037 -0.000262831)
(0.111669 0.00179452 -4.9842e-05)
(0.0803194 0.00139872 0.000317339)
(0.0176084 0.0020924 -0.00229317)
(0.0617664 0.00161128 -0.003062)
(0.0636732 -0.00342159 -0.00207105)
(0.0321896 -0.00130321 0.000314185)
(0.0230172 -0.00019765 -0.000444525)
(0.0962596 0.00181241 0.00239263)
(0.177865 -0.000302698 0.00100508)
(0.0580938 -0.000807103 0.000420871)
(0.183186 0.00130169 -0.000151473)
(0.0184393 -0.00116559 0.00208567)
(0.136518 -0.00054371 -0.00030116)
(0.0809776 0.00145763 0.00117112)
(0.0488376 0.000803197 -0.000745322)
(0.0600456 0.00160466 0.000721475)
(0.135657 -1.51863e-05 0.000537525)
(0.0465756 -0.000671873 0.000197105)
(0.134855 -0.00170189 -0.00561689)
(0.173413 -0.000320128 -0.000849118)
(0.14953 -0.00592821 -0.003759)
(0.0635433 -0.000752349 0.00294085)
(0.0375871 -0.000106624 -0.000515062)
(0.146012 0.00261474 0.000553191)
(0.0307429 -0.0027435 -0.00127382)
(0.0262091 -0.000308181 -0.00204924)
(0.0603794 -0.00145859 0.00017137)
(0.184852 0.000631066 0.000775978)
(0.0553631 0.000308994 0.000669048)
(0.032678 -0.000493842 -0.00256103)
(0.0209783 1.55611e-05 0.000285635)
(0.119598 0.000391186 -4.53295e-05)
(0.0966934 -0.00166917 -0.000109439)
(0.135321 -0.000441509 0.00262436)
(0.0481492 0.00296724 -8.15059e-05)
(0.165718 -0.0015385 8.76268e-05)
(0.0528518 0.00187129 7.89556e-05)
(0.154659 -0.000247942 -0.00092148)
(0.0273323 -0.000234014 0.000751153)
(0.0528738 0.000748505 -3.24475e-05)
(0.0372402 -0.00107501 0.000271829)
(0.106033 0.00295022 0.00348368)
(0.154919 0.000617745 -0.000638153)
(0.0772113 -0.00274093 0.000230355)
(0.19297 -0.000418295 0.000128996)
(0.0988625 -0.000805701 0.000782841)
(0.0177616 0.00191808 -0.00132634)
(0.12537 -0.000780904 -0.000559778)
(0.145082 0.000547402 0.000325801)
(0.186771 0.000429142 -0.000417535)
(0.155831 -0.00153672 -0.000913688)
(0.0210876 -0.000696825 0.000199697)
(0.110851 -0.00207523 -0.000144461)
(0.0468783 0.00331312 0.0029886)
(0.0235603 -0.00388612 -0.000644411)
(0.143027 9.87924e-05 -0.00153038)
(0.0516784 -0.00114588 0.000703877)
(0.112884 0.00155981 4.10112e-05)
(0.174239 0.00012361 -0.000419422)
(0.139787 0.00174278 0.000715582)
(0.157997 -0.00146475 0.000498466)
(0.0502271 0.00202369 -0.00270913)
(0.157579 -0.000101639 0.000796299)
(0.0511533 0.00193271 0.00186554)
(0.102324 0.000466245 0.000258891)
(0.167806 0.000822625 0.0010256)
(0.0358436 -0.000143605 0.000579206)
(0.17361 0.000146884 -0.000455365)
(0.175998 -0.000234879 -0.000412644)
(0.0260202 -0.000312081 0.00131662)
(0.0431964 0.00139078 -0.00204236)
(0.174634 0.000521842 0.000770366)
(0.0506082 0.000265807 -0.00389152)
(0.176 -0.000612205 -4.98817e-05)
(0.176777 0.000336691 -0.00043719)
(0.190658 0.00066914 0.000741394)
(0.0228166 -0.00176819 -0.00128774)
(0.0300295 0.000801323 -0.0014213)
(0.0313164 0.00087458 -0.00113646)
(0.0591327 0.000389593 -2.97973e-05)
(0.0927539 -0.00112422 0.000657541)
(0.158419 0.00110084 0.00137383)
(0.0532928 -0.00118726 0.00150213)
(0.192331 -0.000257306 0.000459002)
(0.0186408 0.000329527 0.00275317)
(0.0506614 3.60972e-05 0.000875396)
(0.0225661 0.000117289 0.00250693)
(0.1878 0.000442688 0.000593477)
(0.0883995 -0.000591589 -8.07531e-05)
(0.146264 0.000290972 0.0013213)
(0.0614569 0.00105245 -0.00139612)
(0.172089 0.000219758 -0.000767786)
(0.101399 0.000476616 0.000549191)
(0.167874 0.000301686 0.000107905)
(0.140194 -0.000116554 0.000821355)
(0.19366 0.000415149 0.000720776)
(0.144925 0.000995206 -0.00100692)
(0.147459 0.00114794 0.00133663)
(0.15967 -0.000196835 0.00118913)
(0.0518365 1.28857e-05 -0.000249414)
(0.154851 0.00106484 0.00198968)
(0.0386132 -0.000417005 -0.00214411)
(0.0559512 0.000430724 0.00193791)
(0.128195 0.000870212 -0.00107926)
(0.164434 -0.0002871 0.000267875)
(0.111946 0.00329038 0.00161498)
(0.181533 0.000332388 0.000300475)
(0.0946328 0.000212262 0.00205744)
(0.0539218 0.00204989 -0.0015172)
(0.161966 -0.000228861 -0.00146189)
(0.0888884 0.00197303 0.000478154)
(0.0428207 -0.000734106 -0.000708676)
(0.0484298 0.00028707 -0.00140647)
(0.0955517 0.00111112 -0.00340379)
(0.177132 4.26986e-05 -0.000265167)
(0.0948137 -0.00248888 6.42958e-05)
(0.0888122 -0.00155844 0.00088635)
(0.167746 -0.00104984 -0.000656656)
(0.0885059 -0.000615257 0.00224876)
(0.0193384 0.00232733 -0.00130438)
(0.163626 0.000396031 0.000715047)
(0.0234463 0.00150476 -0.00202936)
(0.0375426 -0.0015413 0.00106838)
(0.189031 0.000643614 0.00101548)
(0.138331 0.000332356 -0.000381744)
(0.0233434 0.00249328 0.0024856)
(0.11819 0.000818572 0.000500826)
(0.121513 0.00250293 -0.000111418)
(0.1688 -0.0017482 0.00216338)
(0.187775 -0.000333747 0.000354638)
(0.0222312 0.00264067 0.00045756)
(0.187664 0.000659137 0.000353514)
(0.194115 0.000117959 7.40621e-06)
(0.17855 0.000230191 0.000714371)
(0.134178 0.000933933 0.000797323)
(0.137266 0.000671529 0.000614581)
(0.0919291 0.000542788 -0.00017469)
(0.17495 0.000634741 0.000278197)
(0.0261099 -0.000936691 -0.00119993)
(0.163562 -0.000176816 0.000483589)
(0.138896 -0.000235072 -0.000650992)
(0.192724 0.000407864 0.000200977)
(0.174204 0.00104231 0.000716243)
(0.114692 -0.000415029 0.000629666)
(0.0556277 0.000900886 0.00123671)
(0.0212845 -0.000331214 0.0014711)
(0.026278 -0.000639102 0.000424993)
(0.165031 -0.00114749 -0.00107479)
(0.0188152 -0.00109323 0.00270647)
(0.0603983 -0.000323699 -0.00108305)
(0.0491192 0.0027487 0.00107118)
(0.171892 0.000848125 0.000857523)
(0.178996 -0.000442677 -0.000352034)
(0.155474 -4.30226e-05 -0.00100205)
(0.0558976 0.000158113 -0.00130072)
(0.10016 0.00169106 -0.0024482)
(0.0374019 -0.00315173 0.00252439)
(0.0538535 0.00131502 0.00105507)
(0.160503 0.000860812 -6.57829e-06)
(0.0947676 0.000961901 -0.000911544)
(0.107732 0.0123428 0.00350167)
(0.0875108 -0.00195289 0.000898784)
(0.0401132 -0.000150244 -0.000374144)
(0.0607323 -0.000879943 0.0019736)
(0.105477 -0.000980685 -0.00163474)
(0.181763 -5.55952e-05 -0.000456147)
(0.191376 -0.000902991 0.000894486)
(0.19292 0.00039763 0.00116525)
(0.163615 -0.00148578 0.000391264)
(0.0969374 0.00386723 0.00463118)
(0.125067 0.00062707 0.00088664)
(0.170747 0.000653709 0.000956177)
(0.163204 -0.000798181 8.97568e-05)
(0.166222 -0.000985309 0.000819424)
(0.0543767 0.00109939 -0.0033407)
(0.020825 -0.00140977 -0.00243223)
(0.151075 -0.00139937 0.000198073)
(0.0368583 -0.00182468 0.00203089)
(0.0294354 6.91827e-05 3.78896e-05)
(0.164101 0.000518792 0.00193581)
(0.144973 6.30274e-05 0.000360136)
(0.0595892 -0.00125607 -0.00304334)
(0.178943 -0.000618456 0.000307733)
(0.169351 -0.000610296 0.000418356)
(0.190985 -0.000140432 -0.000484545)
(0.179431 -0.00128425 -0.000462845)
(0.0305705 0.00147937 7.22548e-05)
(0.160842 -0.000417247 6.41442e-05)
(0.184169 -0.000629718 0.000475661)
(0.0544405 0.000153467 0.000835095)
(0.189746 1.55651e-05 0.000999104)
(0.181901 -5.09376e-05 0.000211458)
(0.129801 -7.91416e-05 -0.00091824)
(0.121202 0.000327034 -0.00100178)
(0.153413 -0.00113205 0.00174181)
(0.142924 -0.00111258 0.000194949)
(0.0666356 -0.000353187 -9.36431e-05)
(0.0297225 0.00125508 -0.000960735)
(0.032679 -0.00245954 -0.000154613)
(0.0913403 0.00043906 -0.000378845)
(0.0862561 -0.00679162 0.0106293)
(0.0746072 -0.00420234 -0.00608656)
(0.0795582 0.000404864 0.000426318)
(0.112047 0.000103316 0.00199183)
(0.13053 2.39096e-05 0.00121538)
(0.159648 -0.00166537 0.00420559)
(0.15796 -0.000955284 0.000933477)
(0.130419 -0.00092364 -0.000562687)
(0.14942 -8.26914e-05 0.000535504)
(0.15019 0.000875496 0.00027965)
(0.0293916 -0.00093016 -0.000350998)
(0.113929 -0.0224675 0.00276212)
(0.0551065 0.00137938 0.000427564)
(0.0385231 -0.00169323 -0.000388841)
(0.0389296 0.000858841 0.00030906)
(0.164002 -0.000578392 -0.000525448)
(0.0908607 -0.000564895 -6.43056e-06)
(0.162465 0.000595546 -0.00122789)
(0.018417 0.000983457 -0.00157988)
(0.124384 -0.000316672 0.000327498)
(0.0416704 0.000973476 -0.000817419)
(0.168727 -0.000156208 -6.6705e-05)
(0.0449302 -0.000626475 -0.000491447)
(0.0593039 -0.00136171 0.00103131)
(0.102169 -0.00278732 0.000699279)
(0.15195 -0.00124302 0.00104807)
(0.0181246 0.00140588 -0.00196631)
(0.0515366 -0.000566123 0.00207337)
(0.131795 -0.000179419 0.000513969)
(0.0215692 -0.00134222 -0.00175643)
(0.130882 0.00132063 0.00955236)
(0.11326 -0.00082774 0.00260615)
(0.130233 -0.000670781 -0.00211532)
(0.0913883 0.00201555 -0.00292699)
(0.0847591 -0.00124285 0.00208567)
(0.164375 0.000440515 0.000324991)
(0.0771929 -0.00791681 -0.00718831)
(0.191304 0.000112649 -2.60024e-05)
(0.111394 0.00865659 0.0090274)
(0.0564277 -0.00262851 0.000339474)
(0.0595928 -0.00046561 -0.00135074)
(0.186515 -0.000101264 0.000333702)
(0.185309 0.000117503 0.000313734)
(0.0494863 -0.000501669 0.000599935)
(0.131202 0.000293661 -0.000609721)
(0.0938942 -0.000446903 -0.00219214)
(0.187898 0.00034109 0.000402334)
(0.186991 -0.000267426 0.000968972)
(0.0427017 0.00126521 -0.00327834)
(0.130771 -0.00111871 0.000230687)
(0.14542 -0.00181231 0.00173358)
(0.147988 0.000639882 -0.000760225)
(0.157848 0.000837888 0.000527482)
(0.0200374 -0.000689802 -0.00251097)
(0.0196782 0.000965569 -0.00246061)
(0.124988 0.00112222 -0.0016191)
(0.181943 -9.06663e-05 -0.000163058)
(0.189516 -0.00109967 -0.00075475)
(0.0322 0.000342935 -0.0024282)
(0.17375 -0.0016161 0.000168332)
(0.10353 -0.00104586 -0.000919711)
(0.182642 1.92307e-05 -0.000273424)
(0.182789 -0.00042334 0.0012527)
(0.189494 -0.000344665 -0.000531191)
(0.178638 0.000729807 0.00070755)
(0.17701 0.00170513 0.000418546)
(0.084945 0.00053575 0.000299124)
(0.18657 0.000649718 -0.000250722)
(0.0530299 -0.000981385 -0.00249605)
(0.171046 -8.53918e-07 -0.000610284)
(0.105729 -0.000342687 -0.00106634)
(0.154872 0.000414344 0.00105222)
(0.181541 8.95679e-05 -0.000318371)
(0.148916 -0.000434971 9.38716e-05)
(0.145383 0.000134593 -0.00146745)
(0.037603 0.00214747 0.00203803)
(0.0315747 0.000844501 0.000215042)
(0.0195419 0.00169386 -0.0019238)
(0.153361 0.00426408 0.00758514)
(0.195686 -0.000236098 -0.000229261)
(0.139435 -0.000623085 0.000654083)
(0.12412 0.000882606 6.14673e-05)
(0.0286451 -0.000113344 0.00109436)
(0.0219427 -0.000340077 0.00251508)
(0.111019 -0.00068341 0.00165124)
(0.15457 0.000134911 0.00142342)
(0.182094 -0.000216889 0.000663403)
(0.155223 0.000591739 0.000270692)
(0.133541 -0.00115139 -0.000629248)
(0.195656 -1.58495e-05 0.000219656)
(0.132793 0.00067474 0.00110437)
(0.0245313 -0.000473124 0.00229369)
(0.120217 -0.000206282 0.000922899)
(0.0538327 0.000494495 0.00282019)
(0.0704818 -0.00704401 0.00151105)
(0.155987 0.00054265 0.000553815)
(0.0894861 0.000583173 -0.000169355)
(0.146811 -9.05297e-05 0.00024456)
(0.0189363 -0.00358659 -0.00128732)
(0.18625 0.000189373 -0.000650961)
(0.187986 -0.000289616 0.00011223)
(0.184812 -2.23461e-05 0.000777683)
(0.0877731 0.000874494 3.58642e-05)
(0.154648 -0.00097535 0.0017909)
(0.179069 0.000274757 0.000320824)
(0.118901 0.000476342 0.000338423)
(0.190593 0.000269884 0.000219066)
(0.0975998 0.00408872 -0.00344851)
(0.175485 6.97332e-05 -0.000393425)
(0.148825 -0.0028917 -0.000352567)
(0.0190576 -0.0012064 0.00137747)
(0.185927 0.000549242 0.000184869)
(0.114336 0.00236357 0.000105138)
(0.0430677 -0.00125408 0.00359409)
(0.087599 0.000861744 -0.00154401)
(0.171705 0.000448983 -9.01215e-05)
(0.126229 -0.000374716 0.00123917)
(0.0802504 0.000243931 -0.00224034)
(0.0188027 -0.00171089 -0.00184791)
(0.179874 0.000435893 -0.000283207)
(0.122302 0.00173764 -0.00184824)
(0.163247 -0.00040799 -0.000590762)
(0.121681 -1.9035e-05 0.000800195)
(0.0341707 0.001583 0.00148934)
(0.140676 -1.79385e-05 -0.000178617)
(0.0257071 0.00207803 -0.00331997)
(0.16584 0.000216694 -0.000770087)
(0.102281 0.0113986 -0.00365048)
(0.172819 -0.00156843 -0.000698193)
(0.0480433 4.36945e-05 0.00171525)
(0.102434 -0.00114554 -0.00163948)
(0.0912697 2.64594e-05 -0.00117022)
(0.0322214 0.00179476 0.00168257)
(0.193712 0.000210868 -0.000196926)
(0.178862 -0.0003927 0.000391196)
(0.0200601 0.000680361 0.00195919)
(0.165625 0.000535077 0.000339155)
(0.19291 0.000393393 0.000576789)
(0.0343714 -8.43462e-05 -0.00212013)
(0.0578444 0.00255622 -0.000119439)
(0.0502995 0.00187675 0.00130546)
(0.155662 -0.000459019 0.000738088)
(0.187173 -0.000443888 0.000560298)
(0.032414 -0.000870786 0.00148487)
(0.0498849 -0.00166932 -0.000520742)
(0.0528184 0.00104072 -8.37006e-05)
(0.111915 0.00159054 0.000497024)
(0.189513 -0.000138877 0.00071379)
(0.0215788 0.00118725 -0.00280119)
(0.160963 -0.000617138 0.000743146)
(0.151953 0.00407588 -0.000902605)
(0.18707 -0.000337324 0.000812943)
(0.0900999 0.00386723 -0.00372741)
(0.17169 8.24944e-06 0.000337163)
(0.0209191 -0.000288446 -0.00227774)
(0.165923 -0.00146655 -0.000719245)
(0.0250889 -0.000356454 -4.78174e-05)
(0.0584647 -0.00156404 0.000871953)
(0.154995 -0.00119966 7.21794e-05)
(0.0565037 -0.00169685 -0.000575475)
(0.0187332 0.00218143 0.00193796)
(0.0339349 0.000686719 -0.00106076)
(0.0417563 -0.00228593 0.00159527)
(0.0548998 0.0011218 -0.00159109)
(0.145754 0.00012687 -0.00112538)
(0.0467343 -0.00109239 8.51781e-05)
(0.0554685 0.00180399 -0.000913247)
(0.128246 -0.00714118 -0.0138135)
(0.175427 0.000165955 0.000213898)
(0.0220268 0.00141569 0.000261712)
(0.103715 0.000356078 -0.00114128)
(0.0812669 0.00887415 -0.00351008)
(0.176665 0.000120248 -0.000398962)
(0.0553448 -5.79621e-05 -0.00141376)
(0.170799 8.79471e-05 0.000998494)
(0.0535666 -0.00217468 -0.00163338)
(0.120562 0.000864853 0.00057272)
(0.183536 -0.000344878 -0.00123445)
(0.0471359 0.0020182 -0.00423266)
(0.180895 0.000177122 -0.000259469)
(0.0474994 0.00225844 0.00240145)
(0.0174515 0.00264952 0.000993068)
(0.146337 0.000698448 -0.000490863)
(0.187378 -0.000387536 -0.000220124)
(0.127347 0.00106232 -0.000500659)
(0.122508 0.00164642 -0.000913992)
(0.186419 -0.000850487 -0.000137358)
(0.0567731 0.00170969 -0.000278591)
(0.171883 -0.000750361 0.000292313)
(0.0535083 -0.00177316 0.00222084)
(0.180391 0.000174546 -7.28333e-05)
(0.123638 -0.00128588 -0.00139764)
(0.0257143 0.000664646 -0.00355884)
(0.154783 0.000870777 -0.000995706)
(0.0483482 3.70549e-05 0.00152889)
(0.0238892 -0.00168462 -0.00181055)
(0.147681 -0.00154504 -0.000480659)
(0.0398818 -0.00115344 0.00101982)
(0.136846 -0.000197255 8.36137e-06)
(0.188256 -0.00045557 0.000777384)
(0.129704 0.000207836 8.0198e-05)
(0.0503138 -0.00226914 -0.00246709)
(0.186112 0.000608627 0.000469906)
(0.0857137 -0.00132038 0.00131148)
(0.194082 7.86744e-05 6.52278e-05)
(0.187073 -0.000141975 0.000462669)
(0.188294 -0.000539118 0.00113282)
(0.186577 -0.000664762 -0.000782152)
(0.0407485 -0.0023042 -0.00197325)
(0.048035 0.000327138 -0.000394717)
(0.184347 -0.000749812 -0.000466681)
(0.164142 2.26018e-05 0.00169163)
(0.0289364 -0.00214689 -0.000951339)
(0.164454 -0.000254885 0.00069149)
(0.187432 0.000134569 0.000438524)
(0.182494 -0.000196925 -0.000348199)
(0.189177 -0.000497417 -0.000292877)
(0.11243 0.000231705 -0.00195547)
(0.0195728 0.00200413 0.0016904)
(0.183149 0.000488538 -0.000126259)
(0.0962478 -0.000856703 -0.00108886)
(0.153145 0.00135349 0.000718558)
(0.0917957 0.000358589 -0.000202538)
(0.0265677 0.00187532 -7.33852e-05)
(0.190178 -0.000122557 0.000296532)
(0.0872884 0.00237403 0.0024329)
(0.131002 0.000237829 0.000210524)
(0.192951 -0.000143685 -6.75727e-05)
(0.14025 -0.0016687 2.43563e-05)
(0.015763 0.00147246 -0.00183742)
(0.020029 -0.00125786 -0.0019445)
(0.183327 0.000737708 0.000195022)
(0.173272 -0.000983396 -0.00101201)
(0.193678 -0.000134955 0.00122854)
(0.154404 -0.000615898 0.00123451)
(0.0878618 -0.00138949 0.00060092)
(0.14941 -0.00102704 -0.00059724)
(0.182024 0.000282957 0.00102905)
(0.0183819 0.00163185 0.000402164)
(0.186275 0.000810513 0.000499419)
(0.135033 -0.015162 -0.000460465)
(0.0339983 -0.00056881 0.00184086)
(0.0510941 -0.00325589 0.000813978)
(0.143281 8.71292e-05 -0.000974809)
(0.139535 -0.00141361 0.00101387)
(0.136251 0.000361587 -0.000294385)
(0.120606 -0.00057392 0.000657423)
(0.100107 -0.00341272 0.00113805)
(0.192625 -0.000115853 0.000688191)
(0.0935906 0.000885421 -0.00298735)
(0.181199 0.000274548 -0.000210632)
(0.176718 0.000783743 9.34468e-05)
(0.193518 0.000133205 0.00021675)
(0.181813 2.20109e-05 0.000135969)
(0.0365343 -0.000278352 0.00182171)
(0.167098 0.000167801 -7.23209e-06)
(0.0295263 0.000939122 -0.00119975)
(0.0944326 -0.00919469 0.00542705)
(0.0555609 0.00187246 0.00149504)
(0.127241 -0.00252908 -0.0130795)
(0.128019 -0.000591577 -0.000805375)
(0.117478 -0.019074 -0.00425085)
(0.176203 0.000412103 -0.000583757)
(0.180456 -0.000685257 -0.000169631)
(0.155195 0.00185058 -6.7318e-06)
(0.176826 -0.000319487 0.00019827)
(0.0302911 0.000272481 -0.000576551)
(0.100941 -0.00378556 -0.00254012)
(0.112495 -0.00209584 -0.0160122)
(0.184056 0.000169594 0.000198808)
(0.107873 -0.00216722 -0.000656621)
(0.136956 -0.0135788 -0.00479474)
(0.157279 -0.0040231 0.0045399)
(0.10687 0.000835701 0.000961905)
(0.0319238 -0.00062886 0.00117807)
(0.0496416 -0.00244132 0.00133906)
(0.0219857 0.000104549 -0.000200636)
(0.020727 0.000171476 -0.00157941)
(0.0312248 -5.89953e-05 0.000135927)
(0.133632 -0.00975173 0.00555887)
(0.137662 -0.000724809 0.000817151)
(0.0210452 -0.000759949 0.00291761)
(0.0200043 0.00142787 0.00219817)
(0.195225 3.99083e-06 -0.000238466)
(0.0961456 -0.0126289 0.00858204)
(0.0336233 0.00144871 0.000501634)
(0.147377 0.000171419 -0.000700977)
(0.101182 -0.0011845 -0.00134553)
(0.132057 0.000285226 0.00125783)
(0.037749 0.00196414 -0.00105766)
(0.0502647 0.00155564 -0.000600695)
(0.107198 -0.00124361 1.33139e-05)
(0.174788 -8.35948e-05 -0.000939531)
(0.15286 -0.000254941 -0.000683473)
(0.0318155 0.00264931 -0.000893425)
(0.0214718 -0.00167282 0.000996985)
(0.106235 -0.0151799 -0.0112671)
(0.0229387 -0.00298563 0.000179463)
(0.132589 -0.000633796 -0.00104819)
(0.0239789 0.00134175 -0.00295728)
(0.0998097 -0.00052283 0.00209204)
(0.183259 -0.00135997 0.000275107)
(0.181579 -0.00038224 0.00114484)
(0.0392093 0.000591419 -0.000710112)
(0.0937434 -0.000170747 -0.00103514)
(0.0317838 0.00116451 -0.00135772)
(0.0249639 0.00295433 -0.00105608)
(0.184554 -0.000725989 -0.000401169)
(0.0168442 -0.00143192 -0.00215166)
(0.169846 -0.000452574 -0.000473971)
(0.0431237 0.00104237 -0.00204333)
(0.156363 -0.00136568 -0.000230932)
(0.140269 -0.000835095 -0.000145484)
(0.0193713 -0.000506545 0.00307501)
(0.0519721 -0.00261262 0.000295807)
(0.148658 0.000613916 0.00063879)
(0.0306156 -0.00150468 3.8648e-05)
(0.163051 0.000578634 -0.000546899)
(0.0490431 -0.00196505 0.0030466)
(0.103596 0.000155362 2.68235e-05)
(0.18887 -0.00017553 0.000183452)
(0.0325111 0.000973037 0.000644841)
(0.0210568 0.000897998 -0.00270374)
(0.0453815 0.000925147 -0.000387229)
(0.110797 0.0173775 0.00373342)
(0.099491 0.000374668 0.000489233)
(0.0508631 -0.00242294 0.00245104)
(0.0794539 0.000364962 0.00103423)
(0.0270391 -0.00101578 0.000621245)
(0.190589 -0.000391361 -0.000113476)
(0.0209841 -0.000342459 -0.00164092)
(0.172093 -0.000393685 -0.000838861)
(0.143586 0.000334119 3.41365e-05)
(0.171101 0.000335601 -0.000585394)
(0.0172229 0.00169261 4.35001e-05)
(0.151376 0.000429106 0.00041893)
(0.0789646 0.0010517 0.000370526)
(0.159116 -0.00010893 7.97733e-05)
(0.0494938 -0.000593011 -0.000216967)
(0.108168 -0.013001 0.0066845)
(0.160466 -0.00115974 -0.00060592)
(0.0354455 0.000393717 -0.000437042)
(0.195621 -0.0001905 0.000504373)
(0.108871 0.00201373 -0.0204969)
(0.114985 0.000347216 -0.000762278)
(0.0293701 0.000762959 -0.00161153)
(0.0453847 -0.000446552 -0.00251137)
(0.187935 -0.000316499 -9.33342e-05)
(0.129944 0.00127377 0.00075881)
(0.0285268 0.00145161 0.000598026)
(0.10631 0.00147242 -0.00164585)
(0.0557883 -0.000428201 -0.00171507)
(0.0217212 -0.00187234 0.00129299)
(0.183942 -1.40867e-05 -0.000411867)
(0.103344 -0.00127911 0.010026)
(0.128106 0.00138649 -0.00186449)
(0.176971 -0.000616978 -3.54861e-05)
(0.181892 -0.00056379 0.000851819)
(0.172789 -7.70481e-06 3.61017e-05)
(0.130233 0.000828589 -0.000327801)
(0.0390416 0.000994648 0.000336656)
(0.0358623 -0.0017185 -0.00173096)
(0.186924 -0.000442107 0.000757945)
(0.107584 -0.00937726 0.00871714)
(0.11771 -0.000958174 0.000430852)
(0.125136 -0.00164751 0.00103742)
(0.076402 0.0019045 0.000827692)
(0.147946 -0.000320532 0.00163253)
(0.165326 -0.000722698 -0.000895982)
(0.094561 -0.000245603 -0.00131249)
(0.099583 0.00179485 0.000594255)
(0.035349 0.000548738 -0.00229307)
(0.0666386 0.000454399 -0.000294057)
(0.0385143 -0.000983458 -0.00287318)
(0.151908 -0.000980575 0.000904671)
(0.179016 -0.000578811 -0.000352335)
(0.0893351 0.00195008 -0.00204862)
(0.0943732 0.000784259 -0.00064238)
(0.0187296 0.00191558 -0.000385648)
(0.0740718 -0.000299885 -0.000692613)
(0.0530177 -0.00178134 -0.00226299)
(0.180025 0.000197672 -0.00102544)
(0.183066 -0.000682584 -0.000433626)
(0.104824 -0.00955944 0.00605025)
(0.165221 -0.000171253 0.00112674)
(0.0769772 -0.00223928 -0.00191245)
(0.101709 -0.0025485 0.00793841)
(0.130708 -0.00148583 0.00156556)
(0.0229695 -0.00175011 -0.00018384)
(0.183078 -0.000436138 0.000267921)
(0.0454299 0.00127733 -8.11102e-05)
(0.138475 -0.000183265 0.0013483)
(0.0251475 0.00358589 -0.000291098)
(0.178525 0.000127251 -0.00072659)
(0.101647 -0.00432472 0.00266101)
(0.159179 -0.000781317 -0.000160671)
(0.11132 0.000382545 0.000580095)
(0.146194 -0.000226522 0.00112445)
(0.14957 0.00137167 0.000446305)
(0.191036 0.000351767 0.000309189)
(0.0309804 -0.00193242 -1.09552e-05)
(0.0428782 0.000582889 -0.000909985)
(0.0258215 -0.000671648 -0.000207215)
(0.181939 -0.000510762 0.000847441)
(0.158663 0.000225158 -0.000315144)
(0.134749 0.00156897 4.2117e-05)
(0.160711 0.000481864 -0.0014562)
(0.0188622 0.000351069 0.000491627)
(0.0936493 -0.000276776 -0.000218161)
(0.0844657 0.00100852 -0.00188568)
(0.180925 -0.000388661 -0.000605467)
(0.124101 -0.000912884 -0.000194732)
(0.145275 -6.76143e-05 -0.000538113)
(0.102012 -0.000370778 0.00127536)
(0.186662 -0.000246365 -0.000254067)
(0.0185797 -0.002141 -0.00225054)
(0.0806478 -0.00330749 0.000432612)
(0.153048 -0.00055363 0.000661609)
(0.0232065 -0.00213809 0.00181442)
(0.0407804 -0.000791527 -0.00192742)
(0.0570498 -0.000905675 0.000625473)
(0.0192529 0.00118273 -0.00203433)
(0.0902256 0.000461486 -0.00127291)
(0.171794 0.000186311 -0.000428291)
(0.0562161 -0.00159159 -0.00163293)
(0.0170478 -0.00221053 -0.00164446)
(0.0996564 0.000339185 -0.000811808)
(0.0232685 0.000133248 0.000353021)
(0.0938202 0.00119691 -0.000619246)
(0.178337 9.37882e-05 0.00027099)
(0.194532 7.49826e-05 9.98157e-05)
(0.177489 -0.000222239 0.000123742)
(0.165848 0.000864563 -3.13086e-05)
(0.179933 -0.000165542 0.000305554)
(0.127648 0.000293118 0.0023408)
(0.0424744 0.000799162 -0.0011005)
(0.180585 0.000630425 2.66291e-05)
(0.120639 -0.000341717 0.00100124)
(0.0835569 0.000557167 -0.00165816)
(0.0919828 -0.000954054 0.00130541)
(0.166075 -0.000222259 0.000513224)
(0.111585 -0.00125406 -0.000723097)
(0.0606309 1.93919e-05 0.00158833)
(0.155321 0.000813753 0.00137999)
(0.0301188 0.00113526 0.000521245)
(0.0825084 5.69544e-06 0.000595777)
(0.0917006 -0.00028011 0.000161056)
(0.0564422 0.000358652 0.000929743)
(0.161977 0.00014004 -0.000280509)
(0.106009 -0.0125965 0.0134323)
(0.127228 0.0081358 0.00528072)
(0.0292942 0.000574357 -0.00256097)
(0.0238368 -0.00149934 0.000762203)
(0.0519127 0.00196921 -0.00106302)
(0.0183988 -0.00117698 -0.00148531)
(0.124156 0.000476607 -0.000671123)
(0.155037 0.000675451 -0.00117408)
(0.125957 0.00171719 0.000428998)
(0.110212 0.0101158 -0.011598)
(0.132341 -0.000199597 0.000202549)
(0.147029 0.000351959 -0.000895424)
(0.0227729 -0.00193249 0.00435716)
(0.158835 0.000800699 -0.000355209)
(0.127566 -0.00405646 0.0125005)
(0.0401822 0.000761358 -0.00104562)
(0.0197822 -0.00335934 0.000628594)
(0.111437 0.000423355 0.000398767)
(0.104311 -0.00148454 -0.000626957)
(0.0232965 -0.00161758 0.00260576)