/*--------------------------------*- C++ -*----------------------------------*\
| =========                 |                                                 |
| \\      /  F ield         | OpenFOAM: The Open Source CFD Toolbox           |
|  \\    /   O peration     | Version:  2406                                  |
|   \\  /    A nd           | Website:  www.openfoam.com                      |
|    \\/     M anipulation  |                                                 |
\*---------------------------------------------------------------------------*/
FoamFile
{
    version     2.0;
    format      ascii;
    arch        "LSB;label=32;scalar=64";
    class       volVectorField;
    location    "64";
    object      U:Transformed;
}
// * * * * * * * * * * * * * * * * * * * * * * * * * * * * * * * * * * * * * //

dimensions      [0 1 -1 0 0 0 0];

internalField   nonuniform List<vector> 
59516
(
(-0.00108011 -0.000685579 0.103224)
(0.000336925 -0.000216626 0.0943441)
(-0.000507825 0.000530883 0.110025)
(-0.00213641 -0.000436411 0.126995)
(-0.00455691 0.000300489 0.113663)
(-0.010443 0.00555711 0.101091)
(-0.00272785 -0.0016456 0.126851)
(-0.000307429 -0.000543549 0.0983717)
(-0.000866589 0.000152614 0.109345)
(0.0019485 0.00106809 0.0509)
(-0.00253333 -0.000260859 0.154059)
(-0.0030265 -0.00222663 0.0596933)
(-0.000888233 -0.000767083 0.115908)
(5.24003e-05 -0.000206128 0.0189504)
(0.000234856 -0.00344363 0.0570439)
(-0.00142334 0.00344711 0.0491727)
(-0.00308604 -0.000573901 0.170067)
(-0.00573257 -0.00158383 0.0700186)
(-0.00603791 -0.00119673 0.114332)
(-0.00189142 0.000547731 0.166423)
(-0.00144509 0.000672257 0.0537163)
(0.000392862 0.000923529 0.148101)
(-0.00298841 -0.000692804 0.154497)
(0.000826407 0.00055998 0.0314099)
(-0.000138435 0.00071913 0.161518)
(-0.000159286 0.0015585 0.0620774)
(-0.000480775 0.0028297 0.0391934)
(-0.00349413 -0.00147473 0.0442215)
(-0.00269463 -0.000865827 0.0652439)
(0.00199371 0.00164184 0.0161099)
(-0.0215115 0.00120367 0.108361)
(-0.00295083 0.00226607 0.0455211)
(-0.000701674 -0.000393154 0.131294)
(-0.00187752 -0.00113919 0.109671)
(-0.00680771 -5.31694e-06 0.139502)
(-0.000576906 0.000166488 0.146016)
(-0.0023405 0.00122495 0.0155643)
(-0.0069387 -0.00220488 0.0699195)
(-0.00389888 0.000393548 0.0949588)
(-0.000132152 0.000819533 0.161006)
(-6.02555e-05 -0.000589282 0.0979056)
(-0.0117355 -4.17482e-05 0.144051)
(-0.00539833 0.000999065 0.14844)
(-0.000646216 0.000335677 0.103406)
(-0.00558325 0.000695613 0.14254)
(0.00134538 0.000374747 0.0521266)
(-0.00553771 0.000142486 0.132238)
(-0.00540774 0.000637206 0.16371)
(-0.015243 0.00138628 0.111885)
(-0.00878905 0.00033667 0.151225)
(-0.0178974 0.000518856 0.104055)
(-0.00393973 -0.00188605 0.0410655)
(0.000404012 -0.00248124 0.117001)
(-0.0003152 0.000491324 0.124358)
(-0.0029349 0.000764024 0.0471475)
(-0.00322385 0.000582856 0.129512)
(-0.0119459 6.8611e-05 0.14498)
(-0.00435093 -0.00163249 0.0433645)
(-0.000321563 0.000160233 0.178421)
(-0.0104005 -0.000328448 0.135277)
(-0.000468409 0.000336181 0.149516)
(-0.00139605 0.00191645 0.017712)
(-0.000912349 -0.000121054 0.171418)
(-0.00374116 -7.06834e-05 0.167387)
(-0.000667188 0.000561966 0.118381)
(-0.00693636 0.000114832 0.14772)
(0.000185069 0.00271813 0.0238948)
(-0.000128975 0.000317141 0.0385436)
(-0.0227991 0.000385576 0.121534)
(-0.00376887 -0.000823647 0.135481)
(-0.0005659 -0.00079155 0.0341499)
(-0.00273118 -0.000791431 0.164516)
(0.00325443 -0.00130921 0.0213395)
(-0.00191358 -0.00042897 0.14274)
(-0.000503348 -0.000444647 0.188508)
(-0.00438364 0.000213587 0.158231)
(-0.00513021 0.000129629 0.164444)
(0.00054764 3.55702e-05 0.148693)
(0.0017239 0.000909127 0.0426831)
(-0.00862647 0.000734743 0.151898)
(-0.00241855 1.02653e-06 0.0353183)
(-0.00766866 0.000429554 0.147006)
(-0.00644487 0.000380167 0.139801)
(-0.00235302 0.00128589 0.0184794)
(-0.0074647 0.000788749 0.146814)
(-0.00097447 0.000837174 0.178782)
(0.00059995 0.00106152 0.0303238)
(-0.000790635 9.45184e-05 0.149639)
(-0.00185615 -0.000971171 0.0514896)
(-0.00998912 -0.00248901 0.107109)
(-0.0115687 -2.80935e-05 0.13151)
(-0.000873213 0.00113103 0.13933)
(-0.000710414 -2.79315e-05 0.17732)
(-1.67414e-05 0.00097022 0.137064)
(5.80057e-05 -5.75422e-05 0.164996)
(-0.0112383 -7.04126e-05 0.109926)
(-0.000367519 -0.000327281 0.13968)
(0.00212123 0.00386393 0.0500886)
(-0.00247959 -0.000982701 0.0643173)
(0.00167756 0.00103879 0.148379)
(-0.00118013 0.000821258 0.0352318)
(0.00247651 0.00131364 0.0225273)
(0.00267079 0.00139496 0.021302)
(-0.0019555 0.00218368 0.0510864)
(0.000834427 -1.71446e-05 0.133722)
(0.000165763 -0.000703363 0.1484)
(0.00173053 -0.00307339 0.0369338)
(-0.000772524 -0.000352351 0.101645)
(-0.00018977 0.000694415 0.097571)
(-0.00135261 0.00213792 0.0623215)
(-0.0187506 -0.000240157 0.124958)
(0.00211765 -0.00204015 0.0285433)
(-0.00250226 0.00320097 0.0630641)
(-0.0195073 -5.05602e-05 0.118045)
(-0.000182777 0.00014248 0.161561)
(0.00108778 -0.00118521 0.0965535)
(-0.00165426 -0.00108559 0.0509961)
(-0.000327172 -0.000613861 0.131941)
(-0.000359194 -0.0009599 0.0203029)
(-0.000807619 0.000829244 0.147064)
(9.83432e-05 -6.26673e-05 0.193726)
(-0.000380474 0.000602559 0.173105)
(0.000809286 0.000177368 0.158967)
(-0.000358597 0.000274369 0.171628)
(-0.0180207 0.00114764 0.13241)
(-0.00334627 0.000111993 0.0897711)
(-0.00169432 -0.000828372 0.0276419)
(-0.0137069 0.00206059 0.138369)
(-0.0130695 0.00307951 0.0898413)
(4.19008e-05 -0.000290624 0.185816)
(-0.000182748 -0.000124255 0.190249)
(0.00169941 0.00193847 0.109781)
(-0.000482155 -0.00190286 0.0215578)
(-0.000184382 0.000559243 0.147547)
(0.00103015 0.000344519 0.0987629)
(-0.00206381 0.000967946 0.112668)
(-0.0155936 0.00140433 0.107484)
(0.000117024 0.000476784 0.127595)
(-0.000361459 0.00252752 0.0367192)
(-0.00118509 0.000851254 0.0964328)
(-0.000973051 0.00204338 0.0410268)
(-0.000263369 -0.000438342 0.191045)
(-0.000793362 -0.00146956 0.0172729)
(-0.000642567 0.000939208 0.123351)
(-0.00155239 -1.44076e-05 0.179996)
(-0.00235852 0.000692693 0.141853)
(-0.00590338 0.00133753 0.140269)
(-0.00352863 0.00132091 0.116966)
(0.000947104 -0.00176358 0.0621281)
(-0.000471072 0.00103447 0.10451)
(-0.000453513 -0.000914269 0.101272)
(0.000143958 0.00123331 0.0322)
(0.00089521 0.00101273 0.169223)
(-7.44259e-05 1.24533e-05 0.154629)
(-0.000991447 -0.00198173 0.0866267)
(-0.0015932 0.000976147 0.0171709)
(-0.000445425 -0.000374268 0.110442)
(-0.00161087 0.000792396 0.111669)
(-0.00132922 0.000538798 0.0803194)
(-0.00253564 -0.0017909 0.0176084)
(0.00247089 0.00242215 0.0617664)
(0.00343764 -0.00204429 0.0636732)
(-0.000559946 0.001218 0.0321896)
(-0.000218235 -0.000434789 0.0230172)
(0.00299969 0.000106697 0.0962596)
(-0.00104913 -3.38682e-05 0.177865)
(0.000908205 -6.0916e-05 0.0580938)
(-0.00125265 -0.000384978 0.183186)
(0.00104851 0.00214691 0.0184393)
(0.000240572 -0.0005731 0.136518)
(-0.0014792 -0.00114376 0.0809776)
(-0.000907997 0.000613329 0.0488376)
(-0.000138829 -0.0017539 0.0600456)
(-8.35219e-05 -0.000531213 0.135657)
(0.000383942 0.000585536 0.0465756)
(-0.00584347 -0.000547482 0.134855)
(-0.000823668 0.000380858 0.173413)
(-0.00699865 0.000540994 0.14953)
(0.000360342 -0.0030141 0.0635433)
(0.000425195 0.000309623 0.0375871)
(-0.00165092 -0.00210176 0.146012)
(0.000816559 0.0029125 0.0307429)
(-0.000912327 -0.00186065 0.0262091)
(0.000529507 0.00136984 0.0603794)
(-0.000316962 -0.000948642 0.184852)
(-0.000349448 0.000648836 0.0553631)
(-0.00256654 0.000464346 0.032678)
(0.00013746 0.000250867 0.0209783)
(-0.000389837 5.57532e-05 0.119598)
(0.00148207 0.000775618 0.0966934)
(-0.00265806 -0.000129974 0.135321)
(-0.000966149 -0.00280672 0.0481492)
(-0.00145965 -0.000494054 0.165718)
(0.0014534 -0.00118136 0.0528518)
(-0.000953446 -3.92575e-05 0.154659)
(0.00039572 0.00068 0.0273323)
(0.00069858 0.000270738 0.0528738)
(0.000306437 -0.00106566 0.0372402)
(-0.00456507 -2.57418e-06 0.106033)
(0.000395037 -0.000795484 0.154919)
(-0.00157589 -0.00225441 0.0772113)
(-0.000288872 -0.000328883 0.19297)
(0.00010721 0.00111826 0.0988625)
(0.00149848 -0.00178683 0.0177616)
(0.000500344 0.000820255 0.12537)
(-0.000482396 -0.000416041 0.145082)
(-0.000527313 -0.000283618 0.186771)
(0.00157772 -0.000840901 0.155831)
(0.000223223 -0.000689649 0.0210876)
(0.00178685 0.00106519 0.110851)
(-0.000524551 0.00443096 0.0468783)
(-0.00385939 0.000788852 0.0235603)
(-0.000911597 0.00123321 0.143027)
(-0.00033166 0.00130326 0.0516784)
(-0.000956704 -0.00123264 0.112884)
(0.000416424 -0.000133361 0.174239)
(-0.0018192 0.000489726 0.139787)
(-0.00122207 0.000948962 0.157997)
(-0.00159469 0.00298189 0.0502271)
(0.000790415 -0.000140237 0.157579)
(-0.000839169 -0.00255175 0.0511533)
(-0.000463575 0.000263643 0.102324)
(-0.000898364 -0.000959947 0.167806)
(0.000339608 -0.000490682 0.0358436)
(0.000430602 -0.000208601 0.17361)
(0.000462538 0.000107245 0.175998)
(-0.000914508 -0.000997277 0.0260202)
(-0.00240898 0.00054981 0.0431964)
(0.000151463 0.000918064 0.174634)
(-0.00202754 0.00333222 0.0506082)
(3.38302e-05 0.000613302 0.176)
(-0.000445928 0.000325029 0.176777)
(-0.000897636 -0.000437794 0.190658)
(-0.00109429 -0.00189402 0.0228166)
(-0.00121673 -0.0010871 0.0300295)
(-0.00143368 -3.15576e-05 0.0313164)
(-0.000122603 -0.000370998 0.0591327)
(-0.00128716 -0.000198615 0.0927539)
(-0.00170997 0.000418641 0.158419)
(0.00188706 -0.000324 0.0532928)
(0.000400985 0.000340735 0.192331)
(0.00225995 0.0016066 0.0186408)
(0.000701752 0.000524561 0.0506614)
(0.0021264 0.00133299 0.0225661)
(0.000516244 0.000530735 0.1878)
(-0.000505023 -0.000318512 0.0883995)
(-0.00132251 0.000285434 0.146264)
(-0.000889713 0.00150506 0.0614569)
(-0.000686088 -0.000408746 0.172089)
(-0.000677514 -0.0002641 0.101399)
(-0.00029094 -0.000134208 0.167874)
(-0.000829499 1.18321e-05 0.140194)
(0.000803858 0.000213728 0.19366)
(0.000282885 0.00138719 0.144925)
(-0.00114827 0.00133635 0.147459)
(-0.00105459 0.000583615 0.15967)
(-0.000233827 8.77379e-05 0.0518365)
(-0.00221593 0.000427046 0.154851)
(0.00118971 0.00183185 0.0386132)
(-0.00028594 0.0019645 0.0559512)
(-0.00120997 0.000676798 0.128195)
(-0.000218468 0.000326275 0.164434)
(0.003588 0.000748994 0.111946)
(0.000432244 0.000118033 0.181533)
(0.00206757 -5.69367e-05 0.0946328)
(-0.000125178 -0.00254721 0.0539218)
(-0.000758565 -0.00127047 0.161966)
(0.00202785 9.64857e-05 0.0888884)
(-0.00052382 -0.00087564 0.0428207)
(-0.000505142 0.00134365 0.0484298)
(-0.00268372 0.00237024 0.0955517)
(0.000100091 -0.000249236 0.177132)
(-0.0015396 0.00195661 0.0948137)
(-0.000865214 0.00157027 0.0888122)
(-0.00113319 -0.000499222 0.167746)
(-1.84625e-05 0.00233134 0.0885059)
(-0.00111925 -0.0024218 0.0193384)
(0.000769354 0.000276094 0.163626)
(0.00199247 -0.00155328 0.0234463)
(0.00168159 0.000830241 0.0375426)
(-0.00117 -0.000276637 0.189031)
(-0.000360933 -0.000354848 0.138331)
(-0.00311892 0.0016331 0.0233434)
(-6.27053e-05 -0.000957578 0.11819)
(-0.00138774 -0.00208597 0.121513)
(-0.00276907 0.000262048 0.1688)
(6.13339e-05 -0.000483107 0.187775)
(0.00185022 -0.00193887 0.0222312)
(0.000240291 0.000708303 0.187664)
(4.72672e-05 0.000108329 0.194115)
(-0.000497274 -0.000562168 0.17855)
(-0.00109488 0.000556059 0.134178)
(-0.00081911 0.000397138 0.137266)
(-0.000335644 -0.000460954 0.0919291)
(0.000220361 -0.000657062 0.17495)
(1.00692e-06 0.00152225 0.0261099)
(-0.000209213 -0.00047048 0.163562)
(0.000123522 0.000681022 0.138896)
(-0.000226236 0.000394413 0.192724)
(-0.000950666 0.00083406 0.174204)
(0.000377951 -0.000652596 0.114692)
(0.000961151 -0.00119048 0.0556277)
(-0.000636312 -0.00136709 0.0212845)
(0.000648657 0.000410261 0.026278)
(-0.00154984 0.000264409 0.165031)
(-0.00270476 0.00109746 0.0188152)
(-0.000806758 -0.000791781 0.0603983)
(-0.000912459 0.00280539 0.0491192)
(-0.000821488 -0.000883074 0.171892)
(-0.000561166 -7.05963e-05 0.178996)
(-0.000603819 0.000800849 0.155474)
(0.00102075 0.00082155 0.0558976)
(0.00297454 7.39755e-05 0.10016)
(3.369e-05 0.00403792 0.0374019)
(0.000209237 -0.00167292 0.0538535)
(-0.000265631 0.000818829 0.160503)
(0.000363074 -0.0012745 0.0947676)
(-0.0127383 -0.00153056 0.107732)
(0.000283948 -0.00213096 0.0875108)
(-0.000397854 -6.53423e-05 0.0401132)
(0.00215311 -0.000183103 0.0607323)
(-0.000721837 -0.00176439 0.105477)
(-0.00044987 -9.3693e-05 0.181763)
(0.00045792 -0.00118567 0.191376)
(-0.000578238 0.00108699 0.19292)
(0.000140833 0.00152996 0.163615)
(-0.00600539 -0.000581928 0.0969374)
(-0.00105667 -0.000250592 0.125067)
(-0.00114352 0.000184328 0.170747)
(0.000764947 0.000244959 0.163204)
(0.00123264 0.000350557 0.166222)
(-0.00276236 -0.00217677 0.0543767)
(0.00257736 -0.00112269 0.020825)
(0.0014007 0.000188455 0.151075)
(0.00105849 0.00251665 0.0368583)
(2.947e-05 -7.31669e-05 0.0294354)
(-0.00199918 -0.000140626 0.164101)
(0.000348846 -0.000109439 0.144973)
(-0.00207966 0.00255239 0.0595892)
(-0.000362713 -0.0005879 0.178943)
(0.000427344 0.000604036 0.169351)
(-0.000435051 -0.000255413 0.190985)
(-0.00136511 2.74282e-06 0.179431)
(-7.07755e-05 -0.00147944 0.0305705)
(-0.000374374 0.000195074 0.160842)
(-0.000775022 0.000148791 0.184169)
(0.000336763 0.00077944 0.0544405)
(-0.000180221 -0.000982839 0.189746)
(-8.10715e-05 0.000201833 0.181901)
(0.000781885 0.000487938 0.129801)
(0.000542579 0.000903398 0.121202)
(-0.000467154 -0.00202416 0.153413)
(0.00046856 0.00102776 0.142924)
(-0.000298142 0.000211238 0.0666356)
(-0.000597984 0.0014631 0.0297225)
(0.000346276 0.00243995 0.032679)
(0.000451976 -0.000363338 0.0913403)
(-0.0126136 -6.67868e-05 0.0862561)
(-0.00735694 0.000762443 0.0746072)
(0.000424262 -0.000407018 0.0795582)
(0.00150281 -0.00131134 0.112047)
(-0.00102376 0.000655469 0.13053)
(-0.00452026 0.000166487 0.159648)
(0.000351991 0.00128843 0.15796)
(-0.000513457 -0.000951888 0.130419)
(6.8063e-05 -0.000537559 0.14942)
(-0.000918432 -3.43605e-05 0.15019)
(-0.000447663 0.00088769 0.0293916)
(-0.0226219 0.000817523 0.113929)
(0.000444415 0.00137405 0.0551065)
(-0.000889036 0.0014926 0.0385231)
(0.000853277 0.000324105 0.0389296)
(0.000164536 0.000763911 0.164002)
(-0.000477975 0.000301143 0.0908607)
(-0.00127607 0.000483758 0.162465)
(-0.00117777 0.00144086 0.018417)
(0.000284239 -0.000356011 0.124384)
(0.00107963 -0.000670984 0.0416704)
(-0.000102702 0.000135288 0.168727)
(-0.000517173 0.000605411 0.0449302)
(0.00154287 0.000733079 0.0593039)
(0.000648316 0.00279962 0.102169)
(-0.00155707 -0.000468063 0.15195)
(0.00240562 -0.000236336 0.0181246)
(-0.000130566 0.0021453 0.0515366)
(4.94367e-05 -0.000542136 0.131795)
(8.95403e-05 -0.00220875 0.0215692)
(-0.00963907 -0.000283089 0.130882)
(0.000557412 -0.00267703 0.11326)
(-0.000516139 -0.00215827 0.130233)
(0.00224371 -0.00275598 0.0913883)
(0.0022973 0.000785571 0.0847591)
(0.000534258 0.000119336 0.164375)
(-0.0101935 -0.00323109 0.0771929)
(-0.000113662 2.11365e-05 0.191304)
(-0.0124784 0.000848881 0.111394)
(-0.00214752 0.00155321 0.0564277)
(-0.000289792 0.00139904 0.0595928)
(0.00032712 -0.000120847 0.186515)
(0.000329473 -6.06889e-05 0.185309)
(0.000589456 -0.00051394 0.0494863)
(-0.000459907 -0.000496469 0.131202)
(-0.0021302 0.000683724 0.0938942)
(-0.000245211 -0.000466997 0.187898)
(0.000450295 -0.000898698 0.186991)
(-0.00101371 -0.00336462 0.0427017)
(-0.000355656 0.00108546 0.130771)
(0.00249133 -0.000288193 0.14542)
(-0.000956558 -0.000269051 0.147988)
(0.000243861 -0.000959597 0.157848)
(0.00229856 -0.00122369 0.0200374)
(-0.00255977 -0.000659145 0.0196782)
(-0.00142968 0.00135532 0.124988)
(-0.000171837 -7.26675e-05 0.181943)
(0.000878752 0.00100335 0.189516)
(-0.00215975 0.00116158 0.0322)
(0.00141905 -0.000791471 0.17375)
(-0.00136072 -0.000296868 0.10353)
(0.000173956 0.000211825 0.182642)
(-0.000870372 0.000995448 0.182789)
(0.000131677 -0.000619369 0.189494)
(3.41224e-05 -0.00101591 0.178638)
(-0.000472714 -0.00169091 0.17701)
(0.000286546 -0.000542581 0.084945)
(-0.000534418 0.000446534 0.18657)
(-0.00170338 0.00207168 0.0530299)
(-0.000434319 0.000428736 0.171046)
(-0.00091602 -0.000644534 0.105729)
(-0.00102977 -0.000467362 0.154872)
(-0.000328509 3.8266e-05 0.181541)
(-0.00021274 0.000390836 0.148916)
(0.00106522 -0.00101825 0.145383)
(0.00162194 0.0024768 0.037603)
(0.000869876 -5.23546e-05 0.0315747)
(-0.00178551 -0.00183905 0.0195419)
(-0.00870126 6.92338e-05 0.153361)
(0.000237996 -0.00022729 0.195686)
(-0.000859589 0.000277788 0.139435)
(-0.00016653 -0.00086893 0.12412)
(0.00107385 0.000239439 0.0286451)
(0.00064889 -0.00245362 0.0219427)
(-0.000433031 -0.00173382 0.111019)
(-0.000806263 0.00118079 0.15457)
(-0.000455665 -0.000528691 0.182094)
(0.000642481 -0.000103184 0.155223)
(-0.0012811 0.000283621 0.133541)
(-0.000166395 -0.000144266 0.195656)
(0.001258 0.000303878 0.132793)
(-0.0010035 0.00211609 0.0245313)
(0.000274413 0.000904982 0.120217)
(0.00250262 -0.001391 0.0538327)
(-0.0071612 -0.000786553 0.0704818)
(-0.000475831 0.000612181 0.155987)
(0.0004397 -0.00041885 0.0894861)
(-2.08562e-05 0.000259942 0.146811)
(-0.00321273 0.00204919 0.0189363)
(-0.000111937 -0.000668643 0.18625)
(2.47475e-05 0.000309613 0.187986)
(-0.000451468 -0.000633614 0.184812)
(0.00058233 -0.000653389 0.0877731)
(0.000717246 -0.00190898 0.154648)
(-0.000368301 -0.000206819 0.179069)
(-0.000249635 0.000528313 0.118901)
(-0.000347202 -1.66816e-05 0.190593)
(-0.00532487 -0.000505657 0.0975998)
(-0.000387152 9.87917e-05 0.175485)
(-0.00262073 0.00127201 0.148825)
(0.00137337 -0.00121107 0.0190576)
(-0.000390525 -0.000428174 0.185927)
(0.00143307 0.0018825 0.114336)
(-0.00279287 -0.00258652 0.0430677)
(-0.00103212 0.00143573 0.087599)
(-0.000271621 0.000368687 0.171705)
(-0.000134542 -0.00128758 0.126229)
(0.000850195 0.00208706 0.0802504)
(-0.00205459 0.00145622 0.0188027)
(-0.000397791 -0.000334621 0.179874)
(0.000556461 0.00247502 0.122302)
(-0.000711147 -9.86196e-05 0.163247)
(-0.000770121 -0.000218146 0.121681)
(-0.0020856 0.000611775 0.0341707)
(0.000173897 -4.45627e-05 0.140676)
(-0.00390374 0.000318167 0.0257071)
(5.6438e-05 0.000798001 0.16584)
(-0.0119538 0.000601008 0.102281)
(0.00166349 0.000424556 0.172819)
(-0.000183768 0.00170594 0.0480433)
(-0.00133251 0.0014915 0.102434)
(-1.94943e-05 0.00117036 0.0912697)
(0.00187861 -0.00158841 0.0322214)
(0.000128827 -0.000258164 0.193712)
(-0.000140648 -0.000536158 0.178862)
(-0.00192787 -0.000764628 0.0200601)
(-0.000597861 0.000209512 0.165625)
(-0.000589364 0.00037429 0.19291)
(-0.000556232 0.00204761 0.0343714)
(0.00145756 0.00210334 0.0578444)
(-0.00130958 0.00187388 0.0502995)
(-0.000789233 -0.00036412 0.155662)
(0.000429649 -0.00057129 0.187173)
(-0.00122816 0.00120613 0.032414)
(0.00158248 -0.000744031 0.0498849)
(-0.000183549 0.00102781 0.0528184)
(0.00125206 0.00109964 0.111915)
(-6.34258e-05 -0.000724404 0.189513)
(-0.00249154 -0.001746 0.0215788)
(0.000906729 0.000333118 0.160963)
(-0.00410779 -0.000744005 0.151953)
(0.0001366 -0.000869485 0.18707)
(-0.00234853 -0.00483047 0.0900999)
(-3.02023e-05 0.000335909 0.17169)
(0.00104751 -0.00204305 0.0209191)
(-0.00159845 -0.000336184 0.165923)
(0.000143348 -0.000329844 0.0250889)
(-0.000374808 -0.00175101 0.0584647)
(-7.03265e-05 0.00119977 0.154995)
(-0.0010332 0.00146389 0.0565037)
(-0.00250816 0.00149112 0.0187332)
(0.000346037 -0.00121534 0.0339349)
(0.000464606 0.00274854 0.0417563)
(0.000761032 -0.00179187 0.0548998)
(-0.00111255 -0.000211666 0.145754)
(3.31883e-05 0.0010952 0.0467343)
(0.00108094 -0.0017088 0.0554685)
(-0.0155377 0.000623869 0.128246)
(-0.000260327 -7.43179e-05 0.175427)
(0.00143953 2.06803e-05 0.0220268)
(0.000171963 0.0011831 0.103715)
(-0.0085135 -0.00431181 0.0812669)
(-9.04522e-05 0.000406754 0.176665)
(-0.00115802 0.000813069 0.0553448)
(-0.000816567 -0.000581329 0.170799)
(0.0012039 0.00243881 0.0535666)
(-0.000636089 0.000819371 0.120562)
(-0.000883603 0.000928467 0.183536)
(0.00240467 -0.00402568 0.0471359)
(0.00020936 -0.000234233 0.180895)
(-0.00319979 -0.000792978 0.0474994)
(0.00239296 -0.00150993 0.0174515)
(-0.000386176 0.000761344 0.146337)
(-0.000196341 0.000400111 0.187378)
(-0.000990637 0.000630731 0.127347)
(0.000615182 -0.00177979 0.122508)
(0.000827919 0.000238214 0.186419)
(0.0017182 -0.000220118 0.0567731)
(0.00077794 -0.000208079 0.171883)
(0.00109024 0.00262442 0.0535083)
(-0.000173383 -7.5561e-05 0.180391)
(0.00167029 0.000903892 0.123638)
(-0.00300445 -0.00201999 0.0257143)
(-0.00130036 0.00024237 0.154783)
(0.00102087 -0.00113874 0.0483482)
(0.00113569 0.00219687 0.0238892)
(-0.0014852 0.000642135 0.147681)
(-0.00153772 7.66454e-05 0.0398818)
(-3.01235e-05 -0.00019512 0.136846)
(-0.000303237 0.00084848 0.188256)
(-1.49195e-05 0.000222272 0.129704)
(8.48851e-05 0.00335087 0.0503138)
(0.00072134 0.000266285 0.186112)
(0.00182936 0.000341766 0.0857137)
(-1.54254e-05 0.000101027 0.194082)
(-0.000434534 0.000213071 0.187073)
(-0.000668137 0.00106185 0.188294)
(-0.000892413 0.000507216 0.186577)
(0.0028283 -0.00109717 0.0407485)
(0.000277275 0.000431207 0.048035)
(0.000853743 0.000226126 0.184347)
(0.000578988 -0.00158962 0.164142)
(0.000512513 0.00229162 0.0289364)
(0.000717744 -0.000167235 0.164454)
(2.83446e-05 0.000457831 0.187432)
(-6.58815e-05 0.000394565 0.182494)
(0.000194275 0.00054356 0.189177)
(-0.00187965 0.000586916 0.11243)
(-0.00149889 0.00215112 0.0195728)
(0.000504125 2.16691e-05 0.183149)
(0.000689776 -0.00120157 0.0962478)
(-0.000549827 0.00143037 0.153145)
(-0.000130385 0.00039065 0.0917957)
(-0.00156481 -0.00103614 0.0265677)
(-0.000130629 -0.000293066 0.190178)
(-0.00212029 0.00265695 0.0872884)
(-0.000240765 -0.000207159 0.131002)
(4.12343e-05 0.000153333 0.192951)
(-0.000530653 0.00158226 0.14025)
(0.00139893 0.001894 0.015763)
(-0.00208852 0.00100069 0.020029)
(-8.28688e-05 0.000758538 0.183327)
(0.00135898 -0.00038003 0.173272)
(-0.00119904 0.00029973 0.193678)
(-0.000840623 -0.00109394 0.154404)
(-0.000317426 0.00148021 0.0878618)
(-0.000478737 0.00108735 0.14941)
(4.44896e-05 0.00106631 0.182024)
(0.000651095 0.00154943 0.0183819)
(-0.000512007 0.00080262 0.186275)
(-0.0151439 0.000873158 0.135033)
(-5.38782e-05 0.00192598 0.0339983)
(-0.000375183 0.00333505 0.0510941)
(-0.000652466 0.000729474 0.143281)
(0.00155004 -0.000789688 0.139535)
(5.25261e-06 -0.00046624 0.136251)
(0.000659963 -0.000570998 0.120606)
(-0.00289996 0.00212886 0.100107)
(0.000692929 8.29344e-05 0.192625)
(0.000635503 -0.00305031 0.0935906)
(0.000171399 -0.000300608 0.181199)
(0.000120869 0.000779985 0.176718)
(-0.000145821 -0.000208472 0.193518)
(-9.7128e-05 -9.76637e-05 0.181813)
(0.00151945 0.00104276 0.0365343)
(-0.000166724 -2.03084e-05 0.167098)
(-0.000257296 -0.00150172 0.0295263)
(-0.0105801 -0.00143402 0.0944326)
(0.0019578 -0.0013814 0.0555609)
(-0.0133216 -7.55001e-05 0.127241)
(0.000614439 0.000788072 0.128019)
(-0.0195366 0.000456528 0.117478)
(7.80178e-05 0.000710292 0.176203)
(-0.00070591 6.49325e-06 0.180456)
(-0.0018419 0.000179221 0.155195)
(-1.81844e-05 0.000375569 0.176826)
(-0.000605217 -0.000200923 0.0302911)
(-0.00455664 0.000140444 0.100941)
(-0.0161092 0.00113 0.112495)
(-0.000158021 -0.000208126 0.184056)
(-0.000806964 0.00211585 0.107873)
(-0.0143711 0.000918635 0.136956)
(-0.00606495 0.000111507 0.157279)
(0.000515865 0.00116514 0.10687)
(-0.00124902 -0.000472522 0.0319238)
(0.00131079 0.00245662 0.0496416)
(-0.000192059 -0.000119577 0.0219857)
(0.00116087 0.00108458 0.020727)
(-0.000148141 3.28454e-06 0.0312248)
(-0.0112218 0.000263347 0.133632)
(-0.000783395 -0.000761168 0.137662)
(-0.00199734 -0.00225845 0.0210452)
(-0.00253 0.000685445 0.0200043)
(0.00019076 -0.000143152 0.195225)
(-0.0149129 0.00327818 0.0961456)
(-0.00152497 0.000157685 0.0336233)
(-0.000721614 5.12113e-06 0.147377)
(-0.00148251 0.00100779 0.101182)
(0.00120997 -0.000446613 0.132057)
(0.00121371 0.00187173 0.037749)
(-0.00103151 -0.00131028 0.0502647)
(0.000163341 0.0012329 0.107198)
(0.000927364 0.000172342 0.174788)
(0.000583429 0.000437881 0.15286)
(-0.00166276 0.00224772 0.0318155)
(-0.000523575 -0.00187568 0.0214718)
(-0.0189034 0.00019989 0.106235)
(-0.00238324 0.00180732 0.0229387)
(-0.000254757 0.00119812 0.132589)
(-0.00308867 -0.00100296 0.0239789)
(0.00047226 0.00210403 0.0998097)
(-0.00138701 3.73247e-05 0.183259)
(0.00118275 0.000240545 0.181579)
(-0.000312605 -0.000869663 0.0392093)
(0.000951959 -0.000440964 0.0937434)
(-0.00177567 -0.000215645 0.0317838)
(-0.00313007 -0.000214578 0.0249639)
(-0.000410261 -0.00072089 0.184554)
(-0.0023137 0.00115188 0.0168442)
(0.000617884 0.000218382 0.169846)
(-0.000300727 -0.00227405 0.0431237)
(-0.000254265 0.00136153 0.156363)
(-0.000231255 0.000815519 0.140269)
(0.00289233 0.00116049 0.0193713)
(-0.00103391 -0.0024175 0.0519721)
(0.000152901 0.000872678 0.148658)
(-0.000134104 0.00149919 0.0306156)
(0.000534256 0.000590327 0.163051)
(-0.00122486 0.00341217 0.0490431)
(0.000122452 9.93095e-05 0.103596)
(0.000154448 -0.000201522 0.18887)
(0.00116652 -4.29196e-05 0.0325111)
(-0.00278946 -0.000579253 0.0210568)
(-0.000941082 -0.00034671 0.0453815)
(-0.0177738 9.55442e-05 0.110797)
(-0.000615284 -3.39173e-05 0.099491)
(1.41799e-05 0.00344645 0.0508631)
(0.001066 -0.000257829 0.0794539)
(0.000387461 0.00112589 0.0270391)
(0.000403242 -5.86194e-05 0.190589)
(0.0010011 0.0013445 0.0209841)
(-0.00090993 0.000175227 0.172093)
(-3.25696e-05 -0.000334275 0.143586)
(-0.00066923 -8.62827e-05 0.171101)
(-0.00168411 -0.000174914 0.0172229)
(9.63214e-05 -0.000591909 0.151376)
(-0.00100907 0.000474495 0.0789646)
(-0.00013378 -1.8233e-05 0.159116)
(0.000202624 0.000598064 0.0494938)
(-0.0146135 0.000392016 0.108168)
(-0.00125647 0.000365279 0.160466)
(0.000580817 -9.31116e-05 0.0354455)
(-0.000539143 2.60758e-06 0.195621)
(-0.0204578 0.00237838 0.108871)
(-0.000717317 -0.00043253 0.114985)
(-0.000683509 -0.0016468 0.0293701)
(-0.00116313 0.00227014 0.0453847)
(-0.000165535 0.00028545 0.187935)
(0.00119586 -0.000876472 0.129944)
(-0.00101573 0.00119712 0.0285268)
(-0.000163613 -0.00220229 0.10631)
(0.00134142 0.00115127 0.0557883)
(-0.00146435 0.00174159 0.0217212)
(-0.000410331 3.82323e-05 0.183942)
(-0.0100955 0.000487973 0.103344)
(-0.000957483 -0.00211705 0.128106)
(-7.54999e-05 0.000613369 0.176971)
(0.000640796 0.000795509 0.181892)
(-3.08046e-05 -2.03414e-05 0.172789)
(0.000793781 -0.000404875 0.130233)
(0.00099275 0.000342213 0.0390416)
(-0.00046104 0.00239518 0.0358623)
(-0.000378373 0.00079169 0.186924)
(-0.0127913 -0.000550468 0.107584)
(0.000175706 0.00103579 0.11771)
(0.00141845 -0.00133361 0.125136)
(0.00185394 -0.000935478 0.076402)
(-0.000596728 0.001553 0.147946)
(0.000711017 0.000905279 0.165326)
(-0.000910061 -0.000977105 0.094561)
(-0.00158676 0.00102802 0.099583)
(-0.00139296 0.00190235 0.035349)
(-0.000457912 -0.000288556 0.0666386)
(-0.00240523 -0.00185398 0.0385143)
(0.000992257 -0.000891843 0.151908)
(0.000531128 -0.000420791 0.179016)
(-0.000880851 0.0026877 0.0893351)
(3.49722e-07 -0.00101376 0.0943732)
(0.00107585 -0.00163117 0.0187296)
(0.000235262 -0.000717144 0.0740718)
(-0.00260308 -0.00123219 0.0530177)
(-0.0010019 0.000294634 0.180025)
(0.00075422 0.000291727 0.183066)
(-0.0112896 -0.000730395 0.104824)
(-0.000965605 0.000605366 0.165221)
(-0.00144074 0.00256829 0.0769772)
(-0.00832879 0.000380089 0.101709)
(0.000702333 -0.00204093 0.130708)
(0.00157185 0.000791175 0.0229695)
(0.000350798 -0.000372746 0.183078)
(-0.000159459 0.00126993 0.0454299)
(-0.0013473 -0.000190442 0.138475)
(0.00318882 -0.00166576 0.0251475)
(0.000673214 -0.000301512 0.178525)
(-0.00506943 -0.000291624 0.101647)
(-0.000797642 6.22784e-06 0.159179)
(0.000542664 -0.000434013 0.11132)
(-0.00072661 0.000887552 0.146194)
(0.00018695 0.00143029 0.14957)
(-0.000431888 -0.000181137 0.191036)
(0.000199562 0.00192212 0.0309804)
(-6.62983e-05 -0.00107863 0.0428782)
(-0.000288472 0.000640963 0.0258215)
(-0.000296299 0.000944055 0.181939)
(0.000387175 -1.03512e-05 0.158663)
(0.00131331 0.000859448 0.134749)
(0.000743773 -0.00134146 0.160711)
(0.000212268 -0.000565587 0.0188622)
(0.000120446 0.000331198 0.0936493)
(0.00157999 -0.00144101 0.0844657)
(-0.000680444 -0.000233762 0.180925)
(-0.000932987 -2.85175e-05 0.124101)
(5.99474e-05 -0.000539021 0.145275)
(-0.00126508 0.000404471 0.102012)
(-0.000308731 -0.000173006 0.186662)
(-0.00251207 0.00182711 0.0185797)
(0.000333123 0.00331898 0.0806478)
(-0.000734409 0.000452633 0.153048)
(-0.000174288 0.00279879 0.0232065)
(0.000373377 0.00204989 0.0407804)
(-0.00101479 -0.000426222 0.0570498)
(-0.00215829 -0.000937631 0.0192529)
(0.00135396 -8.27417e-06 0.0902256)
(-0.000138421 0.000446076 0.171794)
(-0.000659141 0.00218292 0.0562161)
(0.00206691 0.0018217 0.0170478)
(-0.000377682 -0.000794629 0.0996564)
(0.000365049 9.54854e-05 0.0232685)
(1.92826e-06 0.00134761 0.0938202)
(-0.000243514 0.000151436 0.178337)
(-0.000124825 2.05016e-06 0.194532)
(4.96735e-05 -0.000249469 0.177489)
(0.000511819 0.000697488 0.165848)
(-0.00030214 -0.000171693 0.179933)
(-0.000973974 0.00214863 0.127648)
(0.000887634 -0.00103047 0.0424744)
(0.000420088 -0.00047082 0.180585)
(8.66454e-05 -0.0010544 0.120639)
(-0.000835 -0.00153711 0.0835569)
(-0.00151626 -0.000561489 0.0919828)
(-0.00054574 -0.000122337 0.166075)
(-0.00129521 0.000646487 0.111585)
(0.000856413 0.00133781 0.0606309)
(-0.00121212 -0.00104753 0.155321)
(0.000387648 -0.00118754 0.0301188)
(0.00048577 0.000344978 0.0825084)
(0.000278758 -0.000163385 0.0917006)
(-0.000730808 0.000677475 0.0564422)
(-0.000158916 -0.000270263 0.161977)
(-0.0184079 -0.000497614 0.106009)
(-0.00969213 0.000373833 0.127228)
(-0.000555055 0.00256522 0.0292942)
(0.00166193 -0.000258808 0.0238368)
(-0.000129082 0.00223408 0.0519127)
(0.00185122 -0.000405453 0.0183988)
(-0.000548909 0.0006134 0.124156)
(0.000786789 0.00110257 0.155037)
(-0.00120823 0.00129343 0.125957)
(-0.0153428 0.00120077 0.110212)
(-0.000128994 -0.000253427 0.132341)
(0.000766138 0.000581972 0.147029)
(0.0038649 0.0027896 0.0227729)
(-5.56211e-05 0.000874184 0.158835)
(-0.0131371 -0.0003683 0.127566)
(-0.00124479 -0.000351423 0.0401822)
(0.00251278 0.00231652 0.0197822)
(-0.000478054 -0.000331224 0.111437)