/*--------------------------------*- C++ -*----------------------------------*\
| =========                 |                                                 |
| \\      /  F ield         | OpenFOAM: The Open Source CFD Toolbox           |
|  \\    /   O peration     | Version:  2406                                  |
|   \\  /    A nd           | Website:  www.openfoam.com                      |
|    \\/     M anipulation  |                                                 |
\*---------------------------------------------------------------------------*/
FoamFile
{
    version     2.0;
    format      ascii;
    arch        "LSB;label=32;scalar=64";
    class       volScalarField;
    location    "50";
    object      epsilon;
}
// * * * * * * * * * * * * * * * * * * * * * * * * * * * * * * * * * * * * * //

dimensions      [0 2 -3 0 0 0 0];

internalField   nonuniform List<scalar> 
59516
(
0.0109667
0.00988102
0.00764334
0.00680128
0.00924786
0.34518
0.00694444
0.00959257
0.0084293
0.0216526
0.00717971
0.0240373
0.00807055
0.0724229
0.0187476
0.0221279
0.0046509
0.0382391
0.0132116
0.00403958
0.0319832
0.00483671
0.00496358
0.0307738
0.00390971
0.0168544
0.0302729
0.0424305
0.0222895
0.0531537
0.0458012
0.0379023
0.00576795
0.00860556
0.00864169
0.0049321
0.051219
0.043949
0.01576
0.00402203
0.00991662
0.00953963
0.00710105
0.0107853
0.00666204
0.0227014
0.00888254
0.00601105
0.0126374
0.00779074
0.0271139
0.0249932
0.00737679
0.00701522
0.0256413
0.00901464
0.00950604
0.0260642
0.00371613
0.0108222
0.00481178
0.0399226
0.00408502
0.0048544
0.00697616
0.00675607
0.05046
0.0252
0.0200383
0.0075738
0.0245348
0.00446488
0.0403827
0.0058818
0.00357048
0.00567046
0.00564075
0.00487804
0.0228742
0.00762235
0.0290248
0.00769074
0.00836976
0.0447598
0.00795864
0.00388334
0.0314183
0.0048011
0.0207753
0.0255079
0.00993018
0.00585357
0.0035992
0.00602998
0.00447143
0.0106486
0.00567519
0.0231042
0.0294885
0.00498886
0.0256252
0.039061
0.0387007
0.0201845
0.00596874
0.00522803
0.0281479
0.00926927
0.0101522
0.0164501
0.019888
0.0211609
0.0179464
0.0301112
0.00416502
0.0114769
0.0199293
0.00629001
0.0371808
0.00495216
0.00358163
0.00427676
0.00406327
0.00422509
0.0154699
0.0184894
0.0374548
0.0126089
0.0817592
0.00350708
0.0034389
0.00855808
0.0379419
0.00460303
0.0102026
0.00759301
0.0365083
0.00584954
0.0266004
0.0113243
0.023604
0.00331106
0.0511546
0.00692001
0.00399188
0.00523945
0.00742428
0.00896394
0.252786
0.00891768
0.0108706
0.0287896
0.00363658
0.00436795
0.0124537
0.0572713
0.00786997
0.00780286
0.0145583
0.0490784
0.0167831
0.0158743
0.0314765
0.0581312
0.010753
0.00369375
0.0177498
0.00368347
0.0450507
0.00625194
0.0139956
0.0246737
0.0152935
0.00564587
0.0230422
0.00904252
0.00399226
0.00732466
0.0157719
0.0302771
0.00480067
0.0372037
0.0507383
0.0194314
0.00350469
0.0212517
0.0319576
0.045922
0.00723999
0.0107634
0.00629536
0.0232109
0.00401892
0.0202974
0.00425823
0.0364098
0.0223308
0.0282493
0.00903095
0.00430154
0.0151781
0.00349343
0.00974772
0.0487075
0.00639811
0.00509528
0.00356391
0.00496399
0.049669
0.00828516
0.0253024
0.0580282
0.00521888
0.0213216
0.00807742
0.00368944
0.00538407
0.00395793
0.0219778
0.00429026
0.022236
0.00940437
0.00417776
0.0257473
0.00394082
0.00386983
0.0255441
0.0229204
0.00379261
0.0207753
0.00356946
0.00388242
0.00364014
0.0313667
0.0324036
0.0293024
0.020066
0.00987056
0.0044503
0.0242199
0.00344869
0.0455428
0.0223112
0.0394373
0.00357432
0.012536
0.00509428
0.0156879
0.00349773
0.00957361
0.00365279
0.00544402
0.00350817
0.00519577
0.00505171
0.00419353
0.0236966
0.00460494
0.0228681
0.0187882
0.00626904
0.00401284
0.00836837
0.00348429
0.0107824
0.0218526
0.00433574
0.0123113
0.0204182
0.0239156
0.0125757
0.00381883
0.0100985
0.0118937
0.00383635
0.0121427
0.0369267
0.00390435
0.028843
0.0250206
0.00366886
0.00558259
0.0351831
0.00760409
0.00691231
0.00448069
0.00354666
0.0356991
0.00372614
0.00386995
0.00386042
0.00615702
0.00598981
0.0113574
0.0036548
0.0219036
0.00433337
0.00507437
0.00363999
0.00401658
0.00761268
0.0198441
0.038118
0.0216099
0.00376976
0.0474676
0.0151596
0.0241198
0.00389925
0.00349717
0.00406561
0.0199868
0.0098633
0.026918
0.0279166
0.00456318
0.0110474
0.0117218
0.0128994
0.0275724
0.0173302
0.00976958
0.00371726
0.00355295
0.00373095
0.00405864
0.0192843
0.00658821
0.00411539
0.00429487
0.00388799
0.0200463
0.0396148
0.00478985
0.0231722
0.0315957
0.00417011
0.00502862
0.0282508
0.00386384
0.0036577
0.00351138
0.00381491
0.0297763
0.00411822
0.00390757
0.0222325
0.00367077
0.00395031
0.00637565
0.00689284
0.00465426
0.00486
0.0184377
0.0360416
0.0265843
0.0108853
0.0524586
0.0968651
0.0158101
0.00845411
0.00619056
0.00667079
0.00418388
0.00597591
0.00479001
0.00498786
0.0306456
0.036045
0.0220737
0.0263559
0.0273535
0.00438118
0.0112075
0.00426934
0.0428196
0.00664125
0.0269711
0.00412438
0.0266971
0.018365
0.00909899
0.0073186
0.0449291
0.0204331
0.00599356
0.0341998
0.0123158
0.00845123
0.0056641
0.011776
0.0119412
0.00411872
0.0671907
0.00362253
0.0282413
0.0173065
0.0177269
0.00364197
0.0035109
0.0239345
0.00604421
0.0113463
0.00357082
0.0035864
0.0207003
0.00650345
0.00486909
0.00473989
0.00425235
0.0379406
0.0397571
0.00628237
0.0035843
0.00355386
0.0286973
0.00403257
0.0088071
0.0039057
0.0036773
0.00357517
0.00374889
0.00374599
0.0122335
0.00372254
0.0179492
0.00409374
0.00953215
0.00468383
0.00385338
0.00489477
0.005394
0.0259253
0.031801
0.0409252
0.00786977
0.00317846
0.00579257
0.00646264
0.0322133
0.0419467
0.0082999
0.00486531
0.00374351
0.00434355
0.00544902
0.00352342
0.00554737
0.0289068
0.00710218
0.0207943
0.115006
0.00475293
0.0110645
0.00524689
0.0445007
0.00360437
0.00368519
0.00381499
0.0126743
0.00480853
0.00386003
0.00725189
0.00382171
0.0154799
0.00384622
0.00472944
0.0396662
0.00354632
0.00788623
0.0219552
0.0117689
0.00378615
0.00648256
0.0147809
0.0420802
0.0034785
0.00643509
0.00413264
0.00671179
0.0281452
0.00543033
0.0549195
0.00427248
0.0169923
0.00404936
0.0202264
0.00934677
0.0110134
0.0287215
0.00365149
0.00411839
0.0462598
0.00413332
0.00383857
0.0272662
0.0180478
0.0199019
0.00464414
0.00389477
0.0848483
0.0224954
0.0215574
0.00857392
0.00381963
0.0360147
0.00414632
0.00515331
0.00367126
0.114204
0.00371658
0.0328636
0.00406069
0.040727
0.0216308
0.00456175
0.0195005
0.0429899
0.0296621
0.020156
0.0216387
0.00477441
0.0244839
0.0180447
0.0123715
0.00407779
0.0268065
0.00897021
0.0678344
0.00374497
0.0234125
0.00442311
0.0221832
0.00704198
0.00381678
0.0211881
0.00357103
0.0535213
0.0519986
0.00461208
0.00371519
0.00638873
0.00689269
0.00358509
0.0195637
0.00382992
0.019404
0.00388647
0.00659194
0.0279569
0.00432577
0.0205375
0.0277946
0.00479394
0.0272574
0.005883
0.00380422
0.00632507
0.0203446
0.00355226
0.0135048
0.00324431
0.00322277
0.00365054
0.00374633
0.0247591
0.0230081
0.00365401
0.00400183
0.0342135
0.00426295
0.00330697
0.00343521
0.00343853
0.00792718
0.044506
0.00338931
0.0101776
0.00477995
0.0105392
0.025268
0.00385114
0.0129211
0.00557188
0.00350092
0.00535928
0.0518881
0.0391603
0.00388711
0.00412692
0.00373816
0.00517988
0.013227
0.00513077
0.00377125
0.0345798
0.00388406
0.0137887
0.0277959
0.0182309
0.00495574
0.00525673
0.00577964
0.00700801
0.0102791
0.00372413
0.0119369
0.00362531
0.00384782
0.00311653
0.00379758
0.0259219
0.00403428
0.0340471
0.0949096
0.0189861
0.0108729
0.00590757
0.0299628
0.00408122
0.00336475
0.0045081
0.00381935
0.0305764
0.0104277
0.0142838
0.00389003
0.00839078
0.0125762
0.00699577
0.00837597
0.0270288
0.0233474
0.0253259
0.0441175
0.0283652
0.0114224
0.0057582
0.0492379
0.0428269
0.00374736
0.0656919
0.0300308
0.00513934
0.00901382
0.00613294
0.0295981
0.0223219
0.00859921
0.00394583
0.00474896
0.0314314
0.0327988
0.0596109
0.0341924
0.00578491
0.0316924
0.0102017
0.00384717
0.00317059
0.0253199
0.0106221
0.031244
0.0353332
0.00382975
0.0490171
0.00414798
0.0208867
0.00450202
0.00541792
0.0426406
0.021761
0.00484719
0.0286469
0.00440972
0.0233704
0.00953805
0.00363608
0.0289914
0.0397484
0.0219417
0.0190581
0.010143
0.0232589
0.0152537
0.0378556
0.00366283
0.028146
0.00358306
0.00487714
0.00395881
0.0511376
0.00458401
0.0134788
0.00438211
0.0242015
0.0140992
0.00394818
0.0281374
0.00360198
0.029501
0.007178
0.0337391
0.0200884
0.00377757
0.00616344
0.0310459
0.00818177
0.0196898
0.0344648
0.00379465
0.0121253
0.00612878
0.00393761
0.00386103
0.00391632
0.005953
0.0221178
0.0255394
0.00360666
0.0125861
0.00808842
0.00637422
0.0161136
0.00475772
0.00426575
0.0102981
0.0101449
0.0324322
0.0132848
0.0302105
0.00468184
0.00368882
0.0123549
0.0105626
0.0446674
0.0157688
0.022421
0.00375319
0.00365836
0.0127716
0.00435932
0.0153485
0.0160059
0.00596266
0.0405253
0.00367951
0.0256901
0.00553791
0.0358487
0.0034701
0.0106358
0.00441816
0.00833933
0.00522958
0.00477948
0.00359945
0.0272647
0.0196891
0.0388174
0.00401702
0.00453175
0.00612463
0.00391249
0.0620505
0.0105851
0.0125905
0.00392682
0.00672309
0.00540834
0.0104213
0.00387165
0.0421716
0.0139937
0.00498657
0.0262538
0.0244257
0.0182638
0.0418478
0.0125725
0.00395859
0.0188538
0.0473858
0.00952723
0.0246642
0.0101781
0.00389444
0.00373322
0.00397057
0.00376636
0.00392777
0.00653193
0.0320681
0.00376812
0.00646496
0.0136733
0.0107448
0.00416059
0.00808648
0.0168952
0.00411114
0.02945
0.0129607
0.0118333
0.0189204
0.00432873
0.042408
0.0153883
0.0316216
0.0369365
0.020054
0.042516
0.00685692
0.00483546
0.00670876
0.0302281
0.00628813
0.00524305
0.0401986
0.00462014
0.0103527
0.0258893
0.0412069
0.0082123
0.00873389
0.0327511
0.00413361
0.0394463
0.003598
0.00463934
0.00731304
0.00431239
0.00558009
0.0102194
0.00370152
0.0587383
0.0315139
0.0106687
0.0103791
0.0490902
0.00529836
0.0128067
0.00363212
0.00424343
0.0161025
0.00478827
0.00363763
0.0127719
0.0218164
0.0040469
0.0108643
0.0264895
0.00431914
0.00414415
0.00412325
0.0114054
0.00623135
0.00943531
0.0140617
0.0102289
0.010773
0.00592726
0.0203644
0.00469538
0.00383433
0.0093145
0.00499124
0.00905952
0.00727224
0.0291816
0.0198491
0.0069937
0.0054276
0.00591703
0.00370461
0.00459795
0.00357929
0.00338597
0.228201
0.00811829
0.00367852
0.0374902
0.00507192
0.00499968
0.0381522
0.00448468
0.0039327
0.0101851
0.00380289
0.00382845
0.00377188
0.0188306
0.0106203
0.0254339
0.00879603
0.00401158
0.0333134
0.0335804
0.0215454
0.00756833
0.0254415
0.00490691
0.00397742
0.00390908
0.00412946
0.0134921
0.0188946
0.00463199
0.00401456
0.00833785
0.0137365
0.00442643
0.00395423
0.00353679
0.0306947
0.00321806
0.0118361
0.0152144
0.029692
0.0212781
0.0128344
0.00386361
0.0232031
0.00404661
0.00367309
0.0041645
0.00358304
0.00377622
0.0033663
0.00385772
0.00368679
0.0096392
0.00575922
0.00736365
0.0296795
0.0247053
0.00444374
0.00629657
0.0300273
0.00408805
0.00990264
0.00394899
0.00385831
0.00385359
0.00502233
0.0128481
0.00382646
0.12266
0.0112403
0.00385686
0.0701002
0.00409273
0.0286793
0.0141264
0.00455202
0.0158277
0.0268504
0.00447096
0.00474972
0.00441225
0.0290374
0.004174
0.0294786
0.0123137
0.0179952
0.0200817
0.0105874
0.00372367
0.0187232
0.00458918
0.00411296
0.00882946
0.00374305
0.00372412
0.00844565
0.00344964
0.00401168
0.016621
0.00372145
0.0209951
0.0306714
0.00416198
0.00808141
0.0218097
0.00381778
0.0093428
0.0148816
0.00780714
0.0459749
0.00381571
0.00414141
0.00848967
0.0341228
0.0221065
0.0109084
0.0216
0.00586382
0.00637525
0.0102199
0.0460804
0.00861492
0.00373754
0.00875092
0.00394684
0.00402301
0.0278147
0.00460021
0.00371457
0.00842174
0.00541286
0.0305385
0.00818792
0.00474408
0.00324122
0.0182186
0.00445467
0.0126691
0.00878859
0.0389698
0.00800235
0.013597
0.0268327
0.00741069
0.0267178
0.00422706
0.00942384
0.00365858
0.0661422
0.00328827
0.0114473
0.0226647
0.0109445
0.00567663
0.0381724
0.00430382
0.00472243
0.0237976
0.0547792
0.023536
0.00348889
0.00472952
0.00382065
0.0102609
0.0248818
0.00492885
0.0365114
0.00945567
0.00387642
0.00837055
0.0230256
0.00505846
0.0399191
0.0137263
0.00438869
0.00374115
0.0377733
0.00462236
0.00704882
0.021553
0.00378921
0.00445471
0.00300189
0.00786805
0.0114559
0.0213263
0.00396898
0.0046475
0.0390157
0.0278608
0.0207251
0.00369767
0.0116585
0.00415845
0.0242892
0.00363149
0.0297147
0.00577145
0.01557
0.00389971
0.00374755
0.00519059
0.00567708
0.0372192
0.0318813
0.00507652
0.0059581
0.036516
0.0303018
0.00410843
0.00434447
0.00423234
0.0100692
0.00584346
0.00340757
0.00398788
0.0197106
0.0138111
0.0183641
0.00497943
0.01368
0.0314691
0.0297201
0.00342357
0.00878449
0.0114573
0.00427659
0.00416533
0.0368157
0.0038839
0.0038226
0.0264555
0.0377517
0.00393491
0.00334212
0.0380959
0.053173
0.00352138
0.0105226
0.040193
0.0174507
0.00344433
0.00347688
0.0038621
0.0059297
0.00378241
0.0358451
0.0309429
0.00377392
0.00376879
0.0106645
0.0046742
0.0239952
0.0218798
0.0235137
0.00711663
0.0504254
0.00442237
0.0052798
0.0116003
0.0205017
0.0430517
0.00374797
0.00327298
0.00756222
0.00364575
0.00962802
0.00411521
0.0246742
0.0208417
0.210916
0.00937806
0.00533469
0.0102509
0.022781
0.0127359
0.00793385
0.00502228
0.0116708
0.00437155
0.00354095
0.00975286
0.0224593
0.0347364
0.0042468
0.03666
0.0077332
0.00721355
0.0131903
0.0382837
0.00510014
0.0189422
0.049766
0.0415527
0.00618892
0.00358859
0.00651929
0.00641249
0.0140286
0.009206
0.0521649
0.0289779
0.0260023
0.00360206
0.0102504
0.00518594
0.0094756
0.00966757
0.00628571
0.0408724
0.00768335
0.0398878
0.00395332
0.00906651
0.034771
0.00352488
0.0118292
0.00637852
0.0129492
0.022654
0.0407558
0.0044018
0.0244629
0.00407047
0.00390006
0.00725791
0.0179009
0.036522
0.00885435
0.0266302
0.00433753
0.0043131
0.00389468
0.0236478
0.00427352
0.00436713
0.00448783
0.00421193
0.0418425
0.0246528
0.0039535
0.0091611
0.0185434
0.00375894
0.00700964
0.0067028
0.0107406
0.029048
0.132035
0.0255369
0.00442547
0.0038423
0.00725382
0.0379325
0.0297915
0.00475343
0.00788135
0.017592
0.00356908
0.00419322
0.00402638
0.00377021
0.00352939
0.00406134
0.00542835
0.00865729
0.00816283
0.00862263
0.0159795
0.018802
0.00354666
0.00644935
0.0306018
0.0223245
0.00339664
0.0316618
0.00482944
0.0111122
0.00371085
0.00500758
0.00846043
0.00343671
0.0037482
0.00379928
0.0218028
0.0248864
0.00441826
0.00348535
0.0399304
0.0135916
0.0072503
0.00377389
0.00553503
0.0509473
0.010046
0.0059241
0.0145975
0.00349431
0.00781048
0.0434826
0.00698789
0.036351
0.0121466
0.0485467
0.00430034
0.00454182
0.00352118
0.0418782
0.0221702
0.0137608
0.00430467
0.0247864
0.0239651
0.0119991
0.00380695
0.0302607
0.00326899
0.00450841
0.0181344
0.0190601
0.0244011
0.00385593
0.00347678
0.00495387
0.00739119
0.0108373
0.0104997
0.0109803
0.0335488
0.0342999
0.0278385
0.0122992
0.00372719
0.0315449
0.0513926
0.0236855
0.0376657
0.00463936
0.0358043
0.00381337
0.00387874
0.00513858
0.0181292
0.00423876
0.0303693
0.0193953
0.00373882
0.00393179
0.00757268
0.00988483
0.00392225
0.0406911
0.00635929
0.00437335
0.00391761
0.0120042
0.00442683
0.00338641
0.00994673
0.0281261
0.0369606
0.0100268
0.00373458
0.0331856
0.0140121
0.0035184
0.0281802
0.0303428
0.010653
0.0447596
0.0167033
0.0425573
0.0244338
0.0300303
0.0443238
0.0290058
0.0468458
0.00957671
0.014601
0.00376659
0.0444233
0.00348462
0.00658627
0.00466995
0.008152
0.00468212
0.0317289
0.00411792
0.0107107
0.0121488
0.00374499
0.00638197
0.0526763
0.00808786
0.0135464
0.0324615
0.0338332
0.00543947
0.0121291
0.0363551
0.00504245
0.00557357
0.00366881
0.00394648
0.0242423
0.00786377
0.0134544
0.0111415
0.0054757
0.00534712
0.00394959
0.0120337
0.00432528
0.0060861
0.0106164
0.00982447
0.00948822
0.0077006
0.0128794
0.00388951
0.00619773
0.0434549
0.00548287
0.0478377
0.11982
0.0224957
0.00542104
0.00571663
0.00800779
0.0045355
0.00809333
0.0155091
0.00859105
0.0471464
0.0390781
0.0550318
0.0217906
0.0227913
0.00370802
0.0241275
0.00802539
0.0357786
0.0329606
0.00361969
0.0221081
0.00448182
0.00669824
0.00414388
0.0294369
0.0250254
0.00700282
0.00500961
0.0451093
0.0056885
0.0202909
0.00964358
0.00358849
0.00465487
0.00373059
0.0106763
0.0111215
0.0134633
0.0177586
0.0295502
0.0249054
0.0339025
0.00911968
0.0036822
0.0157747
0.0203564
0.0106811
0.00448157
0.00455237
0.0218426
0.00579155
0.0360363
0.0180096
0.0047534
0.0241913
0.014323
0.0115984
0.00756108
0.00995034
0.0050809
0.0120222
0.0105194
0.00400056
0.00899185
0.00401879
0.0399271
0.0411381
0.00677498
0.0101365
0.00491723
0.00923077
0.0111065
0.044864
0.00613854
0.0064814
0.005255
0.0124987
0.0266303
0.0209253
0.0256636
0.00720391
0.0188388
0.0098417
0.0403158
0.00785275
0.0262432
0.0147305
0.00395386
0.0216578
0.00455582
0.00449025
0.0284079
0.0356946
0.00821964
0.0678013
0.00475534
0.004065
0.0135856
0.005099
0.0181354
0.00788619
0.0325322
0.0094292
0.00721663
0.00356647
0.0500985
0.0041455
0.00684859
0.014497
0.00602139
0.0301994
0.00424416
0.0317219
0.00493128
0.00725727
0.00539496
0.00597995
0.0264478
0.0396503
0.0060228
0.00358737
0.0271634
0.00951847
0.0324021
0.00668916
0.020451
0.0437149
0.0114235
0.00511925
0.0131572
0.00368893
0.00825014
0.0052689
0.0332164
0.00378278
0.0305062
0.0153973
0.00387781
0.00386849
0.00700526
0.0414288
0.0243737
0.00406166
0.00399533
0.00530902
0.00483788
0.00475706
0.05787
0.00553862
0.00552094
0.00640945
0.0229078
0.00648112
0.00385297
0.00647331
0.00378945
0.00419499
0.0211522
0.00452366
0.0249689
0.00472344
0.0115867
0.00630816
0.00465482
0.0035939
0.00386582
0.0296304
0.003429
0.0219876
0.035453
0.00672883
0.0233372
0.00454571
0.0428367
0.0225121
0.023523
0.0144512
0.00698393
0.0326538
0.0324225
0.00559635
0.0118308
0.00354351
0.0102849
0.0401234
0.0132239
0.0275435
0.00890419
0.00492207
0.0222099
0.00500776
0.00348052
0.00410778
0.00414049
0.00349759
0.00412574
0.00354044
0.00480674
0.0205938
0.0462107
0.00527305
0.0481768
0.00744023
0.00745068
0.014162
0.00363848
0.00665636
0.0281293
0.00370849
0.0263459
0.0111475
0.019385
0.00602405
0.00357122
0.0146656
0.00967622
0.0260735
0.0070014
0.00752411
0.0129692
0.00539685
0.0503958
0.0355238
0.0033513
0.00689855
0.00385558
0.0101861
0.0572533
0.00365755
0.0187585
0.00345009
0.00454919
0.0312745
0.00451098
0.00376882
0.0300682
0.0215784
0.00358133
0.0107689
0.0389251
0.00433219
0.0231342
0.0390261
0.0116024
0.00363788
0.00372801
0.00534193
0.00407229
0.00501184
0.00383098
0.00846616
0.00975926
0.00357509
0.00501279
0.0451235
0.0288535
0.00729743
0.0040554
0.00792621
0.0404971
0.0360894
0.00498343
0.0256572
0.00476458
0.00406293
0.003685
0.0254263
0.0148156
0.00381966
0.00859827
0.00492005
0.00542623
0.0213199
0.0313992
0.00382897
0.0351279
0.017279
0.0308861
0.0260345
0.00385587
0.0038022
0.00499068
0.00955327
0.0120001
0.0121883
0.00381835
0.00482691
0.0226764
0.003251
0.00430877
0.00429955
0.0371883
0.00705336
0.0373364
0.0122972
0.0249523
0.00429486
0.0052156
0.0117412
0.0318845
0.0139509
0.0185852
0.0492777
0.00455217
0.0386686
0.0217609
0.00382063
0.00401674
0.00362008
0.0288422
0.00939071
0.0236339
0.00369957
0.00442204
0.00386173
0.00373527
0.0265297
0.00508324
0.00803834
0.00373097
0.00374278
0.00381609
0.00408866
0.00382075
0.0445731
0.0293258
0.00823476
0.00357042
0.00512688
0.0268546
0.00367214
0.0203557
0.00722744
0.00537363
0.0134232
0.0209867
0.0205254
0.0480977
0.00437294
0.00507135
0.021471
0.00751438
0.0457891
0.00462797
0.00319462
0.0409435
0.0076171
0.00648926
0.00396939
0.091755
0.0479056
0.0327778
0.0176139
0.0198049
0.0385696
0.0322163
0.0448692
0.0137496
0.00413566
0.00596827
0.00456041
0.00703231
0.0415368
0.00414739
0.00801612
0.0501476
0.0494286
0.0342069
0.012667
0.0257656
0.00441056
0.0149238
0.00381455
0.0081669
0.0259904
0.0133028
0.00452282
0.00368274
0.00479996
0.00406842
0.00392571
0.0239789
0.00937054
0.00456427
0.00442216
0.0551889
0.0135189
0.00952075
0.00682972
0.00809587
0.00371514
0.0209266
0.034641
0.0423327
0.0109241
0.00358352
0.00318532
0.0047363
0.0193747
0.00934121
0.0252491
0.010843
0.00400697
0.0261696
0.0196608
0.00387581
0.00498898
0.00443266
0.00398346
0.012769
0.0175126
0.00475801
0.0102161
0.00724765
0.00532407
0.00627079
0.00404098
0.0144811
0.00526774
0.0447404
0.0343989
0.0488029
0.011763
0.00786571
0.0103796
0.0259607
0.00465059
0.0248935
0.0209801
0.0437907
0.00770433
0.00323983
0.00374477
0.0432115
0.0202792
0.0250547
0.0373989
0.0211048
0.00334001
0.00323737
0.0326252
0.028411
0.0214588
0.0038006
0.0031539
0.00521299
0.0117969
0.00434077
0.00515117
0.0110888
0.029517
0.00346963
0.00544016
0.0052728
0.00737904
0.0049624
0.00359822
0.0158588
0.00738649
0.0173063
0.00964936
0.00383981
0.00354518
0.052295
0.00388218
0.0377101
0.0041474
0.00462332
0.00389148
0.00418374
0.0225772
0.0401069
0.0222731
0.00395171
0.00364159
0.00677416
0.00370927
0.0362135
0.0123673
0.0040457
0.00361907
0.0088366
0.026015
0.0151144
0.00888021
0.00358463
0.00412104
0.00411878
0.00320964
0.00440362
0.00484198
0.0128728
0.00382587
0.00402097
0.00499367
0.0128372
0.0298942
0.0403617
0.0158487
0.00958059
0.00335441
0.0034253
0.0343415
0.00886998
0.00552164
0.0059972
0.0115357
0.00395322
0.00513069
0.00638803
0.00320047
0.0103069
0.00606891
0.0231335
0.00880409
0.00515921
0.0388972
0.00680578
0.00467612
0.00587941
0.00393563
0.00339852
0.0388458
0.00394315
0.0138138
0.00353146
0.016048
0.00359996
0.00642111
0.0120163
0.00713611
0.0394589
0.00674597
0.0254062
0.0283834
0.00488785
0.0359368
0.00385827
0.0042487
0.00347744
0.0245715
0.0106046
0.0409212
0.00606085
0.0292377
0.0112831
0.00433154
0.00358046
0.00359264
0.00488253
0.00451618
0.00370016
0.00468614
0.0042964
0.00453744
0.025068
0.0110051
0.00335652
0.00330901
0.0202314
0.00473179
0.00394596
0.00353089
0.0391825
0.00593332
0.0391306
0.00336378
0.0331551
0.0287993
0.00822546
0.00610675
0.00561217
0.00805033
0.0306639
0.00411311
0.0311999
0.0312173
0.00456367
0.0236518
0.0137986
0.00638448
0.00418675
0.0420454
0.0201661
0.0315517
0.00392008
0.00423468
0.0185146
0.00422939
0.0121371
0.0191757
0.00536003
0.0277248
0.00581257
0.00481135
0.00380898
0.00381648
0.00366678
0.00324795
0.00738872
0.00308863
0.00460906
0.00399497
0.00945794
0.0110791
0.00323382
0.0150142
0.00469235
0.00485175
0.0044742
0.00518602
0.00332834
0.005662
0.0279439
0.00423808
0.00332375
0.0202695
0.00729471
0.00355191
0.106174
0.00438177
0.00398925
0.0117469
0.00668444
0.0232159
0.00834982
0.00335351
0.00467525
0.0114789
0.0226073
0.0198807
0.00664846
0.0265398
0.0316564
0.0341176
0.0054203
0.00339611
0.00323521
0.00591695
0.00481622
0.00538757
0.0193497
0.0092374
0.00339736
0.00320554
0.00332205
0.00333984
0.0361444
0.0529021
0.0457134
0.0173341
0.00485147
0.00389908
0.0035126
0.0129302
0.00466375
0.00387242
0.0421664
0.00368264
0.00431104
0.00353636
0.00387495
0.016364
0.0225564
0.00751257
0.0237132
0.00407534
0.00507312
0.0109619
0.00467394
0.0116778
0.0188142
0.0103981
0.00363021
0.0132485
0.00682984
0.00371815
0.0192788
0.0270961
0.00402971
0.00371607
0.0213953
0.0281704
0.0122004
0.03739
0.00347857
0.00792151
0.0221621
0.0033833
0.00358915
0.00351005
0.00665388
0.00410231
0.00438733
0.0043306
0.00526481
0.0131809
0.00508292
0.0172891
0.0152591
0.022757
0.00358585
0.00826061
0.00430331
0.00567809
0.0118663
0.0101214
0.0422007
0.0102253
0.042991
0.0120741
0.00532805
0.0042662
0.0035333
0.0042559
0.0303231
0.0244252
0.00411912
0.0149898
0.0181466
0.00665378
0.0258346
0.00337927
0.0050086
0.00395158
0.0080473
0.00400248
0.00750512
0.00456979
0.0285297
0.00388483
0.030886
0.0320734
0.0185769
0.00580708
0.00762819
0.00367332
0.0316631
0.00727305
0.00464743
0.0102922
0.0142771
0.0127603
0.0278214
0.0200971
0.0271076
0.0183437
0.003115
0.0229822
0.00450687
0.0199261
0.045076
0.0117128
0.0260663
0.0539171
0.0406539
0.00563225
0.00819172
0.00402449
0.0184525
0.00359102
0.0297053
0.0085488
0.0202059
0.00479328
0.00395128
0.0450159
0.00609054
0.00448337
0.00449525
0.00612577
0.00625327
0.00411477
0.00421476
0.00403521
0.0053431
0.0288412
0.0126148
0.0240299
0.00433738
0.0371626
0.012826
0.00443678
0.0163335
0.00927227
0.0444912
0.00852262
0.00997796
0.0034468
0.00695932
0.00382126
0.00563522
0.00367788
0.00577173
0.00316713
0.0221956
0.0229296
0.00432586
0.00433076
0.005693
0.00459227
0.00406225
0.00507528
0.00483826
0.0310242
0.00449869
0.00352327
0.0310478
0.00686706
0.0311047
0.00634009
0.0176403
0.0250709
0.00415256
0.0272844
0.0299778
0.0409367
0.0341146
0.0298349
0.00364624
0.0101497
0.00349153
0.00605587
0.0198918
0.00415111
0.0036422
0.00393686
0.041911
0.00491243
0.00887625
0.00813406
0.0045203
0.0338213
0.0322674
0.00490742
0.0289703
0.00359859
0.0242069
0.00714523
0.0174357
0.00335705
0.00342183
0.00411447
0.0263722
0.040538
0.0291939
0.00431542
0.0203122
0.0535076
0.00821181
0.0116339
0.0334535
0.0109948
0.02013
0.00635944
0.00475116
0.00356132
0.00487768
0.095995
0.00919597
0.0398875
0.00351658
0.00458599
0.00718007
0.00431287
0.0122112
0.00880473
0.0406585
0.00501216
0.010424
0.00359671
0.00377272
0.0208129
0.0487821
0.00359367
0.00406877
0.00369647
0.0181043
0.00567984
0.0401348
0.0277453
0.0250328
0.00376436
0.0334343
0.00855209
0.0463697
0.0237198
0.00519245
0.0231952
0.0296423
0.0306919
0.00475154
0.00461894
0.00392998
0.0223609
0.00633936
0.00345005
0.00744504
0.00766024
0.00495289
0.00372079
0.00381066
0.0400233
0.00467819
0.0136425
0.0173961
0.0248342
0.00357153
0.00366949
0.0109487
0.00505845
0.0486482
0.00836685
0.00664261
0.0444949
0.00390716
0.00405182
0.00498426
0.0206299
0.00354304
0.022506
0.00334574
0.0203759
0.0416909
0.0036903
0.00379935
0.0183734
0.00487218
0.00387627
0.00357827
0.00349883
0.0209244
0.0325264
0.00381243
0.00493061
0.00497632
0.00427255
0.0230262
0.00572852
0.0212057
0.0181634
0.00403865
0.00408009
0.0104001
0.00482166
0.00765327
0.0281415
0.0656275
0.00361047
0.00438008
0.0230857
0.0342031
0.0131705
0.00497267
0.00526757
0.0417212
0.0122231
0.00428527
0.00365866
0.00413324
0.00469594
0.0084391
0.0034807
0.00444833
0.00386248
0.0126617
0.0310033
0.0408677
0.0075262
0.00941484
0.00479801
0.00430548
0.00371978
0.00390611
0.00356434
0.00407927
0.00424876
0.00376241
0.0102371
0.00423997
0.00439325
0.0114122
0.00421932
0.011272
0.0314937
0.00721176
0.00569438
0.00603457
0.0067994
0.00604112
0.0120332
0.0227479
0.0048397
0.0045879
0.00513843
0.00764897
0.0361219
0.00715025
0.0100378
0.0395182
0.00550519
0.0317343
0.0073412
0.00447162
0.00503839
0.00575134
0.00878436
0.0279765
0.0369611
0.0662231
0.00385433
0.0234045
0.00419672
0.00411158
0.0253182
0.00360337
0.0110998
0.00354319
0.00762466
0.00720196
0.0155214
0.00325929
0.00348874
0.0483064
0.00421862
0.0284172
0.0495477
0.00584658
0.0184759
0.00367676
0.00386236
0.00370915
0.00991236
0.0137805
0.00501379
0.00388083
0.00502497
0.0215288
0.0364345
0.00751998
0.0045335
0.00845565
0.00375846
0.0135471
0.0109836
0.00397477
0.00373201
0.00385042
0.0120088
0.00919647
0.012961
0.00613067
0.00501429
0.00859291
0.00993368
0.0287941
0.00469844
0.00510182
0.00422298
0.00407661
0.00490637
0.00349555
0.0274349
0.00701238
0.0149601
0.0217359
0.00426497
0.0146358
0.00337688
0.00367492
0.0048796
0.0402377
0.0104767
0.00501739
0.00351302
0.0198291
0.0042543
0.0145243
0.00619779
0.013932
0.00865955
0.00431305
0.00377127
0.0501432
0.00557321
0.00361965
0.00421543
0.0115834
0.00460265
0.00426115
0.132299
0.00326991
0.0250756
0.00483329
0.00367623
0.00392719
0.00797495
0.0113808
0.015434
0.0198426
0.028865
0.00362942
0.0036091
0.0884904
0.0271091
0.00490513
0.00538315
0.0219015
0.00968458
0.00511333
0.00550609
0.00503465
0.0434807
0.00421865
0.0204842
0.0251775
0.00382688
0.0214436
0.0130422
0.0371966
0.0244287
0.0134418
0.021857
0.0071648
0.0209222
0.00832151
0.0305943
0.0391311
0.0070721
0.0322028
0.0195181
0.00504352
0.0343167
0.00488551
0.0207657
0.017001
0.0224065
0.00345064
0.0332206
0.0309251
0.00615284
0.0049438
0.00683454
0.0239448
0.00597703
0.0129096
0.00685577
0.017808
0.0105045
0.00342625
0.0109674
0.00352491
0.00567831
0.00598158
0.00361444
0.051286
0.00667628
0.00777999
0.00438491
0.034909
0.0076414
0.0513181
0.0107614
0.0110963
0.00393726
0.00444856
0.00837087
0.0046896
0.0206763
0.003804
0.00400485
0.0140522
0.00325553
0.0175993
0.00416408
0.00603501
0.0194302
0.0150135
0.0175352
0.00360304
0.00505674
0.0189644
0.00610441
0.00747475
0.0441234
0.00401131
0.0404859
0.0248793
0.00857994
0.00465867
0.00543433
0.021458
0.00371678
0.00412066
0.010375
0.0206571
0.0129189
0.0315567
0.00501852
0.012205
0.00602165
0.0118934
0.00379148
0.00539233
0.0284927
0.006011
0.00379564
0.0117895
0.0513712
0.0175638
0.00512415
0.0216138
0.0125424
0.0199528
0.00546458
0.0124409
0.0233825
0.0228004
0.00347852
0.0393028
0.00459563
0.0340777
0.00358178
0.0104733
0.00434352
0.0296868
0.00523938
0.00341267
0.0042925
0.00364978
0.0108173
0.0449838
0.0445942
0.0312814
0.051162
0.00469091
0.0293055
0.00344553
0.00459231
0.00675492
0.00416396
0.0375641
0.0195601
0.0220009
0.00455723
0.0325979
0.00487767
0.0108768
0.00549179
0.0191804
0.0291456
0.0339128
0.00445058
0.0215221
0.00369816
0.00674984
0.00681502
0.0217422
0.0220745
0.00741152
0.0103539
0.0248236
0.00387002
0.00450648
0.0139453
0.01093
0.00513194
0.00393666
0.00445704
0.00361577
0.0039115
0.00999727
0.0133939
0.00402097
0.0520121
0.0333702
0.00658522
0.00443072
0.00347809
0.034642
0.0241157
0.00332692
0.0107363
0.00327477
0.0274255
0.00337811
0.00337993
0.00451377
0.0196321
0.0133926
0.0364937
0.0403441
0.00757966
0.0432096
0.0065571
0.015216
0.00661041
0.00603885
0.00401933
0.0371592
0.0574754
0.00365688
0.00635661
0.0298899
0.00393503
0.00454529
0.0305696
0.0422642
0.0457048
0.0252814
0.0151865
0.0410941
0.0126346
0.00363801
0.0294764
0.0458475
0.00711233
0.00445152
0.00385405
0.00506133
0.0109201
0.0546452
0.00353604
0.0275702
0.00397423
0.0239063
0.00985095
0.00677761
0.00964889
0.00814637
0.0314947
0.0037415
0.0103158
0.00348399
0.039199
0.00740354
0.0223187
0.0101028
0.0169466
0.0360767
0.00874494
0.00900547
0.00771634
0.0150214
0.00464915
0.0233221
0.0299701
0.0235873
0.00610871
0.00834354
0.00625278
0.0301898
0.00842906
0.0386906
0.0549261
0.00533621
0.00342796
0.0221698
0.0285476
0.0118949
0.00385021
0.00748838
0.00439262
0.00693171
0.00565863
0.00428538
0.0051196
0.00343915
0.0215293
0.0420318
0.00678393
0.00375835
0.00364445
0.0117539
0.0500769
0.0111346
0.00387881
0.0207004
0.0101719
0.00752346
0.0104643
0.00365984
0.00432716
0.00363129