/*--------------------------------*- C++ -*----------------------------------*\
| =========                 |                                                 |
| \\      /  F ield         | OpenFOAM: The Open Source CFD Toolbox           |
|  \\    /   O peration     | Version:  2406                                  |
|   \\  /    A nd           | Website:  www.openfoam.com                      |
|    \\/     M anipulation  |                                                 |
\*---------------------------------------------------------------------------*/
FoamFile
{
    version     2.0;
    format      ascii;
    arch        "LSB;label=32;scalar=64";
    class       volScalarField;
    location    "50";
    object      k;
}
// * * * * * * * * * * * * * * * * * * * * * * * * * * * * * * * * * * * * * //

dimensions      [0 2 -2 0 0 0 0];

internalField   nonuniform List<scalar> 
59516
(
0.000436556
0.000812686
0.000103104
0.000347002
0.00754735
0.0173739
0.000156897
0.000452499
0.000187512
0.00294942
0.00347637
0.00265276
0.000245451
0.00718959
0.00245123
0.00258054
0.000802293
0.00421058
0.000895131
0.000334302
0.00451691
0.00010617
0.000237531
0.00415065
5.79467e-05
0.00212153
0.00403501
0.00558013
0.00289343
0.00592396
0.00702749
0.00521144
7.31016e-05
0.000430217
0.000843376
0.000110976
0.00575964
0.00422432
0.00116132
0.000150487
0.000398505
0.00265471
0.000751623
0.00066958
0.000322492
0.00263016
0.000471274
0.00157373
0.00759421
0.00153757
0.0090156
0.00363515
0.000101636
0.000122976
0.00410541
0.000444529
0.00332982
0.00391355
0.000527747
0.0011061
0.000239332
0.00551361
0.000551619
0.000767383
0.00032734
0.000547713
0.00683717
0.0036233
0.00615689
0.000176702
0.00532971
0.000426526
0.00586092
0.000187395
0.000863193
0.000719883
0.00128839
0.000187728
0.00344859
0.00143417
0.00396653
0.000943041
0.000652045
0.00583633
0.00100895
0.000748215
0.00401758
0.00011065
0.00248344
0.00238385
0.00534236
0.000303843
0.000484468
0.000243822
0.000501702
0.00778759
0.000245078
0.002559
0.00330407
0.000208999
0.00403494
0.00584237
0.00570819
0.00247632
0.000111603
0.000398577
0.00409179
0.00022871
0.000568841
0.00226295
0.00464875
0.00475176
0.00248827
0.00453256
0.000282298
0.000525135
0.00242973
0.000202754
0.00544488
0.00020114
0.00110821
0.000639261
0.000147847
0.000586107
0.00397634
0.00138983
0.00616456
0.00243371
0.0105244
0.000776358
0.000908356
0.000266536
0.00548977
7.06162e-05
0.000684468
0.000119279
0.00443732
3.06006e-05
0.00385633
0.000894295
0.00354025
0.000734456
0.00580464
0.000148214
0.000845828
0.000141938
0.000377597
0.000322424
0.0198324
0.000357032
0.000787715
0.00384757
0.000226211
0.000168624
0.000820431
0.00621106
0.000338204
0.000189322
0.0010786
0.005859
0.00231236
0.00218053
0.00416191
0.00693576
0.00052105
0.000542052
0.00228894
0.000744548
0.00569188
0.000419676
0.00100911
0.00267145
0.00174646
8.06639e-05
0.00319571
0.000589633
0.000534848
0.000983777
0.00214687
0.00372723
8.98867e-05
0.00450798
0.00698895
0.00203579
0.000701531
0.00244557
0.00372465
0.00587634
0.000138951
0.000625921
0.000352769
0.00265858
0.000395036
0.00202637
8.91584e-05
0.00415724
0.00243809
0.00359414
0.000591474
0.000124629
0.0014745
0.000972679
0.000474202
0.00582488
9.6777e-05
0.000138076
0.000876471
0.000492176
0.00611242
0.000404605
0.00302739
0.00740913
0.000156199
0.00265399
0.00026483
0.000425741
0.000139116
8.32973e-05
0.00269709
0.000186356
0.00274633
0.000780114
0.000465691
0.00397482
0.000558279
0.000615894
0.0049689
0.00343768
0.000569968
0.00259244
0.000433947
0.000642272
0.0010315
0.00516904
0.00413057
0.00366106
0.00213691
0.000352161
0.000321165
0.00287769
0.000959445
0.00598098
0.00243554
0.00600356
0.000913842
0.000758247
0.000266147
0.00227181
0.000297894
0.000374816
0.000204313
0.000220857
0.00111687
0.000266818
0.000197936
0.000268449
0.00281622
0.000268513
0.00351131
0.00239684
9.41033e-05
0.000349414
0.000354626
0.000556235
0.000415765
0.00237471
0.000383575
0.000809456
0.00361428
0.00254438
0.000946572
0.000587275
0.000496001
0.000865487
0.000364153
0.000758243
0.0051804
0.000232049
0.00508155
0.00361247
0.000975056
0.000139209
0.00560544
0.000243128
0.000134706
0.000747767
0.000844536
0.005802
0.00101086
0.00136616
0.000668991
0.000153663
0.000238757
0.000733658
0.000399096
0.00480027
0.000420477
6.86512e-05
0.00114305
0.000672429
0.000121807
0.00226094
0.00555948
0.0044314
0.000137314
0.00591841
0.00261175
0.00296579
0.000449068
0.000469815
6.12832e-05
0.00229452
0.00054752
0.00407914
0.00291167
0.000443634
0.000681095
0.00821846
0.00101111
0.00363137
0.00245105
0.000526574
0.0006755
0.000979916
0.00117896
0.000210862
0.00167716
0.000206349
0.000546166
0.000324001
0.000207369
0.00236415
0.00569985
0.000201438
0.0033567
0.00402125
0.000364142
7.74045e-05
0.00296905
0.000659816
0.000210769
0.000905403
0.000639652
0.00375214
0.00019601
0.000926744
0.00256208
0.000969146
0.000809386
0.000212683
0.00024626
0.000259503
6.4621e-05
0.00146763
0.00432208
0.00390896
0.000774453
0.00602733
0.0111201
0.00113169
0.000373592
0.000233634
0.00281114
0.000140217
9.60105e-05
0.000194314
0.000268469
0.00410713
0.00682078
0.00273853
0.00361422
0.00386549
0.000394891
0.000830987
0.000314427
0.00549414
0.000158906
0.00383194
0.000525723
0.00260187
0.00224356
0.000257382
0.00373627
0.00595546
0.00251968
0.000161695
0.00536781
0.00120042
0.00030768
5.19743e-05
0.000908228
0.00089155
0.000313373
0.00648361
0.000954797
0.00352306
0.00233482
0.00233851
0.000801967
0.000680718
0.00246473
6.28233e-05
0.000569483
0.00085964
0.00079451
0.00337421
0.000215718
0.000143345
0.000115918
0.000182123
0.00570357
0.00552301
7.53582e-05
0.0006269
0.000950804
0.00396387
0.000598287
0.00031361
0.000926729
0.000748579
0.000932318
0.000660702
0.000602869
0.000603139
0.000890193
0.00227638
0.000510753
0.000475512
0.00029124
0.000775569
9.97251e-05
0.000246207
0.0035083
0.00416324
0.0055118
0.00252994
0.000859809
0.000227629
8.74651e-05
0.00394673
0.00587262
0.000306047
0.000316033
0.00075137
0.000184798
7.91388e-05
0.00115154
7.6114e-05
0.00520484
0.000195207
0.00236694
0.011816
0.000408728
0.000780771
0.000200103
0.00592965
0.000805036
0.000979
0.000872037
0.000672811
0.000306037
0.000712968
0.000356456
0.00110655
0.0011779
0.000562656
0.000101208
0.00547614
0.000760875
0.000243289
0.00339156
0.000564826
0.000447723
0.00015204
0.00115334
0.00553384
0.000489658
8.64362e-05
0.000283663
0.000152693
0.00361315
0.000192184
0.00709423
0.000500148
0.009516
0.000614454
0.00342051
0.000348075
0.000526771
0.00343244
0.00121484
0.00093224
0.00613098
0.000432963
0.00125961
0.00403454
0.002273
0.00232821
0.000317564
0.00104368
0.00978728
0.00247544
0.00238802
0.000194742
0.00109521
0.00542951
0.000186511
0.00025439
0.000857835
0.0136548
0.000345538
0.00512289
0.00036837
0.00588306
0.00225456
0.00014624
0.00229921
0.00570733
0.00414794
0.00314984
0.0025819
4.96055e-05
0.00269539
0.00213381
0.00477196
0.000762216
0.00505172
0.000332241
0.00624527
0.000589991
0.00268021
0.000727634
0.00278135
0.000244212
0.000866184
0.00294781
0.000493636
0.00620984
0.00602494
9.19196e-05
0.000940487
0.000158022
0.000166223
0.000818613
0.00264324
0.000423064
0.00230403
0.000753596
0.000177794
0.00504569
0.000150706
0.00344482
0.00508246
0.000104746
0.00353972
0.000212864
0.00107011
0.000212629
0.00236214
0.000725886
0.000966985
0.000824631
0.000524785
0.000902665
0.000945899
0.00348223
0.00271277
0.000712231
0.000219715
0.00441787
0.000416445
0.000616239
0.000559494
0.000799601
0.00013473
0.00577225
0.00047185
0.000719526
0.000319228
0.000500597
0.00493267
0.00115503
0.000940737
5.31829e-05
0.00100859
0.000127416
0.00560548
0.00546149
0.000895608
0.000553585
0.00118031
0.000493071
0.000875812
0.000202664
0.00073491
0.00513365
0.00104628
0.00309982
0.00403028
0.00218327
6.72331e-05
0.000123031
0.000113586
0.000112237
0.000441901
0.00120616
0.000915568
0.000589486
0.000578023
0.000648132
0.000755943
0.00392128
0.00038323
0.00422438
0.0101771
0.00219869
0.00545678
0.000147993
0.00459272
0.000784688
0.000396644
0.000164276
0.000636907
0.00395363
0.00959776
0.00729288
0.000947477
0.000162264
0.0029077
0.00261821
0.000294646
0.00364106
0.00227735
0.00465824
0.00611601
0.00544188
0.00133941
0.000267096
0.00625889
0.00569032
0.00127206
0.00808078
0.00406212
0.000154079
0.000219055
0.000131825
0.00416935
0.0025594
0.000228105
0.000627764
0.000258109
0.00412614
0.0051458
0.0100843
0.00564133
0.000170996
0.0052986
0.000576688
0.000875023
0.000313857
0.00351339
0.000607456
0.00383928
0.00565694
0.000820814
0.00571791
0.000503726
0.0034853
0.000256413
0.000142224
0.00569686
0.0025382
0.000133826
0.00380904
0.000476367
0.00278073
0.000347227
0.000956617
0.00390442
0.00555825
0.0033965
0.0078298
0.000417327
0.00265794
0.00089139
0.00432353
0.00102133
0.00502676
0.000290942
1.60466e-05
0.00047102
0.00589573
0.000111735
0.000978047
0.000281155
0.00288603
0.00836894
0.000130355
0.00361193
0.00118816
0.00801264
9.56319e-05
0.00417954
0.00337735
0.000983332
8.87079e-05
0.00401045
0.000218125
0.0023465
0.0054042
0.000803107
0.00908518
5.35957e-05
0.000624951
0.00078541
0.000528797
8.62145e-05
0.0033396
0.00374081
0.00080591
0.00850327
0.000151824
0.00016125
0.00127093
0.000118603
0.000467142
0.000648392
0.000383331
0.00472492
0.00195151
0.00431719
0.000211707
0.000640667
0.000797489
0.000476677
0.00571607
0.00118209
0.0027449
0.000636481
0.000776963
0.00886923
0.000412007
0.000984751
0.00955217
0.000222545
0.00614867
0.000788194
0.00279251
0.000101159
0.0059606
0.000395856
0.00949732
0.000253308
0.000195403
0.000227838
0.00014636
0.00089322
0.00385822
0.00346422
0.00416103
0.000903514
0.000336235
0.000220709
0.000123028
0.00645602
0.000922135
0.000943671
0.00078778
0.000162373
0.000274225
0.00079462
0.00105479
0.00560001
0.000862606
0.00039622
0.00500641
0.00329456
0.00220164
0.0055709
0.00113761
0.000435584
0.00225847
0.0057527
0.000387854
0.00471227
0.000395078
0.000742983
0.00119387
0.000732544
0.00016936
0.000845871
0.000197677
0.00391405
0.000699944
0.000115035
0.000909909
0.000954666
0.000485062
0.000202757
0.0019059
9.03137e-05
0.00395993
0.000890811
0.000670994
0.00238116
0.000202785
0.00728057
0.00185029
0.00406399
0.00585392
0.00227976
0.00572775
0.000155834
0.000297304
0.000163689
0.00349161
0.000196685
0.000270359
0.00593328
0.00035626
0.00562061
0.00342315
0.00577718
0.000177707
0.000317688
0.00529122
0.000292859
0.00564317
0.000618746
0.000321027
0.000266402
0.000132545
0.000460355
0.000626188
0.00087152
0.00628079
0.00404419
0.000526412
0.000524956
0.00587708
0.000148911
0.00429984
0.00064606
0.000678519
0.00128122
0.000319913
0.00122314
0.000941171
0.00352968
0.000616082
0.000478289
0.00402678
0.000400253
0.000980167
0.000109401
0.000680296
7.87833e-05
0.000343981
0.00102823
0.000441726
0.000724889
6.96994e-05
0.00216725
0.000561329
0.000846015
0.00879206
3.3313e-05
0.000453264
0.000280995
0.00412975
0.00303305
0.000184588
0.000133184
0.000106635
0.00116661
0.000166635
0.00102097
0.000788616
0.0173199
0.00038298
0.000798995
0.00557523
7.05245e-05
0.000295191
0.00447007
0.000283945
0.000907261
0.000510748
0.00080754
0.00117171
0.00075934
0.00229854
0.00922139
0.00392406
0.000262231
0.000763238
0.00544595
0.00359685
0.00245792
0.000292642
0.00338595
0.000299142
0.000690827
0.000558072
0.000176298
0.00107125
0.0032918
0.000321945
0.000359833
0.00025513
0.00107707
0.000192712
0.00110481
0.000866351
0.00424898
0.000507121
0.000790199
0.00121161
0.00424628
0.00246165
0.000748104
0.000800032
0.00310221
0.000564963
0.000385789
0.000571921
0.000821814
0.000412623
0.00065887
0.000734356
0.000989312
0.00866503
9.23057e-05
0.000286171
0.00417056
0.00272645
0.000489799
5.26136e-05
0.00421583
0.000499733
0.00038831
0.00142514
0.00139748
0.00110345
0.00018205
0.000759341
0.00095493
0.0151086
0.000676318
0.00104207
0.00741667
0.001048
0.00387719
0.000965108
0.000619048
0.00195351
0.00377664
0.000705216
0.000476332
5.04641e-05
0.00376143
0.000943844
0.00385555
0.000843447
0.0020467
0.0021082
0.000670002
0.00118064
0.00234565
0.000286297
0.000522822
0.000336883
0.00110085
0.00119064
0.000191066
0.000934527
0.00073602
0.00222707
0.00108776
0.00323641
0.00411593
0.000647297
0.00188948
0.00491888
0.000939424
0.00039662
0.000920933
0.00292774
0.00621686
0.000478069
0.00105226
0.000213794
0.00573647
0.00386882
0.000708531
0.00333166
0.000190573
0.000245778
0.000603877
0.00568376
0.000228806
0.000394092
0.00225509
0.00135195
0.00100862
0.00265653
0.000467477
0.000939088
0.000276065
0.000254989
0.00405622
0.00026488
0.000428794
0.000754522
0.00199327
0.000445509
0.000844666
0.00030703
0.00552306
0.000339535
0.000900575
0.00377971
0.000147235
0.00397382
0.000307865
0.000443566
0.000760685
0.0077469
0.000874877
0.000825535
0.00235957
0.000708164
0.000225868
0.00543841
0.000425106
0.000214832
0.00244716
0.00681034
0.00370527
0.000943289
9.96272e-05
0.000698059
0.000833523
0.00242388
0.000227621
0.00408939
0.000402164
0.00104087
0.00103747
0.00265249
9.87372e-05
0.00599578
0.00098429
0.000132241
0.0010713
0.00470584
0.000276336
0.000133276
0.00449409
0.000345149
0.000421214
0.000614469
0.000810381
0.000618987
0.00456251
0.000469858
7.46536e-05
0.00591126
0.00375393
0.00331445
0.000515763
0.000874069
0.000423932
0.00257392
0.000479988
0.00494432
9.91232e-05
0.00151865
0.000350952
0.000926982
2.62496e-05
0.000158298
0.00429895
0.00413033
0.000222548
0.000134909
0.00546005
0.00551711
0.000484812
5.73826e-05
0.000367645
0.000434079
0.000157572
0.000127451
0.000607999
0.00243461
0.00134725
0.00220403
0.000152677
0.00102827
0.00414636
0.00543764
0.000517927
0.000267108
0.000491334
0.000455782
0.000347607
0.00409696
0.00045966
0.000766724
0.00404242
0.0059082
0.000690564
0.000664771
0.00466026
0.00601786
0.000599377
0.00061705
0.00597411
0.00131422
0.000601654
0.000380588
0.000726653
0.000134434
0.000198309
0.00536947
0.00365125
0.000880999
0.000470614
0.000370304
0.00033625
0.00253388
0.00257853
0.00346098
0.000859939
0.00652517
0.00010521
6.84252e-05
0.000702693
0.00258212
0.00594847
0.00105635
0.000598088
0.000105607
0.000779668
0.000430028
6.21141e-05
0.00383489
0.00285147
0.0173303
0.000394556
0.00015684
0.000373286
0.00241907
0.00101027
0.000142383
7.51173e-05
0.000831182
0.000114621
0.000392714
0.000485812
0.002587
0.00575512
0.00050068
0.0042972
0.000232674
0.000197982
0.000972494
0.00541976
0.000212324
0.00215024
0.00571895
0.00563267
0.000194586
0.00079151
0.000235069
0.000255952
0.00102099
0.000424763
0.00562768
0.00382804
0.0039644
0.00103032
0.000449821
0.00019958
0.000422294
0.000328489
0.000193492
0.00640591
0.000232357
0.00544872
0.000320369
0.000391602
0.00514669
0.000833879
0.000566416
0.00014144
0.000768509
0.00215437
0.00424149
0.00016435
0.0038007
0.00123578
0.0014061
0.000288993
0.00166033
0.00427018
0.00272249
0.00388107
0.000623379
0.000573563
0.000713595
0.00294696
0.000428897
0.000534536
0.000345739
0.000359129
0.00445707
0.00376602
0.000494013
0.000311722
0.00239464
0.0011055
0.000187558
0.000192237
0.000681207
0.00550733
0.0123539
0.00273321
0.000282832
0.000500501
0.000387816
0.00534457
0.00382594
0.000107425
0.000307891
0.00234999
0.000943227
0.000272104
0.000403489
0.000540901
0.000845101
0.000291819
0.000250427
0.000528149
0.000313702
0.000264451
0.00108878
0.00200678
0.000927685
0.000188341
0.00415911
0.00246121
0.000331541
0.00305095
5.47208e-05
0.00053862
0.000332117
0.000228032
0.000224566
0.000552033
0.000477529
0.000273695
0.00321532
0.0050736
0.000850203
0.000905132
0.00566608
0.000947208
0.000294379
0.000624817
0.000121384
0.00609533
0.000402086
0.000218046
0.00104767
0.000510333
0.000228995
0.00605261
0.000183939
0.00556271
0.000630087
0.00596841
0.000279775
4.79795e-05
0.000519201
0.0057802
0.00275691
0.000788601
5.02653e-05
0.00252922
0.0026812
0.000716969
0.00087785
0.00413989
0.000817865
6.4679e-05
0.00226798
0.00227058
0.00477645
0.000226113
0.000709896
3.40008e-05
0.000194505
0.000527995
0.000581388
0.000553239
0.00517295
0.00411153
0.00503491
0.000973221
0.00114468
0.00387718
0.00565925
0.00249138
0.00583077
0.0003651
0.00580796
0.000559275
0.001238
0.000206167
0.0022746
0.0010722
0.00386011
0.00255047
0.00109024
0.000421968
0.000213568
0.00924201
0.000482904
0.00568468
0.000201876
0.000178215
0.000882045
0.000937582
0.000233729
0.000556653
0.000766516
0.00301224
0.00427488
0.000477792
0.000992997
0.00419807
0.000945175
0.000124139
0.0039639
0.00535255
0.000516868
0.00412127
0.00231179
0.0058664
0.00243841
0.00403684
0.00554495
0.00396957
0.0062118
0.000413335
0.000948042
0.000860775
0.00568321
0.000452744
8.30733e-05
8.05645e-05
0.00032331
0.000339787
0.00398047
0.000335966
0.00911087
0.000918047
0.00120856
0.000141423
0.00580977
0.00037298
0.000844343
0.00581554
0.0040363
5.62071e-05
0.000648782
0.00519654
0.000266962
0.000146561
0.000890198
0.000331561
0.00358808
9.54524e-05
0.0010029
0.00306101
8.70881e-05
9.95664e-05
0.000643796
0.000739293
0.00014263
0.000110137
0.00366711
0.000449538
0.000473469
0.000240784
0.000946879
0.00119187
0.000148082
0.00634055
4.65403e-05
0.00684876
0.0127698
0.00275243
0.000116994
0.000138212
0.00430463
0.000302884
0.000353926
0.00118943
0.000217363
0.0062084
0.00597429
0.00873034
0.00259681
0.00507339
0.000131826
0.00375194
0.00030209
0.00422336
0.00524586
0.00114075
0.00238729
0.000549869
0.000160605
0.000700796
0.00406008
0.0038501
0.000110938
0.000295356
0.00613112
0.000167689
0.00236057
0.000806422
0.000653531
0.000299488
0.000750536
0.000500683
0.000647443
0.000973268
0.00304614
0.00361199
0.00292607
0.00408665
0.000349528
0.000511704
0.0021901
0.00244447
0.000524028
7.93699e-05
0.000171869
0.00240045
6.56703e-05
0.00519639
0.0026671
0.000130112
0.00376125
0.000959716
0.000779484
0.000206613
0.000683684
0.000308709
0.000728374
0.000794701
0.000411272
0.000332527
0.000361295
0.00563864
0.00522625
0.00023835
0.000453573
0.00022756
0.000709329
0.000560591
0.00557356
0.000225749
0.000117855
0.000277487
0.000764856
0.00396235
0.00240062
0.00318752
0.000167301
0.00219208
0.000463256
0.00562484
8.72541e-05
0.00386735
0.000969099
0.000898694
0.00256865
0.000121108
0.000351334
0.00384429
0.00542687
0.000285659
0.00834213
0.000396107
0.00050501
0.000966307
0.000225185
0.00120327
0.00028386
0.00526655
0.000464387
9.31282e-05
0.00106995
0.00575601
0.000299763
0.000159841
0.000972386
0.000217882
0.00394069
0.000486727
0.00508864
0.000317975
0.000233948
0.00021758
1.94714e-05
0.00371585
0.00568999
0.00193228
0.000672602
0.00373666
0.000365231
0.00388912
0.000220376
0.0025489
0.00568311
0.000492446
0.00025073
0.000922202
0.000834206
0.000145993
0.000121001
0.00423503
0.00109306
0.00531281
0.00197027
0.000853683
0.00105435
0.000227705
0.00633709
0.00355018
0.00154124
0.00141069
0.000254602
0.000102086
0.00029294
0.00624508
1.84815e-05
0.0002184
0.000271943
0.00283158
0.000118381
0.000740435
0.00025164
0.000509405
0.00159309
0.00236655
0.000219143
0.00359512
0.000437848
0.00079349
0.0001573
0.000256374
0.000271185
0.000809838
0.00391312
0.00102812
0.00259163
0.00554053
0.000156648
0.00367704
0.000277748
0.00566114
0.00356562
0.00258574
0.00131943
0.000196113
0.00371077
0.00532542
0.000288088
0.00103788
0.000558481
0.000461023
0.00546531
0.000935374
0.00393287
0.00032672
0.000404482
0.00233903
0.000366419
0.0004937
0.000210693
0.000461529
0.000528459
0.000169899
0.000569549
5.13704e-05
0.00464832
0.00604118
0.000104718
0.00649376
0.000147121
0.000154179
0.000993819
0.000990078
0.00011833
0.0039911
0.00109188
0.00255414
0.000777259
0.00329733
4.09142e-05
0.00103915
0.0013537
0.000436396
0.00366906
0.000216442
0.000124956
0.000904707
0.000131627
0.00586265
0.00551024
0.000454
0.0001949
0.000563333
0.000551482
0.00660984
0.00117447
0.00206066
0.00100638
0.000471675
0.00405748
0.000100387
0.000270183
0.00406022
0.00479012
0.00104806
0.000819451
0.00568329
7.60577e-05
0.00359053
0.00595438
0.00098476
0.000656001
0.00103305
0.00023149
0.000640289
0.000154959
0.000839915
0.000261386
0.000370807
0.000518602
0.000176697
0.00569073
0.00393467
0.000124645
0.000574617
0.000394205
0.00570883
0.00566844
7.2752e-05
0.00494916
0.000224808
0.000471026
0.00103101
0.00371379
0.00211199
0.000731606
0.000261093
0.00025599
9.31592e-05
0.00237621
0.00546426
0.000596564
0.00579706
0.00316812
0.0038937
0.00360992
0.000359514
0.00114753
0.000148526
0.000351821
0.00070651
0.000638076
0.000424997
0.000401387
0.00257407
0.000736841
0.000470834
0.000447222
0.00404458
0.000306569
0.00584615
0.000868147
0.00370299
0.000261336
8.37827e-05
0.00945323
0.00512269
0.000783319
0.0025508
0.00585097
0.000108353
0.00548877
0.00256408
0.000535427
0.000387974
0.000990868
0.00374993
0.000417412
0.00245587
0.000923213
0.000385786
0.000386651
0.000601193
0.00368658
5.69978e-05
0.000140873
0.00111444
0.000295976
0.000393881
0.00030833
0.00123585
0.00573814
0.00380187
0.000241747
0.00101095
0.000104838
0.0034104
0.000596096
0.00226498
9.43966e-05
8.86509e-05
0.000919307
0.00256333
0.00226006
0.00564972
0.000222852
2.99418e-05
0.00238512
0.000205455
0.00559081
0.000231169
0.000532645
0.00601765
0.000303878
0.000211436
0.000303369
0.00996074
0.00634395
0.00445237
0.00235537
0.00220605
0.00590782
0.00539982
0.00627965
0.000938076
0.000520088
0.000278269
0.000464262
0.000339969
0.00572389
0.000226466
0.000139964
0.00574831
0.00587252
0.00575806
0.00104018
0.00514491
0.000282101
0.00454674
0.00128542
0.000952131
0.00340647
0.000792884
0.000281348
0.000923859
6.02414e-05
0.000276969
0.000607622
0.00272029
0.00039935
0.00019196
0.000372863
0.00576123
0.00139426
0.000385864
7.09325e-05
0.000305659
0.000804665
0.00227219
0.00410001
0.00602585
0.000593924
0.00115303
0.000682265
0.000327653
0.00321333
0.000337157
0.00279847
0.000418055
0.000463693
0.00345417
0.00327897
0.000775473
0.000182263
0.000288691
0.000294562
0.00110658
0.00203091
4.25036e-05
0.00045778
0.000148386
0.000181123
0.000120121
0.000853401
0.000879146
5.2202e-05
0.00570459
0.00371501
0.00637552
0.000526549
0.00029514
0.00070739
0.00253599
0.00015184
0.00320024
0.00226697
0.00553734
0.000128932
0.000487772
0.000386782
0.00551617
0.00316639
0.00290326
0.00554785
0.00348028
0.000504497
0.00066689
0.00518996
0.00392667
0.00234998
0.000965756
0.000585644
0.000123884
0.000708208
0.000204733
5.77671e-05
0.00062202
0.00385712
0.00112142
0.00016583
6.9011e-05
0.000198561
6.68804e-05
0.000337422
0.00148464
0.000238842
0.00245848
0.00405727
0.000304919
0.00047087
0.00603761
0.000609777
0.00553921
0.000137536
0.000162144
0.0003839
0.00043071
0.00251785
0.00598477
0.00255331
0.00112681
0.000827093
0.000326452
0.000308157
0.00443572
0.00100877
0.000298771
0.000603223
0.000294887
0.00540863
0.00244371
0.000317198
0.000382785
0.000785103
0.000580864
0.000351967
9.57739e-05
6.60108e-05
0.000589378
0.000469098
0.000688276
0.000156877
0.000942971
0.00525575
0.00546357
0.00110738
0.000319985
0.000397338
0.000473225
0.0054823
0.000359265
3.21234e-05
0.000235695
0.000854324
0.00023248
3.8742e-05
0.000142617
0.000663014
0.000308989
7.07434e-05
0.00337485
0.000242165
9.1367e-05
0.00565544
0.000109506
0.000204537
0.000130371
8.63018e-05
0.000473202
0.00440191
0.000414416
0.00103092
0.000555658
0.00116101
0.000321761
4.28977e-05
0.000937351
7.63706e-05
0.00561602
7.73828e-05
0.00361987
0.00400377
4.78682e-05
0.00530313
0.000714836
0.00034832
0.000462732
0.00252952
0.000697133
0.00565306
0.000106624
0.00376058
0.000723191
0.000166935
0.000114414
0.000502535
0.000173403
0.000238231
0.000832901
0.000253498
0.000249383
0.000233808
0.00382969
0.000932027
0.000808108
0.000653048
0.00239973
4.55896e-05
0.000339333
0.000388579
0.00549825
0.000166833
0.00579181
0.000741604
0.00532946
0.00364605
0.000448781
0.000110315
0.0001637
0.000327723
0.0047982
0.000417291
0.00537183
0.00498961
0.000137435
0.00277395
0.000814779
0.000108995
0.000235496
0.00567896
0.0023584
0.00402102
0.000708495
0.000432055
0.00213266
0.000100315
0.00088885
0.00235507
0.00146201
0.00510206
0.000169422
0.000455973
0.000634078
0.000120831
0.000652692
0.000401149
0.000137182
0.00073847
0.00015855
0.000824955
0.000530591
0.000872688
0.000541623
0.00105972
0.000369168
0.000111022
0.000300148
0.000220494
0.000680496
0.000225805
0.0039428
0.00035217
0.000702785
0.00216275
0.000138727
0.000987502
0.0103967
0.000296953
0.000559284
0.000761041
0.000144315
0.00355214
0.000241187
0.000319394
0.000294164
0.000771922
0.00254224
0.00252538
0.00011868
0.00371131
0.00408871
0.00593802
5.23853e-05
0.000295679
0.000641639
0.000108284
6.83815e-05
6.87737e-05
0.00275556
0.000357743
0.000518594
0.000577949
0.000860397
0.000937103
0.0043573
0.00621949
0.00590231
0.00199667
0.000382537
0.000871896
0.000795555
0.000923789
0.000290141
0.000451682
0.00573338
0.00122503
0.000549592
0.000563657
0.000960905
0.00234132
0.00281784
0.000101861
0.00343379
0.000311199
0.00012837
0.000604893
0.000247057
0.000813063
0.00201657
0.000596108
0.0010451
0.00075908
0.00024598
0.000659442
0.00258217
0.00381261
0.000592026
0.00108174
0.00247704
0.00408099
0.000831574
0.00517805
0.000539473
0.000295077
0.0033405
0.000745822
0.000995273
0.000232547
0.000112007
0.000491401
0.000189973
0.000426737
0.000240617
0.000993791
0.000228824
0.00209318
0.00123695
0.00248439
0.00070433
0.000378189
0.000561363
0.000186369
0.00075084
0.000682405
0.00555797
0.000790907
0.00557849
0.000922758
0.000182249
8.20811e-05
0.000406856
0.000136136
0.00399513
0.00394749
0.00044314
0.000936705
0.00285632
0.000200221
0.00369636
0.000329098
5.70985e-05
0.000169306
0.000211405
0.000471452
0.000284924
0.000367363
0.00369189
0.000686888
0.00420087
0.00400838
0.00221065
4.08619e-05
0.000289734
0.00115973
0.00414798
0.00338063
0.000237073
0.000633372
0.000897718
0.00089619
0.0038127
0.00309243
0.00385601
0.002201
0.000577781
0.00264068
0.000175709
0.00217032
0.00523585
0.000748175
0.0034753
0.00648083
0.00571681
0.000281148
0.000150072
0.000649631
0.00225485
0.00116276
0.00438565
0.000277953
0.00207044
0.000337313
0.000209073
0.00606611
9.61982e-05
0.000477743
0.000349854
0.000244341
6.071e-05
0.000638701
0.00017655
0.000467234
0.000135823
0.00555763
0.000887231
0.0025561
0.000144319
0.00442519
0.00103163
3.30331e-05
0.00147117
0.000352607
0.00548631
0.00023323
0.000385576
0.000611633
0.000163881
0.00027374
0.000188016
0.000282652
0.000112689
0.000669928
0.00250295
0.002548
0.00011769
0.00056806
0.00011953
0.000152303
0.000373119
0.000319599
0.000171687
0.0040174
0.000129513
0.000908182
0.00445532
0.000131022
0.00455281
0.000149909
0.00209965
0.00363235
0.000114938
0.00356013
0.00525251
0.00552069
0.00420694
0.00380096
0.000530711
0.00064828
0.000815944
7.78714e-05
0.00242121
0.000360095
0.00092997
0.000353131
0.00577316
6.30778e-05
0.000368168
0.000187642
0.000325919
0.00522457
0.00392024
6.67658e-05
0.00544907
0.000720088
0.00379514
0.000136769
0.00191589
0.000970959
0.000935927
0.000255945
0.00379061
0.00541564
0.00392337
0.000111604
0.00227511
0.00555015
0.000287227
0.000863092
0.00529166
0.000684354
0.00461244
6.75843e-05
8.68598e-05
0.000681354
0.00043336
0.00933709
0.000351271
0.00419714
0.000747782
0.000201727
0.000261539
0.000339995
0.000839234
0.000341284
0.0046324
0.000118679
0.000462902
0.00093774
0.000921488
0.00240861
0.00573443
0.000281916
0.000225695
0.000488619
0.0019987
0.000185008
0.00608758
0.00543393
0.00367301
0.000501024
0.00430493
0.000222182
0.0058546
0.0036605
0.000245936
0.0024636
0.00388206
0.00402072
4.69139e-05
0.000215014
0.000873357
0.00247416
0.000119871
0.000155772
0.000235827
0.000236968
0.000284557
0.000535297
0.000745428
0.00590164
0.000269337
0.00126859
0.00218343
0.00474144
0.000520079
0.000408663
0.000575592
0.000187407
0.00624116
0.00030386
9.87872e-05
0.00595317
0.000105696
0.000411408
0.000203614
0.00325509
0.00049734
0.00333829
0.000794782
0.00223642
0.00550663
0.000699723
0.000261253
0.00213624
6.69836e-05
0.000344697
0.000315179
0.000606441
0.00257889
0.00537915
0.000472435
0.000138843
0.000108138
0.000318196
0.00258478
6.83007e-05
0.00265647
0.00210817
0.000126076
0.0015181
0.000423875
0.000272657
0.000358366
0.00381162
0.00594486
0.000667651
0.000357008
0.00330701
0.00438418
0.000854872
0.000235
0.000187435
0.00579854
0.000845988
0.000298134
0.000375554
0.000219241
7.7118e-05
0.000287385
0.000890518
5.17995e-05
0.000328741
0.000925016
0.00534145
0.00598194
0.000176913
0.000469929
0.00016733
0.000249935
0.000430235
0.00023411
0.000579836
0.000279607
0.000161635
0.00044134
0.000522771
0.000231023
0.000390074
0.000697501
0.000408776
0.000677103
0.00497406
0.000109589
9.87617e-05
7.27673e-05
0.000121398
0.000124376
0.000704236
0.00377191
7.51662e-05
0.000370042
0.000133748
0.00011046
0.00381726
0.00140472
0.000350106
0.00619398
0.000216709
0.0041366
0.000206044
7.86805e-05
2.41709e-05
6.85198e-05
0.00018982
0.00373092
0.00562063
0.00984274
0.0011618
0.00371236
0.00018373
0.000397328
0.00355485
0.00121353
0.000448217
0.000794616
0.000183909
0.000149265
0.00139674
0.000882048
0.000369303
0.00591717
0.000479161
0.00382218
0.00603619
0.000267626
0.00209835
0.000302977
0.000249134
0.000663307
0.000622883
0.000940114
0.000127481
0.00013705
0.00011798
0.00302707
0.00469019
0.000278213
0.000317151
0.000410844
0.000913821
0.000906466
0.000680556
0.000159395
0.000242534
0.000245279
0.000856501
0.000400387
0.00113012
6.9481e-05
0.000108296
0.000345875
0.000563108
0.00403321
0.000103363
0.00010831
0.000167608
0.000582507
8.18086e-05
0.000568577
0.00382801
0.000108492
0.00203399
0.00315377
0.000165815
0.000977847
0.000661713
0.000405595
6.01266e-05
0.00549624
0.000640409
0.000244721
0.000356988
0.00221899
0.000407356
0.00114403
8.61008e-05
0.00117525
0.000378603
3.92289e-05
0.000147751
0.00606973
0.000100891
0.000104688
0.000309869
0.000648277
0.000148526
0.000192641
0.0123957
0.000840884
0.00356447
2.9975e-05
0.000476977
0.000288039
0.000403766
0.000723639
0.00114976
0.00330691
0.00527205
0.00031974
0.000256761
0.00889333
0.00366444
8.42003e-05
0.000138445
0.00276473
0.000319301
2.73971e-05
2.35312e-05
5.98927e-05
0.00585105
0.000101503
0.00180366
0.00380771
0.000281883
0.0023162
0.000770685
0.00537803
0.00397062
0.000841483
0.00250373
0.000143724
0.0027646
0.000338117
0.00408938
0.00451129
0.000164578
0.00521115
0.00269935
4.81383e-05