/*--------------------------------*- C++ -*----------------------------------*\
| =========                 |                                                 |
| \\      /  F ield         | OpenFOAM: The Open Source CFD Toolbox           |
|  \\    /   O peration     | Version:  2406                                  |
|   \\  /    A nd           | Website:  www.openfoam.com                      |
|    \\/     M anipulation  |                                                 |
\*---------------------------------------------------------------------------*/
FoamFile
{
    version     2.0;
    format      ascii;
    arch        "LSB;label=32;scalar=64";
    class       volVectorField;
    location    "50";
    object      momentum:momentum;
}
// * * * * * * * * * * * * * * * * * * * * * * * * * * * * * * * * * * * * * //

dimensions      [1 1 -1 0 0 0 0];

internalField   nonuniform List<vector> 
59516
(
(2.23895e-07 -1.78191e-09 -1.07392e-09)
(1.66794e-07 -2.0489e-10 -6.71312e-10)
(2.03788e-07 -1.34759e-09 -7.53922e-10)
(1.7328e-07 1.82276e-09 2.60161e-09)
(2.00052e-07 3.64923e-10 -8.02746e-09)
(5.03647e-08 -2.40697e-09 -5.37995e-09)
(2.09945e-07 -2.70734e-09 -3.41082e-09)
(1.9536e-07 1.30358e-09 -1.92825e-10)
(1.56976e-07 1.36271e-09 -8.05661e-11)
(7.89903e-08 -1.52674e-09 3.12645e-09)
(2.084e-07 -4.18674e-10 -3.24439e-09)
(1.01886e-07 4.0523e-10 -6.29227e-09)
(3.21438e-07 3.14898e-09 -7.87824e-11)
(1.5565e-08 -8.79182e-11 -1.5126e-10)
(1.5048e-07 3.63554e-09 8.21559e-09)
(8.42311e-08 5.849e-09 -2.67951e-09)
(2.69159e-07 -3.39513e-09 -1.66291e-09)
(1.59774e-07 9.13302e-09 -9.96535e-09)
(3.29936e-07 1.73983e-08 1.92969e-09)
(3.7256e-07 -2.5787e-09 -8.29235e-12)
(9.957e-08 1.67665e-09 -2.32818e-09)
(3.18149e-07 -1.7874e-09 5.47584e-10)
(3.51428e-07 -1.83805e-09 -5.08582e-09)
(3.4465e-08 -1.04598e-09 -2.71409e-10)
(3.12348e-07 -9.8455e-10 1.09595e-09)
(1.99763e-07 4.44152e-09 1.99737e-09)
(5.17918e-08 1.04618e-09 -3.55748e-09)
(7.41128e-08 6.3227e-09 3.43191e-10)
(1.44602e-07 6.00451e-09 -1.24695e-09)
(1.3287e-08 -2.07276e-09 5.18612e-10)
(1.89451e-07 -3.67913e-08 -8.11201e-09)
(8.37349e-08 6.71895e-09 -1.03864e-09)
(1.74445e-07 2.75485e-10 1.07955e-09)
(1.7488e-07 -1.44887e-09 3.40887e-09)
(1.33589e-07 5.12864e-09 3.76236e-09)
(3.9925e-07 6.6334e-10 -1.07383e-09)
(1.28952e-08 -1.25934e-09 -1.79445e-09)
(1.31677e-07 5.0422e-09 -1.27243e-08)
(2.66758e-07 -1.06963e-08 -9.98152e-10)
(2.81814e-07 -4.66495e-10 -1.27564e-09)
(2.56198e-07 -1.57302e-09 4.70731e-10)
(4.06928e-07 -2.40894e-08 -2.23259e-08)
(3.43265e-07 -9.22243e-09 -7.54891e-09)
(1.10282e-07 -7.17525e-10 3.77679e-10)
(2.649e-07 -9.64894e-09 -6.54431e-10)
(1.016e-07 -1.4141e-09 -2.36353e-09)
(3.24569e-07 -7.18061e-09 -1.07503e-08)
(2.5455e-07 -7.80975e-09 -1.46882e-09)
(2.51869e-07 -2.02904e-08 2.79178e-08)
(2.41065e-07 1.08049e-08 8.56607e-09)
(1.63913e-07 1.65033e-08 -2.28783e-08)
(7.56769e-08 -6.46177e-09 4.42358e-09)
(3.14809e-07 2.54864e-09 -6.16088e-09)
(2.99711e-07 -1.32697e-09 2.71124e-10)
(8.22448e-08 5.20737e-09 2.56099e-12)
(2.46167e-07 5.5736e-09 -1.63123e-09)
(2.03417e-07 1.16411e-08 1.20265e-08)
(7.66696e-08 6.57501e-09 -4.60716e-09)
(2.1029e-07 4.0973e-10 -1.78915e-10)
(1.45795e-07 6.90924e-09 8.73601e-09)
(2.08669e-07 -6.25977e-10 3.04389e-10)
(1.51003e-08 1.8853e-09 -6.53837e-10)
(2.68277e-07 9.73484e-10 8.49208e-10)
(3.43032e-07 5.46869e-09 4.10673e-09)
(2.90208e-07 5.12354e-10 -1.61945e-09)
(2.15318e-07 5.52245e-09 7.92313e-09)
(1.79275e-08 -1.21549e-09 1.64342e-09)
(6.56923e-08 4.23663e-10 -3.57047e-10)
(1.98321e-07 -8.2623e-09 3.63077e-08)
(1.69107e-07 1.56409e-09 -4.06333e-09)
(5.16734e-08 1.43678e-09 4.24408e-10)
(1.57963e-07 2.13466e-09 -6.18477e-11)
(2.31012e-08 1.446e-09 -3.52404e-09)
(1.86182e-07 1.72858e-09 8.89846e-10)
(3.80503e-07 1.33616e-10 -8.43377e-10)
(3.60415e-07 -5.58781e-09 -6.844e-09)
(2.14852e-07 -3.41767e-09 -4.98771e-09)
(2.26656e-07 -3.15238e-10 2.24702e-10)
(8.42342e-08 -2.81961e-09 2.64721e-09)
(1.93116e-07 3.94003e-09 1.00442e-08)
(5.02512e-08 3.06457e-09 1.45688e-09)
(1.71429e-07 4.82426e-09 7.25545e-09)
(1.82806e-07 2.46096e-09 7.82995e-09)
(1.79656e-08 -6.8216e-10 2.51495e-09)
(2.15115e-07 4.81556e-09 9.58755e-09)
(3.8335e-07 -1.38848e-09 1.10135e-09)
(3.138e-08 -1.14133e-09 4.9334e-10)
(5.02391e-07 -5.64155e-10 3.54374e-11)
(1.0975e-07 1.42238e-09 4.46058e-09)
(1.66788e-07 1.31646e-08 -9.04736e-09)
(1.83404e-07 -1.22913e-09 -1.60466e-08)
(1.89396e-07 2.22791e-09 -4.50867e-10)
(2.61593e-07 3.45178e-10 -2.47221e-10)
(1.82473e-07 1.58402e-09 -4.49732e-10)
(1.83906e-07 3.71538e-10 -1.0635e-11)
(1.8343e-07 -1.76074e-08 6.58193e-09)
(1.2431e-07 -3.13153e-10 4.60579e-10)
(8.42223e-08 -3.00908e-09 -6.66421e-09)
(1.15208e-07 4.33364e-09 -1.86002e-09)
(2.07716e-07 -1.2176e-09 2.32287e-09)
(6.16623e-08 9.75161e-10 2.33478e-09)
(2.61133e-08 1.34255e-09 -2.96658e-09)
(2.30623e-08 8.17937e-10 3.17707e-09)
(8.4227e-08 -1.28869e-09 -4.56698e-09)
(2.3373e-07 1.26767e-09 -3.92309e-10)
(1.63982e-07 -4.24911e-10 -2.10185e-10)
(5.48223e-08 4.81347e-09 -1.97516e-09)
(1.37086e-07 4.43464e-10 -1.04496e-09)
(1.74897e-07 -1.19886e-09 3.05042e-10)
(1.87444e-07 1.17565e-09 -7.59344e-09)
(2.80307e-07 2.89894e-08 -3.04336e-08)
(4.27558e-08 4.33767e-09 -6.55695e-10)
(1.86322e-07 2.35332e-09 -1.15998e-08)
(2.19224e-07 3.23531e-08 -1.62445e-08)
(2.2158e-07 7.71824e-11 -4.04093e-11)
(1.36522e-07 1.49746e-09 1.53452e-09)
(1.25668e-07 1.38485e-09 -4.7309e-09)
(1.43628e-07 -9.75889e-11 8.24711e-10)
(1.81832e-08 -2.62156e-10 8.77444e-10)
(2.62602e-07 2.15859e-09 5.91617e-10)
(4.17124e-07 -6.49371e-10 7.28217e-10)
(1.77781e-07 -4.05681e-10 6.49628e-10)
(1.59991e-07 -2.76932e-10 8.88074e-10)
(1.8456e-07 -5.73602e-10 6.02956e-10)
(1.3306e-07 -1.79215e-08 2.75636e-09)
(1.43775e-07 2.05754e-09 -4.82526e-09)
(3.54761e-08 -6.54165e-10 2.32089e-09)
(2.12235e-07 -2.10864e-08 -1.73633e-09)
(1.63205e-07 -5.01068e-09 2.3873e-08)
(1.62087e-07 4.29356e-10 -4.39501e-11)
(2.88499e-07 3.82868e-10 1.58228e-10)
(3.22446e-07 4.86574e-09 5.55355e-09)
(2.24235e-08 1.32757e-09 -1.53948e-09)
(2.55131e-07 -2.31616e-10 1.05548e-09)
(3.13258e-07 3.853e-09 8.5302e-10)
(1.96042e-07 -1.10223e-09 -3.55002e-09)
(1.51784e-07 1.80949e-08 -1.26672e-08)
(3.12049e-07 -9.49455e-10 8.64737e-10)
(5.15024e-08 3.55807e-09 1.64629e-10)
(1.58346e-07 7.48805e-10 -2.01738e-09)
(7.55456e-08 -1.50745e-09 -3.85028e-09)
(3.36059e-07 -9.64475e-10 6.48075e-10)
(1.37374e-08 5.91447e-10 1.19778e-09)
(1.50022e-07 -1.27301e-09 -6.32746e-10)
(2.1918e-07 7.0404e-10 1.10933e-09)
(2.8364e-07 3.75415e-09 6.5077e-10)
(2.02836e-07 -7.77317e-09 -2.88221e-09)
(2.05088e-07 2.97649e-09 -5.10273e-09)
(6.40327e-08 -1.03588e-09 1.7842e-09)
(2.06111e-07 -1.32789e-09 -1.68446e-09)
(3.17149e-07 -7.92856e-10 -2.56837e-09)
(5.17467e-08 -1.97506e-09 3.58012e-11)
(3.885e-07 -2.17011e-09 2.61489e-09)
(2.18464e-07 -4.12681e-10 4.32373e-10)
(1.57844e-07 -4.32191e-10 3.79293e-09)
(1.44532e-08 -2.7616e-10 1.5601e-09)
(2.76362e-07 -7.55354e-10 -5.00933e-10)
(3.288e-07 4.17991e-09 -4.83845e-10)
(1.28045e-07 1.95219e-09 3.40279e-10)
(1.55437e-08 1.86191e-09 -2.03006e-09)
(8.81373e-08 2.15429e-09 -4.52538e-09)
(1.1067e-07 -6.02526e-09 -3.79273e-09)
(3.92925e-08 -1.60691e-09 3.844e-10)
(2.21216e-08 -1.90504e-10 -4.32002e-10)
(1.61758e-07 3.01869e-09 3.90676e-09)
(3.31821e-07 -1.00845e-11 2.09776e-09)
(1.54532e-07 -1.93632e-09 9.47787e-10)
(2.86295e-07 1.44599e-09 4.08669e-11)
(1.70207e-08 -1.06027e-09 1.95601e-09)
(2.15159e-07 -9.13474e-10 -1.3586e-10)
(8.63574e-08 1.41375e-09 1.20571e-09)
(6.64548e-08 9.97774e-10 -1.02053e-09)
(1.04873e-07 2.69523e-09 1.32912e-09)
(1.51066e-07 -4.046e-10 5.9249e-10)
(8.41042e-08 -1.2943e-09 4.11524e-10)
(4.52996e-07 -5.43534e-09 -1.81456e-08)
(2.50724e-07 -5.75362e-10 -1.41131e-09)
(3.1001e-07 -1.18599e-08 -7.36557e-09)
(1.47365e-07 -1.8013e-09 6.8711e-09)
(6.14702e-08 -1.91471e-10 -8.46556e-10)
(3.07897e-07 4.70663e-09 1.39647e-09)
(4.21463e-08 -3.72733e-09 -1.69625e-09)
(2.93988e-08 -3.57166e-10 -2.31282e-09)
(1.03742e-07 -2.61709e-09 3.02068e-10)
(2.09176e-07 2.1508e-10 7.20488e-10)
(9.64007e-08 5.14305e-10 1.17647e-09)
(4.53882e-08 -7.43256e-10 -3.54791e-09)
(1.99375e-08 1.55775e-11 2.67952e-10)
(1.90197e-07 2.47971e-10 -1.2675e-10)
(2.24142e-07 -3.99644e-09 -3.62833e-10)
(1.58771e-07 -6.51602e-10 3.2588e-09)
(1.13622e-07 6.93737e-09 -2.36946e-11)
(2.16442e-07 -1.10796e-09 -1.14986e-10)
(9.3097e-08 3.46338e-09 1.14511e-10)
(3.39911e-07 -1.47741e-10 -8.10252e-10)
(2.83591e-08 -2.54943e-10 7.8442e-10)
(9.59652e-08 1.31202e-09 -1.6018e-10)
(5.59528e-08 -1.5563e-09 3.90664e-10)
(1.84474e-07 4.88018e-09 6.14985e-09)
(2.65456e-07 1.18679e-09 -9.06194e-10)
(7.6722e-08 -2.66763e-09 3.0165e-10)
(1.98172e-07 -6.48714e-10 4.48481e-10)
(3.10055e-07 -2.42326e-09 2.54502e-09)
(1.57399e-08 1.70564e-09 -1.15943e-09)
(2.19197e-07 -1.83045e-09 -8.52616e-10)
(2.391e-07 5.42585e-10 4.40805e-10)
(3.57022e-07 7.33744e-10 8.19562e-11)
(2.00567e-07 -1.90551e-09 -7.01387e-10)
(1.79171e-08 -5.68623e-10 1.69454e-10)
(3.00509e-07 -5.41562e-09 -1.77514e-10)
(5.99447e-08 4.22939e-09 3.75414e-09)
(2.51039e-08 -4.13429e-09 -6.7888e-10)
(2.31769e-07 3.66945e-10 -2.33572e-09)
(9.38772e-08 -2.01927e-09 1.29213e-09)
(2.91834e-07 3.73883e-09 3.1186e-10)
(2.91737e-07 -3.73e-11 -5.20126e-10)
(2.72789e-07 2.48016e-09 8.02356e-10)
(2.08403e-07 -1.90696e-09 5.84669e-10)
(8.19588e-08 3.32036e-09 -4.37179e-09)
(2.19706e-07 -2.48453e-10 1.14228e-09)
(1.17243e-07 4.51136e-09 4.12941e-09)
(1.94035e-07 6.49823e-10 9.91325e-11)
(1.81886e-07 7.49501e-10 1.02123e-09)
(7.26729e-08 -3.40446e-10 1.23742e-09)
(3.01262e-07 -1.65207e-10 -4.75484e-10)
(3.15288e-07 -7.74133e-10 -1.15078e-09)
(3.14044e-08 -3.53199e-10 1.59589e-09)
(6.43562e-08 2.07281e-09 -3.04437e-09)
(2.02412e-07 6.01652e-10 7.36096e-10)
(1.16137e-07 5.20295e-10 -8.77291e-09)
(2.45236e-07 -8.47499e-10 1.12273e-10)
(1.82953e-07 2.59355e-10 -4.19984e-10)
(3.29193e-07 9.9687e-10 1.24486e-09)
(2.62839e-08 -2.05903e-09 -1.48382e-09)
(3.07671e-08 8.33447e-10 -1.48083e-09)
(3.84579e-08 1.02148e-09 -1.38921e-09)
(1.07632e-07 6.4204e-10 2.0038e-10)
(1.72783e-07 -2.1054e-09 1.15502e-09)
(4.22664e-07 2.78654e-09 3.38376e-09)
(8.55881e-08 -1.88249e-09 2.31616e-09)
(2.59076e-07 -3.58162e-10 7.98071e-10)
(1.83789e-08 3.30689e-10 2.72336e-09)
(1.08541e-07 8.34042e-11 1.82285e-09)
(2.63394e-08 1.66274e-10 2.91451e-09)
(1.69045e-07 6.40694e-10 4.26259e-10)
(1.50907e-07 -8.82026e-10 -3.80723e-10)
(1.97461e-07 3.33485e-10 1.32179e-09)
(1.83718e-07 2.6859e-09 -4.11133e-09)
(2.81517e-07 1.33962e-10 -7.86534e-10)
(1.97991e-07 5.57523e-10 9.16808e-10)
(3.8528e-07 -5.98673e-10 2.47518e-10)
(2.1303e-07 -3.15386e-11 9.82248e-10)
(1.99657e-07 3.38821e-10 7.32974e-10)
(2.82237e-07 1.22686e-09 -1.56568e-09)
(2.83411e-07 2.3366e-09 1.86028e-09)
(3.0249e-07 2.20617e-10 1.49887e-09)
(1.10274e-07 1.17408e-10 -5.30639e-10)
(2.85439e-07 1.85019e-09 3.2822e-09)
(7.90905e-08 -7.79056e-10 -4.38926e-09)
(9.62311e-08 7.92271e-10 3.36776e-09)
(2.17509e-07 1.36394e-09 -1.74772e-09)
(2.64626e-07 -5.62435e-10 6.68401e-10)
(2.37125e-07 6.42106e-09 3.227e-09)
(2.9086e-07 3.48887e-10 7.01127e-10)
(7.36369e-08 8.32052e-11 1.60595e-09)
(1.05505e-07 4.09019e-09 -2.86212e-09)
(3.06885e-07 -2.62921e-10 -2.4651e-09)
(2.12353e-07 4.55037e-09 1.15889e-09)
(6.02288e-08 -1.001e-09 -9.37841e-10)
(7.31505e-08 3.60703e-10 -2.10384e-09)
(1.64139e-07 1.70555e-09 -5.5426e-09)
(1.904e-07 -4.86997e-10 -2.35361e-10)
(3.04584e-07 -7.55823e-09 9.5373e-11)
(1.47004e-07 -2.27945e-09 1.52058e-09)
(3.38093e-07 -2.11084e-09 -9.91207e-10)
(1.87869e-07 -1.23046e-09 4.93457e-09)
(1.90065e-08 2.28101e-09 -1.29059e-09)
(2.99962e-07 5.37563e-10 1.58469e-09)
(2.80964e-08 1.81114e-09 -2.41685e-09)
(5.12809e-08 -2.09319e-09 1.40645e-09)
(3.64317e-07 8.50794e-10 1.76836e-09)
(2.49694e-07 1.41186e-10 -6.98522e-10)
(2.7183e-08 2.92273e-09 2.91085e-09)
(2.95897e-07 2.17098e-09 1.2004e-09)
(2.44249e-07 4.84713e-09 2.21532e-11)
(2.51768e-07 -1.70904e-09 2.70442e-09)
(3.33726e-07 -1.15549e-09 1.24562e-10)
(2.26328e-08 2.68468e-09 4.97521e-10)
(2.87844e-07 7.99528e-10 6.31013e-10)
(1.53807e-07 -1.43877e-10 9.47799e-11)
(1.62774e-07 1.52648e-10 6.89021e-10)
(2.52337e-07 1.33762e-09 1.54561e-09)
(1.70398e-07 1.35669e-09 8.75099e-10)
(1.75e-07 9.36905e-10 -3.86785e-10)
(2.69082e-07 1.35305e-09 3.70834e-10)
(3.78036e-08 -1.3605e-09 -1.74087e-09)
(2.85748e-07 -6.80005e-10 9.20412e-10)
(1.89849e-07 -7.27363e-10 -7.86717e-10)
(3.72944e-07 6.94523e-11 6.32274e-10)
(2.72244e-07 9.10844e-10 1.13575e-09)
(3.06131e-07 -1.21935e-09 1.62521e-09)
(1.33659e-07 2.05289e-09 2.95355e-09)
(1.92946e-08 -2.91878e-10 1.33995e-09)
(3.45386e-08 -8.39502e-10 5.76577e-10)
(5.126e-07 -3.12795e-09 -2.77432e-09)
(1.77516e-08 -1.0356e-09 2.56263e-09)
(1.70006e-07 -9.40534e-10 -2.96501e-09)
(7.1954e-08 4.00034e-09 1.59764e-09)
(3.17888e-07 1.25867e-09 1.57883e-09)
(3.77964e-07 -9.65109e-10 -5.90631e-10)
(3.1485e-07 -1.70938e-10 -1.52991e-09)
(1.20484e-07 1.50635e-10 -2.71544e-09)
(2.92695e-07 4.49199e-09 -6.81232e-09)
(6.62003e-08 -5.50786e-09 4.45315e-09)
(8.6676e-08 2.05331e-09 1.78541e-09)
(2.01371e-07 1.12611e-09 1.69919e-11)
(1.53946e-07 1.63358e-09 -1.4934e-09)
(2.69472e-07 3.09069e-08 8.77025e-09)
(1.89671e-07 -4.02342e-09 1.96163e-09)
(6.26574e-08 -2.66595e-10 -5.98419e-10)
(1.00953e-07 -1.49213e-09 3.21633e-09)
(2.04689e-07 -1.88992e-09 -3.13737e-09)
(2.1893e-07 -4.91587e-11 -4.48046e-10)
(4.30937e-07 -1.98233e-09 1.97342e-09)
(2.3027e-07 1.22936e-10 1.2052e-09)
(4.91147e-07 -3.74793e-09 1.13804e-09)
(1.6659e-07 6.53103e-09 7.97405e-09)
(3.35214e-07 1.80896e-09 2.19544e-09)
(2.80252e-07 1.64156e-09 1.68978e-09)
(1.98237e-07 -1.00651e-09 1.3619e-10)
(3.3961e-07 -1.5615e-09 1.53261e-09)
(1.01839e-07 2.16657e-09 -6.03938e-09)
(2.25816e-08 -1.49052e-09 -2.65634e-09)
(2.94444e-07 -2.62885e-09 5.18707e-10)
(5.67211e-08 -2.7474e-09 3.11185e-09)
(2.74485e-08 1.06581e-10 4.98432e-11)
(3.9677e-07 1.26435e-09 4.24305e-09)
(1.99386e-07 -3.68091e-10 6.12135e-10)
(1.06297e-07 -2.29444e-09 -5.3566e-09)
(2.57885e-07 -1.16723e-09 5.88199e-10)
(3.30373e-07 -2.14287e-09 8.79846e-10)
(4.33369e-07 -1.79847e-09 -9.5799e-10)
(2.70972e-07 -1.92957e-09 -5.00013e-10)
(3.03982e-08 1.4495e-09 4.8572e-11)
(3.17527e-07 -3.11554e-10 8.33172e-11)
(2.22692e-07 -1.07051e-09 9.21556e-10)
(9.65957e-08 1.75711e-10 1.39664e-09)
(3.01593e-07 4.46563e-11 1.8447e-09)
(2.55609e-07 -5.04602e-10 6.67867e-10)
(1.72596e-07 4.01571e-11 -1.14213e-09)
(1.98193e-07 3.20882e-10 -1.60801e-09)
(2.77193e-07 -2.08136e-09 2.72536e-09)
(2.00826e-07 -1.72553e-09 5.5917e-10)
(7.62823e-08 -3.97404e-10 -1.94913e-10)
(1.95642e-08 8.19751e-10 -6.30962e-10)
(3.82923e-08 -2.82394e-09 -2.02859e-10)
(2.15717e-07 1.09028e-09 -5.61395e-10)
(2.67838e-07 -2.10902e-08 3.29978e-08)
(1.15789e-07 -6.52595e-09 -9.44322e-09)
(1.09296e-07 5.03706e-10 4.98512e-10)
(2.44927e-07 1.70824e-10 4.40939e-09)
(3.0666e-07 4.91179e-10 1.90807e-09)
(2.32084e-07 -2.26135e-09 6.07406e-09)
(3.59646e-07 -1.64952e-09 1.9173e-09)
(3.35605e-07 -2.04552e-09 -1.03919e-09)
(2.23646e-07 -1.27425e-10 9.14768e-10)
(1.38649e-07 7.53822e-10 3.33786e-10)
(2.31822e-08 -7.17242e-10 -2.48331e-10)
(2.41076e-07 -4.75516e-08 5.84564e-09)
(8.52123e-08 2.16546e-09 7.16809e-10)
(6.20391e-08 -2.76191e-09 -6.34044e-10)
(6.57215e-08 1.40087e-09 5.20477e-10)
(1.74133e-07 -6.75541e-10 -4.31875e-10)
(1.70776e-07 -1.03948e-09 -5.06845e-11)
(2.36895e-07 8.51231e-10 -1.771e-09)
(1.64232e-08 8.93809e-10 -1.40987e-09)
(1.68182e-07 -5.46845e-10 4.23932e-10)
(6.27031e-08 1.47944e-09 -1.22529e-09)
(1.88316e-07 -3.03211e-10 -1.19436e-10)
(5.39847e-08 -7.29726e-10 -5.60456e-10)
(1.44463e-07 -3.44318e-09 2.79759e-09)
(2.14914e-07 -5.6877e-09 1.69222e-09)
(1.85493e-07 -1.44836e-09 1.38276e-09)
(1.82122e-08 1.45272e-09 -1.96803e-09)
(1.09914e-07 -1.22746e-09 4.58607e-09)
(2.37418e-07 -4.06068e-10 1.02549e-09)
(2.43308e-08 -1.51217e-09 -1.94516e-09)
(2.89618e-07 2.87551e-09 2.09795e-08)
(1.80184e-07 -1.2917e-09 4.07127e-09)
(3.01507e-07 -1.05461e-09 -4.75815e-09)
(1.96807e-07 4.35177e-09 -6.043e-09)
(9.21279e-08 -1.30492e-09 2.19795e-09)
(3.95832e-07 1.34977e-09 3.29453e-10)
(1.42002e-07 -1.45556e-08 -1.32172e-08)
(3.37111e-07 3.13941e-10 1.54266e-10)
(1.55509e-07 1.2063e-08 1.26129e-08)
(1.38527e-07 -6.31867e-09 8.56911e-10)
(1.4094e-07 -9.65749e-10 -3.28182e-09)
(2.77273e-07 2.49371e-10 3.78392e-10)
(5.49131e-07 1.16823e-09 1.13695e-09)
(7.83963e-08 -7.83738e-10 9.4553e-10)
(3.34551e-07 1.04739e-09 -1.50999e-09)
(1.17723e-07 -5.81892e-10 -2.76425e-09)
(4.45484e-07 4.35328e-10 1.31731e-09)
(3.39616e-07 -3.53161e-10 1.83421e-09)
(6.80869e-08 1.99769e-09 -5.164e-09)
(2.16647e-07 -1.81475e-09 2.55993e-10)
(3.81146e-07 -4.69408e-09 4.21251e-09)
(2.27793e-07 9.95081e-10 -8.21189e-10)
(2.2236e-07 1.06815e-09 7.91484e-10)
(2.30057e-08 -7.97177e-10 -2.89478e-09)
(1.93052e-08 9.6209e-10 -2.42168e-09)
(2.91777e-07 2.72909e-09 -3.82553e-09)
(2.88802e-07 -1.87421e-11 -9.90524e-11)
(2.25675e-07 -1.85392e-09 -7.50707e-10)
(3.485e-08 3.65192e-10 -2.58352e-09)
(9.02078e-08 -8.68258e-10 1.89748e-10)
(2.98464e-07 -2.86515e-09 -2.24645e-09)
(1.71345e-07 -2.38101e-10 2.63659e-10)
(3.14373e-07 1.42589e-10 1.5705e-09)
(2.90651e-07 5.68177e-10 -8.67085e-10)
(2.21771e-07 7.9392e-10 8.51746e-10)
(2.35978e-07 2.01706e-09 6.8957e-10)
(1.19854e-07 7.51541e-10 4.14243e-10)
(2.17736e-07 7.77246e-10 -1.98521e-10)
(8.65216e-08 -1.6574e-09 -4.1967e-09)
(2.91068e-07 3.14118e-10 -8.52159e-10)
(1.88002e-07 -7.18064e-10 -1.8491e-09)
(2.15372e-07 5.44705e-10 1.36036e-09)
(2.24376e-07 2.31077e-10 -1.80647e-10)
(3.4979e-07 -9.42213e-10 3.80308e-10)
(2.6593e-07 2.82929e-10 -2.35623e-09)
(6.63077e-08 3.79418e-09 3.55073e-09)
(4.37675e-08 1.113e-09 3.61848e-10)
(1.90025e-08 1.65102e-09 -1.88171e-09)
(2.32122e-07 6.38127e-09 1.14207e-08)
(3.00176e-07 -5.11309e-11 -3.86001e-10)
(2.71908e-07 -1.50836e-09 1.34705e-09)
(1.91807e-07 1.41172e-09 1.52228e-10)
(2.92072e-08 -9.27546e-11 1.10409e-09)
(2.20038e-08 -3.54406e-10 2.52209e-09)
(1.79281e-07 -8.99214e-10 2.66573e-09)
(2.33581e-07 -1.58373e-10 2.22333e-09)
(3.15377e-07 -8.81504e-10 1.38847e-09)
(3.20252e-07 8.78756e-10 4.21548e-10)
(1.97762e-07 -1.69037e-09 -1.21182e-09)
(3.49283e-07 3.07624e-10 6.37241e-10)
(3.73775e-07 1.97582e-09 2.69524e-09)
(3.09948e-08 -6.28459e-10 2.90724e-09)
(1.81754e-07 -2.98805e-10 1.22967e-09)
(7.17111e-08 6.82286e-10 3.73837e-09)
(9.75762e-08 -9.75419e-09 2.08997e-09)
(1.2902e-07 2.11352e-10 4.60135e-10)
(1.40666e-07 8.21456e-10 -1.17139e-10)
(2.5278e-07 -2.95357e-10 3.29013e-10)
(1.8917e-08 -3.5613e-09 -1.29571e-09)
(3.60226e-07 8.5019e-10 -9.18796e-10)
(2.70758e-07 -1.57628e-10 -4.61347e-10)
(2.18783e-07 3.08534e-10 7.09828e-10)
(1.99839e-07 2.04384e-09 2.10096e-10)
(1.71731e-07 -9.1345e-10 1.80953e-09)
(2.64616e-07 8.62403e-11 1.07552e-09)
(2.45494e-07 8.74254e-10 3.44415e-10)
(3.0916e-07 1.24901e-09 3.23388e-10)
(1.66645e-07 6.88758e-09 -5.72839e-09)
(2.70357e-07 7.01212e-10 -4.8821e-10)
(2.90276e-07 -5.54526e-09 -8.87048e-10)
(1.81321e-08 -1.1643e-09 1.29786e-09)
(3.09908e-07 6.43278e-11 6.10738e-11)
(1.90262e-07 3.62824e-09 1.22277e-10)
(6.36692e-08 -1.85183e-09 5.26694e-09)
(1.70059e-07 1.58826e-09 -2.93643e-09)
(3.463e-07 -1.09571e-11 -3.54726e-10)
(2.22987e-07 -7.39708e-10 1.80731e-09)
(1.17268e-07 3.03909e-10 -3.32909e-09)
(1.78709e-08 -1.6296e-09 -1.77466e-09)
(2.59025e-07 -3.11008e-10 -3.56415e-10)
(3.34438e-07 4.48602e-09 -5.00419e-09)
(2.37036e-07 -6.33433e-10 -9.56354e-10)
(1.87294e-07 -1.47327e-11 1.18193e-09)
(5.65389e-08 2.59224e-09 2.5155e-09)
(2.5129e-07 8.13728e-11 -6.09011e-10)
(2.64775e-08 2.14073e-09 -3.41065e-09)
(1.75007e-07 2.29876e-10 -8.48378e-10)
(2.08664e-07 2.32574e-08 -7.44976e-09)
(2.57598e-07 -1.97608e-09 -1.12025e-09)
(8.68536e-08 3.14823e-11 3.05428e-09)
(1.81309e-07 -2.10456e-09 -2.71643e-09)
(1.14581e-07 1.71516e-10 -1.49817e-09)
(4.67827e-08 2.6555e-09 2.40019e-09)
(4.76139e-07 7.05595e-11 9.08587e-10)
(2.14686e-07 -3.16345e-10 8.92936e-10)
(1.73951e-08 6.02071e-10 1.69912e-09)
(2.81932e-07 1.03716e-10 6.60779e-10)
(2.88341e-07 6.89496e-10 9.73556e-10)
(3.82501e-08 -8.97405e-11 -2.30325e-09)
(1.26075e-07 5.57752e-09 -1.57319e-10)
(9.76888e-08 3.62517e-09 2.54475e-09)
(1.91011e-07 3.81483e-11 8.09866e-10)
(2.63871e-07 9.16281e-11 5.81533e-10)
(3.49857e-08 -9.33681e-10 1.60671e-09)
(8.96632e-08 -2.99196e-09 -9.95954e-10)
(1.00636e-07 2.00193e-09 -1.64931e-10)
(1.75127e-07 2.34708e-09 5.9737e-10)
(3.41967e-07 4.72949e-10 9.7582e-10)
(2.31097e-08 1.24956e-09 -3.01976e-09)
(3.66342e-07 -1.23725e-09 1.79102e-09)
(2.37002e-07 5.6556e-09 -8.77261e-10)
(2.77701e-07 -7.13575e-10 1.65095e-09)
(1.14195e-07 4.90102e-09 -4.72416e-09)
(3.33614e-07 1.18968e-09 5.61507e-10)
(2.25516e-08 -2.82436e-10 -2.45924e-09)
(2.97316e-07 -1.40189e-09 -7.80813e-10)
(2.72764e-08 -4.10774e-10 -5.12731e-11)
(1.35941e-07 -3.75402e-09 1.85449e-09)
(2.27055e-07 -1.84516e-09 1.7068e-10)
(1.35735e-07 -4.04098e-09 -1.3826e-09)
(1.88012e-08 2.19678e-09 1.94933e-09)
(4.98677e-08 9.78271e-10 -1.58044e-09)
(7.47363e-08 -4.014e-09 2.71664e-09)
(1.30126e-07 2.60813e-09 -3.72389e-09)
(3.2508e-07 2.00421e-10 -1.69699e-09)
(5.69307e-08 -1.30248e-09 4.43205e-11)
(1.34626e-07 4.37394e-09 -2.35431e-09)
(2.25775e-07 -1.25741e-08 -2.42878e-08)
(2.16163e-07 6.29372e-11 8.14823e-10)
(2.85314e-08 1.83451e-09 3.32688e-10)
(2.24381e-07 6.76612e-10 -2.32067e-09)
(1.47289e-07 1.60648e-08 -6.35415e-09)
(2.03379e-07 -5.23997e-10 -2.7098e-10)
(9.90541e-08 -1.91611e-10 -2.38628e-09)
(1.77847e-07 1.70765e-10 1.30504e-09)
(1.05169e-07 -4.25946e-09 -3.12639e-09)
(1.60737e-07 8.72823e-10 8.07255e-10)
(1.62824e-07 -7.43995e-11 -6.85043e-10)
(7.12216e-08 3.17312e-09 -6.39652e-09)
(2.99295e-07 3.0808e-12 -2.31287e-10)
(7.10428e-08 3.35591e-09 3.6054e-09)
(1.52582e-08 2.32514e-09 8.6976e-10)
(3.16724e-07 1.89942e-09 -1.00521e-09)
(1.93041e-07 -1.64259e-10 1.95464e-10)
(2.92675e-07 2.31845e-09 -1.04718e-09)
(2.26398e-07 2.99634e-09 -1.4039e-09)
(4.70997e-07 -2.26965e-09 2.70699e-10)
(1.35891e-07 3.96864e-09 -5.56087e-10)
(4.11259e-07 -1.98146e-09 9.43611e-10)
(9.67501e-08 -3.07582e-09 4.18791e-09)
(1.54242e-07 1.92171e-10 1.65651e-10)
(3.04217e-07 -3.49957e-09 -3.27643e-09)
(3.18534e-08 8.15109e-10 -4.42608e-09)
(3.02831e-07 1.55066e-09 -1.84662e-09)
(1.12288e-07 1.03677e-10 3.58727e-09)
(2.93312e-08 -2.09242e-09 -2.17471e-09)
(2.76308e-07 -2.40394e-09 -8.1295e-10)
(6.16345e-08 -1.76345e-09 1.56666e-09)
(2.02665e-07 2.26983e-10 1.83761e-11)
(2.26213e-07 -3.61647e-10 1.26825e-09)
(3.72735e-07 9.2592e-10 6.7175e-10)
(9.47827e-08 -4.27576e-09 -4.63291e-09)
(2.94082e-07 1.98195e-09 5.62945e-10)
(1.50789e-07 -2.31106e-09 2.09406e-09)
(3.25475e-07 4.52322e-10 1.44881e-10)
(3.2823e-07 -1.88158e-10 9.3298e-10)
(2.88957e-07 -1.90298e-11 1.50874e-09)
(1.71758e-07 -2.86928e-10 -1.99688e-10)
(4.78239e-08 -2.68719e-09 -2.2637e-09)
(6.89147e-08 4.05682e-10 -6.02997e-10)
(1.8311e-07 -6.77778e-10 -7.25576e-11)
(2.89775e-07 4.38344e-10 2.99412e-09)
(2.78812e-08 -2.0136e-09 -9.21499e-10)
(2.49525e-07 -3.63561e-10 1.01338e-09)
(4.86508e-07 9.85307e-11 8.51842e-10)
(3.58304e-07 -1.08223e-09 -6.02808e-10)
(3.8791e-07 -1.81966e-09 -4.24686e-10)
(2.46462e-07 1.96235e-11 -3.78597e-09)
(1.98072e-08 2.0107e-09 1.72324e-09)
(2.33016e-07 6.47556e-10 -2.67088e-10)
(1.46383e-07 -1.38245e-09 -1.7471e-09)
(2.67742e-07 1.44809e-09 1.23201e-09)
(1.59108e-07 5.64816e-10 -2.06208e-10)
(3.48488e-08 2.47332e-09 -1.27433e-10)
(2.17787e-07 6.88982e-11 7.6482e-10)
(1.49437e-07 3.87438e-09 3.97145e-09)
(2.43109e-07 -5.62643e-11 4.37886e-10)
(2.81195e-07 -8.21097e-10 2.18149e-11)
(1.99989e-07 -2.24689e-09 -2.3906e-10)
(1.34188e-08 1.23639e-09 -1.57661e-09)
(1.96699e-08 -1.21886e-09 -1.91616e-09)
(1.93152e-07 4.1245e-10 2.31147e-10)
(3.1513e-07 -2.19015e-09 -1.4454e-09)
(2.38922e-07 4.86179e-10 1.40904e-09)
(1.8467e-07 -5.31244e-10 1.59036e-09)
(1.58899e-07 -2.44401e-09 1.00497e-09)
(2.56814e-07 -1.76184e-09 -1.03688e-09)
(2.9619e-07 3.8996e-10 1.37123e-09)
(1.90883e-08 1.68659e-09 4.04448e-10)
(1.54117e-07 4.05814e-10 4.70245e-10)
(1.74147e-07 -1.94964e-08 -5.58216e-10)
(4.53794e-08 -7.51678e-10 2.41785e-09)
(8.37984e-08 -5.3648e-09 1.34699e-09)
(3.06029e-07 -2.85529e-10 -1.95116e-09)
(2.11609e-07 -2.48879e-09 1.56721e-09)
(1.96932e-07 6.6009e-10 -2.16122e-10)
(2.34207e-07 -1.35043e-09 1.27626e-09)
(1.37665e-07 -4.73103e-09 1.54124e-09)
(3.45729e-07 1.54556e-10 6.74449e-11)
(1.77918e-07 1.67176e-09 -5.45782e-09)
(4.38218e-07 1.47547e-09 -4.16606e-10)
(2.24616e-07 1.356e-09 6.3927e-11)
(2.50059e-07 -4.43523e-10 2.67149e-10)
(3.25837e-07 -7.05955e-10 3.776e-10)
(4.69056e-08 -4.26738e-10 2.3289e-09)
(5.47568e-07 -1.20747e-09 1.15711e-10)
(3.29583e-08 1.01102e-09 -1.35003e-09)
(1.48938e-07 -1.45075e-08 8.5574e-09)
(1.1466e-07 3.72105e-09 2.99329e-09)
(1.61659e-07 -3.22183e-09 -1.65979e-08)
(2.13004e-07 -1.11544e-09 -1.21404e-09)
(2.90747e-07 -4.72085e-08 -1.05072e-08)
(1.42874e-07 2.55445e-10 -4.11009e-10)
(3.29733e-07 -9.8543e-10 -5.55408e-10)
(3.41294e-07 2.6405e-09 -9.05113e-11)
(2.19934e-07 -5.11739e-10 9.28825e-10)
(3.43068e-08 2.7136e-10 -6.1296e-10)
(1.18484e-07 -4.45052e-09 -2.98533e-09)
(2.10303e-07 -3.92752e-09 -2.99538e-08)
(2.23581e-07 3.17872e-10 2.43521e-10)
(9.97803e-08 -2.05255e-09 -5.44464e-10)
(2.18192e-07 -2.15614e-08 -7.57276e-09)
(2.38912e-07 -5.88643e-09 6.86186e-09)
(3.06233e-07 2.41813e-09 2.51893e-09)
(4.33734e-08 -8.76239e-10 1.56656e-09)
(5.32479e-08 -2.621e-09 1.45718e-09)
(2.67329e-08 1.2068e-10 -2.50631e-10)
(1.92778e-08 1.50195e-10 -1.47473e-09)
(4.3486e-08 -9.34956e-11 2.10396e-10)
(2.21559e-07 -1.59422e-08 9.17974e-09)
(1.83008e-07 -7.49978e-10 1.13047e-09)
(1.83445e-08 -6.44741e-10 2.54683e-09)
(2.02072e-08 1.45073e-09 2.2291e-09)
(3.69974e-07 4.62752e-10 -3.12843e-10)
(1.66147e-07 -2.18286e-08 1.4826e-08)
(4.60947e-08 1.99848e-09 7.37407e-10)
(2.2854e-07 3.10558e-10 -8.95679e-10)
(1.06882e-07 -1.17124e-09 -1.48156e-09)
(2.02495e-07 3.40736e-10 1.88275e-09)
(4.36595e-08 2.28311e-09 -1.23651e-09)
(9.23072e-08 2.86081e-09 -1.11151e-09)
(1.91366e-07 -2.15124e-09 8.90707e-11)
(2.76427e-07 1.02322e-10 -1.38965e-09)
(4.02768e-07 -1.37644e-10 -2.1206e-09)
(4.22227e-08 3.50408e-09 -1.20555e-09)
(2.41783e-08 -1.89018e-09 1.14815e-09)
(2.01612e-07 -2.88124e-08 -2.13832e-08)
(2.75099e-08 -3.58382e-09 1.53642e-10)
(3.10617e-07 -1.90316e-09 -2.38513e-09)
(2.83377e-08 1.58129e-09 -3.51983e-09)
(1.46968e-07 -6.5562e-10 3.08533e-09)
(3.17609e-07 -1.8457e-09 -1.07322e-10)
(4.41132e-07 -9.13268e-10 2.94195e-09)
(5.81872e-08 8.69239e-10 -1.12401e-09)
(1.38799e-07 -4.02701e-10 -1.48285e-09)
(3.81822e-08 1.39744e-09 -1.59676e-09)
(2.84025e-08 3.35539e-09 -1.22523e-09)
(2.71416e-07 -7.72483e-10 -9.19693e-10)
(1.44706e-08 -1.2279e-09 -1.86186e-09)
(1.84251e-07 -4.74933e-10 -7.2072e-10)
(6.0609e-08 1.36391e-09 -2.86115e-09)
(3.28904e-07 -2.68158e-09 -4.86616e-10)
(2.27268e-07 -1.16082e-09 -2.74791e-10)
(1.89563e-08 -5.02996e-10 3.01376e-09)
(1.3333e-07 -6.59479e-09 5.88253e-10)
(2.49558e-07 6.90622e-10 1.05949e-09)
(3.09833e-08 -1.50843e-09 4.17446e-11)
(2.93368e-07 -1.45286e-10 -9.91444e-10)
(7.83623e-08 -3.14082e-09 4.89455e-09)
(2.13049e-07 5.31159e-10 -2.65135e-11)
(2.36543e-07 -8.96775e-10 -2.1968e-10)
(5.45926e-08 1.62479e-09 1.15926e-09)
(2.09914e-08 8.94968e-10 -2.71673e-09)
(9.1437e-08 1.79367e-09 -7.81017e-10)
(2.43638e-07 3.82345e-08 8.21751e-09)
(2.24296e-07 8.0127e-10 9.78979e-10)
(7.65406e-08 -3.55434e-09 3.704e-09)
(1.81574e-07 7.66541e-10 2.60577e-09)
(2.41207e-08 -9.21672e-10 5.74938e-10)
(2.10332e-07 -9.53981e-10 -5.36505e-10)
(2.29678e-08 -3.62135e-10 -1.73034e-09)
(3.39681e-07 -9.32069e-10 -1.26891e-09)
(3.01431e-07 8.50704e-11 2.97665e-10)
(2.24009e-07 2.18347e-10 -6.17829e-10)
(1.42469e-08 1.42035e-09 4.79255e-11)
(3.43967e-07 2.29025e-10 1.11206e-09)
(1.5505e-07 1.63575e-09 4.10384e-10)
(3.60351e-07 3.47748e-11 1.42578e-10)
(6.22188e-08 -6.76775e-10 -2.70807e-10)
(2.22566e-07 -2.67762e-08 1.37644e-08)
(2.64642e-07 -2.17346e-09 -7.67836e-10)
(6.47918e-08 7.73539e-10 -7.68959e-10)
(2.64326e-07 6.2967e-10 4.7999e-10)
(2.10062e-07 3.88218e-09 -3.95567e-08)
(1.81028e-07 4.87099e-10 -1.28853e-09)
(3.23951e-08 8.39802e-10 -1.78749e-09)
(9.9688e-08 -9.65971e-10 -5.36531e-09)
(1.9815e-07 -3.15287e-10 -1.99717e-10)
(2.17365e-07 2.13083e-09 8.33125e-10)
(3.14904e-08 1.5895e-09 6.33453e-10)
(2.17518e-07 2.76595e-09 -3.3803e-09)
(1.56596e-07 -1.39635e-09 -4.77518e-09)
(2.42397e-08 -2.11112e-09 1.42879e-09)
(2.09774e-07 -7.34278e-11 -5.5921e-10)
(1.58319e-07 -1.96706e-09 1.53763e-08)
(3.2403e-07 3.47646e-09 -4.8232e-09)
(2.05778e-07 -6.03332e-10 -1.02591e-10)
(1.87808e-07 -3.87341e-10 6.78144e-10)
(3.15757e-07 -8.25794e-10 -1.92785e-11)
(2.54794e-07 1.48081e-09 -3.71757e-10)
(6.94985e-08 1.81285e-09 5.99693e-10)
(7.11391e-08 -3.48107e-09 -3.43833e-09)
(3.88034e-07 2.01988e-10 1.21836e-09)
(2.2479e-07 -1.96212e-08 1.82367e-08)
(2.07808e-07 -1.91013e-09 8.82335e-10)
(1.8725e-07 -2.51862e-09 1.27494e-09)
(1.25984e-07 3.01134e-09 1.35045e-09)
(3.23189e-07 -8.34652e-10 3.09159e-09)
(2.05266e-07 -6.35068e-10 -1.23298e-09)
(1.79832e-07 -5.89305e-10 -2.41373e-09)
(2.23772e-07 4.08054e-09 9.87216e-10)
(4.32352e-08 5.96e-10 -2.76633e-09)
(1.68732e-07 1.25539e-09 -8.783e-10)
(3.8641e-08 -9.99327e-10 -2.89219e-09)
(3.13838e-07 -1.87064e-09 2.05438e-09)
(3.30862e-07 -5.70342e-10 -4.75508e-10)
(1.64423e-07 3.17854e-09 -3.85482e-09)
(1.5987e-07 1.27646e-09 -9.97999e-10)
(1.7495e-08 1.80771e-09 -3.6266e-10)
(1.04092e-07 -4.81111e-10 -9.23876e-10)
(7.45344e-08 -2.52863e-09 -3.19021e-09)
(2.69317e-07 -2.74122e-10 -1.56246e-09)
(2.42518e-07 -1.61232e-09 -5.4936e-10)
(2.20567e-07 -2.0135e-08 1.27398e-08)
(3.16872e-07 -7.87606e-10 2.28618e-09)
(8.13147e-08 -2.38255e-09 -1.96352e-09)
(1.36573e-07 -3.4244e-09 1.06631e-08)
(2.44188e-07 -2.88788e-09 3.2795e-09)
(2.68026e-08 -2.0663e-09 -1.80588e-10)
(2.49047e-07 -1.27545e-09 1.37871e-10)
(5.32708e-08 1.50091e-09 -7.64987e-11)
(2.065e-07 -4.25987e-10 2.00291e-09)
(3.14923e-08 4.49409e-09 -3.39836e-10)
(3.66496e-07 3.29997e-10 -1.48678e-09)
(2.0396e-07 -8.68998e-09 5.34697e-09)
(2.63843e-07 -9.49003e-10 -5.19718e-10)