/*--------------------------------*- C++ -*----------------------------------*\
| =========                 |                                                 |
| \\      /  F ield         | OpenFOAM: The Open Source CFD Toolbox           |
|  \\    /   O peration     | Version:  2406                                  |
|   \\  /    A nd           | Website:  www.openfoam.com                      |
|    \\/     M anipulation  |                                                 |
\*---------------------------------------------------------------------------*/
FoamFile
{
    version     2.0;
    format      ascii;
    arch        "LSB;label=32;scalar=64";
    class       volVectorField;
    location    "50";
    object      momentum:angularMomentum;
}
// * * * * * * * * * * * * * * * * * * * * * * * * * * * * * * * * * * * * * //

dimensions      [1 1 -1 0 0 0 0];

internalField   nonuniform List<vector> 
59516
(
(-1.62426e-09 -1.30012e-09 2.23895e-07)
(5.72344e-10 -4.06278e-10 1.66794e-07)
(-8.13913e-10 1.31222e-09 2.03788e-07)
(-3.12015e-09 -5.96265e-10 1.7328e-07)
(-8.01798e-09 5.34093e-10 2.00052e-07)
(-5.20287e-09 2.76902e-09 5.03647e-08)
(-3.52076e-09 -2.56275e-09 2.09945e-07)
(-6.02616e-10 -1.1719e-09 1.9536e-07)
(-1.34203e-09 2.49831e-10 1.56976e-07)
(3.08459e-09 1.60965e-09 7.89903e-08)
(-3.25072e-09 -3.66248e-10 2.084e-07)
(-5.02807e-09 -3.80465e-09 1.01886e-07)
(-2.52891e-09 -1.87801e-09 3.21438e-07)
(5.75137e-11 -1.65231e-10 1.5565e-08)
(5.11514e-10 -8.96947e-09 1.5048e-07)
(-2.38248e-09 5.97615e-09 8.42311e-08)
(-3.70705e-09 -7.41558e-10 2.69159e-07)
(-1.30264e-08 -3.61032e-09 1.59774e-07)
(-1.71333e-08 -3.588e-09 3.29936e-07)
(-2.21078e-09 1.32749e-09 3.7256e-07)
(-2.60028e-09 1.2125e-09 9.957e-08)
(8.22248e-10 1.67886e-09 3.18149e-07)
(-5.18403e-09 -1.53943e-09 3.51428e-07)
(9.06611e-10 5.8804e-10 3.4465e-08)
(3.30463e-10 1.4357e-09 3.12348e-07)
(-6.04704e-10 4.83228e-09 1.99763e-07)
(-6.57272e-10 3.64941e-09 5.17918e-08)
(-5.82323e-09 -2.48684e-09 7.41128e-08)
(-5.80457e-09 -1.9789e-09 1.44602e-07)
(1.65764e-09 1.34815e-09 1.3287e-08)
(-3.76161e-08 2.10521e-09 1.89451e-07)
(-5.40301e-09 4.12681e-09 8.37349e-08)
(-1.03825e-09 -4.04174e-10 1.74445e-07)
(-3.27946e-09 -1.72185e-09 1.7488e-07)
(-6.3603e-09 -7.01189e-11 1.33589e-07)
(-1.22279e-09 3.12928e-10 3.9925e-07)
(-1.94118e-09 1.01873e-09 1.28952e-08)
(-1.30453e-08 -4.1415e-09 1.31677e-07)
(-1.06782e-08 1.17691e-09 2.66758e-07)
(6.61345e-10 1.18638e-09 2.81814e-07)
(1.32525e-11 -1.64189e-09 2.56198e-07)
(-3.28443e-08 -2.9766e-11 4.06928e-07)
(-1.16973e-08 2.28332e-09 3.43265e-07)
(-6.96378e-10 4.1538e-10 1.10282e-07)
(-9.56557e-09 1.42486e-09 2.649e-07)
(2.65525e-09 7.31841e-10 1.016e-07)
(-1.29232e-08 3.49863e-10 3.24569e-07)
(-7.87462e-09 1.06773e-09 2.5455e-07)
(-3.43715e-08 3.11517e-09 2.51869e-07)
(-1.37827e-08 4.02102e-10 2.41065e-07)
(-2.81976e-08 8.19894e-10 1.63913e-07)
(-7.06706e-09 -3.37329e-09 7.56769e-08)
(8.06758e-10 -6.61825e-09 3.14809e-07)
(-7.72331e-10 1.11259e-09 2.99711e-07)
(-5.05113e-09 1.26605e-09 8.22448e-08)
(-5.73145e-09 9.36181e-10 2.46167e-07)
(-1.67377e-08 3.57743e-11 2.03417e-07)
(-7.51965e-09 -2.81274e-09 7.66696e-08)
(-3.7254e-10 -2.47191e-10 2.1029e-07)
(-1.11308e-08 -4.00796e-10 1.45795e-07)
(-3.01055e-10 6.27587e-10 2.08669e-07)
(-1.17292e-09 1.61434e-09 1.51003e-08)
(-1.21461e-09 4.39935e-10 2.68277e-07)
(-6.83899e-09 5.34356e-12 3.43032e-07)
(-1.25102e-09 1.14895e-09 2.90208e-07)
(-9.65671e-09 1.4647e-10 2.15318e-07)
(1.41811e-10 2.03915e-09 1.79275e-08)
(-2.31361e-10 5.03434e-10 6.56923e-08)
(-3.72309e-08 6.16534e-10 1.98321e-07)
(-4.22035e-09 -1.07035e-09 1.69107e-07)
(-8.79297e-10 -1.21297e-09 5.16734e-08)
(-1.96985e-09 -8.24786e-10 1.57963e-07)
(3.53286e-09 -1.42432e-09 2.31012e-08)
(-1.86314e-09 -5.55465e-10 1.86182e-07)
(-5.72793e-11 -8.51972e-10 3.80503e-07)
(-8.82106e-09 5.02915e-10 3.60415e-07)
(-6.0433e-09 1.90427e-10 2.14852e-07)
(3.53565e-10 1.57663e-10 2.26656e-07)
(3.40123e-09 1.84107e-09 8.42342e-08)
(-1.07496e-08 9.24237e-10 1.93116e-07)
(-3.39318e-09 1.9786e-11 5.02512e-08)
(-8.69936e-09 4.85951e-10 1.71429e-07)
(-8.19207e-09 5.04487e-10 1.82806e-07)
(-2.29023e-09 1.24303e-09 1.79656e-08)
(-1.0668e-08 1.14213e-09 2.15115e-07)
(-5.06372e-10 1.69836e-09 3.8335e-07)
(6.08079e-10 1.08456e-09 3.138e-08)
(-3.64815e-10 4.31784e-10 5.02391e-07)
(-4.1399e-09 -2.18659e-09 1.0975e-07)
(-1.54997e-08 -3.8628e-09 1.66788e-07)
(-1.60936e-08 -3.3785e-11 1.83404e-07)
(-1.50935e-09 1.69962e-09 1.89396e-07)
(-4.23132e-10 -3.50073e-11 2.61593e-07)
(-1.517e-10 1.63963e-09 1.82473e-07)
(-2.19804e-10 2.99734e-10 1.83906e-07)
(-1.8797e-08 -1.14347e-10 1.8343e-07)
(-4.38816e-10 -3.42984e-10 1.2431e-07)
(3.41138e-09 6.46752e-09 8.42223e-08)
(-4.37323e-09 -1.76492e-09 1.15208e-07)
(2.09443e-09 1.57849e-09 2.07716e-07)
(-2.04936e-09 1.484e-09 6.16623e-08)
(2.88909e-09 1.50207e-09 2.61133e-08)
(2.90472e-09 1.52493e-09 2.30623e-08)
(-3.12648e-09 3.56976e-09 8.4227e-08)
(1.32207e-09 -1.14052e-10 2.3373e-07)
(-3.11138e-11 -4.73031e-10 1.63982e-07)
(2.57073e-09 -4.52351e-09 5.48223e-08)
(-9.96355e-10 -5.43951e-10 1.37086e-07)
(-4.52747e-10 1.15123e-09 1.74897e-07)
(-4.11404e-09 6.48977e-09 1.87444e-07)
(-4.20275e-08 -5.28861e-10 2.80307e-07)
(3.2033e-09 -2.99736e-09 4.27558e-08)
(-7.25643e-09 9.3508e-09 1.86322e-07)
(-3.62021e-08 -8.80482e-11 2.19224e-07)
(8.55839e-11 -1.62924e-11 2.2158e-07)
(1.4002e-09 -1.62375e-09 1.36522e-07)
(-4.1646e-09 -2.6373e-09 1.25668e-07)
(-4.13227e-10 -7.20357e-10 1.43628e-07)
(-3.25608e-10 -8.55928e-10 1.81832e-08)
(-1.51503e-09 1.64748e-09 2.62602e-07)
(9.69976e-10 1.05493e-10 4.17124e-07)
(-5.09198e-10 5.72111e-10 1.77781e-07)
(8.33029e-10 4.14042e-10 1.59991e-07)
(-7.12272e-10 4.304e-10 1.8456e-07)
(-1.80947e-08 1.16592e-09 1.3306e-07)
(-5.24259e-09 1.78568e-10 1.43775e-07)
(-2.1816e-09 -1.02719e-09 3.54761e-08)
(-2.09151e-08 3.19542e-09 2.12235e-07)
(-2.37444e-08 5.58862e-09 1.63205e-07)
(3.56678e-10 -2.43022e-10 1.62087e-07)
(7.07139e-11 -4.08195e-10 2.88499e-07)
(4.70672e-09 5.68894e-09 3.22446e-07)
(-5.12851e-10 -1.96709e-09 2.24235e-08)
(4.73584e-10 9.71284e-10 2.55131e-07)
(3.80113e-09 1.0605e-09 3.13258e-07)
(-3.29853e-09 1.71384e-09 1.96042e-07)
(-2.19985e-08 1.98784e-09 1.51784e-07)
(3.82244e-10 1.22602e-09 3.12049e-07)
(-4.92627e-10 3.52765e-09 5.15024e-08)
(-1.62251e-09 1.4135e-09 1.58346e-07)
(-1.74789e-09 3.74725e-09 7.55456e-08)
(-8.80887e-10 -7.57793e-10 3.36059e-07)
(-6.47004e-10 -1.1687e-09 1.37374e-08)
(-5.88224e-10 1.29419e-09 1.50022e-07)
(-1.29042e-09 2.47193e-10 2.1918e-07)
(-3.5523e-09 1.37778e-09 2.8364e-07)
(-8.05361e-09 1.96692e-09 2.02836e-07)
(-5.48799e-09 2.18615e-09 2.05088e-07)
(9.76135e-10 -1.81757e-09 6.40327e-08)
(-4.43497e-10 2.09857e-09 2.06111e-07)
(-5.16925e-10 -2.63779e-09 3.17149e-07)
(2.51853e-10 1.95926e-09 5.17467e-08)
(2.387e-09 2.41854e-09 3.885e-07)
(5.37308e-10 2.61824e-10 2.18464e-07)
(-1.33533e-09 -3.57631e-09 1.57844e-07)
(-1.35617e-09 8.19137e-10 1.44532e-08)
(-6.21218e-10 -6.59986e-10 2.76362e-07)
(-3.59903e-09 2.18006e-09 3.288e-07)
(-1.79654e-09 8.3622e-10 1.28045e-07)
(-2.24589e-09 -1.59493e-09 1.55437e-08)
(3.71691e-09 3.36224e-09 8.81373e-08)
(6.18208e-09 -3.53134e-09 1.1067e-07)
(-6.92797e-10 1.49999e-09 3.92925e-08)
(-2.10511e-10 -4.22614e-10 2.21216e-08)
(4.93547e-09 1.28228e-10 1.61758e-07)
(-2.02971e-09 5.30069e-10 3.31821e-07)
(2.15398e-09 -8.94451e-11 1.54532e-07)
(-1.30738e-09 -6.19118e-10 2.86295e-07)
(1.00207e-09 1.98646e-09 1.70207e-08)
(3.62388e-11 -9.22811e-10 2.15159e-07)
(-1.43597e-09 -1.17916e-09 8.63574e-08)
(-1.14248e-09 8.5544e-10 6.64548e-08)
(-1.30322e-10 -3.00231e-09 1.04873e-07)
(2.89237e-10 -6.56572e-10 1.51066e-07)
(7.70073e-10 1.11872e-09 8.41042e-08)
(-1.88539e-08 -1.82669e-09 4.52996e-07)
(-1.36587e-09 6.76187e-10 2.50724e-07)
(-1.39088e-08 1.20611e-09 3.1001e-07)
(8.85025e-10 -7.04794e-09 1.47365e-07)
(7.10862e-10 4.9799e-10 6.14702e-08)
(-2.71465e-09 -4.09062e-09 3.07897e-07)
(1.13549e-09 3.93458e-09 4.21463e-08)
(-1.03858e-09 -2.09716e-09 2.93988e-08)
(9.4483e-10 2.45921e-09 1.03742e-07)
(5.27491e-11 -7.50053e-10 2.09176e-07)
(-6.31914e-10 1.11771e-09 9.64007e-08)
(-3.55623e-09 7.02389e-10 4.53882e-08)
(1.29834e-10 2.34913e-10 1.99375e-08)
(-2.445e-10 1.33322e-10 1.90197e-07)
(3.50767e-09 1.94922e-09 2.24142e-07)
(-3.3128e-09 -2.64037e-10 1.58771e-07)
(-2.09964e-09 -6.61205e-09 1.13622e-07)
(-9.84574e-10 -5.20965e-10 2.16442e-07)
(2.66898e-09 -2.21013e-09 9.3097e-08)
(-8.17324e-10 -1.0157e-10 3.39911e-07)
(4.06109e-10 7.17904e-10 2.83591e-08)
(1.26597e-09 3.79946e-10 9.59652e-08)
(4.46108e-10 -1.54133e-09 5.59528e-08)
(-7.84678e-09 -2.54689e-10 1.84474e-07)
(8.55949e-10 -1.22352e-09 2.65456e-07)
(-1.60072e-09 -2.15521e-09 7.6722e-08)
(-6.74672e-10 -4.0839e-10 1.98172e-07)
(4.71129e-10 3.48243e-09 3.10055e-07)
(1.33781e-09 -1.56964e-09 1.57399e-08)
(1.35224e-09 1.49966e-09 2.19197e-07)
(-4.5765e-10 -5.28454e-10 2.391e-07)
(-1.42624e-10 -7.24401e-10 3.57022e-07)
(1.58724e-09 -1.26633e-09 2.00567e-07)
(1.76763e-10 -5.66393e-10 1.79171e-08)
(4.75304e-09 2.60175e-09 3.00509e-07)
(-6.19849e-10 5.62113e-09 5.99447e-08)
(-4.10347e-09 8.45472e-10 2.51039e-08)
(-1.57306e-09 1.76515e-09 2.31769e-07)
(-5.48389e-10 2.33374e-09 9.38772e-08)
(-2.128e-09 -3.08994e-09 2.91834e-07)
(4.0934e-10 -3.23054e-10 2.91737e-07)
(-2.45777e-09 8.6855e-10 2.72789e-07)
(-1.61197e-09 1.17469e-09 2.08403e-07)
(-2.62745e-09 4.82015e-09 8.19588e-08)
(1.16443e-09 -1.03178e-10 2.19706e-07)
(-2.06384e-09 -5.75716e-09 1.17243e-07)
(-4.22567e-10 5.03522e-10 1.94035e-07)
(-8.25121e-10 -9.61164e-10 1.81886e-07)
(7.57003e-10 -1.03637e-09 7.26729e-08)
(2.29424e-10 -4.48043e-10 3.01262e-07)
(1.3707e-09 2.11554e-10 3.15288e-07)
(-1.12256e-09 -1.18805e-09 3.14044e-08)
(-3.59064e-09 8.19758e-10 6.43562e-08)
(2.3829e-10 9.20348e-10 2.02412e-07)
(-4.50074e-09 7.54838e-09 1.16137e-07)
(2.26474e-10 8.2436e-10 2.45236e-07)
(-3.66873e-10 3.30236e-10 1.82953e-07)
(-1.3897e-09 -7.82403e-10 3.29193e-07)
(-1.28066e-09 -2.19117e-09 2.62839e-08)
(-1.268e-09 -1.13122e-09 3.07671e-08)
(-1.72433e-09 -2.21365e-13 3.84579e-08)
(4.01186e-11 -6.71385e-10 1.07632e-07)
(-2.36237e-09 -4.31252e-10 1.72783e-07)
(-4.24338e-09 1.09926e-09 4.22664e-07)
(2.94825e-09 -4.64949e-10 8.55881e-08)
(7.14345e-10 5.04884e-10 2.59076e-07)
(2.23865e-09 1.5857e-09 1.83789e-08)
(1.46647e-09 1.08591e-09 1.08541e-07)
(2.48918e-09 1.52513e-09 2.63394e-08)
(6.90774e-10 3.39143e-10 1.69045e-07)
(-6.45147e-10 -7.11832e-10 1.50907e-07)
(-1.32317e-09 3.27945e-10 1.97461e-07)
(-2.20926e-09 4.38591e-09 1.83718e-07)
(-7.26147e-10 -3.30594e-10 2.81517e-07)
(-9.20287e-10 -5.51761e-10 1.97991e-07)
(6.18247e-10 -1.93506e-10 3.8528e-07)
(-9.75314e-10 1.207e-10 2.1303e-07)
(7.58697e-10 2.76459e-10 1.99657e-07)
(6.18268e-10 1.89058e-09 2.82237e-07)
(-1.4867e-09 2.59037e-09 2.83411e-07)
(-1.03841e-09 1.10318e-09 3.0249e-07)
(-5.33399e-10 1.04153e-10 1.10274e-07)
(-3.68318e-09 7.93872e-10 2.85439e-07)
(2.36632e-09 3.77797e-09 7.90905e-08)
(-4.56021e-10 3.42951e-09 9.62311e-08)
(-1.91739e-09 1.11286e-09 2.17509e-07)
(-3.95238e-10 7.79025e-10 2.64626e-07)
(7.02056e-09 1.5347e-09 2.37125e-07)
(6.2786e-10 4.68074e-10 2.9086e-07)
(1.60765e-09 3.78015e-11 7.36369e-08)
(-1.12331e-10 -4.99087e-09 1.05505e-07)
(-1.16504e-09 -2.18827e-09 3.06885e-07)
(4.68741e-09 2.77647e-10 2.12353e-07)
(-7.21692e-10 -1.16649e-09 6.02288e-08)
(-6.87761e-10 2.02071e-09 7.31505e-08)
(-4.28063e-09 3.91222e-09 1.64139e-07)
(-4.23149e-10 -3.36906e-10 1.904e-07)
(-4.75232e-09 5.87805e-09 3.04584e-07)
(-1.14833e-09 2.48785e-09 1.47004e-07)
(-2.23122e-09 -6.7807e-10 3.38093e-07)
(7.5123e-11 5.08511e-09 1.87869e-07)
(-1.10911e-09 -2.37455e-09 1.90065e-08)
(1.44944e-09 8.36271e-10 2.99962e-07)
(2.39128e-09 -1.84477e-09 2.80964e-08)
(2.2448e-09 1.1491e-09 5.12809e-08)
(-1.84432e-09 -6.70419e-10 3.64317e-07)
(-6.88698e-10 -1.83198e-10 2.49694e-07)
(-3.65339e-09 1.91525e-09 2.7183e-08)
(-2.70782e-10 -2.46592e-09 2.95897e-07)
(-2.48372e-09 -4.16249e-09 2.44249e-07)
(-3.1286e-09 6.6825e-10 2.51768e-07)
(8.6124e-10 -7.80351e-10 3.33726e-07)
(1.90791e-09 -1.95318e-09 2.26328e-08)
(1.53429e-10 1.00692e-09 2.87844e-07)
(-1.50014e-10 -8.47325e-11 1.53807e-07)
(-4.16072e-10 -5.70031e-10 1.62774e-07)
(-1.94082e-09 6.41382e-10 2.52337e-07)
(-1.31421e-09 9.37686e-10 1.70398e-07)
(-6.60332e-10 -7.68997e-10 1.75e-07)
(2.48437e-10 -1.38078e-09 2.69082e-07)
(2.67655e-12 2.20943e-09 3.78036e-08)
(-1.51362e-10 -1.13431e-09 2.85748e-07)
(5.86382e-10 8.96737e-10 1.89849e-07)
(-6.35391e-10 2.95409e-11 3.72944e-07)
(-1.32493e-09 6.03422e-10 2.72244e-07)
(1.1234e-09 -1.69295e-09 3.06131e-07)
(2.32099e-09 -2.74788e-09 1.33659e-07)
(-5.87353e-10 -1.23923e-09 1.92946e-08)
(8.68782e-10 5.31434e-10 3.45386e-08)
(-4.10088e-09 8.14735e-10 5.126e-07)
(-2.56133e-09 1.0388e-09 1.77516e-08)
(-2.25621e-09 -2.14135e-09 1.70006e-07)
(-1.36658e-09 4.08505e-09 7.1954e-08)
(-1.20977e-09 -1.6166e-09 3.17888e-07)
(-1.13149e-09 -2.82682e-12 3.77964e-07)
(-8.40656e-10 1.28963e-09 3.1485e-07)
(2.22578e-09 1.56275e-09 1.20484e-07)
(8.15996e-09 2.71942e-11 2.92695e-07)
(9.15555e-11 7.08228e-09 6.62003e-08)
(4.4422e-10 -2.68449e-09 8.6676e-08)
(-3.71784e-10 1.0631e-09 2.01371e-07)
(6.44461e-10 -2.11743e-09 1.53946e-07)
(-3.18975e-08 -3.83447e-09 2.69472e-07)
(4.92089e-10 -4.44902e-09 1.89671e-07)
(-6.49962e-10 -8.20244e-11 6.26574e-08)
(3.53695e-09 -2.4753e-10 1.00953e-07)
(-1.39305e-09 -3.38737e-09 2.04689e-07)
(-4.40131e-10 -9.719e-11 2.1893e-07)
(1.00128e-09 -2.6118e-09 4.30937e-07)
(-7.95248e-10 9.13899e-10 2.3027e-07)
(5.04251e-10 3.8843e-09 4.91147e-07)
(-1.02493e-08 -1.0916e-09 1.6659e-07)
(-2.80871e-09 -4.51077e-10 3.35214e-07)
(-2.22793e-09 7.65764e-10 2.80252e-07)
(9.7402e-10 2.87904e-10 1.98237e-07)
(2.14659e-09 4.23439e-10 3.3961e-07)
(-4.93253e-09 -4.10345e-09 1.01839e-07)
(2.80923e-09 -1.17731e-09 2.25816e-08)
(2.67106e-09 2.12904e-10 2.94444e-07)
(1.64256e-09 3.81232e-09 5.67211e-08)
(3.69315e-11 -1.11714e-10 2.74485e-08)
(-4.42343e-09 -1.87958e-10 3.9677e-07)
(6.54898e-10 2.85147e-10 1.99386e-07)
(-3.62065e-09 4.56602e-09 1.06297e-07)
(-6.91934e-10 -1.10889e-09 2.57885e-07)
(9.1147e-10 2.12961e-09 3.30373e-07)
(-1.96476e-09 5.40363e-10 4.33369e-07)
(-1.98443e-09 1.87819e-10 2.70972e-07)
(-9.14672e-11 -1.44743e-09 3.03982e-08)
(-2.68136e-10 1.79195e-10 3.17527e-07)
(-1.36739e-09 3.5428e-10 2.22692e-07)
(4.84321e-10 1.32171e-09 9.65957e-08)
(-3.48452e-10 -1.81204e-09 3.01593e-07)
(-5.96141e-10 5.8761e-10 2.55609e-07)
(8.89328e-10 7.17753e-10 1.72596e-07)
(1.00461e-09 1.29593e-09 1.98193e-07)
(-5.15604e-10 -3.39025e-09 2.77193e-07)
(9.75261e-10 1.52937e-09 2.00826e-07)
(-4.04232e-10 1.80326e-10 7.62823e-08)
(-3.88824e-10 9.58603e-10 1.95642e-08)
(3.72765e-10 2.80657e-09 3.82923e-08)
(1.10916e-09 -5.23119e-10 2.15717e-07)
(-3.91613e-08 -2.12578e-10 2.67838e-07)
(-1.14171e-08 1.18824e-09 1.15789e-07)
(4.95954e-10 -5.06225e-10 1.09296e-07)
(3.36258e-09 -2.85744e-09 2.44927e-07)
(-1.37019e-09 1.41582e-09 3.0666e-07)
(-6.47065e-09 3.7222e-10 2.32084e-07)
(8.74782e-10 2.37313e-09 3.59646e-07)
(-1.24155e-09 -1.92941e-09 3.35605e-07)
(1.02441e-10 -9.17902e-10 2.23646e-07)
(-8.15756e-10 -1.19172e-10 1.38649e-07)
(-3.22996e-10 6.86861e-10 2.31822e-08)
(-4.78783e-08 1.72997e-09 2.41076e-07)
(6.60401e-10 2.18332e-09 8.52123e-08)
(-1.44994e-09 2.43471e-09 6.20391e-08)
(1.39151e-09 5.45015e-10 6.57215e-08)
(2.97997e-10 7.44358e-10 1.74133e-07)
(-9.00621e-10 5.21511e-10 1.70776e-07)
(-1.83487e-09 7.0304e-10 2.36895e-07)
(-1.06707e-09 1.28373e-09 1.64232e-08)
(5.04248e-10 -4.73806e-10 1.68182e-07)
(1.63836e-09 -1.00292e-09 6.27031e-08)
(-1.89609e-10 2.65047e-10 1.88316e-07)
(-5.90433e-10 7.05691e-10 5.39847e-08)
(4.06974e-09 1.76614e-09 1.44463e-07)
(1.58818e-09 5.71762e-09 2.14914e-07)
(-1.94958e-09 -4.57088e-10 1.85493e-07)
(2.43775e-09 -2.02214e-10 1.82122e-08)
(-2.64576e-10 4.74012e-09 1.09914e-07)
(1.45287e-10 -1.09334e-09 2.37418e-07)
(7.93783e-11 -2.46252e-09 2.43308e-08)
(-2.11658e-08 -6.46345e-10 2.89618e-07)
(8.69411e-10 -4.18185e-09 1.80184e-07)
(-7.07948e-10 -4.82193e-09 3.01507e-07)
(4.82222e-09 -5.67468e-09 1.96807e-07)
(2.41997e-09 8.23124e-10 9.21279e-08)
(1.36782e-09 -2.43899e-10 3.95832e-07)
(-1.87419e-08 -5.94149e-09 1.42002e-07)
(-3.0702e-10 -1.67617e-10 3.37111e-07)
(-1.74141e-08 1.16164e-09 1.55509e-07)
(-5.14292e-09 3.76965e-09 1.38527e-07)
(-8.46387e-10 3.31462e-09 1.4094e-07)
(1.50957e-10 -4.27291e-10 2.77273e-07)
(1.32412e-09 -9.50843e-10 5.49131e-07)
(9.22181e-10 -8.11082e-10 7.83963e-08)
(-1.02179e-09 -1.52743e-09 3.34551e-07)
(-2.68413e-09 8.80409e-10 1.17723e-07)
(-1.37784e-10 -1.38052e-09 4.45484e-07)
(7.02227e-10 -1.73087e-09 3.39616e-07)
(-1.59304e-09 -5.30282e-09 6.80869e-08)
(-6.79537e-10 1.70208e-09 2.16647e-07)
(6.28521e-09 -5.2509e-10 3.81146e-07)
(-1.15869e-09 -5.6742e-10 2.27793e-07)
(4.24136e-10 -1.25996e-09 2.2236e-07)
(2.64948e-09 -1.41262e-09 2.30057e-08)
(-2.52071e-09 -6.60426e-10 1.93052e-08)
(-3.45391e-09 3.1864e-09 2.91777e-07)
(-7.57535e-11 -6.65136e-11 2.88802e-07)
(1.61055e-09 1.18604e-09 2.25675e-07)
(-2.29808e-09 1.23562e-09 3.485e-08)
(7.2326e-10 -5.16499e-10 9.02078e-08)
(-3.59522e-09 -5.74449e-10 2.98464e-07)
(-8.26208e-12 -3.55162e-10 1.71345e-07)
(-4.69073e-10 1.50558e-09 3.14373e-07)
(1.01481e-09 -2.11715e-10 2.90651e-07)
(9.79047e-11 -1.16026e-09 2.21771e-07)
(-3.89795e-10 -2.09573e-09 2.35978e-07)
(3.96601e-10 -7.60999e-10 1.19854e-07)
(-6.71962e-10 4.38165e-10 2.17736e-07)
(-2.86038e-09 3.48962e-09 8.65216e-08)
(-8.27651e-10 3.73952e-10 2.91068e-07)
(-1.68726e-09 -1.04305e-09 1.88002e-07)
(-1.33781e-09 -5.97948e-10 2.15372e-07)
(-2.54964e-10 -1.44993e-10 2.24376e-07)
(-3.2674e-10 9.62102e-10 3.4979e-07)
(1.76077e-09 -1.59109e-09 2.6593e-07)
(2.87716e-09 4.32728e-09 6.63077e-08)
(1.17033e-09 5.70865e-12 4.37675e-08)
(-1.7469e-09 -1.79305e-09 1.90025e-08)
(-1.30824e-08 7.00691e-11 2.32122e-07)
(3.87654e-10 -3.65471e-11 3.00176e-07)
(-1.96818e-09 4.64725e-10 2.71908e-07)
(-2.14247e-10 -1.40364e-09 1.91807e-07)
(1.08589e-09 2.20115e-10 2.92072e-08)
(6.63976e-10 -2.45879e-09 2.20038e-08)
(-8.63106e-10 -2.67764e-09 1.79281e-07)
(-1.54317e-09 1.60838e-09 2.33581e-07)
(-7.32583e-10 -1.47248e-09 3.15377e-07)
(9.64965e-10 -1.36961e-10 3.20252e-07)
(-2.07028e-09 1.99488e-10 1.97762e-07)
(-6.94536e-10 -1.35382e-10 3.49283e-07)
(3.3029e-09 5.08937e-10 3.73775e-07)
(-1.29988e-09 2.67531e-09 3.09948e-08)
(3.44772e-10 1.21758e-09 1.81754e-07)
(3.30864e-09 -1.86919e-09 7.17111e-08)
(-9.91568e-09 -1.09151e-09 9.75762e-08)
(-4.27543e-10 2.71296e-10 1.2902e-07)
(6.75265e-10 -4.82213e-10 1.40666e-07)
(-1.95126e-10 3.96751e-10 2.5278e-07)
(-3.2039e-09 2.02405e-09 1.8917e-08)
(3.6714e-10 -1.19675e-09 3.60226e-07)
(-4.87156e-10 1.91535e-11 2.70758e-07)
(-6.74367e-10 -3.79839e-10 2.18783e-07)
(1.45863e-09 -1.44699e-09 1.99839e-07)
(6.53359e-10 -1.91883e-09 1.71731e-07)
(-4.50713e-10 -9.80325e-10 2.64616e-07)
(-1.85748e-10 9.21108e-10 2.45494e-07)
(-1.19793e-09 4.79129e-10 3.0916e-07)
(-8.91225e-09 -9.08316e-10 1.66645e-07)
(-7.34019e-10 -4.37335e-10 2.70357e-07)
(-5.14004e-09 2.26203e-09 2.90276e-07)
(1.32139e-09 -1.13752e-09 1.81321e-08)
(-2.66084e-11 -8.46172e-11 3.09908e-07)
(2.2299e-09 2.86472e-09 1.90262e-07)
(-4.08717e-09 -3.80328e-09 6.36692e-08)
(-1.91261e-09 2.73626e-09 1.70059e-07)
(2.46707e-10 2.5512e-10 3.463e-07)
(-1.81194e-11 -1.95275e-09 2.22987e-07)
(1.3149e-09 3.07348e-09 1.17268e-07)
(-1.9714e-09 1.38514e-09 1.78709e-08)
(-2.50493e-10 4.01262e-10 2.59025e-07)
(1.62926e-09 6.5201e-09 3.34438e-07)
(-1.13296e-09 -1.79579e-10 2.37036e-07)
(-1.14085e-09 -3.09253e-10 1.87294e-07)
(-3.48138e-09 9.63031e-10 5.65389e-08)
(6.14325e-10 -1.10216e-11 2.5129e-07)
(-4.01391e-09 3.22097e-10 2.64775e-08)
(7.05024e-11 8.76138e-10 1.75007e-07)
(-2.43906e-08 1.22764e-09 2.08664e-07)
(2.1363e-09 7.72067e-10 2.57598e-07)
(-3.73142e-10 3.03156e-09 8.68536e-08)
(-2.16037e-09 2.67226e-09 1.81309e-07)
(-1.62597e-10 1.49917e-09 1.14581e-07)
(2.69085e-09 -2.3605e-09 4.67827e-08)
(3.83396e-10 8.2675e-10 4.76139e-07)
(-6.12726e-10 -7.22479e-10 2.14686e-07)
(-1.67981e-09 -6.54025e-10 1.73951e-08)
(-5.82733e-10 -3.2834e-10 2.81932e-07)
(-9.95617e-10 6.57239e-10 2.88341e-07)
(-6.06078e-10 2.22389e-09 3.82501e-08)
(3.09275e-09 4.64417e-09 1.26075e-07)
(-2.55271e-09 3.61957e-09 9.76888e-08)
(-7.98914e-10 1.38109e-10 1.91011e-07)
(-1.06232e-10 -5.79043e-10 2.63871e-07)
(-1.32067e-09 1.30732e-09 3.49857e-08)
(2.87861e-09 -1.28738e-09 8.96632e-08)
(-3.49283e-10 1.97811e-09 1.00636e-07)
(1.90281e-09 1.49832e-09 1.75127e-07)
(-7.23796e-10 -8.07481e-10 3.41967e-07)
(-2.69228e-09 -1.85257e-09 2.31097e-08)
(2.10164e-09 5.67143e-10 3.66342e-07)
(-5.55478e-09 -1.37834e-09 2.37002e-07)
(3.05137e-10 -1.77249e-09 2.77701e-07)
(-2.97666e-09 -6.12186e-09 1.14195e-07)
(1.11799e-09 6.93342e-10 3.33614e-07)
(1.15491e-09 -2.18948e-09 2.25516e-08)
(-1.55094e-09 -4.11772e-10 2.97316e-07)
(1.61507e-10 -3.81156e-10 2.72764e-08)
(-6.71723e-10 -4.13286e-09 1.35941e-07)
(-4.89233e-11 1.85239e-09 2.27055e-07)
(-2.47215e-09 3.48276e-09 1.35735e-07)
(-2.52366e-09 1.50229e-09 1.88012e-08)
(4.7265e-10 -1.79761e-09 4.98677e-08)
(7.39367e-10 4.79017e-09 7.47363e-08)
(1.76416e-09 -4.19016e-09 1.30126e-07)
(-1.67696e-09 -3.28262e-10 3.2508e-07)
(-1.76035e-11 1.30311e-09 5.69307e-08)
(2.54904e-09 -4.26339e-09 1.34626e-07)
(-2.7327e-08 1.11327e-09 2.25775e-07)
(-5.32682e-10 -6.19797e-10 2.16163e-07)
(1.86432e-09 2.04404e-11 2.85314e-08)
(3.92451e-10 2.38523e-09 2.24381e-07)
(-1.54118e-08 -7.80573e-09 1.47289e-07)
(5.4258e-10 2.31537e-10 2.03379e-07)
(-1.90391e-09 1.45127e-09 9.90541e-08)
(-1.10349e-09 -7.17344e-10 1.77847e-07)
(2.39089e-09 4.71179e-09 1.05169e-07)
(-8.7056e-10 8.09695e-10 1.60737e-07)
(-5.50263e-10 4.14765e-10 1.62824e-07)
(3.75662e-09 -6.07223e-09 7.12216e-08)
(3.31319e-11 -2.28922e-10 2.99295e-07)
(-4.77477e-09 -1.2094e-09 7.10428e-08)
(2.09861e-09 -1.32611e-09 1.52582e-08)
(-1.205e-09 1.77938e-09 3.16724e-07)
(2.05018e-10 1.52166e-10 1.93041e-07)
(-2.16775e-09 1.33142e-09 2.92675e-07)
(1.29285e-09 -3.04591e-09 2.26398e-07)
(2.28573e-09 3.03566e-12 4.70997e-07)
(3.98529e-09 -4.20409e-10 1.35891e-07)
(2.07316e-09 -7.20138e-10 4.11259e-07)
(2.18512e-09 4.71429e-09 9.67501e-08)
(-1.34616e-11 -2.53355e-10 1.54242e-07)
(4.37439e-09 1.96129e-09 3.04217e-07)
(-3.74115e-09 -2.50167e-09 3.18534e-08)
(-2.36118e-09 4.89303e-10 3.02831e-07)
(2.38309e-09 -2.6833e-09 1.12288e-07)
(1.43055e-09 2.65728e-09 2.93312e-08)
(-2.35325e-09 9.49729e-10 2.76308e-07)
(-2.35564e-09 1.23039e-10 6.16345e-08)
(6.83754e-12 2.27623e-10 2.02665e-07)
(-1.19768e-10 1.31335e-09 2.26213e-07)
(-3.66771e-10 1.08354e-09 3.72735e-07)
(1.70385e-10 6.30214e-09 9.47827e-08)
(2.05959e-09 -5.58246e-11 2.94082e-07)
(3.03616e-09 7.12614e-10 1.50789e-07)
(1.08618e-10 4.62372e-10 3.25475e-07)
(-8.09092e-10 5.01224e-10 3.2823e-07)
(-1.95677e-10 1.49612e-09 2.88957e-07)
(-2.497e-10 2.44649e-10 1.71758e-07)
(3.26533e-09 -1.29729e-09 4.78239e-08)
(4.52041e-10 5.69071e-10 6.89147e-08)
(6.69234e-10 -1.29513e-10 1.8311e-07)
(6.52354e-10 -2.95488e-09 2.89775e-07)
(4.57206e-10 2.16673e-09 2.78812e-08)
(1.04637e-09 -2.53412e-10 2.49525e-07)
(-1.033e-10 8.51277e-10 4.86508e-07)
(4.62298e-10 1.1493e-09 3.58304e-07)
(1.12505e-09 1.49191e-09 3.8791e-07)
(-3.46402e-09 1.52791e-09 2.46462e-07)
(-1.53099e-09 2.16068e-09 1.98072e-08)
(6.97294e-10 -6.66767e-11 2.33016e-07)
(1.10383e-09 -1.93522e-09 1.46383e-07)
(-1.04809e-09 1.58629e-09 2.67742e-07)
(-2.80979e-10 5.31592e-10 1.59108e-07)
(-2.0817e-09 -1.34167e-09 3.48488e-08)
(-6.02036e-10 -4.76707e-10 2.17787e-07)
(-3.46128e-09 4.33622e-09 1.49437e-07)
(5.01019e-11 -4.38634e-10 2.43109e-07)
(5.47061e-10 6.12699e-10 2.81195e-07)
(-9.70979e-10 2.04031e-09 1.99989e-07)
(1.2073e-09 1.599e-09 1.34188e-08)
(-2.05545e-09 9.65609e-10 1.96699e-08)
(-1.67078e-10 4.423e-10 1.93152e-07)
(2.31647e-09 -1.23284e-09 3.1513e-07)
(-1.15279e-09 9.44902e-10 2.38922e-07)
(-1.19765e-09 -1.17351e-09 1.8467e-07)
(-6.00673e-10 2.57339e-09 1.58899e-07)
(-8.33516e-10 1.86667e-09 2.56814e-07)
(7.18665e-11 1.42379e-09 2.9619e-07)
(6.81932e-10 1.59472e-09 1.90883e-08)
(-4.76521e-10 3.98426e-10 1.54117e-07)
(-1.94701e-08 1.15652e-09 1.74147e-07)
(-7.51818e-11 2.53088e-09 4.53794e-08)
(-6.12784e-10 5.49727e-09 8.37984e-08)
(-9.37222e-10 1.73499e-09 3.06029e-07)
(2.69622e-09 -1.175e-09 2.11609e-07)
(2.56444e-10 -6.45495e-10 1.96932e-07)
(1.51516e-09 -1.07555e-09 2.34207e-07)
(-4.03135e-09 2.91654e-09 1.37665e-07)
(6.0005e-11 -1.57594e-10 3.45729e-07)
(1.21498e-09 -5.57732e-09 1.77918e-07)
(1.19851e-09 -9.56115e-10 4.38218e-07)
(3.0327e-10 1.3232e-09 2.24616e-07)
(4.26905e-10 -2.92974e-10 2.50059e-07)
(3.53613e-10 -7.1827e-10 3.25837e-07)
(1.91167e-09 1.39692e-09 4.69056e-08)
(1.21014e-09 8.33238e-11 5.47568e-07)
(-3.20263e-10 -1.65595e-09 3.29583e-08)
(-1.669e-08 -2.26688e-09 1.48938e-07)
(3.91203e-09 -2.73898e-09 1.1466e-07)
(-1.69075e-08 -8.3616e-11 1.61659e-07)
(1.14981e-09 1.18154e-09 2.13004e-07)
(-4.83502e-08 1.14322e-09 2.90747e-07)
(8.09282e-11 4.77107e-10 1.42874e-07)
(-1.09275e-09 -2.92307e-10 3.29733e-07)
(-2.62056e-09 3.36275e-10 3.41294e-07)
(4.74042e-10 9.48618e-10 2.19934e-07)
(-6.41225e-10 -1.95416e-10 3.43068e-08)
(-5.35647e-09 1.65913e-10 1.18484e-07)
(-3.01357e-08 2.12071e-09 2.10303e-07)
(-3.03518e-10 -2.61194e-10 2.23581e-07)
(-6.87043e-10 2.00932e-09 9.97803e-08)
(-2.28036e-08 1.49611e-09 2.18192e-07)
(-9.03538e-09 3.11579e-10 2.38912e-07)
(1.57042e-09 3.11867e-09 3.06233e-07)
(-1.66603e-09 -6.68015e-10 4.33734e-08)
(1.42683e-09 2.63764e-09 5.32479e-08)
(-2.40675e-10 -1.39481e-10 2.67329e-08)
(1.08988e-09 1.00476e-09 1.92778e-08)
(-2.30214e-10 3.10471e-12 4.3486e-08)
(-1.83891e-08 5.11547e-10 2.21559e-07)
(-1.09525e-09 -8.00538e-10 1.83008e-07)
(-1.7539e-09 -1.95598e-09 1.83445e-08)
(-2.56645e-09 6.97733e-10 2.02072e-08)
(5.30954e-10 1.73491e-10 3.69974e-07)
(-2.57734e-08 5.65904e-09 1.66147e-07)
(-2.12287e-09 1.76374e-10 4.60947e-08)
(-9.4442e-10 -8.22054e-11 2.2854e-07)
(-1.61584e-09 9.77701e-10 1.06882e-07)
(1.82234e-09 -5.83039e-10 2.02495e-07)
(1.41788e-09 2.17512e-09 4.36595e-08)
(-1.90347e-09 -2.40759e-09 9.23072e-08)
(3.48111e-10 2.12476e-09 1.91366e-07)
(1.31084e-09 4.72539e-10 2.76427e-07)
(1.26011e-09 1.71115e-09 4.02768e-07)
(-2.18559e-09 2.99251e-09 4.22227e-08)
(-6.1247e-10 -2.12507e-09 2.41783e-08)
(-3.58783e-08 3.81446e-10 2.01612e-07)
(-2.89504e-09 2.11805e-09 2.75099e-08)
(-2.43465e-10 3.04165e-09 3.10617e-07)
(-3.67446e-09 -1.17815e-09 2.83377e-08)
(7.99639e-10 3.05117e-09 1.46968e-07)
(-1.79981e-09 -4.22882e-10 3.17609e-07)
(3.03101e-09 5.49657e-10 4.41132e-07)
(-5.28706e-10 -1.31888e-09 5.81872e-08)
(1.32147e-09 -7.84048e-10 1.38799e-07)
(-2.10377e-09 -2.76835e-10 3.81822e-08)
(-3.5653e-09 -2.20083e-10 2.84025e-08)
(-1.79536e-10 -1.18757e-09 2.71416e-07)
(-2.00068e-09 9.85668e-10 1.44706e-08)
(7.49307e-10 4.28414e-10 1.84251e-07)
(-4.99871e-10 -3.12994e-09 6.0609e-08)
(-5.32425e-10 2.67286e-09 3.28904e-07)
(-3.93625e-10 1.12608e-09 2.27268e-07)
(2.8333e-09 1.14376e-09 1.89563e-08)
(-2.45807e-09 -6.14778e-09 1.3333e-07)
(-1.82438e-11 1.26457e-09 2.49558e-07)
(-1.31457e-10 1.50327e-09 3.09833e-08)
(9.94354e-10 -1.23809e-10 2.93368e-07)
(-1.95208e-09 5.47821e-09 7.83623e-08)
(4.76403e-10 2.36374e-10 2.13049e-07)
(9.15401e-10 1.20443e-10 2.36543e-07)
(1.99594e-09 -4.62629e-12 5.45926e-08)
(-2.80201e-09 -5.74741e-10 2.09914e-08)
(-1.84517e-09 -6.50043e-10 9.1437e-08)
(-3.9107e-08 2.07143e-10 2.43638e-07)
(-1.26476e-09 -2.87367e-11 2.24296e-07)
(9.73565e-11 5.13259e-09 7.65406e-08)
(2.67024e-09 -4.97412e-10 1.81574e-07)
(3.62549e-10 1.02401e-09 2.41207e-08)
(1.09047e-09 9.37157e-11 2.10332e-07)
(1.05658e-09 1.41735e-09 2.29678e-08)
(-1.45921e-09 5.91274e-10 3.39681e-07)
(2.74981e-10 -1.42221e-10 3.01431e-07)
(-6.5437e-10 3.44636e-11 2.24009e-07)
(-1.41233e-09 -1.58167e-10 1.42469e-08)
(7.7858e-10 -8.26408e-10 3.43967e-07)
(-1.45296e-09 8.56146e-10 1.5505e-07)
(-7.39787e-11 1.26748e-10 3.60351e-07)
(2.13174e-10 6.97078e-10 6.22188e-08)
(-3.00961e-08 8.04993e-10 2.22566e-07)
(-2.10024e-09 9.49988e-10 2.64642e-07)
(1.08484e-09 -1.13106e-10 6.47918e-08)
(-2.22874e-10 7.59738e-10 2.64326e-07)
(-3.94803e-08 4.59399e-09 2.10062e-07)
(-1.224e-09 -6.31971e-10 1.81028e-07)
(-7.62479e-10 -1.82182e-09 3.23951e-08)
(-2.4754e-09 4.85716e-09 9.9688e-08)
(-2.68614e-10 2.59114e-10 1.9815e-07)
(1.59886e-09 -1.63652e-09 2.17365e-07)
(-1.09187e-09 1.31742e-09 3.14904e-08)
(-5.15154e-10 -4.33722e-09 2.17518e-07)
(3.90135e-09 3.08733e-09 1.56596e-07)
(-1.65879e-09 1.93564e-09 2.42397e-08)
(-5.53937e-10 1.06118e-10 2.09774e-07)
(-1.54838e-08 7.43085e-10 1.58319e-07)
(-2.53037e-09 -5.38018e-09 3.2403e-07)
(-1.41576e-10 5.95391e-10 2.05778e-07)
(5.28791e-10 5.74711e-10 1.87808e-07)
(3.19142e-10 -7.61877e-10 3.15757e-07)
(1.4389e-09 -5.10464e-10 2.54794e-07)
(1.80947e-09 6.0982e-10 6.94985e-08)
(-8.77749e-10 4.81347e-09 7.11391e-08)
(3.01355e-10 1.19766e-09 3.88034e-07)
(-2.67626e-08 -1.15403e-09 2.2479e-07)
(3.72943e-10 2.07075e-09 2.07808e-07)
(2.22799e-09 -1.7335e-09 1.8725e-07)
(2.96348e-09 -1.45247e-09 1.25984e-07)
(-1.3543e-09 2.9018e-09 3.23189e-07)
(6.19024e-10 1.24111e-09 2.05266e-07)
(-1.7899e-09 -1.72327e-09 1.79832e-07)
(-3.3237e-09 2.56485e-09 2.23772e-07)
(-1.61959e-09 2.3205e-09 4.32352e-08)
(-1.32488e-09 -7.69488e-10 1.68732e-07)
(-2.42894e-09 -1.86108e-09 3.8641e-08)
(1.8972e-09 -2.02988e-09 3.13838e-07)
(6.43728e-10 -3.70151e-10 3.30862e-07)
(-1.21421e-09 4.84649e-09 1.64423e-07)
(3.7337e-11 -1.61987e-09 1.5987e-07)
(1.01617e-09 -1.53842e-09 1.7495e-08)
(2.5315e-10 -1.01041e-09 1.04092e-07)
(-3.68523e-09 -1.72931e-09 7.45344e-08)
(-1.26273e-09 9.60173e-10 2.69317e-07)
(1.68863e-09 2.23358e-10 2.42518e-07)
(-2.3777e-08 -1.54149e-09 2.20567e-07)
(-2.24641e-09 8.94765e-10 3.16872e-07)
(-1.46298e-09 2.71876e-09 8.13147e-08)
(-1.11878e-08 5.09417e-10 1.36573e-07)
(1.26687e-09 -4.18211e-09 2.44188e-07)
(1.86874e-09 9.0001e-10 2.68026e-08)
(1.19489e-09 -4.66936e-10 2.49047e-07)
(-2.05846e-10 1.4887e-09 5.32708e-08)
(-2.00061e-09 -4.36647e-10 2.065e-07)
(4.00619e-09 -2.06464e-09 3.14923e-08)
(1.41655e-09 -5.59298e-10 3.66496e-07)