/*--------------------------------*- C++ -*----------------------------------*\
| =========                 |                                                 |
| \\      /  F ield         | OpenFOAM: The Open Source CFD Toolbox           |
|  \\    /   O peration     | Version:  2406                                  |
|   \\  /    A nd           | Website:  www.openfoam.com                      |
|    \\/     M anipulation  |                                                 |
\*---------------------------------------------------------------------------*/
FoamFile
{
    version     2.0;
    format      ascii;
    arch        "LSB;label=32;scalar=64";
    class       volScalarField;
    location    "50";
    object      nut;
}
// * * * * * * * * * * * * * * * * * * * * * * * * * * * * * * * * * * * * * //

dimensions      [0 2 -1 0 0 0 0];

internalField   nonuniform List<scalar> 
59516
(
4.11226e-06
1.36981e-05
3.41815e-07
4.20991e-06
0.0010858
0.000186194
8.67279e-07
4.94692e-06
1.01085e-06
7.17201e-05
0.00035653
5.94134e-05
1.79273e-06
0.000148093
6.42545e-05
5.9093e-05
3.15621e-05
9.18227e-05
1.42327e-05
6.59798e-06
0.000132948
5.70825e-07
2.72619e-06
0.00012062
2.11917e-07
5.28051e-05
0.000114923
0.000155531
7.19582e-05
0.000127652
0.000242135
0.000147241
2.28378e-07
5.0345e-06
1.83206e-05
6.08724e-07
0.000124611
8.34424e-05
1.85145e-05
1.35715e-06
3.78995e-06
0.000164259
1.84897e-05
9.7512e-06
3.72046e-06
5.84412e-05
5.85853e-06
9.34936e-05
0.000861686
6.71539e-05
0.000623643
0.000108812
3.42833e-07
5.21061e-07
0.000137213
5.27465e-06
0.000245832
0.000123958
1.76132e-05
2.62341e-05
2.82331e-06
0.000135523
1.64633e-05
2.77761e-05
3.64513e-06
1.04948e-05
0.000178018
0.000109059
0.000423981
1.00517e-06
0.000194441
9.40243e-06
0.000157923
1.42867e-06
4.89851e-05
2.11847e-05
6.76398e-05
1.74431e-06
0.000104489
6.01341e-05
0.000111664
2.65418e-05
1.19867e-05
0.000145086
2.96855e-05
3.29833e-05
0.000111291
6.22236e-07
5.90499e-05
4.89393e-05
0.000530361
3.58011e-06
1.54737e-05
2.35956e-06
1.28858e-05
0.0010868
2.55989e-06
5.79247e-05
7.30205e-05
2.10416e-06
0.000127931
0.000158741
0.00015564
5.86251e-05
5.13399e-07
6.82931e-06
0.000119402
1.35848e-06
7.42418e-06
6.11565e-05
0.000243604
0.000169071
6.52573e-05
0.000153734
4.49503e-06
5.80758e-06
5.85008e-05
1.56016e-06
0.000144285
1.93765e-06
8.35208e-05
2.14026e-05
1.31451e-06
1.87416e-05
0.000233339
2.17607e-05
0.000173939
0.000106224
0.000280993
4.01495e-05
5.80959e-05
1.99096e-06
0.000138471
2.66606e-07
1.01559e-05
4.57042e-07
0.000111832
3.97688e-08
0.00011827
1.54147e-05
0.000110362
3.84139e-05
0.000123592
7.64184e-07
4.18944e-05
9.32818e-07
4.59786e-06
2.78055e-06
0.00025106
3.35492e-06
1.23834e-05
0.000108176
3.3452e-06
1.56101e-06
1.20269e-05
0.000135705
3.45116e-06
1.11272e-06
1.74441e-05
0.000137946
6.55358e-05
6.32936e-05
0.00011592
0.00016395
6.00343e-06
1.82565e-05
5.73669e-05
3.41939e-05
0.000130405
6.5073e-06
1.63478e-05
5.82266e-05
4.21116e-05
2.83935e-07
9.38252e-05
9.04267e-06
1.64868e-05
3.11237e-05
5.84091e-05
9.67161e-05
4.13553e-07
0.000112377
0.000185205
4.49567e-05
3.26882e-05
5.62332e-05
9.4021e-05
0.000134036
6.45792e-07
8.33532e-06
4.66418e-06
5.983e-05
9.08715e-06
4.19328e-05
4.59098e-07
9.63759e-05
5.57973e-05
9.64744e-05
9.05187e-06
8.78203e-07
2.97144e-05
6.45939e-05
5.33911e-06
0.000127017
3.59644e-07
9.08257e-07
5.0692e-05
1.12166e-05
0.000139785
4.6342e-06
6.91077e-05
0.000177016
1.13792e-06
6.37292e-05
2.09224e-06
1.1561e-05
8.65342e-07
4.29887e-07
6.48326e-05
1.9504e-06
6.68955e-05
1.36178e-05
1.21622e-05
0.000129269
1.89447e-05
2.23291e-05
0.000164116
0.000108862
2.01315e-05
6.18147e-05
1.25404e-05
2.42456e-05
7.01135e-05
0.000150266
0.000109852
9.54718e-05
4.70066e-05
3.02836e-06
5.45431e-06
6.99402e-05
6.44372e-05
0.000147355
5.46339e-05
0.000162364
5.49868e-05
1.04312e-05
3.26984e-06
6.11105e-05
6.14246e-06
3.4696e-06
2.7497e-06
2.12223e-06
8.72107e-05
3.25667e-06
1.86203e-06
4.14004e-06
7.08996e-05
3.72562e-06
0.000107614
6.07035e-05
3.46418e-07
7.00601e-06
3.6022e-06
2.09146e-05
3.84425e-06
5.17677e-05
7.74275e-06
1.17166e-05
0.000134038
5.55763e-05
1.52017e-05
2.05516e-05
5.62756e-06
1.32672e-05
8.25184e-06
1.07554e-05
0.000133211
3.25449e-06
0.000148667
0.00010804
5.99181e-05
8.3755e-07
0.000167061
1.85468e-06
6.43016e-07
2.84511e-05
4.79716e-05
0.000168001
6.40885e-05
0.000116423
2.62634e-05
9.32206e-07
2.27462e-06
1.0385e-05
1.0409e-05
0.000176679
9.48208e-06
2.28474e-07
8.72962e-05
2.55123e-05
4.75468e-07
5.1241e-05
0.000144098
0.000152096
1.225e-06
0.00014471
9.28749e-05
7.00886e-05
1.17627e-05
1.39944e-05
2.28636e-07
5.28422e-05
6.94684e-06
0.000121875
6.19065e-05
9.79948e-06
9.43407e-06
0.00108035
1.71363e-05
0.000102857
6.66496e-05
6.7497e-06
2.88458e-05
6.36626e-05
9.0735e-05
2.62557e-06
3.08232e-05
1.55552e-06
1.67648e-05
5.80409e-06
2.66426e-06
5.55508e-05
0.000152944
2.03295e-06
0.000103553
0.000112626
7.57228e-06
2.92314e-07
6.42326e-05
2.57936e-05
2.9107e-06
5.45243e-05
2.54006e-05
0.000100108
2.2277e-06
5.06711e-05
5.8274e-05
6.0451e-05
3.79827e-05
1.70971e-06
2.08042e-06
3.41584e-06
2.12418e-07
2.38433e-05
0.000116676
0.000118773
1.21613e-05
0.000142889
0.000263591
1.73281e-05
3.92001e-06
2.09367e-06
0.000255639
1.1371e-06
3.77497e-07
1.90024e-06
3.38154e-06
0.000118929
0.000287728
6.73018e-05
0.000103773
0.000113562
8.29299e-06
1.32549e-05
5.55448e-06
0.000132685
9.25981e-07
0.000114469
1.54302e-05
5.27251e-05
5.18394e-05
1.75928e-06
0.000379729
0.000153217
6.06045e-05
1.05994e-06
0.000143753
2.73955e-05
2.62479e-06
1.18122e-07
1.51766e-05
1.4617e-05
5.52831e-06
0.00012802
5.99358e-05
9.75776e-05
6.21129e-05
6.07123e-05
4.10819e-05
3.12022e-05
5.23298e-05
1.6182e-07
6.75525e-06
4.79489e-05
4.06114e-05
0.000116708
1.71804e-06
1.03152e-06
6.87557e-07
1.88368e-06
0.0001559
0.000146974
2.2272e-07
2.5836e-05
6.12586e-05
0.000113274
2.06283e-05
2.67251e-06
4.92275e-05
3.567e-05
5.5884e-05
2.8059e-05
2.32594e-05
6.98665e-06
5.03366e-05
5.88615e-05
1.48825e-05
5.6428e-06
4.22072e-06
3.67369e-05
4.98744e-07
2.63746e-06
9.89558e-05
0.000113564
0.000136262
0.000181429
5.6485e-05
2.12957e-06
2.90554e-07
0.000102326
0.000145854
2.69694e-06
4.84304e-06
3.46029e-05
1.90325e-06
2.84081e-07
9.08605e-05
2.57927e-07
0.000161585
1.28615e-06
5.47481e-05
0.000254361
8.16539e-06
1.17832e-05
1.83037e-06
0.000147037
4.32593e-05
6.07705e-05
4.61653e-05
8.15573e-06
4.59059e-06
2.99423e-05
4.16121e-06
7.26957e-05
1.91618e-05
1.90753e-05
5.31132e-07
0.00013748
3.77458e-05
1.79598e-06
0.000111107
6.32541e-06
1.23942e-05
8.74226e-07
2.00168e-05
0.000142258
1.60579e-05
2.86201e-07
4.51489e-06
8.50324e-07
9.79964e-05
1.64527e-06
0.000173868
1.35756e-05
0.00079246
2.16497e-05
0.000120262
3.07281e-06
5.91325e-06
8.44626e-05
9.55958e-05
4.89718e-05
0.000159861
1.05889e-05
9.83967e-05
0.000127791
5.8887e-05
5.50276e-05
5.05987e-06
6.34372e-05
0.000214079
5.55979e-05
5.3259e-05
1.06578e-06
7.36872e-05
0.000153765
2.02053e-06
3.05019e-06
4.72603e-05
0.000233242
7.53874e-06
0.000140181
7.93685e-06
0.000142456
4.81596e-05
1.13856e-06
5.32326e-05
0.000146317
0.000123752
0.000105467
6.11021e-05
1.27475e-07
5.97186e-05
5.12353e-05
0.000389897
3.25662e-05
0.000158859
2.9724e-06
0.000119441
2.21871e-05
6.09801e-05
2.80589e-05
6.5876e-05
2.02203e-06
4.40473e-05
8.54685e-05
1.58305e-05
0.000149262
0.000134233
4.48163e-07
5.48542e-05
9.51528e-07
9.6455e-07
4.28039e-05
6.85002e-05
1.09901e-05
5.38399e-05
3.3226e-05
1.16837e-06
0.000158146
1.27223e-06
0.000116145
0.000158082
5.58446e-07
9.96688e-05
1.83573e-06
7.02988e-05
1.72134e-06
5.31251e-05
3.41073e-05
1.55938e-05
5.02188e-05
2.05489e-05
5.053e-05
5.63449e-05
0.000105273
6.5073e-05
3.21872e-05
2.91356e-06
0.000120741
9.72442e-06
2.72546e-05
2.13498e-05
4.37844e-05
5.61727e-07
0.00013741
1.51739e-05
1.12795e-05
5.10016e-06
5.62232e-06
0.000162778
7.63756e-05
1.53306e-05
1.26127e-07
6.86185e-05
7.33111e-07
0.000112314
0.000145343
4.76164e-05
1.70941e-05
8.783e-05
1.0604e-05
1.3322e-05
1.92997e-06
3.25199e-05
0.000133326
6.54862e-05
0.000153829
0.000122003
5.35092e-05
2.24486e-07
6.93875e-07
5.45885e-07
4.40168e-07
4.52065e-06
9.29551e-05
1.55932e-05
2.18041e-05
1.99561e-05
3.27129e-05
3.49951e-05
0.000128022
8.52236e-06
0.000111864
0.000207511
5.18447e-05
0.000538951
8.98124e-07
0.000159417
3.43748e-05
1.10343e-05
1.45244e-06
2.39719e-05
0.000111046
0.0014843
0.000701381
5.27482e-05
7.59409e-07
0.000151673
0.000216208
2.50893e-06
0.00010145
4.71294e-05
0.000149998
0.000158395
0.00017425
3.57405e-05
2.9293e-06
0.000153662
0.000147916
0.000106586
0.00020937
0.000110885
1.12564e-06
1.29982e-06
6.83417e-07
0.00012767
5.74379e-05
1.45407e-06
2.27054e-05
3.33688e-06
0.000112491
0.00014165
0.000391291
0.000171528
1.2245e-06
0.000160749
7.52828e-06
4.6808e-05
7.48687e-06
0.000103521
8.01302e-06
9.92821e-05
0.000168273
4.06406e-05
0.000131507
1.43803e-05
0.000121714
3.44954e-06
9.07991e-07
0.000141074
5.894e-05
8.99965e-07
0.000111158
1.18669e-05
6.42228e-05
3.03714e-06
5.82963e-05
0.00010807
0.000146568
0.000109148
0.000667257
4.0845e-06
6.2548e-05
1.1721e-05
0.000103505
6.72336e-05
0.00014897
5.53002e-06
1.31463e-08
1.30291e-05
0.00013643
6.60883e-07
1.55784e-05
4.29363e-06
6.79073e-05
0.00088127
1.04799e-06
9.47745e-05
9.71259e-05
0.000486808
3.13819e-07
0.000108835
0.00012158
5.80485e-05
3.13215e-07
0.000109807
1.40943e-06
5.67485e-05
0.000152644
3.98883e-05
0.00124524
1.15976e-07
2.26063e-05
3.75889e-05
1.64991e-05
3.07164e-07
0.000104121
0.00011203
4.22279e-05
0.00098409
6.9111e-07
1.00046e-06
2.07129e-05
7.16857e-07
1.17887e-05
9.14862e-06
3.4567e-06
0.000145946
5.67906e-05
0.000132639
2.30488e-06
2.54662e-05
1.16304e-05
5.07638e-06
0.00013022
1.93228e-05
6.50842e-05
2.48409e-05
3.79168e-05
0.00118129
9.33814e-06
1.46248e-05
0.000839734
2.00581e-06
0.000164002
3.90641e-05
6.14704e-05
4.49423e-07
0.000169118
1.05215e-05
0.00134848
3.49352e-06
1.11025e-06
2.40486e-06
1.0807e-06
5.28247e-05
0.000120601
0.000125245
9.64875e-05
4.63549e-05
5.93238e-06
1.89451e-06
9.49285e-07
0.000126196
1.72056e-05
1.56395e-05
3.70212e-05
9.49981e-07
3.28053e-06
1.29466e-05
6.81744e-05
0.000144204
1.20058e-05
7.33334e-06
0.000160982
9.2837e-05
5.43079e-05
0.000143322
2.18518e-05
1.11872e-05
5.46042e-05
0.000134844
3.75537e-06
0.000149197
3.69643e-06
3.19785e-05
9.18318e-05
3.1402e-05
1.84244e-06
4.02198e-05
1.4351e-06
0.000103054
3.02953e-05
5.04803e-07
1.3328e-05
1.83297e-05
1.32558e-05
1.2289e-06
4.48841e-05
4.83406e-07
0.000113811
1.31753e-05
8.61165e-06
6.23779e-05
2.24902e-06
0.000264297
5.08691e-05
0.000109049
0.000171665
5.30577e-05
0.000136862
8.57641e-07
4.33828e-06
9.64425e-07
8.58457e-05
1.45323e-06
3.33392e-06
0.000150765
6.37155e-06
0.000582688
9.43212e-05
0.000150329
9.32134e-07
2.78093e-06
0.000150194
4.98518e-06
0.000145293
2.44685e-05
5.28354e-06
2.30232e-06
9.7839e-07
9.0166e-06
8.57989e-06
4.80687e-05
0.000132755
0.000115022
6.01844e-06
6.12978e-06
0.000131398
1.01759e-06
0.000313621
2.65364e-05
2.40019e-05
2.24167e-05
5.05796e-06
0.000100747
1.52018e-05
0.000121336
2.12955e-05
4.97573e-06
0.000126676
8.71418e-06
5.17435e-05
7.10815e-07
9.2339e-06
2.45207e-07
2.99346e-06
1.64583e-05
4.49306e-06
1.07603e-05
2.02349e-07
4.79807e-05
1.52202e-05
4.17841e-05
0.00155876
5.5232e-08
5.34953e-06
2.56812e-06
0.000126889
9.81232e-05
1.17579e-06
7.97745e-07
4.72702e-07
8.91627e-05
1.45893e-06
7.04794e-05
4.32033e-05
0.000224651
4.32733e-06
3.91199e-05
0.000142944
2.41051e-07
4.13916e-06
0.000111399
4.20346e-06
4.74068e-05
5.95084e-06
4.00077e-05
8.55856e-05
3.47752e-05
5.65344e-05
0.00143794
0.000122868
1.88517e-06
3.33638e-05
0.000157679
7.71149e-05
5.63218e-05
2.67598e-06
9.44946e-05
4.3585e-06
2.71648e-05
1.90066e-05
1.79637e-06
1.78235e-05
0.00012286
5.22962e-06
7.70087e-06
1.87814e-06
1.82774e-05
1.99656e-06
6.96462e-05
4.85472e-05
0.000128549
1.90006e-05
1.16021e-05
2.13606e-05
0.000126771
5.76278e-05
1.00399e-05
3.81345e-05
8.35303e-05
1.82168e-05
9.60821e-06
1.7188e-05
4.43462e-05
1.0753e-05
3.08474e-05
3.19798e-05
6.35353e-05
0.00139909
3.63943e-07
2.68147e-06
0.000120255
6.02467e-05
1.28029e-05
1.09e-07
0.000119563
1.46213e-05
3.58294e-06
0.000123635
0.000123298
7.21488e-05
1.59493e-06
1.04108e-05
5.35897e-05
0.000294718
9.04027e-06
6.57827e-05
0.000166272
5.79406e-05
0.000107935
1.44247e-05
1.91555e-05
4.88758e-05
0.000112704
2.3301e-05
1.12057e-05
1.42868e-07
0.000102267
4.78384e-05
0.000104332
1.25891e-05
4.86699e-05
4.6722e-05
9.55782e-06
8.97638e-05
5.80774e-05
4.24145e-06
1.56988e-05
3.09835e-06
7.62741e-05
9.37939e-05
1.04981e-06
6.17737e-05
3.13052e-05
5.67158e-05
7.50581e-05
0.00010662
0.000112082
2.25275e-05
0.000101081
0.000182353
5.10416e-05
4.04203e-06
1.28823e-05
0.000237925
0.000153822
1.41139e-05
5.83763e-05
1.30146e-06
0.000164486
0.00013855
1.0629e-05
0.000105663
1.50739e-06
2.21174e-06
8.03681e-06
0.000132365
1.48097e-06
9.75895e-06
0.000136762
0.000112381
5.82562e-05
5.44727e-05
1.10022e-05
5.36712e-05
2.18088e-06
2.86143e-06
0.000110463
2.02837e-06
9.02141e-06
4.26867e-05
4.54502e-05
1.03433e-05
1.24218e-05
2.56933e-06
0.000139797
3.40274e-06
1.32749e-05
0.000111088
7.09019e-07
0.000121826
5.30092e-06
4.86254e-06
3.67471e-05
0.000185521
5.54765e-05
1.32794e-05
4.95079e-05
1.01158e-05
2.13573e-06
0.000142047
9.75983e-06
2.36538e-06
5.12079e-05
0.000167885
0.000121863
6.18853e-05
5.10276e-07
2.86641e-05
1.44604e-05
4.84294e-05
2.48206e-06
9.60874e-05
4.10814e-06
6.54187e-05
2.9604e-05
6.06132e-05
4.70057e-07
0.000162075
1.52838e-05
9.51773e-07
7.21161e-05
0.000122664
3.9056e-06
6.16907e-07
0.000158323
7.34642e-06
9.1094e-06
2.98304e-05
1.94545e-05
7.63754e-06
0.000162318
1.3007e-05
2.93742e-07
0.000160664
0.000104648
0.000107449
1.61138e-05
1.39641e-05
1.0098e-05
5.56635e-05
1.50042e-05
0.00014815
4.18592e-07
3.47416e-05
7.49508e-06
5.30328e-05
3.29733e-08
1.06347e-06
0.000108327
0.000111485
2.37964e-06
7.35505e-07
0.000143295
0.000173996
1.31326e-05
1.86794e-07
7.52973e-06
4.44709e-06
1.04044e-06
1.15551e-06
2.16916e-05
6.09489e-05
2.71638e-05
5.10381e-05
1.13734e-06
1.65258e-05
0.000111014
0.000163767
1.84001e-05
1.95899e-06
4.98925e-06
1.1495e-05
6.78864e-06
9.28604e-05
1.28875e-05
3.63942e-05
0.000127129
0.000160277
2.81217e-05
3.05658e-05
0.000122304
0.000126585
2.37567e-05
8.37036e-06
0.000168139
2.08504e-05
2.49996e-05
9.65388e-06
3.20662e-05
7.42976e-07
2.48517e-06
0.000144159
9.1164e-05
4.73178e-05
1.38149e-05
3.05636e-06
5.67228e-06
5.54529e-05
5.94832e-05
0.000107695
2.43755e-05
0.000167234
6.11961e-07
2.19137e-07
9.51551e-06
6.3328e-05
0.000145232
6.99858e-05
2.58448e-05
3.61754e-07
3.79205e-05
4.56714e-06
2.32181e-07
0.000124896
7.33801e-05
0.000241049
3.9497e-06
1.11592e-06
3.26131e-06
5.32532e-05
1.66768e-05
6.19206e-07
2.76892e-07
1.31338e-05
7.36122e-07
1.01406e-05
5.66776e-06
5.9656e-05
0.000171046
1.34775e-05
0.0001097
1.69605e-06
1.30299e-06
1.6105e-05
0.000139281
2.11158e-06
4.92981e-05
0.000119533
0.000136552
1.45045e-06
4.05664e-05
2.05657e-06
2.40929e-06
1.67152e-05
4.66507e-06
0.000124859
0.000109299
0.000123893
6.81408e-05
4.64043e-06
1.83314e-06
4.49124e-06
2.62882e-06
1.43373e-06
0.000190375
1.6701e-06
0.00013554
6.16033e-06
4.04055e-06
0.000138408
4.62963e-05
6.22449e-06
7.59664e-07
1.00672e-05
4.48984e-05
9.61419e-05
1.47235e-06
0.000124922
8.84897e-05
0.000121453
2.73284e-06
3.35071e-05
0.00010873
0.000188565
0.000117917
2.08152e-05
1.74929e-05
2.9774e-05
7.25539e-05
1.00179e-05
1.49227e-05
6.28556e-06
7.23618e-06
0.000100466
0.000118804
1.42517e-05
2.5665e-06
5.98802e-05
7.72069e-05
1.21883e-06
1.33973e-06
9.77141e-06
0.000168901
0.000201422
5.84784e-05
4.32443e-06
1.525e-05
4.89226e-06
0.000136492
0.000101013
5.98273e-07
2.84749e-06
6.07731e-05
6.06985e-05
4.20334e-06
9.47667e-06
1.80672e-05
4.68228e-05
4.96185e-06
2.73267e-06
7.34977e-06
2.85037e-06
1.94235e-06
1.62951e-05
4.39384e-05
5.58596e-05
1.30599e-06
0.000117779
5.52771e-05
7.65675e-06
6.02486e-05
1.53228e-07
6.13991e-06
6.95444e-06
2.5049e-06
1.43105e-06
2.08037e-05
1.4069e-05
4.69823e-06
0.000100523
0.000172934
3.75198e-05
5.47015e-05
0.00014106
1.46659e-05
2.87873e-06
2.4257e-05
6.48833e-07
0.000133686
3.79521e-06
1.9039e-06
1.58864e-05
1.74555e-05
1.62283e-06
0.000154436
1.16994e-06
0.000145732
7.52138e-06
0.000141655
4.32857e-06
1.2559e-07
1.77101e-05
0.000150533
6.46711e-05
1.00918e-05
1.44892e-07
5.13696e-05
6.15242e-05
9.73834e-06
4.66109e-05
0.000119142
4.82005e-05
2.30482e-07
5.79047e-05
5.63567e-05
0.000163099
3.14631e-06
3.43761e-05
5.80463e-08
1.2249e-06
6.06052e-06
7.64807e-06
6.34815e-06
0.000135977
0.000104081
0.000161872
1.65116e-05
8.47328e-05
0.000102052
0.000113017
5.38748e-05
0.000163266
6.69168e-06
0.000162428
1.89718e-05
9.26654e-05
1.98059e-06
5.65701e-05
5.90158e-05
0.000105757
6.5866e-05
7.62121e-05
1.06478e-05
1.44384e-06
0.00171333
1.40714e-05
0.000146518
1.55209e-06
1.76479e-06
4.4108e-05
1.61317e-05
2.99152e-06
2.11004e-05
1.27702e-05
6.1347e-05
0.000106735
5.34505e-06
6.25303e-05
0.000113079
1.40899e-05
1.06354e-06
0.000113612
0.000175536
5.98231e-06
7.9029e-05
6.37477e-05
0.000150737
4.88188e-05
0.000118522
0.000127184
0.000114845
0.000148443
4.27654e-06
1.33812e-05
4.55583e-05
0.000137079
1.33719e-05
2.59994e-07
3.4368e-07
3.00943e-06
5.8273e-06
0.00010829
6.4513e-06
0.00140615
1.48531e-05
9.52497e-05
7.61689e-07
0.000128888
3.94929e-06
1.13455e-05
0.000184781
0.000103704
1.43121e-07
7.92853e-06
0.000134632
3.35076e-06
9.26391e-07
5.09148e-05
6.545e-06
0.000109632
2.84554e-07
1.66744e-05
0.000186536
3.3988e-07
4.5162e-07
2.40195e-05
1.0404e-05
1.1448e-06
4.89554e-07
0.000272742
4.85487e-06
5.65707e-06
1.78757e-06
1.55563e-05
8.44501e-05
8.64757e-07
0.000192348
9.79828e-08
0.000204169
0.000228238
6.62544e-05
6.13229e-07
8.17052e-07
0.000448731
4.83209e-06
3.69541e-06
1.87572e-05
1.33797e-06
0.000154989
0.000162547
0.000221008
6.17331e-05
0.000182457
1.14562e-06
0.000123888
2.73109e-06
0.000105306
0.000142291
8.86198e-05
5.42896e-05
1.56238e-05
9.356e-07
2.74584e-05
0.000119252
0.000124049
4.2899e-07
3.98537e-06
0.000159019
1.19519e-06
5.58704e-05
1.4421e-05
2.66429e-05
4.59607e-06
3.47392e-05
5.58206e-06
8.72362e-06
1.56061e-05
0.000111942
9.46524e-05
6.70311e-05
0.000102669
3.1912e-06
1.63432e-05
6.09883e-05
5.79417e-05
6.06436e-06
3.45632e-07
1.55435e-06
5.43892e-05
1.84153e-07
0.00013731
7.52269e-05
8.69199e-07
0.000121446
1.43168e-05
1.17882e-05
1.34823e-06
1.04479e-05
4.36014e-06
9.68933e-06
1.2542e-05
9.75373e-06
2.9408e-06
7.77382e-06
0.000152246
0.000119786
2.00879e-06
4.64574e-06
2.55372e-06
1.16947e-05
6.54035e-06
0.000131184
1.99387e-06
5.26539e-07
3.49635e-06
1.06929e-05
0.000123693
5.45104e-05
8.26774e-05
9.43879e-07
5.23456e-05
5.0971e-06
0.000151109
2.38354e-07
0.000114776
1.45532e-05
4.57859e-05
6.33975e-05
7.87268e-07
6.45818e-06
0.000109153
0.000157025
2.39495e-06
0.000187884
7.71379e-06
1.48276e-05
1.49901e-05
2.39509e-06
1.85182e-05
2.43392e-06
0.000153561
5.46924e-06
2.93446e-07
7.85663e-05
0.000129336
5.21906e-06
9.07285e-07
1.47797e-05
1.88881e-06
0.000106042
1.31616e-05
0.000144055
4.94164e-06
1.82944e-06
2.09687e-06
1.57856e-08
0.000107892
0.000146042
0.00013783
2.90927e-05
0.000108261
3.31901e-06
0.000101468
1.75162e-06
6.37084e-05
0.000130741
5.00017e-06
2.93584e-06
1.41607e-05
4.43488e-05
6.28642e-07
6.74212e-07
0.000117078
7.27478e-05
0.000172763
5.08554e-05
4.31306e-05
6.83081e-05
1.7838e-06
0.000183913
0.000107112
0.000143027
0.00011633
2.89782e-06
5.26433e-07
4.28351e-06
0.000124148
1.53639e-08
2.01706e-06
2.73428e-06
6.95314e-05
5.28721e-07
3.3242e-05
2.33982e-06
1.60308e-05
0.000140627
5.34117e-05
2.516e-06
0.000102877
9.37994e-06
1.23281e-05
9.51905e-07
3.31677e-06
4.88346e-06
3.87378e-05
0.000108627
7.55407e-05
6.18741e-05
0.000157611
8.82984e-07
0.000122577
4.01198e-06
0.000148322
0.00011545
5.5329e-05
2.52661e-05
1.33134e-06
8.72191e-05
0.000164067
3.45903e-06
1.82205e-05
2.04141e-05
4.94249e-06
0.000139287
1.46269e-05
0.000118842
2.88711e-06
7.83795e-06
5.05651e-05
6.22599e-06
1.65526e-05
2.58105e-06
1.21076e-05
1.8647e-05
1.6884e-06
2.08132e-05
1.35716e-07
0.000171815
0.000154046
5.02545e-07
0.00016973
7.09265e-07
7.7554e-07
1.50624e-05
6.31297e-05
5.13847e-07
0.000117465
7.7637e-05
5.09437e-05
1.21912e-05
0.000114906
6.89021e-08
7.07969e-05
2.70889e-05
4.58121e-06
0.000111401
1.58567e-06
5.05382e-07
1.37341e-05
7.86904e-07
0.000131408
0.000145565
1.44667e-05
1.3174e-06
1.85434e-05
6.91917e-06
0.000149262
9.3599e-05
4.74052e-05
7.21746e-05
1.10831e-05
0.000108814
5.45815e-07
4.55246e-06
0.000117334
0.000180765
7.41211e-05
1.35254e-05
0.000149457
3.2973e-07
0.00012019
0.000163599
1.7841e-05
2.75635e-05
6.53716e-05
2.40105e-06
2.23806e-05
1.15726e-06
4.25545e-05
1.9451e-06
3.41883e-06
1.73963e-05
1.50366e-06
0.000130127
0.000112761
5.19161e-07
1.86122e-05
4.59457e-06
0.000142938
0.000156957
2.62377e-07
0.000167915
2.53439e-06
1.29842e-05
6.5072e-05
0.000111576
6.12787e-05
3.20091e-05
1.86602e-06
3.21399e-06
3.93849e-07
5.42695e-05
0.000174583
2.16065e-05
0.000168484
0.000121265
0.000103943
0.00010761
7.92745e-06
8.08517e-05
1.06391e-06
3.12446e-06
9.45059e-06
7.91216e-06
1.11501e-05
7.67331e-06
5.8816e-05
3.9039e-05
1.17984e-05
1.05446e-05
9.45704e-05
3.12726e-06
0.00016939
1.34629e-05
0.000114843
3.7666e-06
3.29479e-07
0.00116726
0.000138778
9.95686e-06
6.56678e-05
0.000137705
6.33901e-07
0.00013887
6.00971e-05
1.76269e-05
8.77475e-06
6.55846e-05
0.000103078
4.40384e-06
5.16419e-05
5.42016e-05
7.86003e-06
9.17242e-06
2.25807e-05
0.000109965
1.57717e-07
6.0137e-07
7.83799e-05
5.51307e-06
9.67173e-06
5.50967e-06
9.68213e-05
0.000144732
0.000101551
1.71394e-06
6.95525e-05
5.28697e-07
9.08823e-05
2.30069e-05
5.15234e-05
3.04322e-07
3.60618e-07
1.37269e-05
6.29921e-05
5.13901e-05
0.000127976
2.65977e-06
4.39049e-08
5.38686e-05
1.37332e-06
0.00013204
2.7565e-06
2.0815e-05
0.000166205
2.91777e-06
1.67023e-06
5.49418e-06
0.000223795
0.0001556
0.00012555
5.88213e-05
5.10353e-05
0.000166133
0.000155409
0.000159376
1.41014e-05
1.48475e-05
3.02609e-06
1.05941e-05
3.756e-06
0.000144398
2.95045e-06
5.93296e-07
0.000123081
0.000133129
0.000178878
1.76138e-05
0.000179093
4.28975e-06
0.000303882
0.000102263
2.59835e-05
9.42618e-05
1.05646e-05
4.09406e-06
5.45865e-05
1.86465e-07
4.4957e-06
2.18129e-05
6.34598e-05
4.01031e-06
1.96399e-06
7.50079e-06
0.000118464
3.35456e-05
3.78126e-06
1.81225e-07
2.76143e-06
4.03753e-05
5.03206e-05
0.00010094
0.00016065
7.29017e-06
8.8988e-05
3.56672e-05
5.4344e-06
0.000106
2.93698e-06
6.18979e-05
3.83973e-06
1.28225e-05
9.66765e-05
0.000115238
3.52267e-05
1.61386e-06
4.40375e-06
5.10155e-06
2.02512e-05
4.71552e-05
9.3945e-08
4.80926e-06
7.34656e-07
1.47027e-06
5.61123e-07
4.09639e-05
1.219e-05
1.27778e-07
0.000136403
8.62218e-05
0.000163754
5.57357e-06
2.67614e-06
1.06672e-05
5.13765e-05
1.19239e-06
8.58079e-05
5.12592e-05
0.000137204
5.21144e-07
1.71741e-05
9.19582e-06
0.000128289
0.000104526
6.49457e-05
0.000150054
0.000119804
1.74719e-05
3.31428e-05
0.000145918
0.000115924
5.29497e-05
5.52477e-05
2.62117e-05
7.17168e-07
9.46877e-06
2.32757e-06
1.59774e-07
7.87742e-06
0.000108976
8.68281e-05
1.21759e-06
2.22884e-07
1.29594e-06
2.22658e-07
7.53769e-06
2.9234e-05
1.86824e-06
6.6629e-05
0.000350642
5.7526e-06
1.44426e-05
0.000126357
2.22033e-05
0.000152924
1.12189e-06
1.38433e-06
8.83322e-06
1.03503e-05
5.69394e-05
0.000163437
5.8874e-05
7.64583e-05
4.45874e-05
3.72788e-06
6.03426e-06
0.000118679
1.75412e-05
5.15071e-06
2.35293e-05
2.35944e-06
0.000193502
8.8429e-05
2.68363e-06
9.83082e-06
3.33621e-05
1.86375e-05
9.15305e-06
5.09911e-07
2.21321e-07
6.22315e-06
1.33737e-05
2.67768e-05
1.19449e-06
1.48172e-05
0.000155268
0.000136891
1.68227e-05
2.56592e-06
1.13748e-05
1.55765e-05
0.000159551
3.53669e-06
4.63574e-08
2.22653e-06
1.35856e-05
3.23916e-06
7.23885e-08
7.6997e-07
3.32741e-05
2.22669e-06
2.02679e-07
0.000103586
1.60893e-06
3.95395e-07
0.000142037
4.31002e-07
2.13614e-06
7.04149e-07
4.61116e-07
1.55198e-05
0.000109012
1.02848e-05
1.69413e-05
2.02008e-05
1.83876e-05
6.8612e-06
7.10656e-08
1.53037e-05
2.00942e-07
0.000144105
2.18314e-07
0.000110344
0.000117299
1.15508e-07
0.000137474
3.12326e-05
6.76828e-06
1.44747e-05
5.19965e-05
9.97368e-06
0.000145666
4.61416e-07
0.000100682
1.04626e-05
1.55109e-06
8.91882e-07
1.63544e-05
1.48279e-06
2.98461e-06
4.35716e-05
3.22531e-06
3.40912e-06
2.87401e-06
0.000121332
1.68693e-05
4.66012e-05
3.11324e-05
5.84527e-05
1.08801e-07
6.98309e-06
1.00659e-05
0.000135369
1.13782e-06
0.000152944
3.89976e-05
0.000159485
9.76324e-05
5.70597e-06
4.8604e-07
1.16448e-06
3.21075e-06
0.000139045
9.95095e-06
0.000165646
0.000142339
1.00596e-06
6.60407e-05
1.1111e-05
4.56093e-07
3.16063e-06
0.000141947
5.60231e-05
0.000110863
2.94867e-05
1.04307e-05
4.97831e-05
5.80359e-07
1.41416e-05
5.86451e-05
9.05561e-05
0.00015617
1.19674e-06
1.01888e-05
2.48721e-05
9.28057e-07
2.65923e-05
1.16362e-05
6.22525e-07
4.35561e-05
1.31577e-06
3.93756e-05
6.77293e-06
1.47551e-05
2.12949e-05
1.62838e-05
6.8522e-06
6.19885e-07
4.64866e-06
2.25025e-06
3.26824e-05
2.16309e-06
0.000116518
6.89398e-06
3.52989e-05
4.86025e-05
6.40576e-07
6.5631e-05
0.000190329
4.77732e-06
1.85623e-05
1.12708e-05
7.5691e-07
0.000116807
1.69258e-06
7.24401e-06
4.36023e-06
1.1416e-05
5.8098e-05
6.26237e-05
5.16546e-07
0.000111095
0.000111245
0.000183014
1.25473e-07
6.18648e-06
3.0425e-05
4.87983e-07
2.40896e-07
2.16726e-07
7.69254e-05
3.31511e-06
1.85635e-05
2.46839e-05
5.46469e-05
6.44734e-05
0.000110903
0.000140189
0.00014781
4.86349e-05
7.0341e-06
4.4983e-05
4.17954e-05
1.44873e-05
4.15685e-06
1.23651e-05
0.000146876
9.95382e-05
1.57638e-05
2.1611e-05
5.37064e-05
6.62393e-05
6.91683e-05
3.38678e-07
0.000102235
5.60743e-06
7.91606e-07
7.85572e-06
3.13156e-06
1.25621e-05
4.57554e-05
7.75979e-06
7.18935e-05
1.00869e-05
2.10982e-06
2.68358e-05
7.59101e-05
0.000111947
2.00516e-05
7.47448e-05
5.8365e-05
0.000124468
1.27537e-05
0.000148325
1.97071e-05
2.60889e-06
0.000104757
3.8879e-05
6.52141e-05
3.7058e-06
4.61026e-07
1.33488e-05
2.00689e-06
9.90707e-06
2.56674e-06
1.65233e-05
2.44595e-06
5.1903e-05
2.1717e-05
5.45233e-05
3.12257e-05
4.04602e-06
1.67414e-05
1.48519e-06
1.07534e-05
1.03505e-05
0.000138868
1.35556e-05
0.000135038
1.54384e-05
1.48403e-06
3.87111e-07
1.0915e-05
1.0623e-06
0.000109758
0.000133542
1.09734e-05
1.32851e-05
9.24982e-05
1.43097e-06
0.000110328
7.52467e-06
1.60739e-07
1.75552e-06
1.33807e-06
1.30732e-05
2.59289e-06
6.70365e-06
0.000100919
2.74626e-05
0.000116827
0.000107061
5.35523e-05
7.11704e-08
2.57039e-06
9.02013e-05
0.000114932
0.000324829
2.84935e-06
8.94892e-06
1.18288e-05
1.37976e-05
0.000111005
9.89972e-05
0.000115686
5.33071e-05
2.54066e-05
5.86712e-05
1.66074e-06
4.91565e-05
0.000118179
1.07685e-05
9.76396e-05
0.000146056
0.000141793
3.2778e-06
6.64263e-07
2.36343e-05
5.88136e-05
9.01069e-05
0.000146295
2.17012e-06
4.49281e-05
5.49084e-06
2.68847e-06
0.00014649
3.72156e-07
1.16244e-05
6.28225e-06
2.35111e-06
1.45656e-07
2.32491e-05
1.79728e-06
1.25445e-05
8.37123e-07
0.000174246
1.35921e-05
5.59282e-05
1.17815e-06
0.00010985
1.73712e-05
6.10959e-08
2.75113e-05
3.2146e-06
0.000131257
1.53715e-06
3.56968e-06
2.54692e-05
9.29839e-07
4.66095e-06
1.52511e-06
5.19521e-06
5.39757e-07
3.35041e-05
5.80612e-05
5.75438e-05
7.74394e-07
1.69492e-05
6.12005e-07
1.21906e-06
8.02512e-06
4.7949e-06
1.46241e-06
0.000111327
9.12153e-07
5.55784e-05
0.000139124
6.09259e-07
0.000146334
8.70171e-07
5.15158e-05
0.000110617
7.7566e-07
9.73594e-05
0.000154262
0.000128357
0.000112478
0.000106183
1.76836e-05
9.49406e-06
4.48459e-05
2.46678e-07
5.71833e-05
7.32292e-06
5.52737e-05
7.3996e-06
0.000148217
1.99859e-07
3.64783e-06
1.05705e-06
5.57911e-06
0.000140924
0.000100542
2.24535e-07
0.00017585
3.29238e-05
0.000126554
6.41462e-07
4.38162e-05
6.77402e-05
6.22745e-05
3.76886e-06
0.000111543
0.000130299
0.000111806
7.11729e-07
5.30026e-05
0.000110841
2.3607e-06
1.40325e-05
0.000145427
9.76556e-06
0.000159724
1.76854e-07
3.87774e-07
3.07393e-05
9.00329e-06
0.000181474
3.20683e-06
9.43289e-05
3.72754e-05
2.12039e-06
2.27673e-06
6.23068e-06
1.28119e-05
3.1582e-06
0.000108927
6.81924e-07
4.7969e-06
5.70211e-05
5.21577e-05
5.56192e-05
0.000129768
5.32931e-06
2.9839e-06
1.55065e-05
4.53946e-05
1.42567e-06
0.000170467
0.000193755
0.000109379
1.53233e-05
0.000117091
1.40079e-06
0.000146857
0.000118355
2.70182e-06
5.28811e-05
0.000105074
0.000107787
1.14745e-07
2.38949e-06
4.58214e-05
5.45278e-05
5.54941e-07
1.72269e-06
1.79775e-06
1.76754e-06
3.93227e-06
1.85626e-05
3.30099e-05
0.000161323
3.68525e-06
2.62535e-05
5.49491e-05
0.000157034
1.7904e-05
1.07044e-05
7.00237e-06
1.68215e-06
0.000158903
2.62883e-06
3.58621e-07
0.000139295
7.03858e-07
9.6707e-06
2.00807e-06
0.000109302
1.60775e-05
0.000101689
4.57079e-05
5.11273e-05
0.000140049
3.04159e-05
4.32444e-06
4.90916e-05
2.27782e-07
7.18238e-06
6.54774e-06
2.48423e-05
6.16177e-05
0.00015586
1.38223e-05
9.42318e-07
5.74836e-07
5.49216e-06
5.82492e-05
2.01187e-07
6.32574e-05
4.86539e-05
9.61995e-07
0.000136768
4.06555e-06
3.71152e-06
3.99758e-06
0.000106183
0.000113935
2.78025e-05
6.79336e-06
0.000100424
0.000119609
1.22963e-05
2.65523e-06
1.6084e-06
0.000149852
1.31673e-05
5.0035e-06
9.27018e-06
2.7709e-06
3.0961e-07
2.32843e-06
5.316e-05
1.48759e-07
6.55634e-06
1.46175e-05
0.000160181
0.000160468
9.90499e-07
5.40873e-06
1.42009e-06
3.47918e-06
1.14986e-05
3.31422e-06
2.21795e-05
4.5619e-06
1.47943e-06
1.20478e-05
6.14249e-06
2.99548e-06
8.15146e-06
9.58901e-06
9.08769e-06
9.09056e-06
0.000135745
4.0479e-07
4.19289e-07
2.16175e-07
5.33768e-07
6.23017e-07
9.45548e-06
0.000128587
2.8716e-07
6.96825e-06
8.46282e-07
3.90818e-07
8.6261e-05
6.42578e-05
2.93917e-06
0.000171611
2.04588e-06
0.000114715
1.39926e-06
3.3838e-07
2.87975e-08
2.01278e-07
9.96887e-07
0.000104781
0.000159505
0.000253566
8.2087e-05
0.000124723
1.94269e-06
8.68328e-06
0.000107016
9.82573e-05
4.31485e-06
4.22685e-05
1.07481e-06
7.49199e-07
2.7493e-05
5.86739e-05
9.04714e-06
0.000132186
1.2711e-05
0.000109036
0.000134998
2.83686e-06
4.9377e-05
5.98749e-06
3.75078e-06
2.80279e-05
8.6031e-06
1.44996e-05
7.82014e-07
1.18577e-06
6.68412e-07
9.09615e-05
0.000128606
2.50257e-06
5.16113e-06
4.7953e-06
4.97533e-05
1.30905e-05
9.2219e-06