/*--------------------------------*- C++ -*----------------------------------*\
| =========                 |                                                 |
| \\      /  F ield         | OpenFOAM: The Open Source CFD Toolbox           |
|  \\    /   O peration     | Version:  2406                                  |
|   \\  /    A nd           | Website:  www.openfoam.com                      |
|    \\/     M anipulation  |                                                 |
\*---------------------------------------------------------------------------*/
FoamFile
{
    version     2.0;
    format      ascii;
    arch        "LSB;label=32;scalar=64";
    class       volScalarField;
    location    "50";
    object      p;
}
// * * * * * * * * * * * * * * * * * * * * * * * * * * * * * * * * * * * * * //

dimensions      [0 2 -2 0 0 0 0];

internalField   nonuniform List<scalar> 
59516
(
0.242123
0.0139733
0.0132825
0.00184313
0.255551
0.276062
0.242939
0.215418
0.0705484
-0.000542174
0.250246
0.244208
0.168911
0.241386
0.226642
0.0715873
0.243247
0.251166
0.247521
0.240274
0.246657
0.214832
0.242829
0.155741
0.062589
0.150317
0.0885614
0.249941
0.245327
0.225642
0.258878
0.250095
0.112978
0.0013914
0.247703
0.202821
0.0608739
0.254009
0.245934
0.0121804
0.0144015
0.250282
0.246821
0.00149133
0.245341
0.0382334
0.246142
0.246655
0.257185
0.247973
0.263203
0.00112322
0.115087
0.219298
0.246116
0.245218
0.251459
0.00150636
0.155407
0.24878
0.00144551
0.198339
0.156587
0.243797
0.00303445
0.245638
0.00753349
0.206586
0.257503
0.245199
0.210277
0.240262
0.0425299
0.241514
0.207851
0.244786
0.246188
0.0270854
0.172236
0.247859
0.00137439
0.247871
0.246913
0.1008
0.24787
0.239827
0.0708517
0.240494
0.113908
0.251135
0.253691
0.211516
0.235414
0.208777
0.209712
0.256901
0.225668
0.216083
0.247623
0.167128
0.0768302
0.138725
0.221563
0.00809135
0.0425167
0.00634184
0.00577814
0.0665029
0.120056
0.17372
0.25581
0.0828564
0.212036
0.256354
0.233097
0.193052
0.0297545
0.21973
0.220242
0.0298478
0.221586
0.218196
0.0572476
0.219728
0.254287
0.247764
0.233256
0.251898
0.262959
0.234597
0.232295
0.0142318
0.207698
0.235146
0.23585
0.20461
0.254689
0.229009
0.139796
0.238895
0.0839199
0.105247
0.215549
0.0832591
0.239479
0.237174
0.245693
0.241172
0.261991
0.236045
0.239301
0.00287407
0.233195
0.00277518
0.234689
0.00506973
0.00366196
0.235364
0.235969
0.22742
0.239575
0.239323
0.226831
0.00416594
0.191324
0.0280564
0.0706928
0.236974
0.237609
0.00395209
0.23475
0.234773
0.230311
0.231165
0.230716
0.246724
0.194064
0.2475
0.0129084
0.191649
0.233002
0.123424
0.146482
0.232391
0.232677
0.078336
0.108185
0.0602424
0.234017
0.231616
0.000323761
0.122337
0.236755
0.23158
0.238104
0.0190274
0.140431
0.139914
0.00374384
0.229961
-0.000556322
0.0591695
0.216701
0.167957
0.19807
0.123574
0.237679
0.00323305
0.160256
0.223644
0.0397878
0.249718
0.222649
0.19918
0.223785
0.0891079
0.236339
0.0190105
0.183296
0.22419
0.22402
0.237356
0.230204
0.0041598
0.226767
0.19338
0.159628
0.168066
0.229849
0.0346369
0.225994
0.121538
0.23038
0.128024
0.134728
0.230542
0.22907
0.0483046
0.228925
0.0514755
0.233232
0.123656
0.119854
0.00304332
0.234433
0.233999
0.231561
0.0115099
0.230453
0.233592
0.0119738
0.231747
0.233709
0.14545
0.232673
0.233464
0.0720522
0.228391
0.177321
0.225259
0.161884
0.227084
0.22864
0.228343
0.202714
0.0547423
0.184087
0.0653012
0.225973
0.153042
0.243465
0.197653
0.0693524
0.15581
0.226968
0.202829
0.153356
0.225789
0.226757
0.0896172
0.230032
0.168581
0.156907
0.224672
0.222965
0.242657
0.233374
0.00689098
0.228618
0.203832
0.227731
0.225152
0.209216
0.0275681
0.21231
0.119397
0.204636
0.200289
0.225711
0.203658
0.203122
0.0574402
0.0937208
0.197685
0.206748
0.149949
0.0188979
0.203077
0.204
0.076494
0.0625988
0.204247
0.146366
0.137915
0.245539
0.205936
0.217333
0.257604
0.205269
0.0601198
0.12171
0.216215
0.129286
0.219178
0.168809
0.206455
0.249594
0.217457
0.159511
0.218675
0.0216641
0.23926
0.156818
0.218636
0.179477
0.225199
0.228489
0.197276
0.248924
0.223423
0.199255
0.197155
0.21958
0.0479722
0.0990768
0.223349
0.0921383
0.227746
0.21988
0.17781
0.229745
0.231502
0.0354946
0.114761
0.159608
0.048896
0.00724096
0.255669
0.260249
0.192853
0.0317563
0.235788
0.248652
0.212533
0.0312626
0.218684
0.218106
0.236167
0.259302
0.2221
0.0813803
0.0798728
0.217763
0.163904
0.188218
0.217528
0.219136
0.213801
0.174809
0.208139
0.236634
0.00109066
0.249487
0.00963126
0.0183192
0.219102
0.00713005
0.248956
0.218492
0.0133272
0.0130598
0.0542129
0.213993
0.254267
0.216685
0.254757
0.0106511
0.0716839
0.213945
0.215102
0.225163
0.212084
0.175793
0.225532
0.226591
0.0577939
0.139295
0.226747
0.225168
0.224184
0.038058
0.0214377
0.0233421
0.126986
0.198784
0.00969142
0.0344389
0.066569
0.00450349
0.213638
0.211339
0.217121
0.216762
0.227519
0.216421
0.166531
0.210976
0.14421
0.21694
0.181092
0.220187
0.215499
0.202794
0.128503
0.22561
0.24931
0.0222432
0.220825
0.163539
0.0791015
0.166096
0.184039
0.222627
0.22063
0.217555
0.215932
0.0764943
0.215621
0.168044
0.0274332
0.186112
0.260406
0.14387
0.0616213
0.217937
0.179263
0.215276
0.135124
0.215202
0.0607596
0.216024
0.00391884
0.00738475
0.212497
0.246838
0.210307
0.194532
0.0364468
0.197585
0.195908
0.0409511
0.20443
0.195969
0.191455
0.190791
0.0964429
0.198069
0.193175
0.131736
0.191312
0.0849691
0.188925
0.250087
0.189105
0.262457
0.190137
0.229402
0.0826899
0.095368
0.165377
0.0037997
0.00293925
0.179292
0.202561
0.206523
0.1592
0.19383
0.0485592
0.212121
0.210097
0.251272
0.140454
0.123233
0.168695
0.20986
0.0202037
0.204692
0.242472
0.00456835
0.282105
0.210922
0.0638841
0.239116
0.177814
0.244342
0.196962
0.171078
0.189173
0.21323
0.174342
0.213473
0.235717
0.0734041
0.0736659
0.254962
0.00300467
0.211984
0.203609
0.2545
0.201983
0.239089
0.000845611
0.205282
0.083432
0.000310474
0.15475
0.0383965
0.252446
0.219171
0.0681888
0.00225031
0.225467
0.125885
0.204312
0.224686
0.203684
0.236397
0.000751841
0.102689
0.0671254
0.203415
0.0348331
0.149342
0.211935
0.131131
0.210611
0.00257052
0.214991
0.0635609
0.211423
0.166314
0.113587
0.105911
0.213071
0.00215917
0.0421749
0.202425
0.0787663
0.160287
0.183442
0.120459
0.115711
0.202124
0.201495
0.231676
0.200762
0.114716
0.202352
0.200268
0.109898
0.0982227
0.00090884
0.201259
0.201073
0.202784
0.093749
0.194318
0.010124
0.203558
0.00540306
0.213548
0.00088106
0.0237348
0.172507
0.12278
0.0105758
0.203997
0.252716
0.0034619
0.0167197
0.200853
0.1975
0.0327653
0.199716
0.200347
0.135609
0.0392674
0.213499
0.20678
0.0132932
0.202341
0.202682
0.148648
0.199065
0.261511
0.203132
0.254753
0.174518
0.257159
0.177365
0.0226664
0.238295
0.00529425
0.00588293
0.258857
0.257526
0.179107
0.202443
0.252202
0.248985
0.125583
0.100749
0.164605
0.0613813
0.17527
0.11651
0.24922
0.17806
0.180318
0.19597
0.185354
0.259375
0.167477
0.189075
0.0526836
0.189208
0.140757
0.01747
0.189222
0.188245
0.189634
0.14192
0.085957
0.267605
0.11951
0.122716
0.145607
0.225081
0.189792
0.0620942
0.175685
0.145406
0.0128078
0.0647203
0.192319
0.221094
0.152401
0.14238
0.191409
0.191307
0.076957
0.23103
0.200422
0.13183
0.197514
0.158824
0.207297
0.195323
0.00986172
0.025115
0.177782
0.260007
0.139623
0.1303
0.00313461
0.149117
0.195003
0.112368
0.204559
0.199975
0.0854659
0.117566
0.20289
0.238871
0.213702
0.162137
0.25936
0.202743
0.0330209
0.211187
0.262155
0.0210023
0.116659
0.225509
0.190866
0.0742466
0.185225
0.0225713
0.0169201
0.161683
0.191217
0.259432
0.215288
0.19068
0.190307
0.195818
0.0867576
0.010406
0.0629137
0.213881
0.258781
0.143934
0.19322
0.129871
0.0559261
0.189972
0.0596672
0.190877
0.243602
0.118218
0.00220043
0.218773
0.091633
0.196319
0.0171208
0.0737035
0.146911
0.221757
0.194504
0.196442
0.260075
0.222013
0.0372535
0.262075
0.00318158
-0.000628333
0.195753
0.0401053
0.10682
0.146697
0.102624
0.259605
0.192569
0.218538
0.188558
0.0435923
0.157566
0.0500376
0.120679
0.217091
0.188567
0.190293
0.187997
0.0697876
0.23403
0.176908
0.062108
0.189272
0.18767
0.187074
0.17428
0.189302
0.0185164
0.0114824
0.188312
0.00337987
0.114313
0.130982
0.0100022
0.137668
0.160963
0.241045
0.178919
0.210626
0.165028
0.12136
0.18977
0.191576
0.192118
0.103304
0.191014
0.234378
0.0159445
0.00271101
0.1284
0.109271
0.00289365
0.19069
0.188102
0.189578
0.0175487
0.0290102
0.187364
0.224769
0.0279046
0.0367353
0.259584
0.25106
0.193035
0.0380025
0.202163
0.178514
0.207054
0.162194
0.184968
0.253557
0.162369
0.161817
0.0829871
0.163827
0.25456
0.0312699
0.183107
0.16226
0.0978564
0.199977
0.206177
0.0843419
0.19865
0.222314
0.201513
0.162414
0.244808
0.0496052
0.16194
0.217478
0.0142957
0.173941
0.0668449
0.159199
0.0880016
0.253588
0.165813
0.00294021
0.159977
0.159239
0.169639
0.161194
0.148531
0.00450455
0.0403718
0.19913
0.171879
0.141654
0.201544
0.102969
0.223362
0.0227687
0.171466
0.0764412
0.155246
0.201742
0.0147372
0.174133
0.170653
0.255888
0.0240493
0.207261
0.227187
0.0385481
0.167632
0.0402685
0.136095
0.191306
0.205994
0.167425
0.166297
0.16568
0.259495
0.0299284
0.204926
0.101662
0.0179629
0.168158
0.209959
0.178477
0.177394
0.0310143
0.180088
0.181694
0.0956063
0.229691
0.258093
0.241145
0.135577
0.182028
0.00385931
0.248283
0.163937
0.179122
0.148914
0.181398
0.179753
0.18436
0.20086
0.184506
0.206104
0.180202
0.238647
0.239851
0.179799
0.197335
0.17893
0.206009
0.206843
0.012661
0.118821
0.14136
0.0124407
0.190891
0.182212
0.192464
0.100363
0.00616958
0.104772
0.178613
0.195448
0.195466
0.115969
0.133946
0.192999
0.256458
0.183367
0.00813237
0.0179341
0.214444
0.184632
0.110162
0.147314
0.182272
0.11974
0.174805
0.175277
0.175081
0.149148
0.1976
0.174444
0.260618
0.022832
0.174203
0.260846
0.174637
0.228759
0.0395612
0.172942
0.109945
0.0837577
0.175185
0.174465
0.108056
0.110122
0.173275
0.0926014
0.171611
0.172324
0.178867
0.102655
0.170269
0.0293839
0.172657
0.172357
0.116142
0.170743
0.171171
0.24218
0.16608
0.140186
0.167376
0.169251
0.117706
0.0564132
0.101468
0.249018
0.171452
0.172436
0.145038
0.057767
0.249502
0.147554
0.150308
0.146384
0.145267
0.0107534
0.00562543
0.0477442
0.0967311
0.172643
0.171868
0.00550119
0.21433
0.162196
0.074092
0.249587
0.141941
0.140736
0.251959
0.143472
0.20762
0.0436893
0.141694
0.202048
0.187382
0.142021
0.104723
0.0379871
0.142684
0.214274
0.192149
0.109581
0.0520279
0.0842623
0.14913
0.0874011
0.214047
0.0835299
0.1467
0.156999
0.255805
0.113557
0.0100089
0.0550508
0.0850463
0.144167
0.212551
0.155791
0.155495
0.0195156
0.12329
0.00782634
0.157965
0.157963
0.0864386
0.0120455
0.189072
0.0372843
0.233201
0.175869
0.172571
0.248038
0.0844664
0.202916
0.211532
0.141531
0.0148959
0.17261
0.245681
0.17092
0.168799
0.14403
0.0746226
0.172476
0.0160209
0.247071
0.215797
0.115472
0.171878
0.1644
0.213653
0.240733
0.204327
0.0281711
0.0754417
0.169544
0.177156
0.199213
0.112466
0.195948
0.251035
0.168314
0.198114
0.067622
0.17469
0.13128
0.0811455
0.174298
0.174264
0.173377
0.198166
0.170329
0.0391803
0.171118
0.0741646
0.194456
0.0191577
0.169302
0.197545
0.0036262
0.0218764
0.166222
0.0632418
0.0431131
0.0670876
0.0562315
0.102111
0.0368482
0.169015
0.167075
0.0296095
0.16622
0.167359
0.196413
0.00941869
0.168651
0.161741
0.00215414
0.0232953
0.159007
0.0923446
0.00353271
0.0119771
0.159434
0.114298
0.164509
0.2437
0.0155771
0.196769
0.147947
0.163692
0.160859
0.145398
0.185836
0.171024
0.165539
0.151349
0.246663
0.216912
0.164279
0.166857
0.227113
0.033421
0.214736
0.186299
0.112771
0.106506
0.166681
0.0760926
0.018943
0.153868
0.158482
0.261531
0.133491
0.158739
0.156703
0.182486
0.0755197
0.156902
0.157942
0.237477
0.158394
0.0713284
0.161249
0.16096
0.129095
0.117023
0.141645
0.161074
0.158181
0.160927
0.108722
0.136909
0.164373
0.143201
0.107599
0.114496
0.115274
0.115636
0.134183
0.159185
0.136957
0.249736
0.228375
0.0407873
0.0970827
0.101087
0.135188
0.133101
0.137217
0.17607
0.134114
0.133393
0.0802739
0.101176
0.187154
0.0797046
0.0321808
0.136425
0.135423
0.138095
0.231914
0.0131751
0.00648166
0.0949407
0.145921
0.143003
0.214866
0.0327864
0.135773
0.249842
0.0386628
0.144484
0.14414
0.171932
0.00172871
0.142634
0.142912
0.142166
0.153947
0.00480893
0.00707481
0.154396
0.154467
0.151309
0.152958
0.158664
0.149943
0.0750395
0.015029
0.254683
0.19174
0.154696
0.153644
0.116169
0.242371
0.235639
0.219078
0.00127788
0.219273
0.155541
0.155583
0.154325
0.155106
0.155774
0.154359
0.210441
0.129734
0.20463
0.136916
0.0746822
0.013201
0.156723
0.116679
0.00421311
0.1386
0.161301
0.246413
0.162461
0.110649
0.107227
0.189148
0.121175
0.15929
0.16562
0.16353
0.132804
0.143281
0.242425
0.158786
0.203125
0.0714714
0.0590894
0.156718
0.0612166
0.0214654
0.161427
0.160973
0.119377
0.0803757
0.0923107
0.228969
0.160352
0.0475636
0.00543217
0.144238
0.026648
0.113563
0.155168
0.191677
0.143508
0.0242484
0.233243
0.0142165
0.227118
0.126025
0.215687
0.148018
0.042175
0.156801
0.141551
0.0896425
0.107742
0.157375
0.157708
0.234229
0.193272
0.204708
0.238909
0.198497
0.191391
0.191727
0.209124
0.153975
0.153303
0.120937
0.0601764
0.0692096
0.0168529
0.216864
0.121548
0.150968
0.148948
0.150167
0.0423566
0.147005
0.206019
0.0048378
0.146993
0.151318
0.173086
0.257208
0.207055
0.205846
0.147676
0.0118764
0.216278
0.149827
0.180862
0.157134
0.184664
0.19557
0.137962
0.213567
0.152781
0.193074
0.157089
0.0190131
0.207421
0.213959
0.123921
0.252826
0.0694103
0.0800047
0.0697263
0.136449
0.201936
0.0561781
0.180377
0.0575894
0.15338
0.153352
0.132047
0.159204
0.144388
0.225304
0.186048
0.14267
0.191032
0.149454
0.258223
0.211695
0.149055
0.144999
0.185782
0.221672
0.146598
0.0249038
0.179923
0.225072
0.143615
0.130949
0.147879
0.15056
0.151847
0.152663
0.00357652
0.06967
0.153797
0.252104
0.152291
0.124942
0.199081
0.122569
0.106417
0.226289
0.252303
0.207997
0.208097
0.20966
0.0331857
0.142984
0.17124
0.250797
0.2393
0.25286
0.256489
0.239078
0.126965
0.123876
0.25125
0.0547342
0.128126
0.19048
0.125001
0.207554
0.19566
0.251019
0.232797
0.207223
0.0691437
0.127135
0.140859
0.13521
0.14197
0.210023
0.191586
0.141455
0.137148
0.139234
0.0148929
0.221963
0.0393666
0.142547
0.168341
0.147949
0.144005
0.138934
0.0396878
0.145399
0.128168
0.144676
0.143762
0.214267
0.131129
0.0747563
0.044959
0.201007
0.102898
0.102059
0.196329
0.0853123
0.0475838
0.040993
0.0307531
0.19346
0.0642357
0.130535
0.162502
0.0305175
0.219061
0.219791
0.0911701
0.088415
0.236703
0.134942
0.0144944
0.157354
0.0308977
0.189105
0.0294717
0.045942
0.0183602
0.00946674
0.0765411
0.215306
0.0441653
0.0233354
0.0243858
0.141693
0.028195
0.139586
0.220723
0.143129
0.140673
0.19294
0.0434887
0.145996
0.144687
0.0114115
0.0697381
0.21611
0.145918
0.146379
0.194818
0.221041
0.210553
0.220116
0.0523525
0.243204
0.251219
0.146023
0.146824
0.0122241
0.227712
0.250121
0.144247
0.109407
0.143609
0.0166053
0.211227
0.00633536
0.0434407
0.13552
0.174481
0.13718
0.111693
0.21732
0.102535
0.206692
0.13582
0.136928
0.0673054
0.129172
0.117145
0.246442
0.217492
0.186972
0.13595
0.222072
0.0750846
0.0428525
0.0620167
0.0127945
0.136138
0.219348
0.135691
0.0129737
0.0108309
0.213926
0.138004
0.0651127
0.228498
0.138082
0.138497
0.214189
0.01893
0.21265
0.138991
0.14163
0.142867
0.149709
0.142794
0.208914
0.205727
0.142979
0.235592
0.152611
0.205511
0.174013
0.140864
0.220311
0.13801
0.110605
0.237717
0.155791
0.14021
0.0112052
0.143534
0.142262
0.107075
0.137021
0.189688
0.0545254
0.217745
0.130687
0.198739
0.20872
0.140444
0.153235
0.00992499
0.0653012
0.0527557
0.13876
0.218173
0.0181758
0.136153
0.237905
0.0520388
0.197052
0.0491067
0.137028
0.167305
0.13517
0.00126691
0.17964
0.218103
0.107197
0.0337304
0.0530619
0.103606
0.105275
0.112348
0.215961
0.0103868
0.0342931
0.117654
0.118904
0.20482
0.189877
0.119534
0.124647
0.114061
0.174034
0.239126
0.223875
0.152004
0.0281257
0.202444
0.20136
0.0909571
0.0468792
0.185185
0.0861305
0.117491
0.19302
0.152197
0.155845
0.132901
0.113755
0.1237
0.12345
0.121865
0.196508
0.126086
0.169833
0.235271
0.217923
0.190914
0.210871
0.114813
0.083858
0.216799
0.126884
0.193686
0.150357
0.199264
0.24469
0.119227
0.00659185
0.128218
0.130025
0.136413
0.215259
0.127506
0.134101
0.15497
0.1363
0.154716
0.130041
0.00180146
0.153555
0.133963
0.133418
0.00484598
0.191846
0.240844
0.153165
0.160177
0.121013
0.13574
0.134307
0.054885
0.23884
0.136025
0.135634
0.137643
0.033205
0.215722
0.146157
0.122248
0.153266
0.0796754
0.104024
0.204167
0.126133
0.122641
0.0992999
0.123136
0.133398
0.0832593
0.126252
0.215696
0.143015
0.0724724
0.214698
0.215649
0.110084
0.111054
0.0935175
0.126272
0.0553647
0.129574
0.0609881
0.260239
0.200639
0.166237
0.079588
0.0198807
0.224016
0.0178783
0.0206904
0.125617
0.00205252
0.126137
0.0290371
0.167394
0.0880638
0.124839
0.187747
0.168421
0.125935
0.02515
0.0204704
0.163828
0.123835
0.0366712
0.126728
0.125285
0.142998
0.131701
0.243848
0.193696
0.22394
0.165413
0.189164
0.125657
0.193198
0.166748
0.12612
0.225499
0.247527
0.188165
0.183651
0.12618
0.209297
0.123217
0.22482
0.162252
0.191393
0.0184461
0.0387685
0.181527
0.00982096
0.21748
0.259877
0.227073
0.0115917
0.0534079
0.0178256
0.214034
0.222827
0.00594715
0.168446
0.119315
0.209001
0.172616
0.118759
0.126981
0.0296369
0.184711
0.188216
0.051898
0.243773
0.223701
0.135487
0.120707
0.254855
0.119939
0.248737
0.186607
0.184658
0.121026
0.23234
0.107362
0.230382
0.215068
0.2348
0.00656741
0.124116
0.241893
0.0650868
0.250536
0.124466
0.236235
0.0937512
0.0930255
0.0989626
0.244743
0.201277
0.233825
0.200176
0.105572
0.241676
0.242071
0.0943238
0.243278
0.109652
0.193928
0.103752
0.201145
0.133797
0.0905128
0.127126
0.0876225
0.127933
0.0195408
0.11108
0.101648
0.225047
0.0987022
0.187513
0.141351
0.167423
0.108847
0.0368412
0.0811415
0.188877
0.103827
0.224698
0.0700122
0.113289
0.231208
0.192318
0.115386
0.208948
0.113679
0.103429
0.101224
0.13226
0.108577
0.00201833
0.0368707
0.0404646
0.104031
0.104707
0.190999
0.0464595
0.0268813
0.099002
0.0659353
0.223219
0.203211
0.032737
0.116064
0.169974
0.109904
0.117447
0.094441
0.115014
0.202719
0.11455
0.159649
0.00065438
0.220164
0.15696
0.252184
0.118168
0.11466
0.0208059
0.225342
0.0878276
0.118884
0.193735
0.122804
0.119847
0.112505
0.110585
0.0304262
0.122488
0.117435
0.118126
0.112939
0.131936
0.11502
0.220416
0.0953676
0.120141
0.222297
0.251871
0.164059
0.0988282
0.18266
0.11777
0.107528
0.102459
0.0552519
0.0959104
0.0876929
0.239799
0.0971124
0.132447
0.130164
0.0325908
0.0961133
0.219922
0.109604
0.112513
0.155622
0.147056
0.107284
0.170504
0.132605
0.110808
0.108347
0.123028
0.1087
0.218582
0.210535
0.0985855
0.0953396
0.105015
0.042789
0.111183
0.13233
0.190323
0.108169
0.112195
0.102542
0.114067
0.221008
0.0947836
0.214051
0.111992
0.108206
0.0999405
0.108607
0.0844678
0.105195
0.0862197
0.0753841
0.107321
0.237131
0.122053
0.235124
0.156518
0.0723964
0.0234007
0.0932902
0.219998
0.109468
0.108143
0.0796401
0.10995
0.079328
0.221885
0.220435
0.0830903
0.0837574
0.087331
0.0878787
0.176811
0.139275
0.0854833
0.0860428
0.0648154
0.106453
0.0874636
0.0878622
0.0505521
0.0490078
0.00233865
0.088118
0.178791
0.0304088
0.13937
0.0912494
0.0940729
0.098194
0.125504
0.217794
0.111417
0.0805884
0.0116769
0.0189583
0.141206
0.0925238
0.0876958
0.120711
0.0317064
0.0207977
0.0937092
0.219364
0.104046
0.105842
0.0495387
0.0982898
0.245548
0.100677
0.0988322
0.138405
0.10099
0.104381
0.219293
0.105015
0.118576
0.0187519
0.00408212
0.172067
0.0368742
0.0213097
0.108269
0.0894112
0.219746
0.10632
0.227508
0.228059
0.103378
0.218667
0.0072345
0.0999125
0.106277
0.0345082
0.107383
0.227837
0.252314
0.0496766
0.224002
0.105837
0.189468
0.208136
0.10644
0.110989
0.226382
0.104175
0.244166
0.105825
0.128503
0.115092
0.244961
0.223994
0.129898
0.108628
0.105476
0.19728
0.128198
0.196927
0.224096
0.220828
0.108874
0.0122201
0.109415
0.101818
0.195874
0.0829614
0.196538
0.0421181
0.20761
0.000296824
0.220561
0.128909
0.0919077
0.101108
0.222886
0.0987111
0.220254
0.213816
0.222512
0.0135113
0.00356202
0.198468
0.00372597
0.098527
0.126922
0.171066
0.0963554
0.214133
0.146265
0.218079
0.0940641
0.216434
0.179707
0.195441
0.253385
0.133016
0.239008
0.0936784
0.0101503
0.146246
0.00991328
0.250729
0.0461155
0.141576
0.195695
0.10308
0.0982208
0.0139464
0.0339254
0.100251
0.20096
0.222547
0.00681692
0.22819
0.129092
0.243672
0.058999
0.203313
0.100089
0.180412
0.224232
0.177861
0.166926
0.18823
0.204853
0.218138
0.164821
0.0431155
0.19226
0.101635
0.101964
0.101525
0.0609967
0.238228
0.239225
0.193879
0.111287
0.214098
0.220657
0.110954
0.102575
0.101388
0.0980803
0.238311
0.0488821
0.0958764
0.151387
0.098438
0.191876
0.177695
0.118059
0.0580765
0.099472
0.0975642
0.138276
0.2493
0.159761
0.0976453
0.215539
0.0693779
0.0529386
0.234354
0.004837
0.0690504
0.0140247
0.0692117
0.0694556
0.216624
0.0963437
0.179131
0.215239
0.120289
0.102576
0.223759
0.0731204
0.220962
0.092326
0.0951175
0.0953812
0.195672
0.165008
0.22055
0.199919
0.212009
0.0818546
0.141949
0.224452
0.209545
0.102568
0.208772
0.0711683
0.192462
0.0466929
0.194463
0.0981725
0.174834
0.0869961
0.132629
0.209081
0.0692094
0.209763
0.053194
0.106074
0.0849557
0.030686
0.0895699
0.0838753
0.118299
0.22066
0.0876409
0.0405277
0.0178722
0.196439
0.0198835
0.2113
0.00422644
0.0919526
0.0497486
0.0907971
0.209467
0.213091
0.0463175
0.237298
0.0325513
0.00227613
0.195025
0.176328
0.0895875
0.209757
0.0676141
0.0193665
0.115413
0.00256542
0.146567
0.187113
0.136306
0.091705
0.247751
0.093116
0.149987
0.195005
0.123066
0.212135
0.0895335
0.13427
0.088717
0.138873
0.236818
0.095269
0.0821241
0.139354
0.0894498
0.155325
0.0880308
0.0577417
0.0879923
0.236651
0.0877355
0.0843159
0.0870303
0.230545
0.110913
0.221984
0.24026
0.238653
0.170647
0.0477489
0.063847
0.178375
0.210226
0.022215
0.0615
0.0870375
0.0855613
0.21153
0.250879
0.00302501
0.0317136
0.0786126
0.221921
0.0322279
0.124561
0.211632
0.0846677
0.0834545
0.0841113
0.0817138
0.084443
0.171495
0.104392
0.208068
0.0225499
0.0876249
0.0845423
0.232303
0.132845
0.228368
0.242005
0.0462017
0.0851319
0.0636916
0.230615
0.233097
0.22786
0.227041
0.117788
0.0628812
0.222787
0.0463738
0.0849361
0.204322
0.0948011
0.0840247
0.0668206
0.0826029
0.202728
0.201581
0.084935
0.149804
0.0951999
0.0945827
0.24823
0.0244563
0.0523879
0.0848208
0.0855803
0.00762826
0.0855654
0.0651234
0.0907123
0.198369
0.0858022
0.0162798
0.0922462
0.00763107
0.232992
0.225969
0.119001
0.0880207
0.0907002
0.104203
0.0775486
0.070449
0.1063
0.074535
0.0733137
0.0641426
0.0748388
0.234359
0.208969
0.124995
0.19557
0.0789779
0.201884
0.0625704
0.195124
0.162111
0.187251
0.0760469
0.141854
0.0176959
0.202186
0.218055
0.0872033
0.255902
0.0785735
0.0805409
0.134996
0.0208182
0.104845
0.0812974
0.201062
0.0616855
0.087028
0.0843093
0.0586625
0.167018
0.0587999
0.0578853
0.0592595
0.0600559
0.0588935
0.197516
0.198025
0.204162
0.194667
0.0377045
0.0594376
0.229242
0.0652235
0.0362755
0.0645779
0.0641114
0.0387302
0.0649621
0.0636615
0.0642931
0.0817434
0.0783504
0.144021
0.0896892
0.101148
0.130617
0.112808
0.103753
0.0386855
0.0822428
0.0815059
0.0616164
0.0665112
0.0795293
0.157417
0.0163206
0.186327
0.247888
0.146279
0.237898
0.0806292
0.0179052
0.019571
0.0192471
0.108885
0.020553
0.0772721
0.0794685
0.223003
0.255464
0.135547
0.0719431
0.22646
0.122716
0.151119
0.0788743
0.153508
0.0790322
0.158202
0.0662052
0.035379
0.0428465
0.0749216
0.0014785
0.0810501
0.224835
0.0598795
0.184099
0.0240399
0.0725296
0.0747244
0.210292
0.101741
0.158456
0.114028
0.157372
0.0738464
0.0143114
0.227383
0.0887485
0.146791
0.223831
0.22392
0.0757271
0.0642714
0.0765483
0.116287
0.0760658
0.154342
0.209845
0.119309
0.0772258
0.0778715
0.123495
0.140974
0.173755
0.0770811
0.0789195
0.079366
0.224877
0.0780256
0.0794205
0.0285805
0.0696515
0.0368676
0.0139374
0.0362714
0.0225223
0.0682894
0.0700279
0.0114167
0.0554286
0.011018
0.222408
0.0714481
0.0404498
0.222642
0.170811
0.106867
0.0618062
0.0746448
0.0114568
0.0728962
0.163635
0.11499
0.0713611
0.228276
0.0352104
0.00334709
0.0721837
0.262988
0.113181
0.148815
0.0128597
0.0725854
0.0719116
0.173736
0.0129994
0.112146
0.144104
0.0667568
0.0720907
0.0743674
0.25514
0.234912
0.228665
0.108773
0.0367829
0.0142885
0.0128695
0.23005
0.0129712
0.0456903
0.0754642
0.251346
0.0885578
0.0768843
0.207129
0.229726
0.164007
0.155629
0.07596
0.0739596
0.222709
0.190707
0.202234
0.0221772
0.186999
0.0493123
0.102955
0.0405512
0.0733366
0.116458
0.234751
0.117196
0.115305
0.242672
0.0690057
0.224314
0.0519047
0.153459
0.180191
0.234491
0.117166
0.227819
0.0651131
0.0544787
0.0326159
0.0691717
0.227843
0.052493
0.0473964
0.14094
0.053902
0.0540733
0.05818
0.0186727
0.106921
0.070604
0.083464
0.0491227
0.0640411
0.0567066
0.0388969
0.23005
0.159672
0.0522965
0.0724847
0.260115
0.136118
0.0693247
0.146347
0.0699082
0.130152
0.0679739
0.228377
0.0508033
0.256982
0.0443454
0.0392386
0.142192
0.0533971
0.155456
0.136096
0.164277
0.0216413
-0.00100831
0.0298154
0.0247399
0.0442216
0.0158854
0.0488881
0.0454154
0.0448134
0.241045
0.0299913
0.230492
0.230762
0.0350639
0.219501
0.073181
0.225342
0.209282
0.0508278
0.221629
0.051037
0.00166875
0.163837
0.105193
0.213898
0.208511
0.115153
0.0176229
0.0319473
0.165835
0.18069
0.0524083
0.0507771
0.0682738
0.184033
0.200506
0.148226
0.0183823
0.013285
0.0674787
0.168923
0.1859
0.203479
0.241426
0.0695465
0.214396
0.196301
0.147061
0.257865
0.105072
0.135195
0.171396
0.065437
0.232675
0.0112274
0.101317
0.196044
0.177025
0.2078
0.231432
0.0207722
0.101117
0.0677905
0.120709
0.0686333
0.11182
0.123956
0.119834
0.0868037
0.0683741
0.0674573
0.0652158
0.0884879
0.239985
0.0955164
0.0857847
0.0918279
0.226626
0.199096
0.0196869
0.232278
0.067952
0.0651418
0.136112
0.0574105
0.0580523
0.0801869
0.0201392
0.0564596
0.0611438
0.01405
0.0537196
0.0526625
0.0578397
0.0761024
0.0634728
0.0640076
0.230456
0.0425221
0.0515748
0.0378928
0.0697866
0.0374998
0.0353022
0.0660487
0.0154981
0.0167061
0.0941489
0.0386677
0.034231
0.231667
0.066608
0.051317
0.0472385
0.0178553
0.0422448
0.0659432
0.068167
0.0604779
0.106117
0.145308
0.167572
0.125461
0.0168653
0.0602771
0.0587093
0.0604892
0.191447
0.0924441
0.0674838
0.247143
0.0593315
0.0917162
0.0588126
0.061187
0.160829
0.166833
0.0587571
0.0981548
0.210019
0.208897
0.0925916
0.059465
0.229585
0.0594285
0.127656
0.0600731
0.251908
0.060429
0.189087
0.0590773
0.160636
0.194784
0.224799
0.204308
0.0576513
0.197631
0.143441
0.160274
0.0595675
0.0245975
0.104356
0.14598
0.0593645
0.0589459
0.0597822
0.104307
0.053332
0.242165
0.175038
0.0227051
0.230215
0.0560693
0.223728
0.0228923
0.0515767
0.0547945
0.19091
0.0592657
0.164643
0.24018
0.0521499
0.0557059
0.0899846
0.235923
0.190972
0.190031
0.0569184
0.200457
0.171321
0.0551987
0.0925025
0.0782108
0.0542623
0.0544685
0.164284
0.20302
0.0601668
0.0948341
0.0768233
0.227855
0.222969
0.227242
0.059341
0.229167
0.0402539
0.18023
0.207897
0.119539
0.161936
0.0590329
0.233886
0.0286981
0.0323771
0.0346892
0.0995612
0.0346406
0.106652
0.104662
0.0931044
0.11571
0.186099
0.0950868
0.140918
0.0080662
0.0401038
0.0808681
0.134576
0.0566
0.150424
0.211185
0.109244
0.181933
0.175413
0.0105092
0.034661
0.1591
0.0406697
0.000345541
0.23231
0.192355
0.222642
0.0328673
0.232146
0.0889697
0.22062
0.0850086
0.22393
0.0841302
0.228894
0.0376794
0.200996
0.0545038
0.17109
0.0860548
0.176424
0.0888018
0.266236
0.0549639
0.0742059
0.186805
0.171488
0.0531175
0.115569
0.171636
0.0549931
0.154154
0.0221237
0.153706
0.0504564
0.0489419
0.0750047
0.232023
0.0551572
0.0353248
0.0542597
0.0560973
0.100633
0.193679
0.0628309
0.0565075
0.10019
0.10025
0.00437939
0.225727
0.0544896
0.0719733
0.129966
0.178094
0.00170653
0.0560682
0.230413
0.046659
0.0451011
0.141893
0.0267652
0.0398067
0.208159
0.056447
0.227831
0.104491
0.0358253
0.0442198
0.117336
0.0417295
0.0543364
0.0801476
0.0515287
0.0529097
0.052381
0.0218068
0.136909
0.0506609
0.0714522
0.048375
0.0653093
0.072689
0.0501518
0.0470713
0.225217
0.0512318
0.0444952
0.0470945
0.230081
0.0551111
0.0461026
0.0638242
0.170047
0.0686551
0.0501122
0.0559575
0.0488494
0.00277751
0.228178
0.0693695
0.0489357
0.0362184
0.235419
0.0923701
0.0248991
0.0475218
0.00999787
0.100558
0.226932
0.0464925
0.22555
0.0433468
0.0286242
0.22969
0.226393
0.234449
0.0349357
0.231038
0.0137754
0.0168042
0.0477302
0.0250737
0.0214531
0.0586197
0.172264
0.230574
0.221193
0.238721
0.219139
0.135781
0.0988426
0.0366114
0.0447172
0.05244
0.128949
0.144762
0.0890387
0.192611
0.0683541
0.0489552
0.156307
0.0616531
0.219949
0.219495
0.0274411
0.221244
0.145543
0.200404
0.235324
0.0458172
0.182802
0.147656
0.156623
0.147027
0.0462539
0.112635
0.222321
0.237162
0.0555085
0.217123
0.235227
0.226438
0.188138
0.0388843
0.238558
0.0413474
0.210906
0.211594
0.0411106
0.0456892
0.036754
0.130289
0.231794
0.094918
0.146353
0.0373893
0.162226
0.232167
0.0489627
0.189727
0.0472628
0.193688
0.219653
0.238605
0.218825
0.0795334
0.087785
0.104052
0.183656
0.0491083
0.205572
0.205891
0.04745
0.195227
0.112739
0.047594
0.14635
0.198449
0.0461529
0.222565
0.0388413
0.202686
0.242371
0.0433233
0.123515
0.0440374
0.15016
0.0462329
0.0220534
0.232226
0.152391
0.074832
0.101277
0.128904
0.122088
0.0186234
0.116132
0.114103
0.221371
0.155906
0.245538
0.211442
0.061887
0.226168
0.0233763
0.0242928
0.16431
0.139995
0.195397
0.194706
0.0257401
0.0220322
0.1122
0.22909
0.185247
0.21115
0.242961
0.0250697
0.187534
0.153534
0.188074
0.193945
0.14353
0.233243
0.197974
0.201582
0.0571909
0.0614325
0.241756
0.0251616
0.0223267
0.0422419
0.213902
0.229596
0.232766
0.0410197
0.0388586
0.170313
0.0403493
0.0415389
0.175415
0.237501
0.193698
0.0643091
0.220743
0.112298
0.191057
0.192947
0.238741
0.0393735
0.140941
0.141658
0.0415336
0.0396454
0.0377751
0.0401048
0.150397
0.0416012
0.237985
0.188514
0.173738
0.0414861
0.0367155
0.0816762
0.182776
0.239318
0.109562
0.0985374
0.236914
0.0179871
0.0321537
0.0651131
0.10184
0.0316643
0.0407493
0.0422224
0.0787495
0.0424636
0.23686
0.237963
0.0867432
0.236927
0.138415
0.0781327
0.0380067
0.062259
0.0584276
0.0696026
0.0406628
0.0346478
0.0441731
0.0509578
0.0370186
0.060471
0.0646003
0.183646
0.0370909
0.0402457