/*--------------------------------*- C++ -*----------------------------------*\
| =========                 |                                                 |
| \\      /  F ield         | OpenFOAM: The Open Source CFD Toolbox           |
|  \\    /   O peration     | Version:  2406                                  |
|   \\  /    A nd           | Website:  www.openfoam.com                      |
|    \\/     M anipulation  |                                                 |
\*---------------------------------------------------------------------------*/
FoamFile
{
    version     2.0;
    format      ascii;
    arch        "LSB;label=32;scalar=64";
    class       surfaceScalarField;
    location    "50";
    object      phi;
}
// * * * * * * * * * * * * * * * * * * * * * * * * * * * * * * * * * * * * * //

dimensions      [0 3 -1 0 0 0 0];

oriented        oriented;

internalField   nonuniform List<scalar> 
113358
(
-1.46589e-05
3.04508e-05
-2.13525e-05
5.56193e-06
2.18147e-05
2.80706e-07
-5.86131e-06
-1.62358e-05
-2.55218e-05
1.92351e-05
-3.00022e-06
9.28758e-06
-2.38501e-05
-6.23305e-06
2.34334e-05
6.64893e-06
-1.72936e-05
9.20058e-07
3.01407e-05
-1.37672e-05
1.36157e-05
-1.41962e-05
-7.96042e-06
8.54093e-06
-7.17147e-06
3.38638e-05
-2.46987e-05
-1.99235e-06
-7.28116e-07
-3.12644e-05
1.70708e-05
1.4921e-05
8.2236e-06
6.01053e-07
1.79994e-05
-2.68246e-05
7.1555e-06
3.62428e-06
-1.04824e-05
-3.00562e-07
-6.09591e-06
2.3102e-05
-2.17834e-05
4.77732e-06
-1.47018e-05
1.00352e-07
-3.4591e-07
1.49476e-05
-4.4595e-05
3.45542e-06
1.19172e-05
2.92218e-05
1.19729e-06
-2.55013e-06
1.35289e-06
1.93202e-06
-1.40343e-06
1.90294e-05
-1.95562e-05
1.02161e-06
3.2795e-07
1.15322e-05
-1.28828e-05
9.89537e-06
3.56631e-05
-2.92138e-05
-1.63445e-05
-1.9511e-05
1.07911e-05
6.71364e-06
2.00605e-06
1.50569e-05
-3.79737e-05
3.18017e-05
-8.88547e-06
2.60094e-05
3.23769e-06
2.80807e-05
-5.73274e-05
1.89251e-05
3.74777e-07
-4.82581e-07
-1.88174e-05
-1.16346e-05
4.65582e-05
4.3505e-06
-3.92763e-05
-8.41382e-07
-4.53373e-05
4.93924e-05
-3.21338e-06
-9.01325e-07
4.28738e-06
3.19622e-07
-3.70509e-06
-4.78137e-05
2.09145e-05
-4.07754e-06
3.09802e-05
-2.17879e-05
5.09371e-06
1.79492e-05
-1.2548e-06
-9.29784e-06
9.00951e-06
-1.80688e-07
4.69641e-07
-1.89002e-06
-7.45431e-06
5.33789e-06
4.0064e-06
1.89075e-05
-3.99484e-07
4.17028e-07
-2.18859e-06
2.18104e-06
7.50204e-09
-5.44204e-06
-2.5862e-05
2.74653e-05
3.83873e-06
5.0773e-06
-2.57589e-07
-8.08471e-06
3.26478e-06
2.02953e-05
-1.09243e-06
1.19769e-06
-2.04008e-05
-2.75393e-05
1.26619e-05
-2.95898e-06
1.78346e-05
1.75071e-05
2.55023e-06
-1.98335e-05
-2.23866e-07
-3.40492e-05
8.60858e-06
-1.19156e-05
3.73546e-05
-3.70816e-08
-2.12513e-06
2.16296e-06
9.34764e-06
1.07795e-05
1.75927e-06
-2.18862e-05
7.31026e-06
-3.70239e-05
3.03977e-05
-6.8451e-07
-3.53185e-06
4.45732e-06
3.69005e-05
-3.78296e-05
-1.87145e-05
1.58501e-05
-1.97047e-05
2.25687e-05
1.184e-07
-2.40845e-05
-3.10273e-05
5.49939e-05
-1.2735e-06
4.33888e-05
-1.23581e-05
-2.97581e-05
5.17362e-06
-1.8192e-05
-7.26734e-06
-6.30308e-06
3.24604e-05
-3.40401e-07
-2.58179e-05
-2.23437e-06
1.54881e-05
-1.03489e-05
-2.90609e-06
-3.04404e-05
-1.20839e-05
4.12503e-05
-1.16456e-05
3.5762e-05
1.55689e-06
-2.56729e-05
-3.41006e-05
4.25929e-06
-5.52386e-06
3.53651e-05
3.55655e-05
1.58357e-05
-4.7062e-05
-4.33903e-06
2.32261e-05
-1.61794e-05
1.55187e-06
-8.59849e-06
-1.02676e-05
2.97773e-06
1.03891e-05
-3.09872e-06
2.90154e-05
-7.68362e-06
1.64229e-05
-3.77552e-05
-1.02284e-05
-3.76431e-05
4.08737e-05
6.99564e-06
-2.05795e-06
7.56542e-06
-8.78004e-06
3.27229e-06
2.8023e-05
-1.20739e-05
2.01366e-05
-3.60859e-05
-2.1388e-05
4.97322e-06
3.74162e-05
-2.10017e-05
1.15414e-05
-5.64158e-06
4.46764e-06
-1.03673e-05
3.88662e-05
-1.00957e-05
-3.0011e-05
1.23867e-06
-1.301e-05
-1.47854e-05
8.15353e-06
1.96417e-05
-3.08095e-05
-5.03384e-06
1.45603e-05
2.12824e-05
-2.80004e-06
3.20539e-06
-4.05619e-07
3.565e-05
-6.09638e-06
-3.52259e-05
5.67281e-06
-1.58892e-05
-4.3163e-05
1.71687e-05
4.18832e-05
-4.07264e-06
4.33649e-06
-3.40923e-05
3.38278e-05
1.62633e-06
2.17273e-05
3.03986e-06
-2.63939e-05
3.44832e-06
-2.85625e-06
-5.92633e-07
-2.1737e-08
6.67877e-08
1.14077e-05
-1.14513e-05
6.24453e-06
-3.01968e-05
3.26549e-05
-8.70249e-06
9.75469e-06
-2.42675e-05
2.34251e-05
-8.91262e-06
7.23901e-06
-7.47214e-06
2.3231e-07
-1.96345e-05
-6.46594e-06
3.4125e-05
-8.02428e-06
-2.41008e-07
4.02499e-06
-3.78437e-06
7.49519e-06
-2.93653e-05
8.91818e-06
1.29514e-05
4.78987e-05
-3.52228e-06
-3.14524e-06
-4.1231e-05
-2.73428e-05
-3.31127e-05
3.58552e-05
2.45995e-05
3.87294e-06
-3.74194e-05
6.20358e-06
3.65756e-05
-2.94037e-05
-8.71155e-07
-6.30115e-06
1.06761e-07
1.71184e-07
-1.50234e-05
1.47455e-05
6.45067e-06
8.4362e-06
1.29413e-05
-2.78279e-05
7.71863e-06
-4.05332e-06
3.13918e-06
-6.80572e-06
-1.61164e-05
-1.1183e-05
2.73385e-05
-3.94893e-08
-2.11565e-05
2.60972e-05
-1.88586e-05
1.39179e-05
-3.00398e-06
2.40347e-09
3.00147e-06
-3.08222e-05
3.41233e-05
-3.50853e-05
2.69731e-05
-2.82626e-06
-9.38455e-07
-6.14954e-07
4.3795e-06
6.41403e-05
-6.19035e-05
1.89908e-06
-4.13583e-06
-1.16264e-05
3.62301e-06
1.11972e-05
-3.19282e-06
-4.63971e-06
2.57595e-05
-2.82927e-05
7.17314e-06
-1.79897e-05
-2.12983e-05
3.14795e-05
7.80829e-06
9.11177e-06
-1.30038e-05
1.84876e-05
-1.45941e-05
7.74101e-06
2.54935e-05
-5.24252e-05
1.91924e-05
-3.37414e-05
1.206e-05
1.46869e-05
6.99451e-06
9.33048e-07
-3.04645e-05
2.48442e-05
4.68786e-06
-2.7101e-05
2.50032e-06
9.68252e-06
1.49181e-05
2.34415e-05
-2.03122e-05
6.98734e-06
-1.01167e-05
1.29119e-06
1.17421e-05
-1.2835e-05
-1.97959e-07
1.71502e-05
-2.42904e-06
-2.52752e-06
-1.21935e-05
1.59501e-05
1.83703e-05
-1.59667e-05
-1.83518e-05
2.36051e-06
-7.4194e-07
4.22217e-06
-5.84052e-06
4.57459e-06
-2.74993e-07
-4.29882e-06
3.4745e-08
3.79446e-06
-3.82952e-06
-4.74636e-07
2.96068e-06
-1.27887e-05
1.03016e-05
-2.03771e-05
4.12733e-05
4.39904e-07
-2.13342e-05
4.82175e-06
-2.2137e-05
1.71177e-05
1.95653e-07
-2.989e-06
-3.96011e-06
1.11469e-06
5.83389e-06
-5.6886e-06
-1.3876e-05
3.66466e-06
1.59007e-05
-3.02166e-06
1.94653e-05
8.41906e-06
-2.4863e-05
4.06413e-06
3.63233e-06
-1.75888e-05
9.89371e-06
-2.71887e-06
2.83793e-05
-3.22797e-05
6.61939e-06
-7.27982e-06
7.47101e-06
-1.91554e-07
1.78809e-05
-2.21708e-05
3.53791e-06
7.51984e-07
1.84063e-05
1.08503e-05
-3.2447e-05
3.19045e-06
-2.65972e-05
-1.51164e-05
7.49064e-06
3.42234e-05
-2.16234e-06
-2.08016e-05
8.87453e-07
2.20761e-05
1.26028e-05
-1.30774e-05
1.00649e-07
3.7544e-07
1.61463e-05
-2.82724e-05
-5.40118e-06
1.75274e-05
-3.39822e-06
2.64795e-07
3.13291e-06
-4.41956e-06
-1.34144e-06
2.95143e-05
-2.37535e-05
-1.53021e-05
9.63113e-06
4.90908e-05
-4.34175e-05
-1.09e-05
2.22522e-05
-3.24731e-05
2.11207e-05
1.63195e-06
-2.554e-05
2.04333e-05
3.47465e-06
-3.91482e-06
-9.33702e-06
3.31191e-05
-1.98667e-05
2.31832e-05
-9.82042e-06
-1.02948e-05
-3.06795e-06
-2.82745e-06
-1.22569e-05
1.81151e-05
-3.03009e-06
5.93288e-06
-2.89812e-06
-3.03552e-06
-1.09793e-06
-2.50099e-05
-6.60101e-06
3.2709e-05
-1.47475e-05
2.06291e-05
5.87004e-06
-1.17517e-05
5.86208e-06
-1.44981e-05
2.46834e-05
-1.60477e-05
-4.80165e-05
1.1481e-05
-8.11128e-07
3.73451e-05
-2.5474e-06
-4.20911e-05
3.81429e-05
6.49482e-06
5.48218e-08
-3.8667e-06
3.81298e-06
2.09335e-05
-3.24768e-05
6.35311e-07
1.09071e-05
3.52273e-05
4.05264e-06
-3.80243e-05
-1.25721e-06
1.07975e-05
1.20785e-06
-2.55877e-05
1.35825e-05
-9.4176e-06
1.29895e-05
1.48344e-05
-2.61492e-05
-2.18249e-05
1.3011e-05
3.49634e-05
5.62187e-06
2.98565e-06
-4.03095e-06
6.83162e-06
-5.05736e-06
-2.60283e-05
2.42548e-05
4.41844e-06
1.39838e-05
-6.27986e-06
-1.21233e-05
-7.88119e-06
1.71551e-05
3.47882e-05
-4.4062e-05
1.75876e-07
2.37162e-06
-2.54713e-06
-2.2272e-05
3.53009e-06
1.37626e-05
4.98017e-06
3.50669e-05
-1.89648e-05
-2.37848e-05
7.68272e-06
3.28162e-05
-8.07423e-06
-3.65652e-06
-2.10856e-05
-2.86867e-05
-1.11223e-06
-7.75504e-07
3.05737e-05
2.55746e-05
1.15058e-05
-3.51196e-05
-1.96045e-06
6.92828e-06
4.83015e-06
-1.17584e-05
1.7601e-06
-2.50075e-05
-1.85113e-07
2.34321e-05
3.93504e-05
-3.02531e-05
-2.86452e-06
-6.23111e-06
4.37468e-06
-6.25946e-07
-3.49712e-06
-2.53205e-07
-3.28535e-05
4.67712e-05
1.98479e-05
-3.37652e-05
1.8191e-05
-2.95848e-05
-2.97534e-06
1.43688e-05
-2.37133e-05
2.57953e-05
-8.75071e-07
-1.20644e-06
-2.96957e-06
1.46734e-06
1.50132e-06
3.46282e-05
-3.8461e-06
9.84618e-06
-4.06268e-05
-2.59213e-05
3.51933e-05
-3.29837e-05
6.52378e-08
2.36112e-06
1.86338e-05
-2.10595e-05
2.62248e-06
-2.53583e-06
-8.72997e-08
-1.10322e-05
-6.21341e-06
1.05208e-06
1.61933e-05
-8.44997e-06
2.10292e-05
-1.60154e-05
3.43509e-06
1.55351e-06
-4.73561e-06
2.96367e-06
2.1827e-07
-1.86694e-06
-1.74175e-06
3.60811e-06
-2.23033e-05
2.23177e-05
2.23763e-05
-2.23912e-05
5.31941e-05
-1.3286e-05
-1.16582e-05
-2.825e-05
1.29528e-05
5.25617e-07
-4.11806e-07
-1.30667e-05
3.68169e-05
-4.48518e-05
6.20858e-06
1.82683e-06
3.05618e-06
-5.23561e-08
-3.00318e-06
-5.99211e-06
2.88774e-05
-2.76965e-05
4.81013e-06
-1.39331e-05
1.45417e-05
-1.59512e-06
9.86083e-07
-1.03492e-05
9.05034e-06
6.18928e-07
6.79636e-07
2.45513e-06
-1.96056e-05
7.15601e-06
9.99463e-06
-1.14177e-05
-1.07159e-05
2.61744e-05
-4.0406e-06
-1.46552e-05
1.43648e-05
2.58387e-07
3.24034e-08
-3.024e-05
-3.60231e-05
3.58224e-05
-1.15626e-05
3.70526e-05
1.18568e-05
-3.73468e-05
5.98278e-06
3.0398e-05
7.04052e-06
-4.34219e-05
-1.3337e-05
5.98252e-06
1.79247e-05
-1.05681e-05
-2.08482e-08
7.47761e-08
1.05402e-05
-1.0594e-05
1.33636e-06
3.85094e-05
-5.67988e-06
-3.41645e-05
-3.88251e-06
-2.49947e-06
4.17405e-06
2.20829e-06
4.21649e-06
-3.98248e-06
-2.33081e-07
-3.49246e-06
-1.21657e-05
1.00315e-06
-3.07482e-05
4.60715e-07
-6.04709e-06
3.63347e-05
-1.49176e-05
1.34062e-05
4.19448e-07
1.09036e-06
-4.36269e-07
8.20198e-06
-1.34851e-07
-7.63032e-06
-2.85193e-06
2.7835e-06
6.86987e-08
3.12408e-06
-8.10432e-07
2.10342e-05
-2.33471e-05
2.83131e-05
3.20181e-06
-2.47406e-05
-6.7749e-06
-3.37382e-06
-1.57609e-05
-1.01052e-05
1.36499e-05
-1.50279e-05
1.01713e-06
3.58561e-07
7.7977e-06
-3.21746e-05
3.78856e-05
-1.35085e-05
1.09568e-05
2.24614e-06
-5.72344e-06
-7.47912e-06
-1.66949e-05
-3.85131e-05
9.88593e-06
4.5326e-05
5.4683e-08
2.59888e-06
-2.01889e-07
-2.45187e-06
9.72814e-06
-6.41338e-07
1.51838e-06
-1.06051e-05
-9.87435e-06
2.14096e-07
9.75303e-06
-9.13398e-08
2.23683e-05
3.73324e-06
-2.81067e-05
2.0054e-06
-3.15498e-05
-1.77852e-05
4.03133e-05
9.02271e-06
-6.99653e-06
2.9918e-06
-6.44369e-06
7.22803e-06
3.03928e-05
-3.90857e-05
1.4631e-06
-2.23284e-05
-2.25469e-05
9.02427e-06
3.58507e-05
-2.72295e-06
2.97408e-06
-2.51095e-07
1.76502e-05
1.01171e-05
-2.01795e-06
-2.5749e-05
-7.12655e-07
-4.41636e-06
-2.93947e-05
3.45228e-05
-2.30267e-05
5.83054e-06
5.61004e-05
-3.89039e-05
2.79618e-05
-2.06912e-05
-1.11177e-05
3.84744e-06
2.60893e-06
-1.0025e-07
-2.50846e-06
4.23138e-05
-2.1162e-05
2.95983e-06
-2.41106e-05
9.36232e-06
-1.00904e-05
1.29345e-06
-5.64676e-07
2.42713e-06
2.31353e-06
-4.74089e-06
-1.6564e-05
-2.11367e-05
4.32635e-06
3.33741e-05
-1.12881e-05
2.15882e-07
1.16909e-05
-6.19339e-07
2.08795e-05
-4.28103e-05
5.26206e-07
2.14049e-05
-2.21417e-05
-2.68624e-05
3.5875e-05
1.31275e-05
-1.30835e-05
1.78759e-05
2.8024e-05
5.39643e-06
2.89928e-05
-3.02608e-05
-4.12876e-06
1.86188e-06
1.41204e-06
-1.25318e-05
9.25608e-06
-3.3775e-05
1.47975e-05
1.21124e-05
6.86594e-06
1.32533e-05
3.48556e-06
-1.51135e-06
-1.52258e-05
-3.29581e-06
-2.56359e-05
2.63357e-06
2.62994e-05
6.86229e-06
-2.62416e-06
2.77921e-05
-3.20304e-05
-1.98284e-06
-8.13728e-08
-4.98446e-06
7.04685e-06
6.70137e-07
1.10393e-05
-4.13038e-05
2.95934e-05
-1.47884e-05
-3.01058e-05
-1.04144e-06
4.59337e-05
3.57663e-07
5.01133e-06
-5.36886e-06
8.20177e-08
-1.91735e-07
1.09765e-05
-1.08649e-05
2.75372e-06
1.73821e-05
1.48611e-05
-3.49966e-05
2.66903e-07
-1.4416e-05
1.4628e-07
1.40022e-05
4.38579e-06
-2.13255e-05
-1.63591e-05
3.33013e-05
1.58241e-05
1.97534e-05
-1.72686e-05
-1.83083e-05
3.48843e-05
2.08767e-05
-4.689e-05
-8.87175e-06
1.31936e-07
-4.34329e-06
4.21208e-06
2.70623e-06
1.3275e-06
-7.03401e-09
-4.02606e-06
1.92957e-06
2.50875e-06
3.15957e-07
-4.7549e-06
2.47625e-06
-2.97069e-06
1.48594e-05
1.80651e-07
-2.82601e-05
1.05703e-05
1.75092e-05
5.90985e-05
6.02576e-06
-1.24073e-05
-5.27165e-05
-7.99779e-06
1.08521e-05
-2.70312e-06
-1.52078e-07
-1.77703e-05
1.68415e-05
-2.85858e-05
2.9515e-05
3.08992e-06
6.0414e-08
-3.1509e-06
1.16982e-06
8.45739e-06
-1.61704e-05
6.54391e-06
3.06898e-06
-4.62783e-06
1.55861e-06
2.94297e-05
-1.57679e-05
-7.79908e-06
-1.61094e-05
5.83288e-06
-1.49506e-05
2.52272e-05
3.33033e-05
-3.24675e-05
5.18117e-06
-6.01751e-06
1.41941e-05
4.74352e-06
-1.69957e-05
-1.94055e-06
3.39359e-06
-4.01209e-05
1.3874e-05
2.28548e-05
2.67835e-05
-5.51432e-06
4.52575e-06
5.12215e-05
-5.67025e-05
1.94601e-06
-3.24797e-05
2.52254e-06
3.34992e-05
-3.54078e-06
-3.16189e-05
-2.03685e-05
3.42183e-05
-1.19363e-05
-1.19888e-05
-1.66362e-05
4.05618e-05
-1.35753e-06
4.5842e-06
3.97936e-05
-4.30222e-05
1.46498e-06
2.93652e-05
-5.06746e-05
1.98447e-05
-9.3388e-08
4.62978e-08
1.7868e-05
-1.78216e-05
-4.24798e-05
7.19469e-06
3.12915e-06
3.2156e-05
1.19873e-05
-1.20697e-05
4.09809e-06
-4.01532e-06
7.31869e-07
1.10183e-05
-1.40365e-05
2.28622e-06
-2.30185e-05
3.50883e-05
-4.62747e-06
-7.44428e-06
-3.65154e-05
2.70153e-05
1.69208e-06
7.80737e-06
-2.73619e-05
2.76057e-05
3.60349e-05
-3.62794e-05
3.52457e-05
-2.8796e-05
1.14348e-06
-7.59023e-06
-1.30834e-05
1.68425e-05
-1.00919e-05
6.33283e-06
-7.42639e-06
1.71063e-05
1.43558e-06
-1.11149e-05
-3.78466e-05
3.1203e-06
4.13231e-05
-6.59568e-06
-4.41009e-06
-2.452e-05
3.96126e-07
2.8535e-05
2.35915e-06
-8.13747e-06
6.51165e-06
9.3648e-06
7.64864e-07
-8.97163e-06
-1.15803e-06
9.80996e-06
1.84114e-05
-2.14431e-05
-6.77755e-06
-1.06796e-05
1.49671e-05
2.56266e-05
-2.9915e-05
8.70387e-07
4.26387e-06
-3.58593e-05
3.07243e-05
1.66949e-05
-2.53766e-05
8.47801e-06
2.04996e-07
-4.12077e-05
-6.57668e-06
1.12714e-05
-3.24849e-06
-8.56008e-07
-2.40981e-05
2.82014e-05
-3.19788e-06
4.43419e-08
3.15369e-06
-5.36846e-06
-6.70454e-06
4.39565e-05
-3.18842e-05
5.16314e-06
-4.91612e-06
-2.47322e-07
2.54442e-07
1.96727e-07
-9.45042e-06
8.99904e-06
-2.05341e-05
2.01479e-05
3.52708e-05
5.8242e-06
3.27249e-05
-2.34636e-05
-1.50842e-05
4.41613e-06
-4.488e-06
7.21358e-08
-4.40035e-06
4.87269e-05
-2.67924e-05
-1.75349e-05
-2.6144e-05
2.78006e-05
1.92226e-05
-2.02108e-06
2.59292e-05
1.08917e-05
-3.48013e-05
-3.59044e-05
-1.32657e-05
4.78608e-05
1.30905e-06
-4.63409e-06
4.20267e-06
4.30814e-07
3.50393e-05
-3.73257e-05
-4.84222e-07
2.76942e-06
-2.30544e-05
-1.46078e-05
2.09646e-05
1.66978e-05
-4.12232e-06
1.92108e-06
-2.35117e-05
2.5712e-05
-2.84127e-05
-7.42157e-06
6.37211e-07
3.51956e-05
-1.79772e-05
-9.01833e-06
-6.74604e-06
1.55945e-05
-3.57059e-05
-3.06292e-06
2.3174e-05
8.4754e-06
-3.53096e-05
-1.07247e-05
3.75602e-05
7.33701e-06
-6.98146e-06
-3.55446e-07
-2.99083e-05
5.0114e-05
-7.07795e-06
-1.3127e-05
-6.39959e-06
-2.66666e-05
3.00805e-05
2.98716e-06
-4.89911e-05
5.03022e-05
-5.72232e-06
4.41217e-06
-2.83411e-05
-6.96566e-06
2.04317e-05
1.48732e-05
-2.62189e-05
-5.64156e-06
3.201e-05
-1.48316e-07
-3.45098e-07
9.15042e-08
-1.23871e-05
1.26414e-05
3.38091e-06
1.69394e-07
-3.55051e-06
-6.15955e-06
6.22115e-06
-6.22218e-08
4.347e-05
-3.75174e-05
-5.0827e-05
4.48765e-05
2.869e-06
1.17867e-07
-2.98668e-06
-2.85227e-05
2.80679e-05
-3.52341e-07
8.07332e-07
-1.03975e-05
8.7969e-06
2.16948e-07
1.38271e-06
5.26709e-06
5.2004e-05
-2.81548e-05
-2.91159e-05
-2.99231e-05
-9.1784e-06
3.60339e-06
3.5494e-05
3.36321e-05
1.53893e-05
-1.52737e-05
-3.37494e-05
1.26928e-05
-4.72504e-06
1.55323e-06
-9.52273e-06
3.61828e-05
-3.52185e-06
-2.61318e-05
-6.53038e-06
-3.90021e-06
5.79765e-06
-6.4468e-06
4.54988e-06
-2.55943e-06
8.45284e-06
3.10459e-06
-8.99803e-06
-1.48585e-05
-7.71307e-06
4.18127e-05
-1.92401e-05
6.19043e-06
2.42705e-05
-2.37044e-05
-6.75642e-06
-2.25505e-05
2.32372e-05
1.49971e-05
-1.56838e-05
2.28744e-05
-2.06938e-05
-2.7561e-06
5.74379e-07
-5.4522e-08
-1.08717e-05
-4.62944e-08
1.09736e-05
-6.97292e-06
1.31674e-05
-1.4601e-06
-4.73574e-06
-3.23221e-05
-1.1106e-05
1.59352e-05
2.74921e-05
2.52658e-05
-2.12628e-05
-4.32206e-06
3.20193e-07
1.00047e-05
-3.38472e-05
-3.91823e-05
6.30266e-05
2.19311e-05
-2.85864e-05
-1.38449e-05
2.05018e-05
-6.25183e-06
-5.5745e-05
1.48516e-05
4.71446e-05
1.76898e-05
-1.57054e-05
2.46246e-06
-4.44686e-06
3.035e-05
-1.07397e-05
-3.64992e-05
1.6888e-05
1.33577e-05
2.31323e-05
-5.29011e-05
1.64106e-05
-7.83441e-06
3.1879e-05
-2.8173e-05
4.12837e-06
-2.98038e-05
3.43467e-05
3.47305e-05
-3.92733e-05
-7.96117e-08
-1.37657e-05
1.19884e-05
1.85534e-06
4.0459e-06
-3.80155e-06
-2.43747e-07
3.83953e-05
-4.76289e-05
1.39926e-06
-4.0169e-06
5.37933e-06
2.8437e-06
-4.20692e-06
-2.89506e-06
1.36787e-07
-1.41962e-06
4.17935e-06
1.91142e-05
-2.49706e-06
1.79187e-05
-2.73543e-05
1.09261e-06
8.34223e-06
-9.1739e-06
-2.29642e-06
8.64308e-06
2.64713e-05
-3.45467e-05
1.95872e-05
-1.15105e-05
-2.86523e-05
-4.09137e-06
3.44545e-05
-1.71126e-06
-6.00285e-05
-9.13691e-06
5.32489e-05
1.59157e-05
-4.32696e-05
1.19791e-05
9.78776e-07
3.03128e-05
-4.04937e-06
3.19321e-07
8.45329e-07
2.88397e-06
-2.69273e-05
-3.2522e-05
2.4608e-05
3.48427e-05
2.0411e-05
1.77629e-05
-3.07107e-05
-7.46233e-06
1.28399e-07
1.40393e-05
-1.18986e-05
-2.26905e-06
-4.68966e-07
-2.03501e-05
4.01978e-05
-1.93809e-05
4.16749e-05
-2.96988e-05
-1.58894e-05
2.80312e-05
-3.14994e-05
6.25206e-06
-2.78402e-06
-3.99318e-06
-2.56836e-05
2.7936e-05
1.74146e-06
4.10211e-05
-2.86984e-06
-4.21431e-05
2.32517e-05
-2.60897e-05
6.46827e-06
-3.63017e-06
1.75168e-06
-1.16744e-05
-9.55707e-07
1.08786e-05
-2.48322e-06
2.39106e-06
-2.85663e-06
2.94876e-06
-1.77115e-06
4.38509e-06
1.44058e-06
-4.05642e-06
-7.03956e-06
-1.87351e-05
-1.46504e-06
2.724e-05
1.09293e-05
8.75814e-06
-2.97788e-05
1.00914e-05
-1.87055e-05
5.97957e-07
6.69746e-06
1.14101e-05
-1.64867e-06
-1.7658e-05
1.71446e-05
-2.2553e-05
2.67422e-05
8.48258e-06
-1.2672e-05
-3.30895e-05
3.85459e-05
-1.24019e-05
6.94574e-06
-6.12519e-06
-1.98516e-05
2.0657e-06
2.39109e-05
1.49969e-06
3.47829e-05
-4.08378e-05
4.55403e-06
1.7309e-05
-5.44216e-05
1.15575e-05
2.55559e-05
4.967e-06
-3.83732e-05
2.09554e-05
1.24501e-05
1.62024e-06
2.1132e-05
-7.28116e-06
-1.54712e-05
-3.83641e-06
1.85652e-06
3.75957e-06
-1.77997e-06
-3.96805e-06
7.89656e-06
-2.92751e-05
2.53466e-05
-1.52583e-06
-1.07517e-05
2.79686e-07
1.19971e-05
1.66822e-07
1.10404e-05
-1.71328e-07
-1.10373e-05
1.74042e-07
2.43181e-07
1.12716e-05
-1.16881e-05
-9.55398e-06
-1.61742e-05
2.8808e-05
-3.07967e-06
3.21019e-06
-3.20685e-05
1.73036e-05
1.1555e-05
3.36561e-05
8.35839e-07
2.69966e-06
-3.71904e-05
2.59973e-06
-2.6616e-06
6.24397e-08
1.05762e-05
2.13133e-05
-2.69238e-05
-1.08472e-05
4.06771e-08
1.32198e-07
1.06743e-05
2.23524e-06
-2.84315e-05
1.03231e-05
1.58733e-05
8.51509e-07
7.12241e-06
-7.20808e-06
-7.66089e-07
-5.5081e-06
-1.16526e-05
2.23658e-05
-5.20654e-06
2.75519e-05
-3.0545e-05
2.63023e-05
-2.33102e-05
1.91073e-05
-8.78035e-06
-3.26637e-05
2.23365e-05
-1.87281e-06
-1.77952e-06
3.65192e-06
1.14024e-05
2.40239e-06
-3.28866e-06
-1.05152e-05
-2.45075e-05
3.67028e-05
2.77974e-06
2.34831e-06
-5.12804e-06
2.39111e-06
-3.10835e-05
-3.71132e-07
2.90637e-05
-1.52745e-07
5.44034e-07
2.09213e-05
-1.38889e-06
2.21349e-05
-4.42569e-05
2.35095e-05
-7.0417e-06
-2.01114e-05
-2.82957e-06
2.99812e-05
5.59779e-06
-9.0848e-06
9.42178e-06
-5.93439e-06
-7.26011e-06
-3.58495e-05
-4.51286e-06
4.7623e-05
1.97352e-05
3.74084e-06
-2.27399e-05
-7.36067e-07
7.01063e-06
3.29609e-05
-5.44657e-05
1.44934e-05
-2.43811e-06
-1.42225e-05
-8.31622e-06
2.49768e-05
-1.84308e-05
-5.90299e-06
9.75275e-06
1.458e-05
-1.06841e-06
-1.15809e-06
-1.25866e-05
1.48116e-05
4.1675e-05
-1.7246e-05
-1.00112e-05
-1.44168e-05
-2.57609e-05
6.23643e-05
-3.40385e-05
-2.56059e-06
1.0875e-05
2.87863e-07
2.91025e-07
-1.14559e-05
2.94038e-05
-3.52844e-05
3.50321e-05
-2.91513e-05
-5.18339e-06
1.62685e-05
-1.31368e-05
2.05083e-06
1.55972e-05
-5.6495e-05
2.10491e-06
3.87937e-05
1.03382e-05
5.01546e-05
-4.28177e-05
-1.76758e-05
6.15261e-06
-6.00028e-06
-9.94781e-06
9.79785e-06
-2.22753e-05
-1.37712e-05
3.97876e-05
-3.74196e-06
3.54449e-05
-2.90013e-05
-4.18981e-05
3.54527e-05
1.82341e-05
1.49072e-05
-9.48748e-06
-2.36532e-05
1.17117e-07
-1.56574e-05
8.32358e-08
3.76692e-06
-3.84931e-06
-3.28498e-06
3.17385e-06
1.10988e-07
2.59978e-05
-2.44423e-05
-2.22749e-05
2.07203e-05
-7.61463e-06
9.78376e-06
-2.77006e-05
2.553e-05
4.15032e-05
-3.23533e-05
-6.75539e-06
-2.39201e-06
-4.57669e-06
1.13679e-06
2.96483e-06
-8.92422e-06
3.15452e-05
-8.48731e-06
-1.41334e-05
-4.11283e-05
1.03571e-06
1.42555e-05
2.58396e-05
1.58311e-05
-6.93709e-06
-1.53619e-05
6.46642e-06
9.0002e-06
3.88518e-05
-3.67072e-05
-1.11456e-05
-2.3303e-05
-4.56656e-06
4.42783e-05
-1.64104e-05
2.21552e-06
2.50928e-05
5.63675e-06
-3.29448e-05
8.46128e-06
2.73055e-05
-3.35515e-05
1.84263e-05
-1.35755e-05
-7.15707e-06
2.30647e-06
2.41631e-05
-3.07667e-05
1.36137e-05
-1.27585e-05
8.10422e-06
7.61225e-06
-2.9575e-06
1.01032e-05
1.16453e-05
2.32929e-05
-4.50437e-05
4.29456e-06
-2.67061e-05
-4.15077e-06
2.65632e-05
3.20747e-07
2.80176e-05
2.5194e-06
-3.08583e-05
1.35327e-05
2.53157e-05
-4.23118e-05
3.46419e-06
-5.6607e-05
4.70972e-05
-7.21986e-07
2.78967e-07
3.89987e-05
-3.01146e-06
-3.62672e-05
-3.19572e-06
7.19195e-06
-9.84032e-06
5.84472e-06
-7.86448e-07
-3.42682e-06
2.2586e-07
3.98675e-06
-3.28613e-06
3.16671e-06
1.19224e-07
-4.86469e-06
-8.33354e-06
3.80786e-05
-2.48801e-05
-3.2507e-05
4.87359e-06
-1.43498e-05
4.19836e-05
4.39135e-05
-1.05421e-05
-1.4337e-05
-1.90372e-05
3.35487e-06
-3.15382e-05
1.14669e-05
1.67174e-05
3.32584e-06
-3.0044e-06
-1.16726e-06
8.4502e-07
-3.8425e-06
3.70287e-06
1.39249e-07
1.86602e-06
2.65635e-05
-4.71674e-06
-2.37116e-05
-5.59307e-06
2.69875e-05
-3.49839e-05
1.35885e-05
1.25161e-05
2.09812e-05
-4.87355e-05
1.52388e-05
-1.93017e-06
2.59138e-05
1.92198e-05
-4.32029e-05
-4.10713e-05
2.21723e-05
2.3777e-05
-4.87783e-06
4.149e-05
-4.25932e-05
8.58568e-06
-7.48173e-06
-3.13083e-05
-5.15771e-07
-9.24625e-06
2.319e-07
5.1229e-06
-5.35469e-06
2.94703e-05
3.92075e-06
-2.43861e-05
-9.00607e-06
-1.82896e-06
-2.6052e-06
1.24063e-05
-7.97265e-06
3.03773e-06
5.32329e-07
9.97112e-06
-1.35412e-05
-3.43665e-05
1.54628e-05
1.65613e-05
2.34211e-06
1.3218e-05
-2.09848e-05
-3.01442e-06
1.07809e-05
-2.49365e-05
5.6082e-06
4.08828e-05
-2.15559e-05
-3.00454e-06
-1.87131e-07
3.19208e-06
-1.5544e-05
3.94602e-05
2.83557e-05
-5.22701e-05
3.55107e-05
9.67581e-07
-5.61882e-05
1.97096e-05
-2.36444e-06
3.62387e-05
-3.12329e-06
-3.07503e-05
1.80979e-05
-1.4035e-05
1.08951e-05
-1.49579e-05
-1.30889e-06
-2.47181e-05
2.76763e-05
-1.64641e-06
-2.28644e-05
-3.47409e-06
-1.52092e-05
4.15474e-05
-7.83385e-06
-8.39844e-06
-1.45e-05
3.07343e-05
-1.30251e-06
3.79374e-05
-4.26544e-06
-3.23689e-05
2.28556e-05
-2.28153e-05
7.96637e-07
-8.36706e-07
3.87398e-05
1.05012e-07
-2.67781e-05
-1.20662e-05
-8.55793e-06
-4.47963e-06
-2.46173e-05
3.7655e-05
-2.89218e-07
-3.02991e-06
3.31926e-06
-3.3755e-05
5.00344e-05
-3.71017e-06
-1.25677e-05
2.75134e-06
1.87068e-05
6.00168e-06
-2.74594e-05
-4.24173e-06
9.82087e-06
3.43014e-06
-9.0103e-06
-1.54823e-05
-3.82405e-06
1.60319e-05
3.27454e-06
2.18079e-05
1.4982e-05
-5.428e-05
1.74906e-05
1.21873e-05
-9.53135e-06
3.02856e-05
-3.29412e-05
-2.35824e-06
1.9259e-05
1.57186e-06
-1.84727e-05
2.92822e-06
-2.88405e-06
-4.47834e-08
2.726e-06
3.34183e-05
1.42564e-06
-3.75697e-05
2.81684e-05
-4.40025e-06
-2.71455e-05
3.37999e-06
-5.51445e-06
6.68135e-06
-3.14858e-05
3.03183e-05
-2.82137e-05
-4.39478e-06
2.18325e-05
1.07752e-05
1.03863e-05
-9.83751e-06
-8.60229e-08
-4.6219e-07
-4.23866e-05
2.77052e-05
-1.63372e-06
1.63138e-05
-4.79671e-06
4.035e-06
7.61725e-07
1.39532e-05
-1.18934e-05
1.86056e-05
-2.06656e-05
1.95605e-05
1.64088e-05
-8.55313e-06
1.48767e-05
-4.00052e-05
-1.83842e-05
4.35137e-05
1.46083e-07
-1.50647e-05
1.5116e-05
-1.9763e-07
8.62415e-06
-1.39543e-05
-1.61202e-05
2.14506e-05
1.37704e-05
6.01061e-06
-2.3558e-06
-1.74251e-05
-4.12032e-06
9.65174e-07
5.23728e-06
-2.08256e-06
-4.97457e-06
6.04482e-05
-2.05698e-05
-3.49046e-05
1.61924e-05
1.84031e-05
-1.01087e-06
-3.35855e-05
1.37043e-07
2.91624e-06
-3.05237e-06
-8.20866e-07
5.38409e-06
3.3282e-05
-3.78476e-05
4.42572e-05
5.72672e-06
-2.17214e-05
-2.82615e-05
-1.05952e-06
5.45276e-06
-4.29455e-06
-9.8172e-08
1.31878e-05
-1.19094e-06
-1.43759e-05
2.3805e-06
-3.99579e-06
-1.26294e-05
6.50144e-06
1.01241e-05
-6.3061e-06
2.83709e-05
4.46751e-06
-2.65328e-05
3.22254e-05
-4.30976e-06
-3.50186e-05
7.10282e-06
-2.97266e-06
5.75528e-06
-2.78262e-06
2.45968e-06
-1.07989e-05
9.64542e-06
-1.30653e-06
6.63e-07
1.03917e-05
-1.09483e-05
-1.05769e-07
1.06199e-05
1.24489e-05
-1.45277e-06
-2.16155e-05
2.24535e-05
3.08852e-05
-2.11144e-05
-1.31001e-07
3.86575e-06
-3.7351e-06
-4.09378e-05
2.00471e-05
3.83971e-05
-1.75043e-05
3.99214e-05
7.0011e-06
-4.20696e-05
-4.85387e-06
2.954e-05
-1.98538e-05
-3.25522e-05
8.34095e-06
1.43276e-05
-3.56173e-05
-1.97879e-06
-7.72393e-06
4.53204e-05
-9.04425e-08
3.77672e-06
-3.68604e-06
3.94565e-05
-1.48067e-06
-4.63803e-06
-3.33394e-05
3.9814e-06
-3.97597e-06
-4.85452e-09
-1.22335e-05
3.01664e-06
-7.40061e-06
1.66171e-05
-2.1678e-05
-1.85425e-05
1.64841e-05
2.37359e-05
2.01445e-05
-1.53627e-05
-4.27414e-06
-5.08287e-07
-4.47328e-08
3.02724e-06
-2.98289e-06
-6.84732e-07
-3.95871e-06
1.64492e-08
4.62717e-06
7.45016e-06
2.98842e-06
-5.28278e-06
-5.15626e-06
-1.16117e-05
1.25883e-05
-1.66097e-06
-3.32329e-07
4.24059e-05
-1.153e-06
-4.09202e-05
-7.22439e-06
-7.14255e-07
9.4811e-06
-1.54159e-06
3.48156e-06
-1.37148e-05
1.07691e-05
-5.36029e-07
1.07881e-05
-2.01842e-05
1.4446e-05
-5.05004e-06
9.07023e-06
2.11362e-05
3.56733e-06
-3.37751e-05
5.45566e-06
-5.6009e-06
1.45473e-07
1.55724e-05
-1.26597e-05
-3.17849e-05
2.88709e-05
1.10945e-06
1.18448e-06
1.59504e-05
-1.82444e-05
4.49439e-06
1.9314e-05
-2.48754e-05
1.06454e-06
1.15284e-05
-5.33183e-07
-1.80123e-06
-9.19497e-06
1.11082e-05
2.325e-05
-3.40997e-05
-2.57159e-07
1.39445e-05
-1.03388e-07
-1.18754e-06
-1.26541e-05
-2.56729e-05
9.32754e-06
1.27944e-06
1.50654e-05
-1.27362e-05
-1.20966e-05
-1.70016e-06
9.71628e-06
-1.71071e-05
1.29057e-05
-5.51585e-06
-4.51724e-06
-1.88345e-05
-2.82174e-05
5.15682e-05
-6.09743e-06
7.53787e-06
-1.73815e-06
2.97769e-07
4.09342e-08
2.51937e-06
-2.5603e-06
-7.91788e-06
4.06941e-05
1.20496e-05
-4.4825e-05
3.2203e-05
1.35552e-05
-1.18916e-05
-3.38654e-05
2.76303e-05
-2.30519e-05
2.64123e-05
-3.099e-05
3.48366e-05
-3.83455e-05
4.25252e-06
-7.44969e-07
-5.97509e-05
2.61199e-05
1.14121e-05
2.22205e-05
-1.15719e-05
-1.44783e-06
1.2762e-05
2.57561e-07
3.53046e-05
-4.70122e-05
1.64969e-05
-4.7883e-06
1.0505e-05
-1.15131e-05
3.66061e-06
-2.65474e-06
-1.78839e-05
1.63006e-05
-1.11525e-05
-1.41121e-05
4.81108e-05
5.27165e-06
-3.9271e-05
-5.3384e-06
1.41517e-07
5.19682e-06
-4.76854e-06
1.08662e-05
-4.01457e-05
-1.97043e-05
-3.29658e-07
1.93654e-07
1.98407e-05
4.51972e-06
1.25969e-07
-4.64556e-06
8.54968e-06
-5.50447e-07
-3.03289e-05
2.23311e-05
-5.99071e-08
-2.00796e-07
1.05203e-05
-1.02607e-05
8.30451e-06
1.82125e-05
-3.03271e-05
3.80854e-06
2.85554e-05
1.93985e-06
1.86455e-06
-3.23586e-05
-2.61381e-06
6.5469e-06
3.89271e-05
-4.28594e-05
-8.70988e-06
-1.05726e-06
-3.65788e-07
1.01329e-05
-9.73595e-06
8.36908e-06
-3.3703e-05
3.50675e-05
-1.34766e-06
2.47015e-05
-2.15993e-05
-1.75371e-06
4.06586e-05
1.25176e-05
-1.85047e-05
-3.46708e-05
8.85547e-06
-4.78328e-05
3.1096e-05
-4.06828e-05
5.19624e-05
-2.27976e-06
2.25614e-05
-8.93862e-06
1.85802e-05
-1.33624e-05
-3.27514e-06
6.4533e-06
1.01839e-05
-7.04363e-06
7.303e-07
6.41363e-06
-1.01048e-07
-1.27858e-05
3.2545e-05
-2.28937e-05
3.13427e-06
-3.40022e-05
3.05493e-05
3.25532e-05
-2.90996e-05
-3.23675e-06
2.98277e-06
1.80786e-07
7.39548e-08
3.47396e-05
-5.05367e-05
-1.88788e-05
3.46772e-05
-4.73921e-05
-1.90824e-05
3.16379e-05
3.48349e-05
4.31693e-05
4.46205e-06
1.98122e-06
-4.96123e-05
3.69138e-05
-2.49303e-05
3.1185e-05
-3.78871e-05
-3.69237e-06
1.46779e-05
2.68999e-05
3.17812e-06
2.70084e-07
-3.44845e-06
4.04281e-05
-3.73102e-05
-1.26876e-05
9.57045e-06
-2.03006e-05
-7.15335e-06
5.9048e-06
2.15507e-05
1.56732e-05
2.75086e-05
-1.58741e-05
-2.7307e-05
6.86982e-06
2.16149e-05
-2.10333e-05
-7.45153e-06
4.51993e-07
-6.29413e-06
5.84169e-06
-1.89695e-05
-1.69794e-05
1.64391e-05
1.95097e-05
1.54498e-06
2.0049e-05
-4.62565e-06
-1.69684e-05
-3.42439e-05
3.42986e-05
-6.45307e-06
-3.00725e-06
4.15005e-05
-4.04866e-05
1.9933e-06
2.05707e-05
4.21502e-06
1.11611e-05
-3.59457e-05
-5.21863e-08
-2.19325e-06
2.24549e-06
-3.18788e-06
3.17546e-06
1.26346e-08
-2.73003e-05
-1.28128e-05
1.54857e-05
2.46251e-05
-3.4168e-05
-6.52244e-07
4.12865e-05
-6.46989e-06
-1.05284e-05
3.87727e-05
-3.99964e-05
1.17518e-05
-2.65499e-05
2.17627e-05
-9.81066e-06
1.45976e-05
3.58695e-07
2.06124e-05
-2.30677e-05
2.09651e-06
-3.63456e-05
8.02361e-06
2.38462e-05
4.47496e-06
2.47676e-06
4.97637e-05
-1.86879e-05
-3.3552e-05
2.16822e-06
-4.04124e-06
-2.48006e-05
-1.30039e-05
1.05038e-05
2.04988e-05
-1.29457e-06
3.37473e-06
-2.2579e-05
-1.95068e-06
-4.50847e-06
5.68646e-06
7.71884e-07
1.34252e-05
-4.07726e-06
-9.54761e-06
2.00008e-07
1.29792e-05
-4.4012e-05
4.2118e-05
-1.10876e-05
-1.67555e-05
2.95676e-05
4.37247e-06
-1.71836e-05
-3.52877e-06
4.28716e-06
2.79069e-05
-2.86652e-05
-3.74244e-05
2.79136e-06
3.73605e-07
3.42599e-05
-2.08552e-05
2.44321e-06
1.68206e-05
1.59202e-06
-2.77374e-05
1.71791e-05
3.94336e-05
-2.88759e-05
-1.41192e-05
-2.61655e-05
7.08745e-06
3.31982e-05
5.59781e-06
-4.33142e-05
-5.41442e-06
4.31323e-05
-3.32302e-05
4.33972e-06
-1.29263e-06
3.01834e-05
-3.54408e-05
-2.60866e-06
-2.27127e-06
4.03209e-05
7.43845e-06
-4.16129e-06
3.81687e-05
-4.1448e-05
6.89404e-06
-3.92642e-06
-7.72542e-09
-2.96061e-06
4.9855e-06
-5.14676e-05
-8.02499e-06
5.45069e-05
-3.95738e-06
2.50744e-06
2.03068e-06
-5.81392e-07
-2.87882e-05
-7.55593e-06
1.58101e-05
2.0534e-05
-1.40019e-06
1.37239e-05
2.58605e-06
-1.49095e-05
-1.31013e-05
-1.41998e-05
9.31127e-06
-6.10799e-06
2.44939e-06
3.15487e-05
-2.7891e-05
2.47833e-05
-3.40087e-05