/*--------------------------------*- C++ -*----------------------------------*\
| =========                 |                                                 |
| \\      /  F ield         | OpenFOAM: The Open Source CFD Toolbox           |
|  \\    /   O peration     | Version:  2406                                  |
|   \\  /    A nd           | Website:  www.openfoam.com                      |
|    \\/     M anipulation  |                                                 |
\*---------------------------------------------------------------------------*/
FoamFile
{
    version     2.0;
    format      ascii;
    arch        "LSB;label=32;scalar=64";
    class       volVectorField;
    location    "50";
    object      U;
}
// * * * * * * * * * * * * * * * * * * * * * * * * * * * * * * * * * * * * * //

dimensions      [0 1 -1 0 0 0 0];

internalField   nonuniform List<vector> 
59516
(
(0.103713 -0.000825415 -0.000497464)
(0.0958232 -0.000117709 -0.000385669)
(0.11138 -0.00073652 -0.000412054)
(0.128058 0.00134706 0.00192265)
(0.1137 0.000207404 -0.00456242)
(0.101091 -0.0048312 -0.0107985)
(0.127325 -0.00164191 -0.00206855)
(0.10033 0.000669474 -9.90283e-05)
(0.110853 0.00096232 -5.68943e-05)
(0.0525958 -0.00101658 0.00208175)
(0.154021 -0.000309428 -0.00239781)
(0.0598938 0.000238214 -0.00369891)
(0.117442 0.00115053 -2.87843e-05)
(0.0191804 -0.00010834 -0.000186395)
(0.0586857 0.00141782 0.00320399)
(0.0504472 0.00350305 -0.0016048)
(0.169361 -0.0021363 -0.00104634)
(0.0700396 0.00400362 -0.00436849)
(0.114402 0.00603269 0.000669103)
(0.165692 -0.00114685 -3.68792e-06)
(0.0538251 0.000906356 -0.00125856)
(0.148473 -0.000834138 0.000255544)
(0.154569 -0.000808429 -0.0022369)
(0.0323847 -0.000982842 -0.000255026)
(0.160927 -0.000507256 0.000564651)
(0.0637926 0.00141836 0.000637843)
(0.0403425 0.000814907 -0.00277105)
(0.0442713 0.00377687 0.000205006)
(0.0653797 0.00271485 -0.00056379)
(0.0167127 -0.00260717 0.000652323)
(0.108354 -0.0210423 -0.00463956)
(0.0455554 0.0036554 -0.000565063)
(0.132227 0.000208813 0.000818282)
(0.110876 -0.000918602 0.00216127)
(0.139419 0.00535248 0.00392657)
(0.145937 0.000242468 -0.000392513)
(0.0161503 -0.00157724 -0.00224742)
(0.0699372 0.00267804 -0.00675821)
(0.0950944 -0.00381305 -0.000355823)
(0.15964 -0.000264256 -0.000722613)
(0.0994199 -0.000610422 0.000182671)
(0.144027 -0.00852615 -0.00790196)
(0.148409 -0.00398726 -0.00326373)
(0.105332 -0.00068532 0.000360727)
(0.142659 -0.00519633 -0.000352436)
(0.0534416 -0.000743818 -0.00124322)
(0.132336 -0.00292773 -0.0043832)
(0.163391 -0.00501293 -0.000942808)
(0.111886 -0.00901343 0.0124017)
(0.151067 0.0067711 0.00536807)
(0.104054 0.0104765 -0.0145234)
(0.0423296 -0.00361436 0.00247431)
(0.118422 0.000958724 -0.00231754)
(0.125852 -0.000557211 0.000113848)
(0.0472747 0.00299322 1.47207e-06)
(0.129603 0.00293441 -0.000858818)
(0.144935 0.00829429 0.00856891)
(0.0450891 0.00386674 -0.00270946)
(0.17475 0.000340485 -0.000148678)
(0.135206 0.00640741 0.00810149)
(0.149312 -0.000447916 0.000217805)
(0.0182824 0.00228258 -0.000791617)
(0.167927 0.000609347 0.000531557)
(0.166509 0.00265452 0.00199342)
(0.120618 0.000212948 -0.000673088)
(0.147553 0.00378442 0.00542955)
(0.0247792 -0.00168004 0.00227151)
(0.0395404 0.000255005 -0.000214908)
(0.12152 -0.0050627 0.0222474)
(0.135648 0.00125463 -0.00325937)
(0.0353304 0.000982362 0.000290179)
(0.163679 0.00221189 -6.40855e-05)
(0.0221107 0.001384 -0.00337295)
(0.142695 0.00132483 0.000682003)
(0.182356 6.40355e-05 -0.000404188)
(0.158094 -0.00245106 -0.00300208)
(0.164139 -0.00261098 -0.00381043)
(0.148507 -0.000206547 0.000147227)
(0.0440786 -0.00147546 0.00138525)
(0.151703 0.0030951 0.00789023)
(0.0366713 0.0022364 0.00106318)
(0.146847 0.00413249 0.00621507)
(0.139694 0.00188058 0.00598338)
(0.0191244 -0.000726158 0.00267716)
(0.146675 0.00328346 0.00653721)
(0.176456 -0.000639118 0.000506949)
(0.0313058 -0.00113863 0.000492173)
(0.149834 -0.000168255 1.05689e-05)
(0.0527986 0.000684277 0.0021459)
(0.107128 0.00845565 -0.00581114)
(0.131536 -0.000881524 -0.0115085)
(0.139115 0.00163645 -0.000331172)
(0.174086 0.000229711 -0.000164522)
(0.137173 0.00119078 -0.000338084)
(0.162257 0.000327801 -9.3831e-06)
(0.109935 -0.0105527 0.00394476)
(0.139971 -0.000352607 0.000518607)
(0.0515722 -0.00184256 -0.00408073)
(0.0644117 0.00242288 -0.00103992)
(0.148243 -0.000868973 0.00165778)
(0.0362286 0.000572938 0.00137175)
(0.0233898 0.00120253 -0.00265718)
(0.0221086 0.00078411 0.00304568)
(0.0524192 -0.000802026 -0.00284229)
(0.134705 0.000730589 -0.000226097)
(0.147555 -0.000382345 -0.000189129)
(0.0381609 0.00335058 -0.00137488)
(0.103428 0.000334582 -0.000788396)
(0.0994337 -0.000681586 0.000173425)
(0.0639526 0.000401111 -0.00259074)
(0.12495 0.0129223 -0.0135661)
(0.0294797 0.00299079 -0.000452096)
(0.0647656 0.000818016 -0.00403209)
(0.11804 0.0174203 -0.00874671)
(0.160414 5.58767e-05 -2.92546e-05)
(0.0987471 0.00108311 0.00110992)
(0.0524318 0.00057779 -0.00197384)
(0.13269 -9.01571e-05 0.000761906)
(0.0210241 -0.000303114 0.00101453)
(0.146972 0.00120811 0.000331114)
(0.185442 -0.000288693 0.000323745)
(0.169407 -0.000386573 0.000619029)
(0.158611 -0.000274543 0.000880412)
(0.168018 -0.000522191 0.000548914)
(0.132381 -0.01783 0.00274229)
(0.0898721 0.00128615 -0.00301622)
(0.0285295 -0.000526072 0.00186643)
(0.138329 -0.0137435 -0.00113169)
(0.0898371 -0.00275816 0.0131411)
(0.180594 0.000478379 -4.89682e-05)
(0.183472 0.000243486 0.000100626)
(0.111386 0.00168082 0.00191842)
(0.0223514 0.0013233 -0.00153453)
(0.148026 -0.000134382 0.00061238)
(0.100243 0.00123296 0.000272967)
(0.114578 -0.000644206 -0.00207483)
(0.107488 0.0128142 -0.00897049)
(0.129018 -0.000392558 0.000357531)
(0.0379702 0.00262319 0.000121373)
(0.0974448 0.000460807 -0.00124148)
(0.0421727 -0.00084152 -0.00214939)
(0.184641 -0.00052991 0.000356071)
(0.0178919 0.000770315 0.00156001)
(0.1246 -0.0010573 -0.000525526)
(0.176953 0.0005684 0.000895607)
(0.141717 0.00187571 0.000325149)
(0.140348 -0.0053785 -0.00199429)
(0.117439 0.00170442 -0.00292195)
(0.0621276 -0.00100506 0.00173111)
(0.105744 -0.000681265 -0.000864201)
(0.102312 -0.000255776 -0.000828558)
(0.0334437 -0.00127647 2.31382e-05)
(0.167469 -0.000935461 0.00112719)
(0.154356 -0.000291581 0.000305494)
(0.0880267 -0.000241025 0.00211525)
(0.01785 -0.000341064 0.00192676)
(0.112109 -0.000306418 -0.000203209)
(0.11283 0.00143436 -0.000166035)
(0.0813797 0.00124072 0.000216266)
(0.0182969 0.0021917 -0.00238963)
(0.0627895 0.00153473 -0.00322391)
(0.0646878 -0.00352183 -0.0022169)
(0.0332778 -0.00136093 0.000325558)
(0.02391 -0.000205905 -0.000466927)
(0.0981763 0.00183214 0.00237114)
(0.174032 -5.28908e-06 0.00110022)
(0.0594345 -0.000744725 0.000364528)
(0.178987 0.000904006 2.55493e-05)
(0.0188399 -0.00117359 0.00216508)
(0.13643 -0.000579224 -8.61472e-05)
(0.082358 0.00134827 0.00114987)
(0.0499694 0.000750256 -0.000767367)
(0.061628 0.00158383 0.000781045)
(0.136301 -0.000365054 0.000534579)
(0.047908 -0.000737265 0.000234415)
(0.134921 -0.00161887 -0.00540453)
(0.170468 -0.000391189 -0.000959551)
(0.149502 -0.00571942 -0.00355204)
(0.0648082 -0.000792173 0.00302177)
(0.0388947 -0.000121152 -0.000535651)
(0.145986 0.0022316 0.000662121)
(0.0317449 -0.00280745 -0.00127763)
(0.0272699 -0.000331302 -0.00214534)
(0.0619211 -0.00156209 0.000180298)
(0.179467 0.000184533 0.00061816)
(0.0567193 0.000302602 0.000692199)
(0.0335863 -0.000549993 -0.00262537)
(0.0217214 1.69713e-05 0.000291927)
(0.120716 0.000157385 -8.04468e-05)
(0.0984019 -0.0017545 -0.000159289)
(0.13528 -0.000555195 0.00277665)
(0.0495399 0.00302474 -1.0331e-05)
(0.164312 -0.000841102 -8.7291e-05)
(0.0544009 0.00202382 6.69142e-05)
(0.154694 -6.7237e-05 -0.000368747)
(0.0280572 -0.000252228 0.000776069)
(0.0544593 0.000744556 -9.09004e-05)
(0.0385625 -0.0010726 0.000269244)
(0.108065 0.00285881 0.00360258)
(0.154268 0.000689694 -0.000526628)
(0.0787553 -0.00273833 0.000309645)
(0.184927 -0.000605356 0.000418506)
(0.100787 -0.000787712 0.000827289)
(0.0184189 0.00199595 -0.00135677)
(0.126693 -0.00105798 -0.000492801)
(0.145172 0.000329436 0.000267639)
(0.182203 0.000374459 4.18255e-05)
(0.154293 -0.00146588 -0.000539567)
(0.0217572 -0.000690494 0.000205772)
(0.112426 -0.00202608 -6.64114e-05)
(0.0482369 0.00340335 0.00302092)
(0.0236034 -0.00388718 -0.000638303)
(0.143432 0.000227087 -0.00144548)
(0.0532883 -0.00114621 0.000733464)
(0.114467 0.0014665 0.000122323)
(0.171332 -2.19056e-05 -0.00030546)
(0.13976 0.00127068 0.000411077)
(0.157441 -0.00144064 0.000441697)
(0.0517839 0.0020979 -0.00276222)
(0.156936 -0.00017747 0.000815932)
(0.0527234 0.00202873 0.00185697)
(0.103214 0.000345661 5.27318e-05)
(0.165238 0.000680898 0.000927754)
(0.0372718 -0.000174605 0.000634636)
(0.169851 -9.31436e-05 -0.000268078)
(0.172014 -0.000422348 -0.000627835)
(0.0267664 -0.000301036 0.0013602)
(0.0445302 0.00143424 -0.0021065)
(0.170981 0.000508226 0.000621794)
(0.0519161 0.000232584 -0.0039217)
(0.172774 -0.000597082 7.90988e-05)
(0.172922 0.000245136 -0.000396958)
(0.182813 0.0005536 0.000691318)
(0.0236182 -0.0018502 -0.00133333)
(0.0310781 0.000841874 -0.0014958)
(0.0323491 0.000859225 -0.00116854)
(0.0606995 0.000362082 0.000113006)
(0.094657 -0.00115341 0.000632762)
(0.156974 0.0010349 0.0012567)
(0.0548373 -0.00120613 0.00148399)
(0.184797 -0.000255473 0.000569256)
(0.0193317 0.000347833 0.00286454)
(0.0520579 4.00018e-05 0.000874263)
(0.0234078 0.000147767 0.00259012)
(0.181596 0.000688263 0.000457907)
(0.0902626 -0.00052757 -0.000227724)
(0.145873 0.00024636 0.000976461)
(0.0627412 0.000917254 -0.00140405)
(0.169787 8.07943e-05 -0.000474369)
(0.102788 0.00028944 0.000475965)
(0.165981 -0.000257911 0.000106632)
(0.140373 -2.0782e-05 0.00064724)
(0.185519 0.000314827 0.000681068)
(0.144748 0.000629207 -0.000802978)
(0.147103 0.0012128 0.00096557)
(0.158332 0.000115478 0.000784553)
(0.053271 5.67171e-05 -0.00025634)
(0.154008 0.000998267 0.00177091)
(0.0399091 -0.000393112 -0.00221482)
(0.0575659 0.000473941 0.00201461)
(0.129374 0.000811274 -0.00103954)
(0.162532 -0.000345445 0.000410529)
(0.113519 0.00307396 0.00154486)
(0.176744 0.000212004 0.000426047)
(0.0967941 0.000109371 0.00211098)
(0.0554557 0.0021499 -0.0015044)
(0.16021 -0.000137259 -0.00128692)
(0.0906394 0.00194225 0.000494656)
(0.0442227 -0.000734979 -0.000688605)
(0.0496337 0.000244743 -0.00142749)
(0.0959572 0.000997083 -0.00324026)
(0.172995 -0.000442481 -0.000213847)
(0.0965206 -0.00239515 3.0223e-05)
(0.0906282 -0.00140529 0.000937442)
(0.165435 -0.00103287 -0.000485015)
(0.0906909 -0.000593986 0.00238209)
(0.0201027 0.00241257 -0.00136503)
(0.162153 0.000290595 0.000856652)
(0.0242867 0.00156556 -0.00208914)
(0.0387108 -0.00158011 0.00106169)
(0.181558 0.000423995 0.000881267)
(0.139096 7.865e-05 -0.000389122)
(0.0240311 0.00258384 0.00257334)
(0.119626 0.000877692 0.000485303)
(0.123166 0.00244424 1.11711e-05)
(0.167744 -0.00113867 0.00180186)
(0.181221 -0.00062746 6.76402e-05)
(0.0229885 0.00272686 0.000505339)
(0.180452 0.000501232 0.000395588)
(0.184553 -0.000172638 0.000113726)
(0.173876 0.000163059 0.000736015)
(0.134812 0.00071463 0.000825745)
(0.137357 0.00109362 0.000705413)
(0.0937948 0.000502153 -0.000207305)
(0.172284 0.000866315 0.000237433)
(0.0269893 -0.000971308 -0.00124287)
(0.160856 -0.000382795 0.000518127)
(0.139138 -0.000533075 -0.000576575)
(0.18403 3.42714e-05 0.000311997)
(0.169766 0.000567983 0.000708228)
(0.115598 -0.000460438 0.000613695)
(0.0572406 0.000879169 0.00126488)
(0.0220196 -0.000333102 0.0015292)
(0.0272228 -0.000661683 0.000454449)
(0.164248 -0.00100226 -0.000888953)
(0.0196167 -0.0011444 0.00283187)
(0.0617077 -0.000341388 -0.00107622)
(0.0504198 0.00280313 0.0011195)
(0.168586 0.000667511 0.000837302)
(0.175117 -0.00044715 -0.000273649)
(0.15479 -8.40386e-05 -0.000752154)
(0.0571628 7.14681e-05 -0.00128832)
(0.101963 0.00156482 -0.00237313)
(0.0386515 -0.0032158 0.0026)
(0.054075 0.00128101 0.00111388)
(0.158319 0.000885355 1.33592e-05)
(0.0966013 0.00102508 -0.000937115)
(0.107735 0.0123565 0.00350633)
(0.0888272 -0.00188426 0.000918674)
(0.0413875 -0.000176096 -0.000395278)
(0.0623504 -0.000921565 0.00198647)
(0.106784 -0.000985947 -0.00163673)
(0.176971 -3.97372e-05 -0.000362176)
(0.183936 -0.000846115 0.000842311)
(0.184415 9.84547e-05 0.000965204)
(0.162432 -0.00123951 0.000376373)
(0.096942 0.00380053 0.00464025)
(0.126187 0.000680957 0.000826444)
(0.167437 0.000980749 0.00100956)
(0.16157 -0.000820339 0.000111)
(0.164278 -0.000755338 0.000741359)
(0.0551037 0.00117231 -0.00326784)
(0.0214755 -0.00141751 -0.00252623)
(0.150616 -0.00134473 0.000265333)
(0.0381716 -0.00184892 0.00209418)
(0.0304873 0.00011838 5.53612e-05)
(0.162053 0.000516402 0.001733)
(0.145651 -0.000268889 0.000447162)
(0.0596786 -0.00128817 -0.00300737)
(0.174334 -0.000789069 0.000397631)
(0.167438 -0.00108604 0.00044592)
(0.18352 -0.000761607 -0.000405684)
(0.175083 -0.00124675 -0.000323073)
(0.0315489 0.00150437 5.04106e-05)
(0.160118 -0.000157106 4.2014e-05)
(0.178045 -0.000855887 0.000736795)
(0.0560052 0.000101875 0.000809758)
(0.182186 2.6976e-05 0.00111435)
(0.17621 -0.00034786 0.000460411)
(0.130869 3.04488e-05 -0.00086601)
(0.122138 0.000197745 -0.000990946)
(0.152424 -0.00114451 0.00149864)
(0.143112 -0.00122964 0.000398473)
(0.068199 -0.000355293 -0.000174259)
(0.030635 0.00128362 -0.000988004)
(0.0337425 -0.0024884 -0.000178756)
(0.0931418 0.000470759 -0.000242397)
(0.0862482 -0.0067914 0.0106258)
(0.074606 -0.00420483 -0.0060845)
(0.0816073 0.0003761 0.000372221)
(0.113568 7.92083e-05 0.00204456)
(0.131007 0.000209835 0.000815142)
(0.15943 -0.00155343 0.00417256)
(0.157459 -0.000722187 0.000839425)
(0.131293 -0.000800233 -0.000406544)
(0.149144 -8.49764e-05 0.000610037)
(0.149701 0.000813914 0.000360394)
(0.0302102 -0.000934683 -0.000323616)
(0.11392 -0.0224705 0.00276235)
(0.0566185 0.00143882 0.000476277)
(0.0397771 -0.00177083 -0.000406525)
(0.0401132 0.000855023 0.000317674)
(0.162376 -0.000629932 -0.000402717)
(0.0924911 -0.000562977 -2.74504e-05)
(0.161319 0.000579665 -0.001206)
(0.0191178 0.00104046 -0.00164119)
(0.125666 -0.000408603 0.000316762)
(0.0429064 0.00101235 -0.000838442)
(0.166324 -0.0002678 -0.000105488)
(0.0463362 -0.000626339 -0.000481051)
(0.060307 -0.00143737 0.00116787)
(0.104372 -0.00276221 0.000821821)
(0.151944 -0.00118641 0.00113267)
(0.0187801 0.00149802 -0.0020294)
(0.0528399 -0.000590085 0.0022047)
(0.132669 -0.00022691 0.00057304)
(0.0223458 -0.00138879 -0.00178646)
(0.130826 0.00129892 0.00947685)
(0.11488 -0.00082355 0.00259572)
(0.131211 -0.000458947 -0.00207066)
(0.0930006 0.00205642 -0.0028556)
(0.086715 -0.00122825 0.00206881)
(0.162587 0.000554415 0.000135322)
(0.0771875 -0.00791193 -0.00718442)
(0.183974 0.00017133 8.41887e-05)
(0.111377 0.00863966 0.00903349)
(0.0577733 -0.00263522 0.000357378)
(0.0610527 -0.000418345 -0.00142163)
(0.18083 0.000162633 0.000246777)
(0.180374 0.00038373 0.000373456)
(0.0509257 -0.000509111 0.00061421)
(0.132647 0.000415281 -0.000598699)
(0.0961223 -0.000475123 -0.00225705)
(0.181239 0.000177107 0.000535931)
(0.180566 -0.000187768 0.000975208)
(0.0440702 0.00129303 -0.00334247)
(0.132054 -0.00110616 0.000156037)
(0.14542 -0.00179095 0.00160721)
(0.148047 0.000646723 -0.000533707)
(0.157127 0.00075479 0.00055929)
(0.020717 -0.000717871 -0.0026068)
(0.0202482 0.00100909 -0.00253998)
(0.125923 0.0011778 -0.00165099)
(0.177 -1.14866e-05 -6.07069e-05)
(0.182453 -0.00149885 -0.00060693)
(0.0332086 0.000347992 -0.00246184)
(0.170155 -0.00163776 0.000357913)
(0.105199 -0.00100987 -0.000791798)
(0.176634 -0.000245452 0.000271798)
(0.177662 8.05818e-05 0.000887541)
(0.18248 0.000356721 -0.000544386)
(0.174663 0.000625276 0.000670818)
(0.173586 0.00148375 0.00050725)
(0.0869465 0.000545194 0.000300506)
(0.18029 0.000643577 -0.000164379)
(0.0544852 -0.00104371 -0.00264278)
(0.168216 0.000181538 -0.000492488)
(0.107817 -0.000411802 -0.00106044)
(0.153886 0.000389198 0.00097199)
(0.176399 0.000181667 -0.00014202)
(0.149209 -0.000401916 0.000162227)
(0.144813 0.00015407 -0.00128309)
(0.0389079 0.00222634 0.00208349)
(0.0326316 0.000829818 0.000269782)
(0.020297 0.00176349 -0.00200991)
(0.153207 0.00421182 0.00753801)
(0.188233 -3.2063e-05 -0.000242052)
(0.139392 -0.000773252 0.000690559)
(0.125468 0.000923453 9.95778e-05)
(0.0296433 -9.41398e-05 0.00112058)
(0.0227136 -0.000365838 0.00260344)
(0.112843 -0.000565986 0.00167787)
(0.153318 -0.000103953 0.00145935)
(0.176865 -0.000494352 0.000778659)
(0.15475 0.000424625 0.000203697)
(0.134592 -0.00115042 -0.000824732)
(0.186879 0.000164589 0.000340946)
(0.13367 0.000706598 0.000963881)
(0.025389 -0.000514794 0.00238142)
(0.121515 -0.000199772 0.000822119)
(0.0555767 0.000528778 0.00289727)
(0.0704771 -0.00704523 0.00150954)
(0.154674 0.000253377 0.000551628)
(0.0914428 0.000534003 -7.61481e-05)
(0.146531 -0.000171211 0.000190721)
(0.0196981 -0.00370836 -0.00134921)
(0.180598 0.00042624 -0.000460636)
(0.181217 -0.000105499 -0.000308777)
(0.178943 0.00025235 0.000580569)
(0.0896766 0.000917159 9.42792e-05)
(0.153823 -0.000818194 0.00162083)
(0.174495 5.68694e-05 0.000709229)
(0.120262 0.000428278 0.000168722)
(0.182736 0.000738254 0.000191146)
(0.0977488 0.00404004 -0.0033601)
(0.172094 0.000446352 -0.000310767)
(0.148853 -0.00284359 -0.000454875)
(0.0196749 -0.00126337 0.00140829)
(0.180025 3.73679e-05 3.54776e-05)
(0.115506 0.00220267 7.42332e-05)
(0.0443301 -0.00128935 0.00366714)
(0.0891128 0.000832265 -0.00153872)
(0.168436 -5.32942e-06 -0.000172535)
(0.127691 -0.000423586 0.00103494)
(0.0823391 0.000213388 -0.0023375)
(0.0195204 -0.00178002 -0.00193847)
(0.175747 -0.000211018 -0.000241826)
(0.123479 0.0016563 -0.00184761)
(0.161593 -0.000431826 -0.000651968)
(0.122959 -9.67205e-06 0.000775938)
(0.0352657 0.00161688 0.00156902)
(0.140716 4.55668e-05 -0.000341031)
(0.0257611 0.00208281 -0.00331838)
(0.163668 0.000214982 -0.000793412)
(0.10228 0.0114 -0.00365163)
(0.169485 -0.00130015 -0.00073706)
(0.0495255 1.79518e-05 0.0017416)
(0.104237 -0.00120994 -0.00156171)
(0.0931607 0.000139452 -0.00121809)
(0.033271 0.00188854 0.00170697)
(0.18438 2.73235e-05 0.000351842)
(0.173526 -0.000255695 0.000721741)
(0.0208572 0.000721898 0.00203729)
(0.162796 5.98886e-05 0.000381555)
(0.183956 0.000439886 0.000621111)
(0.0354877 -8.32595e-05 -0.00213691)
(0.0592967 0.00262327 -7.39915e-05)
(0.0515842 0.00191426 0.00134375)
(0.154463 3.08489e-05 0.000654904)
(0.180163 6.2561e-05 0.000397054)
(0.0324297 -0.000865467 0.00148932)
(0.0515794 -0.00172115 -0.00057293)
(0.0543284 0.00108075 -8.90381e-05)
(0.113493 0.00152106 0.000387133)
(0.181769 0.00025139 0.000518686)
(0.0221721 0.00119887 -0.00289726)
(0.159946 -0.000540188 0.000781967)
(0.151897 0.00362474 -0.000562247)
(0.180585 -0.000464027 0.00107359)
(0.0900997 0.0038669 -0.00372736)
(0.169168 0.000603259 0.000284727)
(0.0216418 -0.000271042 -0.00236003)
(0.164936 -0.000777701 -0.000433157)
(0.0259392 -0.000390636 -4.87594e-05)
(0.0586274 -0.001619 0.000799786)
(0.15485 -0.00125839 0.000116403)
(0.0581486 -0.00173115 -0.000592304)
(0.0194741 0.0022754 0.0020191)
(0.035008 0.000686763 -0.0011095)
(0.0432093 -0.00232072 0.00157064)
(0.0562808 0.00112804 -0.00161062)
(0.146241 9.01619e-05 -0.00076341)
(0.0480991 -0.00110042 3.74451e-05)
(0.0568382 0.00184665 -0.000993974)
(0.128241 -0.00714211 -0.0137955)
(0.171215 4.98505e-05 0.000645395)
(0.0227291 0.00146144 0.000265032)
(0.104861 0.000316204 -0.00108453)
(0.0812718 0.00886433 -0.00350613)
(0.172473 -0.000444369 -0.000229801)
(0.0561922 -0.000108699 -0.00135371)
(0.167146 0.00016049 0.00122651)
(0.0549413 -0.00222518 -0.00163325)
(0.121805 0.000661413 0.000611727)
(0.178179 -8.14156e-05 -0.000749645)
(0.0485704 0.00216394 -0.00436218)
(0.176908 1.821e-06 -0.00013671)
(0.0475125 0.00224439 0.00241125)
(0.0181282 0.00276249 0.00103336)
(0.145988 0.000875497 -0.000463333)
(0.180333 -0.000153446 0.000182596)
(0.12852 0.00101809 -0.000459841)
(0.123751 0.00163783 -0.000767389)
(0.179924 -0.000867024 0.000103409)
(0.0582996 0.00170261 -0.000238571)
(0.168541 -0.000812036 0.000386708)
(0.0546768 -0.00173825 0.00236673)
(0.175949 0.000219216 0.000188964)
(0.12477 -0.0014353 -0.00134378)
(0.0265448 0.000679265 -0.00368844)
(0.153956 0.00078834 -0.000938802)
(0.0497184 4.59058e-05 0.00158835)
(0.0246518 -0.0017586 -0.00182776)
(0.148132 -0.00128878 -0.000435832)
(0.04117 -0.00117793 0.00104648)
(0.137257 0.000153727 1.24454e-05)
(0.180242 -0.000288154 0.00101052)
(0.130111 0.000323213 0.000234489)
(0.0514363 -0.00232035 -0.00251417)
(0.180622 0.00121729 0.000345754)
(0.0875061 -0.00134116 0.00121523)
(0.187059 0.000259961 8.32669e-05)
(0.18217 -0.000104429 0.000517812)
(0.181974 -1.19842e-05 0.000950148)
(0.17976 -0.000300296 -0.000208991)
(0.0419372 -0.00235642 -0.00198506)
(0.0492735 0.000290059 -0.000431138)
(0.178984 -0.000662506 -7.09227e-05)
(0.162813 0.000246288 0.00168227)
(0.0300187 -0.00216798 -0.000992147)
(0.162353 -0.00023655 0.000659351)
(0.181945 3.68487e-05 0.000318573)
(0.177707 -0.000536753 -0.000298974)
(0.182507 -0.00085613 -0.00019981)
(0.11403 9.07917e-06 -0.00175165)
(0.0202385 0.00205448 0.00176076)
(0.178743 0.000496731 -0.000204879)
(0.0979213 -0.000924772 -0.0011687)
(0.151902 0.000821565 0.00069897)
(0.0933368 0.000331336 -0.000120967)
(0.0275506 0.00195534 -0.000100745)
(0.181915 5.755e-05 0.000638847)
(0.0889965 0.00230737 0.00236518)
(0.131664 -3.04717e-05 0.000237151)
(0.184792 -0.000539597 1.43361e-05)
(0.140738 -0.0015812 -0.000168233)
(0.0163077 0.00150257 -0.00191604)
(0.0207284 -0.00128445 -0.00201927)
(0.17722 0.00037843 0.000212082)
(0.169579 -0.00117857 -0.000777805)
(0.185048 0.000376551 0.00109131)
(0.152943 -0.000439974 0.00131713)
(0.0895047 -0.00137666 0.000566078)
(0.149438 -0.00102521 -0.000603353)
(0.176746 0.000232701 0.000818254)
(0.0189967 0.00167851 0.000402509)
(0.179219 0.000471914 0.000546839)
(0.135002 -0.015114 -0.00043274)
(0.0351819 -0.000582763 0.00187452)
(0.0522001 -0.00334186 0.000839073)
(0.143515 -0.000133902 -0.000915019)
(0.139996 -0.00164653 0.00103683)
(0.136823 0.000458612 -0.000150155)
(0.121942 -0.000703113 0.000664496)
(0.102245 -0.00351378 0.00114469)
(0.183856 8.21919e-05 3.58667e-05)
(0.0952919 0.000895389 -0.00292318)
(0.176844 0.00059543 -0.000168122)
(0.17276 0.00104295 4.91684e-05)
(0.186898 -0.000331495 0.000199671)
(0.175983 -0.000381284 0.00020394)
(0.0378148 -0.000344032 0.00187753)
(0.164548 -0.000362854 3.47719e-05)
(0.0305705 0.000937769 -0.00125222)
(0.0944287 -0.00919794 0.00542552)
(0.0572151 0.00185679 0.00149364)
(0.127254 -0.00253615 -0.0130654)
(0.129162 -0.000676384 -0.000736175)
(0.117464 -0.0190725 -0.00424498)
(0.171691 0.000306969 -0.000493909)
(0.176809 -0.000528406 -0.00029782)
(0.154497 0.0011953 -4.09726e-05)
(0.172473 -0.000401308 0.00072839)
(0.0314265 0.000248577 -0.000561497)
(0.100941 -0.00379157 -0.00254332)
(0.112493 -0.00210087 -0.0160226)
(0.177667 0.000252595 0.000193512)
(0.109934 -0.00226143 -0.000599872)
(0.136926 -0.0135308 -0.00475227)
(0.157104 -0.0038708 0.00451222)
(0.108624 0.000857737 0.00089349)
(0.032924 -0.000665137 0.00118915)
(0.0510953 -0.00251504 0.00139827)
(0.0227431 0.000102669 -0.000213225)
(0.021564 0.000168007 -0.00164962)
(0.0322508 -6.93398e-05 0.000156038)
(0.13361 -0.00961385 0.00553579)
(0.13805 -0.000565737 0.000852756)
(0.0218904 -0.000769365 0.00303912)
(0.0207466 0.00148946 0.00228861)
(0.185575 0.000232111 -0.000156919)
(0.0961376 -0.0126307 0.00857877)
(0.0347414 0.00150625 0.000555782)
(0.147563 0.00020052 -0.000578319)
(0.103193 -0.00113081 -0.00143042)
(0.133274 0.000224258 0.00123915)
(0.0389977 0.00203933 -0.00110448)
(0.051329 0.0015908 -0.000618072)
(0.109082 -0.00122625 5.0772e-05)
(0.170909 6.32638e-05 -0.000859196)
(0.152332 -5.20589e-05 -0.000802043)
(0.0330864 0.00274586 -0.000944687)
(0.0222082 -0.00173617 0.0010546)
(0.106234 -0.0151819 -0.0112673)
(0.0237295 -0.00309133 0.000132528)
(0.133461 -0.000817718 -0.0010248)
(0.0250197 0.00139614 -0.00310769)
(0.10169 -0.000453638 0.00213481)
(0.177388 -0.00103084 -5.99404e-05)
(0.177992 -0.000368493 0.00118704)
(0.0406343 0.000607023 -0.000784942)
(0.0956313 -0.000277457 -0.00102167)
(0.0326319 0.0011943 -0.00136465)
(0.0257216 0.00303867 -0.00110958)
(0.178276 -0.000507395 -0.000604089)
(0.0175251 -0.0014871 -0.00225488)
(0.166373 -0.000428851 -0.00065079)
(0.044575 0.00100309 -0.00210424)
(0.155702 -0.00126945 -0.000230362)
(0.140981 -0.000720091 -0.000170462)
(0.0200879 -0.000533021 0.00319366)
(0.0532625 -0.00263447 0.000234994)
(0.148705 0.000411522 0.000631319)
(0.0316064 -0.00153876 4.2584e-05)
(0.160474 -7.94724e-05 -0.000542327)
(0.0503361 -0.00201751 0.00314401)
(0.105596 0.000263265 -1.31413e-05)
(0.181889 -0.000689573 -0.000168923)
(0.0334864 0.000996626 0.000711074)
(0.021735 0.00092667 -0.00281296)
(0.046893 0.000919872 -0.000400541)
(0.110795 0.0173872 0.00373692)
(0.101639 0.000363091 0.000443619)
(0.0523563 -0.00243128 0.00253366)
(0.0815155 0.00034413 0.00116983)
(0.0280896 -0.00107333 0.00066954)
(0.182966 -0.000829859 -0.0004667)
(0.0215926 -0.000340452 -0.00162674)
(0.170029 -0.000466552 -0.000635161)
(0.144325 4.07316e-05 0.000142522)
(0.168071 0.000163823 -0.000463549)
(0.0178394 0.00177851 6.00105e-05)
(0.150876 0.000100459 0.000487791)
(0.0797699 0.000841556 0.000211133)
(0.157648 1.52135e-05 6.23758e-05)
(0.0508809 -0.000553449 -0.000221459)
(0.108165 -0.013013 0.00668937)
(0.160181 -0.00131554 -0.00046475)
(0.03665 0.000437558 -0.000434967)
(0.186453 0.000444163 0.00033858)
(0.108869 0.00201202 -0.020501)
(0.116081 0.000312344 -0.000826246)
(0.0303237 0.000786104 -0.0016732)
(0.0468719 -0.000454186 -0.00252269)
(0.180972 -0.000287954 -0.000182403)
(0.131062 0.00128481 0.00050234)
(0.0295748 0.00149281 0.00059492)
(0.107753 0.00137019 -0.00167452)
(0.0569481 -0.000507801 -0.00173655)
(0.0224526 -0.00195548 0.00132345)
(0.17849 -6.24774e-05 -0.000475813)
(0.103343 -0.001284 0.0100369)
(0.12951 0.0013895 -0.00192777)
(0.17312 -0.000507581 -8.63093e-05)
(0.176631 -0.00036429 0.000637786)
(0.1691 -0.000442244 -1.03244e-05)
(0.131392 0.000763624 -0.000191708)
(0.0402109 0.00104889 0.000346974)
(0.0368923 -0.00180526 -0.0017831)
(0.180902 9.41668e-05 0.000568001)
(0.107583 -0.00939054 0.00872797)
(0.119719 -0.00110043 0.000508316)
(0.126747 -0.00170482 0.000862989)
(0.0781463 0.0018679 0.000837671)
(0.147778 -0.000381645 0.00141363)
(0.163387 -0.000505499 -0.000981422)
(0.0964562 -0.000316084 -0.00129465)
(0.101522 0.00185128 0.000447884)
(0.0356027 0.000490785 -0.00227798)
(0.0683594 0.000508602 -0.00035583)
(0.0399565 -0.00103335 -0.00299065)
(0.151334 -0.000902031 0.00099063)
(0.174635 -0.000301038 -0.000250982)
(0.0910755 0.00176063 -0.00213523)
(0.0957714 0.000764674 -0.000597859)
(0.0193437 0.00199873 -0.000400982)
(0.0761659 -0.000352037 -0.000676016)
(0.0545765 -0.00185155 -0.00233598)
(0.175734 -0.00017887 -0.00101953)
(0.17749 -0.00118 -0.000402056)
(0.104823 -0.00956899 0.0060545)
(0.162772 -0.000404581 0.00117437)
(0.0786153 -0.00230346 -0.00189833)
(0.101708 -0.0025502 0.00794095)
(0.132018 -0.0015613 0.00177303)
(0.0240011 -0.00185032 -0.000161713)
(0.177526 -0.000909169 9.82774e-05)
(0.0466927 0.00131557 -6.70523e-05)
(0.138838 -0.000286408 0.00134664)
(0.0261804 0.00373607 -0.000282515)
(0.174761 0.000157357 -0.00070896)
(0.101647 -0.0043308 0.00266475)
(0.157888 -0.0005679 -0.000311008)
(0.1133 0.000390876 0.000524133)
(0.146105 -5.94296e-05 0.000768488)
(0.149418 0.0011996 0.000326438)
(0.183995 0.00069675 0.00026155)
(0.032044 -0.00193527 -2.27264e-05)
(0.0443018 0.00060654 -0.000951462)
(0.0267617 -0.00070296 -0.000223295)
(0.176152 -0.000296166 0.000675273)
(0.156975 0.000320486 -0.000580138)
(0.135553 0.00169741 -0.000225177)
(0.159552 0.000605315 -0.00136474)
(0.0194199 0.000352091 0.000506404)
(0.0954698 -0.00022265 -0.000229746)
(0.0863155 0.000964999 -0.00185555)
(0.175735 -0.000209245 -0.00049362)
(0.125295 -0.000876689 -0.000281012)
(0.145148 -3.74843e-05 -0.000567752)
(0.103561 -0.000312705 0.00131892)
(0.179854 -0.000154193 -0.000173315)
(0.019134 -0.00221179 -0.00232603)
(0.0822938 -0.00335907 0.000449706)
(0.152207 -0.000345233 0.000468032)
(0.0240669 -0.00217929 0.00186921)
(0.0418501 -0.000756734 -0.00196613)
(0.0586669 -0.000975474 0.000630568)
(0.019947 0.00123262 -0.00211189)
(0.09206 0.000492489 -0.00130449)
(0.169153 0.000284615 -0.00015928)
(0.0569358 -0.00168733 -0.0015532)
(0.0177164 -0.00229664 -0.00167387)
(0.101708 0.000413958 -0.000791235)
(0.0239553 0.000155297 0.000359041)
(0.0958089 0.0012128 -0.000695908)
(0.173528 0.000155129 8.2181e-05)
(0.185463 -9.766e-05 -0.000239534)
(0.172974 -0.000250375 -0.00014034)
(0.164105 0.000843401 -6.08059e-05)
(0.174654 -0.000123005 5.90698e-05)
(0.128479 0.000586023 0.00201924)
(0.0437277 0.000857118 -0.00110666)
(0.175332 0.000527302 0.000574602)
(0.122225 -0.000301446 0.000960395)
(0.0851393 0.000534932 -0.00165087)
(0.0934939 -0.0009469 0.0013407)
(0.163466 -0.000149135 0.000262901)
(0.113332 -0.00123415 -0.00066545)
(0.0622858 6.30758e-05 0.00165446)
(0.154449 0.00082283 0.00130845)
(0.0311401 0.0011433 0.000513235)
(0.0844167 3.76215e-05 0.000667026)
(0.0935601 -0.000288751 0.000197256)
(0.0579223 0.000341171 0.000972394)
(0.160495 3.65812e-06 -7.39342e-05)
(0.106003 -0.0126025 0.0134363)
(0.127199 0.00808685 0.00529125)
(0.0304279 0.000569752 -0.00263697)
(0.0246192 -0.00157069 0.000800111)
(0.0531647 0.001991 -0.00104355)
(0.0190788 -0.00122881 -0.00152826)
(0.124783 0.000625682 -0.000625987)
(0.153846 0.00072639 -0.000890274)
(0.127347 0.00170218 0.000269939)
(0.110217 0.0100984 -0.0115883)
(0.132748 -0.000151155 0.000319277)
(0.146485 0.00041641 -0.000627596)
(0.0234893 -0.00195542 0.00450138)
(0.157172 0.000697774 -0.000139938)
(0.127579 -0.00406898 0.0125397)
(0.0414494 0.000756948 -0.00106467)
(0.0205734 -0.00345877 0.000676299)
(0.113063 0.000351529 0.000555971)
(0.106311 -0.00132428 -0.000662896)
(0.0240763 -0.00166357 0.00270931)
(0.162829 -0.000480753 -0.000718449)
(0.0216238 -0.00233976 0.0017453)