/*--------------------------------*- C++ -*----------------------------------*\
| =========                 |                                                 |
| \\      /  F ield         | OpenFOAM: The Open Source CFD Toolbox           |
|  \\    /   O peration     | Version:  2406                                  |
|   \\  /    A nd           | Website:  www.openfoam.com                      |
|    \\/     M anipulation  |                                                 |
\*---------------------------------------------------------------------------*/
FoamFile
{
    version     2.0;
    format      ascii;
    arch        "LSB;label=32;scalar=64";
    class       volVectorField;
    location    "50";
    object      U:Transformed;
}
// * * * * * * * * * * * * * * * * * * * * * * * * * * * * * * * * * * * * * //

dimensions      [0 1 -1 0 0 0 0];

internalField   nonuniform List<vector> 
59516
(
(-0.000752388 -0.00060224 0.103713)
(0.000328812 -0.000233407 0.0958232)
(-0.000444842 0.000717193 0.11138)
(-0.00230586 -0.000440653 0.128058)
(-0.00455703 0.000303553 0.1137)
(-0.0104431 0.0055579 0.101091)
(-0.00213522 -0.00155422 0.127325)
(-0.000309483 -0.000601849 0.10033)
(-0.000947719 0.000176426 0.110853)
(0.00205388 0.00107178 0.0525958)
(-0.0024025 -0.000270682 0.154021)
(-0.00295575 -0.00223656 0.0598938)
(-0.000923974 -0.000686159 0.117442)
(7.0873e-05 -0.000203611 0.0191804)
(0.000199485 -0.00349799 0.0586857)
(-0.0014269 0.0035792 0.0504472)
(-0.00233257 -0.000466607 0.169361)
(-0.00571033 -0.00158265 0.0700396)
(-0.00594082 -0.00124411 0.114402)
(-0.000983216 0.000590386 0.165692)
(-0.00140565 0.000655446 0.0538251)
(0.000383724 0.000783483 0.148473)
(-0.00228009 -0.000677088 0.154569)
(0.000851886 0.000552545 0.0323847)
(0.00017026 0.000739696 0.160927)
(-0.000193107 0.00154315 0.0637926)
(-0.000511973 0.00284265 0.0403425)
(-0.00347851 -0.00148552 0.0442713)
(-0.00262444 -0.000894729 0.0653797)
(0.00208502 0.00169574 0.0167127)
(-0.0215141 0.00120405 0.108354)
(-0.00293947 0.00224516 0.0455554)
(-0.000786977 -0.000306357 0.132227)
(-0.00207922 -0.00109167 0.110876)
(-0.00663789 -7.31791e-05 0.139419)
(-0.000446961 0.000114383 0.145937)
(-0.00243119 0.00127589 0.0161503)
(-0.00692869 -0.00219965 0.0699372)
(-0.00380656 0.000419547 0.0950944)
(0.000374634 0.00067205 0.15964)
(5.14276e-06 -0.000637148 0.0994199)
(-0.0116248 -1.05353e-05 0.144027)
(-0.00505724 0.00098718 0.148409)
(-0.000665123 0.000396736 0.105332)
(-0.00515143 0.000767344 0.142659)
(0.00139667 0.000384949 0.0534416)
(-0.00526913 0.000142649 0.132336)
(-0.00505456 0.000685358 0.163391)
(-0.0152686 0.00138383 0.111886)
(-0.00863716 0.000251984 0.151067)
(-0.0179001 0.000520478 0.104054)
(-0.00395293 -0.00188684 0.0423296)
(0.000303478 -0.00248959 0.118422)
(-0.000324311 0.000467192 0.125852)
(-0.00290341 0.000727734 0.0472747)
(-0.00301752 0.000492885 0.129603)
(-0.0119256 2.54892e-05 0.144935)
(-0.00442228 -0.00165416 0.0450891)
(-0.00030958 -0.000205416 0.17475)
(-0.0103224 -0.000371685 0.135206)
(-0.000215419 0.000449068 0.149312)
(-0.00142009 0.00195453 0.0182824)
(-0.00076028 0.000275375 0.167927)
(-0.00331967 2.59378e-06 0.166509)
(-0.000519958 0.000477534 0.120618)
(-0.00661753 0.000100373 0.147553)
(0.00019601 0.00281849 0.0247792)
(-0.000139257 0.000303019 0.0395404)
(-0.0228131 0.000377779 0.12152)
(-0.00338533 -0.000858575 0.135648)
(-0.000601198 -0.000829337 0.0353304)
(-0.00204113 -0.000854629 0.163679)
(0.00338139 -0.00136325 0.0221107)
(-0.00142796 -0.000425724 0.142695)
(-2.74511e-05 -0.000408308 0.182356)
(-0.00386931 0.000220601 0.158094)
(-0.00461686 0.00014548 0.164139)
(0.000231659 0.000103302 0.148507)
(0.00177982 0.000963409 0.0440786)
(-0.00844442 0.000726038 0.151703)
(-0.00247621 1.4439e-05 0.0366713)
(-0.00745193 0.000416269 0.146847)
(-0.0062601 0.000385512 0.139694)
(-0.00243795 0.00132321 0.0191244)
(-0.00727391 0.000778757 0.146675)
(-0.000233083 0.000781756 0.176456)
(0.00060664 0.00108199 0.0313058)
(-0.000108803 0.000128776 0.149834)
(-0.00199162 -0.00105193 0.0527986)
(-0.00995549 -0.00248109 0.107128)
(-0.0115422 -2.42303e-05 0.131536)
(-0.00110865 0.00124841 0.139115)
(-0.000281588 -2.32969e-05 0.174086)
(-0.00011404 0.00123258 0.137173)
(-0.000193928 0.000264449 0.162257)
(-0.0112657 -6.85315e-05 0.109935)
(-0.000494103 -0.000386197 0.139971)
(0.0020889 0.00396028 0.0515722)
(-0.00244502 -0.000986747 0.0644117)
(0.00149475 0.00112654 0.148243)
(-0.00120406 0.000871897 0.0362286)
(0.00258777 0.00134541 0.0233898)
(0.0027846 0.00146186 0.0221086)
(-0.00194578 0.00222166 0.0524192)
(0.000761945 -6.57313e-05 0.134705)
(-2.79969e-05 -0.000425645 0.147555)
(0.00178944 -0.00314874 0.0381609)
(-0.000751723 -0.000410396 0.103428)
(-0.000257399 0.000654508 0.0994337)
(-0.00140364 0.00221419 0.0639526)
(-0.0187342 -0.000235745 0.12495)
(0.00220865 -0.00206666 0.0294797)
(-0.00252234 0.00325034 0.0647656)
(-0.0194928 -4.74089e-05 0.11804)
(6.19589e-05 -1.1795e-05 0.160414)
(0.00101277 -0.00117446 0.0987471)
(-0.00173757 -0.00110034 0.0524318)
(-0.000381758 -0.000665499 0.13269)
(-0.000376479 -0.000989655 0.0210241)
(-0.000847925 0.000922057 0.146972)
(0.000431225 4.68993e-05 0.185442)
(-0.000485214 0.000545164 0.169407)
(0.000825841 0.000410469 0.158611)
(-0.000648432 0.000391824 0.168018)
(-0.0180024 0.00115997 0.132381)
(-0.00327708 0.000111621 0.0898721)
(-0.00175441 -0.000826051 0.0285295)
(-0.0136319 0.00208269 0.138329)
(-0.0130703 0.00307629 0.0898371)
(0.000397402 -0.000270769 0.180594)
(4.49708e-05 -0.000259593 0.183472)
(0.00162589 0.00196519 0.111386)
(-0.000511201 -0.00196076 0.0223514)
(0.00027477 0.000563532 0.148026)
(0.00121637 0.000339361 0.100243)
(-0.00192784 0.00100166 0.114578)
(-0.0155786 0.00140772 0.107488)
(0.000158041 0.000506905 0.129018)
(-0.000363189 0.00260076 0.0379702)
(-0.000998479 0.000869854 0.0974448)
(-0.000975748 0.00209188 0.0421727)
(-0.000483985 -0.000416353 0.184641)
(-0.000842674 -0.00152214 0.0178919)
(-0.000488548 0.00107488 0.1246)
(-0.00104181 0.000199569 0.176953)
(-0.00177486 0.000688393 0.141717)
(-0.00557254 0.00136097 0.140348)
(-0.00314257 0.00125185 0.117439)
(0.000947093 -0.0017635 0.0621276)
(-0.000227534 0.00107666 0.105744)
(-0.000166761 -0.000850953 0.102312)
(0.000162771 0.00126626 0.0334437)
(0.00102895 0.00104255 0.167469)
(0.000379636 0.000184992 0.154356)
(-0.000744688 -0.00199444 0.0880267)
(-0.0016749 0.00101165 0.01785)
(-0.000252004 -0.000267731 0.112109)
(-0.00123503 0.000748102 0.11283)
(-0.0011418 0.000531465 0.0813797)
(-0.0026437 -0.00187743 0.0182969)
(0.00264795 0.00239528 0.0627895)
(0.0036135 -0.00206411 0.0646878)
(-0.000586747 0.00127037 0.0332778)
(-0.000227529 -0.00045678 0.02391)
(0.00299549 7.78259e-05 0.0981763)
(-0.00106453 0.000278009 0.174032)
(0.00082844 -3.44014e-05 0.0594345)
(-0.000817351 -0.000387062 0.178987)
(0.00110918 0.00219877 0.0188399)
(2.29787e-05 -0.000585144 0.13643)
(-0.00136947 -0.00112455 0.082358)
(-0.000859064 0.000643231 0.0499694)
(-7.6583e-05 -0.00176428 0.061628)
(0.000260967 -0.000592398 0.136301)
(0.000438654 0.000637254 0.047908)
(-0.00561548 -0.000544065 0.134921)
(-0.000928658 0.00045974 0.170468)
(-0.00670749 0.000581648 0.149502)
(0.000389216 -0.00309954 0.0648082)
(0.000449792 0.000315099 0.0388947)
(-0.00128713 -0.00193953 0.145986)
(0.000855257 0.00296356 0.0317449)
(-0.000963376 -0.00194529 0.0272699)
(0.00056395 0.00146785 0.0619211)
(4.52574e-05 -0.000643526 0.179467)
(-0.000371799 0.000657626 0.0567193)
(-0.00263153 0.000519752 0.0335863)
(0.000141451 0.000255932 0.0217214)
(-0.000155182 8.46183e-05 0.120716)
(0.00153992 0.000855737 0.0984019)
(-0.00282266 -0.000224972 0.13528)
(-0.000915455 -0.0028829 0.0495399)
(-0.000747436 -0.000395489 0.164312)
(0.00155961 -0.00129148 0.0544009)
(-0.000371965 -4.62246e-05 0.154694)
(0.000401785 0.000710261 0.0280572)
(0.000718427 0.000215616 0.0544593)
(0.000307456 -0.00106228 0.0385625)
(-0.00459664 -0.000149197 0.108065)
(0.000497428 -0.000711042 0.154268)
(-0.00164315 -0.00221233 0.0787553)
(-0.00062958 -0.000381095 0.184927)
(0.000153146 0.00113201 0.100787)
(0.00156552 -0.0018368 0.0184189)
(0.000781575 0.000866781 0.126693)
(-0.000277867 -0.000320857 0.145172)
(-7.27867e-05 -0.000369691 0.182203)
(0.00122104 -0.000974168 0.154293)
(0.000214649 -0.000687787 0.0217572)
(0.0017782 0.000973361 0.112426)
(-0.000498787 0.00452327 0.0482369)
(-0.0038582 0.000794937 0.0236034)
(-0.000973498 0.00109237 0.143432)
(-0.000311287 0.00132472 0.0532883)
(-0.000834675 -0.00121198 0.114467)
(0.000240397 -0.000189723 0.171332)
(-0.0012592 0.000444991 0.13976)
(-0.00121779 0.000887432 0.157441)
(-0.0016601 0.00304551 0.0517839)
(0.00083175 -7.37002e-05 0.156936)
(-0.000928095 -0.00258896 0.0527234)
(-0.000224777 0.000267839 0.103214)
(-0.000749596 -0.000873187 0.165238)
(0.000388245 -0.000531522 0.0372718)
(0.000129349 -0.000252607 0.169851)
(0.000747819 0.000115419 0.172014)
(-0.000956774 -0.0010126 0.0267664)
(-0.00248448 0.000567218 0.0445302)
(0.000201288 0.000777435 0.170981)
(-0.00201194 0.00337431 0.0519161)
(0.000159556 0.00058078 0.172774)
(-0.000346759 0.00031213 0.172922)
(-0.000771754 -0.000434499 0.182813)
(-0.00115078 -0.00196895 0.0236182)
(-0.00128082 -0.00114266 0.0310781)
(-0.00145043 -1.86202e-07 0.0323491)
(2.26251e-05 -0.000378632 0.0606995)
(-0.00129419 -0.000236256 0.094657)
(-0.00157596 0.000408256 0.156974)
(0.00188898 -0.000297898 0.0548373)
(0.000509536 0.000360129 0.184797)
(0.00235471 0.00166791 0.0193317)
(0.000703338 0.000520818 0.0520579)
(0.00221213 0.00135538 0.0234078)
(0.000742061 0.000364322 0.181596)
(-0.000385885 -0.000425772 0.0902626)
(-0.000977485 0.000242267 0.145873)
(-0.00075448 0.00149782 0.0627412)
(-0.000437949 -0.000199386 0.169787)
(-0.000477771 -0.000286449 0.102788)
(0.000266344 -8.33634e-05 0.165981)
(-0.000642671 7.95339e-05 0.140373)
(0.000704969 0.000256881 0.185519)
(0.000317085 0.000969604 0.144748)
(-0.000771668 0.00134452 0.147103)
(-0.000543532 0.000577435 0.158332)
(-0.000257674 5.03142e-05 0.053271)
(-0.00198725 0.000428333 0.154008)
(0.00119405 0.00190636 0.0399091)
(-0.000272794 0.00205155 0.0575659)
(-0.00114047 0.000661927 0.129374)
(-0.000242753 0.000478474 0.162532)
(0.00336096 0.00073471 0.113519)
(0.000381525 0.00028443 0.176744)
(0.00211323 4.96892e-05 0.0967941)
(-5.90437e-05 -0.00262332 0.0554557)
(-0.000608213 -0.0011424 0.16021)
(0.00200075 0.000118509 0.0906394)
(-0.000529899 -0.000856492 0.0442227)
(-0.000466656 0.00137108 0.0496337)
(-0.0025025 0.00228713 0.0959572)
(-0.000384469 -0.00030611 0.172995)
(-0.00150597 0.00186271 0.0965206)
(-0.000707949 0.00153377 0.0906282)
(-0.00109178 -0.000331792 0.165435)
(3.62645e-05 0.00245476 0.0906909)
(-0.00117308 -0.00251151 0.0201027)
(0.000783537 0.00045207 0.162153)
(0.00206703 -0.00159463 0.0242867)
(0.00169455 0.000867426 0.0387108)
(-0.000919118 -0.000334104 0.181558)
(-0.000383649 -0.000102053 0.139096)
(-0.00322978 0.00169318 0.0240311)
(-0.000109473 -0.000996934 0.119626)
(-0.00125245 -0.002099 0.123166)
(-0.00208448 0.000445231 0.167744)
(0.000467673 -0.000423749 0.181221)
(0.00193789 -0.00198387 0.0229885)
(9.61862e-05 0.000631246 0.180452)
(-0.000180002 -0.00010167 0.184553)
(-0.000444449 -0.000608909 0.173876)
(-0.00103689 0.00034266 0.134812)
(-0.00105938 0.000755864 0.137357)
(-0.000353918 -0.000412159 0.0937948)
(0.000159066 -0.000884067 0.172284)
(1.91088e-06 0.00157739 0.0269893)
(-8.5206e-05 -0.000638536 0.160856)
(0.000429752 0.000657207 0.139138)
(-0.000313535 1.45771e-05 0.18403)
(-0.000826199 0.000376281 0.169766)
(0.000424206 -0.000639276 0.115598)
(0.000993985 -0.0011768 0.0572406)
(-0.000670309 -0.00141425 0.0220196)
(0.000684761 0.000418868 0.0272228)
(-0.00131401 0.000261059 0.164248)
(-0.00283044 0.00114794 0.0196167)
(-0.000818944 -0.000777254 0.0617077)
(-0.000957597 0.00286249 0.0504198)
(-0.000641577 -0.000857335 0.168586)
(-0.000524238 -1.30971e-06 0.175117)
(-0.000413293 0.000634025 0.15479)
(0.00105601 0.000741439 0.0571628)
(0.00284259 9.47333e-06 0.101963)
(5.34553e-05 0.00413504 0.0386515)
(0.000277138 -0.00167478 0.054075)
(-0.000292299 0.000835819 0.158319)
(0.000404401 -0.0013287 0.0966013)
(-0.0127526 -0.00153301 0.107735)
(0.000230456 -0.00208357 0.0888272)
(-0.000429324 -5.41801e-05 0.0413875)
(0.00218448 -0.000152879 0.0623504)
(-0.000726738 -0.00176715 0.106784)
(-0.000355778 -7.85631e-05 0.176971)
(0.000427373 -0.00111479 0.183936)
(-0.000636885 0.000731908 0.184415)
(0.000166766 0.00128462 0.162432)
(-0.00596426 -0.000635222 0.096942)
(-0.0010573 -0.000169801 0.126187)
(-0.00133108 0.000457506 0.167437)
(0.000793861 0.000234652 0.16157)
(0.00103836 0.000204828 0.164278)
(-0.00266894 -0.00222033 0.0551037)
(0.00267162 -0.00111964 0.0214755)
(0.00136632 0.000108906 0.150616)
(0.00110539 0.00256558 0.0381716)
(4.102e-05 -0.000124081 0.0304873)
(-0.00180667 -7.67682e-05 0.162053)
(0.0004784 0.000208299 0.145651)
(-0.00203275 0.00256352 0.0596786)
(-0.000467758 -0.000749629 0.174334)
(0.000461947 0.00107932 0.167438)
(-0.000832022 0.00022883 0.18352)
(-0.0012822 0.000121356 0.175083)
(-9.49297e-05 -0.00150222 0.0315489)
(-0.000135212 9.03617e-05 0.160118)
(-0.00109324 0.000283251 0.178045)
(0.000280804 0.000766313 0.0560052)
(-0.000210493 -0.00109462 0.182186)
(-0.000410965 0.000405083 0.17621)
(0.000674325 0.00054423 0.130869)
(0.000619098 0.000798621 0.122138)
(-0.000283523 -0.00186425 0.152424)
(0.000694985 0.00108985 0.143112)
(-0.000361397 0.000161218 0.068199)
(-0.000608848 0.00150105 0.030635)
(0.000328473 0.00247309 0.0337425)
(0.000478908 -0.000225871 0.0931418)
(-0.0126106 -6.84537e-05 0.0862482)
(-0.00735633 0.000765616 0.074606)
(0.000370312 -0.000377981 0.0816073)
(0.00155917 -0.00132495 0.113568)
(-0.000585357 0.000604851 0.131007)
(-0.004445 0.000255695 0.15943)
(0.000382994 0.00103899 0.157459)
(-0.00048571 -0.000754809 0.131293)
(6.83155e-05 -0.000612127 0.149144)
(-0.000880786 -0.000128672 0.149701)
(-0.000420916 0.000895092 0.0302102)
(-0.0226249 0.000817498 0.11392)
(0.000438797 0.00145069 0.0566185)
(-0.000929649 0.00156104 0.0397771)
(0.000849309 0.000332651 0.0401132)
(0.000277878 0.000694103 0.162376)
(-0.000487771 0.000282447 0.0924911)
(-0.0012495 0.000478751 0.161319)
(-0.00124216 0.00149437 0.0191178)
(0.000376774 -0.000354028 0.125666)
(0.0011211 -0.000686276 0.0429064)
(-0.000167466 0.000234093 0.166324)
(-0.000506781 0.000605709 0.0463362)
(0.00169894 0.000737285 0.060307)
(0.000771296 0.00277674 0.104372)
(-0.00159698 -0.000374419 0.151944)
(0.00251377 -0.00020852 0.0187801)
(-0.000127192 0.00227875 0.0528399)
(8.11865e-05 -0.00061096 0.132669)
(7.29021e-05 -0.00226161 0.0223458)
(-0.009561 -0.000291966 0.130826)
(0.00055431 -0.00266622 0.11488)
(-0.000308087 -0.00209842 0.131211)
(0.00227872 -0.00268155 0.0930006)
(0.00227779 0.000774763 0.086715)
(0.000561829 -0.000100181 0.162587)
(-0.0101875 -0.00322959 0.0771875)
(-0.000167553 -9.14749e-05 0.183974)
(-0.0124722 0.000831984 0.111377)
(-0.00214487 0.00157214 0.0577733)
(-0.00036664 0.00143583 0.0610527)
(9.84499e-05 -0.000278668 0.18083)
(0.000434938 -0.000312325 0.180374)
(0.000599043 -0.000526873 0.0509257)
(-0.000405131 -0.000605614 0.132647)
(-0.00219163 0.000718866 0.0961223)
(-5.60554e-05 -0.000561646 0.181239)
(0.000373359 -0.000920267 0.180566)
(-0.00103112 -0.00343233 0.0440702)
(-0.000414204 0.00103748 0.132054)
(0.00239802 -0.000200339 0.14542)
(-0.000753059 -0.000368777 0.148047)
(0.000299709 -0.00089033 0.157127)
(0.0023859 -0.00127209 0.020717)
(-0.00264384 -0.000692686 0.0202482)
(-0.00149061 0.00137516 0.125923)
(-4.64275e-05 -4.07646e-05 0.177)
(0.0013021 0.000958884 0.182453)
(-0.00218985 0.00117743 0.0332086)
(0.00136425 -0.000974249 0.170155)
(-0.0012672 -0.000202474 0.105199)
(-8.51713e-06 -0.000366126 0.176634)
(-0.000265088 0.000850853 0.177662)
(0.000637132 -0.000132922 0.18248)
(7.71078e-05 -0.000913795 0.174663)
(-0.000286735 -0.00154163 0.173586)
(0.000287708 -0.000552055 0.0869465)
(-0.0005564 0.000362811 0.18029)
(-0.00180126 0.00219752 0.0544852)
(-0.000478323 0.000216118 0.168216)
(-0.000967624 -0.00059818 0.107817)
(-0.000955879 -0.000427241 0.153886)
(-0.000200446 -0.00011399 0.176399)
(-0.000139376 0.0004104 0.149209)
(0.000958832 -0.000866432 0.144813)
(0.00168826 0.00253915 0.0389079)
(0.000872561 4.25618e-06 0.0326316)
(-0.00186591 -0.0019152 0.020297)
(-0.00863475 4.62476e-05 0.153207)
(0.000243089 -2.29179e-05 0.188233)
(-0.00100898 0.000238239 0.139392)
(-0.000140146 -0.000918172 0.125468)
(0.00110211 0.000223403 0.0296433)
(0.000685394 -0.00253811 0.0227136)
(-0.000543259 -0.00168537 0.112843)
(-0.00101291 0.00105571 0.153318)
(-0.000410836 -0.000825777 0.176865)
(0.000466282 -6.61813e-05 0.15475)
(-0.00140898 0.000135766 0.134592)
(-0.000371601 -7.24342e-05 0.186879)
(0.00118119 0.000182008 0.13367)
(-0.00106478 0.00219145 0.025389)
(0.000230504 0.000814037 0.121515)
(0.00256423 -0.00144864 0.0555767)
(-0.00716188 -0.00078837 0.0704771)
(-0.000512555 0.00032524 0.154674)
(0.000438968 -0.000313471 0.0914428)
(-0.00011311 0.000229987 0.146531)
(-0.00333619 0.00210763 0.0196981)
(0.000184064 -0.000599989 0.180598)
(-0.000326051 1.28193e-05 0.181217)
(-0.000551566 -0.000310671 0.178943)
(0.000654553 -0.000649329 0.0896766)
(0.000585226 -0.00171873 0.153823)
(-0.000297213 -0.000646455 0.174495)
(-9.09938e-05 0.000451231 0.120262)
(-0.000708063 0.0002832 0.182736)
(-0.00522765 -0.00053279 0.0977488)
(-0.000467236 -0.000278383 0.172094)
(-0.0026358 0.00115996 0.148853)
(0.00143383 -0.00123431 0.0196749)
(-1.54568e-05 -4.9154e-05 0.180025)
(0.00135375 0.00173914 0.115506)
(-0.00284572 -0.00264806 0.0443301)
(-0.00100223 0.00143383 0.0891128)
(0.000119995 0.000124088 0.168436)
(-1.03759e-05 -0.00111822 0.127691)
(0.000923248 0.00215803 0.0823391)
(-0.00215337 0.001513 0.0195204)
(-0.000169958 0.000272254 0.175747)
(0.000601545 0.00240731 0.123479)
(-0.000772365 -0.000122423 0.161593)
(-0.000748969 -0.000203025 0.122959)
(-0.00217148 0.000600682 0.0352657)
(0.000344007 -6.17181e-06 0.140716)
(-0.00390532 0.000313383 0.0257611)
(6.59345e-05 0.000819373 0.163668)
(-0.0119555 0.000601751 0.10228)
(0.00140556 0.000507975 0.169485)
(-0.000212772 0.00172865 0.0495255)
(-0.00124203 0.00153632 0.104237)
(-0.0001322 0.0012189 0.0931607)
(0.00191368 -0.00167874 0.033271)
(0.000148467 0.000320151 0.18438)
(-0.000495253 -0.000583964 0.173526)
(-0.00201414 -0.000784193 0.0208572)
(-0.000336489 -0.000189594 0.162796)
(-0.000635185 0.000419307 0.183956)
(-0.000562307 0.00206328 0.0354877)
(0.00145461 0.00218429 0.0592967)
(-0.00134795 0.0019113 0.0515842)
(-0.000646048 0.000111683 0.154463)
(-7.25322e-05 -0.000395354 0.180163)
(-0.00122419 0.00121181 0.0324297)
(0.00165594 -0.000740575 0.0515794)
(-0.000188561 0.00106789 0.0543284)
(0.00123314 0.000971005 0.113493)
(-0.000384725 -0.000429207 0.181769)
(-0.00258305 -0.00177742 0.0221721)
(0.000917585 0.000247617 0.159946)
(-0.00356012 -0.000883396 0.151897)
(0.000198426 -0.00115262 0.180585)
(-0.00234858 -0.00483015 0.0900997)
(0.000566907 0.000351577 0.169168)
(0.00110832 -0.00210115 0.0216418)
(-0.000860385 -0.000228431 0.164936)
(0.000153589 -0.000362469 0.0259392)
(-0.000289694 -0.00178238 0.0586274)
(-3.33654e-05 0.00126332 0.15485)
(-0.00105906 0.00149201 0.0581486)
(-0.00261398 0.00155606 0.0194741)
(0.000331808 -0.00126196 0.035008)
(0.00042747 0.00276946 0.0432093)
(0.000763018 -0.00181229 0.0562808)
(-0.000754398 -0.000147673 0.146241)
(-1.48727e-05 0.00110096 0.0480991)
(0.00107619 -0.00179998 0.0568382)
(-0.0155218 0.000632339 0.128241)
(-0.00042192 -0.000490921 0.171215)
(0.00148519 1.62836e-05 0.0227291)
(0.000183406 0.0011147 0.104861)
(-0.00850402 -0.00430709 0.0812718)
(0.000460128 0.000196352 0.172473)
(-0.00108007 0.000823286 0.0561922)
(-0.0010371 -0.000674183 0.167146)
(0.00124902 0.00246148 0.0549413)
(-0.000659699 0.000613576 0.121805)
(-0.000602155 0.000453878 0.178179)
(0.00256187 -0.00414103 0.0485704)
(1.95837e-05 -0.000135312 0.176908)
(-0.0031933 -0.000808829 0.0475125)
(0.00249336 -0.00157555 0.0181282)
(-0.00055542 0.000820171 0.145988)
(0.000191522 0.000142149 0.180333)
(-0.000951908 0.000584656 0.12852)
(0.000706685 -0.00166493 0.123751)
(0.000873168 1.15964e-06 0.179924)
(0.00170976 -0.000180363 0.0582996)
(0.000849615 -0.000295124 0.168541)
(0.00123488 0.00266421 0.0546768)
(-1.53561e-05 -0.000289011 0.175949)
(0.00179409 0.000804393 0.12477)
(-0.00311766 -0.00208475 0.0265448)
(-0.0012004 0.000248756 0.153956)
(0.00105517 -0.0011881 0.0497184)
(0.00120232 0.00223334 0.0246518)
(-0.00126161 0.000509161 0.148132)
(-0.00157349 8.21863e-05 0.04117)
(4.63079e-06 0.00015416 0.137257)
(-9.54286e-05 0.00104646 0.180242)
(-0.00012803 0.000378233 0.130111)
(9.24639e-05 0.00342002 0.0514363)
(0.00126498 -3.42868e-05 0.180622)
(0.00176196 0.000413546 0.0875061)
(6.24254e-05 0.000265737 0.187059)
(-0.000449053 0.000278183 0.18217)
(-0.00012323 0.000942199 0.181974)
(-0.000261333 0.000256047 0.17976)
(0.00286339 -0.00113761 0.0419372)
(0.000323206 0.000406882 0.0492735)
(0.000654155 -0.000126595 0.178984)
(0.000366531 -0.00166022 0.162813)
(0.000492259 0.00233284 0.0300187)
(0.000680818 -0.000164882 0.162353)
(-3.86325e-05 0.000318362 0.181945)
(0.000229285 0.000570015 0.177707)
(0.000529322 0.000701926 0.182507)
(-0.0016027 0.00070692 0.11403)
(-0.00156433 0.00220772 0.0202385)
(0.000534885 -5.11468e-05 0.178743)
(0.000738391 -0.00129454 0.0979213)
(-0.000594627 0.00089997 0.151902)
(-0.000164829 0.000311846 0.0933368)
(-0.00164574 -0.00106069 0.0275506)
(-0.000502875 -0.000398189 0.181915)
(-0.00206135 0.00258241 0.0889965)
(2.71343e-05 -0.000237556 0.131664)
(0.00035951 0.000402646 0.184792)
(-0.000683305 0.00143582 0.140738)
(0.00146722 0.00194324 0.0163077)
(-0.00216606 0.00101757 0.0207284)
(-0.000153297 0.000405818 0.17722)
(0.00124655 -0.000663419 0.169579)
(-0.000892845 0.000731837 0.185048)
(-0.000991884 -0.000971892 0.152943)
(-0.000338348 0.00144954 0.0895047)
(-0.000485017 0.0010862 0.149438)
(4.28849e-05 0.000849617 0.176746)
(0.000678662 0.00158708 0.0189967)
(-0.000554137 0.000463322 0.179219)
(-0.0150936 0.000896558 0.135002)
(-5.82871e-05 0.00196215 0.0351819)
(-0.000381718 0.00342438 0.0522001)
(-0.00043952 0.000813641 0.143515)
(0.00178376 -0.000777352 0.139996)
(0.00017817 -0.000448472 0.136823)
(0.00078888 -0.000559992 0.121942)
(-0.00299412 0.00216615 0.102245)
(3.19102e-05 -8.38073e-05 0.183856)
(0.000650739 -0.00298718 0.0952919)
(0.000483661 -0.000385842 0.176844)
(0.000233255 0.00101772 0.17276)
(0.000319075 -0.000218973 0.186898)
(0.000190985 -0.000387935 0.175983)
(0.00154117 0.00112618 0.0378148)
(0.000363655 2.50394e-05 0.164548)
(-0.00029706 -0.00153598 0.0305705)
(-0.0105817 -0.00143723 0.0944287)
(0.00195209 -0.00136674 0.0572151)
(-0.0133092 -6.58206e-05 0.127254)
(0.000697225 0.000716467 0.129162)
(-0.0195338 0.000461867 0.117464)
(9.72513e-05 0.000573339 0.171691)
(-0.000585954 -0.00015674 0.176809)
(-0.00118627 0.000152224 0.154497)
(0.000371746 0.000743912 0.172473)
(-0.000587388 -0.000179009 0.0314265)
(-0.00456338 0.000141348 0.100941)
(-0.0161199 0.00113439 0.112493)
(-0.000241188 -0.000207556 0.177667)
(-0.00075696 0.0022138 0.109934)
(-0.0143103 0.000938884 0.136926)
(-0.00594149 0.000204888 0.157104)
(0.000557046 0.00110623 0.108624)
(-0.00126465 -0.000507078 0.032924)
(0.00136915 0.00253101 0.0510953)
(-0.000204755 -0.000118665 0.0227431)
(0.00121913 0.00112392 0.021564)
(-0.000170735 2.30256e-06 0.0322508)
(-0.0110894 0.000308485 0.13361)
(-0.000826187 -0.000603876 0.13805)
(-0.00209292 -0.00233406 0.0218904)
(-0.00263497 0.00071636 0.0207466)
(0.00026632 8.7021e-05 0.185575)
(-0.0149133 0.0032745 0.0961376)
(-0.0016 0.000132932 0.0347414)
(-0.00060979 -5.30781e-05 0.147563)
(-0.00156006 0.000943952 0.103193)
(0.00119939 -0.000383731 0.133274)
(0.00126648 0.00194287 0.0389977)
(-0.00105846 -0.00133878 0.051329)
(0.00019843 0.00121115 0.109082)
(0.00081047 0.000292162 0.170909)
(0.000476593 0.00064718 0.152332)
(-0.00171267 0.00234498 0.0330864)
(-0.000562566 -0.00195191 0.0222082)
(-0.0189051 0.000200993 0.106234)
(-0.00249721 0.00182698 0.0237295)
(-0.000104608 0.00130688 0.133461)
(-0.00324422 -0.0010402 0.0250197)
(0.000553288 0.00211118 0.10169)
(-0.00100521 -0.000236184 0.177388)
(0.00122298 0.00022178 0.177992)
(-0.000369216 -0.000921027 0.0406343)
(0.000910482 -0.000540202 0.0956313)
(-0.00179796 -0.000236593 0.0326319)
(-0.00322877 -0.000199309 0.0257216)
(-0.000117926 -0.000780043 0.178276)
(-0.00242301 0.00119373 0.0175251)
(0.000676602 0.000386845 0.166373)
(-0.000367631 -0.00230192 0.044575)
(-0.000252048 0.00126532 0.155702)
(-0.000244178 0.000698545 0.140981)
(0.00300242 0.00121203 0.0200879)
(-0.000981943 -0.0024559 0.0532625)
(-1.0871e-05 0.000753523 0.148705)
(-0.000134101 0.0015335 0.0316064)
(0.000543919 -6.77246e-05 0.160474)
(-0.00125392 0.00351893 0.0503361)
(0.000236126 0.000117157 0.105596)
(0.000703895 9.26142e-05 0.181889)
(0.00122429 -2.83771e-06 0.0334864)
(-0.00290126 -0.0005951 0.021735)
(-0.000946288 -0.000333371 0.046893)
(-0.017784 9.41985e-05 0.110795)
(-0.000573117 -1.30219e-05 0.101639)
(6.65951e-05 0.00351086 0.0523563)
(0.00119877 -0.000223307 0.0815155)
(0.000422204 0.0011925 0.0280896)
(0.000948593 8.15223e-05 0.182966)
(0.000993315 0.00133248 0.0215926)
(-0.000730414 0.000295965 0.170029)
(0.000131661 -6.80952e-05 0.144325)
(-0.000490965 2.58575e-05 0.168071)
(-0.00176847 -0.000198051 0.0178394)
(0.000341513 -0.000362492 0.150876)
(-0.000747517 0.000440467 0.0797699)
(-3.23646e-05 5.54502e-05 0.157648)
(0.000174328 0.000570053 0.0508809)
(-0.0146264 0.000391219 0.108165)
(-0.00127122 0.000575002 0.160181)
(0.000613645 -6.39795e-05 0.03665)
(-0.000157213 0.000535912 0.186453)
(-0.0204615 0.00238093 0.108869)
(-0.00078487 -0.000405241 0.116081)
(-0.000713725 -0.00170533 0.0303237)
(-0.0011639 0.00228377 0.0468719)
(-0.000245326 0.00023665 0.180972)
(0.000964047 -0.000986755 0.131062)
(-0.00102546 0.00123728 0.0295748)
(-0.000255195 -0.00214856 0.107753)
(0.00141877 0.00112274 0.0569481)
(-0.00153649 0.00179293 0.0224526)
(-0.000471327 9.02922e-05 0.17849)
(-0.010107 0.000485049 0.103343)
(-0.00101135 -0.00215038 0.12951)
(-0.000119107 0.0005009 0.17312)
(0.000497321 0.000540508 0.176631)
(0.000170913 -0.000408014 0.1691)
(0.000742011 -0.000263236 0.131392)
(0.00104693 0.000352834 0.0402109)
(-0.000455195 0.00249623 0.0368923)
(0.000140492 0.00055835 0.180902)
(-0.0128084 -0.000552312 0.107583)
(0.000214854 0.00119297 0.119719)
(0.00150809 -0.00117338 0.126747)
(0.00183821 -0.000900951 0.0781463)
(-0.000619254 0.00132685 0.147778)
(0.000492728 0.000987895 0.163387)
(-0.000960043 -0.000924307 0.0964562)
(-0.00150791 0.00116363 0.101522)
(-0.00133368 0.00191085 0.0356027)
(-0.000536754 -0.000311747 0.0683594)
(-0.00251164 -0.00192444 0.0399565)
(0.000914837 -0.000978816 0.151334)
(0.000339772 -0.000195373 0.174635)
(-0.000672563 0.00268453 0.0910755)
(2.2367e-05 -0.000970393 0.0957714)
(0.00112355 -0.00170099 0.0193437)
(0.000185234 -0.000739335 0.0761659)
(-0.00269845 -0.00126626 0.0545765)
(-0.000823954 0.000626531 0.175734)
(0.00123585 0.000163467 0.17749)
(-0.0112998 -0.00073258 0.104823)
(-0.00115394 0.000459627 0.162772)
(-0.00141441 0.0026285 0.0786153)
(-0.00833177 0.000379371 0.101708)
(0.000684919 -0.00226101 0.132018)
(0.00167341 0.000805937 0.0240011)
(0.000851741 -0.000332841 0.177526)
(-0.000180428 0.00130486 0.0466927)
(-0.00134509 -0.000293575 0.138838)
(0.00333047 -0.00171639 0.0261804)
(0.000675469 -0.000266697 0.174761)
(-0.00507656 -0.000292031 0.101647)
(-0.000620372 -0.000185406 0.157888)
(0.000486175 -0.000437189 0.1133)
(-0.000412305 0.000651238 0.146105)
(0.00022117 0.00122339 0.149418)
(-0.000743764 -2.61649e-05 0.183995)
(0.000188172 0.00192623 0.032044)
(-7.16753e-05 -0.00112607 0.0443018)
(-0.000308291 0.000670052 0.0267617)
(-0.000128406 0.000726099 0.176152)
(0.000656068 -9.40509e-05 0.156975)
(0.00156294 0.000699362 0.135553)
(0.000848102 -0.00122867 0.159552)
(0.000223963 -0.000574677 0.0194199)
(6.83307e-05 0.00031255 0.0954698)
(0.00152892 -0.00142714 0.0863155)
(-0.00047034 -0.000257342 0.175735)
(-0.000912788 -0.000119875 0.125295)
(9.6167e-05 -0.000560803 0.145148)
(-0.00126879 0.000476972 0.103561)
(-0.000197315 -0.000121985 0.179854)
(-0.00259619 0.00188739 0.019134)
(0.000348661 0.00337105 0.0822938)
(-0.000475499 0.000334873 0.152207)
(-0.000163362 0.00286646 0.0240669)
(0.000331295 0.00208052 0.0418501)
(-0.00105668 -0.000482288 0.0586669)
(-0.00224113 -0.000978139 0.019947)
(0.00139432 9.86431e-06 0.09206)
(-0.000265517 0.000189411 0.169153)
(-0.000543042 0.00222814 0.0569358)
(0.00215029 0.00185813 0.0177164)
(-0.000312431 -0.000836541 0.101708)
(0.000382714 8.09813e-05 0.0239553)
(6.27866e-05 0.00139686 0.0958089)
(-4.5811e-05 0.00016947 0.173528)
(0.000251219 6.16687e-05 0.185463)
(0.000269096 -9.9853e-05 0.172974)
(0.000524323 0.000663407 0.164105)
(-5.65678e-05 -0.000124176 0.174654)
(-0.000556174 0.00202767 0.128479)
(0.000945901 -0.00103181 0.0437277)
(0.00077865 -4.38043e-05 0.175332)
(5.75794e-05 -0.00100494 0.122225)
(-0.000844796 -0.00151586 0.0851393)
(-0.00154825 -0.000544974 0.0934939)
(-0.000286156 -9.7327e-05 0.163466)
(-0.00123616 0.000661709 0.113332)
(0.00092846 0.00137084 0.0622858)
(-0.00119786 -0.000976845 0.154449)
(0.000378769 -0.00119461 0.0311401)
(0.000562197 0.000360933 0.0844167)
(0.000287097 -0.000199655 0.0935601)
(-0.0007769 0.000677033 0.0579223)
(-6.00033e-05 -4.33504e-05 0.160495)
(-0.0184149 -0.000499362 0.106003)
(-0.00965821 0.000337016 0.127199)
(-0.000549877 0.00264118 0.0304279)
(0.00174152 -0.000272681 0.0246192)
(-0.000157091 0.00224241 0.0531647)
(0.00191257 -0.000433162 0.0190788)
(-0.000691977 0.00055182 0.124783)
(0.000507506 0.00103086 0.153846)
(-0.00106186 0.00135748 0.127347)
(-0.0153236 0.00120605 0.110217)
(-0.000255052 -0.000244405 0.132748)
(0.000490874 0.000571241 0.146485)
(0.0040013 0.00284178 0.0234893)
(-0.000198831 0.000683328 0.157172)
(-0.0131782 -0.000369282 0.127579)
(-0.00126112 -0.000340678 0.0414494)
(0.00261047 0.00236768 0.0205734)