/*--------------------------------*- C++ -*----------------------------------*\
| =========                 |                                                 |
| \\      /  F ield         | OpenFOAM: The Open Source CFD Toolbox           |
|  \\    /   O peration     | Version:  2406                                  |
|   \\  /    A nd           | Website:  www.openfoam.com                      |
|    \\/     M anipulation  |                                                 |
\*---------------------------------------------------------------------------*/
FoamFile
{
    version     2.0;
    format      ascii;
    arch        "LSB;label=32;scalar=64";
    class       volScalarField;
    location    "44";
    object      epsilon;
}
// * * * * * * * * * * * * * * * * * * * * * * * * * * * * * * * * * * * * * //

dimensions      [0 2 -3 0 0 0 0];

internalField   nonuniform List<scalar> 
59516
(
0.0119503
0.0111065
0.00875582
0.00802203
0.00928606
0.345194
0.00780244
0.0107838
0.00954072
0.0239319
0.00743203
0.025189
0.00913288
0.0772916
0.020662
0.0242397
0.00537857
0.0385411
0.0136283
0.00499192
0.0329554
0.00588682
0.00571362
0.0336498
0.00493977
0.0186098
0.0330994
0.0432213
0.02311
0.058061
0.0458196
0.0386555
0.00684153
0.00986208
0.00907321
0.00589015
0.0558815
0.0442452
0.0163766
0.00509928
0.0110554
0.00968677
0.00747085
0.0121823
0.00720942
0.0248436
0.00929904
0.00639938
0.012654
0.00811742
0.0271178
0.0274457
0.00837024
0.00810251
0.0267733
0.00955458
0.00965654
0.0287155
0.00495285
0.0111126
0.00590004
0.0438556
0.00532289
0.00562464
0.00804663
0.00739877
0.0553945
0.0275293
0.0200579
0.00817337
0.0268924
0.00551888
0.0440469
0.00681412
0.00473462
0.0062054
0.00613408
0.00598162
0.0251766
0.00802526
0.0319079
0.00817064
0.00887813
0.0488438
0.00839819
0.00496508
0.0342096
0.00566284
0.0227631
0.0257136
0.0100106
0.00707424
0.00467588
0.00721734
0.00568382
0.0106707
0.00684094
0.0253552
0.0302083
0.0061007
0.0278987
0.0427066
0.0423433
0.0222398
0.00704659
0.00650691
0.0310767
0.0104649
0.0114191
0.018099
0.0199321
0.0233228
0.0197871
0.0301594
0.00520537
0.0128751
0.0217911
0.00748698
0.0408008
0.00606759
0.00483964
0.00556616
0.00515228
0.00547408
0.015527
0.0190251
0.0409168
0.0127354
0.0817911
0.00462331
0.00465184
0.00962674
0.0413862
0.00554715
0.0113672
0.00865886
0.0366078
0.00677315
0.029137
0.0126551
0.0259281
0.00456195
0.0558494
0.00815295
0.00515045
0.00627605
0.00792766
0.00995404
0.252838
0.0100363
0.0120669
0.0315664
0.00464282
0.0054003
0.0138117
0.0627252
0.00904851
0.00885914
0.0160687
0.0537014
0.0185442
0.0175247
0.0344081
0.0636886
0.0120418
0.00481258
0.0193868
0.00481707
0.0489331
0.00751912
0.015448
0.0269482
0.0168544
0.00670644
0.0252248
0.00943044
0.00526414
0.00765504
0.0173655
0.0331887
0.00580387
0.0405375
0.0553142
0.0213005
0.00465438
0.023263
0.0348334
0.0501722
0.00829496
0.0120331
0.00747533
0.025346
0.0050653
0.0221537
0.00522114
0.0394761
0.0245095
0.0309976
0.0103467
0.00528023
0.0168548
0.00481717
0.0109044
0.0531195
0.00744901
0.00614508
0.00468413
0.00620643
0.0540757
0.00948387
0.0277052
0.0592772
0.0063185
0.0233844
0.00924207
0.00477087
0.00642456
0.00493084
0.0241747
0.00540744
0.0244283
0.010652
0.00538366
0.0283662
0.00510761
0.00509499
0.0279904
0.0251228
0.00492795
0.0227963
0.00470612
0.00510081
0.00490115
0.0343484
0.0353607
0.0320718
0.0220251
0.0111008
0.00558299
0.0264835
0.00462923
0.0497667
0.0243394
0.0433255
0.0047274
0.0138233
0.00617862
0.0172947
0.00456442
0.0107481
0.00476129
0.00652469
0.00470923
0.00631089
0.00608417
0.00519905
0.0257833
0.00572599
0.025168
0.0206943
0.00731299
0.00510288
0.00947039
0.00459429
0.0121081
0.0238862
0.0054481
0.0136462
0.022488
0.0261276
0.0136045
0.00502556
0.0111797
0.0132809
0.00492018
0.0134184
0.0404242
0.00495036
0.0316635
0.0274018
0.0049282
0.00668387
0.0383426
0.00876392
0.00801259
0.00533778
0.00471443
0.0391669
0.00495939
0.00511907
0.00509238
0.00730354
0.00717934
0.0126739
0.00475311
0.0240623
0.00545732
0.00602964
0.00488467
0.00518889
0.00865162
0.0217487
0.0416013
0.0237899
0.00474685
0.0519034
0.0166241
0.0263562
0.00497529
0.00450518
0.00504995
0.021898
0.011143
0.029476
0.0293515
0.00573802
0.0123153
0.0117336
0.0143152
0.030114
0.0191088
0.0110281
0.00487251
0.00479556
0.00494125
0.00510183
0.0197283
0.00772351
0.00536255
0.00545608
0.00493065
0.0218176
0.0431385
0.00592641
0.0254073
0.0346631
0.00530864
0.00615299
0.0290149
0.00507449
0.00473267
0.0047665
0.00504385
0.0324337
0.00523799
0.00517142
0.024283
0.00491742
0.00522155
0.00752138
0.00800927
0.0057856
0.00591
0.0201965
0.039358
0.0290438
0.0122103
0.0525514
0.0969406
0.01752
0.00967316
0.00718585
0.00700916
0.00518335
0.0070644
0.00594196
0.00617996
0.0334968
0.0360595
0.0242013
0.0288724
0.0299232
0.00558407
0.012476
0.00537821
0.0468453
0.00778887
0.029506
0.00527954
0.0291183
0.0201209
0.0102382
0.0075661
0.0492191
0.0222818
0.0071402
0.0376401
0.0125896
0.00969229
0.00666687
0.0131381
0.0133521
0.00520746
0.0673152
0.00488313
0.0283272
0.0189345
0.0193792
0.00484705
0.00465964
0.0262598
0.00701992
0.0126945
0.00478052
0.00478661
0.0227404
0.00765689
0.00592626
0.00582594
0.00536164
0.0413719
0.0431416
0.00729452
0.00474266
0.00473461
0.0315624
0.00530631
0.00983734
0.0052046
0.004858
0.00474994
0.0049855
0.0049615
0.0136336
0.00498573
0.0196941
0.00529042
0.0107486
0.00589265
0.00506909
0.00595078
0.00653211
0.0283122
0.0347696
0.0448369
0.00813724
0.00427133
0.00697131
0.00751268
0.0352064
0.0457939
0.00950859
0.00605845
0.00497452
0.00542393
0.00645156
0.00468075
0.00655073
0.0317068
0.0082061
0.0229687
0.11507
0.0058901
0.0123108
0.00638326
0.0485375
0.00479435
0.00485843
0.00509068
0.0140494
0.00600807
0.00508964
0.00850171
0.00511728
0.0161588
0.00503505
0.00581999
0.0433286
0.00472745
0.00909404
0.0240029
0.0130567
0.00494874
0.00758494
0.0163993
0.045895
0.00463805
0.00750294
0.00517578
0.00781975
0.0308521
0.00650766
0.0563012
0.00542315
0.016994
0.00524465
0.0221874
0.0106426
0.0123132
0.0312857
0.00492922
0.0053975
0.0506746
0.00523846
0.00508099
0.0299362
0.0198582
0.0217147
0.00577587
0.00518986
0.0857841
0.0247427
0.0236025
0.00980133
0.00510127
0.039188
0.00517649
0.00600553
0.00492618
0.114207
0.0047714
0.0359592
0.00508986
0.0444927
0.0227908
0.00571524
0.021433
0.0470173
0.032404
0.0221681
0.0236718
0.00572501
0.0267139
0.0196736
0.0124406
0.00531911
0.0293747
0.0100804
0.0679584
0.00482982
0.0254823
0.00566471
0.0243052
0.00829285
0.00504311
0.0233091
0.00477072
0.0539146
0.0567266
0.0056762
0.00491314
0.00758053
0.00801315
0.00471099
0.0215342
0.00487768
0.0212356
0.00510882
0.00769736
0.030635
0.00531075
0.0226003
0.0304704
0.00580031
0.0297145
0.00698744
0.00504091
0.00743474
0.0222283
0.00467493
0.0149289
0.00436918
0.00443553
0.0048583
0.00496073
0.0271158
0.0251729
0.0048587
0.00511426
0.0375422
0.00541368
0.00434777
0.00449993
0.00454344
0.00896966
0.0486345
0.00444265
0.0114668
0.00595185
0.0117648
0.0277899
0.00509393
0.0143515
0.00654193
0.00464666
0.00645956
0.0566963
0.0429585
0.00511091
0.00541556
0.00501045
0.00639249
0.0145626
0.00627485
0.00497353
0.0379196
0.00513411
0.0138792
0.0306028
0.0199506
0.00589715
0.00632677
0.00688221
0.0080812
0.0114833
0.0049092
0.0133127
0.00475722
0.00500622
0.00432556
0.00494941
0.0283709
0.00513107
0.0372644
0.0949338
0.0208548
0.0109389
0.0069543
0.0299948
0.00528075
0.00434952
0.00553832
0.00501653
0.0335269
0.0104301
0.0143033
0.0051022
0.00956443
0.0126852
0.0072986
0.00954855
0.0295838
0.025491
0.0277809
0.0484161
0.030969
0.0116248
0.0068873
0.0538892
0.0468612
0.00499078
0.0657375
0.0328654
0.00627585
0.0101829
0.00727899
0.0324031
0.0243303
0.00982547
0.00512572
0.00584394
0.0345801
0.0359881
0.0596161
0.0372112
0.00681386
0.034879
0.0114635
0.00508639
0.00426698
0.0277695
0.0119291
0.034086
0.0385158
0.00508172
0.0535525
0.00537217
0.0230153
0.00566948
0.0065773
0.0465332
0.0237489
0.00595495
0.0312626
0.00561206
0.0256465
0.0106602
0.00489688
0.0316339
0.0431434
0.0240592
0.0190669
0.0114079
0.0254326
0.0167611
0.0413564
0.00493376
0.0308153
0.00460142
0.00582621
0.00515627
0.0553956
0.00553911
0.0148391
0.00546975
0.0265599
0.0141074
0.00493163
0.030792
0.00484134
0.0295085
0.00819256
0.0366818
0.0221353
0.00503843
0.0071521
0.0340507
0.00921561
0.0214117
0.0377266
0.00502239
0.01213
0.00713501
0.0051541
0.00509853
0.00509687
0.00697099
0.0243447
0.0278433
0.00479089
0.0125941
0.00921784
0.00749256
0.0177138
0.00580889
0.00544581
0.011562
0.0113588
0.0344497
0.0147086
0.0332384
0.00582183
0.00474001
0.0137535
0.0117662
0.0484785
0.0174552
0.0246619
0.00503289
0.00485884
0.0127769
0.0055542
0.0169528
0.0160077
0.00708552
0.0447598
0.0049063
0.0279417
0.0066804
0.0393496
0.00464041
0.0106384
0.00558465
0.00948429
0.00639318
0.00583254
0.00488462
0.0297846
0.0216995
0.0423484
0.0052647
0.00566
0.00730613
0.00490387
0.0673279
0.0118505
0.0140393
0.00516768
0.00786606
0.00660784
0.0117245
0.00513073
0.0458566
0.0155341
0.00622033
0.0290144
0.0265863
0.0200565
0.0459028
0.0140486
0.00515785
0.0205424
0.05165
0.0106909
0.026907
0.0113988
0.0051042
0.00504266
0.00519918
0.00487299
0.00516635
0.00749889
0.0348913
0.00494256
0.00755631
0.0150723
0.0120944
0.0053277
0.00919198
0.0186109
0.00514988
0.0321935
0.014357
0.0133176
0.0206802
0.00545147
0.0424285
0.0155409
0.0347599
0.0403851
0.0219843
0.0465767
0.00793679
0.00606752
0.00782554
0.0303286
0.00753896
0.00650017
0.043986
0.00583832
0.0104143
0.0283299
0.0451795
0.00940215
0.00985897
0.0359166
0.00520137
0.0431801
0.00480036
0.00580224
0.00850254
0.00538129
0.00616952
0.0114422
0.00497046
0.0641663
0.0344027
0.0119695
0.0116747
0.0534296
0.00640345
0.0128653
0.00476222
0.00545802
0.0177807
0.00601361
0.00484208
0.014235
0.0239958
0.0052558
0.0121299
0.0291661
0.00543418
0.00535942
0.00517914
0.0127339
0.00727406
0.0105507
0.0155746
0.0114944
0.0121041
0.00689059
0.0221991
0.00590506
0.00500558
0.00932994
0.00593542
0.0102411
0.00841706
0.0319315
0.0217643
0.00811636
0.0064778
0.00700187
0.00491882
0.00562719
0.004769
0.00452013
0.228291
0.00930074
0.00480651
0.0410348
0.00604572
0.00613774
0.0414943
0.00557099
0.00513932
0.0114745
0.00498882
0.00507611
0.00496245
0.0206344
0.0106262
0.0274672
0.00988618
0.00524097
0.0365614
0.0342311
0.0234295
0.00870814
0.0279129
0.00607179
0.00515414
0.00508475
0.00512683
0.0149759
0.0207833
0.00578377
0.00506508
0.00935664
0.0152972
0.00555176
0.00519733
0.00468373
0.0335706
0.00442373
0.0131497
0.0169231
0.0325831
0.0233841
0.0142344
0.0051
0.0255692
0.00528657
0.00485787
0.00533679
0.00486223
0.0050103
0.00442169
0.00498198
0.00498389
0.00965271
0.0068131
0.00856848
0.0323356
0.0270516
0.00561768
0.0072845
0.0330682
0.00524466
0.0111736
0.00520098
0.00510643
0.00506759
0.00619316
0.0143268
0.00496799
0.122712
0.0124901
0.00505692
0.0701433
0.00532364
0.0314704
0.0155373
0.00576152
0.0173602
0.0294408
0.00567781
0.00595219
0.00547505
0.0315844
0.00539135
0.0320707
0.0137288
0.0198081
0.0220961
0.0118144
0.0049443
0.0206033
0.00570454
0.00525402
0.00997462
0.00493265
0.00489788
0.00940625
0.00459979
0.00523242
0.0182761
0.00493333
0.022964
0.0334892
0.00552553
0.00833657
0.0239534
0.00499469
0.0105293
0.0163693
0.00802254
0.0503313
0.00495516
0.00538126
0.00964664
0.037439
0.0244548
0.0121706
0.0237411
0.00693221
0.00744237
0.0114918
0.0502804
0.00968016
0.00484051
0.00898641
0.00518446
0.00522275
0.0280265
0.00573946
0.00491361
0.00948701
0.00649294
0.0334522
0.00943829
0.00586932
0.00446489
0.019899
0.00556247
0.0140328
0.010059
0.0425045
0.00920852
0.0151308
0.0295095
0.00861092
0.0291612
0.00543355
0.0106287
0.00489367
0.0662916
0.00440453
0.0128874
0.0247982
0.0121878
0.00683695
0.041675
0.00551081
0.00589962
0.0259025
0.0597047
0.0258988
0.00473578
0.00583407
0.005067
0.0115123
0.027188
0.0060861
0.0398095
0.0107247
0.00507172
0.00867033
0.0251564
0.00602559
0.0434934
0.0152352
0.00543879
0.00488979
0.0393082
0.00573557
0.00813402
0.0236884
0.00484615
0.00561877
0.00414425
0.00836445
0.0128407
0.0233613
0.00506916
0.00564467
0.0425828
0.030061
0.0227143
0.00483629
0.0129584
0.00526521
0.0266405
0.00471964
0.0323183
0.00684662
0.0158011
0.00495175
0.00500391
0.0061305
0.00683419
0.0404356
0.0350014
0.00622867
0.00706846
0.0402161
0.0332387
0.00527125
0.00531365
0.00537333
0.0112605
0.00699867
0.0043446
0.00518722
0.0217092
0.0154595
0.0200065
0.00602547
0.0150614
0.0343187
0.0324357
0.00459025
0.00995254
0.0128048
0.00544925
0.00529073
0.0401183
0.0050179
0.00500971
0.0290663
0.0414933
0.00511984
0.00446498
0.0416911
0.0575085
0.00473808
0.0117479
0.0441542
0.0191671
0.00464604
0.00448913
0.00507582
0.00675588
0.00490902
0.0392921
0.0338794
0.00499136
0.00497286
0.0119571
0.00582167
0.0263082
0.0240073
0.0258509
0.00748881
0.0547955
0.00541838
0.00627342
0.0129047
0.0226147
0.0469014
0.00494405
0.00435661
0.00868172
0.00479031
0.0108013
0.005051
0.0270203
0.0229215
0.210971
0.0105236
0.00651968
0.0114664
0.0249194
0.0141142
0.00906638
0.00611071
0.0128899
0.00547703
0.00460231
0.0110601
0.024583
0.0377909
0.00538482
0.040205
0.00893589
0.00840886
0.0146901
0.0416607
0.00624839
0.0208457
0.0543807
0.0453099
0.0072972
0.00468985
0.00761643
0.00751099
0.0155595
0.0104063
0.0530419
0.0317623
0.0284474
0.00486078
0.0114566
0.00629193
0.0106905
0.0109352
0.00738322
0.0445106
0.00882472
0.0435405
0.00512966
0.0102514
0.0382659
0.00480004
0.0132407
0.00746986
0.0144306
0.0246656
0.0444398
0.00545152
0.0268123
0.00535644
0.00512396
0.00847826
0.0196497
0.0399039
0.0090133
0.0291596
0.00552839
0.00549745
0.00504584
0.0260382
0.0053953
0.00554404
0.0056127
0.00541759
0.0458708
0.0271343
0.00518815
0.0103477
0.0203649
0.00506871
0.00814081
0.00789585
0.0119049
0.0318278
0.132284
0.0280168
0.00563332
0.00506478
0.00837991
0.0410379
0.0323778
0.00582805
0.00908605
0.0193704
0.00487322
0.00536358
0.00523006
0.00501717
0.00476449
0.00524165
0.00655745
0.00984846
0.00932213
0.00985632
0.0175077
0.0206005
0.00480489
0.0076048
0.033654
0.0243117
0.00449735
0.0330565
0.00584628
0.0124062
0.00489395
0.00612668
0.00964449
0.00457862
0.00487476
0.00485392
0.0238458
0.0273421
0.00531272
0.00472047
0.0435519
0.0150424
0.00842003
0.00502592
0.00668132
0.055202
0.0113395
0.00715397
0.0161278
0.00465467
0.00886533
0.0474215
0.00808332
0.0397063
0.0134581
0.053255
0.00541773
0.00548212
0.00469498
0.0459277
0.0243207
0.0151123
0.0052661
0.0270626
0.026265
0.013316
0.00508498
0.0332126
0.00445466
0.00548425
0.0199738
0.020921
0.0266905
0.00493207
0.00464186
0.00592742
0.00863586
0.0121047
0.0116615
0.0122427
0.0370048
0.0374499
0.0304459
0.0137011
0.00506341
0.0344289
0.0560426
0.0258771
0.0409597
0.00585239
0.03917
0.00499159
0.00520012
0.00621155
0.0198664
0.0055386
0.0331882
0.0214249
0.00492802
0.00510229
0.00870732
0.00989115
0.00505277
0.0444137
0.0074409
0.00553214
0.00521273
0.0133603
0.00553304
0.00453757
0.0112271
0.0308245
0.0403909
0.0113783
0.00502917
0.0364387
0.0155652
0.00448179
0.0307966
0.0333248
0.011946
0.0451117
0.0184199
0.0464447
0.0265205
0.0329785
0.0484211
0.0316366
0.0511806
0.0108002
0.0161545
0.00503641
0.0483732
0.00463989
0.00766031
0.00572687
0.00924119
0.00587713
0.0347167
0.00525116
0.0107169
0.0135088
0.00504776
0.0074345
0.0575212
0.00935596
0.0150087
0.0351935
0.0368957
0.00648961
0.0135251
0.0396083
0.00623712
0.00674625
0.0049443
0.00514102
0.0266961
0.00893785
0.0149887
0.0112593
0.00657218
0.00642348
0.00512547
0.0134011
0.00545898
0.00718632
0.010714
0.0109818
0.0106743
0.00882357
0.0143437
0.00510007
0.00736207
0.0438927
0.00646618
0.0482324
0.120015
0.0245099
0.0064943
0.00685315
0.00817714
0.00567863
0.00928714
0.017113
0.00976095
0.0513601
0.0428345
0.0554558
0.0238949
0.0250261
0.00470697
0.0264894
0.0092763
0.0390818
0.0361336
0.00486515
0.02421
0.00568721
0.00784017
0.00537361
0.0319865
0.0274412
0.00810554
0.00609757
0.0490841
0.00671601
0.0223506
0.010951
0.00481242
0.00572979
0.0049312
0.0119663
0.0124372
0.0150135
0.0195322
0.0321695
0.0272651
0.0370922
0.0102794
0.00493011
0.0174793
0.0223127
0.0118328
0.00548197
0.00571696
0.0239293
0.006803
0.0394003
0.0198938
0.00590335
0.0264946
0.0158387
0.0128981
0.00866392
0.0111125
0.00619907
0.0133404
0.0118078
0.00518617
0.0101916
0.00520663
0.0434882
0.0446513
0.00792264
0.0112856
0.00602406
0.0104557
0.0123483
0.0487334
0.00727934
0.00754528
0.00640271
0.013852
0.0293611
0.0230388
0.0282366
0.008283
0.020721
0.0110901
0.0440491
0.00892624
0.0286967
0.0163329
0.00520997
0.0237967
0.00562142
0.00564754
0.0311655
0.0389601
0.00910971
0.0690192
0.00593179
0.00528418
0.0150209
0.00625613
0.0184767
0.00902895
0.0354123
0.0106446
0.00825691
0.00477785
0.0548097
0.00529289
0.00796386
0.0160625
0.00710172
0.0329665
0.0054745
0.0348913
0.0060988
0.008376
0.00651539
0.00691859
0.0289633
0.0432819
0.00651802
0.00478294
0.029785
0.0107601
0.0354425
0.00768355
0.022418
0.0479031
0.0127357
0.00624206
0.0146049
0.00483364
0.00939808
0.0062926
0.0363236
0.00499969
0.0332577
0.0168945
0.00504111
0.00508686
0.00821461
0.0449904
0.0266978
0.00536633
0.00520926
0.00652712
0.00588999
0.00592133
0.062935
0.00645816
0.00670983
0.00751357
0.0252291
0.00748282
0.0050143
0.00765027
0.00497363
0.005484
0.0230675
0.00558415
0.0274245
0.00592905
0.0130232
0.00748414
0.00575325
0.00473522
0.00507567
0.0324805
0.00469993
0.0240834
0.038721
0.00784575
0.0255374
0.0056764
0.0467154
0.0247927
0.0256406
0.0160516
0.00821117
0.0356443
0.0353444
0.00670784
0.013204
0.0047459
0.0115891
0.0436982
0.0146733
0.0300862
0.0100844
0.00609331
0.024437
0.00620931
0.00473869
0.00524984
0.00530817
0.00470223
0.00526504
0.00467237
0.00581047
0.0228195
0.0505076
0.00628901
0.0523544
0.00837499
0.00854701
0.0155916
0.00491098
0.00767534
0.0308314
0.00485971
0.028785
0.0124277
0.0212216
0.00699242
0.00473555
0.0160999
0.0108724
0.0286662
0.00815136
0.00857785
0.0144019
0.00653715
0.0552345
0.0388652
0.0044095
0.00800605
0.00506073
0.0114794
0.0627285
0.00496421
0.0205982
0.00459597
0.00574595
0.0342221
0.0055187
0.00478716
0.033002
0.0236408
0.00479904
0.0121538
0.0426363
0.0052958
0.0245406
0.0424188
0.0130366
0.00481276
0.00492049
0.00648299
0.0052648
0.00607836
0.0049566
0.00961028
0.0110093
0.00476998
0.00610386
0.0495448
0.0316395
0.00840201
0.00515417
0.00903222
0.0442436
0.0388704
0.00607451
0.0280856
0.00584239
0.00519916
0.00486161
0.0278789
0.0163235
0.00499925
0.00988747
0.00610982
0.00649958
0.0232539
0.0345327
0.00501696
0.038552
0.0189775
0.0337883
0.0284111
0.00499195
0.00510825
0.00613125
0.0107841
0.0133152
0.0136449
0.00496742
0.00607496
0.0248552
0.00437632
0.00553523
0.0054449
0.0403986
0.00818347
0.0408569
0.0137066
0.0272944
0.00536522
0.00627352
0.0117433
0.0349409
0.0153981
0.0205548
0.0534737
0.00564283
0.0420091
0.023682
0.00498261
0.00511599
0.00488824
0.0314148
0.010564
0.0259091
0.00496103
0.00555942
0.0049408
0.00492757
0.0289541
0.00605729
0.00917042
0.00502449
0.00492041
0.00498173
0.00523828
0.00501326
0.0484247
0.0309027
0.00937713
0.00479616
0.00619017
0.0294927
0.00487556
0.0223356
0.0082887
0.00642385
0.0148956
0.0218984
0.0225517
0.0528434
0.00548969
0.00599408
0.0235666
0.00866989
0.0499358
0.00580186
0.00430788
0.0447627
0.008687
0.00753322
0.00508642
0.091802
0.0522472
0.0359166
0.0194174
0.021633
0.0421644
0.0354258
0.0494358
0.0152394
0.00527134
0.00717567
0.0056837
0.00815317
0.0452622
0.00522548
0.00922971
0.054858
0.0538834
0.0363575
0.0141578
0.0282644
0.00554028
0.0149824
0.00503211
0.00849475
0.0285045
0.0147268
0.0056503
0.00488703
0.00586397
0.00510877
0.00515518
0.0261494
0.0105638
0.00566044
0.00535816
0.0599346
0.0137187
0.0107519
0.00781168
0.00919423
0.00482689
0.0230056
0.036548
0.0462565
0.012094
0.00480031
0.00438075
0.00571354
0.0209657
0.010472
0.0269425
0.0120759
0.00520605
0.0285415
0.0216307
0.00498614
0.00609343
0.00557853
0.00508384
0.0142296
0.0191267
0.00581894
0.011504
0.00836957
0.0065026
0.0074117
0.00526003
0.0159475
0.00631162
0.0488398
0.0375392
0.0535283
0.0130637
0.00902959
0.0115836
0.0281938
0.00564866
0.0274097
0.0228781
0.0477099
0.00875579
0.00441521
0.00494248
0.0471799
0.0221835
0.0275269
0.0407988
0.0231157
0.00452363
0.0044431
0.0357408
0.031136
0.0234887
0.00516584
0.00436205
0.00632133
0.0130661
0.0054723
0.00610906
0.0124019
0.0321678
0.00458444
0.0065175
0.00626091
0.00848351
0.00594625
0.00473012
0.0175922
0.00852351
0.0190533
0.00975996
0.00487411
0.00459563
0.056558
0.00510995
0.0412674
0.0051398
0.00574361
0.00504604
0.00529448
0.0246208
0.0437202
0.0244803
0.00529363
0.00476186
0.00788879
0.00475621
0.0394692
0.0137392
0.00516832
0.00478236
0.0100336
0.0286995
0.0152099
0.00998158
0.00472807
0.00534206
0.00526337
0.0043737
0.00546729
0.00591013
0.0143659
0.0049528
0.00512127
0.00612134
0.0142922
0.0327117
0.0441999
0.0175201
0.0107795
0.00451888
0.00456345
0.0376
0.0101236
0.00659326
0.00707568
0.0128344
0.00506182
0.00614289
0.00755685
0.00441693
0.011574
0.00708842
0.0254077
0.0100304
0.00621766
0.042308
0.00779272
0.00570611
0.00701993
0.00499859
0.00451531
0.0425248
0.00503347
0.0153698
0.0046192
0.0175989
0.00473048
0.00740646
0.0134064
0.00820024
0.0431115
0.00774482
0.0277517
0.0310445
0.00593388
0.0392248
0.00509982
0.00531671
0.00461675
0.0267145
0.0118171
0.0445484
0.00715198
0.031871
0.012523
0.00542904
0.00459014
0.00476607
0.00600964
0.00565475
0.00500761
0.00593391
0.00539903
0.00563752
0.0274731
0.0123472
0.00459001
0.00449498
0.0222771
0.00577762
0.00502895
0.00463705
0.0427238
0.00707508
0.0429892
0.00454039
0.0363861
0.0314189
0.00937488
0.00712817
0.00672457
0.00919803
0.033579
0.00529657
0.0340368
0.0341146
0.00565562
0.0257199
0.0152975
0.00742013
0.00523409
0.0459936
0.0221304
0.0342643
0.00507153
0.00544395
0.0203372
0.00527727
0.0135048
0.0210599
0.0058932
0.0303815
0.00699894
0.00599178
0.00511904
0.00483164
0.00487154
0.00440875
0.00846875
0.0042348
0.00566045
0.00517102
0.0107018
0.0123736
0.00444345
0.0166559
0.0058809
0.00598787
0.00559534
0.00641773
0.00456651
0.0068412
0.0307299
0.00543581
0.00458498
0.0222086
0.00835341
0.00475072
0.106608
0.00561659
0.00519728
0.0130722
0.00778042
0.0253649
0.00942715
0.0043809
0.00581683
0.0128203
0.0238689
0.021742
0.00769925
0.028977
0.0331456
0.0373799
0.00641675
0.00450782
0.00443625
0.00705623
0.00582727
0.00651524
0.0213273
0.0104437
0.00459527
0.00443917
0.00455632
0.00465278
0.0395138
0.0577222
0.0498972
0.0190212
0.00604216
0.00508501
0.00470684
0.0143438
0.00572188
0.0051161
0.0461351
0.00508212
0.00553089
0.00464013
0.00513051
0.0180456
0.0248546
0.00853007
0.0261288
0.00520867
0.0061349
0.0122866
0.00582467
0.0129468
0.020676
0.0116237
0.00483552
0.0146796
0.0079711
0.0049413
0.0193883
0.0295961
0.00514689
0.00492742
0.0235037
0.0308771
0.0135734
0.0380439
0.00465078
0.00922051
0.0244204
0.00462381
0.00488786
0.00463263
0.00777452
0.0053717
0.00545206
0.00553855
0.00640295
0.0146823
0.00619616
0.0187245
0.0167576
0.0248739
0.0048452
0.00945055
0.00555786
0.00677465
0.0132022
0.0114038
0.046065
0.011522
0.0468393
0.0133823
0.00648281
0.00525208
0.00468828
0.00533493
0.0331879
0.0266141
0.00519998
0.0165053
0.019829
0.00771628
0.0282471
0.00442922
0.00595915
0.00500516
0.00923921
0.00507406
0.00860021
0.00577626
0.0311727
0.00516286
0.0338328
0.0351132
0.0203398
0.00682398
0.00882226
0.00497168
0.0346581
0.00751766
0.00577417
0.0116199
0.0158209
0.0141409
0.0302841
0.0219951
0.0297598
0.0201399
0.00429535
0.0250895
0.00564567
0.0218503
0.0493013
0.013027
0.0284942
0.0588046
0.0445738
0.00681787
0.00929008
0.00525541
0.0202349
0.00483336
0.0326066
0.00973714
0.0220158
0.00598223
0.00503248
0.0489165
0.00720716
0.0056134
0.00568199
0.00731668
0.00731107
0.0053019
0.00530365
0.00526813
0.0063795
0.0317464
0.0140254
0.026327
0.00537202
0.040508
0.014221
0.00540027
0.017982
0.0104306
0.0484044
0.00977771
0.0112979
0.00454064
0.00821167
0.00482558
0.00677941
0.00470612
0.00677915
0.00433489
0.024369
0.024917
0.00531694
0.00553619
0.00677022
0.00565327
0.00511481
0.006269
0.005871
0.0338639
0.00547155
0.00482316
0.0343342
0.00796519
0.0341261
0.00740454
0.0193726
0.0273284
0.00513964
0.0297436
0.0332092
0.0448374
0.0373968
0.0325838
0.00470983
0.01056
0.00460424
0.00707566
0.0219258
0.00531837
0.00484499
0.00499245
0.0456786
0.00584596
0.010001
0.00916768
0.00564403
0.0371707
0.0353362
0.00584827
0.0317232
0.00476083
0.0265449
0.00827427
0.0190935
0.00454991
0.00472291
0.00524716
0.0288868
0.0440458
0.0320531
0.00521319
0.0221693
0.0581699
0.00933617
0.0129106
0.0366118
0.0123005
0.0221883
0.00739747
0.00574941
0.00480961
0.00609463
0.0971082
0.0103845
0.0435048
0.00468413
0.00571874
0.00831226
0.00548381
0.0135922
0.0099677
0.0444291
0.00611365
0.0117459
0.00490667
0.00493332
0.0228576
0.0531298
0.00461642
0.00513083
0.00491718
0.019826
0.00675018
0.0437766
0.0301817
0.0273605
0.00498067
0.0364793
0.00967934
0.050757
0.0259336
0.00631021
0.0253189
0.032373
0.0337188
0.00575377
0.00580307
0.00514244
0.0244883
0.00754144
0.00450558
0.00851872
0.00877255
0.00612346
0.00497854
0.00501775
0.0438676
0.00578995
0.0138792
0.0190613
0.0271402
0.00477476
0.00482327
0.0122478
0.00625412
0.0529972
0.00944918
0.00775992
0.0485916
0.00494494
0.00510489
0.00610811
0.0225859
0.00469697
0.0246893
0.0044688
0.0222611
0.0455124
0.00477799
0.00488528
0.0201783
0.00586566
0.00494973
0.00469969
0.00460427
0.0229616
0.0354696
0.00500253
0.00605193
0.00600584
0.00539805
0.0252702
0.0068376
0.0232549
0.0199882
0.00500991
0.00531568
0.0115493
0.00598
0.00885094
0.0308451
0.0657602
0.00472033
0.00555302
0.0252911
0.0372209
0.0146091
0.00610857
0.00637251
0.0456715
0.0135285
0.00547749
0.00481963
0.00518867
0.00572676
0.00955969
0.00479912
0.00540279
0.00501809
0.0141063
0.0341155
0.044622
0.00872464
0.0105719
0.00593382
0.00539666
0.00493851
0.00501621
0.00481914
0.00527413
0.00532611
0.00499833
0.0115146
0.00541471
0.00563355
0.0127701
0.00536164
0.0124663
0.0346936
0.00825463
0.00682322
0.00711436
0.00783888
0.00712124
0.0134682
0.0249612
0.00590134
0.00579513
0.00629576
0.00874284
0.0395479
0.00754603
0.0112808
0.042909
0.00668502
0.0345742
0.00840102
0.00550255
0.0060591
0.00676214
0.00985708
0.0305771
0.0406009
0.0665908
0.00502763
0.0255158
0.00528907
0.00526386
0.0278402
0.00485918
0.0124131
0.00466953
0.00879837
0.00829765
0.0171175
0.00446427
0.00448887
0.0530379
0.0054353
0.031224
0.0540922
0.00701158
0.0201243
0.00471914
0.00489866
0.00487119
0.011185
0.0152672
0.00607545
0.00495686
0.00603417
0.0235263
0.0398019
0.00863368
0.00561626
0.00970738
0.00497871
0.0149528
0.0122681
0.00497111
0.00471836
0.00487145
0.0134046
0.0104151
0.0144088
0.00712704
0.00604361
0.00975732
0.0111644
0.0316148
0.00570991
0.00612487
0.00527176
0.00529786
0.0059088
0.00463796
0.0299912
0.00801429
0.0165073
0.0236948
0.00532892
0.0160012
0.00458356
0.00482775
0.00588931
0.0438796
0.0117227
0.00620009
0.00459956
0.0215796
0.00544318
0.0160336
0.00718912
0.0153856
0.00976127
0.00531227
0.00474466
0.054711
0.00658768
0.0045815
0.0053912
0.0129479
0.00561198
0.00525711
0.132328
0.00439896
0.0275729
0.00583305
0.00473013
0.00494298
0.00921399
0.0126831
0.016993
0.0218311
0.0316478
0.00467465
0.00459856
0.0886597
0.0295307
0.00592853
0.00652055
0.0239878
0.010835
0.00610677
0.00646937
0.00610723
0.0472768
0.00516958
0.020716
0.0275603
0.00485348
0.0234507
0.0144478
0.0406405
0.0267866
0.0148559
0.0239216
0.00831938
0.0230052
0.0095371
0.0331796
0.0427907
0.00811157
0.0353441
0.0214324
0.00603765
0.0373732
0.00594053
0.0227017
0.0186356
0.0240268
0.0046109
0.0364384
0.0337713
0.00727019
0.00611104
0.00793184
0.0260852
0.00721227
0.0142776
0.00793921
0.0196362
0.0117664
0.00463798
0.0122236
0.00467663
0.00688993
0.00699307
0.00474722
0.0558331
0.00772612
0.00890634
0.00545327
0.0382397
0.00867305
0.0559511
0.0120043
0.0124217
0.0051132
0.00564481
0.00943255
0.00576172
0.0206822
0.00501227
0.00512177
0.0155789
0.00442459
0.0193894
0.00525895
0.00716782
0.0212514
0.01504
0.0193036
0.00471393
0.00622888
0.0207643
0.00716571
0.00857627
0.0482469
0.00503424
0.0445616
0.0271085
0.00968649
0.00575185
0.00648758
0.023557
0.00481669
0.00518234
0.0114706
0.022589
0.0143408
0.0344151
0.00616039
0.0136064
0.00704997
0.0132948
0.00505889
0.00652078
0.0313222
0.00713795
0.00502816
0.0131605
0.0559234
0.0193625
0.00618948
0.0235553
0.0138502
0.0219554
0.00659951
0.0138217
0.0256432
0.0250117
0.00467066
0.0430611
0.00569175
0.0373355
0.00464594
0.0117309
0.00541692
0.0324996
0.00633903
0.00447542
0.00528108
0.00481898
0.0121763
0.049232
0.0487992
0.0313069
0.055681
0.00581529
0.0320451
0.00458463
0.00552613
0.0078265
0.00539263
0.041191
0.021566
0.0240328
0.00551656
0.0354344
0.00607862
0.0120316
0.00655695
0.0209369
0.0317645
0.037114
0.00550973
0.0236422
0.00473642
0.00782135
0.00788734
0.0238719
0.0239283
0.00838171
0.0116907
0.0271997
0.00510308
0.00566507
0.0153467
0.0121044
0.00613576
0.0049369
0.00559626
0.00480651
0.00517206
0.0112978
0.0147247
0.00528336
0.0567705
0.0362638
0.0076858
0.00551318
0.00474553
0.0376737
0.0264718
0.00458734
0.0119339
0.00448049
0.0300268
0.00458723
0.00447339
0.00574108
0.0216047
0.0148121
0.0396427
0.0438399
0.00866814
0.0471368
0.00766824
0.0166844
0.00765099
0.0071634
0.00514125
0.040446
0.0622908
0.00472693
0.00741942
0.0327733
0.00499922
0.00572415
0.0333606
0.0461402
0.0496761
0.0277166
0.0167022
0.0447173
0.0141422
0.00477782
0.0321998
0.0475385
0.00808453
0.00553463
0.00505824
0.00622049
0.0122396
0.0592746
0.00469785
0.0302994
0.00513834
0.0261791
0.0110337
0.00785948
0.0107236
0.00929825
0.0345735
0.00493091
0.0104476
0.00471142
0.0428788
0.00848557
0.0243792
0.0113892
0.0188132
0.0394183
0.00989627
0.0102643
0.00885007
0.0165926
0.00563034
0.0253931
0.0326928
0.0259235
0.00708769
0.00943125
0.00725568
0.0329403
0.00958861
0.0411537
0.0599743
0.00631062
0.00449664
0.0243605
0.0312706
0.0131237
0.00504679
0.00859858
0.00553754
0.00799009
0.00673587
0.00518446
0.00629059
0.00466125
0.0235653
0.0458715
0.00788437
0.00500569
0.00482844
0.0131453
0.0546533
0.0123551
0.00496268
0.0226947
0.0113468
0.00856055
0.0117241
0.00469275
0.00531028
0.00485919
0.036261
0.00765851
0.00541967
0.00624092
0.00453285