/*--------------------------------*- C++ -*----------------------------------*\
| =========                 |                                                 |
| \\      /  F ield         | OpenFOAM: The Open Source CFD Toolbox           |
|  \\    /   O peration     | Version:  2406                                  |
|   \\  /    A nd           | Website:  www.openfoam.com                      |
|    \\/     M anipulation  |                                                 |
\*---------------------------------------------------------------------------*/
FoamFile
{
    version     2.0;
    format      ascii;
    arch        "LSB;label=32;scalar=64";
    class       volScalarField;
    location    "44";
    object      k;
}
// * * * * * * * * * * * * * * * * * * * * * * * * * * * * * * * * * * * * * //

dimensions      [0 2 -2 0 0 0 0];

internalField   nonuniform List<scalar> 
59516
(
0.000618117
0.00103521
0.000319713
0.00074236
0.00757593
0.0173743
0.000420749
0.000660779
0.000379406
0.00319676
0.00371023
0.00276537
0.000458867
0.00748311
0.00266572
0.0027725
0.00137865
0.0042388
0.000997611
0.000911652
0.00461354
0.000474315
0.000600429
0.00441071
0.00043502
0.00233916
0.00428779
0.0056469
0.00299389
0.00626592
0.00702978
0.00527992
0.000348962
0.00076455
0.00106024
0.00043353
0.00608663
0.00425156
0.00126336
0.0006318
0.000588413
0.00275985
0.000962162
0.000925798
0.000573423
0.00283383
0.000634337
0.00190756
0.00760243
0.00175544
0.00901643
0.0038899
0.000287655
0.000383208
0.00423641
0.000630289
0.00344325
0.00419173
0.00133643
0.00124157
0.000703565
0.00585281
0.0013189
0.00132372
0.000605954
0.000895335
0.00725509
0.00385866
0.00616396
0.000390409
0.00565095
0.00108046
0.00619339
0.000576629
0.00174166
0.0010726
0.0017061
0.000621982
0.0036938
0.00171019
0.00423398
0.00122877
0.000894979
0.00616783
0.0012648
0.00156144
0.0042521
0.000457188
0.00267861
0.00241687
0.00540358
0.000795509
0.0011779
0.000652961
0.00119186
0.00780051
0.000685161
0.00277474
0.00337413
0.000669684
0.00427957
0.00618316
0.00604463
0.00267664
0.000418274
0.0010156
0.00437862
0.000403087
0.000791206
0.00246703
0.00466658
0.00505429
0.00272025
0.00454445
0.000801737
0.00073096
0.00262457
0.00056928
0.00577793
0.000639715
0.00209722
0.00141303
0.000626897
0.0013398
0.00400812
0.00147114
0.00652201
0.00249802
0.0105268
0.00159892
0.00184843
0.000441053
0.00580119
0.000390921
0.000897419
0.000309005
0.00445241
0.000203169
0.00410848
0.00113029
0.00378324
0.00166544
0.00613975
0.000476685
0.00174592
0.000523874
0.000580496
0.000549615
0.0198346
0.000564182
0.00100383
0.00409638
0.000732033
0.000617623
0.000985241
0.00658224
0.00062585
0.000396965
0.00125976
0.00620399
0.00254269
0.002402
0.0044184
0.00735088
0.000729145
0.00129157
0.00247447
0.00158526
0.00599514
0.000921517
0.00117719
0.00286209
0.00191544
0.000379032
0.00340468
0.000741425
0.0013273
0.00117897
0.00235261
0.00396984
0.000433914
0.00477657
0.00738386
0.00220318
0.0015158
0.00264562
0.0039495
0.00621485
0.000356355
0.000815746
0.000784527
0.00285717
0.00102059
0.00217805
0.000466304
0.00438524
0.00263799
0.00383333
0.000894762
0.000526891
0.00171557
0.00200563
0.000655314
0.00615503
0.000346028
0.000516209
0.00175231
0.00113492
0.00645134
0.000661479
0.00324757
0.00750298
0.000540235
0.00285644
0.00050352
0.00105592
0.000497246
0.000443275
0.00291945
0.000679654
0.00296579
0.00104374
0.0011792
0.00424744
0.00129181
0.00141391
0.0052664
0.00366497
0.00131061
0.00279883
0.00114255
0.0014379
0.00204213
0.00547556
0.00437921
0.00389176
0.00231198
0.000550441
0.000877989
0.00310557
0.00187396
0.00632731
0.00262402
0.00637346
0.00178477
0.000916265
0.00072117
0.00247786
0.00088784
0.00056053
0.00077421
0.000628076
0.00205363
0.000743826
0.000595196
0.000772746
0.00300127
0.000786677
0.00375448
0.00261621
0.000343271
0.000952394
0.000583318
0.00131178
0.000594833
0.00255444
0.000987062
0.00098387
0.00387354
0.00273121
0.00112927
0.00136891
0.000639937
0.00106093
0.000990237
0.000912658
0.00548739
0.000761286
0.00539253
0.00384986
0.00194405
0.000487546
0.00591968
0.000508926
0.000402199
0.00140413
0.00170874
0.00615368
0.00195837
0.00239095
0.00151126
0.000507071
0.00065369
0.000933079
0.00106116
0.00509627
0.00104869
0.000360843
0.00214821
0.00144281
0.000318016
0.00243716
0.00587735
0.00470989
0.000586134
0.00626493
0.00280697
0.00318759
0.00111304
0.00110469
0.000418496
0.00249122
0.000797164
0.00434167
0.00303688
0.00108013
0.000873331
0.00822485
0.00123051
0.00385758
0.00267479
0.000774349
0.00147376
0.00193045
0.00213568
0.00071704
0.00175946
0.000521963
0.00129801
0.000916254
0.00071669
0.00253729
0.00601696
0.000679504
0.00357885
0.00427771
0.000981072
0.000432237
0.00304254
0.00146818
0.000743097
0.00184125
0.0014391
0.0039782
0.000749568
0.00184938
0.00275241
0.00194006
0.00168145
0.000564479
0.000566629
0.000793439
0.000396522
0.0016294
0.00458727
0.00415012
0.000987345
0.00603628
0.0111255
0.00132942
0.00062453
0.000562978
0.00313633
0.000570235
0.000398396
0.000680394
0.000788459
0.00435598
0.00682365
0.00295813
0.0038521
0.00411734
0.00103814
0.00103747
0.000891584
0.00581926
0.000472466
0.00407925
0.00121245
0.00277863
0.00244041
0.000442263
0.00396793
0.00630969
0.00269819
0.00051373
0.00570617
0.00131345
0.000579962
0.000302491
0.0011063
0.00109243
0.000888771
0.00649305
0.00190996
0.0035389
0.00252794
0.00252944
0.00169444
0.00150635
0.00266159
0.000280362
0.000761473
0.00177248
0.00167677
0.0036074
0.000549571
0.000528109
0.000512369
0.000674827
0.00602483
0.00581497
0.000307902
0.00143625
0.00186989
0.00422531
0.00141493
0.000474552
0.0018906
0.00159061
0.00184382
0.00148808
0.00140245
0.000782357
0.00182226
0.00246203
0.00122011
0.000715626
0.000841031
0.00164866
0.000463536
0.000699434
0.00373035
0.00442361
0.00584156
0.00274654
0.00168161
0.000657625
0.000305317
0.00419049
0.00620931
0.000584464
0.00089631
0.00161269
0.000672907
0.000369942
0.00208655
0.000366441
0.00551969
0.000477958
0.00257629
0.01182
0.000989797
0.000953476
0.000654418
0.00626688
0.00169486
0.00185472
0.00180482
0.000831972
0.0008691
0.00156564
0.000718706
0.00211765
0.00129196
0.00130671
0.000492505
0.00579211
0.00160934
0.000529309
0.00361571
0.00073346
0.00116823
0.000449988
0.00133486
0.00584795
0.00121868
0.000335059
0.000802311
0.000457775
0.00385253
0.00057629
0.00720001
0.00116777
0.00951628
0.00137506
0.00365257
0.000598457
0.000725583
0.00363835
0.00224037
0.00184704
0.00649795
0.00108075
0.00227389
0.00429671
0.00248291
0.00251068
0.000876365
0.00199968
0.00984977
0.00267489
0.00257632
0.000448141
0.00206733
0.00572684
0.000659468
0.000692062
0.00179992
0.013655
0.000950172
0.00542395
0.00098713
0.00622407
0.00238692
0.000619635
0.00249722
0.00604238
0.0044067
0.00337509
0.00278685
0.000334162
0.00288664
0.00229824
0.00481572
0.00160206
0.0053547
0.000531067
0.00625562
0.00132567
0.00287061
0.00150604
0.0029982
0.000619197
0.00176321
0.00316114
0.00125388
0.00624296
0.00636818
0.00048104
0.00186649
0.000502178
0.000452938
0.00166712
0.00288048
0.0010559
0.00248138
0.00160984
0.000454746
0.00534567
0.000563004
0.00368971
0.00538772
0.000460944
0.00375969
0.000585598
0.00201693
0.000562292
0.00254283
0.00154485
0.00113981
0.00161444
0.00136575
0.00182963
0.00187117
0.00371123
0.00292291
0.00155997
0.000760405
0.00469982
0.00105742
0.00131798
0.00127874
0.00162448
0.000306763
0.00610793
0.00110987
0.0009666
0.000879884
0.000683187
0.0052407
0.00212465
0.00114982
0.000308569
0.00190698
0.000483235
0.00593118
0.00579189
0.00178108
0.00136299
0.00221377
0.00109308
0.00104455
0.000655014
0.0016108
0.00544231
0.00198887
0.00314792
0.00430419
0.00235806
0.000357659
0.000486226
0.000447343
0.000336249
0.000622941
0.00215989
0.00112756
0.00136446
0.00131364
0.0015505
0.00157589
0.0041673
0.00102312
0.0044884
0.0101789
0.00238006
0.00550538
0.000483046
0.00460099
0.00160827
0.0010164
0.000639466
0.0014618
0.00420596
0.00959885
0.00730178
0.00185014
0.000356251
0.00296371
0.00288244
0.000534282
0.00387473
0.00245238
0.00493967
0.00648985
0.00575257
0.00142911
0.000679596
0.00662961
0.00602659
0.00231639
0.00808492
0.00432647
0.000574855
0.0004128
0.000458727
0.00443805
0.00275071
0.000466521
0.0013871
0.00073931
0.00440022
0.00545828
0.0100847
0.00595215
0.00048784
0.00563195
0.000795515
0.0018037
0.000985078
0.0037477
0.000849087
0.00407357
0.00597317
0.00171865
0.00604935
0.00125286
0.00373397
0.000821604
0.000545351
0.00602205
0.00273204
0.000552737
0.00403848
0.00115744
0.00299334
0.000505843
0.00193363
0.00414243
0.0058544
0.00362894
0.00783251
0.000630063
0.00284532
0.00103646
0.00458334
0.00202121
0.00532275
0.000863553
0.000229671
0.00119735
0.00620151
0.000452442
0.00116769
0.000814444
0.00309997
0.00837173
0.000554454
0.00384805
0.00220379
0.00801431
0.000291802
0.00442048
0.00362233
0.00196814
0.000322025
0.00426967
0.000407251
0.00252406
0.00572268
0.00172707
0.00908663
0.000281426
0.00144294
0.00167268
0.00127504
0.000371129
0.00357596
0.00396776
0.00168573
0.00850642
0.000356535
0.000455988
0.00143476
0.000505662
0.00113945
0.000848959
0.000565217
0.00491811
0.00215997
0.00460086
0.00070829
0.00133176
0.000975701
0.000656589
0.00601961
0.00137394
0.00296748
0.00150859
0.00162133
0.00887101
0.00106526
0.00115049
0.00955235
0.000598998
0.00655102
0.00165654
0.00297849
0.000448896
0.00632565
0.00113907
0.00949836
0.000812872
0.000410493
0.00069056
0.000526827
0.00187019
0.00409493
0.00371324
0.00440729
0.0017992
0.000911212
0.000607192
0.000554879
0.00679875
0.00114672
0.00114523
0.00165469
0.000469495
0.000769862
0.00105339
0.00204382
0.00590428
0.00103718
0.00100162
0.00533582
0.00349936
0.0023981
0.00590761
0.00138027
0.00114275
0.00244037
0.00607703
0.000571171
0.00497961
0.000579443
0.00156559
0.00227143
0.00155608
0.000708651
0.00171808
0.000479728
0.00413685
0.00150824
0.000398226
0.00105972
0.00122663
0.0011659
0.000416806
0.00209554
0.00049936
0.00421052
0.00106657
0.000899872
0.00257561
0.00072788
0.0072836
0.00190778
0.00433265
0.00619541
0.00247305
0.00607043
0.000445236
0.000870768
0.000459643
0.00351153
0.000614741
0.000810603
0.00628108
0.000966393
0.00566506
0.00364855
0.00612578
0.000409027
0.000519511
0.00561142
0.000854121
0.00597573
0.00140413
0.000868761
0.000603765
0.000564175
0.000805372
0.000843932
0.00177967
0.00664511
0.00428678
0.000740414
0.000709009
0.00620131
0.000534122
0.0043372
0.00142132
0.00145029
0.0014684
0.000902043
0.00216711
0.00114987
0.00377603
0.00140031
0.000658804
0.00429812
0.000994921
0.00187294
0.00051965
0.000870897
0.000335516
0.000531639
0.00122132
0.000636104
0.00095515
0.000321661
0.00233799
0.00123999
0.00166056
0.00880358
0.00027306
0.000691447
0.000601186
0.00439174
0.00324317
0.000476622
0.000484299
0.000414228
0.0021597
0.000570849
0.00194271
0.00162944
0.0173238
0.000646535
0.00163882
0.00590308
0.000358004
0.000790161
0.00472737
0.000821585
0.00180131
0.000745289
0.00165906
0.00219481
0.00158809
0.0024808
0.00922413
0.00413578
0.000475342
0.00160058
0.00577837
0.00365542
0.00263583
0.00059526
0.00361468
0.000835281
0.00148209
0.00132765
0.000628374
0.00126221
0.00353138
0.000897872
0.000972944
0.000518174
0.00128813
0.000691339
0.00206596
0.00174334
0.00451456
0.00134912
0.000983483
0.00143079
0.00452397
0.00266468
0.000917631
0.00167323
0.0033233
0.0013531
0.00108324
0.0013045
0.00176757
0.0011421
0.00136709
0.00148629
0.0020164
0.00867434
0.000403647
0.000593091
0.00442103
0.00294116
0.001157
0.000233278
0.00450208
0.00118824
0.000624085
0.00246619
0.00244574
0.00203661
0.000635483
0.000964152
0.00183029
0.0151122
0.000851172
0.0019528
0.00742052
0.00198247
0.00412633
0.0011259
0.00133186
0.00213506
0.00402615
0.00146893
0.00110713
0.00038714
0.0039823
0.00180805
0.00408666
0.00104011
0.00223466
0.00228912
0.000865886
0.0021302
0.00254996
0.00080983
0.00120501
0.000548433
0.00202107
0.00214169
0.000393853
0.00182812
0.00155675
0.00242827
0.00201321
0.00344955
0.00436912
0.00152812
0.00207334
0.0052209
0.00179608
0.000600336
0.00106566
0.00311088
0.0065841
0.00121626
0.00196215
0.000424333
0.00608515
0.00415212
0.000910055
0.00356806
0.00054759
0.000574744
0.000832033
0.00600906
0.000419966
0.00104443
0.00242003
0.00236814
0.00191337
0.0026922
0.00109729
0.00184058
0.000475016
0.000671071
0.00431199
0.000564141
0.0010102
0.00171716
0.00217844
0.00104051
0.00105258
0.000567433
0.00583499
0.000637664
0.00109475
0.00403517
0.00043689
0.00422868
0.000933321
0.000669266
0.00165185
0.0077583
0.00168203
0.00104587
0.00255374
0.000909701
0.000654524
0.00575167
0.001093
0.000757887
0.00262429
0.00719252
0.00397311
0.0019173
0.000503663
0.00155316
0.00104648
0.00261604
0.000697386
0.00432981
0.000639262
0.00193993
0.00119784
0.00285215
0.000424916
0.00633325
0.00118031
0.000562606
0.00199409
0.00483852
0.000793276
0.000379015
0.00477247
0.000924761
0.00103354
0.001444
0.00108126
0.000842974
0.00483404
0.00112962
0.000400203
0.0062487
0.0039545
0.00353309
0.0012614
0.00105979
0.00102887
0.00276733
0.00117772
0.00521307
0.000406497
0.0015829
0.000931065
0.00186502
0.000249085
0.000555362
0.00453973
0.00439686
0.000695661
0.000465953
0.00580654
0.00585118
0.00115136
0.000383408
0.000983309
0.000609347
0.000541397
0.000537142
0.00135502
0.00266147
0.00159829
0.00236784
0.000561202
0.00118268
0.00439426
0.00574636
0.00127823
0.000460457
0.000671404
0.00110912
0.000955085
0.00433977
0.00114934
0.00159715
0.00431681
0.00627362
0.00147649
0.00146794
0.00494861
0.00632372
0.00142719
0.000826084
0.00634358
0.00147884
0.00142646
0.000952444
0.00155726
0.0004741
0.000767325
0.00569177
0.00389155
0.00175993
0.00120928
0.00054787
0.000897351
0.00272768
0.00277691
0.00370358
0.00106832
0.00687932
0.000471728
0.000361034
0.00086841
0.00281364
0.00628214
0.0020173
0.00133068
0.000326749
0.00160202
0.000605693
0.000394214
0.00408196
0.00308058
0.0173328
0.000592117
0.000596117
0.000550102
0.00260007
0.00120496
0.000357132
0.000423737
0.0010232
0.00055483
0.00102645
0.000749954
0.00279767
0.00606928
0.00114233
0.00457461
0.000503599
0.000526528
0.00118172
0.00571587
0.000664261
0.00235395
0.00605042
0.00595
0.000528888
0.00155777
0.000539089
0.000605108
0.00121921
0.000668207
0.00569163
0.00407044
0.0042198
0.00205132
0.000622939
0.000624117
0.000662478
0.000565665
0.000510925
0.00676311
0.000524397
0.00576096
0.000984464
0.000620318
0.00547016
0.00181706
0.000769413
0.000446447
0.000965098
0.00230216
0.00449373
0.000627977
0.00405347
0.00226893
0.00242483
0.0006501
0.00183203
0.00452985
0.00283343
0.00413103
0.00135185
0.00128721
0.00148124
0.00318333
0.00105337
0.00122475
0.000921636
0.00102531
0.00474497
0.00403283
0.00126025
0.000538994
0.00260332
0.00217528
0.000455264
0.000541971
0.00083963
0.00583485
0.0123671
0.00294861
0.000895338
0.00128585
0.000699221
0.00561329
0.00405269
0.000495749
0.000606015
0.00257574
0.00196658
0.000864671
0.00110629
0.00135523
0.00177537
0.00091512
0.000712893
0.000798773
0.000607361
0.000518722
0.00123607
0.00218477
0.00190851
0.000521533
0.00443876
0.00264587
0.000966837
0.0031615
0.000360254
0.00072788
0.00100622
0.000695869
0.000464269
0.00132379
0.00116275
0.00083574
0.00342728
0.00538675
0.00153744
0.00183906
0.00598633
0.00111693
0.000632119
0.00147859
0.000491226
0.00641121
0.000613206
0.000648169
0.00123717
0.00128218
0.000436181
0.00639531
0.000448882
0.00588311
0.000782741
0.00633111
0.000815892
0.000331871
0.00132147
0.00613091
0.00298001
0.000934369
0.000367472
0.00271354
0.00289496
0.000885959
0.00181462
0.00441573
0.00169982
0.000389885
0.00247294
0.0024666
0.00505455
0.000761365
0.00155083
0.000295429
0.000519251
0.00069361
0.000799947
0.000704612
0.00550735
0.0043633
0.00532998
0.00115812
0.00225102
0.00411646
0.0059781
0.00267044
0.00614731
0.000961021
0.00614934
0.00134396
0.00233796
0.000646382
0.00247862
0.0020356
0.00409802
0.00278539
0.00206803
0.00112618
0.000495768
0.00924612
0.00116121
0.00600993
0.000529013
0.000697483
0.00181413
0.00113179
0.000766207
0.00132897
0.00102814
0.0032282
0.00454108
0.000759505
0.00204933
0.00447198
0.00112582
0.000548784
0.00420665
0.00568288
0.000710957
0.00415322
0.00252022
0.00620139
0.00260836
0.0043028
0.00586521
0.00421199
0.00657338
0.00062109
0.0011145
0.00181896
0.00599776
0.00117337
0.000335166
0.000441457
0.000549674
0.000906525
0.00423284
0.000947514
0.00911368
0.00113968
0.00228995
0.000422034
0.00614403
0.000716476
0.00100925
0.00612139
0.00428531
0.000322619
0.000830892
0.0054858
0.000785717
0.000539306
0.0018622
0.000976265
0.00384294
0.000274961
0.00119831
0.00313396
0.000414598
0.000450647
0.00142313
0.000917699
0.000622351
0.000416345
0.00373359
0.00062287
0.00069068
0.000524749
0.00116115
0.00214958
0.000494404
0.00638289
0.00031432
0.00688514
0.0127817
0.00294935
0.000466053
0.000498121
0.00445313
0.000867009
0.0006204
0.00137196
0.000428322
0.006556
0.00633448
0.00876947
0.00280111
0.00538507
0.000585705
0.00400323
0.000604752
0.00448148
0.00556162
0.0021501
0.00257891
0.00123751
0.000462311
0.00149554
0.00429568
0.00411203
0.000356284
0.000755943
0.00646895
0.000487034
0.00256657
0.00108471
0.00149953
0.000813156
0.00160627
0.000696585
0.000851501
0.00120278
0.00327129
0.00382833
0.00314902
0.00433412
0.000540907
0.00132228
0.00242972
0.00264372
0.000675598
0.000422573
0.000661959
0.00258925
0.000301299
0.00549886
0.00289785
0.000567404
0.00401445
0.00112997
0.000970752
0.000443973
0.000908886
0.000787449
0.000897091
0.0010373
0.00111899
0.000557945
0.00102372
0.00595186
0.00550364
0.000549367
0.000616548
0.000693258
0.000970461
0.000732381
0.00587417
0.000605956
0.00037721
0.000769434
0.000947592
0.00423739
0.00260725
0.00341744
0.000418125
0.00238273
0.000700994
0.00594969
0.000260117
0.00411462
0.00116795
0.00180065
0.00277819
0.000523855
0.000943053
0.00409758
0.00573708
0.000506071
0.00843008
0.00100319
0.00123451
0.00115618
0.000693925
0.00127527
0.000551781
0.00555567
0.000696363
0.000290012
0.00205063
0.00609422
0.000890466
0.000448518
0.00115143
0.000554833
0.0041816
0.00119367
0.00540595
0.000862205
0.000522763
0.000648136
0.000188153
0.00395496
0.00601501
0.00236393
0.00149304
0.00398956
0.000586104
0.00413346
0.000455492
0.00276538
0.00602191
0.000668086
0.000731786
0.00113023
0.0016653
0.000353948
0.000448401
0.00450269
0.00204018
0.00560999
0.00213585
0.00171071
0.00199812
0.000557107
0.00667577
0.00378569
0.00263931
0.00244012
0.00074112
0.000473436
0.000812542
0.00658817
0.000200678
0.000656266
0.00060575
0.00305505
0.000365213
0.00154348
0.000640036
0.00123805
0.0026782
0.0025429
0.00072522
0.00383339
0.00106271
0.00101469
0.000490715
0.000747139
0.000906182
0.00167495
0.00416887
0.00204192
0.00279326
0.0058597
0.00044728
0.00392032
0.000801247
0.00598028
0.00382402
0.00277069
0.00154915
0.000518775
0.0039402
0.00562384
0.000714592
0.00128158
0.00135375
0.000669647
0.00576947
0.00113378
0.00418626
0.00054385
0.000963052
0.00252848
0.000936718
0.00130966
0.000768584
0.00113133
0.00133692
0.000689828
0.00130866
0.000355111
0.00496235
0.00639068
0.00044918
0.00684548
0.000295172
0.000400343
0.00116531
0.00199876
0.000347603
0.00425066
0.00208245
0.00275365
0.000980489
0.00351988
0.0002287
0.0019546
0.00150145
0.000627992
0.00391713
0.000504201
0.00034328
0.00108361
0.000514638
0.00621441
0.00583474
0.0011111
0.000479439
0.00134909
0.000787364
0.00700437
0.00224393
0.00224471
0.00192507
0.00112468
0.00431563
0.00047101
0.000784219
0.00432763
0.00507646
0.00204575
0.00106666
0.00602234
0.000445343
0.00374159
0.00627689
0.0012257
0.00146535
0.00191307
0.000683078
0.0013959
0.0005572
0.00162363
0.000470572
0.000580284
0.00131552
0.000585711
0.00603866
0.00419018
0.000368035
0.00123308
0.000630541
0.00603928
0.00593484
0.000433104
0.00524209
0.000691467
0.00113645
0.00190981
0.00395476
0.00232181
0.00154112
0.00053693
0.000768359
0.000412784
0.00256536
0.00580649
0.00138663
0.00615046
0.00339314
0.00413584
0.00383497
0.00100673
0.00221567
0.000595408
0.000575123
0.000868909
0.000841832
0.00111491
0.00103066
0.00277152
0.00151066
0.00116635
0.00109025
0.00427345
0.000589973
0.00619176
0.00107071
0.00394181
0.000776296
0.000423701
0.00945389
0.00542874
0.000942851
0.0027721
0.00616016
0.000510554
0.0057831
0.00273496
0.00129811
0.00101913
0.0019839
0.00397959
0.000628501
0.00265354
0.00189529
0.000989755
0.000997935
0.00139919
0.00391683
0.000323762
0.000365248
0.00215618
0.000938298
0.00108402
0.000923914
0.00220338
0.00604649
0.00395092
0.000478042
0.00199368
0.000463839
0.00364502
0.00141426
0.0024524
0.00032149
0.000426251
0.00108834
0.00267386
0.00245195
0.00599854
0.000750661
0.000248214
0.00258727
0.000455936
0.00590655
0.000769472
0.00127308
0.00636844
0.000547187
0.000500092
0.000894169
0.00996461
0.00670372
0.00473607
0.00256437
0.00237822
0.00625409
0.00573635
0.0066792
0.00111332
0.00120176
0.000723937
0.00108426
0.000675551
0.00604251
0.000735903
0.000389226
0.00608644
0.00620178
0.00597764
0.00126478
0.00545721
0.000858922
0.00457552
0.002274
0.0011398
0.00363707
0.00096436
0.00082808
0.00183229
0.000384554
0.000820173
0.0014042
0.00290963
0.000591934
0.000666288
0.000929556
0.00606843
0.00146225
0.000602937
0.000263367
0.000529643
0.00159834
0.00246996
0.00425745
0.00637327
0.000738816
0.00211352
0.00160562
0.000873155
0.00340966
0.000517761
0.00294715
0.000576343
0.00117214
0.00367104
0.0035091
0.00151997
0.000608957
0.000862688
0.000855168
0.00132024
0.00217881
0.000341894
0.000677742
0.000398522
0.000628012
0.000424653
0.00171037
0.00103467
0.000329704
0.00603003
0.00394788
0.00676292
0.000698088
0.000548451
0.00088578
0.0027118
0.000567
0.00343229
0.00244152
0.00584685
0.000311501
0.00128478
0.00110095
0.00583289
0.00337558
0.00312981
0.0058619
0.00371301
0.00129035
0.00158782
0.00550001
0.00418099
0.00253915
0.0020181
0.00145167
0.000496989
0.000860903
0.000726899
0.000321615
0.000823559
0.00409216
0.00201189
0.000547808
0.000356991
0.000466435
0.000359681
0.00097532
0.0016984
0.000515145
0.00267281
0.00413688
0.000869182
0.00112675
0.00634317
0.00140831
0.00586435
0.000544929
0.000632608
0.00104207
0.00106475
0.00269514
0.00632003
0.00276267
0.00217329
0.00161811
0.000644754
0.000871135
0.00470044
0.00122574
0.000874751
0.00138653
0.000531428
0.00575769
0.00248383
0.00049796
0.0010914
0.00161823
0.00127406
0.00106711
0.000498376
0.000415596
0.000775347
0.00113752
0.00146299
0.000583071
0.00116213
0.0055656
0.00578728
0.00128804
0.000504666
0.00112259
0.00117471
0.00580664
0.000621052
0.000289384
0.00058713
0.00103611
0.000792433
0.000307423
0.000483623
0.00154758
0.000501039
0.000331402
0.00360576
0.000481492
0.000416203
0.00596483
0.000285807
0.00061901
0.000490695
0.000509109
0.00117837
0.0046725
0.00101979
0.00123906
0.00129679
0.00132708
0.000942817
0.000238106
0.00113244
0.000268008
0.00593954
0.000269079
0.00385279
0.0042534
0.00035669
0.00560572
0.00155958
0.000916055
0.00119478
0.00270193
0.00089469
0.00596689
0.000406763
0.00398105
0.000878197
0.000628624
0.000555305
0.00126343
0.000613248
0.000765102
0.00179594
0.000836476
0.00077783
0.000729742
0.00408076
0.00117973
0.00175088
0.00149135
0.00260013
0.000362146
0.000918227
0.00104106
0.00580845
0.000537699
0.00614802
0.00153691
0.00565439
0.00387448
0.000732361
0.000383732
0.000540489
0.000572615
0.00508346
0.00108964
0.00567451
0.00527955
0.000566875
0.00296449
0.00101084
0.000377299
0.000712712
0.00601237
0.00255569
0.00425026
0.0014981
0.00110155
0.00231746
0.000523979
0.00107941
0.00254429
0.00191342
0.00540595
0.000566487
0.00107116
0.00151815
0.000580526
0.00145813
0.00114353
0.000362845
0.00160042
0.000577042
0.00163788
0.000747269
0.00107678
0.00137627
0.00125254
0.000965877
0.00050662
0.000847474
0.000705429
0.00158517
0.000656601
0.0042143
0.000999614
0.00163667
0.00235551
0.000338521
0.00194634
0.0104211
0.000874784
0.00131959
0.000961352
0.000427787
0.0037868
0.000408441
0.0009206
0.000817535
0.000970686
0.00267999
0.00271202
0.000375266
0.00393912
0.00422441
0.00629402
0.00031493
0.000929189
0.00154855
0.000436136
0.000396151
0.000400025
0.00299876
0.000608493
0.00131415
0.00144665
0.00182419
0.00199258
0.00462808
0.00657402
0.00624027
0.00218269
0.000968686
0.0017284
0.00167013
0.00111853
0.000776896
0.00119355
0.00607228
0.00239171
0.00126239
0.00133171
0.00189917
0.00255094
0.00304889
0.000273988
0.00370379
0.000931549
0.00049724
0.000827604
0.000765848
0.000982561
0.00220736
0.000788873
0.00196867
0.000917871
0.000596137
0.00147629
0.00262017
0.00405181
0.00136898
0.00201168
0.00267962
0.00435171
0.0010079
0.00524035
0.00131747
0.000619513
0.00357713
0.00170211
0.00203112
0.000830601
0.000385929
0.00125737
0.000667634
0.00106825
0.000707476
0.0011859
0.000658426
0.00226139
0.00143528
0.00267323
0.00163447
0.000654558
0.00129859
0.000567688
0.000944593
0.000924638
0.00587683
0.0010463
0.00589103
0.001115
0.000617255
0.00044487
0.00112473
0.000590896
0.0042405
0.00419155
0.0011278
0.0011077
0.00305587
0.000485173
0.00393948
0.000941791
0.000339423
0.000657994
0.000466732
0.00115233
0.000534695
0.000987587
0.00392466
0.00156279
0.00447415
0.00425869
0.00240973
0.00027385
0.00056003
0.00225071
0.00441994
0.00360168
0.000747669
0.000857313
0.00106728
0.00107838
0.00404032
0.0032976
0.00411314
0.00239445
0.00141745
0.00283541
0.000658822
0.0023481
0.00554311
0.000948228
0.00369698
0.0068482
0.00605994
0.000734577
0.000346581
0.00144174
0.00244446
0.00217684
0.00466472
0.000500057
0.00223738
0.000918623
0.000720666
0.00639595
0.000385716
0.00110261
0.000946084
0.0006623
0.000299582
0.00140717
0.000665282
0.00120323
0.000488407
0.00590834
0.00107624
0.00275333
0.000565195
0.00468791
0.0012275
0.000306195
0.00166863
0.000572678
0.00578635
0.000489815
0.000605865
0.00132445
0.000508404
0.000797029
0.000604738
0.000820599
0.000399179
0.00152316
0.00271732
0.0027319
0.000509599
0.00128691
0.00044307
0.000576791
0.000937763
0.000861071
0.00057462
0.00427059
0.000529872
0.00192441
0.00476603
0.000396141
0.00484584
0.000433639
0.00227542
0.00385878
0.000525926
0.00377705
0.00560828
0.00585028
0.00447884
0.00404113
0.00118781
0.000792383
0.00162527
0.000347907
0.00264777
0.00100938
0.00187255
0.000907809
0.00609892
0.000344521
0.000589917
0.000365345
0.000876026
0.00554744
0.00417052
0.000347295
0.00577286
0.00150127
0.00404024
0.000390496
0.00209723
0.00186088
0.00197204
0.000803565
0.00403569
0.0057061
0.00418767
0.00049973
0.00244682
0.00585299
0.000531979
0.00103267
0.00560472
0.000911979
0.00490657
0.000284293
0.000415194
0.00155937
0.00107317
0.0094004
0.000552526
0.00444669
0.00162606
0.000689236
0.000532671
0.000962335
0.00105456
0.000550595
0.00491733
0.000504522
0.00068697
0.00194068
0.00177844
0.00260427
0.00605346
0.000851546
0.000723307
0.00126401
0.00216451
0.000559086
0.00643291
0.00572739
0.00390555
0.00127549
0.00456311
0.000417365
0.00620144
0.00389623
0.000695061
0.0026455
0.00412083
0.00428057
0.000355764
0.000741986
0.00175654
0.00266811
0.000440968
0.000684295
0.000472337
0.00050635
0.000810003
0.00135508
0.00161914
0.0062573
0.000772165
0.00134955
0.00237669
0.00501657
0.00131184
0.00109817
0.000762253
0.000661901
0.00658815
0.000507979
0.000380934
0.00629586
0.000523223
0.00100135
0.000653897
0.00346639
0.00124776
0.00356275
0.00159765
0.0024181
0.00581989
0.00146454
0.000834962
0.00232014
0.000370828
0.000942558
0.000964802
0.0013365
0.00278823
0.00568411
0.00120576
0.000565285
0.000451203
0.00089819
0.00278166
0.00036894
0.00286958
0.00230195
0.000546763
0.00256343
0.000564853
0.000794278
0.000647883
0.00406302
0.00595615
0.00144519
0.000971008
0.00353097
0.00464257
0.0010253
0.000704409
0.000609424
0.00614041
0.00103411
0.000921982
0.00107095
0.000716087
0.000429151
0.000480301
0.00189049
0.000365753
0.000968221
0.00111828
0.00567523
0.00632415
0.000479933
0.000692734
0.00061483
0.000777787
0.00118699
0.0008041
0.00143887
0.000902881
0.000636651
0.00120961
0.000708817
0.000804692
0.00105879
0.00088149
0.0010094
0.000839457
0.00528982
0.000316523
0.00041659
0.000348465
0.000388791
0.000429092
0.000896374
0.00402086
0.000426555
0.000995962
0.00055246
0.00032628
0.00406174
0.00168859
0.00056239
0.00652441
0.000660324
0.00438018
0.000427698
0.000453287
0.000262268
0.000339097
0.000366389
0.00396746
0.00596778
0.00987441
0.00208651
0.00394266
0.000675808
0.00105559
0.00380109
0.0022487
0.000625237
0.00166173
0.00045066
0.000352487
0.0015665
0.00180456
0.000955325
0.00627852
0.00119761
0.00408211
0.00638103
0.000701468
0.00226505
0.000873206
0.000768328
0.0014692
0.000842125
0.00114048
0.000478799
0.000622663
0.000464887
0.00322802
0.00497295
0.000531671
0.000857711
0.000681857
0.00184291
0.00106451
0.000870953
0.000595295
0.000739618
0.000769305
0.00107183
0.000660472
0.00134095
0.000303889
0.000466113
0.000592021
0.00079335
0.00430109
0.000473228
0.0004437
0.000632011
0.00135706
0.000388741
0.00136214
0.00407596
0.000329665
0.0022379
0.00335358
0.000632499
0.00112794
0.0015494
0.00109498
0.00036779
0.00580611
0.000844388
0.000750059
0.00100453
0.00239267
0.00106585
0.00132387
0.000338428
0.00138409
0.000582073
0.00034962
0.000568949
0.00641472
0.000402392
0.000517443
0.000915497
0.00083595
0.000555728
0.000645919
0.0123975
0.00165209
0.00381096
0.000308304
0.00113248
0.000819786
0.000735785
0.000903757
0.00131204
0.003542
0.00558886
0.000894301
0.000780389
0.00890447
0.00388645
0.000414678
0.000512176
0.00298306
0.000492468
0.000276952
0.000247196
0.000383477
0.00617024
0.000468715
0.00184895
0.0040513
0.000835528
0.00249055
0.00092621
0.00568876
0.00423249
0.000998941
0.00269075
0.000429945
0.00299475
0.000620192
0.00432058
0.00479092
0.000415008
0.00552795
0.00291728
0.000322882
0.00565148
0.000636461
0.00330343
0.00238384
0.00297842
0.00124901
0.00448183
0.00445593
0.00046316
0.00092585
0.000512259
0.00291745
0.000611226
0.00100917
0.00040706
0.00238386
0.000758438
0.00195434
0.000785975
0.0011757
0.000634842
0.000306751
0.00090317
0.00724579
0.000379189
0.000491481
0.000669131
0.00470911
0.000298018
0.00671143
0.00104835
0.00103189
0.00128654
0.00102916
0.000487755
0.000580559
0.00838976
0.00202791
0.000764264
0.00110158
0.00165769
0.00231853
0.000597601
0.000419539
0.00254578
0.00642251
0.00222029
0.000887547