/*--------------------------------*- C++ -*----------------------------------*\
| =========                 |                                                 |
| \\      /  F ield         | OpenFOAM: The Open Source CFD Toolbox           |
|  \\    /   O peration     | Version:  2406                                  |
|   \\  /    A nd           | Website:  www.openfoam.com                      |
|    \\/     M anipulation  |                                                 |
\*---------------------------------------------------------------------------*/
FoamFile
{
    version     2.0;
    format      ascii;
    arch        "LSB;label=32;scalar=64";
    class       volVectorField;
    location    "44";
    object      momentum:angularMomentum;
}
// * * * * * * * * * * * * * * * * * * * * * * * * * * * * * * * * * * * * * //

dimensions      [1 1 -1 0 0 0 0];

internalField   nonuniform List<vector> 
59516
(
(-8.17619e-10 -1.19262e-09 2.25771e-07)
(5.98825e-10 -4.08596e-10 1.69e-07)
(-7.40665e-10 1.57829e-09 2.05986e-07)
(-3.28871e-09 -4.81795e-10 1.74243e-07)
(-8.00824e-09 5.31468e-10 2.00125e-07)
(-5.20277e-09 2.76956e-09 5.03646e-08)
(-2.51027e-09 -2.49516e-09 2.11159e-07)
(-5.91175e-10 -1.32309e-09 1.98216e-07)
(-1.35305e-09 1.82878e-10 1.58555e-07)
(3.166e-09 1.60256e-09 8.09774e-08)
(-3.00692e-09 -4.19269e-10 2.08024e-07)
(-4.85212e-09 -3.85091e-09 1.02521e-07)
(-2.51839e-09 -1.70931e-09 3.24845e-07)
(7.22713e-11 -1.65291e-10 1.58581e-08)
(4.37303e-10 -9.06643e-09 1.53934e-07)
(-2.38245e-09 6.12725e-09 8.58696e-08)
(-2.2277e-09 -6.29934e-10 2.67086e-07)
(-1.2932e-08 -3.61858e-09 1.59892e-07)
(-1.65678e-08 -3.73165e-09 3.30383e-07)
(-7.68744e-10 1.36958e-09 3.69866e-07)
(-2.47429e-09 1.17146e-09 9.9968e-08)
(8.07081e-10 1.29934e-09 3.18422e-07)
(-3.30639e-09 -1.60326e-09 3.51361e-07)
(9.35282e-10 5.80176e-10 3.52867e-08)
(7.00101e-10 1.60262e-09 3.11147e-07)
(-7.54282e-10 4.84535e-09 2.03742e-07)
(-6.74319e-10 3.66546e-09 5.29992e-08)
(-5.77385e-09 -2.51227e-09 7.42822e-08)
(-5.53359e-09 -2.04916e-09 1.45192e-07)
(1.71674e-09 1.38051e-09 1.36933e-08)
(-3.76113e-08 2.11035e-09 1.89438e-07)
(-5.35758e-09 4.08567e-09 8.3891e-08)
(-1.06027e-09 -4.19414e-10 1.75242e-07)
(-3.46074e-09 -1.64027e-09 1.76445e-07)
(-6.01555e-09 -1.33859e-10 1.33464e-07)
(-7.45481e-10 3.47437e-10 3.99353e-07)
(-2.00457e-09 1.04541e-09 1.32819e-08)
(-1.30079e-08 -4.13766e-09 1.31764e-07)
(-1.02278e-08 1.2345e-09 2.6768e-07)
(1.42196e-09 9.00196e-10 2.79853e-07)
(2.1456e-10 -1.68101e-09 2.59695e-07)
(-3.21942e-08 3.58705e-11 4.06748e-07)
(-1.04208e-08 2.12245e-09 3.4311e-07)
(-7.29194e-10 4.48176e-10 1.11929e-07)
(-8.34157e-09 1.49525e-09 2.65317e-07)
(2.75795e-09 7.65424e-10 1.03686e-07)
(-1.18698e-08 2.77659e-10 3.2504e-07)
(-6.95501e-09 1.0512e-09 2.53498e-07)
(-3.44209e-08 3.1157e-09 2.51861e-07)
(-1.32461e-08 2.4957e-10 2.40536e-07)
(-2.82011e-08 8.22522e-10 1.6391e-07)
(-7.0815e-09 -3.38691e-09 7.75055e-08)
(7.34863e-10 -6.52413e-09 3.17705e-07)
(-8.33542e-10 1.01621e-09 3.02401e-07)
(-4.95983e-09 1.20137e-09 8.26991e-08)
(-5.02127e-09 7.82894e-10 2.46499e-07)
(-1.65896e-08 -2.5503e-11 2.03203e-07)
(-7.63678e-09 -2.8309e-09 7.89962e-08)
(-3.51229e-10 -2.89151e-10 2.06149e-07)
(-1.08939e-08 -4.26388e-10 1.45699e-07)
(-1.33393e-10 6.50574e-10 2.08403e-07)
(-1.19183e-09 1.6444e-09 1.55135e-08)
(-7.75422e-10 7.65274e-10 2.63392e-07)
(-5.48298e-09 2.81516e-10 3.39867e-07)
(-1.26938e-09 9.81838e-10 2.94409e-07)
(-8.81682e-09 1.78664e-10 2.14868e-07)
(1.46077e-10 2.09584e-09 1.84898e-08)
(-2.18593e-10 4.81524e-10 6.70927e-08)
(-3.72387e-08 6.08875e-10 1.98284e-07)
(-3.52898e-09 -1.13713e-09 1.69406e-07)
(-9.1512e-10 -1.25298e-09 5.30396e-08)
(-1.35407e-09 -7.53946e-10 1.56668e-07)
(3.63932e-09 -1.46819e-09 2.37388e-08)
(-1.0951e-09 -4.65585e-10 1.86185e-07)
(-3.26122e-11 -4.54017e-10 3.70335e-07)
(-7.09947e-09 4.11837e-10 3.59674e-07)
(-5.03776e-09 1.36413e-10 2.1397e-07)
(-4.25615e-11 2.21314e-10 2.26228e-07)
(3.47717e-09 1.90646e-09 8.62521e-08)
(-1.02398e-08 9.47073e-10 1.92617e-07)
(-3.47156e-09 3.68197e-11 5.16682e-08)
(-8.18848e-09 5.09977e-10 1.71085e-07)
(-7.69039e-09 5.52876e-10 1.82628e-07)
(-2.35975e-09 1.27259e-09 1.84904e-08)
(-1.00758e-08 1.16029e-09 2.14748e-07)
(3.069e-10 1.5434e-09 3.76311e-07)
(6.23003e-10 1.11351e-09 3.21491e-08)
(1.47111e-09 4.77353e-10 5.02855e-07)
(-4.32828e-09 -2.35837e-09 1.11816e-07)
(-1.53994e-08 -3.85736e-09 1.66864e-07)
(-1.59946e-08 -4.09212e-11 1.83407e-07)
(-1.7061e-09 1.73896e-09 1.8893e-07)
(-2.24388e-10 9.68659e-11 2.56631e-07)
(-2.35448e-10 1.71567e-09 1.82399e-07)
(-3.43707e-10 4.04358e-10 1.81148e-07)
(-1.88372e-08 -1.00469e-10 1.83444e-07)
(-5.40182e-10 -4.24997e-10 1.2445e-07)
(3.35109e-09 6.57473e-09 8.60587e-08)
(-4.26072e-09 -1.77531e-09 1.15542e-07)
(1.95972e-09 1.609e-09 2.07336e-07)
(-2.07563e-09 1.54289e-09 6.30252e-08)
(2.98282e-09 1.51839e-09 2.68665e-08)
(2.9959e-09 1.57626e-09 2.37457e-08)
(-3.12746e-09 3.60744e-09 8.61744e-08)
(1.19967e-09 -1.51379e-10 2.34828e-07)
(-2.21841e-10 -1.81473e-10 1.63027e-07)
(2.63364e-09 -4.62801e-09 5.63359e-08)
(-9.20954e-10 -5.60401e-10 1.38969e-07)
(-5.79187e-10 1.11219e-09 1.77292e-07)
(-4.21379e-09 6.64335e-09 1.9116e-07)
(-4.19396e-08 -5.27965e-10 2.80276e-07)
(3.32087e-09 -3.04642e-09 4.38926e-08)
(-7.32437e-09 9.43768e-09 1.90037e-07)
(-3.61394e-08 -8.40451e-11 2.19219e-07)
(7.53282e-11 -1.2596e-10 2.20003e-07)
(1.34247e-09 -1.61457e-09 1.38727e-07)
(-4.36982e-09 -2.66021e-09 1.28372e-07)
(-4.7672e-10 -7.12471e-10 1.44288e-07)
(-3.38471e-10 -8.7555e-10 1.86898e-08)
(-1.64205e-09 1.77202e-09 2.62287e-07)
(1.26976e-09 2.85833e-10 4.03379e-07)
(-3.70274e-10 4.62753e-10 1.74659e-07)
(7.29493e-10 4.97141e-10 1.59416e-07)
(-7.64302e-10 4.65963e-10 1.8131e-07)
(-1.8021e-08 1.19e-09 1.33019e-07)
(-5.05221e-09 1.65475e-10 1.44104e-07)
(-2.25009e-09 -1.02453e-09 3.64484e-08)
(-2.06494e-08 3.23667e-09 2.12151e-07)
(-2.37406e-08 5.58151e-09 1.63202e-07)
(3.90676e-10 -2.29392e-10 1.5776e-07)
(3.15272e-10 -6.11317e-10 2.7948e-07)
(4.62898e-09 5.664e-09 3.26315e-07)
(-5.33643e-10 -2.01649e-09 2.30576e-08)
(5.61208e-10 9.66537e-10 2.55504e-07)
(3.74411e-09 1.05141e-09 3.17773e-07)
(-3.11072e-09 1.8024e-09 1.98511e-07)
(-2.19528e-08 1.9917e-09 1.51807e-07)
(5.46019e-10 1.23691e-09 3.14654e-07)
(-4.93797e-10 3.5839e-09 5.28066e-08)
(-1.53684e-09 1.4452e-09 1.60351e-07)
(-1.75193e-09 3.83121e-09 7.7336e-08)
(-9.23837e-10 -7.03172e-10 3.25875e-07)
(-6.76555e-10 -1.19957e-09 1.41077e-08)
(-4.79628e-10 1.38638e-09 1.51322e-07)
(-7.97003e-10 3.82476e-10 2.14452e-07)
(-2.91809e-09 1.42436e-09 2.83627e-07)
(-7.27742e-09 1.94057e-09 2.03059e-07)
(-4.74572e-09 2.13008e-09 2.06385e-07)
(9.76395e-10 -1.81776e-09 6.40333e-08)
(-3.06151e-10 2.18962e-09 2.08469e-07)
(-2.1058e-11 -2.589e-09 3.21231e-07)
(2.55889e-10 1.99465e-09 5.33073e-08)
(2.2515e-09 2.40815e-09 3.84261e-07)
(7.92707e-10 3.09243e-10 2.17991e-07)
(-1.11142e-09 -3.56095e-09 1.60373e-07)
(-1.40912e-09 8.40161e-10 1.49017e-08)
(-2.91614e-10 -5.33901e-10 2.7981e-07)
(-3.10571e-09 2.09128e-09 3.32488e-07)
(-1.66425e-09 8.57014e-10 1.30022e-07)
(-2.31888e-09 -1.65254e-09 1.60365e-08)
(3.84765e-09 3.35816e-09 8.97919e-08)
(6.34365e-09 -3.53842e-09 1.12712e-07)
(-7.09818e-10 1.54271e-09 4.03597e-08)
(-2.18904e-10 -4.39857e-10 2.2817e-08)
(4.92203e-09 1.28727e-10 1.64214e-07)
(-1.98608e-09 8.53655e-10 3.25793e-07)
(2.07472e-09 -7.18838e-11 1.57218e-07)
(-1.02494e-09 -4.32143e-10 2.79156e-07)
(1.04524e-09 2.03401e-09 1.7454e-08)
(-1.87046e-10 -8.60677e-10 2.14833e-07)
(-1.41316e-09 -1.17432e-09 8.77703e-08)
(-1.1311e-09 8.77978e-10 6.79124e-08)
(-6.19002e-11 -3.03986e-09 1.07094e-07)
(4.30305e-10 -7.25859e-10 1.51658e-07)
(8.32158e-10 1.17434e-09 8.60464e-08)
(-1.75598e-08 -1.87579e-09 4.53387e-07)
(-1.43939e-09 5.47756e-10 2.46621e-07)
(-1.28476e-08 1.22896e-09 3.09886e-07)
(9.87269e-10 -7.19687e-09 1.50122e-07)
(7.38431e-10 4.97708e-10 6.31149e-08)
(-2.39267e-09 -3.91251e-09 3.07616e-07)
(1.17163e-09 3.98615e-09 4.32155e-08)
(-1.08093e-09 -2.16354e-09 3.02345e-08)
(9.68614e-10 2.56929e-09 1.05866e-07)
(2.13074e-10 -5.72852e-10 2.03659e-07)
(-6.42045e-10 1.12209e-09 9.81943e-08)
(-3.6248e-09 7.49811e-10 4.64492e-08)
(1.30262e-10 2.38419e-10 2.04993e-08)
(-1.72417e-10 1.04159e-10 1.91867e-07)
(3.51752e-09 2.00278e-09 2.27398e-07)
(-3.35869e-09 -3.40334e-10 1.58771e-07)
(-2.04296e-09 -6.74394e-09 1.16164e-07)
(-6.37974e-10 -5.05421e-10 2.14313e-07)
(2.80085e-09 -2.36843e-09 9.5259e-08)
(-4.34219e-10 2.02309e-11 3.39482e-07)
(4.21008e-10 7.35064e-10 2.89853e-08)
(1.3074e-09 3.05826e-10 9.81038e-08)
(4.44584e-10 -1.55053e-09 5.73788e-08)
(-7.89704e-09 -3.45693e-10 1.87068e-07)
(9.07753e-10 -1.03297e-09 2.64318e-07)
(-1.62295e-09 -2.13994e-09 7.79857e-08)
(-7.13978e-10 -4.32631e-10 1.91427e-07)
(6.28303e-10 3.45715e-09 3.14595e-07)
(1.37799e-09 -1.60182e-09 1.61752e-08)
(1.62498e-09 1.58044e-09 2.21211e-07)
(-2.89021e-10 -4.30283e-10 2.3899e-07)
(9.71284e-11 -4.91351e-10 3.47276e-07)
(1.17162e-09 -1.19958e-09 1.98598e-07)
(1.718e-10 -5.64649e-10 1.83555e-08)
(4.69369e-09 2.4469e-09 3.03917e-07)
(-5.8844e-10 5.71724e-09 6.1247e-08)
(-4.10305e-09 8.51895e-10 2.52035e-08)
(-1.63862e-09 1.63906e-09 2.323e-07)
(-5.15442e-10 2.31697e-09 9.59865e-08)
(-1.94458e-09 -3.01699e-09 2.95164e-07)
(1.06234e-10 -3.94675e-10 2.8752e-07)
(-1.96481e-09 8.38322e-10 2.73007e-07)
(-1.47743e-09 1.16739e-09 2.07722e-07)
(-2.69503e-09 4.88507e-09 8.38319e-08)
(1.17547e-09 1.10417e-11 2.18873e-07)
(-2.23009e-09 -5.80157e-09 1.20103e-07)
(-2.95979e-10 5.99888e-10 1.95994e-07)
(-8.4801e-10 -9.53587e-10 1.7935e-07)
(8.09447e-10 -1.09664e-09 7.50165e-08)
(-3.75022e-10 -5.38255e-10 2.95776e-07)
(1.42034e-09 4.28161e-10 3.09259e-07)
(-1.15888e-09 -1.20301e-09 3.21128e-08)
(-3.67254e-09 8.3709e-10 6.5914e-08)
(1.37111e-10 9.37965e-10 1.98816e-07)
(-4.49647e-09 7.63102e-09 1.18694e-07)
(4.19257e-10 8.1887e-10 2.41327e-07)
(-4.34024e-10 3.2586e-10 1.79481e-07)
(-1.45715e-09 -9.07063e-10 3.1818e-07)
(-1.3272e-09 -2.25211e-09 2.69853e-08)
(-1.30675e-09 -1.15763e-09 3.15188e-08)
(-1.73661e-09 1.90826e-11 3.94858e-08)
(2.38538e-10 -7.08374e-10 1.09902e-07)
(-2.46378e-09 -5.02197e-10 1.75592e-07)
(-4.13702e-09 1.0549e-09 4.19193e-07)
(2.93424e-09 -4.3473e-10 8.7394e-08)
(7.76965e-10 3.99469e-10 2.50221e-07)
(2.30457e-09 1.63095e-09 1.89098e-08)
(1.46433e-09 1.10114e-09 1.10697e-07)
(2.56985e-09 1.54577e-09 2.71448e-08)
(6.65932e-10 2.37792e-10 1.64026e-07)
(-5.68188e-10 -8.297e-10 1.5364e-07)
(-1.18787e-09 2.8204e-10 1.9699e-07)
(-1.88458e-09 4.40266e-09 1.87331e-07)
(-3.4428e-10 -9.56418e-11 2.77936e-07)
(-8.23438e-10 -5.3169e-10 2.00592e-07)
(1.6837e-09 -2.18369e-10 3.81507e-07)
(-9.43417e-10 2.29569e-10 2.13248e-07)
(6.9863e-10 3.17111e-10 1.92543e-07)
(4.55827e-10 1.39368e-09 2.81869e-07)
(-1.26641e-09 2.5862e-09 2.82825e-07)
(-7.33677e-10 1.08214e-09 3.00159e-07)
(-5.52711e-10 5.14415e-11 1.12476e-07)
(-3.38016e-09 7.59191e-10 2.84027e-07)
(2.37055e-09 3.88144e-09 8.10893e-08)
(-4.7556e-10 3.51625e-09 9.83581e-08)
(-1.87055e-09 1.04078e-09 2.18976e-07)
(-4.62863e-10 1.00574e-09 2.61886e-07)
(6.70792e-09 1.56577e-09 2.39767e-07)
(5.67201e-10 7.24071e-10 2.84337e-07)
(1.62561e-09 9.61181e-11 7.48332e-08)
(-2.70134e-11 -5.12085e-09 1.07783e-07)
(-9.86601e-10 -1.88986e-09 3.04217e-07)
(4.57564e-09 3.50804e-10 2.15775e-07)
(-7.39884e-10 -1.14906e-09 6.17692e-08)
(-6.07623e-10 2.02866e-09 7.46314e-08)
(-3.86042e-09 3.80352e-09 1.6532e-07)
(-5.9386e-10 -4.01616e-10 1.86396e-07)
(-4.58164e-09 5.76046e-09 3.08989e-07)
(-1.00485e-09 2.41245e-09 1.49551e-07)
(-2.22063e-09 -3.2473e-10 3.34027e-07)
(1.26285e-10 5.27871e-09 1.91148e-07)
(-1.1469e-09 -2.43596e-09 1.95772e-08)
(1.44097e-09 1.10645e-09 2.97606e-07)
(2.4513e-09 -1.87677e-09 2.89039e-08)
(2.28116e-09 1.18215e-09 5.24716e-08)
(-1.76551e-09 -8.15399e-10 3.52526e-07)
(-6.54397e-10 1.76845e-10 2.50535e-07)
(-3.75226e-09 1.97096e-09 2.78384e-08)
(-3.7462e-10 -2.51424e-09 2.98831e-07)
(-2.34045e-09 -4.15186e-09 2.46939e-07)
(-1.86792e-09 8.71283e-10 2.49312e-07)
(9.86778e-10 -7.01703e-10 3.2371e-07)
(1.98223e-09 -1.99703e-09 2.32948e-08)
(-1.22337e-10 9.90624e-10 2.78933e-07)
(-3.66004e-10 -3.64896e-10 1.48179e-07)
(-4.18655e-10 -6.70329e-10 1.59096e-07)
(-1.81634e-09 2.53816e-10 2.53191e-07)
(-1.52858e-09 1.10844e-09 1.70307e-07)
(-7.53391e-10 -6.93909e-10 1.7765e-07)
(2.03962e-10 -1.66182e-09 2.65353e-07)
(-4.68788e-12 2.26464e-09 3.87506e-08)
(2.7963e-10 -1.52565e-09 2.81952e-07)
(8.87213e-10 8.97154e-10 1.90433e-07)
(-8.76211e-10 -6.51647e-10 3.60036e-07)
(-1.04643e-09 -1.84162e-10 2.66515e-07)
(1.39667e-09 -1.67545e-09 3.08605e-07)
(2.36639e-09 -2.77578e-09 1.36668e-07)
(-6.08925e-10 -1.27103e-09 1.9794e-08)
(8.96127e-10 5.36945e-10 3.55172e-08)
(-3.89465e-09 1.22608e-09 5.09923e-07)
(-2.6427e-09 1.08498e-09 1.82875e-08)
(-2.23867e-09 -2.16304e-09 1.7308e-07)
(-1.41362e-09 4.1468e-09 7.33903e-08)
(-5.25506e-10 -1.57235e-09 3.12999e-07)
(-1.06418e-09 -2.71871e-10 3.7127e-07)
(-4.90386e-10 1.08945e-09 3.13871e-07)
(2.31553e-09 1.42892e-09 1.22718e-07)
(7.75314e-09 2.60572e-11 2.96103e-07)
(1.13024e-10 7.22614e-09 6.7788e-08)
(6.066e-10 -2.68926e-09 8.72922e-08)
(-3.03313e-10 7.74367e-10 1.99011e-07)
(7.34614e-10 -2.173e-09 1.56234e-07)
(-3.19383e-08 -3.84689e-09 2.69477e-07)
(4.65124e-10 -4.45434e-09 1.91959e-07)
(-7.042e-10 -7.71175e-11 6.42182e-08)
(3.52365e-09 -2.12476e-10 1.02932e-07)
(-1.25777e-09 -3.37269e-09 2.06843e-07)
(-2.51426e-10 -5.24722e-11 2.14069e-07)
(7.53004e-10 -2.16963e-09 4.17639e-07)
(-9.60381e-10 7.0927e-10 2.22625e-07)
(3.90428e-10 3.77512e-09 4.87632e-07)
(-1.00967e-08 -1.18825e-09 1.66726e-07)
(-2.96314e-09 -1.54446e-10 3.37366e-07)
(-2.28911e-09 1.28842e-09 2.75357e-07)
(8.47528e-10 2.97765e-10 1.96478e-07)
(2.08763e-09 1.47437e-10 3.36146e-07)
(-4.80933e-09 -4.17306e-09 1.0358e-07)
(2.89071e-09 -1.17442e-09 2.31535e-08)
(2.38798e-09 1.20488e-10 2.93606e-07)
(1.69147e-09 3.86125e-09 5.82112e-08)
(4.43157e-11 -1.40961e-10 2.82351e-08)
(-4.18468e-09 -5.64039e-11 3.9222e-07)
(7.07383e-10 4.77998e-10 1.99791e-07)
(-3.48805e-09 4.58798e-09 1.06615e-07)
(-8.43947e-10 -1.31702e-09 2.52267e-07)
(8.73687e-10 2.62993e-09 3.26759e-07)
(-2.26149e-09 7.01439e-10 4.19559e-07)
(-1.75168e-09 9.81127e-11 2.65447e-07)
(-9.94809e-11 -1.4621e-09 3.11171e-08)
(3.60646e-11 -8.0012e-11 3.15886e-07)
(-1.64726e-09 4.09097e-10 2.16661e-07)
(4.00544e-10 1.31186e-09 9.86254e-08)
(-3.83995e-10 -1.98419e-09 2.91799e-07)
(-7.3165e-10 6.50929e-10 2.49133e-07)
(8.68704e-10 7.6626e-10 1.73614e-07)
(9.73642e-10 1.19479e-09 1.99498e-07)
(-5.51561e-10 -3.09491e-09 2.75517e-07)
(1.13093e-09 1.56109e-09 2.01127e-07)
(-4.29158e-10 1.62222e-10 7.76074e-08)
(-3.93153e-10 9.75957e-10 2.00155e-08)
(3.68027e-10 2.8474e-09 3.91983e-08)
(1.13622e-09 -2.41649e-10 2.19248e-07)
(-3.91167e-08 -2.04234e-10 2.67849e-07)
(-1.14123e-08 1.19435e-09 1.15794e-07)
(4.58789e-10 -4.77687e-10 1.11318e-07)
(3.32256e-09 -2.84312e-09 2.4764e-07)
(-1.01528e-09 1.2871e-09 3.08056e-07)
(-6.1432e-09 5.55298e-10 2.31174e-07)
(1.12732e-09 1.78049e-09 3.58466e-07)
(-1.16479e-09 -1.59879e-09 3.37554e-07)
(-4.73335e-11 -8.97129e-10 2.23164e-07)
(-8.82318e-10 -1.2677e-10 1.38151e-07)
(-3.25172e-10 6.94186e-10 2.37904e-08)
(-4.78679e-08 1.73842e-09 2.41052e-07)
(6.59703e-10 2.27682e-09 8.69968e-08)
(-1.51138e-09 2.51193e-09 6.36243e-08)
(1.40189e-09 5.46346e-10 6.72779e-08)
(2.27829e-10 6.40413e-10 1.72517e-07)
(-8.25036e-10 4.98476e-10 1.73132e-07)
(-1.72979e-09 6.09604e-10 2.35201e-07)
(-1.10915e-09 1.31718e-09 1.68973e-08)
(5.28519e-10 -4.08111e-10 1.69496e-07)
(1.69597e-09 -1.01421e-09 6.4253e-08)
(-2.49415e-10 3.8555e-10 1.8586e-07)
(-5.84781e-10 7.0289e-10 5.52619e-08)
(4.23198e-09 1.7724e-09 1.47075e-07)
(1.6249e-09 5.60916e-09 2.18468e-07)
(-1.94709e-09 -2.87941e-10 1.8522e-07)
(2.52658e-09 -1.86022e-10 1.87742e-08)
(-2.25329e-10 4.95032e-09 1.12129e-07)
(5.93794e-11 -1.09846e-09 2.38556e-07)
(6.01534e-11 -2.51004e-09 2.50306e-08)
(-2.07293e-08 -6.19092e-10 2.89507e-07)
(8.06082e-10 -4.11417e-09 1.82109e-07)
(-3.31824e-10 -4.72141e-09 3.03288e-07)
(4.86801e-09 -5.55652e-09 1.9971e-07)
(2.36603e-09 7.79428e-10 9.36744e-08)
(1.73813e-09 -6.91805e-10 3.92526e-07)
(-1.87117e-08 -5.93854e-09 1.42014e-07)
(-8.17677e-10 -2.33937e-10 3.26756e-07)
(-1.73786e-08 1.12732e-09 1.55489e-07)
(-5.11165e-09 3.76634e-09 1.41396e-07)
(-9.34113e-10 3.37525e-09 1.43463e-07)
(-1.80138e-10 -7.97331e-10 2.70158e-07)
(1.5124e-09 -1.90603e-09 5.3668e-07)
(9.2804e-10 -8.08318e-10 8.01683e-08)
(-8.77055e-10 -1.75697e-09 3.37257e-07)
(-2.72616e-09 9.15721e-10 1.1968e-07)
(3.41362e-10 -1.47741e-09 4.32589e-07)
(6.82914e-10 -1.81464e-09 3.29965e-07)
(-1.62054e-09 -5.37603e-09 6.97668e-08)
(-7.51053e-10 1.55786e-09 2.17847e-07)
(6.08449e-09 -4.87623e-10 3.81108e-07)
(-9.19096e-10 -6.36254e-10 2.27812e-07)
(4.7031e-10 -1.1372e-09 2.21437e-07)
(2.73928e-09 -1.44687e-09 2.36236e-08)
(-2.58821e-09 -6.89742e-10 1.97732e-08)
(-3.38988e-09 3.12924e-09 2.93461e-07)
(7.84209e-11 -4.7723e-11 2.82168e-07)
(1.70951e-09 1.206e-09 2.19004e-07)
(-2.33477e-09 1.24126e-09 3.58117e-08)
(6.54432e-10 -5.56706e-10 8.85555e-08)
(-3.3875e-09 -2.61102e-10 3.02464e-07)
(-3.05709e-10 -5.3845e-10 1.66583e-07)
(4.57101e-10 1.4363e-09 3.07408e-07)
(1.31968e-09 3.26294e-10 2.82296e-07)
(-5.19289e-11 -1.16753e-09 2.17458e-07)
(-3.85678e-10 -2.09358e-09 2.31885e-07)
(4.16738e-10 -7.8974e-10 1.22071e-07)
(-9.33394e-10 4.76633e-10 2.11745e-07)
(-2.9656e-09 3.62971e-09 8.83375e-08)
(-8.24735e-10 1.97546e-10 2.86606e-07)
(-1.70176e-09 -1.06088e-09 1.90462e-07)
(-1.3934e-09 -3.58407e-10 2.14052e-07)
(-2.66838e-10 -2.11582e-10 2.19095e-07)
(-3.09703e-10 1.06123e-09 3.50065e-07)
(1.80648e-09 -1.24011e-09 2.65365e-07)
(2.94697e-09 4.40749e-09 6.8009e-08)
(1.17626e-09 3.62482e-11 4.48509e-08)
(-1.80755e-09 -1.84494e-09 1.95893e-08)
(-1.27525e-08 6.46378e-11 2.31542e-07)
(2.77125e-10 7.54105e-11 2.91131e-07)
(-2.06744e-09 3.75125e-10 2.71668e-07)
(-1.34472e-10 -1.56991e-09 1.93336e-07)
(1.10094e-09 2.06507e-10 2.99857e-08)
(6.94351e-10 -2.52285e-09 2.26066e-08)
(-9.9265e-10 -2.65633e-09 1.81414e-07)
(-1.72199e-09 1.46596e-09 2.31763e-07)
(-6.64682e-10 -1.59054e-09 3.07877e-07)
(8.49311e-10 -3.74128e-10 3.19271e-07)
(-2.11667e-09 -9.34245e-12 1.98944e-07)
(-8.50756e-10 3.90503e-10 3.37546e-07)
(3.33273e-09 1.12474e-10 3.75602e-07)
(-1.35901e-09 2.74494e-09 3.18101e-08)
(1.93076e-10 1.10451e-09 1.83356e-07)
(3.36013e-09 -1.91222e-09 7.34258e-08)
(-9.91276e-09 -1.09222e-09 9.75762e-08)
(-3.24943e-10 2.31122e-10 1.27981e-07)
(6.2817e-10 -3.39078e-10 1.43106e-07)
(-1.77728e-10 2.32503e-10 2.52331e-07)
(-3.2953e-09 2.07033e-09 1.94936e-08)
(1.12262e-09 -1.2974e-09 3.51411e-07)
(-4.91334e-10 -1.38854e-10 2.6327e-07)
(-9.52806e-10 3.55538e-12 2.13001e-07)
(1.52711e-09 -1.45422e-09 2.03243e-07)
(4.17719e-10 -1.6845e-09 1.70774e-07)
(-6.83469e-10 -1.20349e-09 2.58712e-07)
(-1.32662e-10 8.63059e-10 2.47515e-07)
(-1.59548e-09 7.52931e-10 2.99066e-07)
(-8.62442e-09 -9.65102e-10 1.6713e-07)
(-7.73179e-10 -6.88778e-10 2.65747e-07)
(-4.90342e-09 1.93455e-09 2.89992e-07)
(1.36483e-09 -1.15232e-09 1.8625e-08)
(2.42745e-10 4.57231e-10 3.01899e-07)
(2.21889e-09 2.73737e-09 1.91747e-07)
(-4.15226e-09 -3.85115e-09 6.51533e-08)
(-1.79231e-09 2.74435e-09 1.72657e-07)
(6.57042e-10 2.69622e-10 3.40939e-07)
(6.13552e-12 -1.71828e-09 2.24913e-07)
(1.35275e-09 3.14957e-09 1.19598e-07)
(-2.04124e-09 1.42443e-09 1.83679e-08)
(-1.26974e-10 8.8426e-10 2.54022e-07)
(1.56464e-09 6.50389e-09 3.37079e-07)
(-1.00111e-09 -6.5496e-11 2.34991e-07)
(-1.11792e-09 -2.44558e-10 1.88838e-07)
(-3.5911e-09 9.60635e-10 5.79387e-08)
(7.61828e-10 -4.45343e-11 2.51427e-07)
(-4.01762e-09 3.12721e-10 2.65867e-08)
(3.45857e-11 8.14259e-10 1.72942e-07)
(-2.43938e-08 1.22913e-09 2.08664e-07)
(1.68968e-09 8.02815e-10 2.53256e-07)
(-4.24253e-10 3.07686e-09 8.90065e-08)
(-2.11927e-09 2.72569e-09 1.83964e-07)
(-2.82147e-10 1.54065e-09 1.16338e-07)
(2.72746e-09 -2.45931e-09 4.79437e-08)
(6.94706e-10 1.22311e-09 4.58489e-07)
(-8.87737e-10 -5.11391e-10 2.09218e-07)
(-1.73246e-09 -6.67368e-10 1.792e-08)
(-6.28344e-11 -9.40585e-10 2.78039e-07)
(-1.02045e-09 9.58403e-11 2.78197e-07)
(-6.12607e-10 2.23746e-09 3.91978e-08)
(3.10234e-09 4.75316e-09 1.28636e-07)
(-2.6331e-09 3.66631e-09 9.97591e-08)
(-7.25934e-10 5.66267e-10 1.89795e-07)
(-3.14618e-10 -4.80734e-10 2.55896e-07)
(-1.3124e-09 1.31419e-09 3.50531e-08)
(2.96138e-09 -1.30702e-09 9.18292e-08)
(-3.75384e-10 2.00724e-09 1.0282e-07)
(1.85557e-09 1.37293e-09 1.7686e-07)
(-7.82481e-10 -6.54916e-10 3.30903e-07)
(-2.77551e-09 -1.88711e-09 2.36605e-08)
(2.28088e-09 7.31148e-10 3.64156e-07)
(-4.47863e-09 -1.4935e-09 2.3665e-07)
(-1.34475e-11 -1.84099e-09 2.69603e-07)
(-2.97648e-09 -6.12107e-09 1.14194e-07)
(1.75906e-09 7.24207e-10 3.29726e-07)
(1.20188e-09 -2.23861e-09 2.31614e-08)
(-9.59829e-10 -2.79915e-10 2.94735e-07)
(1.72643e-10 -4.08404e-10 2.79861e-08)
(-3.65835e-10 -4.19866e-09 1.36774e-07)
(-1.64808e-12 1.76557e-09 2.26413e-07)
(-2.51099e-09 3.52156e-09 1.38592e-07)
(-2.59878e-09 1.53639e-09 1.9372e-08)
(4.63535e-10 -1.83477e-09 5.11686e-08)
(6.88355e-10 4.80674e-09 7.66322e-08)
(1.77296e-09 -4.201e-09 1.32849e-07)
(-1.65105e-09 -1.07518e-10 3.25628e-07)
(-5.12845e-11 1.32417e-09 5.81308e-08)
(2.57156e-09 -4.42153e-09 1.37272e-07)
(-2.72285e-08 1.11091e-09 2.25739e-07)
(-7.74025e-10 -6.77373e-10 2.11607e-07)
(1.91336e-09 1.95341e-11 2.93048e-08)
(5.2151e-10 2.26909e-09 2.26759e-07)
(-1.53782e-08 -7.79808e-09 1.47316e-07)
(1.06736e-09 8.91957e-11 1.99429e-07)
(-1.82336e-09 1.48893e-09 1.00842e-07)
(-1.23943e-09 -5.6253e-10 1.74584e-07)
(2.49421e-09 4.75126e-09 1.07338e-07)
(-9.25626e-10 6.77849e-10 1.61876e-07)
(-5.74686e-10 1.36353e-10 1.58882e-07)
(3.91387e-09 -6.20833e-09 7.30166e-08)
(-8.17489e-11 -3.3933e-11 2.93256e-07)
(-4.75214e-09 -1.23989e-09 7.11013e-08)
(2.16279e-09 -1.36805e-09 1.57184e-08)
(-1.29343e-09 1.55983e-09 3.15989e-07)
(2.52166e-10 -1.70626e-10 1.87307e-07)
(-2.10287e-09 1.24281e-09 2.9465e-07)
(1.40845e-09 -2.94988e-09 2.28106e-07)
(2.91296e-09 -2.82374e-10 4.58033e-07)
(3.93609e-09 -3.59769e-10 1.38712e-07)
(2.66349e-09 -7.89828e-10 4.04949e-07)
(2.28895e-09 4.77997e-09 9.87631e-08)
(-1.42776e-10 -3.32003e-10 1.50983e-07)
(4.46653e-09 1.89308e-09 3.06549e-07)
(-3.85526e-09 -2.5646e-09 3.26958e-08)
(-1.96484e-09 5.89584e-10 3.01696e-07)
(2.40805e-09 -2.79777e-09 1.14954e-07)
(1.4991e-09 2.68442e-09 3.01301e-08)
(-1.90262e-09 7.27377e-10 2.76988e-07)
(-2.38683e-09 1.32861e-10 6.30527e-08)
(-2.56605e-11 5.05084e-10 2.03121e-07)
(1.18337e-10 1.24052e-09 2.18803e-07)
(-5.13891e-10 1.56258e-09 3.7403e-07)
(2.10145e-10 6.4001e-09 9.66114e-08)
(2.5192e-09 -2.91245e-10 2.87054e-07)
(2.95386e-09 7.73946e-10 1.53199e-07)
(7.20634e-11 7.16828e-10 3.15978e-07)
(-6.63732e-10 4.54049e-10 3.19845e-07)
(5.41631e-10 1.36955e-09 2.81271e-07)
(-2.92592e-11 -5.32025e-11 1.6678e-07)
(3.30351e-09 -1.31621e-09 4.89449e-08)
(5.11884e-10 5.50881e-10 7.03281e-08)
(3.09341e-10 -1.22513e-10 1.78677e-07)
(2.22924e-10 -2.99797e-09 2.8737e-07)
(4.42657e-10 2.19505e-09 2.86598e-08)
(7.65793e-10 -2.93942e-10 2.46658e-07)
(-1.83536e-11 7.2819e-10 4.75077e-07)
(1.01658e-09 1.54374e-09 3.50637e-07)
(1.65637e-09 1.89133e-09 3.77046e-07)
(-3.10045e-09 1.65684e-09 2.49286e-07)
(-1.57887e-09 2.21056e-09 2.03529e-08)
(7.85771e-10 -2.06449e-11 2.28386e-07)
(1.19818e-09 -2.00538e-09 1.48229e-07)
(-9.66453e-10 9.78288e-10 2.65709e-07)
(-2.5082e-10 3.87146e-10 1.61198e-07)
(-2.16268e-09 -1.36723e-09 3.58232e-08)
(-7.96974e-10 -2.57556e-10 2.10571e-07)
(-3.36469e-09 4.26172e-09 1.51634e-07)
(3.71676e-10 -4.56178e-10 2.44543e-07)
(9.83955e-10 1.06725e-09 2.71928e-07)
(-1.18634e-09 1.93736e-09 2.00259e-07)
(1.25165e-09 1.62698e-09 1.37992e-08)
(-2.12234e-09 9.75893e-10 2.02532e-08)
(-2.57659e-10 -8.542e-11 1.87824e-07)
(1.75171e-09 -1.30823e-09 3.08806e-07)
(-8.36121e-10 1.42663e-09 2.30852e-07)
(-1.23553e-09 -9.53561e-10 1.83086e-07)
(-6.12279e-10 2.55264e-09 1.61138e-07)
(-7.85492e-10 1.87982e-09 2.56437e-07)
(1.45183e-11 1.10862e-09 2.89141e-07)
(7.03348e-10 1.62233e-09 1.96304e-08)
(-4.81281e-10 -3.83414e-11 1.49448e-07)
(-1.93013e-08 1.20327e-09 1.74096e-07)
(-9.24199e-11 2.57164e-09 4.6658e-08)
(-6.03402e-10 5.60536e-09 8.53807e-08)
(-6.09266e-10 1.92291e-09 3.06744e-07)
(2.82201e-09 -1.08741e-09 2.12348e-07)
(3.84985e-10 -6.98778e-10 1.97671e-07)
(1.599e-09 -1.02626e-09 2.36571e-07)
(-4.11829e-09 2.92395e-09 1.3969e-07)
(-3.42818e-10 -3.38252e-10 3.345e-07)
(1.26577e-09 -5.48477e-09 1.80389e-07)
(1.9598e-09 -1.11717e-09 4.29738e-07)
(3.35515e-10 1.10282e-09 2.20244e-07)
(9.99126e-10 -3.29211e-10 2.42309e-07)
(9.61258e-10 -1.2411e-09 3.17556e-07)
(1.92386e-09 1.44008e-09 4.81217e-08)
(2.56774e-09 -9.36023e-11 5.41265e-07)
(-3.4559e-10 -1.69212e-09 3.3822e-08)
(-1.66892e-08 -2.27011e-09 1.48934e-07)
(3.88252e-09 -2.75813e-09 1.17143e-07)
(-1.68457e-08 -7.74089e-11 1.61656e-07)
(1.23594e-09 1.07193e-09 2.14453e-07)
(-4.82973e-08 1.16962e-09 2.90721e-07)
(1.23242e-10 4.20603e-10 1.3986e-07)
(-8.41674e-10 -2.95121e-10 3.24116e-07)
(-1.66038e-09 4.03148e-10 3.39528e-07)
(7.67129e-10 1.05088e-09 2.15239e-07)
(-6.45997e-10 -1.93098e-10 3.53521e-08)
(-5.36577e-09 1.67765e-10 1.18484e-07)
(-3.01476e-08 2.12674e-09 2.10294e-07)
(-3.7152e-10 -1.77534e-10 2.17483e-07)
(-6.67987e-10 2.06915e-09 1.01117e-07)
(-2.25711e-08 1.5272e-09 2.18117e-07)
(-8.57722e-09 5.04696e-10 2.38205e-07)
(1.69572e-09 2.97323e-09 3.1003e-07)
(-1.68893e-09 -7.03069e-10 4.44902e-08)
(1.47488e-09 2.68773e-09 5.44043e-08)
(-2.58359e-10 -1.51348e-10 2.7461e-08)
(1.13029e-09 1.03267e-09 1.98702e-08)
(-2.5684e-10 -8.91409e-13 4.45662e-08)
(-1.7943e-08 6.18217e-10 2.21575e-07)
(-1.08566e-09 -6.19283e-10 1.83313e-07)
(-1.81215e-09 -2.00347e-09 1.8902e-08)
(-2.64658e-09 7.12893e-10 2.08099e-08)
(4.59662e-10 4.59205e-10 3.56303e-07)
(-2.57612e-08 5.65292e-09 1.6614e-07)
(-2.19405e-09 1.58929e-10 4.7254e-08)
(-7.81031e-10 -1.50968e-10 2.28462e-07)
(-1.68464e-09 9.05179e-10 1.08395e-07)
(1.8089e-09 -5.10571e-10 2.03681e-07)
(1.46435e-09 2.21847e-09 4.47533e-08)
(-1.90198e-09 -2.45269e-09 9.39954e-08)
(3.98909e-10 2.0929e-09 1.93766e-07)
(1.07812e-09 5.34583e-10 2.71345e-07)
(9.09542e-10 1.98436e-09 4.0128e-07)
(-2.23109e-09 3.06469e-09 4.34362e-08)
(-6.45731e-10 -2.18634e-09 2.48172e-08)
(-3.58797e-08 3.85933e-10 2.01611e-07)
(-2.99502e-09 2.14609e-09 2.82195e-08)
(-2.14054e-10 3.20837e-09 3.12033e-07)
(-3.80706e-09 -1.21163e-09 2.92229e-08)
(8.68386e-10 3.08267e-09 1.4915e-07)
(-1.39858e-09 -5.56433e-10 3.09357e-07)
(3.0437e-09 7.10554e-10 4.33338e-07)
(-5.87856e-10 -1.37386e-09 5.97339e-08)
(1.26732e-09 -8.29328e-10 1.40736e-07)
(-2.13232e-09 -3.01911e-10 3.90983e-08)
(-3.66005e-09 -2.11376e-10 2.91458e-08)
(1.64254e-10 -1.16752e-09 2.63947e-07)
(-2.06782e-09 1.01339e-09 1.4918e-08)
(1.0057e-09 3.64411e-10 1.81123e-07)
(-5.64329e-10 -3.15326e-09 6.20654e-08)
(-5.08011e-10 2.42247e-09 3.27126e-07)
(-3.61829e-10 9.37272e-10 2.27804e-07)
(2.91165e-09 1.17904e-09 1.94937e-08)
(-2.41611e-09 -6.23527e-09 1.36206e-07)
(-7.07064e-11 1.12122e-09 2.49049e-07)
(-1.25485e-10 1.52834e-09 3.1726e-08)
(1.0509e-09 -7.03291e-10 2.89493e-07)
(-1.96192e-09 5.59249e-09 8.00905e-08)
(5.23859e-10 2.19683e-10 2.16186e-07)
(1.06669e-09 4.72573e-10 2.29395e-07)
(2.0784e-09 3.40654e-11 5.6002e-08)
(-2.89155e-09 -5.86977e-10 2.15164e-08)
(-1.85416e-09 -6.34768e-10 9.36852e-08)
(-3.913e-08 2.00809e-10 2.4363e-07)
(-1.21538e-09 1.74582e-11 2.27818e-07)
(1.67194e-10 5.1936e-09 7.81892e-08)
(2.82953e-09 -4.79611e-10 1.85314e-07)
(3.83223e-10 1.0623e-09 2.48108e-08)
(1.20658e-09 3.41203e-10 2.03581e-07)
(1.06041e-09 1.40648e-09 2.34771e-08)
(-1.24885e-09 1.11428e-09 3.35768e-07)
(5.15678e-10 2.25267e-10 3.02401e-07)
(-2.28009e-10 1.17716e-10 2.20716e-07)
(-1.4615e-09 -1.74552e-10 1.46203e-08)
(1.25472e-09 -2.69544e-10 3.43197e-07)
(-1.0801e-09 8.25353e-10 1.57238e-07)
(2.08075e-10 4.04481e-10 3.58009e-07)
(1.81736e-10 6.61805e-10 6.35629e-08)
(-3.01228e-08 8.06753e-10 2.22556e-07)
(-2.19553e-09 1.22429e-09 2.63667e-07)
(1.14873e-09 -6.45103e-11 6.65706e-08)
(4.46673e-12 1.09871e-09 2.54883e-07)
(-3.94845e-08 4.59829e-09 2.10056e-07)
(-1.17292e-09 -6.05861e-10 1.8246e-07)
(-7.81422e-10 -1.85656e-09 3.31671e-08)
(-2.47137e-09 4.85896e-09 1.02299e-07)
(-2.488e-10 1.63204e-10 1.92135e-07)
(1.28821e-09 -1.8086e-09 2.18655e-07)
(-1.09455e-09 1.31771e-09 3.23569e-08)
(-5.29286e-10 -4.17255e-09 2.19844e-07)
(4.14723e-09 3.06917e-09 1.59497e-07)
(-1.71733e-09 1.98167e-09 2.49214e-08)
(-5.3556e-10 4.17835e-11 2.04375e-07)
(-1.5505e-08 7.37698e-10 1.58317e-07)
(-2.56837e-09 -5.51334e-09 3.26633e-07)
(-1.2507e-10 4.6241e-10 2.01708e-07)
(4.97199e-10 3.91067e-10 1.83185e-07)
(6.19678e-10 -8.6458e-10 3.10268e-07)
(1.44869e-09 -1.86011e-10 2.56457e-07)
(1.88326e-09 6.1869e-10 7.12547e-08)
(-8.87031e-10 4.95017e-09 7.28442e-08)
(1.28392e-09 8.81813e-10 3.78211e-07)
(-2.68002e-08 -1.15501e-09 2.24784e-07)
(3.90921e-10 2.21063e-09 2.10156e-07)
(2.15311e-09 -1.53892e-09 1.89112e-07)
(2.97402e-09 -1.40164e-09 1.28108e-07)
(-1.14733e-09 2.49157e-09 3.22734e-07)
(3.19084e-10 1.2226e-09 2.03001e-07)
(-1.91155e-09 -1.67145e-09 1.82527e-07)
(-3.23822e-09 2.76278e-09 2.27124e-07)
(-1.53502e-09 2.35936e-09 4.37501e-08)
(-1.49552e-09 -8.22932e-10 1.71861e-07)
(-2.53396e-09 -1.92305e-09 3.97614e-08)
(1.60332e-09 -2.04015e-09 3.12759e-07)
(4.25016e-10 -2.69364e-10 3.24319e-07)
(-9.7676e-10 4.88054e-09 1.67161e-07)
(1.06565e-10 -1.58014e-09 1.61965e-07)
(1.05082e-09 -1.58768e-09 1.79409e-08)
(1.92604e-10 -9.82988e-10 1.06024e-07)
(-3.79579e-09 -1.76822e-09 7.62362e-08)
(-1.24575e-09 1.08008e-09 2.63541e-07)
(1.86535e-09 2.83362e-10 2.36563e-07)
(-2.38005e-08 -1.54368e-09 2.20563e-07)
(-2.47458e-09 7.18019e-10 3.12671e-07)
(-1.44255e-09 2.75786e-09 8.27803e-08)
(-1.11924e-08 5.08175e-10 1.36571e-07)
(9.83243e-10 -4.32149e-09 2.45875e-07)
(1.95447e-09 9.20586e-10 2.77019e-08)
(1.38366e-09 -2.26377e-10 2.42919e-07)
(-2.23894e-10 1.54198e-09 5.44404e-08)
(-1.95442e-09 -5.6355e-10 2.06686e-07)
(4.12281e-09 -2.10908e-09 3.24129e-08)