/*--------------------------------*- C++ -*----------------------------------*\
| =========                 |                                                 |
| \\      /  F ield         | OpenFOAM: The Open Source CFD Toolbox           |
|  \\    /   O peration     | Version:  2406                                  |
|   \\  /    A nd           | Website:  www.openfoam.com                      |
|    \\/     M anipulation  |                                                 |
\*---------------------------------------------------------------------------*/
FoamFile
{
    version     2.0;
    format      ascii;
    arch        "LSB;label=32;scalar=64";
    class       volVectorField;
    location    "44";
    object      momentum:momentum;
}
// * * * * * * * * * * * * * * * * * * * * * * * * * * * * * * * * * * * * * //

dimensions      [1 1 -1 0 0 0 0];

internalField   nonuniform List<vector> 
59516
(
(2.25771e-07 -9.6814e-10 -1.07404e-09)
(1.69e-07 -1.98732e-10 -6.97171e-10)
(2.05986e-07 -1.61008e-09 -6.68752e-10)
(1.74243e-07 2.02343e-09 2.63694e-09)
(2.00125e-07 3.66442e-10 -8.01748e-09)
(5.03646e-08 -2.40751e-09 -5.37988e-09)
(2.11159e-07 -1.75171e-09 -3.07551e-09)
(1.98216e-07 1.44301e-09 -1.33275e-10)
(1.58555e-07 1.3653e-09 -1.27615e-11)
(8.09774e-08 -1.51749e-09 3.20764e-09)
(2.08024e-07 -3.09101e-10 -3.02023e-09)
(1.02521e-07 5.4077e-10 -6.17091e-09)
(3.24845e-07 3.03677e-09 -2.05179e-10)
(1.58581e-08 -7.83517e-11 -1.62497e-10)
(1.53934e-07 3.74581e-09 8.26803e-09)
(8.58696e-08 5.95327e-09 -2.78886e-09)
(2.67086e-07 -1.99323e-09 -1.17751e-09)
(1.59892e-07 9.09751e-09 -9.87753e-09)
(3.30383e-07 1.68492e-08 2.12687e-09)
(3.69866e-07 -1.3666e-09 7.74036e-10)
(9.9968e-08 1.58676e-09 -2.23084e-09)
(3.18422e-07 -1.41023e-09 5.92376e-10)
(3.51361e-07 -6.72206e-10 -3.61259e-09)
(3.52867e-08 -1.0707e-09 -2.54887e-10)
(3.11147e-07 -9.0855e-10 1.49434e-09)
(2.03742e-07 4.41009e-09 2.14419e-09)
(5.29992e-08 1.06486e-09 -3.57161e-09)
(7.42822e-08 6.28501e-09 3.83992e-10)
(1.45192e-07 5.80689e-09 -1.04869e-09)
(1.36933e-08 -2.13409e-09 5.46519e-10)
(1.89438e-07 -3.6788e-08 -8.10576e-09)
(8.3891e-08 6.65937e-09 -1.02425e-09)
(1.75242e-07 2.75907e-10 1.10633e-09)
(1.76445e-07 -1.35279e-09 3.5829e-09)
(1.33464e-07 4.81131e-09 3.61332e-09)
(3.99353e-07 2.95704e-10 -7.67472e-10)
(1.32819e-08 -1.29394e-09 -1.85389e-09)
(1.31764e-07 5.03576e-09 -1.26872e-08)
(2.6768e-07 -1.02668e-08 -8.51023e-10)
(2.79853e-07 -1.26266e-09 -1.11266e-09)
(2.59695e-07 -1.66967e-09 2.89863e-10)
(4.06748e-07 -2.36568e-08 -2.18362e-08)
(3.4311e-07 -8.28405e-09 -6.66883e-09)
(1.11929e-07 -7.52042e-10 4.08679e-10)
(2.65317e-07 -8.46834e-09 -3.23834e-10)
(1.03686e-07 -1.46514e-09 -2.45876e-09)
(3.2504e-07 -6.55837e-09 -9.89738e-09)
(2.53498e-07 -6.93181e-09 -1.19465e-09)
(2.51861e-07 -2.03225e-08 2.79554e-08)
(2.40536e-07 1.02962e-08 8.33731e-09)
(1.6391e-07 1.65034e-08 -2.28827e-08)
(7.75055e-08 -6.4808e-09 4.42924e-09)
(3.17705e-07 2.45418e-09 -6.08944e-09)
(3.02401e-07 -1.30466e-09 1.59145e-10)
(8.26991e-08 5.10308e-09 4.30525e-11)
(2.46499e-07 4.88755e-09 -1.3921e-09)
(2.03203e-07 1.14942e-08 1.19624e-08)
(7.89962e-08 6.65627e-09 -4.69344e-09)
(2.06149e-07 4.33424e-10 -1.38254e-10)
(1.45699e-07 6.73623e-09 8.57223e-09)
(2.08403e-07 -5.08947e-10 4.2663e-10)
(1.55135e-08 1.918e-09 -6.67687e-10)
(2.63392e-07 1.0452e-09 3.07368e-10)
(3.39867e-07 4.55103e-09 3.07091e-09)
(2.94409e-07 6.11524e-10 -1.4837e-09)
(2.14868e-07 5.07939e-09 7.20889e-09)
(1.84898e-08 -1.24904e-09 1.68931e-09)
(6.70927e-08 4.02784e-10 -3.42658e-10)
(1.98284e-07 -8.2716e-09 3.63135e-08)
(1.69406e-07 1.54827e-09 -3.36892e-09)
(5.30396e-08 1.48957e-09 4.34249e-10)
(1.56668e-07 1.54454e-09 1.27805e-10)
(2.37388e-08 1.48889e-09 -3.6309e-09)
(1.86185e-07 9.90334e-10 6.59734e-10)
(3.70335e-07 6.91685e-11 -4.49901e-10)
(3.59674e-07 -4.50298e-09 -5.50412e-09)
(2.1397e-07 -2.8302e-09 -4.16984e-09)
(2.26228e-07 -1.69127e-10 -1.48955e-10)
(8.62521e-08 -2.9056e-09 2.69867e-09)
(1.92617e-07 3.81708e-09 9.54883e-09)
(5.16682e-08 3.14255e-09 1.4756e-09)
(1.71085e-07 4.58627e-09 6.80274e-09)
(1.82628e-07 2.38721e-09 7.33137e-09)
(1.84904e-08 -7.08776e-10 2.58564e-09)
(2.14748e-07 4.62462e-09 9.02673e-09)
(3.76311e-07 -6.33269e-10 1.44057e-09)
(3.21491e-08 -1.17166e-09 5.05209e-10)
(5.02855e-07 6.73414e-10 1.39232e-09)
(1.11816e-07 1.43646e-09 4.71513e-09)
(1.66864e-07 1.3094e-08 -8.97584e-09)
(1.83407e-07 -1.21425e-09 -1.59485e-08)
(1.8893e-07 2.40878e-09 -3.6403e-10)
(2.56631e-07 1.08328e-10 -2.19084e-10)
(1.82399e-07 1.68515e-09 -3.99038e-10)
(1.81148e-07 5.30204e-10 2.28847e-11)
(1.83444e-07 -1.76399e-08 6.60918e-09)
(1.2445e-07 -3.88269e-10 5.67156e-10)
(8.60587e-08 -2.94234e-09 -6.76754e-09)
(1.15542e-07 4.26174e-09 -1.77286e-09)
(2.07336e-07 -1.26957e-09 2.1949e-09)
(6.30252e-08 1.02647e-09 2.37384e-09)
(2.68665e-08 1.35375e-09 -3.06106e-09)
(2.37457e-08 8.41037e-10 3.27912e-09)
(8.61744e-08 -1.31975e-09 -4.58834e-09)
(2.34828e-07 1.14013e-09 -4.0278e-10)
(1.63027e-07 -2.68227e-10 1.00996e-10)
(5.63359e-08 4.92744e-09 -2.01862e-09)
(1.38969e-07 4.6724e-10 -9.71542e-10)
(1.77292e-07 -1.24104e-09 1.79613e-10)
(1.9116e-07 1.20566e-09 -7.77409e-09)
(2.80276e-07 2.8929e-08 -3.03698e-08)
(4.38926e-08 4.46235e-09 -6.29529e-10)
(1.90037e-07 2.37566e-09 -1.17078e-08)
(2.19219e-07 3.22952e-08 -1.62197e-08)
(2.20003e-07 3.55668e-11 -1.42392e-10)
(1.38727e-07 1.49327e-09 1.47621e-09)
(1.28372e-07 1.3502e-09 -4.93447e-09)
(1.44288e-07 -4.19068e-11 8.56225e-10)
(1.86898e-08 -2.63881e-10 9.00843e-10)
(2.62287e-07 2.32749e-09 6.47443e-10)
(4.03379e-07 -9.70314e-10 8.67451e-10)
(1.74659e-07 -2.87138e-10 5.18455e-10)
(1.59416e-07 -3.75376e-10 7.99001e-10)
(1.8131e-07 -6.14416e-10 6.50978e-10)
(1.33019e-07 -1.7846e-08 2.77384e-09)
(1.44104e-07 1.98881e-09 -4.64724e-09)
(3.64484e-08 -6.40274e-10 2.38802e-09)
(2.12151e-07 -2.08375e-08 -1.63466e-09)
(1.63202e-07 -5.01553e-09 2.38666e-08)
(1.5776e-07 4.52768e-10 -1.57807e-11)
(2.7948e-07 5.27622e-10 4.41272e-10)
(3.26315e-07 4.78732e-09 5.53081e-09)
(2.30576e-08 1.35642e-09 -1.58465e-09)
(2.55504e-07 -1.5997e-10 1.10615e-09)
(3.17773e-07 3.79557e-09 8.47035e-10)
(1.98511e-07 -1.22268e-09 -3.38087e-09)
(1.51807e-07 1.80533e-08 -1.26478e-08)
(3.14654e-07 -8.90081e-10 1.01776e-09)
(5.28066e-08 3.61419e-09 1.60598e-10)
(1.60351e-07 6.58408e-10 -2.00424e-09)
(7.7336e-08 -1.56544e-09 -3.91111e-09)
(3.25875e-07 -9.23217e-10 7.03985e-10)
(1.41077e-08 6.19517e-10 1.23e-09)
(1.51322e-07 -1.36892e-09 -5.27413e-10)
(2.14452e-07 6.48564e-10 6.00721e-10)
(2.83627e-07 3.23472e-09 2.83899e-10)
(2.03059e-07 -7.11545e-09 -2.46922e-09)
(2.06385e-07 2.42631e-09 -4.60131e-09)
(6.40333e-08 -1.03615e-09 1.78437e-09)
(2.08469e-07 -1.48578e-09 -1.63727e-09)
(3.21231e-07 -2.9461e-10 -2.57227e-09)
(5.33073e-08 -2.01067e-09 3.5939e-11)
(3.84261e-07 -2.1732e-09 2.47903e-09)
(2.17991e-07 -5.35447e-10 6.61295e-10)
(1.60373e-07 -6.24773e-10 3.67767e-09)
(1.49017e-08 -2.95194e-10 1.6138e-09)
(2.7981e-07 -4.05682e-10 -4.53333e-10)
(3.32488e-07 3.6944e-09 -6.085e-10)
(1.30022e-07 1.8555e-09 2.47624e-10)
(1.60365e-08 1.92816e-09 -2.09531e-09)
(8.97919e-08 2.11287e-09 -4.64945e-09)
(1.12712e-07 -6.10754e-09 -3.93196e-09)
(4.03597e-08 -1.651e-09 3.97479e-10)
(2.2817e-08 -1.98081e-10 -4.49619e-10)
(1.64214e-07 3.00982e-09 3.89666e-09)
(3.25793e-07 3.13831e-10 2.13887e-09)
(1.57218e-07 -1.87081e-09 8.99847e-10)
(2.79156e-07 1.11219e-09 -1.66886e-11)
(1.7454e-08 -1.07471e-09 2.01859e-09)
(2.14833e-07 -8.75861e-10 9.28362e-11)
(8.77703e-08 1.39103e-09 1.20045e-09)
(6.79124e-08 9.83071e-10 -1.04106e-09)
(1.07094e-07 2.69527e-09 1.40717e-09)
(1.51658e-07 -5.55972e-10 6.34767e-10)
(8.60464e-08 -1.36556e-09 4.54755e-10)
(4.53387e-07 -4.90073e-09 -1.69661e-08)
(2.46621e-07 -4.41937e-10 -1.47532e-09)
(3.09886e-07 -1.10239e-08 -6.71166e-09)
(1.50122e-07 -1.92218e-09 7.00534e-09)
(6.31149e-08 -2.1207e-10 -8.64881e-10)
(3.07616e-07 4.34537e-09 1.46639e-09)
(4.32155e-08 -3.79001e-09 -1.70233e-09)
(3.02345e-08 -3.77502e-10 -2.38889e-09)
(1.05866e-07 -2.72962e-09 2.97664e-10)
(2.03659e-07 2.57532e-12 6.1119e-10)
(9.81943e-08 5.11722e-10 1.1872e-09)
(4.64492e-08 -7.91463e-10 -3.61593e-09)
(2.04993e-08 1.44487e-11 2.71298e-10)
(1.91867e-07 1.75136e-10 -9.95208e-11)
(2.27398e-07 -4.02712e-09 -4.07829e-10)
(1.58771e-07 -7.32764e-10 3.2954e-09)
(1.16164e-07 7.04624e-09 6.98702e-11)
(2.14313e-07 -7.8069e-10 -2.30181e-10)
(9.5259e-08 3.66705e-09 8.34023e-11)
(3.39482e-07 -1.4928e-10 -4.08254e-10)
(2.89853e-08 -2.57529e-10 8.06998e-10)
(9.81038e-08 1.32021e-09 -2.44696e-10)
(5.73788e-08 -1.56349e-09 3.96617e-10)
(1.87068e-07 4.84327e-09 6.24704e-09)
(2.64318e-07 1.17834e-09 -7.08906e-10)
(7.79857e-08 -2.66559e-09 3.28536e-10)
(1.91427e-07 -6.86917e-10 4.74425e-10)
(3.14595e-07 -2.30526e-09 2.65187e-09)
(1.61752e-08 1.75291e-09 -1.17983e-09)
(2.21211e-07 -2.11309e-09 -8.20491e-10)
(2.3899e-07 3.59452e-10 3.73458e-10)
(3.47276e-07 4.39355e-10 2.40474e-10)
(1.98598e-07 -1.63306e-09 -3.80499e-10)
(1.83555e-08 -5.64405e-10 1.72599e-10)
(3.03917e-07 -5.2928e-09 -6.61004e-11)
(6.1247e-08 4.32598e-09 3.78405e-09)
(2.52035e-08 -4.1362e-09 -6.72733e-10)
(2.323e-07 4.90332e-10 -2.26521e-09)
(9.59865e-08 -1.98395e-09 1.30306e-09)
(2.95164e-07 3.56617e-09 4.07529e-10)
(2.8752e-07 -2.6683e-10 -3.09606e-10)
(2.73007e-07 2.07014e-09 5.27033e-10)
(2.07722e-07 -1.7774e-09 6.21659e-10)
(8.38319e-08 3.39691e-09 -4.42585e-09)
(2.18873e-07 -3.60776e-10 1.11879e-09)
(1.20103e-07 4.67913e-09 4.09113e-09)
(1.95994e-07 6.66315e-10 -5.91039e-11)
(1.7935e-07 7.72901e-10 1.01542e-09)
(7.50165e-08 -3.68116e-10 1.31237e-09)
(2.95776e-07 -6.48193e-10 -1.01027e-10)
(3.09259e-07 -6.48619e-10 -1.33416e-09)
(3.21128e-08 -3.45187e-10 1.63435e-09)
(6.5914e-08 2.12101e-09 -3.11281e-09)
(1.98816e-07 5.17137e-10 7.94448e-10)
(1.18694e-07 4.78455e-10 -8.84431e-09)
(2.41327e-07 -8.68275e-10 3.04012e-10)
(1.79481e-07 3.25032e-10 -4.34644e-10)
(3.1818e-07 1.01287e-09 1.38569e-09)
(2.69853e-08 -2.12628e-09 -1.52066e-09)
(3.15188e-08 8.5094e-10 -1.52433e-09)
(3.94858e-08 1.0132e-09 -1.41053e-09)
(1.09902e-07 6.30233e-10 4.01872e-10)
(1.75592e-07 -2.22884e-09 1.16391e-09)
(4.19193e-07 2.70146e-09 3.30603e-09)
(8.7394e-08 -1.89226e-09 2.28432e-09)
(2.50221e-07 -2.42676e-10 8.3926e-10)
(1.89098e-08 3.41496e-10 2.80257e-09)
(1.10697e-07 7.02454e-11 1.83081e-09)
(2.71448e-08 1.95317e-10 2.99256e-09)
(1.64026e-07 6.2927e-10 3.22536e-10)
(1.5364e-07 -8.60792e-10 -5.1988e-10)
(1.9699e-07 2.87014e-10 1.18668e-09)
(1.87331e-07 2.36513e-09 -4.16428e-09)
(2.77936e-07 4.44538e-12 -3.5729e-10)
(2.00592e-07 4.81159e-10 8.5395e-10)
(3.81507e-07 -1.65774e-09 3.66675e-10)
(2.13248e-07 8.09522e-11 9.67566e-10)
(1.92543e-07 2.67643e-10 7.19035e-10)
(2.81869e-07 9.0437e-10 -1.15422e-09)
(2.82825e-07 2.36569e-09 1.64187e-09)
(3.00159e-07 3.93235e-10 1.24687e-09)
(1.12476e-07 1.73446e-10 -5.27306e-10)
(2.84027e-07 1.72723e-09 3.00309e-09)
(8.10893e-08 -7.44224e-10 -4.48678e-09)
(9.83581e-08 8.04826e-10 3.45578e-09)
(2.18976e-07 1.34736e-09 -1.66337e-09)
(2.61886e-07 -6.79966e-10 8.73723e-10)
(2.39767e-07 6.11048e-09 3.17959e-09)
(2.84337e-07 1.79181e-10 9.02159e-10)
(7.48332e-08 2.64037e-11 1.62823e-09)
(1.07783e-07 4.24567e-09 -2.86324e-09)
(3.04217e-07 -2.0892e-10 -2.12163e-09)
(2.15775e-07 4.42678e-09 1.2096e-09)
(6.17692e-08 -1.01401e-09 -9.16262e-10)
(7.46314e-08 2.80313e-10 -2.09907e-09)
(1.6532e-07 1.3985e-09 -5.23582e-09)
(1.86396e-07 -6.67772e-10 -2.60855e-10)
(3.08989e-07 -7.35876e-09 1.51654e-10)
(1.49551e-07 -2.11772e-09 1.5313e-09)
(3.34027e-07 -2.15106e-09 -6.40004e-10)
(1.91148e-07 -1.23062e-09 5.13482e-09)
(1.95772e-08 2.33928e-09 -1.33305e-09)
(2.97606e-07 3.52951e-10 1.78214e-09)
(2.89039e-08 1.86043e-09 -2.46373e-09)
(5.24716e-08 -2.13973e-09 1.42222e-09)
(3.52526e-07 6.93109e-10 1.817e-09)
(2.50535e-07 -2.1612e-10 -6.42497e-10)
(2.78384e-08 3.00553e-09 2.98847e-09)
(2.98831e-07 2.27032e-09 1.14341e-09)
(2.46939e-07 4.76406e-09 1.3936e-10)
(2.49312e-07 -6.82622e-10 1.94481e-09)
(3.2371e-07 -1.21077e-09 -1.28803e-11)
(2.32948e-08 2.76248e-09 5.34847e-10)
(2.78933e-07 5.86902e-10 8.07372e-10)
(1.48179e-07 -4.9175e-10 1.5903e-10)
(1.59096e-07 1.14805e-10 7.81941e-10)
(2.53191e-07 9.31975e-10 1.57953e-09)
(1.70307e-07 1.59453e-09 1.01126e-09)
(1.7765e-07 8.94679e-10 -4.98655e-10)
(2.65353e-07 1.63694e-09 3.51652e-10)
(3.87506e-08 -1.38863e-09 -1.78894e-09)
(2.81952e-07 -1.26186e-09 9.01938e-10)
(1.90433e-07 -1.02407e-09 -7.37093e-10)
(3.60036e-07 -5.95237e-10 9.15468e-10)
(2.66515e-07 7.8948e-11 1.05957e-09)
(3.08605e-07 -1.49115e-09 1.59194e-09)
(1.36668e-07 2.06809e-09 3.00463e-09)
(1.9794e-08 -2.94223e-10 1.37831e-09)
(3.55172e-08 -8.55684e-10 5.99298e-10)
(5.09923e-07 -3.33098e-09 -2.36139e-09)
(1.82875e-08 -1.05902e-09 2.65321e-09)
(1.7308e-07 -9.14696e-10 -2.97551e-09)
(7.33903e-08 4.0593e-09 1.64812e-09)
(3.12999e-07 5.73373e-10 1.55554e-09)
(3.7127e-07 -7.67739e-10 -7.85468e-10)
(3.13871e-07 -3.14054e-10 -1.15271e-09)
(1.22718e-07 -1.04142e-11 -2.72091e-09)
(2.96103e-07 4.26823e-09 -6.47256e-09)
(6.7788e-08 -5.60761e-09 4.55901e-09)
(8.72922e-08 1.97227e-09 1.9262e-09)
(1.99011e-07 8.30527e-10 4.32173e-11)
(1.56234e-07 1.73947e-09 -1.49527e-09)
(2.69477e-07 3.09453e-08 8.78888e-09)
(1.91959e-07 -4.01351e-09 1.98727e-09)
(6.42182e-08 -2.98894e-10 -6.42267e-10)
(1.02932e-07 -1.5164e-09 3.18776e-09)
(2.06843e-07 -1.75398e-09 -3.14334e-09)
(2.14069e-07 -3.09686e-11 -2.54969e-10)
(4.17639e-07 -1.57487e-09 1.67156e-09)
(2.22625e-07 -1.39292e-10 1.18575e-09)
(4.87632e-07 -3.65901e-09 1.00777e-09)
(1.66726e-07 6.35449e-09 7.93569e-09)
(3.37366e-07 2.12095e-09 2.07501e-09)
(2.75357e-07 2.14052e-09 1.52258e-09)
(1.96478e-07 -8.95145e-10 7.53967e-11)
(3.36146e-07 -1.30041e-09 1.63977e-09)
(1.0358e-07 2.27415e-09 -5.94746e-09)
(2.31535e-08 -1.49696e-09 -2.73762e-09)
(2.93606e-07 -2.33131e-09 5.30974e-10)
(5.82112e-08 -2.77079e-09 3.17695e-09)
(2.82351e-08 1.34754e-10 6.06236e-11)
(3.9222e-07 1.31089e-09 3.97446e-09)
(1.99791e-07 -5.66138e-10 6.3903e-10)
(1.06615e-07 -2.37682e-09 -5.25041e-09)
(2.52267e-07 -1.38833e-09 7.20651e-10)
(3.26759e-07 -2.64257e-09 8.3466e-10)
(4.19559e-07 -2.12471e-09 -1.04495e-09)
(2.65447e-07 -1.68018e-09 -5.0499e-10)
(3.11171e-08 1.46488e-09 4.20109e-11)
(3.15886e-07 5.99064e-11 -6.4139e-11)
(2.16661e-07 -1.29744e-09 1.0943e-09)
(9.86254e-08 9.62746e-11 1.36826e-09)
(2.91799e-07 5.13052e-11 2.02035e-09)
(2.49133e-07 -6.29492e-10 7.50173e-10)
(1.73614e-07 9.13321e-11 -1.15475e-09)
(1.99498e-07 2.64763e-10 -1.51835e-09)
(2.75517e-07 -1.84389e-09 2.54613e-09)
(2.01127e-07 -1.79538e-09 7.01855e-10)
(7.76074e-08 -3.99468e-10 -2.25651e-10)
(2.00155e-08 8.32252e-10 -6.43752e-10)
(3.91983e-08 -2.86296e-09 -2.15762e-10)
(2.19248e-07 1.12713e-09 -2.81037e-10)
(2.67849e-07 -2.10594e-08 3.29645e-08)
(1.15794e-07 -6.52899e-09 -9.43607e-09)
(1.11318e-07 4.75358e-10 4.61202e-10)
(2.4764e-07 1.84276e-10 4.36906e-09)
(3.08056e-07 5.66886e-10 1.5382e-09)
(2.31174e-07 -1.96204e-09 5.84787e-09)
(3.58466e-07 -1.00883e-09 1.8502e-09)
(3.37554e-07 -1.81241e-09 -7.9249e-10)
(2.23164e-07 2.28605e-11 8.98086e-10)
(1.38151e-07 8.15901e-10 3.58973e-10)
(2.37904e-08 -7.24757e-10 -2.49719e-10)
(2.41052e-07 -4.75405e-08 5.85316e-09)
(8.69968e-08 2.24151e-09 7.71201e-10)
(6.36243e-08 -2.85424e-09 -6.68861e-10)
(6.72779e-08 1.41128e-09 5.21626e-10)
(1.72517e-07 -5.57986e-10 -3.88184e-10)
(1.73132e-07 -9.63494e-10 -2.9016e-11)
(2.35201e-07 8.38991e-10 -1.63092e-09)
(1.68973e-08 9.31257e-10 -1.44843e-09)
(1.69496e-07 -5.64787e-10 3.56234e-10)
(6.4253e-08 1.53486e-09 -1.24465e-09)
(1.8586e-07 -4.34642e-10 -1.4813e-10)
(5.52619e-08 -7.26692e-10 -5.54926e-10)
(1.47075e-07 -3.52352e-09 2.93869e-09)
(2.18468e-07 -5.57859e-09 1.72695e-09)
(1.8522e-07 -1.30536e-09 1.47313e-09)
(1.87742e-08 1.52339e-09 -2.02423e-09)
(1.12129e-07 -1.23198e-09 4.79986e-09)
(2.38556e-07 -3.23964e-10 1.05128e-09)
(2.50306e-08 -1.55731e-09 -1.96944e-09)
(2.89507e-07 2.82993e-09 2.05445e-08)
(1.82109e-07 -1.2218e-09 4.01041e-09)
(3.03288e-07 -6.72202e-10 -4.68508e-09)
(1.9971e-07 4.40689e-09 -5.92889e-09)
(9.36744e-08 -1.25103e-09 2.15419e-09)
(3.92526e-07 1.86946e-09 6.93165e-11)
(1.42014e-07 -1.45294e-08 -1.32019e-08)
(3.26756e-07 8.26977e-10 1.98576e-10)
(1.55489e-07 1.20139e-08 1.26077e-08)
(1.41396e-07 -6.28961e-09 8.68939e-10)
(1.43463e-07 -9.21313e-10 -3.37877e-09)
(2.70158e-07 7.44267e-10 3.38013e-10)
(5.3668e-07 2.14163e-09 1.15487e-09)
(8.01683e-08 -7.89957e-10 9.43718e-10)
(3.37257e-07 1.31397e-09 -1.45933e-09)
(1.1968e-07 -6.12401e-10 -2.80989e-09)
(4.32589e-07 -1.11861e-11 1.5163e-09)
(3.29965e-07 -3.17967e-10 1.91264e-09)
(6.97668e-08 2.02092e-09 -5.23868e-09)
(2.17847e-07 -1.72512e-09 1.2227e-10)
(3.81108e-07 -4.55667e-09 4.06148e-09)
(2.27812e-07 9.58885e-10 -5.7454e-10)
(2.21437e-07 9.37136e-10 7.97616e-10)
(2.36236e-08 -8.10898e-10 -2.98991e-09)
(1.97732e-08 9.99397e-10 -2.48511e-09)
(2.93461e-07 2.67811e-09 -3.75648e-09)
(2.82168e-07 9.11774e-11 1.06769e-11)
(2.19004e-07 -1.95473e-09 -7.45565e-10)
(3.58117e-08 3.82375e-10 -2.61642e-09)
(8.85555e-08 -8.20839e-10 2.53822e-10)
(3.02464e-07 -2.83552e-09 -1.87168e-09)
(1.66583e-07 -1.48018e-10 6.0123e-10)
(3.07408e-07 9.71804e-10 1.15217e-09)
(2.82296e-07 1.16412e-09 -7.02023e-10)
(2.17458e-07 8.99932e-10 7.45612e-10)
(2.31885e-07 2.01316e-09 6.92101e-10)
(1.22071e-07 7.79805e-10 4.35045e-10)
(2.11745e-07 1.03714e-09 -1.5078e-10)
(8.83375e-08 -1.7286e-09 -4.35678e-09)
(2.86606e-07 4.37789e-10 -7.26329e-10)
(1.90462e-07 -7.18894e-10 -1.87206e-09)
(2.14052e-07 7.51317e-10 1.22701e-09)
(2.19095e-07 2.97177e-10 -1.66299e-10)
(3.50065e-07 -1.0062e-09 4.57909e-10)
(2.65365e-07 5.47896e-10 -2.12157e-09)
(6.8009e-08 3.88054e-09 3.61276e-09)
(4.48509e-08 1.10935e-09 3.92741e-10)
(1.95893e-08 1.69801e-09 -1.94623e-09)
(2.31542e-07 6.21717e-09 1.11345e-08)
(2.91131e-07 6.49128e-11 -2.7977e-10)
(2.71668e-07 -1.63833e-09 1.31563e-09)
(1.93336e-07 1.55202e-09 2.71909e-10)
(2.99857e-08 -7.74933e-11 1.11746e-09)
(2.26066e-08 -3.76617e-10 2.58941e-09)
(1.81414e-07 -7.82408e-10 2.72567e-09)
(2.31763e-07 -3.86926e-10 2.22813e-09)
(3.07877e-07 -1.01766e-09 1.3914e-09)
(3.19271e-07 9.14155e-10 1.6007e-10)
(1.98944e-07 -1.58792e-09 -1.39961e-09)
(3.37546e-07 8.223e-10 4.47326e-10)
(3.75602e-07 2.27723e-09 2.43597e-09)
(3.18101e-08 -6.6939e-10 2.98889e-09)
(1.83356e-07 -3.75251e-10 1.0566e-09)
(7.34258e-08 7.06076e-10 3.80112e-09)
(9.75762e-08 -9.75163e-09 2.08837e-09)
(1.27981e-07 1.85337e-10 3.53066e-10)
(1.43106e-07 7.13746e-10 -1.1763e-11)
(2.52331e-07 -2.34092e-10 1.75629e-10)
(1.94936e-08 -3.65383e-09 -1.33969e-09)
(3.51411e-07 1.57448e-09 -6.81567e-10)
(2.6327e-07 -7.40966e-12 -5.10524e-10)
(2.13001e-07 7.61919e-10 5.72129e-10)
(2.03243e-07 2.09285e-09 2.58457e-10)
(1.70774e-07 -6.47557e-10 1.61018e-09)
(2.58712e-07 2.28095e-10 1.3651e-09)
(2.47515e-07 8.26415e-10 2.81972e-10)
(2.99066e-07 1.73149e-09 3.38209e-10)
(1.6713e-07 6.72664e-09 -5.4831e-09)
(2.65747e-07 9.46414e-10 -4.20145e-10)
(2.89992e-07 -5.16886e-09 -1.03386e-09)
(1.8625e-08 -1.20548e-09 1.31812e-09)
(3.01899e-07 -4.34129e-10 -2.81988e-10)
(1.91747e-07 3.52338e-09 4.91708e-11)
(6.51533e-08 -1.86968e-09 5.34574e-09)
(1.72657e-07 1.46782e-09 -2.93076e-09)
(3.40939e-07 -3.04843e-10 -6.4146e-10)
(2.24913e-07 -6.71244e-10 1.58175e-09)
(1.19598e-07 3.06769e-10 -3.41403e-09)
(1.83679e-08 -1.67763e-09 -1.83881e-09)
(2.54022e-07 -8.09048e-10 -3.78787e-10)
(3.37079e-07 4.50881e-09 -4.94159e-09)
(2.34991e-07 -6.28392e-10 -7.82074e-10)
(1.88838e-07 4.21925e-11 1.14358e-09)
(5.79387e-08 2.64569e-09 2.61135e-09)
(2.51427e-07 7.03947e-11 -7.59875e-10)
(2.65867e-08 2.15046e-09 -3.40802e-09)
(1.72942e-07 2.42756e-10 -7.77999e-10)
(2.08664e-07 2.32601e-08 -7.45202e-09)
(2.53256e-07 -1.53065e-09 -1.07547e-09)
(8.90065e-08 -1.3182e-11 3.10594e-09)
(1.83964e-07 -2.16601e-09 -2.6887e-09)
(1.16338e-07 2.91311e-10 -1.53894e-09)
(4.79437e-08 2.75788e-09 2.42514e-09)
(4.58489e-07 2.23864e-10 1.3887e-09)
(2.09218e-07 4.40816e-12 1.02449e-09)
(1.792e-08 6.2636e-10 1.7477e-09)
(2.78039e-07 -6.98992e-10 6.32502e-10)
(2.78197e-07 1.29212e-10 1.01677e-09)
(3.91978e-08 -8.75866e-11 -2.31815e-09)
(1.28636e-07 5.67499e-09 -1.07615e-10)
(9.97591e-08 3.67209e-09 2.62504e-09)
(1.89795e-07 4.72048e-10 7.90449e-10)
(2.55896e-07 3.02422e-10 4.88498e-10)
(3.50531e-08 -9.23902e-10 1.61117e-09)
(9.18292e-08 -3.06625e-09 -1.0374e-09)
(1.0282e-07 2.03674e-09 -1.4709e-10)
(1.7686e-07 2.25303e-09 5.0193e-10)
(3.30903e-07 5.71445e-10 8.45365e-10)
(2.36605e-08 1.26595e-09 -3.10837e-09)
(3.64156e-07 -1.45175e-09 1.90511e-09)
(2.3665e-07 4.70774e-09 -3.54861e-10)
(2.69603e-07 -4.20048e-10 1.79248e-09)
(1.14194e-07 4.90032e-09 -4.72375e-09)
(3.29726e-07 1.83009e-09 5.19163e-10)
(2.31614e-08 -2.71399e-10 -2.52631e-09)
(2.94735e-07 -8.61414e-10 -5.07532e-10)
(2.79861e-08 -4.40028e-10 -5.45441e-11)
(1.36774e-07 -3.90664e-09 1.58135e-09)
(2.26413e-07 -1.75335e-09 2.07346e-10)
(1.38592e-07 -4.08921e-09 -1.40884e-09)
(1.9372e-08 2.25205e-09 2.01058e-09)
(5.11686e-08 9.80435e-10 -1.61864e-09)
(7.66322e-08 -4.0508e-09 2.67762e-09)
(1.32849e-07 2.61902e-09 -3.73264e-09)
(3.25628e-07 -1.77293e-11 -1.65445e-09)
(5.81308e-08 -1.32511e-09 1.16778e-11)
(1.37272e-07 4.47433e-09 -2.47855e-09)
(2.25739e-07 -1.25303e-08 -2.41995e-08)
(2.11607e-07 2.23486e-10 1.00399e-09)
(2.93048e-08 1.883e-09 3.40015e-10)
(2.26759e-07 5.10041e-10 -2.27169e-09)
(1.47316e-07 1.60368e-08 -6.33406e-09)
(1.99429e-07 -1.05786e-09 -1.67787e-10)
(1.00842e-07 -2.66844e-10 -2.33888e-09)
(1.74584e-07 3.76768e-10 1.30793e-09)
(1.07338e-07 -4.36947e-09 -3.115e-09)
(1.61876e-07 7.45488e-10 8.72073e-10)
(1.58882e-07 1.77231e-10 -5.63423e-10)
(7.30166e-08 3.31697e-09 -6.54672e-09)
(2.93256e-07 -8.54675e-11 -2.3014e-11)
(7.11013e-08 3.32036e-09 3.61875e-09)
(1.57184e-08 2.39734e-09 8.95524e-10)
(3.15989e-07 1.8744e-09 -7.69844e-10)
(1.87307e-07 1.55101e-10 2.62001e-10)
(2.9465e-07 2.24291e-09 -9.67466e-10)
(2.28106e-07 3.01826e-09 -1.25523e-09)
(4.58033e-07 -2.85819e-09 6.29165e-10)
(1.38712e-07 3.92153e-09 -4.93804e-10)
(4.04949e-07 -2.56055e-09 1.07776e-09)
(9.87631e-08 -3.08327e-09 4.31055e-09)
(1.50983e-07 3.38441e-10 1.2676e-10)
(3.06549e-07 -3.60887e-09 -3.24187e-09)
(3.26958e-08 8.27691e-10 -4.55578e-09)
(3.01696e-07 1.17739e-09 -1.67987e-09)
(1.14954e-07 1.63958e-10 3.68773e-09)
(3.01301e-08 -2.16575e-09 -2.18241e-09)
(2.76988e-07 -1.91722e-09 -6.87985e-10)
(6.30527e-08 -1.78169e-09 1.59381e-09)
(2.03121e-07 4.99148e-10 8.13579e-11)
(2.18803e-07 -1.14158e-10 1.24091e-09)
(3.7403e-07 1.33974e-09 9.54381e-10)
(9.66114e-08 -4.37017e-09 -4.6805e-09)
(2.87054e-07 2.49095e-09 4.75822e-10)
(1.53199e-07 -2.31479e-09 1.99149e-09)
(3.15978e-07 6.51662e-10 3.072e-10)
(3.19845e-07 -1.2309e-10 7.947e-10)
(2.81271e-07 6.9837e-10 1.29666e-09)
(1.6678e-07 4.68117e-11 -3.86686e-11)
(4.89449e-08 -2.72192e-09 -2.2884e-09)
(7.03281e-08 3.70242e-10 -6.54535e-10)
(1.78677e-07 -3.31673e-10 2.63523e-11)
(2.8737e-07 8.5513e-10 2.88206e-09)
(2.86598e-08 -2.02771e-09 -9.5004e-10)
(2.46658e-07 -1.75457e-10 8.01284e-10)
(4.75077e-07 1.52355e-10 7.1231e-10)
(3.50637e-07 -1.76124e-09 -5.60881e-10)
(3.77046e-07 -2.48352e-09 -3.90954e-10)
(2.49286e-07 -2.46514e-10 -3.50672e-09)
(2.03529e-08 2.05596e-09 1.7755e-09)
(2.28386e-07 7.4561e-10 -2.48853e-10)
(1.48229e-07 -1.41226e-09 -1.86084e-09)
(2.65709e-07 8.544e-10 1.07753e-09)
(1.61198e-07 4.45623e-10 -1.19219e-10)
(3.58232e-08 2.55397e-09 -1.54001e-10)
(2.10571e-07 3.62048e-10 7.55265e-10)
(1.51634e-07 3.81241e-09 3.86639e-09)
(2.44543e-07 -3.78054e-10 4.50907e-10)
(2.71928e-07 -1.45031e-09 6.16916e-11)
(2.00259e-07 -2.22122e-09 -4.76376e-10)
(1.37992e-08 1.25207e-09 -1.62665e-09)
(2.02532e-08 -1.23756e-09 -1.9812e-09)
(1.87824e-07 -1.22876e-10 2.42046e-10)
(3.08806e-07 -1.98642e-09 -9.13299e-10)
(2.30852e-07 1.04786e-09 1.27921e-09)
(1.83086e-07 -3.16892e-10 1.5282e-09)
(1.61138e-07 -2.43385e-09 9.83472e-10)
(2.56437e-07 -1.78027e-09 -9.90626e-10)
(2.89141e-07 2.63258e-10 1.077e-09)
(1.96304e-08 1.72153e-09 4.03738e-10)
(1.49448e-07 -3.08259e-11 4.81821e-10)
(1.74096e-07 -1.93324e-08 -4.96825e-10)
(4.6658e-08 -7.79222e-10 2.45248e-09)
(8.53807e-08 -5.4628e-09 1.39356e-09)
(3.06744e-07 -6.60779e-10 -1.90582e-09)
(2.12348e-07 -2.62633e-09 1.49954e-09)
(1.97671e-07 7.83303e-10 -1.51465e-10)
(2.36571e-07 -1.44032e-09 1.23915e-09)
(1.3969e-07 -4.81605e-09 1.52165e-09)
(3.345e-07 3.542e-10 -3.26313e-10)
(1.80389e-07 1.71473e-09 -5.3614e-09)
(4.29738e-07 2.23966e-09 -2.69877e-10)
(2.20244e-07 1.15243e-09 -2.64232e-11)
(2.42309e-07 -1.01689e-09 2.69399e-10)
(3.17556e-07 -1.50444e-09 4.48331e-10)
(4.81217e-08 -4.60303e-10 2.35864e-09)
(5.41265e-07 -2.51786e-09 5.12285e-10)
(3.3822e-08 1.02078e-09 -1.3931e-09)
(1.48934e-07 -1.45088e-08 8.55434e-09)
(1.17143e-07 3.73121e-09 2.95961e-09)
(1.61656e-07 -3.21585e-09 -1.65361e-08)
(2.14453e-07 -1.20468e-09 -1.10695e-09)
(2.90721e-07 -4.71635e-08 -1.04689e-08)
(1.3986e-07 1.86317e-10 -3.96713e-10)
(3.24116e-07 -7.41572e-10 -4.95563e-10)
(3.39528e-07 1.69073e-09 -2.46606e-10)
(2.15239e-07 -4.29509e-10 1.22815e-09)
(3.53521e-08 2.69635e-10 -6.17977e-10)
(1.18484e-07 -4.45915e-09 -2.98924e-09)
(2.10294e-07 -3.93425e-09 -2.99654e-08)
(2.17483e-07 3.8101e-10 1.56131e-10)
(1.01117e-07 -2.1109e-09 -5.2126e-10)
(2.18117e-07 -2.13598e-08 -7.45296e-09)
(2.38205e-07 -5.43416e-09 6.65532e-09)
(3.1003e-07 2.49512e-09 2.34307e-09)
(4.44902e-08 -9.13941e-10 1.58477e-09)
(5.44043e-08 -2.67052e-09 1.50581e-09)
(2.7461e-08 1.31161e-10 -2.6917e-10)
(1.98702e-08 1.48281e-10 -1.5238e-09)
(4.45662e-08 -1.08265e-10 2.32908e-10)
(2.21575e-07 -1.54989e-08 9.06187e-09)
(1.83313e-07 -5.69346e-10 1.11266e-09)
(1.8902e-08 -6.51656e-10 2.62166e-09)
(2.08099e-08 1.48972e-09 2.30073e-09)
(3.56303e-07 6.44636e-10 -8.12544e-11)
(1.6614e-07 -2.18195e-08 1.48157e-08)
(4.7254e-08 2.05562e-09 7.83301e-10)
(2.28462e-07 3.37297e-10 -7.20438e-10)
(1.08395e-07 -1.10785e-09 -1.55886e-09)
(2.03681e-07 2.70636e-10 1.85999e-09)
(4.47533e-08 2.33009e-09 -1.27931e-09)
(9.39954e-08 2.90348e-09 -1.09682e-09)
(1.93766e-07 -2.12575e-09 1.43343e-10)
(2.71345e-07 2.24708e-10 -1.18222e-09)
(4.0128e-07 3.04935e-10 -2.16147e-09)
(4.34362e-08 3.58268e-09 -1.23875e-09)
(2.48172e-08 -1.94059e-09 1.19631e-09)
(2.01611e-07 -2.88163e-08 -2.13805e-08)
(2.82195e-08 -3.68254e-09 1.21438e-10)
(3.12033e-07 -2.03867e-09 -2.48663e-09)
(2.92229e-08 1.62938e-09 -3.64786e-09)
(1.4915e-07 -6.08336e-10 3.14434e-09)
(3.09357e-07 -1.4734e-09 -3.0783e-10)
(4.33338e-07 -1.07452e-09 2.93503e-09)
(5.97339e-08 8.86667e-10 -1.20286e-09)
(1.40736e-07 -4.60797e-10 -1.44276e-09)
(3.90983e-08 1.43414e-09 -1.6066e-09)
(2.91458e-08 3.43874e-09 -1.27113e-09)
(2.63947e-07 -4.6868e-10 -1.08186e-09)
(1.4918e-08 -1.26379e-09 -1.92501e-09)
(1.81123e-07 -7.32583e-10 -7.79452e-10)
(6.20654e-08 1.32405e-09 -2.91692e-09)
(3.27126e-07 -2.43081e-09 -4.66489e-10)
(2.27804e-07 -9.69726e-10 -2.62736e-10)
(1.94937e-08 -5.20472e-10 3.09789e-09)
(1.36206e-07 -6.66654e-09 5.22931e-10)
(2.49049e-07 5.67084e-10 9.69817e-10)
(3.1726e-08 -1.53265e-09 5.05518e-11)
(2.89493e-07 -7.25855e-10 -1.03545e-09)
(8.00905e-08 -3.17626e-09 5.00365e-09)
(2.16186e-07 5.64411e-10 -6.4263e-11)
(2.29395e-07 -1.00871e-09 -5.86226e-10)
(5.6002e-08 1.66926e-09 1.23875e-09)
(2.15164e-08 9.17478e-10 -2.80425e-09)
(9.36852e-08 1.78984e-09 -7.98321e-10)
(2.4363e-07 3.82555e-08 8.22864e-09)
(2.27818e-07 8.04213e-10 9.11429e-10)
(7.81892e-08 -3.54795e-09 3.79652e-09)
(1.85314e-07 7.6504e-10 2.76604e-09)
(2.48108e-08 -9.54598e-10 6.03386e-10)
(2.03581e-07 -9.57284e-10 -8.09853e-10)
(2.34771e-08 -3.70182e-10 -1.7221e-09)
(3.35768e-07 -1.38725e-09 -9.36362e-10)
(3.02401e-07 -3.22739e-10 4.60987e-10)
(2.20716e-07 -2.15948e-11 -2.55693e-10)
(1.46203e-08 1.47065e-09 6.04397e-11)
(3.43197e-07 -5.00318e-10 1.1818e-09)
(1.57238e-07 1.3486e-09 1.70537e-10)
(3.58009e-07 4.30595e-10 1.46586e-10)
(6.35629e-08 -6.29587e-10 -2.73194e-10)
(2.22556e-07 -2.67994e-08 1.37775e-08)
(2.63667e-07 -2.43207e-09 -6.35789e-10)
(6.65706e-08 8.53784e-10 -7.71234e-10)
(2.54883e-07 1.02755e-09 3.89005e-10)
(2.10056e-07 3.87886e-09 -3.95616e-08)
(1.8246e-07 4.67033e-10 -1.23478e-09)
(3.31671e-08 8.52868e-10 -1.82485e-09)
(1.02299e-07 -9.70271e-10 -5.3643e-09)
(1.92135e-07 -2.17412e-10 -2.03148e-10)
(2.18655e-07 2.16799e-09 4.79946e-10)
(3.23569e-08 1.5906e-09 6.35912e-10)
(2.19844e-07 2.63756e-09 -3.27622e-09)
(1.59497e-07 -1.60742e-09 -4.9026e-09)
(2.49214e-08 -2.17974e-09 1.45772e-09)
(2.04375e-07 -1.02828e-11 -5.37089e-10)
(1.58317e-07 -1.97607e-09 1.53963e-08)
(3.26633e-07 3.57445e-09 -4.92105e-09)
(2.01708e-07 -4.69559e-10 -9.47596e-11)
(1.83185e-07 -2.21919e-10 5.92361e-10)
(3.10268e-07 -1.03104e-09 -2.61653e-10)
(2.56457e-07 1.4598e-09 -4.78368e-11)
(7.12547e-08 1.88669e-09 6.08149e-10)
(7.28442e-08 -3.58874e-09 -3.52305e-09)
(3.78211e-07 1.20717e-09 9.84268e-10)
(2.24784e-07 -1.96483e-08 1.82628e-08)
(2.10156e-07 -2.04097e-09 9.34952e-10)
(1.89112e-07 -2.40788e-09 1.0983e-09)
(1.28108e-07 2.97898e-09 1.39105e-09)
(3.22734e-07 -7.01383e-10 2.65186e-09)
(2.03001e-07 -3.34913e-10 -1.21836e-09)
(1.82527e-07 -7.19799e-10 -2.43509e-09)
(2.27124e-07 4.18143e-09 7.9668e-10)
(4.37501e-08 5.02982e-10 -2.76945e-09)
(1.71861e-07 1.37565e-09 -1.01063e-09)
(3.97614e-08 -1.05274e-09 -3.0018e-09)
(3.12759e-07 -1.57666e-09 2.06082e-09)
(3.24319e-07 -3.9999e-10 -3.05292e-10)
(1.67161e-07 2.97875e-09 -3.98758e-09)
(1.61965e-07 1.28963e-09 -9.19278e-10)
(1.79409e-08 1.86708e-09 -3.72771e-10)
(1.06024e-07 -5.08208e-10 -8.63184e-10)
(7.62362e-08 -2.61027e-09 -3.27431e-09)
(2.63541e-07 -3.88458e-10 -1.60236e-09)
(2.36563e-07 -1.77388e-09 -6.42772e-10)
(2.20563e-07 -2.01553e-08 1.27519e-08)
(3.12671e-07 -1.07042e-09 2.34378e-09)
(8.27803e-08 -2.42488e-09 -1.95108e-09)
(1.36571e-07 -3.42717e-09 1.06669e-08)
(2.45875e-07 -2.68765e-09 3.524e-09)
(2.77019e-08 -2.15376e-09 -1.69501e-10)
(2.42919e-07 -1.39467e-09 -1.43713e-10)
(5.44404e-08 1.55663e-09 -6.87457e-11)
(2.06686e-07 -5.53134e-10 1.9574e-09)
(3.24129e-08 4.6188e-09 -3.35311e-10)
(3.59281e-07 6.37984e-10 -1.59666e-09)
(2.0396e-07 -8.70425e-09 5.35746e-09)