/*--------------------------------*- C++ -*----------------------------------*\
| =========                 |                                                 |
| \\      /  F ield         | OpenFOAM: The Open Source CFD Toolbox           |
|  \\    /   O peration     | Version:  2406                                  |
|   \\  /    A nd           | Website:  www.openfoam.com                      |
|    \\/     M anipulation  |                                                 |
\*---------------------------------------------------------------------------*/
FoamFile
{
    version     2.0;
    format      ascii;
    arch        "LSB;label=32;scalar=64";
    class       volVectorField;
    location    "44";
    object      momentum:angularVelocity;
}
// * * * * * * * * * * * * * * * * * * * * * * * * * * * * * * * * * * * * * //

dimensions      [0 1 -1 0 0 0 0];

internalField   nonuniform List<vector> 
59516
(
(-0.000378738 -0.000552448 0.104582)
(0.000344025 -0.000234738 0.0970905)
(-0.000404809 0.000862609 0.112581)
(-0.00243043 -0.000356058 0.128769)
(-0.00455149 0.000302061 0.113741)
(-0.0104428 0.00555898 0.10109)
(-0.00152239 -0.00151323 0.128061)
(-0.000303608 -0.000679493 0.101797)
(-0.000955501 0.000129145 0.111969)
(0.00210808 0.00106706 0.0539189)
(-0.00222231 -0.000309868 0.153743)
(-0.00285231 -0.00226375 0.060267)
(-0.000920132 -0.000624524 0.118687)
(8.90584e-05 -0.000203685 0.0195416)
(0.000170543 -0.00353581 0.0600325)
(-0.00142688 0.0036697 0.0514286)
(-0.00140173 -0.00039637 0.168057)
(-0.00566896 -0.00158627 0.0700914)
(-0.00574473 -0.00129391 0.114557)
(-0.00034189 0.000609105 0.164493)
(-0.00133754 0.000633265 0.0540403)
(0.000376645 0.000606371 0.1486)
(-0.00145425 -0.000705162 0.154539)
(0.000878827 0.000545155 0.0331567)
(0.000360703 0.000825694 0.160308)
(-0.000240874 0.00154732 0.0650634)
(-0.000525251 0.00285516 0.041283)
(-0.00344901 -0.00150071 0.0443725)
(-0.00250193 -0.000926495 0.0656465)
(0.00215936 0.00173644 0.0172238)
(-0.0215113 0.00120699 0.108347)
(-0.00291475 0.00222278 0.0456403)
(-0.00080367 -0.000317909 0.13283)
(-0.00219415 -0.00103995 0.111868)
(-0.0062781 -0.000139702 0.139289)
(-0.000272493 0.000126997 0.145974)
(-0.00251057 0.00130931 0.0166346)
(-0.00690881 -0.00219762 0.0699831)
(-0.00364602 0.000440078 0.0954229)
(0.000805503 0.000509936 0.158529)
(8.32618e-05 -0.000652328 0.100777)
(-0.0113947 1.26959e-05 0.143963)
(-0.00450539 0.00091763 0.148342)
(-0.000696466 0.00042806 0.106906)
(-0.00449226 0.000805248 0.142883)
(0.00145069 0.000402614 0.0545389)
(-0.00483966 0.000113209 0.132528)
(-0.00446429 0.000674742 0.162715)
(-0.0152905 0.00138406 0.111882)
(-0.00830089 0.000156397 0.150736)
(-0.0179024 0.000522147 0.104052)
(-0.00396101 -0.00189446 0.0433524)
(0.000276433 -0.00245418 0.119511)
(-0.000350014 0.000426718 0.126982)
(-0.00285094 0.000690556 0.0475358)
(-0.00264362 0.000412181 0.129778)
(-0.0118201 -1.81709e-05 0.144782)
(-0.00449116 -0.00166484 0.0464574)
(-0.000291871 -0.000240284 0.171309)
(-0.0101027 -0.000395418 0.135117)
(-9.5449e-05 0.000465516 0.149122)
(-0.00144298 0.00199092 0.0187826)
(-0.000485371 0.000479019 0.164869)
(-0.00266146 0.000136649 0.164973)
(-0.00052759 0.000408078 0.122364)
(-0.00604198 0.000122435 0.147244)
(0.000201906 0.00289684 0.0255564)
(-0.000131572 0.000289831 0.0403834)
(-0.0228179 0.000373086 0.121498)
(-0.00283075 -0.00091214 0.135888)
(-0.000625691 -0.000856695 0.0362645)
(-0.00140306 -0.000781227 0.162337)
(0.00348328 -0.00140524 0.022721)
(-0.000839314 -0.000356838 0.142697)
(-1.56294e-05 -0.000217588 0.177483)
(-0.00311415 0.00018065 0.157769)
(-0.00384866 0.000104215 0.163466)
(-2.78867e-05 0.000145007 0.148227)
(0.00181956 0.000997622 0.0451346)
(-0.0080439 0.000743976 0.151311)
(-0.00253341 2.68696e-05 0.0377054)
(-0.00701431 0.00043685 0.146553)
(-0.00587673 0.000422489 0.139558)
(-0.00251195 0.00135467 0.019683)
(-0.00687015 0.000791137 0.146424)
(0.000141266 0.000710428 0.173216)
(0.000621529 0.00111087 0.032073)
(0.000438748 0.000142367 0.149973)
(-0.00208225 -0.00113456 0.0537925)
(-0.00989105 -0.00247759 0.107178)
(-0.0114712 -2.93484e-05 0.131538)
(-0.00125317 0.00127731 0.138773)
(-0.000149327 6.44629e-05 0.170784)
(-0.000176997 0.00128975 0.137118)
(-0.000303247 0.000356757 0.159824)
(-0.0112897 -6.02139e-05 0.109944)
(-0.00060824 -0.000478543 0.14013)
(0.00205199 0.00402594 0.0526967)
(-0.00238212 -0.000992556 0.0645983)
(0.00139861 0.00114831 0.147971)
(-0.0012195 0.000906497 0.0370293)
(0.00267173 0.00136004 0.0240645)
(0.002872 0.00151108 0.0227637)
(-0.0019464 0.00224512 0.0536312)
(0.000691399 -8.72438e-05 0.135337)
(-0.000199618 -0.000163294 0.146696)
(0.00183323 -0.00322148 0.0392145)
(-0.000694836 -0.000422808 0.104848)
(-0.000329284 0.000632313 0.100796)
(-0.00143767 0.00226659 0.0652203)
(-0.018695 -0.000235346 0.124936)
(0.00228971 -0.00210048 0.0302635)
(-0.00254595 0.00328054 0.066057)
(-0.019459 -4.52535e-05 0.118037)
(5.45343e-05 -9.11897e-05 0.159272)
(0.000971011 -0.00116782 0.100342)
(-0.00182319 -0.0011099 0.0535599)
(-0.000440416 -0.000658213 0.1333)
(-0.000391352 -0.00101234 0.0216098)
(-0.000919015 0.00099176 0.146796)
(0.000564499 0.000127074 0.179331)
(-0.000352834 0.000440957 0.166432)
(0.000723199 0.000492852 0.158041)
(-0.000695798 0.000424199 0.16506)
(-0.017929 0.00118392 0.13234)
(-0.00315808 0.000103437 0.0900777)
(-0.00180949 -0.000823916 0.0293114)
(-0.0134587 0.00210957 0.138275)
(-0.0130682 0.00307238 0.0898355)
(0.000435281 -0.000255583 0.175772)
(0.000200498 -0.00038877 0.177736)
(0.00159903 0.00195657 0.112722)
(-0.000531926 -0.00201 0.0229834)
(0.000325609 0.000560778 0.148241)
(0.00119812 0.000336453 0.101687)
(-0.00181808 0.00105342 0.116021)
(-0.0155462 0.00141045 0.107505)
(0.000225755 0.000511407 0.130095)
(-0.000364052 0.00264223 0.0389317)
(-0.000945757 0.000889359 0.0986782)
(-0.000978002 0.00213874 0.0431722)
(-0.000507583 -0.000386343 0.179045)
(-0.000881162 -0.00156236 0.0183742)
(-0.000398354 0.00115146 0.12568)
(-0.000643452 0.000308788 0.173135)
(-0.00145799 0.000711665 0.141711)
(-0.00503547 0.00134274 0.140503)
(-0.00271752 0.00121974 0.118181)
(0.000947346 -0.00176368 0.0621282)
(-0.000157069 0.00112338 0.106954)
(-6.79334e-06 -0.000835215 0.10363)
(0.00016538 0.00128913 0.0344523)
(0.000970542 0.00103807 0.165642)
(0.000560088 0.000218496 0.154022)
(-0.000619817 -0.00198588 0.0894371)
(-0.0017403 0.00103762 0.018404)
(-0.000118296 -0.000216583 0.113508)
(-0.00106574 0.000717635 0.114095)
(-0.00105773 0.000544681 0.0826364)
(-0.00272962 -0.00194525 0.018877)
(0.00274109 0.00239237 0.0639682)
(0.00370794 -0.00206825 0.0658815)
(-0.000601163 0.00130656 0.0341816)
(-0.000236601 -0.000475416 0.0246616)
(0.00298734 7.81282e-05 0.0996666)
(-0.00104165 0.000447722 0.170871)
(0.000797958 -2.76472e-05 0.0604674)
(-0.000640774 -0.000270168 0.174524)
(0.00115695 0.0022514 0.0193195)
(-0.000118604 -0.000545746 0.136224)
(-0.00134771 -0.00111993 0.0837055)
(-0.000850506 0.000660178 0.0510654)
(-3.63752e-05 -0.00178635 0.0629331)
(0.000388246 -0.000654913 0.136835)
(0.000474019 0.000668936 0.0490143)
(-0.00523005 -0.000558691 0.135038)
(-0.000978644 0.00037242 0.167678)
(-0.00619576 0.000592666 0.149442)
(0.00043418 -0.00316503 0.0660205)
(0.000467236 0.00031492 0.0399354)
(-0.00113446 -0.00185508 0.145853)
(0.000882482 0.0030024 0.0325502)
(-0.00100266 -0.00200687 0.028045)
(0.000578145 0.00153355 0.063189)
(0.000182812 -0.000491492 0.174734)
(-0.00037776 0.000660202 0.0577746)
(-0.00268227 0.000554843 0.0343713)
(0.000141917 0.000259751 0.0223335)
(-0.000109432 6.61089e-05 0.121776)
(0.00154425 0.000879252 0.0998314)
(-0.00286176 -0.00028998 0.13528)
(-0.000890744 -0.0029404 0.0506483)
(-0.000484316 -0.000383689 0.162695)
(0.00163666 -0.00138399 0.0556642)
(-0.000197614 9.20712e-06 0.154499)
(0.000416526 0.000727238 0.0286767)
(0.000741936 0.000173553 0.0556729)
(0.000306406 -0.00106862 0.0395453)
(-0.00462609 -0.000202507 0.109585)
(0.000527534 -0.000600303 0.153607)
(-0.00166596 -0.00219666 0.0800525)
(-0.000666259 -0.000403715 0.178633)
(0.000204238 0.00112379 0.102263)
(0.00161253 -0.00187446 0.0189283)
(0.000939219 0.000913474 0.127857)
(-0.000175482 -0.000261251 0.145105)
(4.95685e-05 -0.000250756 0.177229)
(0.000901308 -0.000922821 0.152779)
(0.000208622 -0.000685669 0.0222896)
(0.001756 0.000915432 0.113701)
(-0.000473512 0.00460061 0.0492849)
(-0.0038578 0.000800976 0.0236971)
(-0.00101407 0.00101435 0.14376)
(-0.000292585 0.0013152 0.0544856)
(-0.00076273 -0.00118337 0.115774)
(6.23892e-05 -0.000231785 0.168855)
(-0.00100665 0.000429504 0.139872)
(-0.00111615 0.000881923 0.156927)
(-0.00170279 0.00308653 0.0529674)
(0.000839639 7.88707e-06 0.156341)
(-0.00100286 -0.00260893 0.0540097)
(-0.000157441 0.000319099 0.104256)
(-0.00077039 -0.000866303 0.162934)
(0.000415142 -0.000562436 0.0384738)
(-0.000211438 -0.000303468 0.166759)
(0.000774902 0.000233594 0.168724)
(-0.000987734 -0.00102534 0.0273702)
(-0.00254115 0.000579211 0.0456082)
(0.00011582 0.000792316 0.167943)
(-0.00201003 0.00341125 0.0530591)
(0.000295376 0.000576913 0.17002)
(-0.000410228 0.000307995 0.169641)
(-0.000809211 -0.000503727 0.176698)
(-0.0011926 -0.0020237 0.0242484)
(-0.00131996 -0.00116933 0.0318375)
(-0.00146076 1.60515e-05 0.0332137)
(0.000134525 -0.000399492 0.06198)
(-0.00134975 -0.000275122 0.0961959)
(-0.00153646 0.000391782 0.155685)
(0.00188 -0.000278536 0.0559943)
(0.000554202 0.000284937 0.17848)
(0.00242404 0.0017155 0.0198901)
(0.000702316 0.000528122 0.0530921)
(0.00228382 0.00137372 0.0241235)
(0.000715375 0.000255447 0.176204)
(-0.000339853 -0.000496272 0.0918977)
(-0.000877534 0.000208355 0.145525)
(-0.000643599 0.00150354 0.063975)
(-0.00020764 -5.76829e-05 0.167627)
(-0.000427492 -0.000276029 0.104138)
(0.000725347 -9.40743e-05 0.164355)
(-0.000621653 0.000151271 0.140517)
(0.000649156 0.000294655 0.178908)
(0.000233776 0.000714763 0.144559)
(-0.000657324 0.00134236 0.146799)
(-0.000384028 0.000566424 0.157112)
(-0.000267003 2.48503e-05 0.054335)
(-0.00182376 0.000409621 0.153246)
(0.00119618 0.00195858 0.0409177)
(-0.000284483 0.00210344 0.0588383)
(-0.0011126 0.000619056 0.130247)
(-0.000284289 0.000617718 0.160849)
(0.00321129 0.000749581 0.114784)
(0.000344665 0.000439989 0.17278)
(0.00213683 0.000126345 0.0983666)
(-1.41989e-05 -0.00269164 0.0566533)
(-0.000515058 -0.000986609 0.158818)
(0.00195304 0.000149735 0.0921004)
(-0.000543256 -0.000843689 0.0453537)
(-0.000412281 0.00137648 0.0506386)
(-0.00225684 0.00222357 0.0966478)
(-0.000539575 -0.000364904 0.169358)
(-0.00145189 0.00182545 0.0979164)
(-0.000619495 0.00148728 0.0921987)
(-0.0010866 -0.000158896 0.163445)
(6.09621e-05 0.00254822 0.0922741)
(-0.00121305 -0.00257645 0.0207064)
(0.000778955 0.000598122 0.160879)
(0.00211892 -0.00162228 0.0249847)
(0.00172199 0.000892376 0.0396096)
(-0.000879843 -0.000406355 0.175682)
(-0.000364542 9.85139e-05 0.139564)
(-0.00331719 0.00174243 0.0246105)
(-0.000151453 -0.00101647 0.120813)
(-0.0011802 -0.00209363 0.124522)
(-0.00124453 0.000580505 0.166108)
(0.000535844 -0.000381041 0.175782)
(0.00201338 -0.00202841 0.0236609)
(-7.66942e-05 0.000621032 0.174866)
(-0.000439168 -0.000437839 0.1778)
(-0.000447208 -0.000716047 0.169946)
(-0.000970383 0.000135602 0.135268)
(-0.00123218 0.000893507 0.137284)
(-0.000403795 -0.000371914 0.0952149)
(0.00013059 -0.00106401 0.169897)
(-3.34685e-06 0.00161681 0.0276655)
(0.000157412 -0.000858832 0.158719)
(0.000650227 0.000657513 0.139566)
(-0.000432369 -0.000321557 0.177661)
(-0.000652529 -0.00011484 0.166193)
(0.000527396 -0.000632666 0.116532)
(0.00101343 -0.00118875 0.0585294)
(-0.000694927 -0.00145054 0.0225896)
(0.000706314 0.000423212 0.0279941)
(-0.00124793 0.000392863 0.16339)
(-0.00292035 0.00119898 0.0202089)
(-0.000812575 -0.000785123 0.0628232)
(-0.000990555 0.00290576 0.0514262)
(-0.000278692 -0.000833868 0.165993)
(-0.000493049 -0.000125962 0.172015)
(-0.00024109 0.000535608 0.154309)
(0.00109859 0.000677942 0.0582227)
(0.00270087 9.07725e-06 0.10315)
(6.59896e-05 0.00421903 0.0395785)
(0.000378442 -0.00167776 0.0544594)
(-0.000238467 0.000608813 0.156464)
(0.000460972 -0.00136357 0.0980373)
(-0.0127689 -0.00153798 0.107737)
(0.000217828 -0.00208607 0.0898984)
(-0.00046515 -5.0939e-05 0.0424185)
(0.00217627 -0.000131229 0.0635727)
(-0.000656166 -0.00175949 0.107908)
(-0.000203239 -4.24157e-05 0.173041)
(0.000321403 -0.00092606 0.17826)
(-0.000769133 0.000568028 0.178292)
(0.000129122 0.00124851 0.16127)
(-0.00587544 -0.000691466 0.0970208)
(-0.00111543 -5.81388e-05 0.126997)
(-0.00136763 0.000769771 0.164512)
(0.000690765 0.000242689 0.160136)
(0.00100984 7.13189e-05 0.162602)
(-0.00260227 -0.002258 0.0560463)
(0.00274911 -0.00111689 0.0220194)
(0.00122152 6.16329e-05 0.150188)
(0.00113831 0.0025985 0.0391744)
(4.92217e-05 -0.000156566 0.0313609)
(-0.00170916 -2.30372e-05 0.160195)
(0.000516741 0.000349176 0.145947)
(-0.00195831 0.00257584 0.0598569)
(-0.000570522 -0.000890326 0.170537)
(0.000442798 0.00133289 0.165606)
(-0.00095768 0.000297041 0.177672)
(-0.00113181 6.33936e-05 0.171513)
(-0.000103247 -0.00151745 0.032295)
(1.81861e-05 -4.03473e-05 0.15929)
(-0.00131701 0.000327078 0.173223)
(0.000232232 0.000760602 0.057182)
(-0.000231964 -0.00119861 0.17627)
(-0.00050438 0.000448734 0.171746)
(0.000658687 0.000581009 0.131641)
(0.000600012 0.000736295 0.122942)
(-0.000303295 -0.00170185 0.151503)
(0.000805916 0.00111245 0.143326)
(-0.000383682 0.000145032 0.0693836)
(-0.000615626 0.00152822 0.0313417)
(0.000324298 0.00250907 0.0345408)
(0.000490594 -0.000104339 0.0946664)
(-0.0125962 -6.57668e-05 0.0862518)
(-0.00735323 0.000769551 0.0746092)
(0.000342562 -0.000356673 0.0831171)
(0.00154061 -0.00131831 0.114826)
(-0.000433733 0.00054986 0.131604)
(-0.00422005 0.00038146 0.158804)
(0.000493558 0.000779526 0.156942)
(-0.000455679 -0.000625464 0.132055)
(-3.15656e-05 -0.000598274 0.148823)
(-0.000952654 -0.000136876 0.149164)
(-0.000423752 0.000904638 0.0310028)
(-0.02262 0.000821487 0.113909)
(0.000438333 0.00151281 0.0578042)
(-0.000969041 0.00161056 0.0407935)
(0.000855647 0.000333463 0.0410632)
(0.000212448 0.000597176 0.160869)
(-0.000446835 0.000269971 0.0937671)
(-0.00117794 0.000415124 0.160165)
(-0.00129114 0.0015333 0.0196697)
(0.00039491 -0.000304941 0.126647)
(0.00116051 -0.000694004 0.043967)
(-0.000220287 0.000340523 0.164155)
(-0.000501929 0.000603305 0.0474324)
(0.00176667 0.0007399 0.0613976)
(0.000789125 0.00272407 0.106098)
(-0.00159494 -0.000235864 0.151721)
(0.00260537 -0.000191822 0.0193596)
(-0.000108324 0.0023798 0.0539049)
(3.31812e-05 -0.000613818 0.133305)
(5.52457e-05 -0.00230525 0.0229885)
(-0.00936381 -0.000279656 0.130776)
(0.000513933 -0.00262307 0.116107)
(-0.000144404 -0.00205467 0.131985)
(0.00230036 -0.00262571 0.0943723)
(0.00222702 0.000733634 0.0881707)
(0.000713933 -0.000284157 0.161229)
(-0.010171 -0.00322799 0.0771941)
(-0.000446238 -0.000127669 0.178324)
(-0.0124468 0.000807399 0.111363)
(-0.00213183 0.00157077 0.0589698)
(-0.000404641 0.0014621 0.0621456)
(-0.000117481 -0.000519997 0.17619)
(0.000496781 -0.000626079 0.176284)
(0.000602849 -0.000525078 0.0520768)
(-0.000347745 -0.000696623 0.13372)
(-0.00222595 0.000747699 0.0977203)
(0.000138879 -0.000601065 0.175993)
(0.00036309 -0.000964803 0.175435)
(-0.00104892 -0.00347971 0.0451575)
(-0.000457795 0.000949573 0.132786)
(0.00232144 -0.000186044 0.145405)
(-0.000597339 -0.000413514 0.148059)
(0.000332338 -0.000803584 0.156475)
(0.00246677 -0.00130293 0.0212734)
(-0.00271464 -0.000723434 0.020739)
(-0.00146298 0.00135049 0.12665)
(4.80623e-05 -2.92483e-05 0.172934)
(0.0013821 0.000975021 0.17706)
(-0.0022248 0.00118279 0.034125)
(0.00123443 -0.00105009 0.167038)
(-0.00119398 -9.20298e-05 0.106609)
(-0.000315146 -0.000555072 0.171725)
(0.000258322 0.0008117 0.173726)
(0.00082854 0.000204858 0.177235)
(-4.08981e-05 -0.000919521 0.171266)
(-0.000283706 -0.00154005 0.170575)
(0.000302316 -0.000572905 0.0885548)
(-0.000772871 0.000394663 0.175329)
(-0.00186753 0.00228573 0.0556287)
(-0.000476639 0.000114167 0.165638)
(-0.000975939 -0.000608402 0.109228)
(-0.000995601 -0.000256086 0.152943)
(-0.000209781 -0.00016634 0.172247)
(-0.000132109 0.000452685 0.149326)
(0.000983725 -0.000675309 0.144506)
(0.00172922 0.00258622 0.0399062)
(0.000876979 2.70254e-05 0.0334393)
(-0.00193069 -0.00197063 0.0209239)
(-0.00841704 4.26628e-05 0.152824)
(0.000173779 4.72882e-05 0.182562)
(-0.00105986 0.000192306 0.139269)
(-8.79631e-05 -0.00102693 0.126468)
(0.00111738 0.000209591 0.0304335)
(0.000716749 -0.00260422 0.0233358)
(-0.000624796 -0.00167195 0.114186)
(-0.00113028 0.000962225 0.152125)
(-0.000372757 -0.000891982 0.172659)
(0.000410397 -0.000180783 0.154275)
(-0.00144055 -6.35824e-06 0.135397)
(-0.000455184 0.000208933 0.180599)
(0.00119186 4.02232e-05 0.134324)
(-0.00111321 0.00224848 0.0260568)
(0.000129085 0.00073844 0.122586)
(0.00260413 -0.00148199 0.0569057)
(-0.00715976 -0.000788886 0.0704771)
(-0.000389555 0.000277079 0.153428)
(0.000408353 -0.000220424 0.0930285)
(-0.000103025 0.000134777 0.14627)
(-0.00343137 0.00215582 0.0202985)
(0.00056282 -0.00065045 0.176179)
(-0.000328846 -9.29339e-05 0.176205)
(-0.000779301 2.90795e-06 0.174214)
(0.000685281 -0.000652571 0.0912043)
(0.000374159 -0.00150883 0.152966)
(-0.000450699 -0.000793616 0.170602)
(-6.49883e-05 0.000422794 0.121252)
(-0.000943043 0.000445037 0.17677)
(-0.00505881 -0.000566099 0.0980332)
(-0.000492163 -0.000438438 0.16916)
(-0.00251446 0.000992033 0.148707)
(0.00148096 -0.00125037 0.0202098)
(0.00014101 0.000265605 0.175373)
(0.00134706 0.00166183 0.116407)
(-0.00289104 -0.00268139 0.0453634)
(-0.000939189 0.00143807 0.0904739)
(0.000319578 0.000131141 0.165829)
(3.51344e-06 -0.000983953 0.128794)
(0.000949827 0.00221145 0.0839753)
(-0.00222966 0.00155591 0.0200633)
(-8.6151e-05 0.000599966 0.172353)
(0.000577688 0.00240132 0.124454)
(-0.000682481 -4.46501e-05 0.160199)
(-0.000733916 -0.000160553 0.123973)
(-0.00223992 0.000599188 0.0361388)
(0.000426605 -2.49381e-05 0.140793)
(-0.00390893 0.000304261 0.0258674)
(3.23449e-05 0.000761503 0.161737)
(-0.011957 0.000602481 0.10228)
(0.00111171 0.000528206 0.166628)
(-0.000241917 0.00175448 0.0507531)
(-0.0012184 0.00156704 0.105764)
(-0.0002294 0.00125263 0.0945893)
(0.00193971 -0.00174901 0.0340966)
(0.000269019 0.000473637 0.177545)
(-0.000717538 -0.000413346 0.169106)
(-0.00207726 -0.000800191 0.0214866)
(-3.62825e-05 -0.000543124 0.160549)
(-0.000651031 6.11443e-05 0.177485)
(-0.000568365 0.00207587 0.036367)
(0.00145912 0.00223555 0.0605011)
(-0.0013904 0.00193598 0.0526775)
(-0.000587033 0.000457916 0.153479)
(-0.000214812 -0.000328231 0.174719)
(-0.00121652 0.00121817 0.0324922)
(0.00170356 -0.000751871 0.0528254)
(-0.000202652 0.00108361 0.0555075)
(0.00120253 0.000889743 0.114616)
(-0.000415919 -0.000348113 0.175888)
(-0.00266291 -0.00181055 0.0227006)
(0.000995844 0.000319223 0.158992)
(-0.00287041 -0.000957201 0.151672)
(-8.7447e-06 -0.00119717 0.175319)
(-0.00234845 -0.00482952 0.0900994)
(0.000891976 0.000367228 0.167196)
(0.00115339 -0.0021483 0.022227)
(-0.000532466 -0.000155283 0.163505)
(0.000164179 -0.000388382 0.0266141)
(-0.000157774 -0.00181076 0.0589866)
(-1.12398e-06 0.00120411 0.154413)
(-0.0010757 0.00150863 0.0593725)
(-0.00269179 0.00159138 0.0200653)
(0.000325409 -0.00128804 0.0359212)
(0.000397977 0.00277905 0.0443054)
(0.000766825 -0.00181698 0.0574585)
(-0.000742744 -4.83683e-05 0.146487)
(-4.33288e-05 0.00111875 0.049113)
(0.0010857 -0.00186674 0.0579552)
(-0.0154658 0.000630995 0.12822)
(-0.00061308 -0.000536525 0.167607)
(0.00152425 1.55616e-05 0.0233453)
(0.00024372 0.00106042 0.105972)
(-0.00848546 -0.00430286 0.081287)
(0.000905163 7.56413e-05 0.169123)
(-0.00103437 0.000844654 0.0572065)
(-0.00116486 -0.000528684 0.16408)
(0.001303 0.0024821 0.0560745)
(-0.000701427 0.000513665 0.122667)
(-0.00062888 0.000149211 0.173864)
(0.00266911 -0.00423384 0.0497946)
(-4.83203e-05 -2.00572e-05 0.173338)
(-0.00317817 -0.000829222 0.0475516)
(0.00256961 -0.00162537 0.018675)
(-0.00059618 0.000718971 0.145649)
(0.000235566 -0.000159394 0.174976)
(-0.00092342 0.000545745 0.129388)
(0.000769872 -0.00161244 0.124685)
(0.00111277 -0.000107869 0.174972)
(0.00168865 -0.000154347 0.0595096)
(0.00109154 -0.000323685 0.165955)
(0.00129357 0.00270132 0.0558144)
(-0.000162869 -0.000378728 0.172232)
(0.00183188 0.000776419 0.125726)
(-0.00321276 -0.00213719 0.0272468)
(-0.000998903 0.000299738 0.153379)
(0.00106622 -0.00123879 0.0508989)
(0.00125994 0.00225615 0.0253232)
(-0.00102002 0.000389955 0.148497)
(-0.00159433 8.87474e-05 0.0421173)
(-1.73789e-05 0.000342073 0.137566)
(9.42884e-05 0.000988425 0.174338)
(-0.000179385 0.000545454 0.130563)
(0.00011404 0.00347318 0.0524287)
(0.00154726 -0.000178879 0.176305)
(0.0017142 0.000449138 0.0889048)
(4.14167e-05 0.000411979 0.1816)
(-0.000368377 0.000252001 0.177517)
(0.000341099 0.000862492 0.177134)
(-3.06223e-05 -5.5681e-05 0.17455)
(0.00289688 -0.00115419 0.0429202)
(0.000365993 0.000393876 0.0502841)
(0.000302371 -0.000119753 0.174651)
(0.000125252 -0.00168443 0.161461)
(0.000476594 0.00236333 0.0308571)
(0.000498261 -0.000191253 0.160487)
(-6.86392e-06 0.00027233 0.17767)
(0.000504192 0.000765644 0.173905)
(0.000779303 0.000889851 0.177396)
(-0.00143448 0.000766568 0.115337)
(-0.00161324 0.00225869 0.020796)
(0.000602754 -1.58364e-05 0.175192)
(0.000801509 -0.00134147 0.0991561)
(-0.00054831 0.000555025 0.150748)
(-0.000147138 0.00022711 0.094563)
(-0.00170976 -0.0010809 0.0283209)
(-0.000665705 -0.000215134 0.175888)
(-0.00200383 0.00253804 0.0903049)
(0.000201293 -0.000247057 0.13244)
(0.000646623 0.000701364 0.178702)
(-0.000834857 0.00136337 0.140928)
(0.00152111 0.00197725 0.01677)
(-0.00223655 0.00102841 0.0213431)
(-0.000236407 -7.83744e-05 0.172332)
(0.000942641 -0.00070399 0.166176)
(-0.000647585 0.00110494 0.178797)
(-0.00102326 -0.000789734 0.151631)
(-0.000344886 0.00143786 0.0907661)
(-0.000457073 0.00109385 0.149219)
(8.66353e-06 0.000661545 0.172539)
(0.000699976 0.00161455 0.0195363)
(-0.000559673 -4.45865e-05 0.173791)
(-0.0149628 0.000932798 0.134963)
(-7.16516e-05 0.00199374 0.0361731)
(-0.000375874 0.00349172 0.0531857)
(-0.000285722 0.000901767 0.143851)
(0.00186698 -0.000719406 0.140485)
(0.000267477 -0.000485492 0.137337)
(0.000832532 -0.000534333 0.123172)
(-0.00305869 0.00217164 0.103749)
(-0.000182308 -0.00017988 0.177884)
(0.000677939 -0.00293762 0.0966154)
(0.000790882 -0.000450836 0.173422)
(0.000258056 0.000848216 0.169397)
(0.000746761 -0.000246057 0.181105)
(0.000519172 -0.000670312 0.171511)
(0.00155099 0.00116098 0.0387952)
(0.000771626 -2.81282e-05 0.162654)
(-0.000320553 -0.00156953 0.0313716)
(-0.0105812 -0.00143928 0.0944265)
(0.00193736 -0.0013763 0.0584541)
(-0.0132605 -6.09345e-05 0.127252)
(0.000749459 0.000650002 0.130041)
(-0.0195124 0.000472536 0.117453)
(0.000148099 0.000505438 0.16807)
(-0.000451322 -0.00015825 0.173797)
(-0.000751618 0.000182497 0.153697)
(0.000601587 0.000824103 0.168791)
(-0.000591759 -0.000176886 0.032384)
(-0.0045713 0.000142926 0.100941)
(-0.0161263 0.00113761 0.112489)
(-0.000295225 -0.000141076 0.172821)
(-0.000735965 0.00227972 0.111407)
(-0.0141645 0.000958389 0.136879)
(-0.00564021 0.000331878 0.156639)
(0.000601491 0.00105464 0.109971)
(-0.00128204 -0.000533686 0.0337717)
(0.00141525 0.00257907 0.0522049)
(-0.0002198 -0.00012876 0.0233626)
(0.00126433 0.00115513 0.0222267)
(-0.000190482 -6.61102e-07 0.0330519)
(-0.0108204 0.000372812 0.133619)
(-0.000818952 -0.000467149 0.13828)
(-0.00216243 -0.00239073 0.0225556)
(-0.00271724 0.000731924 0.0213654)
(0.000230561 0.000230332 0.178717)
(-0.0149062 0.00327096 0.096134)
(-0.00165365 0.000119784 0.0356152)
(-0.000504293 -9.74765e-05 0.147512)
(-0.00162649 0.000873933 0.104653)
(0.00119054 -0.000336036 0.134054)
(0.001308 0.00198159 0.0399748)
(-0.00105763 -0.00136386 0.0522677)
(0.000227385 0.00119299 0.11045)
(0.000666583 0.000330523 0.167767)
(0.000344002 0.000750513 0.15177)
(-0.00174832 0.00240155 0.0340374)
(-0.000593116 -0.00200819 0.0227951)
(-0.0189058 0.000203357 0.106234)
(-0.00258344 0.00185117 0.0243416)
(-9.1971e-05 0.00137852 0.134069)
(-0.00336129 -0.00106976 0.0258012)
(0.000600856 0.00213297 0.1032)
(-0.000781125 -0.000310774 0.172779)
(0.0012281 0.000286701 0.174847)
(-0.000410523 -0.000959417 0.0417145)
(0.00087317 -0.0005714 0.0969658)
(-0.00182235 -0.000258024 0.0334148)
(-0.00331459 -0.000191424 0.0263947)
(0.000107888 -0.000766869 0.17337)
(-0.00250431 0.0012273 0.0180671)
(0.000908116 0.000329052 0.163548)
(-0.000415037 -0.00231907 0.0456461)
(-0.00024049 0.00114679 0.15486)
(-0.000224454 0.00058142 0.141314)
(0.00308545 0.00124942 0.0206573)
(-0.000965182 -0.00249085 0.0544113)
(-4.2132e-05 0.000668102 0.148401)
(-0.000128009 0.00155908 0.032364)
(0.000574852 -0.000384705 0.158355)
(-0.00126024 0.00359234 0.0514462)
(0.000259648 0.000108884 0.107151)
(0.000820231 0.000363384 0.176393)
(0.00127487 2.08953e-05 0.0343509)
(-0.00299397 -0.000607769 0.0222785)
(-0.000950896 -0.000325537 0.048046)
(-0.0177944 9.13179e-05 0.110791)
(-0.000550744 7.91108e-06 0.103234)
(0.000114366 0.0035526 0.053484)
(0.00127028 -0.000215316 0.0831946)
(0.00044628 0.00123709 0.0288932)
(0.00104959 0.000296809 0.177093)
(0.000996918 0.00132227 0.0220714)
(-0.000625119 0.000557757 0.168071)
(0.000246906 0.000107858 0.144789)
(-0.000171072 8.83207e-05 0.1656)
(-0.00183004 -0.000218568 0.018307)
(0.000550364 -0.000118232 0.150538)
(-0.000555684 0.000424625 0.0808952)
(9.10296e-05 0.000176954 0.156624)
(0.000148619 0.000541207 0.0519801)
(-0.0146394 0.000392074 0.10816)
(-0.00132889 0.000741027 0.15959)
(0.000649789 -3.64907e-05 0.0376561)
(3.15079e-06 0.000775016 0.179792)
(-0.0204636 0.00238316 0.108866)
(-0.000752115 -0.000388498 0.116999)
(-0.000731456 -0.00173785 0.0310464)
(-0.001162 0.00228462 0.0480997)
(-0.000227231 0.000149055 0.175478)
(0.000776736 -0.00109051 0.13184)
(-0.00102797 0.00123755 0.0303887)
(-0.000262196 -0.00206698 0.108905)
(0.00150819 0.00111614 0.0580029)
(-0.00159071 0.00183556 0.023084)
(-0.000455691 3.55522e-05 0.173896)
(-0.0101209 0.000481533 0.103341)
(-0.00102654 -0.00220361 0.130551)
(-0.00010522 0.000389024 0.169696)
(0.000467609 0.000367794 0.172284)
(0.000331861 -0.000463016 0.16616)
(0.00074706 -9.5922e-05 0.13225)
(0.00108963 0.000357966 0.0412271)
(-0.000460009 0.00256713 0.0377766)
(0.000598565 0.000411102 0.176322)
(-0.0128264 -0.00055278 0.10758)
(0.000225211 0.00127355 0.121072)
(0.0014574 -0.00104167 0.128007)
(0.00184475 -0.000869419 0.0794637)
(-0.00052462 0.00113927 0.147571)
(0.000253983 0.000973162 0.161584)
(-0.0010253 -0.000896515 0.0979017)
(-0.00146913 0.00125343 0.103042)
(-0.00126404 0.00194285 0.0360267)
(-0.000605888 -0.000333399 0.069627)
(-0.00262023 -0.00198852 0.0411151)
(0.000773129 -0.000983768 0.150814)
(0.000224332 -0.000142176 0.171182)
(-0.000541039 0.00270339 0.0925925)
(6.38383e-05 -0.000946596 0.0970263)
(0.00116186 -0.00175545 0.0198367)
(0.000140932 -0.000719269 0.0775793)
(-0.0027794 -0.00129475 0.0558226)
(-0.000812878 0.000704771 0.171965)
(0.00136518 0.000207382 0.173132)
(-0.011311 -0.000733621 0.104821)
(-0.00127115 0.000368835 0.160614)
(-0.00139466 0.00266631 0.0800322)
(-0.0083352 0.000378446 0.101707)
(0.00053158 -0.00233637 0.13293)
(0.00175018 0.000824363 0.0248064)
(0.000986299 -0.000161366 0.173158)
(-0.000196247 0.00135157 0.0477179)
(-0.00131404 -0.000378898 0.138964)
(0.00342741 -0.00175334 0.0269458)
(0.000801125 -0.000174373 0.17132)
(-0.00508538 -0.000291812 0.101647)
(-0.000401365 -0.000305964 0.156724)
(0.000418463 -0.000450175 0.114784)
(-0.000254049 0.000486682 0.14597)
(0.000158919 0.00105582 0.149255)
(-0.000851956 0.000212626 0.178139)
(0.000184279 0.00193384 0.0328437)
(-8.00844e-05 -0.00115614 0.0453955)
(-0.00032374 0.000685238 0.027481)
(-4.29569e-05 0.000685674 0.171665)
(0.000816582 -0.00017817 0.155593)
(0.00167959 0.000589192 0.136112)
(0.000902439 -0.00106105 0.158696)
(0.000234576 -0.00058864 0.0199392)
(3.42403e-05 0.000292555 0.0968336)
(0.00147646 -0.00140887 0.0877305)
(-0.00029964 -0.000171731 0.17157)
(-0.000935781 -0.000131698 0.126248)
(4.75167e-05 -0.000530272 0.14497)
(-0.00127227 0.000524613 0.104784)
(-0.000102856 1.43723e-05 0.174595)
(-0.00267118 0.00193407 0.0196304)
(0.000358053 0.00339761 0.0837231)
(-0.000367261 0.000301587 0.151414)
(-0.000155877 0.00291739 0.02479)
(0.000315167 0.00210035 0.0426461)
(-0.00107837 -0.000508857 0.059848)
(-0.00231638 -0.00101519 0.0205602)
(0.00139516 1.99528e-05 0.0934748)
(-0.000444622 5.62068e-05 0.166676)
(-0.000462787 0.00227751 0.0578731)
(0.00221392 0.00188783 0.0182403)
(-0.000290868 -0.000849898 0.103337)
(0.000398961 6.71789e-05 0.0245065)
(5.99975e-05 0.00141177 0.0972902)
(3.6339e-05 0.00017469 0.16976)
(0.000340507 0.000163329 0.178763)
(0.000305238 5.77891e-05 0.169357)
(0.00063774 0.000655056 0.16239)
(4.22044e-05 -2.2454e-05 0.170559)
(-0.000433545 0.00191158 0.129345)
(0.000999065 -0.00104559 0.0447596)
(0.000922194 2.38997e-05 0.171189)
(6.20748e-05 -0.00095882 0.12343)
(-0.00081887 -0.00147333 0.0864034)
(-0.00154611 -0.000536595 0.0947184)
(-0.000149678 -6.83929e-05 0.161337)
(-0.00118884 0.000701895 0.114687)
(0.000986532 0.00141284 0.0636368)
(-0.00102259 -0.00091943 0.153732)
(0.000363547 -0.00120027 0.0319471)
(0.000613081 0.00038957 0.0859208)
(0.000287013 -0.000218933 0.0950019)
(-0.00082143 0.000673314 0.0591451)
(6.80985e-05 8.30889e-05 0.159187)
(-0.0184172 -0.000498409 0.105997)
(-0.00956138 0.00029634 0.127178)
(-0.000554614 0.00268973 0.0313306)
(0.00180094 -0.000283029 0.0253057)
(-0.000180488 0.00225154 0.0542411)
(0.00195622 -0.00045379 0.0196079)
(-0.000687575 0.000512711 0.125364)
(0.00029258 0.00110285 0.152684)
(-0.000979533 0.00133509 0.128344)
(-0.015285 0.00120777 0.110235)
(-0.000334721 -0.000150247 0.132958)
(0.000299711 0.000680671 0.145873)
(0.00412372 0.00288282 0.024095)
(-0.000321286 0.00067924 0.155632)
(-0.013196 -0.00035785 0.127567)
(-0.00129166 -0.00034294 0.0424682)
(0.0026824 0.0024098 0.0211968)