/*--------------------------------*- C++ -*----------------------------------*\
| =========                 |                                                 |
| \\      /  F ield         | OpenFOAM: The Open Source CFD Toolbox           |
|  \\    /   O peration     | Version:  2406                                  |
|   \\  /    A nd           | Website:  www.openfoam.com                      |
|    \\/     M anipulation  |                                                 |
\*---------------------------------------------------------------------------*/
FoamFile
{
    version     2.0;
    format      ascii;
    arch        "LSB;label=32;scalar=64";
    class       volScalarField;
    location    "44";
    object      nut;
}
// * * * * * * * * * * * * * * * * * * * * * * * * * * * * * * * * * * * * * //

dimensions      [0 2 -1 0 0 0 0];

internalField   nonuniform List<scalar> 
59516
(
7.44739e-06
1.93356e-05
2.79171e-06
1.5762e-05
0.00108886
0.000186196
5.39927e-06
9.19068e-06
3.57281e-06
7.63853e-05
0.000392286
6.16272e-05
5.40641e-06
0.000150501
6.89959e-05
6.24173e-05
7.85462e-05
9.23557e-05
1.70577e-05
3.82111e-05
0.000134742
8.91359e-06
1.44909e-05
0.000124826
8.92775e-06
5.80903e-05
0.000118892
0.000156519
7.43205e-05
0.000130848
0.000242205
0.000148347
4.21517e-06
1.34517e-05
2.70521e-05
7.38955e-06
0.000127675
8.39604e-05
2.09511e-05
1.75569e-05
7.28925e-06
0.000174512
2.84176e-05
1.6283e-05
1.05679e-05
6.20581e-05
9.96805e-06
0.000128171
0.0008628
8.33948e-05
0.000623686
0.000113633
2.35093e-06
4.1576e-06
0.000140116
9.88914e-06
0.000258465
0.000129207
8.23983e-05
3.19932e-05
1.87753e-05
0.000139457
6.76971e-05
6.92895e-05
1.05253e-05
2.50077e-05
0.000182749
0.000113422
0.000424574
4.43577e-06
0.000199944
4.61047e-05
0.000161913
1.09578e-05
0.000149924
4.20503e-05
0.000107789
1.48454e-05
0.00010912
8.04136e-05
0.000115885
4.17886e-05
2.09694e-05
0.000148659
4.37046e-05
0.000109605
0.000114613
8.5242e-06
6.27835e-05
4.98663e-05
0.000537817
1.85494e-05
6.86813e-05
1.34843e-05
5.42555e-05
0.00108812
1.59802e-05
6.20538e-05
7.4373e-05
1.67454e-05
0.000132571
0.000162893
0.00015971
6.22707e-05
5.91618e-06
3.2758e-05
0.000124168
3.66524e-06
1.25811e-05
6.61265e-05
0.000244946
0.000174251
7.07745e-05
0.000154294
2.7374e-05
9.9512e-06
6.24405e-05
9.7736e-06
0.000148401
1.48984e-05
0.000221105
7.67166e-05
1.78368e-05
7.28629e-05
0.000236127
2.35857e-05
0.00017864
0.000110683
0.000281022
0.000128464
0.00017832
4.75967e-06
0.00014202
6.45355e-06
1.53579e-05
2.61098e-06
0.000112291
1.47283e-06
0.000122769
2.16763e-05
0.000114933
0.000141787
0.000126858
6.32088e-06
0.000135764
1.00452e-05
9.99806e-06
7.12466e-06
0.000251074
7.27462e-06
1.77749e-05
0.000111975
2.59457e-05
1.58488e-05
1.54924e-05
0.00013924
1.00007e-05
4.20193e-06
2.13912e-05
0.000141436
7.17479e-05
6.95801e-05
0.000119735
0.0001682
1.03753e-05
7.62474e-05
6.14274e-05
0.000115424
0.00013347
2.47186e-05
2.00248e-05
6.12773e-05
4.59636e-05
5.07593e-06
9.74222e-05
1.35531e-05
7.35213e-05
4.2482e-05
6.37364e-05
0.000100225
7.60853e-06
0.000115974
0.000189754
4.80537e-05
0.000112811
6.01416e-05
9.71176e-05
0.000137474
3.57215e-06
1.24867e-05
1.86037e-05
6.33353e-05
4.60379e-05
4.44073e-05
9.78742e-06
9.90888e-05
5.95385e-05
0.000100146
1.77377e-05
1.20675e-05
3.59696e-05
0.000197261
8.95636e-06
0.000130286
3.82014e-06
9.96028e-06
0.000153106
4.53642e-05
0.000143332
1.05533e-05
7.27658e-05
0.000177957
1.07641e-05
6.74093e-05
6.46199e-06
5.30213e-05
8.6712e-06
9.24605e-06
6.91544e-05
1.94304e-05
7.11083e-05
2.09668e-05
5.8158e-05
0.000134177
7.6896e-05
8.61898e-05
0.000168925
0.000113059
8.01787e-05
6.5766e-05
6.3861e-05
8.98218e-05
0.000204387
0.000154362
0.000113385
9.87094e-05
5.01546e-05
6.48976e-06
3.07349e-05
7.45856e-05
0.000184376
0.000151124
5.816e-05
0.000166879
0.000157599
1.36851e-05
1.85875e-05
6.60407e-05
4.06451e-05
6.79667e-06
2.8606e-05
1.34305e-05
0.000218924
1.97387e-05
1.32638e-05
2.66442e-05
7.4054e-05
2.43668e-05
0.000112031
6.56909e-05
3.80617e-06
3.8337e-05
8.46115e-06
8.61637e-05
6.93073e-06
5.48433e-05
3.82053e-05
1.54278e-05
0.000140046
5.86814e-05
1.97142e-05
8.1646e-05
8.35479e-06
1.75789e-05
4.60612e-05
1.39763e-05
0.000136717
2.586e-05
0.000152897
0.000112278
0.000176107
8.07367e-06
0.00017132
6.80839e-06
4.80031e-06
8.16507e-05
0.000146387
0.000172634
0.000179098
0.000269139
9.80275e-05
8.17892e-06
1.35203e-05
1.47939e-05
5.48933e-05
0.000181913
4.45406e-05
5.05709e-06
0.000228006
8.76886e-05
2.76751e-06
5.43505e-05
0.000147939
0.000156478
1.7041e-05
0.000148404
9.79544e-05
7.4232e-05
5.35979e-05
5.67315e-05
8.24969e-06
5.68894e-05
1.272e-05
0.00012642
6.41223e-05
4.34929e-05
1.37034e-05
0.00108101
2.25687e-05
0.00010641
7.2061e-05
1.27521e-05
0.00010316
0.000180903
0.00022466
2.27912e-05
3.30416e-05
8.16161e-06
6.95186e-05
3.47784e-05
2.37906e-05
5.88774e-05
0.000156829
1.7601e-05
0.000107493
0.000116323
4.15919e-05
7.0186e-06
6.56983e-05
9.38342e-05
2.6461e-05
0.000164966
9.52105e-05
0.000103483
2.38051e-05
0.000149958
6.16317e-05
0.000179636
0.000120962
9.78961e-06
9.04327e-06
2.39547e-05
6.31356e-06
2.6729e-05
0.000120534
0.000122861
1.73403e-05
0.000143082
0.000263659
2.13615e-05
9.36652e-06
9.98415e-06
0.000302766
1.42891e-05
5.23339e-06
1.77372e-05
2.18694e-05
0.000122584
0.000287864
7.17127e-05
0.000107749
0.000117965
4.25716e-05
1.82478e-05
3.41671e-05
0.000136229
6.7315e-06
0.000118742
6.14297e-05
5.51768e-05
5.59804e-05
4.53904e-06
0.000414867
0.000157167
6.385e-05
8.61651e-06
0.000147968
3.19628e-05
7.82477e-06
3.28468e-06
1.99262e-05
1.94024e-05
3.28598e-05
0.00012817
0.000176672
9.81493e-05
6.66043e-05
6.50629e-05
0.000136104
0.000113742
5.56468e-05
2.70975e-06
1.0682e-05
0.000150454
0.00013308
0.000121627
9.08032e-06
1.10595e-05
1.02098e-05
1.94408e-05
0.000159837
0.000150391
3.09363e-06
0.000100827
0.00017654
0.000117316
8.47501e-05
5.40076e-06
0.000151187
0.000119548
0.0001638
0.000105816
9.30989e-05
1.04454e-05
0.000155659
6.28353e-05
6.32519e-05
1.11601e-05
2.60111e-05
0.00012478
8.46675e-06
1.63629e-05
0.000102564
0.000117459
0.00013988
0.000206465
0.000159851
1.39341e-05
2.94103e-06
0.000105684
0.000149667
8.35369e-06
2.94621e-05
0.000117217
1.92011e-05
5.08238e-06
0.000223241
4.89031e-06
0.000166191
6.39469e-06
5.8753e-05
0.000254409
3.67161e-05
1.55768e-05
1.51225e-05
0.000150717
0.000143307
0.000164195
0.000145794
1.11372e-05
2.78762e-05
0.000106178
1.39757e-05
0.000196543
2.19292e-05
7.61857e-05
9.72856e-06
0.000141086
0.000124452
7.11422e-06
0.000115655
9.5103e-06
6.18743e-05
6.37169e-06
2.40451e-05
0.000145804
7.27703e-05
3.57497e-06
2.68823e-05
6.36133e-06
0.000101804
1.18195e-05
0.00017496
5.59966e-05
0.000792401
8.13916e-05
0.000125239
7.77921e-06
9.89895e-06
8.72392e-05
0.000241046
0.000144434
0.000164109
4.98647e-05
0.000242064
0.000132305
6.39244e-05
5.8667e-05
2.89948e-05
0.000172835
0.000214598
5.90789e-05
5.66418e-05
4.7707e-06
0.000194893
0.000157538
1.91488e-05
1.8748e-05
0.00015346
0.000233245
4.24116e-05
0.000143982
4.37724e-05
0.000146388
5.11751e-05
1.54016e-05
5.71526e-05
0.000150101
0.000128082
0.000110208
6.51436e-05
4.61393e-06
6.28507e-05
5.45799e-05
0.000394929
0.000107254
0.000163384
6.66836e-06
0.000119627
8.4946e-05
6.43665e-05
9.16394e-05
6.99827e-05
1.05285e-05
0.000136561
8.93872e-05
7.32222e-05
0.000149812
0.000137576
9.35768e-06
0.00016322
7.77779e-06
5.88391e-06
0.000133275
7.3966e-05
5.17066e-05
5.7129e-05
0.000112813
6.35982e-06
0.000162423
1.3715e-05
0.000121366
0.000162506
8.45144e-06
0.00010327
1.10739e-05
0.000187626
9.80794e-06
5.64359e-05
0.000115436
1.94532e-05
0.000142656
9.91659e-05
0.000154053
0.00016541
0.00010931
6.91211e-05
0.000113683
2.60641e-05
0.000124719
4.77357e-05
9.33946e-05
8.32783e-05
0.000136406
2.52732e-06
0.000141058
6.16082e-05
1.76889e-05
2.9808e-05
9.27201e-06
0.000167531
0.00019405
2.03972e-05
3.53533e-06
0.00018486
8.22794e-06
0.000115273
0.000149219
0.000141102
7.51493e-05
0.000229309
3.98877e-05
1.70869e-05
1.56845e-05
0.000115787
0.000136984
0.000178131
0.000157531
0.000126658
5.7114e-05
5.07866e-06
8.38169e-06
6.79094e-06
3.32055e-06
7.94728e-06
0.000226449
2.09601e-05
8.57268e-05
7.61282e-05
0.000134236
0.000114602
0.000132313
4.53273e-05
0.000115551
0.000207537
5.53297e-05
0.000545212
7.74242e-06
0.000159826
0.000108909
5.39265e-05
1.69365e-05
9.27367e-05
0.000114786
0.00148365
0.000702345
0.000151488
3.12154e-06
0.00015614
0.000250796
7.1086e-06
0.000105142
5.00669e-05
0.000154138
0.00016274
0.000178876
3.98267e-05
1.50404e-05
0.000157654
0.000151755
0.000265224
0.000209456
0.000115198
1.22348e-05
4.02504e-06
6.55091e-06
0.000132322
6.09363e-05
5.17243e-06
8.22235e-05
2.10058e-05
0.000116512
0.000145664
0.000391289
0.000175762
8.13347e-06
0.000165233
1.25362e-05
0.000148794
5.32807e-05
0.000107541
1.37029e-05
0.000102613
0.000172448
0.000131328
0.0001348
6.60606e-05
0.000126996
2.62529e-05
1.04457e-05
0.000144662
6.26191e-05
1.1843e-05
0.000114678
5.24646e-05
6.79501e-05
5.70043e-06
0.000175624
0.000111668
0.000150013
0.000113807
0.000667485
8.14671e-06
6.56304e-05
1.43249e-05
0.000106617
0.000195244
0.000153309
3.57083e-05
2.16364e-06
6.1823e-05
0.000139467
8.43089e-06
1.99554e-05
2.74783e-05
7.1532e-05
0.000881645
1.44209e-05
9.84362e-05
0.000247269
0.000486928
2.50076e-06
0.00011218
0.000127117
0.000172784
3.42647e-06
0.000113685
4.27921e-06
6.04198e-05
0.000156671
0.000137509
0.001245
2.65782e-06
8.90211e-05
0.000127347
7.06802e-05
4.67396e-06
0.000108632
0.000115843
0.000137305
0.000984262
3.24402e-06
6.64338e-06
2.38761e-05
9.97432e-06
5.22986e-05
1.37271e-05
6.61971e-06
0.000149065
6.28006e-05
0.000137082
1.96675e-05
8.32576e-05
1.54875e-05
8.53645e-06
0.000133343
2.34085e-05
6.9266e-05
0.000101447
0.000122131
0.00118124
4.75221e-05
1.79798e-05
0.000839615
1.17521e-05
0.000168822
0.000127468
6.43581e-05
6.86468e-06
0.000173928
6.20175e-05
0.00134795
2.7137e-05
4.20665e-06
1.73786e-05
1.07881e-05
0.000168329
0.000124519
0.000130855
9.93493e-05
0.000137655
3.33188e-05
1.13694e-05
1.47782e-05
0.000129152
2.34005e-05
2.04269e-05
0.000122659
6.51135e-06
1.98886e-05
1.97566e-05
0.000192661
0.000147635
1.54979e-05
3.56349e-05
0.000165993
9.63843e-05
5.86837e-05
0.00014709
2.84153e-05
5.63104e-05
5.85498e-05
0.000138173
7.15581e-06
0.000153313
7.02467e-06
0.000105002
0.000245694
0.000105636
2.35642e-05
0.000122515
7.0678e-06
0.000105944
0.000105215
5.05118e-06
1.62853e-05
2.6402e-05
5.76566e-05
4.45112e-06
4.92154e-05
1.09307e-05
0.000117885
1.68585e-05
1.35295e-05
6.68103e-05
2.11708e-05
0.000264403
5.34708e-05
0.000112934
0.00017614
5.69877e-05
0.000140695
5.79276e-06
2.80388e-05
6.23614e-06
8.65171e-05
1.09456e-05
2.2905e-05
0.000154868
3.46956e-05
0.000588739
9.80528e-05
0.000154357
4.18904e-06
6.48211e-06
0.000154417
3.23894e-05
0.000149167
9.19662e-05
2.95697e-05
9.7356e-06
1.30978e-05
2.43535e-05
1.36305e-05
0.00014696
0.000136122
0.000118564
1.0424e-05
9.80026e-06
0.000134672
1.03341e-05
0.000317393
9.5163e-05
8.173e-05
2.65217e-05
3.03797e-05
0.000238186
2.011e-05
0.000126407
8.16917e-05
8.34967e-06
0.000131387
4.10742e-05
0.000143717
1.21407e-05
1.33732e-05
3.66839e-06
6.29013e-06
2.07633e-05
8.16221e-06
1.62992e-05
3.58111e-06
5.12471e-05
5.61204e-05
0.000120883
0.00155904
3.01135e-06
1.08219e-05
9.74197e-06
0.000131345
0.000102445
6.4967e-06
8.45558e-06
5.82493e-06
0.000230017
1.32519e-05
0.000190543
0.000137099
0.000224672
1.05667e-05
0.000123063
0.000146861
4.95474e-06
2.29968e-05
0.000114736
2.64531e-05
0.000140679
1.10298e-05
0.000127927
0.00022754
0.000112968
6.01839e-05
0.00143781
0.000126715
5.39719e-06
0.000109796
0.000161957
7.81627e-05
5.96407e-05
9.26026e-06
9.83014e-05
2.62613e-05
9.38208e-05
8.09378e-05
1.71584e-05
2.20598e-05
0.000128702
3.05276e-05
4.30237e-05
6.7055e-06
2.32202e-05
1.904e-05
0.000185338
0.000147381
0.000132902
9.57483e-05
1.59507e-05
2.65783e-05
0.000131388
6.14633e-05
1.34956e-05
0.000124158
8.71409e-05
7.7224e-05
5.49802e-05
6.58512e-05
0.000149746
6.01476e-05
0.000100071
9.88225e-05
0.00019448
0.00139988
5.65192e-06
9.64241e-06
0.000124386
6.4076e-05
5.46706e-05
1.8109e-06
0.000124186
6.29659e-05
8.01107e-06
0.00027998
0.00028368
0.000186026
1.49589e-05
1.49133e-05
0.000149637
0.000294749
1.26995e-05
0.000175254
0.000166349
0.000156279
0.000111645
1.77025e-05
6.73129e-05
5.32389e-05
0.000116997
7.45664e-05
4.64048e-05
6.4693e-06
0.000105549
0.000132932
0.000107915
1.69355e-05
5.2704e-05
5.00767e-05
1.40854e-05
0.00022075
6.24431e-05
2.58855e-05
6.33803e-05
7.15855e-06
0.000195045
0.000230148
3.91319e-06
0.000176962
0.000105705
6.13717e-05
0.000193992
0.000110898
0.000115928
8.98701e-05
0.000117638
0.000187646
0.000140193
8.11235e-06
1.55898e-05
0.000261265
0.000157839
6.79771e-05
0.000153073
4.40978e-06
0.000169085
0.000144618
1.55401e-05
0.000110432
1.01725e-05
9.76787e-06
1.3274e-05
0.000135811
4.37364e-06
5.06724e-05
0.000153223
0.00026463
0.000160703
5.54849e-05
4.65193e-05
0.000154082
5.62952e-06
1.57266e-05
0.000114213
7.65759e-06
3.85872e-05
0.000159723
4.96579e-05
4.32695e-05
1.7158e-05
7.48228e-06
0.000143408
1.0094e-05
1.74365e-05
0.000115328
5.14156e-06
0.000126635
3.56845e-05
9.60721e-06
0.000127117
0.000185681
0.000151681
1.86692e-05
5.30147e-05
1.47266e-05
1.39986e-05
0.000145806
4.77278e-05
2.2395e-05
5.41505e-05
0.000171938
0.000127544
0.00018718
9.81383e-06
0.000103417
1.99817e-05
5.16249e-05
1.75739e-05
9.89488e-05
9.01728e-06
0.000172345
3.78173e-05
6.42468e-05
6.90578e-06
0.000166312
1.95807e-05
1.27064e-05
0.000190416
0.000124815
2.43993e-05
4.20219e-06
0.000162964
3.9144e-05
4.07508e-05
0.000117807
3.20725e-05
1.2415e-05
0.000167044
5.66846e-05
6.52797e-06
0.000164804
0.000107841
0.000111623
6.98513e-05
1.82191e-05
4.49772e-05
5.87234e-05
6.77478e-05
0.000151838
5.7185e-06
3.71452e-05
3.99351e-05
0.000158783
2.4104e-06
1.02115e-05
0.000111366
0.000115294
1.83499e-05
6.9343e-06
0.000147601
0.000178833
5.49019e-05
6.44839e-06
4.04624e-05
7.74215e-06
9.90135e-06
1.52136e-05
8.08942e-05
6.61532e-05
3.38025e-05
5.41272e-05
1.20679e-05
1.97112e-05
0.000114635
0.000168101
8.10767e-05
5.04834e-06
8.24378e-06
5.15911e-05
3.82439e-05
9.57531e-05
6.02857e-05
0.000118997
0.000132276
0.00016484
9.64365e-05
0.000109123
0.00012621
0.000129457
9.68534e-05
1.32525e-05
0.000172654
2.3924e-05
0.000102372
4.46875e-05
0.000109967
7.73353e-06
2.67327e-05
0.000148065
9.46932e-05
0.000140473
6.66477e-05
5.87645e-06
3.06597e-05
5.86445e-05
6.29654e-05
0.000112315
3.5422e-05
0.000171179
9.53752e-06
4.95432e-06
1.29075e-05
6.82561e-05
0.000149031
0.000193406
9.4585e-05
2.92683e-06
0.000119265
7.97938e-06
7.35373e-06
0.000129456
7.80291e-05
0.000241065
7.80648e-06
1.24163e-05
6.25364e-06
5.62786e-05
2.11213e-05
3.29327e-06
6.91139e-06
1.77915e-05
1.31002e-05
5.08803e-05
1.16509e-05
6.37967e-05
0.000175258
5.2562e-05
0.000113505
6.70032e-06
7.53503e-06
2.1145e-05
0.000142688
1.59024e-05
5.3648e-05
0.000122703
0.00014011
8.55574e-06
0.000118095
9.01793e-06
1.09185e-05
2.13151e-05
1.00319e-05
0.000125721
0.000112917
0.000128585
0.000200804
7.85484e-06
1.38848e-05
9.63292e-06
6.69787e-06
8.15519e-06
0.000195016
7.09298e-06
0.000139029
4.27546e-05
8.81583e-06
0.000142453
0.000159716
1.00878e-05
6.15884e-06
1.40292e-05
4.7101e-05
9.90422e-05
1.61293e-05
0.00012985
0.000226817
0.000277438
1.13477e-05
3.71143e-05
0.000112114
0.000200289
0.00012224
7.43372e-05
6.64477e-05
9.63071e-05
7.6996e-05
4.59069e-05
5.86678e-05
3.40659e-05
4.35451e-05
0.00010402
0.000123931
6.73036e-05
6.68176e-06
6.44692e-05
0.000221731
6.00686e-06
8.72755e-06
1.32467e-05
0.000173827
0.000201512
6.20769e-05
3.23761e-05
7.3713e-05
1.33731e-05
0.000139602
0.00010445
1.00325e-05
9.24854e-06
6.6303e-05
0.000191478
3.15455e-05
5.22594e-05
8.2239e-05
0.000151619
3.57584e-05
1.7209e-05
1.43893e-05
9.04301e-06
6.35266e-06
1.90614e-05
4.74944e-05
0.000171489
7.98564e-06
0.000122191
5.86985e-05
4.71298e-05
6.20268e-05
5.24083e-06
9.92035e-06
4.54913e-05
1.82266e-05
5.2044e-06
8.74814e-05
6.14278e-05
3.26222e-05
0.000104575
0.000177893
9.97362e-05
0.000164515
0.000144829
1.82823e-05
1.11133e-05
9.97928e-05
8.34124e-06
0.000136791
7.67276e-06
1.30446e-05
1.98365e-05
8.02559e-05
5.08235e-06
0.000158276
5.82201e-06
0.000149756
1.03699e-05
0.000145429
2.77887e-05
4.79123e-06
8.33501e-05
0.000154586
6.8977e-05
1.27848e-05
5.99073e-06
5.42028e-05
6.54625e-05
1.32568e-05
0.000147156
0.000123716
0.000151212
6.72696e-06
6.2554e-05
6.06249e-05
0.000167528
2.61878e-05
0.000121735
3.55608e-06
7.1022e-06
9.27051e-06
1.28919e-05
9.11978e-06
0.000140153
0.000107534
0.000166162
2.07752e-05
0.000239824
0.000105536
0.000115865
5.67276e-05
0.000167145
3.45991e-05
0.000166835
8.0874e-05
0.000245916
1.51783e-05
6.12889e-05
0.000159567
0.000109198
7.11073e-05
0.000208019
5.60772e-05
6.50796e-06
0.00171316
6.12287e-05
0.000150202
8.78719e-06
2.03511e-05
0.000136013
2.09085e-05
2.46758e-05
8.74999e-05
1.98682e-05
6.44294e-05
0.000110376
1.16272e-05
0.000197372
0.000117061
1.78264e-05
1.53677e-05
0.000117341
0.000180542
9.99391e-06
7.96412e-05
6.87998e-05
0.000154639
5.151e-05
0.000122793
0.000130489
0.000118714
0.000152368
8.45173e-06
1.65667e-05
0.000150456
0.00014041
6.41231e-05
3.5763e-06
8.14003e-06
7.45815e-06
3.15111e-05
0.000112073
3.80911e-05
0.00140598
2.02577e-05
0.00025444
5.5973e-06
0.000132091
1.20141e-05
1.44702e-05
0.000189174
0.000107291
3.75836e-06
1.15202e-05
0.000138031
2.21164e-05
9.65854e-06
0.000164523
4.13922e-05
0.000114383
2.02462e-06
2.11777e-05
0.000193277
6.10302e-06
7.22841e-06
8.73647e-05
1.42527e-05
1.63686e-05
5.71876e-06
0.000279983
8.23224e-06
1.05701e-05
7.10546e-06
2.07692e-05
0.000209338
7.81334e-06
0.000193081
3.66039e-06
0.000204763
0.000228332
6.99347e-05
7.64443e-06
8.51263e-06
0.000470591
3.0106e-05
9.6679e-06
2.24151e-05
4.4863e-06
0.000158821
0.000167107
0.000221465
6.55839e-05
0.000187943
1.70443e-05
0.000128696
9.21108e-06
0.000108729
0.000146296
0.000233586
5.79098e-05
6.00293e-05
6.38309e-06
9.44652e-05
0.000123059
0.000129232
3.67423e-06
1.9902e-05
0.000162866
8.18831e-06
5.9971e-05
2.23986e-05
0.000100698
2.63225e-05
0.000117813
9.53007e-06
1.33294e-05
2.11017e-05
0.000117501
9.78058e-05
7.10196e-05
0.000105778
6.66699e-06
7.7915e-05
6.77555e-05
6.18717e-05
9.01496e-06
7.61514e-06
1.71175e-05
5.78433e-05
3.20436e-06
0.000140935
8.05938e-05
1.2634e-05
0.00012652
1.78101e-05
1.625e-05
5.23786e-06
1.61912e-05
2.18091e-05
1.3072e-05
1.85676e-05
5.24609e-05
7.15999e-06
4.64857e-05
0.000155966
0.000122671
8.78436e-06
7.56934e-06
1.86311e-05
1.88158e-05
9.91675e-06
0.00013436
1.15792e-05
4.50114e-06
2.10368e-05
1.46547e-05
0.00012859
5.84303e-05
8.64463e-05
4.97285e-06
5.62462e-05
1.01392e-05
0.000154924
1.8163e-06
0.000119054
1.89071e-05
0.000137284
6.76023e-05
1.13956e-05
3.51176e-05
0.000113235
0.000160961
6.65125e-06
0.000188741
3.76062e-05
6.62365e-05
1.91896e-05
1.7676e-05
2.03615e-05
7.79995e-06
0.000157409
1.07472e-05
2.39404e-06
0.000216637
0.000132582
3.46964e-05
5.92788e-06
1.85658e-05
9.94547e-06
0.00010962
5.92725e-05
0.000148155
2.83726e-05
7.7166e-06
1.45768e-05
1.23828e-06
0.000111836
0.000149836
0.000189607
0.000105086
0.00011268
7.40339e-06
0.000104898
6.34755e-06
6.84647e-05
0.000134296
8.15739e-06
1.953e-05
1.89098e-05
0.000133458
3.15173e-06
7.33628e-06
0.000121215
0.000192014
0.000177043
5.45356e-05
0.000130944
0.000185844
8.78558e-06
0.000188231
0.000111341
0.000317205
0.000269114
1.88267e-05
8.80199e-06
2.51806e-05
0.000127229
1.51173e-06
1.3809e-05
1.1085e-05
7.35784e-05
4.21395e-06
0.000109142
1.22601e-05
6.96987e-05
0.000305084
5.66192e-05
2.07166e-05
0.000106674
4.16208e-05
1.77001e-05
7.47852e-06
2.13093e-05
3.92991e-05
0.000124327
0.000112649
0.000217195
6.5686e-05
0.000161705
5.92089e-06
0.000127488
2.53046e-05
0.000151959
0.000120784
5.83719e-05
3.10589e-05
7.62146e-06
9.0194e-05
0.000168188
1.66845e-05
2.44107e-05
8.64878e-05
9.14565e-06
0.000142723
1.91461e-05
0.000123469
6.95084e-06
3.44648e-05
5.37262e-05
3.08198e-05
8.3013e-05
2.51668e-05
5.45903e-05
8.59946e-05
2.04911e-05
7.99303e-05
5.11478e-06
0.000177373
0.000157885
7.16891e-06
0.00017374
2.48924e-06
4.41056e-06
1.86303e-05
0.000191314
3.72031e-06
0.000121767
0.00021541
5.42024e-05
1.71649e-05
0.000119832
1.7998e-06
0.000188311
3.02577e-05
8.28975e-06
0.000115634
7.04445e-06
3.23349e-06
1.75566e-05
9.5559e-06
0.000134849
0.000149661
6.38647e-05
6.57406e-06
7.75262e-05
1.22814e-05
0.000153093
0.000250078
5.11898e-05
0.000198228
4.68557e-05
0.000112728
9.29946e-06
2.85621e-05
0.000121633
0.000185795
0.000210927
1.98988e-05
0.000153499
8.88334e-06
0.00012325
0.000167589
2.42088e-05
0.000101937
0.000169222
1.63656e-05
7.84267e-05
1.16328e-05
0.000121069
5.44141e-06
7.34096e-06
8.0985e-05
1.28804e-05
0.000133682
0.000116763
3.79094e-06
6.48965e-05
1.00822e-05
0.000146714
0.000160245
7.3229e-06
0.00017271
1.84487e-05
5.74064e-05
0.000168374
0.000115594
6.7189e-05
0.000105981
6.57323e-06
2.23911e-05
6.21707e-06
5.79976e-05
0.000179526
8.69754e-05
0.000173104
0.000126894
0.000107418
0.000111416
4.59727e-05
0.000225142
1.29561e-05
7.28575e-06
1.27521e-05
1.21887e-05
5.67983e-05
3.75966e-05
6.22864e-05
0.000120433
5.31895e-05
4.65153e-05
9.73253e-05
9.61184e-06
0.000173877
1.81354e-05
0.000119207
2.51293e-05
6.59569e-06
0.001167
0.000142539
1.29516e-05
7.03074e-05
0.000140856
1.08925e-05
0.000142307
6.2952e-05
7.69512e-05
4.52437e-05
0.000195377
0.000106697
8.73094e-06
5.50263e-05
0.000170056
3.9201e-05
4.59489e-05
9.04749e-05
0.000113893
4.08323e-06
3.43538e-06
0.000219201
3.95989e-05
5.39668e-05
3.66998e-05
0.00023621
0.000148105
0.000104246
5.74609e-06
0.000201608
8.29577e-06
9.4633e-05
9.56786e-05
5.50909e-05
3.00607e-06
6.72092e-06
1.71723e-05
6.56926e-05
5.50292e-05
0.000131441
2.20281e-05
2.46083e-06
5.77352e-05
5.74733e-06
0.000135318
2.29629e-05
8.62328e-05
0.000170544
8.13191e-06
7.81477e-06
3.53475e-05
0.000223863
0.00015948
0.000129927
6.32792e-05
5.43298e-05
0.000170583
0.000159877
0.000163945
1.77593e-05
5.91995e-05
1.59129e-05
4.34639e-05
1.21273e-05
0.000147942
2.3438e-05
3.83431e-06
0.000126327
0.000136361
0.000181965
2.29468e-05
0.000184174
2.99069e-05
0.000306514
0.000242112
3.55129e-05
9.80895e-05
1.39681e-05
2.64313e-05
0.000161268
5.90505e-06
2.99939e-05
8.58153e-05
6.66421e-05
7.68146e-06
1.82833e-05
3.70917e-05
0.000121184
3.62998e-05
8.07519e-06
2.1112e-06
7.14986e-06
0.000120476
5.40762e-05
0.000103346
0.000164705
1.00648e-05
0.000222347
0.000143093
3.07121e-05
0.000110558
6.10261e-06
6.4426e-05
6.48274e-06
6.12471e-05
0.000100255
0.00012017
0.000102873
1.40625e-05
2.90876e-05
3.16312e-05
2.55703e-05
4.97793e-05
4.7123e-06
9.18819e-06
4.40745e-06
1.34598e-05
5.6697e-06
0.000124371
1.5229e-05
4.05721e-06
0.000139831
8.93019e-05
0.000168064
8.73103e-06
7.89151e-06
1.47783e-05
5.41461e-05
1.2775e-05
8.9721e-05
5.45627e-05
0.000140508
2.58113e-06
8.4595e-05
5.32707e-05
0.000131634
0.00010876
6.87828e-05
0.000153834
0.00012474
8.11071e-05
0.000135943
0.000149918
0.000120114
5.64853e-05
0.000174806
0.000115104
9.02671e-06
1.24967e-05
2.20977e-05
3.99251e-06
1.21253e-05
0.000112754
0.000212615
1.04735e-05
4.82382e-06
6.04056e-06
5.17645e-06
4.60463e-05
3.42769e-05
7.33898e-06
7.16674e-05
0.000360262
3.52182e-05
6.10569e-05
0.000129237
8.71217e-05
0.000156923
1.37879e-05
1.61746e-05
4.77061e-05
4.76818e-05
5.99052e-05
0.000167578
6.27595e-05
0.000212467
0.000128999
1.20761e-05
3.57513e-05
0.00012245
2.30046e-05
3.23617e-05
9.19987e-05
6.5922e-06
0.000199302
9.07121e-05
5.77061e-06
5.90183e-05
0.000105671
6.71754e-05
5.94126e-05
1.04796e-05
6.76237e-06
9.52556e-06
5.84353e-05
9.21471e-05
1.27866e-05
1.98955e-05
0.000159596
0.000140491
2.04228e-05
5.58521e-06
6.59668e-05
7.04741e-05
0.000163742
9.13581e-06
3.00229e-06
1.12543e-05
1.77342e-05
2.74006e-05
3.60888e-06
7.08034e-06
0.000130347
5.12738e-06
3.63197e-06
0.000107796
5.44958e-06
6.42407e-06
0.000145684
2.49646e-06
1.51771e-05
7.93976e-06
1.16937e-05
7.04429e-05
0.000112339
4.70664e-05
2.17668e-05
8.14757e-05
2.17697e-05
4.29848e-05
1.84315e-06
1.9766e-05
2.08455e-06
0.000147836
2.22967e-06
0.000114587
0.000121268
4.93835e-06
0.000141021
0.000110861
3.59293e-05
7.05386e-05
5.46221e-05
1.44706e-05
0.000149276
5.5091e-06
0.000103708
1.37667e-05
1.64909e-05
1.54905e-05
7.51451e-05
1.41915e-05
2.30187e-05
0.000147865
2.56425e-05
2.4646e-05
2.12532e-05
0.000125933
2.36707e-05
0.000159989
0.000119006
6.2385e-05
5.37082e-06
3.87513e-05
5.30819e-05
0.000138864
9.47321e-06
0.000157154
0.00012354
0.000163833
0.000101147
1.29819e-05
4.81905e-06
1.01901e-05
8.42198e-06
0.000142756
5.05018e-05
0.00016982
0.000146219
1.30387e-05
6.94562e-05
1.52914e-05
4.5355e-06
2.19292e-05
0.000145684
5.99649e-05
0.000114263
9.94368e-05
5.07998e-05
5.35323e-05
1.18442e-05
1.85113e-05
6.23687e-05
0.000140467
0.000160542
1.05728e-05
4.34205e-05
0.000103826
1.57911e-05
9.70654e-05
6.70099e-05
3.69453e-06
0.000149391
1.33695e-05
0.000117492
1.16324e-05
1.98209e-05
9.76189e-05
2.03191e-05
3.56521e-05
9.8679e-06
2.75158e-05
1.7646e-05
0.000126895
1.43889e-05
0.000121199
4.0983e-05
0.000137586
5.26104e-05
3.22977e-06
0.000190394
0.000190505
3.06012e-05
7.74379e-05
1.59718e-05
5.48667e-06
0.000121695
4.2412e-06
4.42304e-05
2.55025e-05
1.59228e-05
6.11525e-05
6.61821e-05
4.28426e-06
0.000114817
0.000113574
0.000188058
3.70554e-06
4.43188e-05
0.000127897
6.42111e-06
6.51031e-06
5.80854e-06
8.27935e-05
8.30887e-06
8.53615e-05
0.00011004
0.000178351
0.000209207
0.000114674
0.000143709
0.000151576
5.29542e-05
3.43804e-05
0.000133761
0.000135835
1.89279e-05
2.25023e-05
6.28214e-05
0.000150801
0.000275071
6.11136e-05
9.04389e-05
0.00015557
7.14146e-05
7.36486e-05
2.10472e-06
0.000108066
3.70285e-05
9.34045e-06
1.29566e-05
2.29408e-05
1.63721e-05
4.98615e-05
1.19545e-05
0.000191812
1.32127e-05
1.01388e-05
9.82859e-05
7.76698e-05
0.000115942
8.0478e-05
0.000194107
6.22347e-05
0.000129328
1.66804e-05
0.000149422
8.56793e-05
9.50572e-06
0.000109165
0.000146969
0.000200341
3.41288e-05
4.49895e-06
6.27393e-05
1.92969e-05
4.67627e-05
1.68172e-05
2.09376e-05
1.56627e-05
5.59529e-05
2.64164e-05
5.77742e-05
0.000120937
1.02604e-05
6.64944e-05
1.10974e-05
1.51044e-05
1.65283e-05
0.000142395
2.06507e-05
0.000138499
2.01062e-05
1.29854e-05
8.71767e-06
6.02487e-05
1.51523e-05
0.00011319
0.000138463
5.31449e-05
1.67435e-05
9.70451e-05
6.8929e-06
0.000114781
4.47333e-05
4.56045e-06
1.98962e-05
5.50659e-06
5.9561e-05
7.77395e-06
3.54395e-05
0.000104542
0.000103042
0.000121221
0.000110543
5.80933e-05
2.60306e-06
7.97055e-06
0.000251797
0.000119356
0.000356868
2.11375e-05
1.42964e-05
1.49064e-05
1.78424e-05
0.00011468
0.000102974
0.000120034
5.75299e-05
0.00010892
6.20485e-05
1.76907e-05
5.2503e-05
0.000121236
1.53412e-05
0.000101215
0.000149731
0.000145681
1.72968e-05
3.02291e-06
8.58852e-05
6.30456e-05
0.000237117
0.000150906
6.03319e-06
4.8172e-05
3.03614e-05
2.41653e-05
0.000150131
4.83274e-06
4.71041e-05
3.392e-05
1.38907e-05
2.93055e-06
8.54538e-05
1.93583e-05
6.07624e-05
8.57873e-06
0.000179602
1.7761e-05
5.927e-05
1.409e-05
0.000113296
2.19117e-05
4.15118e-06
3.19582e-05
7.40766e-06
0.000134428
5.7437e-06
7.66535e-06
8.90536e-05
7.18075e-06
2.99102e-05
1.25952e-05
3.29034e-05
5.56957e-06
0.000124651
6.23533e-05
6.09203e-05
1.1014e-05
6.50001e-05
6.74398e-06
1.33386e-05
3.84567e-05
2.69709e-05
1.26818e-05
0.000115392
1.20234e-05
0.000182102
0.000144122
4.62403e-06
0.000151397
6.08155e-06
5.51166e-05
0.000114727
1.24103e-05
0.000100682
0.000159253
0.000131971
0.000116476
0.000110013
6.58864e-05
1.34511e-05
0.000133884
4.05392e-06
6.20665e-05
4.26661e-05
0.000166452
3.66521e-05
0.000151971
4.79699e-06
8.1664e-06
3.49776e-06
3.09034e-05
0.000145004
0.000104052
4.92046e-06
0.000180814
0.000105672
0.000131054
4.39646e-06
4.79372e-05
0.000182558
0.00020108
2.73062e-05
0.000115646
0.000133447
0.000116196
1.14335e-05
5.62217e-05
0.0001135
6.87635e-06
1.79138e-05
0.000149399
1.52573e-05
0.000164885
2.59217e-06
6.88048e-06
0.000117122
4.198e-05
0.000181939
6.91318e-06
9.72063e-05
0.000130917
1.86319e-05
7.90406e-06
3.68744e-05
1.79148e-05
7.13175e-06
0.000112568
9.46039e-06
9.19048e-06
0.000178182
0.000147315
5.9277e-05
0.000132977
3.64991e-05
2.29625e-05
7.60802e-05
4.86293e-05
1.01807e-05
0.00017466
0.000198499
0.000113375
7.18749e-05
0.000120794
4.28698e-06
0.000150649
0.000122835
1.63445e-05
5.59074e-05
0.000108558
0.000111433
5.22244e-06
2.12332e-05
0.000139917
5.79599e-05
6.05964e-06
2.4475e-05
6.13945e-06
6.84644e-06
2.47276e-05
8.6972e-05
0.000115646
0.000165693
2.32183e-05
2.90706e-05
5.94425e-05
0.000161335
8.29025e-05
5.63245e-05
1.08383e-05
1.61514e-05
0.000162641
6.37026e-06
4.33938e-06
0.000143031
1.31302e-05
4.33274e-05
1.6101e-05
0.000113398
7.3542e-05
0.00010577
0.000138032
5.47348e-05
0.000143544
9.99697e-05
3.28384e-05
5.27433e-05
5.60082e-06
3.98012e-05
4.42915e-05
8.97525e-05
6.57033e-05
0.000160063
6.65278e-05
1.18297e-05
7.89606e-06
3.22856e-05
6.15423e-05
4.73196e-06
6.74179e-05
5.27043e-05
1.38918e-05
0.000300761
6.43012e-06
2.43632e-05
1.10272e-05
0.000110286
0.000114145
9.58967e-05
3.74143e-05
0.000104658
0.000123447
1.57924e-05
1.83877e-05
1.33499e-05
0.000153737
1.75796e-05
3.60904e-05
5.54768e-05
2.21022e-05
7.3306e-06
5.61468e-06
0.000171887
5.7556e-06
4.11898e-05
1.89514e-05
0.000164696
0.000164522
5.93242e-06
1.02183e-05
1.48057e-05
2.56298e-05
6.23956e-05
2.82966e-05
9.81272e-05
3.48303e-05
1.70938e-05
6.4739e-05
9.88167e-06
2.66295e-05
4.46457e-05
1.35063e-05
4.11969e-05
1.24692e-05
0.000139775
2.83509e-06
5.92575e-06
4.03498e-06
4.63092e-06
5.99931e-06
1.35227e-05
0.000133475
7.18449e-06
3.77774e-05
1.11221e-05
2.89511e-06
8.92885e-05
8.74655e-05
6.64446e-06
0.000175715
1.48063e-05
0.000118332
5.13737e-06
8.47322e-06
2.68335e-06
4.02566e-06
3.24606e-06
0.00010856
0.000163962
0.000253921
0.00020184
0.000129254
1.97413e-05
4.45222e-05
0.000111439
0.000248766
7.42401e-06
0.000138607
5.41164e-06
3.51338e-06
3.12618e-05
0.000178259
4.47829e-05
0.000135792
5.93424e-05
0.00011337
0.000138372
1.50709e-05
5.28472e-05
3.74014e-05
2.61066e-05
0.000102747
1.36197e-05
1.90842e-05
8.52847e-06
1.83752e-05
8.06054e-06
9.47344e-05
0.000132562
7.82466e-06
2.84843e-05
1.13147e-05
0.000149815
1.61999e-05
1.32833e-05