/*--------------------------------*- C++ -*----------------------------------*\
| =========                 |                                                 |
| \\      /  F ield         | OpenFOAM: The Open Source CFD Toolbox           |
|  \\    /   O peration     | Version:  2406                                  |
|   \\  /    A nd           | Website:  www.openfoam.com                      |
|    \\/     M anipulation  |                                                 |
\*---------------------------------------------------------------------------*/
FoamFile
{
    version     2.0;
    format      ascii;
    arch        "LSB;label=32;scalar=64";
    class       volScalarField;
    location    "44";
    object      p;
}
// * * * * * * * * * * * * * * * * * * * * * * * * * * * * * * * * * * * * * //

dimensions      [0 2 -2 0 0 0 0];

internalField   nonuniform List<scalar> 
59516
(
0.249327
0.0142575
0.0135607
0.0018811
0.26276
0.283277
0.250165
0.221718
0.0719336
-0.000566984
0.257456
0.251432
0.1734
0.248599
0.233388
0.0729556
0.250521
0.258383
0.254726
0.247499
0.25387
0.221151
0.250062
0.159707
0.0638622
0.154072
0.0903499
0.257158
0.252544
0.232398
0.266096
0.257312
0.115428
0.00144727
0.254921
0.208698
0.0620247
0.261228
0.253155
0.0124068
0.0146896
0.257506
0.254031
0.00150326
0.252564
0.03895
0.253368
0.253884
0.264398
0.255209
0.270417
0.00117073
0.117636
0.225877
0.253339
0.252423
0.258687
0.00155741
0.159404
0.255999
0.00150545
0.204023
0.160534
0.251004
0.00309855
0.252856
0.00770149
0.212598
0.264721
0.252424
0.216416
0.247513
0.0433327
0.248741
0.213895
0.252011
0.253397
0.0275915
0.176807
0.255083
0.0014027
0.255088
0.25412
0.102935
0.255079
0.246972
0.072199
0.247683
0.116412
0.258352
0.260909
0.217745
0.242538
0.214918
0.215843
0.264114
0.232432
0.222422
0.254836
0.171451
0.0783187
0.142073
0.228175
0.00829238
0.0432774
0.00642085
0.00590559
0.0677885
0.122773
0.178335
0.263027
0.0845132
0.218277
0.263568
0.240062
0.198432
0.0303147
0.226311
0.226768
0.0304519
0.228171
0.224688
0.0582866
0.226251
0.261509
0.254988
0.240267
0.259116
0.270173
0.241665
0.239285
0.0145428
0.213734
0.242233
0.242929
0.210589
0.261902
0.235908
0.143168
0.246038
0.0856131
0.107512
0.221873
0.0849545
0.246647
0.244315
0.252916
0.248396
0.269202
0.243174
0.24649
0.00292753
0.240191
0.00287129
0.241763
0.00516221
0.00376942
0.242483
0.243104
0.23422
0.246757
0.246494
0.233611
0.00424689
0.19666
0.0285754
0.0720356
0.244115
0.244758
0.00402837
0.241832
0.241856
0.237245
0.23813
0.237649
0.253936
0.199519
0.254714
0.0132005
0.197046
0.239999
0.12627
0.150089
0.239355
0.239755
0.079862
0.110565
0.0613621
0.241051
0.238547
0.000347777
0.125153
0.243942
0.238518
0.245264
0.0193976
0.143828
0.143288
0.00382041
0.236818
-0.000549718
0.0603186
0.223142
0.172381
0.203791
0.126315
0.244817
0.003274
0.164373
0.230319
0.0405505
0.256936
0.229289
0.204926
0.230467
0.0909072
0.243491
0.0193699
0.188358
0.230835
0.230682
0.244472
0.237122
0.00424267
0.233544
0.198856
0.163717
0.172449
0.2368
0.0352864
0.232809
0.124293
0.237299
0.130985
0.137916
0.237476
0.235971
0.0492062
0.235807
0.0524201
0.240316
0.126497
0.122538
0.00311104
0.241473
0.241013
0.238555
0.011775
0.237369
0.240624
0.012251
0.238667
0.240777
0.149067
0.239742
0.240502
0.0734347
0.23521
0.182077
0.232003
0.166109
0.233848
0.23543
0.235155
0.208532
0.0557434
0.189228
0.0665008
0.232739
0.156916
0.250687
0.203371
0.0706711
0.159852
0.233826
0.208744
0.157237
0.232598
0.23356
0.0914457
0.23692
0.173031
0.160897
0.231363
0.229654
0.249895
0.240367
0.00704755
0.235456
0.20971
0.234555
0.231831
0.21536
0.0280934
0.218555
0.122079
0.210621
0.206166
0.23245
0.209525
0.209067
0.0585198
0.0956472
0.203358
0.212815
0.153695
0.0192675
0.208988
0.210105
0.0779816
0.0638356
0.210174
0.150013
0.141237
0.252767
0.211968
0.223778
0.264815
0.211276
0.0612489
0.124466
0.222643
0.132337
0.225702
0.173259
0.212544
0.256811
0.22387
0.163636
0.225157
0.0220401
0.246453
0.160841
0.225112
0.184325
0.23192
0.235357
0.202906
0.256153
0.230083
0.205004
0.202789
0.226165
0.0488701
0.101192
0.22996
0.0940158
0.234555
0.226437
0.182574
0.236663
0.238386
0.0361597
0.117304
0.163709
0.0498167
0.00741268
0.262885
0.267466
0.198247
0.0323428
0.242872
0.255876
0.218846
0.031863
0.225169
0.224589
0.243278
0.26652
0.228703
0.0830001
0.0814491
0.224204
0.16819
0.193534
0.223933
0.225609
0.220114
0.179406
0.214215
0.243763
0.00113928
0.256684
0.0098445
0.0186651
0.225561
0.00726297
0.256175
0.224926
0.0136342
0.0133099
0.0551986
0.220353
0.261485
0.223115
0.26197
0.0108929
0.0730437
0.220291
0.221409
0.231867
0.2183
0.180514
0.232218
0.233361
0.0588756
0.142639
0.233512
0.231901
0.230893
0.0387913
0.0218485
0.0237748
0.12997
0.204483
0.00993624
0.0351281
0.0678355
0.00461487
0.219898
0.217568
0.223502
0.223137
0.234306
0.222846
0.170885
0.217146
0.147772
0.22341
0.186038
0.226759
0.221902
0.208675
0.131492
0.232341
0.25655
0.0226377
0.227398
0.167716
0.0806687
0.170436
0.189071
0.229204
0.227169
0.223963
0.222306
0.0779305
0.222012
0.172429
0.0279445
0.191239
0.267622
0.147382
0.062786
0.224363
0.184083
0.221579
0.138288
0.221579
0.0619007
0.222457
0.00399083
0.00753657
0.218747
0.254061
0.216472
0.200093
0.037127
0.20331
0.201532
0.0417338
0.210371
0.201578
0.196857
0.196192
0.0984475
0.203857
0.19863
0.13487
0.196667
0.0866559
0.194191
0.257305
0.194381
0.269669
0.19544
0.236283
0.0843632
0.0973174
0.169662
0.00393453
0.0029998
0.18414
0.208409
0.212569
0.163279
0.19932
0.0494827
0.218368
0.21626
0.258484
0.143848
0.126047
0.173131
0.215999
0.0205952
0.21068
0.249671
0.00466069
0.289322
0.217169
0.0650897
0.246268
0.182593
0.251564
0.20259
0.175604
0.194452
0.219515
0.178958
0.219762
0.242828
0.0748109
0.075089
0.262179
0.00307042
0.218232
0.209517
0.261713
0.207828
0.246281
0.000906551
0.211287
0.0850585
0.000363927
0.15871
0.0390861
0.259659
0.225702
0.0694825
0.00242392
0.232224
0.128772
0.210241
0.231383
0.20955
0.243511
0.000784524
0.104811
0.0684157
0.209368
0.0354992
0.153101
0.218212
0.134206
0.21682
0.00261356
0.221309
0.0647846
0.217609
0.170608
0.116133
0.108173
0.219416
0.00223199
0.0429623
0.208296
0.08037
0.164411
0.188471
0.123194
0.118279
0.207982
0.207358
0.238688
0.20653
0.117248
0.208174
0.206019
0.112306
0.100284
0.000923337
0.207132
0.206892
0.208665
0.0956931
0.199865
0.0103585
0.209475
0.00552582
0.219846
0.000860177
0.0241955
0.177115
0.125602
0.0108002
0.209948
0.259936
0.00352277
0.0170527
0.20665
0.203201
0.0333774
0.205442
0.206184
0.138811
0.040016
0.219854
0.21275
0.0136436
0.208231
0.208539
0.152373
0.204769
0.268727
0.208999
0.261967
0.179231
0.264377
0.182085
0.0230356
0.245487
0.00543421
0.00601812
0.266073
0.264742
0.183884
0.208299
0.259416
0.256201
0.128449
0.102903
0.168892
0.0625426
0.179971
0.119114
0.256452
0.182866
0.185175
0.201541
0.190474
0.266591
0.171862
0.194272
0.0536635
0.194532
0.144174
0.0178198
0.194518
0.193529
0.19492
0.145387
0.0876686
0.274823
0.122176
0.12549
0.149177
0.231831
0.195153
0.0633092
0.180366
0.149003
0.0131006
0.0659808
0.197618
0.227649
0.156254
0.145825
0.19676
0.196665
0.0784698
0.237988
0.206195
0.134914
0.203206
0.162925
0.213382
0.200905
0.0100692
0.0255762
0.182579
0.26722
0.143013
0.133374
0.00321347
0.152849
0.200546
0.114828
0.210507
0.205767
0.0872103
0.120181
0.208724
0.246042
0.220025
0.166327
0.266577
0.208611
0.0336703
0.217413
0.26937
0.0213978
0.11926
0.232253
0.196183
0.0756908
0.190335
0.0229941
0.0172543
0.165865
0.196583
0.266645
0.221712
0.196024
0.195619
0.201418
0.0884898
0.0106247
0.064122
0.220215
0.265997
0.147521
0.19871
0.132912
0.0569057
0.195311
0.0607364
0.196245
0.250832
0.12086
0.00225336
0.225285
0.09351
0.201966
0.0174455
0.0751292
0.150575
0.228393
0.200094
0.202023
0.267291
0.228638
0.037969
0.269289
0.00327691
-0.000652078
0.201354
0.0408656
0.109179
0.150345
0.104862
0.266821
0.198015
0.225025
0.193849
0.0444414
0.16163
0.0509728
0.123409
0.223504
0.193721
0.195555
0.193234
0.0710981
0.241078
0.181629
0.0632505
0.194562
0.192901
0.192254
0.178957
0.194551
0.0188843
0.0117125
0.193481
0.0034579
0.116831
0.134041
0.0102384
0.140972
0.165147
0.248275
0.183773
0.216796
0.169323
0.124116
0.195134
0.197008
0.19745
0.105546
0.196391
0.24147
0.0162633
0.00275384
0.131286
0.111706
0.00296348
0.196033
0.193325
0.194832
0.0178917
0.0295474
0.192575
0.231472
0.0284102
0.0374928
0.2668
0.258273
0.198501
0.038704
0.208019
0.183371
0.213082
0.166412
0.190124
0.260769
0.16658
0.166024
0.084671
0.16801
0.261774
0.0318699
0.188141
0.166502
0.0999257
0.205697
0.212203
0.086035
0.204423
0.228968
0.207308
0.166569
0.252027
0.0505315
0.166092
0.223892
0.0145887
0.17858
0.0681359
0.163288
0.0897653
0.260808
0.170132
0.00302075
0.164131
0.163316
0.174078
0.165328
0.152246
0.00460418
0.0411186
0.204839
0.176465
0.145136
0.207326
0.105145
0.230007
0.0231839
0.175978
0.0779449
0.159169
0.207606
0.0150304
0.17877
0.175164
0.263096
0.0244455
0.213289
0.234019
0.0392825
0.172006
0.0410189
0.139337
0.196642
0.211996
0.171755
0.170609
0.169991
0.266711
0.0304877
0.2109
0.103873
0.0183254
0.172574
0.216095
0.183228
0.182185
0.0316043
0.185003
0.186669
0.097555
0.236583
0.265307
0.248375
0.138786
0.186949
0.00393246
0.255499
0.168202
0.183999
0.152655
0.186307
0.184666
0.189487
0.206678
0.189647
0.212099
0.185165
0.245767
0.247051
0.184639
0.20303
0.183709
0.212063
0.212856
0.0129265
0.121483
0.144783
0.0126953
0.196222
0.187137
0.197867
0.102515
0.00627876
0.107038
0.183465
0.201007
0.201075
0.118477
0.137132
0.198523
0.263672
0.188389
0.00825192
0.0182996
0.220752
0.189664
0.112629
0.150987
0.187226
0.122406
0.179476
0.179947
0.17971
0.152914
0.203253
0.179103
0.267835
0.0232853
0.178848
0.268063
0.179382
0.23562
0.0403175
0.177607
0.112344
0.0854401
0.179802
0.179063
0.110403
0.112555
0.177882
0.0945007
0.176114
0.176869
0.183692
0.104836
0.174706
0.0299531
0.17727
0.176893
0.118733
0.1752
0.175671
0.249411
0.170391
0.143522
0.171777
0.173723
0.12034
0.057464
0.103585
0.25624
0.175981
0.176988
0.148634
0.0588592
0.256728
0.151259
0.154098
0.149968
0.148872
0.0109946
0.0057534
0.048636
0.0987527
0.177133
0.176413
0.00562047
0.220669
0.166442
0.0754717
0.256801
0.145373
0.144187
0.259174
0.147031
0.21369
0.044494
0.145121
0.207901
0.192559
0.145491
0.107049
0.0386818
0.146146
0.220636
0.197542
0.111984
0.0530197
0.0859702
0.15286
0.0891671
0.220377
0.0852018
0.150372
0.161
0.263018
0.116113
0.0102158
0.0561046
0.0867785
0.147674
0.218827
0.159719
0.15944
0.019894
0.126101
0.00799617
0.162025
0.162014
0.0881237
0.0123127
0.194344
0.0380308
0.240209
0.18053
0.177154
0.255256
0.0861775
0.208815
0.217727
0.144999
0.0152273
0.177199
0.252909
0.175414
0.173206
0.147571
0.0760394
0.176918
0.0163885
0.254285
0.222149
0.118039
0.176419
0.168608
0.219963
0.247947
0.210252
0.0287113
0.0769143
0.173971
0.181916
0.205012
0.114955
0.201552
0.258243
0.172705
0.203754
0.0688687
0.179271
0.134358
0.0827322
0.178871
0.178941
0.178007
0.203875
0.174782
0.0399545
0.175629
0.0756312
0.199989
0.0195504
0.173777
0.203186
0.00371569
0.0222866
0.170559
0.064461
0.0439196
0.0683647
0.0572838
0.104299
0.0375266
0.173325
0.171429
0.0301571
0.170532
0.171722
0.202027
0.00961587
0.173035
0.165955
0.00219979
0.0237229
0.163075
0.0942127
0.00360323
0.0122463
0.163548
0.116845
0.168753
0.250934
0.0159498
0.202353
0.151626
0.167931
0.165002
0.149026
0.191002
0.175509
0.169887
0.155158
0.253882
0.223334
0.168538
0.17122
0.233894
0.0340582
0.221094
0.191386
0.115312
0.108797
0.171002
0.0775667
0.0192615
0.157772
0.162533
0.268749
0.136659
0.162798
0.160726
0.18747
0.0769591
0.160922
0.161976
0.244646
0.162435
0.0726761
0.165375
0.165119
0.132127
0.119666
0.145078
0.165178
0.162266
0.165045
0.111122
0.140147
0.168609
0.146739
0.109939
0.117084
0.117822
0.118219
0.137309
0.163294
0.140218
0.25695
0.23523
0.0415329
0.0990811
0.103326
0.138385
0.136261
0.140495
0.180727
0.137244
0.136545
0.0818746
0.103331
0.192347
0.081262
0.0327845
0.139687
0.13862
0.141394
0.238863
0.0134522
0.00661652
0.0969166
0.149485
0.146534
0.221222
0.0334599
0.139
0.257058
0.0393911
0.147929
0.147723
0.17643
0.00176989
0.146043
0.146418
0.145628
0.157853
0.004892
0.0072263
0.158338
0.158351
0.155155
0.156833
0.162737
0.153711
0.0764975
0.0153525
0.261898
0.197131
0.158684
0.157539
0.118762
0.249613
0.24274
0.225557
0.00131642
0.225795
0.159561
0.159639
0.158219
0.159026
0.159744
0.158272
0.216569
0.13276
0.21066
0.140178
0.0760976
0.0134951
0.160753
0.119277
0.00429916
0.14191
0.16548
0.253643
0.166687
0.113096
0.1095
0.194439
0.123913
0.163395
0.169893
0.167738
0.135938
0.146798
0.24968
0.162887
0.209021
0.0728676
0.0601748
0.160768
0.0623542
0.0218667
0.16561
0.165059
0.122052
0.0820025
0.0942243
0.235839
0.164512
0.0484373
0.00556154
0.14776
0.0271089
0.116145
0.15918
0.197035
0.147045
0.0247097
0.240358
0.0145108
0.233889
0.128965
0.222064
0.1517
0.0429314
0.160831
0.145001
0.0914386
0.110098
0.161429
0.161776
0.241268
0.198687
0.210637
0.246071
0.204184
0.196764
0.197121
0.215207
0.157919
0.157135
0.123678
0.0613169
0.0705357
0.0171837
0.223237
0.124305
0.154726
0.152724
0.153879
0.0431261
0.150689
0.212029
0.00492628
0.150588
0.155112
0.177658
0.264418
0.213079
0.211863
0.151401
0.0121431
0.2226
0.153564
0.185848
0.161189
0.189718
0.20118
0.141258
0.219805
0.15664
0.198534
0.161056
0.0193975
0.213504
0.220249
0.126739
0.260041
0.070734
0.0815724
0.0710671
0.139687
0.207811
0.0572112
0.185256
0.0586532
0.157309
0.157281
0.135169
0.16335
0.147953
0.232059
0.191217
0.146159
0.196385
0.15315
0.265435
0.217895
0.152838
0.148538
0.190901
0.228288
0.150201
0.025366
0.184804
0.231828
0.147161
0.134023
0.151495
0.154282
0.155663
0.15651
0.00365589
0.0710038
0.157669
0.259326
0.156197
0.127845
0.204765
0.125396
0.108726
0.232956
0.259519
0.214115
0.214185
0.215809
0.0337963
0.146476
0.175759
0.258012
0.246492
0.260077
0.263707
0.246272
0.129911
0.126748
0.258465
0.0557035
0.131053
0.195858
0.127909
0.213628
0.201201
0.258237
0.239829
0.213291
0.0704946
0.130106
0.144215
0.138418
0.14545
0.216238
0.196967
0.144819
0.140418
0.142543
0.0152178
0.228572
0.0401584
0.14607
0.172712
0.151591
0.147534
0.142273
0.0404673
0.148996
0.131176
0.148245
0.147321
0.220536
0.13419
0.0762014
0.0457719
0.206834
0.105111
0.104287
0.201908
0.0870042
0.048431
0.041733
0.031401
0.198964
0.0654568
0.133571
0.166733
0.0310791
0.225555
0.226349
0.0930471
0.0902222
0.243813
0.138136
0.0148123
0.161418
0.0315011
0.19433
0.030009
0.0467948
0.01872
0.0096969
0.0780528
0.22166
0.0449692
0.0237575
0.0248325
0.145071
0.0286959
0.142933
0.22725
0.146648
0.144102
0.198392
0.0443641
0.149595
0.148253
0.0116682
0.0710728
0.222497
0.14951
0.149981
0.200366
0.227614
0.216733
0.226634
0.0533391
0.250425
0.258447
0.149574
0.150478
0.0124873
0.23452
0.257334
0.147784
0.111822
0.147144
0.0169507
0.217469
0.0064867
0.0442515
0.13874
0.179117
0.140423
0.114135
0.223786
0.104749
0.212646
0.139067
0.140151
0.0686046
0.132183
0.119777
0.253668
0.223903
0.192165
0.139207
0.22869
0.076544
0.0436309
0.0631902
0.0130749
0.139454
0.225847
0.138921
0.0132592
0.0110708
0.220213
0.141215
0.0663806
0.235383
0.141339
0.141802
0.220566
0.0192935
0.218921
0.142303
0.145099
0.14629
0.153508
0.146313
0.215028
0.211722
0.146438
0.242696
0.156482
0.211515
0.17864
0.144312
0.226775
0.141292
0.113044
0.244876
0.159785
0.143587
0.0114195
0.147048
0.14578
0.109394
0.14031
0.194978
0.055555
0.224158
0.13375
0.204447
0.214841
0.143836
0.157107
0.0101319
0.0665443
0.0537362
0.142125
0.224637
0.0185428
0.1394
0.245088
0.052966
0.202612
0.0500359
0.140252
0.171684
0.138416
0.00132889
0.184493
0.22462
0.10952
0.0344215
0.0540405
0.105873
0.107568
0.11482
0.222283
0.0106017
0.0349674
0.12028
0.12157
0.210778
0.195201
0.122181
0.127536
0.11658
0.178689
0.246255
0.23054
0.155838
0.02866
0.20832
0.207216
0.0927762
0.0477148
0.190296
0.0878252
0.120126
0.198452
0.156038
0.159813
0.136034
0.116306
0.126557
0.126308
0.12462
0.202133
0.12905
0.174249
0.242367
0.224459
0.196267
0.217121
0.117356
0.0855416
0.223206
0.129854
0.199097
0.154087
0.205092
0.251927
0.121882
0.00673097
0.13116
0.133053
0.139694
0.221617
0.130455
0.137239
0.158906
0.13957
0.158656
0.13305
0.00182023
0.157457
0.137181
0.136544
0.00494179
0.197264
0.248046
0.157046
0.164279
0.123739
0.138902
0.137498
0.0559071
0.246027
0.139259
0.138882
0.140888
0.0338724
0.222089
0.149738
0.125084
0.157164
0.0812221
0.106276
0.210075
0.129038
0.125453
0.101478
0.125942
0.136554
0.0849698
0.129151
0.221983
0.146502
0.0738334
0.220995
0.221982
0.11251
0.113471
0.0954577
0.129207
0.0563981
0.132603
0.0621572
0.267455
0.206413
0.170576
0.0811521
0.020275
0.230754
0.018228
0.0210839
0.128562
0.00205328
0.129088
0.0295822
0.171785
0.0898648
0.127731
0.193024
0.172844
0.128849
0.025613
0.0208569
0.168114
0.126702
0.0373673
0.129662
0.128148
0.146467
0.134785
0.251074
0.199213
0.230634
0.169694
0.194408
0.128617
0.198694
0.171093
0.129006
0.232263
0.254761
0.193362
0.188666
0.129067
0.215445
0.126009
0.231474
0.166413
0.196817
0.0187924
0.0395139
0.186489
0.0100445
0.223964
0.267094
0.233896
0.0118298
0.0544022
0.0181859
0.220296
0.229471
0.00609241
0.172862
0.121993
0.215111
0.177283
0.121449
0.129946
0.0302157
0.189787
0.193418
0.0528611
0.250986
0.230406
0.138691
0.123447
0.26207
0.122601
0.255949
0.191769
0.189757
0.123761
0.239415
0.109706
0.237392
0.221415
0.241846
0.00672134
0.126865
0.249106
0.0663381
0.257753
0.127285
0.243329
0.0956905
0.0949151
0.101064
0.251977
0.207112
0.24083
0.205983
0.107878
0.248876
0.249287
0.0962712
0.250513
0.112101
0.199409
0.105978
0.20696
0.136859
0.0922842
0.13008
0.0894034
0.130885
0.0199073
0.113556
0.103848
0.231767
0.100806
0.192644
0.144781
0.171771
0.1112
0.0375662
0.0827707
0.194135
0.106053
0.231372
0.0713452
0.115803
0.238131
0.197748
0.117934
0.215035
0.116172
0.105729
0.103502
0.135342
0.110983
0.00207097
0.0375874
0.0412187
0.106341
0.107042
0.196335
0.047307
0.0273841
0.101091
0.0671904
0.229845
0.209129
0.0333176
0.11866
0.17439
0.112298
0.120026
0.0963532
0.117577
0.208582
0.117106
0.163803
0.000658916
0.226722
0.160982
0.259396
0.120857
0.117177
0.021197
0.23205
0.0896031
0.121563
0.199245
0.125675
0.122505
0.114979
0.113022
0.0309812
0.125236
0.120015
0.120773
0.115418
0.135011
0.117583
0.226908
0.0973413
0.122814
0.228939
0.259087
0.168353
0.100904
0.187644
0.120383
0.10988
0.104632
0.0562778
0.0979266
0.0895312
0.247002
0.0992137
0.135505
0.133213
0.0332011
0.0981085
0.226426
0.112011
0.114956
0.159606
0.150677
0.109694
0.175055
0.135713
0.113244
0.110709
0.125886
0.111106
0.225057
0.216753
0.100697
0.0973005
0.107255
0.0435885
0.113632
0.135469
0.195623
0.110545
0.114674
0.104767
0.116543
0.227548
0.0967342
0.22035
0.114403
0.110537
0.102095
0.110974
0.0861584
0.107517
0.0879714
0.0768553
0.109582
0.244262
0.124815
0.242203
0.160555
0.0737686
0.0238762
0.0952117
0.226535
0.111874
0.110504
0.081247
0.112297
0.0809005
0.228475
0.226997
0.0847659
0.0853928
0.0891126
0.0896298
0.181553
0.142611
0.087264
0.0878181
0.0660557
0.108792
0.0892531
0.0896346
0.0514723
0.0498903
0.00240269
0.0898833
0.183583
0.0309906
0.142728
0.0931366
0.0959519
0.100267
0.128402
0.224289
0.113881
0.0821547
0.0119148
0.0193244
0.144627
0.0943882
0.0894763
0.123465
0.0323104
0.0211952
0.0956069
0.225844
0.10631
0.108146
0.0504757
0.100379
0.252774
0.102851
0.10097
0.141613
0.103116
0.106638
0.225803
0.107243
0.121302
0.0191267
0.00418396
0.176677
0.0375705
0.0216841
0.110634
0.091232
0.226229
0.108605
0.234354
0.234818
0.105579
0.225069
0.00737732
0.102014
0.108597
0.0351595
0.109748
0.234725
0.259525
0.0506351
0.230757
0.108132
0.194694
0.214238
0.108776
0.11348
0.233148
0.106458
0.251403
0.108154
0.131515
0.117646
0.25219
0.230696
0.132897
0.111012
0.107743
0.202839
0.13118
0.202619
0.2308
0.227381
0.111294
0.0125252
0.111834
0.104013
0.201436
0.0845895
0.202117
0.0429044
0.213758
0.000323376
0.22706
0.131937
0.093731
0.103159
0.22954
0.100752
0.226696
0.220116
0.22916
0.0138117
0.00362734
0.204191
0.0037886
0.100561
0.129908
0.17562
0.0983507
0.220469
0.149867
0.224529
0.0959888
0.222794
0.184599
0.201011
0.260603
0.136153
0.246177
0.0955939
0.0103592
0.149872
0.0101315
0.25795
0.0469767
0.144972
0.201278
0.105355
0.100271
0.0142374
0.0345774
0.102345
0.206783
0.22915
0.00691726
0.235048
0.132155
0.250918
0.0601292
0.209174
0.102161
0.185276
0.230858
0.182652
0.171267
0.193403
0.210796
0.224583
0.169086
0.0439064
0.197638
0.103885
0.104165
0.10377
0.0621745
0.245388
0.246398
0.199361
0.113735
0.220435
0.227223
0.113469
0.104791
0.103606
0.100154
0.245478
0.0497919
0.0979198
0.155216
0.100497
0.1973
0.182467
0.120671
0.0591489
0.101524
0.0995934
0.141599
0.25651
0.163801
0.0997034
0.221926
0.0707169
0.0539083
0.241412
0.00494129
0.0703736
0.0143411
0.0705305
0.0707413
0.223031
0.098339
0.183996
0.221599
0.123007
0.1048
0.230429
0.0745402
0.227553
0.094204
0.0971166
0.0973593
0.201193
0.169292
0.227114
0.205719
0.218249
0.0834657
0.145411
0.231112
0.215639
0.104771
0.214838
0.0725575
0.197905
0.0475389
0.200015
0.100219
0.179472
0.0887241
0.135747
0.215186
0.0705325
0.215888
0.0541901
0.10834
0.0867109
0.031282
0.0913668
0.0855786
0.12101
0.227219
0.0894279
0.0412393
0.0182208
0.202008
0.0202469
0.217487
0.00426007
0.0937848
0.0507213
0.0926546
0.215591
0.219306
0.0471601
0.244416
0.0331701
0.00232985
0.20055
0.18105
0.0914238
0.215912
0.0689059
0.0197652
0.117982
0.00260881
0.150232
0.192283
0.139544
0.0935762
0.254976
0.0949698
0.153758
0.20055
0.12592
0.218415
0.0913539
0.137452
0.0905218
0.142197
0.243941
0.0972367
0.0838003
0.14272
0.0912225
0.159306
0.0899048
0.0588438
0.089807
0.243791
0.0895233
0.0860098
0.0887509
0.237472
0.113361
0.22858
0.247451
0.245824
0.175129
0.0486609
0.065071
0.183181
0.216332
0.022634
0.0626542
0.0887616
0.0872709
0.217674
0.258091
0.0030716
0.0323192
0.0802428
0.228549
0.0327992
0.127386
0.217875
0.0863697
0.0850938
0.0858704
0.0833589
0.086205
0.1761
0.106633
0.214124
0.0230231
0.0894485
0.0863218
0.239272
0.135945
0.235194
0.249248
0.0470501
0.0868523
0.0648933
0.237547
0.240109
0.234704
0.233734
0.120404
0.0640603
0.229425
0.047269
0.0866576
0.210344
0.0967778
0.0857377
0.0680948
0.084247
0.208617
0.207358
0.0865973
0.153592
0.0971905
0.0965769
0.255443
0.0249062
0.0533776
0.0865908
0.0873383
0.00781337
0.0872731
0.0663645
0.0925533
0.204087
0.0875181
0.0165958
0.0941356
0.00778499
0.240006
0.232792
0.121684
0.0897887
0.09252
0.106451
0.0790042
0.0717724
0.108609
0.0759646
0.0747206
0.0653892
0.0762421
0.24144
0.215076
0.127833
0.201117
0.0804759
0.207685
0.0637576
0.20074
0.166338
0.192439
0.0775349
0.145278
0.0180369
0.207958
0.224533
0.0889615
0.263117
0.0801233
0.0821496
0.138188
0.0212135
0.107105
0.0829307
0.206831
0.0628473
0.0887631
0.0860719
0.0597889
0.171428
0.0599075
0.0589527
0.0604257
0.0612194
0.0600188
0.203132
0.203717
0.210051
0.200258
0.0383674
0.0605694
0.236124
0.0665021
0.0369795
0.0658516
0.0653245
0.0394681
0.0662399
0.0648838
0.0655366
0.0833029
0.0799079
0.147578
0.0915021
0.103325
0.133641
0.115195
0.106001
0.0393759
0.0838663
0.0830855
0.0627788
0.0677757
0.0811624
0.161412
0.0166476
0.191478
0.255109
0.149866
0.245048
0.0821537
0.0182648
0.0199096
0.0196402
0.111314
0.0209039
0.0787978
0.0810525
0.229629
0.262681
0.138754
0.0733078
0.23318
0.125541
0.154922
0.0804059
0.157417
0.0805364
0.162269
0.067487
0.0360646
0.0436217
0.0763961
0.00149956
0.0826745
0.231548
0.060999
0.189142
0.024481
0.0739513
0.076168
0.216468
0.103901
0.162551
0.116525
0.161458
0.0752418
0.0145934
0.234208
0.0905493
0.15047
0.230493
0.230559
0.0772073
0.0655135
0.0780835
0.118875
0.0775253
0.158297
0.215945
0.121992
0.0787236
0.0793711
0.126313
0.144378
0.178375
0.078603
0.0804542
0.0809012
0.231614
0.0795813
0.0809834
0.0291082
0.0709795
0.0375824
0.0142394
0.0369166
0.0229436
0.069561
0.0713666
0.0116478
0.0564701
0.0112542
0.228996
0.0728361
0.0411968
0.229282
0.175323
0.109252
0.0629505
0.0760899
0.0117417
0.0742261
0.167865
0.117519
0.0727418
0.235072
0.0358768
0.00348172
0.0735597
0.2702
0.11568
0.15254
0.0131316
0.0739807
0.0732684
0.17833
0.0132475
0.114598
0.147634
0.0680168
0.0735123
0.0758201
0.262353
0.241998
0.235535
0.111097
0.037466
0.0146187
0.0131398
0.237035
0.0132226
0.0465575
0.0769006
0.258561
0.0903411
0.0783577
0.213163
0.236605
0.168233
0.159571
0.0774603
0.0753703
0.229379
0.196115
0.208082
0.0225885
0.192183
0.0502161
0.105148
0.041303
0.0747373
0.119056
0.24177
0.119814
0.117886
0.2499
0.0703175
0.231016
0.052856
0.157374
0.185162
0.241493
0.119769
0.234525
0.066354
0.0554975
0.0332311
0.0704816
0.23469
0.0534454
0.0482852
0.14435
0.0548963
0.0550547
0.0592606
0.019067
0.109203
0.0719154
0.0851428
0.0500649
0.0652421
0.0577891
0.0396509
0.236947
0.163841
0.0532603
0.073827
0.26733
0.139342
0.0706043
0.149951
0.0712463
0.133176
0.0693123
0.235256
0.0517375
0.264197
0.0451662
0.0400148
0.145629
0.054379
0.159418
0.13934
0.168556
0.022067
-0.00105224
0.0303798
0.0252026
0.0450448
0.0161783
0.0497971
0.0462579
0.0456517
0.248244
0.0305477
0.237448
0.237696
0.0357872
0.226
0.0745964
0.232089
0.215442
0.0517749
0.228186
0.0519981
0.00178054
0.168065
0.107449
0.220193
0.214625
0.117702
0.0179555
0.0325799
0.170165
0.185606
0.0533782
0.0517116
0.0695674
0.189064
0.206323
0.151944
0.0187286
0.0135563
0.0688135
0.173361
0.191063
0.209396
0.248645
0.0708862
0.220758
0.201925
0.150723
0.265079
0.10732
0.138406
0.175938
0.066684
0.239648
0.0115172
0.103474
0.201622
0.181763
0.213902
0.238336
0.0211605
0.103262
0.0690774
0.123436
0.0699456
0.114295
0.126793
0.122518
0.0885681
0.0696352
0.0687226
0.0664699
0.0902611
0.24719
0.0975469
0.0875181
0.0936947
0.233415
0.204886
0.0200629
0.239267
0.0692465
0.0663954
0.139353
0.0584678
0.0590904
0.0818045
0.020518
0.0575985
0.062299
0.014339
0.0547221
0.0536174
0.0589339
0.0775636
0.064688
0.0652819
0.237334
0.0433141
0.0525257
0.0386705
0.0710998
0.0382409
0.0359534
0.0673196
0.0158108
0.0170508
0.0960713
0.0393895
0.0348633
0.238621
0.0678775
0.0522429
0.0481198
0.0182081
0.0430396
0.0671881
0.0694205
0.0616242
0.108448
0.148937
0.171935
0.128361
0.0172046
0.0614308
0.0598322
0.0616729
0.196836
0.094306
0.0687654
0.25437
0.060476
0.0936128
0.0599901
0.0623165
0.165011
0.171178
0.0598709
0.100217
0.216146
0.214978
0.0945071
0.0605806
0.236453
0.0605427
0.130629
0.0611586
0.259128
0.0615591
0.19432
0.0601688
0.164776
0.200376
0.231524
0.210274
0.0587575
0.203288
0.146932
0.164398
0.0606456
0.0250536
0.106596
0.1496
0.0604774
0.0600242
0.060885
0.10655
0.0543448
0.24938
0.179682
0.0231575
0.237106
0.0571379
0.230393
0.0232971
0.0524648
0.0558024
0.196276
0.0603523
0.168937
0.247389
0.053118
0.0567467
0.0918242
0.243015
0.196363
0.195398
0.0578959
0.206272
0.175833
0.0562377
0.0943864
0.0797539
0.0552881
0.0554711
0.168592
0.208915
0.0613362
0.0967828
0.0782958
0.234686
0.229705
0.234055
0.0604038
0.23604
0.0410302
0.185092
0.214026
0.122226
0.166185
0.0601888
0.240857
0.0292521
0.0329579
0.0353354
0.101663
0.0353535
0.109011
0.106955
0.0950196
0.118287
0.191246
0.0970855
0.144383
0.00831889
0.0408833
0.0824517
0.137771
0.0576669
0.154223
0.217386
0.111616
0.186908
0.180078
0.0107427
0.0352998
0.163206
0.0414384
0.000361152
0.239321
0.197747
0.22927
0.0334886
0.239146
0.0907976
0.227194
0.0867196
0.230636
0.0858113
0.23576
0.0383883
0.206813
0.055466
0.175576
0.0878218
0.181192
0.0906284
0.27345
0.0560211
0.0756409
0.191948
0.17603
0.0540716
0.118125
0.176183
0.0560523
0.158058
0.0224764
0.157601
0.0514055
0.0498064
0.0764552
0.238991
0.0561829
0.0359534
0.0552944
0.0571327
0.1028
0.199163
0.0640377
0.0575673
0.10234
0.102409
0.00447513
0.232413
0.0555149
0.0733478
0.133033
0.182945
0.00173088
0.0571589
0.237277
0.0475062
0.0458763
0.145369
0.0272492
0.0405493
0.214259
0.0575126
0.234629
0.106747
0.0365098
0.0450576
0.119974
0.0426158
0.0553494
0.0816299
0.0524985
0.0539203
0.0532652
0.02225
0.140181
0.0515938
0.0728076
0.0492947
0.0665239
0.0740951
0.0510579
0.0480224
0.231926
0.0522069
0.0453261
0.0479981
0.236991
0.0561247
0.0469646
0.0650389
0.174538
0.0699529
0.0510142
0.0569948
0.0497121
0.00282703
0.235012
0.0706946
0.0498189
0.0368737
0.242519
0.0942552
0.0253569
0.0483185
0.0101864
0.102711
0.23374
0.047367
0.232329
0.0441623
0.0291826
0.236592
0.233176
0.241482
0.0355954
0.237988
0.014117
0.0171493
0.0486285
0.0255211
0.0218382
0.0597333
0.176802
0.237502
0.227763
0.245902
0.225582
0.138975
0.100974
0.0373226
0.0455305
0.0533882
0.131949
0.148378
0.0908311
0.19802
0.0696623
0.0498534
0.16031
0.0628338
0.226428
0.226034
0.0279275
0.227815
0.149114
0.206184
0.242462
0.0466127
0.18779
0.151304
0.160633
0.150686
0.0471441
0.115133
0.228927
0.244293
0.0565447
0.223543
0.242313
0.233204
0.19338
0.0396472
0.245716
0.0421186
0.217141
0.217806
0.0418884
0.0465257
0.0374436
0.133333
0.238787
0.0969103
0.149982
0.038118
0.166444
0.239154
0.0498726
0.195083
0.048137
0.199099
0.226176
0.245842
0.225279
0.0810727
0.0895496
0.10634
0.18864
0.0500067
0.211489
0.211919
0.0483391
0.200776
0.115239
0.0484273
0.150005
0.204164
0.0470175
0.229151
0.0396001
0.208527
0.249584
0.0441584
0.12635
0.0448673
0.153941
0.0470827
0.0224357
0.239221
0.156252
0.0762714
0.103469
0.131904
0.124879
0.0189832
0.118699
0.116623
0.228024
0.159876
0.25275
0.217679
0.0630311
0.232941
0.0237833
0.0246979
0.168555
0.143362
0.200953
0.20026
0.0261737
0.0224486
0.114662
0.235965
0.190389
0.217365
0.250169
0.0255261
0.192742
0.157439
0.193326
0.199435
0.147049
0.240246
0.203615
0.207437
0.0582443
0.0626161
0.248996
0.0256174
0.0227151
0.043036
0.220231
0.236527
0.239812
0.041778
0.0396093
0.174829
0.0411087
0.042346
0.180138
0.244651
0.19918
0.0655151
0.227259
0.114774
0.196451
0.19839
0.245891
0.0401373
0.144347
0.145018
0.0422995
0.0402526
0.0384567
0.0408402
0.154202
0.04233
0.245176
0.193751
0.178328
0.0422177
0.0373927
0.0832662
0.187778
0.246552
0.11197
0.100613
0.244043
0.0183463
0.0327719
0.0663094
0.104005
0.0323021
0.0415283
0.0429755
0.0802736
0.0432696
0.243974
0.245124
0.088492
0.244015
0.141713
0.0796744
0.0387373
0.0634413
0.0594589
0.0709017
0.0414067
0.0353147
0.0449909
0.0518909
0.0376575
0.0616108
0.0658445
0.188721
0.037793