/*--------------------------------*- C++ -*----------------------------------*\
| =========                 |                                                 |
| \\      /  F ield         | OpenFOAM: The Open Source CFD Toolbox           |
|  \\    /   O peration     | Version:  2406                                  |
|   \\  /    A nd           | Website:  www.openfoam.com                      |
|    \\/     M anipulation  |                                                 |
\*---------------------------------------------------------------------------*/
FoamFile
{
    version     2.0;
    format      ascii;
    arch        "LSB;label=32;scalar=64";
    class       surfaceScalarField;
    location    "44";
    object      phi;
}
// * * * * * * * * * * * * * * * * * * * * * * * * * * * * * * * * * * * * * //

dimensions      [0 3 -1 0 0 0 0];

oriented        oriented;

internalField   nonuniform List<scalar> 
113358
(
-1.47286e-05
3.0738e-05
-2.15047e-05
5.4955e-06
2.21191e-05
2.82873e-07
-5.94997e-06
-1.64519e-05
-2.57744e-05
1.94985e-05
-3.0676e-06
9.34438e-06
-2.39483e-05
-6.31772e-06
2.35982e-05
6.66702e-06
-1.72991e-05
9.21933e-07
3.01514e-05
-1.37744e-05
1.36159e-05
-1.41963e-05
-7.96049e-06
8.54085e-06
-7.18177e-06
3.41727e-05
-2.4833e-05
-2.15779e-06
-7.49189e-07
-3.17368e-05
1.733e-05
1.51552e-05
8.33487e-06
6.03952e-07
1.81437e-05
-2.70824e-05
7.35137e-06
3.70971e-06
-1.07576e-05
-3.04502e-07
-6.11225e-06
2.30859e-05
-2.17076e-05
4.73403e-06
-1.47841e-05
6.82411e-08
-3.36866e-07
1.50526e-05
-4.50363e-05
3.49988e-06
1.20976e-05
2.94391e-05
1.21595e-06
-2.59399e-06
1.3781e-06
1.97627e-06
-1.42992e-06
1.94678e-05
-2.00141e-05
1.04882e-06
3.31695e-07
1.17623e-05
-1.31431e-05
1.00437e-05
3.51717e-05
-2.89588e-05
-1.62565e-05
-1.95173e-05
1.08013e-05
6.72638e-06
1.98968e-06
1.50276e-05
-3.80128e-05
3.19012e-05
-8.91615e-06
2.55511e-05
3.36701e-06
2.79986e-05
-5.6917e-05
1.89827e-05
3.8373e-07
-4.81878e-07
-1.88845e-05
-1.16397e-05
4.65185e-05
4.33763e-06
-3.92157e-05
-7.12448e-07
-4.53851e-05
4.91645e-05
-3.06639e-06
-9.20391e-07
4.39449e-06
3.24726e-07
-3.79902e-06
-4.75977e-05
2.08426e-05
-4.00633e-06
3.0761e-05
-2.22478e-05
5.20457e-06
1.83299e-05
-1.2856e-06
-9.49344e-06
9.20329e-06
-1.81465e-07
4.71608e-07
-1.90477e-06
-7.46914e-06
5.35729e-06
4.0166e-06
1.89933e-05
-3.84657e-07
3.74218e-07
-2.2524e-06
2.24575e-06
6.73498e-09
-5.44122e-06
-2.58605e-05
2.74623e-05
3.8394e-06
5.09287e-06
-2.59205e-07
-8.09764e-06
3.26396e-06
2.03853e-05
-1.11011e-06
1.19451e-06
-2.04697e-05
-2.77664e-05
1.27197e-05
-2.97153e-06
1.80165e-05
1.75212e-05
2.48696e-06
-1.98482e-05
-1.59903e-07
-3.40262e-05
8.53039e-06
-1.18918e-05
3.73879e-05
-3.77514e-08
-2.1878e-06
2.22573e-06
9.34361e-06
1.07905e-05
1.76525e-06
-2.18991e-05
7.29771e-06
-3.71347e-05
3.04804e-05
-6.43782e-07
-3.54737e-06
4.53695e-06
3.66296e-05
-3.76214e-05
-1.89694e-05
1.60199e-05
-1.99488e-05
2.28987e-05
1.80552e-07
-2.40359e-05
-3.10424e-05
5.48976e-05
-1.17447e-06
4.33692e-05
-1.22969e-05
-2.98979e-05
5.24409e-06
-1.84395e-05
-7.38268e-06
-6.1603e-06
3.25069e-05
-3.81721e-07
-2.5965e-05
-2.28004e-06
1.58037e-05
-1.05657e-05
-2.95777e-06
-3.04494e-05
-1.19985e-05
4.12734e-05
-1.14474e-05
3.56081e-05
1.48283e-06
-2.56436e-05
-3.40998e-05
4.26646e-06
-5.52931e-06
3.53626e-05
3.54872e-05
1.57468e-05
-4.69621e-05
-4.27186e-06
2.32261e-05
-1.61793e-05
1.5516e-06
-8.59843e-06
-1.0512e-05
3.06621e-06
1.06118e-05
-3.16607e-06
2.93047e-05
-7.70841e-06
1.65831e-05
-3.81793e-05
-1.02752e-05
-3.79998e-05
4.11937e-05
7.0813e-06
-2.0629e-06
7.62128e-06
-8.82391e-06
3.26544e-06
2.81348e-05
-1.21587e-05
2.01544e-05
-3.61307e-05
-2.13614e-05
4.95674e-06
3.73712e-05
-2.09667e-05
1.18703e-05
-5.80955e-06
4.62199e-06
-1.06823e-05
3.81122e-05
-9.84785e-06
-2.95065e-05
1.24269e-06
-1.29749e-05
-1.4784e-05
8.12781e-06
1.9631e-05
-3.08036e-05
-4.99807e-06
1.45887e-05
2.12139e-05
-2.87565e-06
3.28929e-06
-4.1389e-07
3.5087e-05
-5.965e-06
-3.46383e-05
5.51594e-06
-1.56894e-05
-4.28518e-05
1.68683e-05
4.1673e-05
-4.13798e-06
4.38901e-06
-3.4597e-05
3.43463e-05
1.6955e-06
2.17208e-05
2.89631e-06
-2.63126e-05
3.55302e-06
-2.9426e-06
-6.11259e-07
-1.84744e-08
6.45255e-08
1.16345e-05
-1.16798e-05
6.24574e-06
-3.01925e-05
3.26481e-05
-8.70128e-06
9.86532e-06
-2.42929e-05
2.33448e-05
-8.91725e-06
7.42606e-06
-7.66737e-06
2.40983e-07
-1.94392e-05
-6.4726e-06
3.37942e-05
-7.88257e-06
-2.46918e-07
4.13069e-06
-3.88403e-06
7.40403e-06
-2.93966e-05
9.10006e-06
1.28925e-05
4.65533e-05
-3.47712e-06
-3.04189e-06
-4.0035e-05
-2.73815e-05
-3.2905e-05
3.57199e-05
2.45666e-05
3.73575e-06
-3.72679e-05
6.15076e-06
3.64245e-05
-2.92092e-05
-8.82407e-07
-6.33263e-06
1.09933e-07
1.76916e-07
-1.53608e-05
1.50732e-05
6.52868e-06
8.32666e-06
1.28783e-05
-2.77335e-05
7.92745e-06
-4.16372e-06
3.23407e-06
-6.99959e-06
-1.60948e-05
-1.11221e-05
2.73401e-05
-1.23205e-07
-2.11801e-05
2.61021e-05
-1.8804e-05
1.38821e-05
-3.08897e-06
3.58434e-09
3.08552e-06
-3.07462e-05
3.35003e-05
-3.44614e-05
2.6512e-05
-2.89877e-06
-9.62906e-07
-6.2739e-07
4.48919e-06
6.40004e-05
-6.1921e-05
1.91471e-06
-3.99474e-06
-1.18319e-05
3.69144e-06
1.14132e-05
-3.27245e-06
-4.63185e-06
2.57578e-05
-2.8303e-05
7.17717e-06
-1.79793e-05
-2.12962e-05
3.148e-05
7.79545e-06
9.09735e-06
-1.2925e-05
1.84552e-05
-1.46272e-05
7.62461e-06
2.49038e-05
-5.14239e-05
1.88956e-05
-3.37319e-05
1.20318e-05
1.4683e-05
7.01642e-06
9.03752e-07
-2.99389e-05
2.44271e-05
4.60803e-06
-2.71032e-05
2.49652e-06
9.68063e-06
1.4926e-05
2.34744e-05
-2.03123e-05
7.00566e-06
-1.01677e-05
1.33026e-06
1.20006e-05
-1.3122e-05
-2.08346e-07
1.72064e-05
-2.42637e-06
-2.55283e-06
-1.22272e-05
1.58999e-05
1.83326e-05
-1.58561e-05
-1.83764e-05
2.40903e-06
-7.59887e-07
4.3222e-06
-5.97121e-06
4.70203e-06
-2.83112e-07
-4.41892e-06
3.73249e-08
3.9017e-06
-3.93902e-06
-4.82349e-07
3.01228e-06
-1.30784e-05
1.05485e-05
-2.03933e-05
4.14629e-05
4.34219e-07
-2.15031e-05
4.82496e-06
-2.19833e-05
1.69929e-05
1.63805e-07
-3.06813e-06
-4.07431e-06
1.14343e-06
5.99899e-06
-5.7651e-06
-1.40673e-05
3.68817e-06
1.61439e-05
-3.05106e-06
1.97351e-05
8.52826e-06
-2.52123e-05
4.14411e-06
3.71254e-06
-1.79691e-05
1.01133e-05
-2.72323e-06
2.83705e-05
-3.22754e-05
6.62808e-06
-7.46386e-06
7.66513e-06
-2.02045e-07
1.8258e-05
-2.26354e-05
3.60773e-06
7.69706e-07
1.84138e-05
1.08411e-05
-3.24445e-05
3.18957e-06
-2.65013e-05
-1.49929e-05
7.45842e-06
3.40358e-05
-2.21428e-06
-2.11106e-05
8.98318e-07
2.24264e-05
1.28677e-05
-1.33574e-05
1.0004e-07
3.90224e-07
1.62262e-05
-2.8367e-05
-5.4417e-06
1.75825e-05
-3.48895e-06
2.71098e-07
3.21767e-06
-4.384e-06
-1.36986e-06
2.94789e-05
-2.37253e-05
-1.47998e-05
9.27395e-06
4.75379e-05
-4.20118e-05
-1.07025e-05
2.17898e-05
-3.19296e-05
2.08421e-05
1.63409e-06
-2.54753e-05
2.03891e-05
3.45266e-06
-3.81484e-06
-9.18576e-06
3.25899e-05
-1.95894e-05
2.31763e-05
-9.83025e-06
-1.02827e-05
-3.06328e-06
-2.80458e-06
-1.23041e-05
1.81201e-05
-3.01126e-06
6.09336e-06
-2.97546e-06
-3.1179e-06
-1.09111e-06
-2.50375e-05
-6.5756e-06
3.27042e-05
-1.47464e-05
2.0628e-05
5.87058e-06
-1.17521e-05
5.7052e-06
-1.40867e-05
2.40299e-05
-1.56486e-05
-4.65381e-05
1.10771e-05
-7.74956e-07
3.6236e-05
-2.5675e-06
-4.24975e-05
3.84802e-05
6.58311e-06
5.44994e-08
-3.97418e-06
3.91955e-06
2.10339e-05
-3.25444e-05
6.29465e-07
1.08809e-05
3.56844e-05
4.09906e-06
-3.84921e-05
-1.29181e-06
1.09794e-05
1.20054e-06
-2.59236e-05
1.37435e-05
-9.41404e-06
1.29865e-05
1.48414e-05
-2.63847e-05
-2.20034e-05
1.30401e-05
3.5348e-05
5.77508e-06
3.05452e-06
-4.12755e-06
6.89255e-06
-5.1294e-06
-2.63342e-05
2.45709e-05
4.5354e-06
1.42949e-05
-6.43511e-06
-1.23951e-05
-7.65579e-06
1.66034e-05
3.37867e-05
-4.27339e-05
1.79778e-07
2.43437e-06
-2.61389e-06
-2.2467e-05
3.56534e-06
1.38426e-05
5.05939e-06
3.44186e-05
-1.85503e-05
-2.33081e-05
7.44002e-06
3.2845e-05
-8.1619e-06
-3.62645e-06
-2.10567e-05
-2.87522e-05
-1.0164e-06
-8.08052e-07
3.05765e-05
2.55983e-05
1.1615e-05
-3.53161e-05
-1.89714e-06
6.92811e-06
4.8304e-06
-1.17585e-05
1.76821e-06
-2.52923e-05
-2.01606e-07
2.37252e-05
3.98945e-05
-3.06603e-05
-2.86562e-06
-6.36747e-06
4.51059e-06
-6.41737e-07
-3.60759e-06
-2.6175e-07
-3.26496e-05
4.63884e-05
1.95793e-05
-3.33181e-05
1.82392e-05
-2.95183e-05
-2.97393e-06
1.42526e-05
-2.40683e-05
2.61552e-05
-8.77063e-07
-1.20938e-06
-3.05375e-06
1.50989e-06
1.5433e-06
3.50905e-05
-3.89031e-06
9.91596e-06
-4.11165e-05
-2.61698e-05
3.54335e-05
-3.33318e-05
6.96857e-08
2.42723e-06
1.88729e-05
-2.13697e-05
2.70227e-06
-2.61069e-06
-9.16462e-08
-1.12531e-05
-6.33252e-06
1.07912e-06
1.65068e-05
-8.60195e-06
2.14249e-05
-1.63248e-05
3.50187e-06
1.59281e-06
-4.86873e-06
3.04631e-06
2.29445e-07
-1.92268e-06
-1.79272e-06
3.71469e-06
-2.26902e-05
2.2658e-05
2.27187e-05
-2.26861e-05
5.22024e-05
-1.31124e-05
-1.13914e-05
-2.76979e-05
1.31894e-05
5.56197e-07
-4.24029e-07
-1.33216e-05
3.58445e-05
-4.37247e-05
6.04524e-06
1.83481e-06
3.13117e-06
-5.50904e-08
-3.07595e-06
-5.95769e-06
2.87894e-05
-2.76245e-05
4.79199e-06
-1.41471e-05
1.47634e-05
-1.62765e-06
1.01129e-06
-1.05822e-05
9.25883e-06
6.36532e-07
6.86604e-07
2.51534e-06
-2.00135e-05
7.26935e-06
1.0229e-05
-1.14398e-05
-1.07537e-05
2.62536e-05
-4.06012e-06
-1.49744e-05
1.46749e-05
2.66574e-07
3.27818e-08
-3.03515e-05
-3.59395e-05
3.58416e-05
-1.14538e-05
3.64843e-05
1.16439e-05
-3.66748e-05
5.94526e-06
3.04943e-05
6.94316e-06
-4.33828e-05
-1.35834e-05
6.05492e-06
1.82979e-05
-1.07683e-05
-2.00427e-08
7.53175e-08
1.08061e-05
-1.08618e-05
1.38468e-06
3.84495e-05
-5.6619e-06
-3.41722e-05
-3.97487e-06
-2.5673e-06
4.28556e-06
2.25664e-06
4.33264e-06
-4.09212e-06
-2.4052e-07
-3.57923e-06
-1.24107e-05
1.01543e-06
-2.99395e-05
4.67249e-07
-5.87136e-06
3.53438e-05
-1.52045e-05
1.36619e-05
4.28367e-07
1.11417e-06
-4.48203e-07
8.38676e-06
-1.35677e-07
-7.80291e-06
-2.93139e-06
2.86277e-06
6.8857e-08
3.15288e-06
-8.12275e-07
2.11921e-05
-2.35327e-05
2.87295e-05
3.24254e-06
-2.50723e-05
-6.90009e-06
-3.37354e-06
-1.57161e-05
-1.01478e-05
1.39647e-05
-1.53681e-05
1.0306e-06
3.7275e-07
7.64218e-06
-3.18373e-05
3.75362e-05
-1.33411e-05
1.12038e-05
2.31135e-06
-5.86963e-06
-7.64504e-06
-1.66628e-05
-3.85031e-05
9.78357e-06
4.53826e-05
5.37873e-08
2.6588e-06
-2.04625e-07
-2.50663e-06
9.95165e-06
-6.54901e-07
1.56184e-06
-1.08587e-05
-1.0111e-05
2.15507e-07
9.9876e-06
-9.21755e-08
2.26098e-05
3.79797e-06
-2.84334e-05
2.02634e-06
-3.13393e-05
-1.77618e-05
4.00995e-05
9.00172e-06
-7.09433e-06
3.0289e-06
-6.55597e-06
7.00695e-06
2.93649e-05
-3.77989e-05
1.42666e-06
-2.26357e-05
-2.28798e-05
9.2003e-06
3.63146e-05
-2.79775e-06
3.05495e-06
-2.57026e-07
1.78258e-05
1.02292e-05
-2.07435e-06
-2.5982e-05
-7.19173e-07
-4.41624e-06
-2.93552e-05
3.44906e-05
-2.24193e-05
5.71627e-06
5.4562e-05
-3.78592e-05
2.7678e-05
-2.05607e-05
-1.09059e-05
3.7894e-06
2.67118e-06
-9.80147e-08
-2.57283e-06
4.28122e-05
-2.13192e-05
2.96903e-06
-2.44615e-05
9.5725e-06
-1.03103e-05
1.31163e-06
-5.73695e-07
2.43671e-06
2.3227e-06
-4.7595e-06
-1.6554e-05
-2.12313e-05
4.31695e-06
3.34683e-05
-1.15534e-05
2.22239e-07
1.19618e-05
-6.31177e-07
2.10964e-05
-4.33299e-05
5.20644e-07
2.17133e-05
-2.1773e-05
-2.65755e-05
3.54157e-05
1.29329e-05
-1.3086e-05
1.77628e-05
2.8168e-05
5.40044e-06
2.88223e-05
-3.01137e-05
-4.10901e-06
1.90733e-06
1.4433e-06
-1.28318e-05
9.48042e-06
-3.36412e-05
1.47872e-05
1.20476e-05
6.80623e-06
1.35828e-05
3.57027e-06
-1.55034e-06
-1.5603e-05
-3.32302e-06
-2.59053e-05
2.64492e-06
2.65834e-05
6.79603e-06
-2.59087e-06
2.73426e-05
-3.15479e-05
-2.05366e-06
-7.89525e-08
-5.15089e-06
7.28078e-06
6.8179e-07
1.08577e-05
-4.06203e-05
2.90811e-05
-1.44684e-05
-2.94442e-05
-1.04544e-06
4.49588e-05
3.64322e-07
5.12411e-06
-5.48832e-06
8.49307e-08
-1.96955e-07
1.12207e-05
-1.11083e-05
2.71132e-06
1.70148e-05
1.46353e-05
-3.43614e-05
2.77235e-07
-1.47356e-05
1.41835e-07
1.43168e-05
4.29744e-06
-2.10116e-05
-1.60765e-05
3.2791e-05
1.55622e-05
1.93436e-05
-1.6882e-05
-1.80235e-05
3.37234e-05
2.01684e-05
-4.5316e-05
-8.57586e-06
1.32602e-07
-4.45765e-06
4.32483e-06
2.776e-06
1.36051e-06
-7.40415e-09
-4.12899e-06
1.98852e-06
2.56808e-06
3.27568e-07
-4.88418e-06
2.55177e-06
-3.04094e-06
1.51641e-05
1.79117e-07
-2.8718e-05
1.07388e-05
1.78004e-05
5.85076e-05
6.02318e-06
-1.22819e-05
-5.2249e-05
-8.19217e-06
1.10837e-05
-2.73506e-06
-1.56865e-07
-1.71521e-05
1.62907e-05
-2.76371e-05
2.84985e-05
3.17766e-06
6.20841e-08
-3.23963e-06
1.18436e-06
8.6317e-06
-1.65e-05
6.68421e-06
3.16009e-06
-4.76484e-06
1.60502e-06
2.85613e-05
-1.52852e-05
-7.57106e-06
-1.64081e-05
5.95014e-06
-1.52144e-05
2.56723e-05
3.32037e-05
-3.23421e-05
5.1443e-06
-6.00608e-06
1.44936e-05
4.86237e-06
-1.73387e-05
-2.01555e-06
3.32158e-06
-3.96143e-05
1.3623e-05
2.26699e-05
2.71564e-05
-5.58742e-06
4.58621e-06
5.04804e-05
-5.60818e-05
2.05226e-06
-3.24701e-05
2.52704e-06
3.35003e-05
-3.55746e-06
-3.05133e-05
-1.96256e-05
3.29869e-05
-1.19858e-05
-1.19656e-05
-1.65482e-05
4.04995e-05
-1.33722e-06
4.59301e-06
3.96022e-05
-4.28581e-05
1.47753e-06
2.90205e-05
-5.02762e-05
1.97779e-05
-1.00138e-07
5.48558e-08
1.82044e-05
-1.81594e-05
-4.21793e-05
7.14239e-06
3.15706e-06
3.18795e-05
1.22673e-05
-1.23445e-05
4.20457e-06
-4.12776e-06
7.5516e-07
1.12718e-05
-1.43605e-05
2.33369e-06
-2.31956e-05
3.5318e-05
-4.62758e-06
-7.49523e-06
-3.61411e-05
2.67428e-05
1.68675e-06
7.71097e-06
-2.77829e-05
2.78937e-05
3.64534e-05
-3.65643e-05
3.43972e-05
-2.80829e-05
1.16192e-06
-7.47585e-06
-1.32831e-05
1.71137e-05
-1.02765e-05
6.44594e-06
-7.57322e-06
1.747e-05
1.47462e-06
-1.13707e-05
-3.75304e-05
3.07672e-06
4.10089e-05
-6.55486e-06
-4.5075e-06
-2.48825e-05
3.93782e-07
2.89977e-05
2.4199e-06
-8.35619e-06
6.69172e-06
9.56807e-06
7.84913e-07
-9.15559e-06
-1.19721e-06
9.86696e-06
1.85594e-05
-2.1643e-05
-6.78283e-06
-1.05252e-05
1.46501e-05
2.50697e-05
-2.91939e-05
8.98894e-07
4.32042e-06
-3.63457e-05
3.11266e-05
1.69819e-05
-2.57978e-05
8.5793e-06
2.36063e-07
-4.07331e-05
-6.51298e-06
1.11058e-05
-3.29277e-06
-8.68498e-07
-2.45053e-05
2.86665e-05
-3.29252e-06
4.4622e-08
3.24769e-06
-5.29619e-06
-6.67123e-06
4.35683e-05
-3.16012e-05
5.30957e-06
-5.05299e-06
-2.56649e-07
2.56981e-07
2.02355e-07
-9.64762e-06
9.18803e-06
-1.99471e-05
1.94572e-05
3.42135e-05
5.85476e-06
3.28105e-05
-2.35376e-05
-1.51277e-05
4.52005e-06
-4.58982e-06
7.00025e-08
-4.43361e-06
4.92696e-05
-2.71656e-05
-1.76702e-05
-2.64132e-05
2.81805e-05
1.93292e-05
-2.10412e-06
2.56002e-05
1.10927e-05
-3.45889e-05
-3.48214e-05
-1.28988e-05
4.64216e-05
1.29862e-06
-4.76236e-06
4.32017e-06
4.42248e-07
3.39792e-05
-3.61888e-05
-4.58365e-07
2.66776e-06
-2.2257e-05
-1.40224e-05
2.01607e-05
1.61184e-05
-4.03798e-06
1.86524e-06
-2.29311e-05
2.51038e-05
-2.84855e-05
-7.49075e-06
6.7669e-07
3.52995e-05
-1.79313e-05
-9.0053e-06
-6.79562e-06
1.58332e-05
-3.62318e-05
-3.12007e-06
2.35175e-05
8.37767e-06
-3.48609e-05
-1.06142e-05
3.7098e-05
7.51246e-06
-7.15035e-06
-3.62154e-07
-2.95011e-05
4.94523e-05
-6.99825e-06
-1.29543e-05
-6.39675e-06
-2.67309e-05
3.02013e-05
2.92639e-06
-4.73544e-05
4.85843e-05
-5.55529e-06
4.32551e-06
-2.76768e-05
-6.85652e-06
1.98707e-05
1.46618e-05
-2.64336e-05
-5.67712e-06
3.22236e-05
-1.13575e-07
-3.56865e-07
9.3404e-08
-1.26805e-05
1.2944e-05
3.46767e-06
1.7205e-07
-3.63979e-06
-6.33343e-06
6.39603e-06
-6.21757e-08
4.34125e-05
-3.7269e-05
-5.05904e-05
4.44486e-05
2.95352e-06
1.1924e-07
-3.07279e-06
-2.90134e-05
2.85502e-05
-3.63065e-07
8.27098e-07
-1.06157e-05
8.98005e-06
2.19869e-07
1.41506e-06
5.09134e-06
5.11631e-05
-2.76546e-05
-2.85998e-05
-2.92988e-05
-9.05817e-06
3.56765e-06
3.47888e-05
3.36258e-05
1.52453e-05
-1.51992e-05
-3.3672e-05
1.29432e-05
-4.8181e-06
1.60194e-06
-9.72723e-06
3.66086e-05
-3.51424e-06
-2.64332e-05
-6.6602e-06
-4.00103e-06
5.94839e-06
-6.59734e-06
4.6502e-06
-2.60689e-06
8.51547e-06
3.13552e-06
-9.04393e-06
-1.47005e-05
-7.56803e-06
4.13214e-05
-1.90534e-05
6.30644e-06
2.4603e-05
-2.40528e-05
-6.85681e-06
-2.25496e-05
2.32387e-05
1.49992e-05
-1.56883e-05
2.31402e-05
-2.09339e-05
-2.7965e-06
5.89306e-07
-5.95983e-08
-1.1123e-05
-4.58091e-08
1.12291e-05
-7.12995e-06
1.34443e-05
-1.47087e-06
-4.84354e-06
-3.26416e-05
-1.12299e-05
1.61517e-05
2.772e-05
2.47086e-05
-2.08199e-05
-4.23073e-06
3.41823e-07
9.67605e-06
-3.28912e-05
-3.78873e-05
6.11025e-05
2.1222e-05
-2.76031e-05
-1.34392e-05
1.98203e-05
-6.23049e-06
-5.5302e-05
1.48528e-05
4.66805e-05
1.77253e-05
-1.57388e-05
2.43825e-06
-4.42483e-06
3.05992e-05
-1.08746e-05
-3.66383e-05
1.69137e-05
1.31978e-05
2.26567e-05
-5.20334e-05
1.61789e-05
-7.80095e-06
3.15542e-05
-2.78512e-05
4.09834e-06
-2.96204e-05
3.3958e-05
3.44111e-05
-3.87482e-05
-1.18911e-07
-1.39944e-05
1.22138e-05
1.89966e-06
4.14328e-06
-3.89232e-06
-2.5119e-07
3.82894e-05
-4.74797e-05
1.38931e-06
-4.11336e-06
5.5331e-06
2.90835e-06
-4.32847e-06
-2.97921e-06
1.35174e-07
-1.45533e-06
4.29967e-06
1.87902e-05
-2.46194e-06
1.80173e-05
-2.74643e-05
1.12179e-06
8.32511e-06
-9.19539e-06
-2.29329e-06
8.68426e-06
2.58959e-05
-3.38333e-05
1.92054e-05
-1.12682e-05
-2.83327e-05
-4.05114e-06
3.40117e-05
-1.62834e-06
-5.81306e-05
-8.83048e-06
5.14945e-05
1.5468e-05
-4.24365e-05
1.17157e-05
9.60719e-07
2.97602e-05
-4.15102e-06
3.3072e-07
8.62676e-07
2.95722e-06
-2.67737e-05
-3.23146e-05
2.45793e-05
3.45094e-05
1.98597e-05
1.72833e-05
-2.98104e-05
-7.33229e-06
1.4646e-07
1.4347e-05
-1.21634e-05
-2.32986e-06
-4.06678e-07
-1.97732e-05
3.89185e-05
-1.87387e-05
4.06273e-05
-2.89839e-05
-1.54584e-05
2.81499e-05
-3.16542e-05
6.30383e-06
-2.79952e-06
-3.98648e-06
-2.58904e-05
2.81268e-05
1.75015e-06
4.0752e-05
-2.82686e-06
-4.19114e-05
2.33402e-05
-2.61284e-05
6.42583e-06
-3.63833e-06
1.77943e-06
-1.18626e-05
-9.74541e-07
1.10577e-05
-2.53776e-06
2.44351e-06
-2.92775e-06
3.02198e-06
-1.80744e-06
4.48956e-06
1.47435e-06
-4.15744e-06
-7.16138e-06
-1.90175e-05
-1.46158e-06
2.76401e-05
1.09322e-05
8.7514e-06
-2.97782e-05
1.00946e-05
-1.87059e-05
5.96635e-07
6.69772e-06
1.14116e-05
-1.69319e-06
-1.79715e-05
1.74499e-05
-2.28551e-05
2.70621e-05
8.56519e-06
-1.27705e-05
-3.33018e-05
3.87237e-05
-1.24107e-05
6.98913e-06
-6.05679e-06
-1.9822e-05
2.10899e-06
2.37696e-05
1.48761e-06
3.47318e-05
-4.0706e-05
4.48711e-06
1.73502e-05
-5.47201e-05
1.16834e-05
2.56858e-05
4.97599e-06
-3.82704e-05
2.09103e-05
1.23836e-05
1.60696e-06
2.10186e-05
-7.23166e-06
-1.53943e-05
-3.93693e-06
1.89925e-06
3.85981e-06
-1.82203e-06
-3.9662e-06
7.89638e-06
-2.92731e-05
2.5343e-05
-1.54483e-06
-1.10019e-05
2.87547e-07
1.2259e-05
1.68025e-07
1.13057e-05
-1.7824e-07
-1.12961e-05
1.74144e-07
2.48122e-07
1.15199e-05
-1.19423e-05
-9.46052e-06
-1.60767e-05
2.8564e-05
-3.02676e-06
3.27233e-06
-3.24987e-05
1.7527e-05
1.1699e-05
3.34521e-05
8.3955e-07
2.6646e-06
-3.69559e-05
2.67392e-06
-2.73812e-06
6.41794e-08
1.06501e-05
2.14983e-05
-2.71726e-05
-1.10961e-05
4.37476e-08
1.33168e-07
1.0919e-05
2.19149e-06
-2.80148e-05
1.01745e-05
1.56486e-05
8.75005e-07
7.29582e-06
-7.3836e-06
-7.87196e-07
-5.60491e-06
-1.18739e-05
2.27794e-05
-5.30077e-06
2.80248e-05
-3.09542e-05
2.6646e-05
-2.3717e-05
1.91066e-05
-8.76382e-06
-3.26257e-05
2.22829e-05
-1.92666e-06
-1.8299e-06
3.75738e-06
1.16206e-05
2.46796e-06
-3.3544e-06
-1.07333e-05
-2.46632e-05
3.692e-05
2.85932e-06
2.41259e-06
-5.27216e-06
2.33096e-06
-3.10364e-05
-3.5928e-07
2.90648e-05
-1.77021e-07
5.65548e-07
2.11095e-05
-1.35464e-06
2.23551e-05
-4.45071e-05
2.35078e-05
-7.12913e-06
-2.03969e-05
-2.88173e-06
3.04077e-05
5.67052e-06
-9.25633e-06
9.57846e-06
-5.99285e-06
-7.23175e-06
-3.5508e-05
-4.4689e-06
4.72081e-05
1.97396e-05
3.73529e-06
-2.27401e-05
-7.34695e-07
6.78268e-06
3.19566e-05
-5.28383e-05
1.40988e-05
-2.43137e-06
-1.42242e-05
-8.31581e-06
2.49714e-05
-1.88002e-05
-6.01921e-06
9.91248e-06
1.49057e-05
-1.09199e-06
-1.15659e-06
-1.28429e-05
1.50912e-05
4.05438e-05
-1.68345e-05
-9.782e-06
-1.39273e-05
-2.50691e-05
6.0882e-05
-3.34148e-05
-2.39738e-06
1.11275e-05
2.91094e-07
2.97201e-07
-1.1716e-05
2.9617e-05
-3.54858e-05
3.53179e-05
-2.94486e-05
-5.2637e-06
1.65144e-05
-1.33399e-05
2.08886e-06
1.50825e-05
-5.48395e-05
2.09277e-06
3.76643e-05
1.00938e-05
4.86667e-05
-4.15988e-05
-1.71618e-05
6.31484e-06
-6.15565e-06
-1.01719e-05
1.00133e-05
-2.24498e-05
-1.37679e-05
3.99926e-05
-3.77464e-06
3.54584e-05
-2.88514e-05
-4.2087e-05
3.54802e-05
1.81746e-05
1.49824e-05
-9.4849e-06
-2.36717e-05
1.20629e-07
-1.5587e-05
8.65921e-08
3.8605e-06
-3.94654e-06
-3.35759e-06
3.24643e-06
1.10767e-07
2.60766e-05
-2.45344e-05
-2.24325e-05
2.08893e-05
-7.43091e-06
9.51241e-06
-2.70553e-05
2.49744e-05
4.03292e-05
-3.14416e-05
-6.57627e-06
-2.31124e-06
-4.69981e-06
1.16567e-06
3.05242e-06
-8.75902e-06
3.09629e-05
-8.36641e-06
-1.38371e-05
-4.17096e-05
1.0419e-06
1.4423e-05
2.62442e-05
1.54196e-05
-6.65484e-06
-1.50357e-05
6.27049e-06
8.66122e-06
3.81613e-05
-3.59196e-05
-1.09033e-05
-2.26308e-05
-4.4626e-06
4.29804e-05
-1.58868e-05
2.18193e-06
2.463e-05
5.50135e-06
-3.23133e-05
8.314e-06
2.6861e-05
-3.29931e-05
1.87824e-05
-1.38459e-05
-7.28572e-06
2.34907e-06
2.35019e-05
-2.99797e-05
1.32605e-05
-1.30209e-05
8.29155e-06
7.75464e-06
-3.02511e-06
9.89943e-06
1.14812e-05
2.3e-05
-4.43813e-05
4.36516e-06
-2.70141e-05
-4.21329e-06
2.68627e-05
3.57566e-07
2.77814e-05
2.51241e-06
-3.06516e-05
1.31661e-05
2.47895e-05
-4.13526e-05
3.39735e-06
-5.65705e-05
4.70134e-05
-7.17861e-07
2.45266e-07
3.88888e-05
-3.01102e-06
-3.61231e-05
-3.28625e-06
7.35709e-06
-1.00722e-05
6.00113e-06
-8.05627e-07
-3.51986e-06
2.34295e-07
4.09045e-06
-3.38315e-06
3.26112e-06
1.21851e-07
-4.88418e-06
-8.28242e-06
3.79686e-05
-2.48018e-05
-3.15369e-05
4.71318e-06
-1.38985e-05
4.07223e-05
4.38481e-05
-1.05884e-05
-1.42501e-05
-1.90104e-05
3.39508e-06
-3.1765e-05
1.15182e-05
1.68517e-05
3.41718e-06
-3.08962e-06
-1.19536e-06
8.67399e-07
-3.94676e-06
3.80214e-06
1.4437e-07
1.89558e-06
2.68925e-05
-4.79389e-06
-2.39945e-05
-5.50146e-06
2.67446e-05
-3.47344e-05
1.34909e-05
1.21848e-05
2.05705e-05
-4.7589e-05
1.48337e-05
-1.94592e-06
2.58946e-05
1.91676e-05
-4.31162e-05
-4.13191e-05
2.22211e-05
2.39764e-05
-4.87857e-06
4.01576e-05
-4.11379e-05
8.24244e-06
-7.26161e-06
-3.14076e-05
-5.62904e-07
-9.34867e-06
2.36521e-07
5.2564e-06
-5.49275e-06
2.97273e-05
3.97696e-06
-2.45883e-05
-9.11692e-06
-1.86467e-06
-2.67384e-06
1.27118e-05
-8.17344e-06
3.03734e-06
5.32167e-07
9.97168e-06
-1.35413e-05
-3.40967e-05
1.52856e-05
1.64696e-05
2.34169e-06
1.34429e-05
-2.13243e-05
-3.06558e-06
1.09465e-05
-2.48555e-05
5.62236e-06
4.07592e-05
-2.15263e-05
-3.0947e-06
-1.9161e-07
3.28684e-06
-1.52058e-05
3.86726e-05
2.75563e-05
-5.10228e-05
3.44885e-05
9.59449e-07
-5.46778e-05
1.92297e-05
-2.35805e-06
3.53042e-05
-3.05637e-06
-2.98898e-05
1.84118e-05
-1.42936e-05
1.10728e-05
-1.51904e-05
-1.31564e-06
-2.4519e-05
2.75026e-05
-1.66801e-06
-2.22339e-05
-3.45239e-06
-1.49614e-05
4.0648e-05
-7.90445e-06
-8.43922e-06
-1.4634e-05
3.09792e-05
-1.29288e-06
3.67127e-05
-4.03185e-06
-3.13883e-05
2.2939e-05
-2.2863e-05
7.37138e-07
-8.13067e-07
3.8163e-05
9.82483e-08
-2.64194e-05
-1.18419e-05
-8.58965e-06
-4.4289e-06
-2.46364e-05
3.76554e-05
-2.97022e-07
-3.10865e-06
3.40522e-06
-3.27778e-05
4.87176e-05
-3.68023e-06
-1.22599e-05
2.75149e-06
1.88482e-05
6.05961e-06
-2.76583e-05
-4.33065e-06
1.0032e-05
3.52056e-06
-9.22238e-06
-1.57327e-05
-3.89768e-06
1.63145e-05
3.31489e-06
2.1356e-05
1.48768e-05
-5.34345e-05
1.72019e-05
1.22568e-05
-9.54781e-06
3.05864e-05
-3.32955e-05
-2.40112e-06
1.96148e-05
1.60914e-06
-1.88229e-05
3.00601e-06
-2.95911e-06
-4.69371e-08
2.63872e-06
3.28602e-05
1.38755e-06
-3.68863e-05
2.83973e-05
-4.45077e-06
-2.7325e-05
3.37812e-06
-5.46494e-06
6.66471e-06
-3.12044e-05
3.00035e-05
-2.8439e-05
-4.41745e-06
2.20455e-05
1.08095e-05
1.06206e-05
-1.00582e-05
-9.06075e-08
-4.71844e-07
-4.23884e-05
2.76265e-05
-1.63729e-06
1.63992e-05
-4.81373e-06
4.05248e-06
7.61269e-07
1.38177e-05
-1.17971e-05
1.83425e-05
-2.0363e-05
1.95605e-05
1.6409e-05
-8.5533e-06
1.46347e-05
-3.94697e-05
-1.79455e-05
4.27812e-05
1.43759e-07
-1.54096e-05
1.54684e-05
-2.02896e-07
8.71508e-06
-1.41609e-05
-1.63589e-05
2.18051e-05
1.39808e-05
6.08791e-06
-2.36327e-06
-1.77054e-05
-4.21972e-06
9.92484e-07
5.36766e-06
-2.14024e-06
-4.7653e-06
5.81853e-05
-1.97644e-05
-3.36562e-05
1.57637e-05
1.79658e-05
-9.23211e-07
-3.28062e-05
1.40639e-07
2.99901e-06
-3.13961e-06
-9.09411e-07
5.4261e-06
3.28884e-05
-3.74059e-05
4.26826e-05
5.54758e-06
-2.0892e-05
-2.73382e-05
-1.07769e-06
5.59342e-06
-4.40697e-06
-1.08241e-07
1.34825e-05
-1.22331e-06
-1.46779e-05
2.41774e-06
-4.07575e-06
-1.28932e-05
6.621e-06
1.03486e-05
-6.19964e-06
2.81e-05
4.49365e-06
-2.63941e-05
3.1257e-05
-4.21482e-06
-3.39331e-05
6.89088e-06
-2.97917e-06
5.76756e-06
-2.7884e-06
2.52535e-06
-1.10757e-05
9.89103e-06
-1.34066e-06
6.76917e-07
1.06269e-05
-1.12023e-05
-1.01479e-07
1.07634e-05
1.25673e-05
-1.44823e-06
-2.18824e-05
2.179e-05
2.98648e-05
-2.03979e-05
-1.33968e-07
3.95176e-06
-3.8181e-06
-4.06983e-05
2.00322e-05
3.80383e-05
-1.73711e-05
3.99098e-05
7.02071e-06
-4.19497e-05
-4.98107e-06
2.86923e-05
-1.92499e-05
-3.16769e-05
8.34078e-06
1.43277e-05
-3.51571e-05
-2.02286e-06
-7.59582e-06
4.47757e-05
-9.42737e-08
3.8774e-06
-3.78307e-06
3.91626e-05
-1.5071e-06
-4.62668e-06
-3.30294e-05
4.08755e-06
-4.08344e-06
-4.20368e-09
-1.22894e-05
3.0505e-06
-7.48805e-06
1.6727e-05
-2.16858e-05
-1.84317e-05
1.64594e-05
2.36579e-05
2.05678e-05
-1.57103e-05
-4.33969e-06
-5.17897e-07
-4.43769e-08
3.11647e-06
-3.07194e-06
-7.0218e-07
-4.07009e-06
1.56009e-08
4.75644e-06
7.64716e-06
3.05474e-06
-5.39738e-06
-5.30446e-06
-1.1881e-05
1.28671e-05
-1.68854e-06
-3.01953e-07
4.23379e-05
-1.17359e-06
-4.08622e-05
-7.37961e-06
-7.3151e-07
9.67904e-06
-1.56792e-06
3.53995e-06
-1.3984e-05
1.10013e-05
-5.56934e-07
1.07854e-05
-2.01913e-05
1.44358e-05
-5.02994e-06
8.89486e-06
2.06652e-05
3.51182e-06
-3.30723e-05
5.59597e-06
-5.7461e-06
1.50178e-07
1.56923e-05
-1.27689e-05
-3.21445e-05
2.92228e-05
1.10318e-06
1.1857e-06
1.59564e-05
-1.82452e-05
4.39294e-06
1.90448e-05
-2.44143e-05
9.76726e-07
1.17497e-05
-5.33767e-07
-1.85205e-06
-9.36401e-06
1.09071e-05
2.27896e-05
-3.34648e-05
-2.31703e-07
1.42408e-05
-1.01482e-07
-1.21829e-06
-1.29212e-05
-2.58682e-05
9.388e-06
1.29238e-06
1.51873e-05
-1.24775e-05
-1.17857e-05
-1.63191e-06
9.97657e-06
-1.75217e-05
1.32055e-05
-5.66002e-06
-4.45854e-06
-1.84192e-05
-2.76466e-05
5.05241e-05
-6.10108e-06
7.54741e-06
-1.7378e-06
2.9146e-07
4.29449e-08
2.59242e-06
-2.63548e-06
-7.86978e-06
4.05397e-05
1.20741e-05
-4.47447e-05
3.12913e-05
1.31302e-05
-1.15765e-05
-3.28442e-05
2.77042e-05
-2.3208e-05
2.66777e-05
-3.11735e-05
3.50958e-05
-3.86755e-05
4.31993e-06
-7.40089e-07
-5.81232e-05
2.53713e-05
1.09556e-05
2.17964e-05
-1.18501e-05
-1.47758e-06
1.30473e-05
2.80486e-07
3.47232e-05
-4.62854e-05
1.62225e-05
-4.66016e-06
1.07326e-05
-1.17583e-05
3.73944e-06
-2.71378e-06
-1.75632e-05
1.59862e-05
-1.09009e-05
-1.42873e-05
4.8476e-05
5.32405e-06
-3.95128e-05
-5.47588e-06
1.44708e-07
5.33112e-06
-4.78166e-06
1.08074e-05
-4.00515e-05
-2.01221e-05
-3.41694e-07
1.98688e-07
2.02649e-05
4.64943e-06
1.21328e-07
-4.77116e-06
8.49683e-06
-5.41781e-07
-3.04306e-05
2.24754e-05
-5.93052e-08
-2.04765e-07
1.07531e-05
-1.04888e-05
8.38468e-06
1.81869e-05
-3.03923e-05
3.82037e-06
2.75999e-05
1.90612e-06
1.792e-06
-3.12985e-05
-2.67152e-06
6.46202e-06
3.91471e-05
-4.29378e-05
-8.88716e-06
-1.07845e-06
-3.71695e-07
1.03376e-05
-9.50371e-06
8.21068e-06
-3.28905e-05
3.41836e-05
-1.3886e-06
2.50975e-05
-2.19258e-05
-1.78295e-06
3.94871e-05
1.21416e-05
-1.79883e-05
-3.36404e-05
8.61503e-06
-4.66414e-05
3.03712e-05
-3.95141e-05
5.04786e-05
-2.3034e-06
2.19221e-05
-8.62943e-06
1.7999e-05
-1.36554e-05
-3.35921e-06
6.60701e-06
1.04077e-05
-7.19477e-06
7.52337e-07
6.55713e-06
-1.13866e-07
-1.25535e-05
3.1744e-05
-2.22752e-05
3.08469e-06
-3.38778e-05
3.03047e-05
3.22983e-05
-2.87252e-05
-3.3383e-06
3.07226e-06
1.80715e-07
8.53254e-08
3.42558e-05
-4.99826e-05
-1.86497e-05
3.43768e-05
-4.63683e-05
-1.86176e-05
3.10025e-05
3.39837e-05
4.20534e-05
4.3908e-06
2.0347e-06
-4.84782e-05
3.59679e-05
-2.42108e-05
3.02964e-05
-3.82986e-05
-3.71143e-06
1.49122e-05
2.70976e-05
3.26544e-06
2.7625e-07
-3.54202e-06
3.9629e-05
-3.66095e-05
-1.24441e-05
9.42455e-06
-2.05477e-05
-7.24494e-06
5.99179e-06
2.18018e-05
1.56492e-05
2.72111e-05
-1.56515e-05
-2.72085e-05
6.9585e-06
2.19199e-05
-2.13217e-05
-7.55725e-06
4.66275e-07
-6.46447e-06
5.99795e-06
-1.84193e-05
-1.63453e-05
1.58926e-05
1.88715e-05
1.59368e-06
2.03045e-05
-4.71265e-06
-1.71849e-05
-3.4467e-05
3.4574e-05
-6.50345e-06
-3.00463e-06
4.0103e-05
-3.91331e-05
2.03464e-06
2.05779e-05
4.21662e-06
1.11788e-05
-3.59734e-05
-5.56915e-08
-2.25508e-06
2.31051e-06
-3.27943e-06
3.26377e-06
1.56371e-08
-2.64631e-05
-1.25665e-05
1.51417e-05
2.3887e-05
-3.34395e-05
-7.25047e-07
4.0445e-05
-6.2813e-06
-1.01726e-05
3.74073e-05
-3.86632e-05
1.14285e-05
-2.63864e-05
2.15808e-05
-9.68087e-06
1.44866e-05
3.65738e-07
2.08853e-05
-2.33864e-05
2.13474e-06
-3.62838e-05
8.05585e-06
2.37452e-05
4.48277e-06
2.38792e-06
4.866e-05
-1.83349e-05
-3.27123e-05
2.2248e-06
-4.15145e-06
-2.40793e-05
-1.25431e-05
1.01591e-05
2.04779e-05
-1.3032e-06
3.39953e-06
-2.25742e-05
-1.99785e-06
-4.64271e-06
5.85017e-06
7.89027e-07
1.36817e-05
-4.15521e-06
-9.72573e-06
1.98775e-07
1.30001e-05
-4.40526e-05
4.21682e-05
-1.11166e-05
-1.68506e-05
2.97407e-05
4.33888e-06
-1.72291e-05
-3.5424e-06
4.25911e-06
2.8063e-05
-2.87802e-05
-3.78189e-05
2.80763e-06
3.81575e-07
3.46284e-05
-2.11561e-05
2.49295e-06
1.70399e-05
1.62281e-06
-2.69167e-05
1.66373e-05
3.81489e-05
-2.78699e-05
-1.43209e-05
-2.64984e-05
7.21418e-06
3.3606e-05
5.41903e-06
-4.24701e-05
-5.1917e-06
4.22424e-05
-3.25416e-05
4.28057e-06
-1.32157e-06
2.95829e-05
-3.43032e-05
-2.49933e-06
-2.27481e-06
3.9077e-05
7.38621e-06
-4.0743e-06
3.70379e-05
-4.03502e-05
7.07594e-06
-4.03806e-06
-1.2065e-08
-3.0261e-06
4.88548e-06
-5.07514e-05
-7.79572e-06
5.36619e-05
-4.06757e-06
2.57654e-06
2.08685e-06
-5.95355e-07
-2.87877e-05
-7.55553e-06
1.58094e-05
2.05338e-05
-1.43785e-06
1.40324e-05
2.64989e-06
-1.52444e-05
-1.31018e-05
-1.41999e-05
9.32239e-06
-6.14131e-06
2.4596e-06
3.17408e-05
-2.80594e-05
2.47866e-05
-3.40051e-05