/*--------------------------------*- C++ -*----------------------------------*\
| =========                 |                                                 |
| \\      /  F ield         | OpenFOAM: The Open Source CFD Toolbox           |
|  \\    /   O peration     | Version:  2406                                  |
|   \\  /    A nd           | Website:  www.openfoam.com                      |
|    \\/     M anipulation  |                                                 |
\*---------------------------------------------------------------------------*/
FoamFile
{
    version     2.0;
    format      ascii;
    arch        "LSB;label=32;scalar=64";
    class       volVectorField;
    location    "44";
    object      U;
}
// * * * * * * * * * * * * * * * * * * * * * * * * * * * * * * * * * * * * * //

dimensions      [0 1 -1 0 0 0 0];

internalField   nonuniform List<vector> 
59516
(
(0.104582 -0.000448462 -0.000497517)
(0.0970905 -0.000114171 -0.000400525)
(0.112581 -0.000879983 -0.000365505)
(0.128769 0.00149536 0.00194876)
(0.113741 0.000208268 -0.00455675)
(0.10109 -0.00483229 -0.0107983)
(0.128061 -0.00106236 -0.00186519)
(0.101797 0.000741083 -6.84455e-05)
(0.111969 0.000964147 -9.01193e-06)
(0.0539189 -0.00101042 0.00213581)
(0.153743 -0.000228446 -0.00223215)
(0.060267 0.000317891 -0.00362756)
(0.118687 0.00110953 -7.49654e-05)
(0.0195416 -9.65512e-05 -0.000200242)
(0.0600325 0.00146082 0.00322444)
(0.0514286 0.0035655 -0.00167029)
(0.168057 -0.00125419 -0.000740917)
(0.0700914 0.00398805 -0.00432999)
(0.114557 0.00584229 0.000737471)
(0.164493 -0.000607778 0.000344243)
(0.0540403 0.000857763 -0.00120594)
(0.1486 -0.000658122 0.000276448)
(0.154539 -0.000295656 -0.00158892)
(0.0331567 -0.00100607 -0.000239502)
(0.160308 -0.000468099 0.000769909)
(0.0650634 0.00140832 0.000684729)
(0.041283 0.000829454 -0.00278206)
(0.0443725 0.00375436 0.000229378)
(0.0656465 0.00262549 -0.000474149)
(0.0172238 -0.00268431 0.000687425)
(0.108347 -0.0210404 -0.00463599)
(0.0456403 0.00362298 -0.000557235)
(0.13283 0.000209133 0.000838579)
(0.111868 -0.000857684 0.0022716)
(0.139289 0.00502129 0.00377103)
(0.145974 0.000108088 -0.000280531)
(0.0166346 -0.00162057 -0.00232186)
(0.0699831 0.00267462 -0.00673851)
(0.0954229 -0.00365993 -0.000303374)
(0.158529 -0.000715262 -0.000630294)
(0.100777 -0.000647929 0.000112484)
(0.143963 -0.00837302 -0.00772866)
(0.148342 -0.00358156 -0.00288323)
(0.106906 -0.000718288 0.000390336)
(0.142883 -0.00456053 -0.000174397)
(0.0545389 -0.000770668 -0.00129331)
(0.132528 -0.00267403 -0.00403543)
(0.162715 -0.00444939 -0.000766824)
(0.111882 -0.00902772 0.0124184)
(0.150736 0.00645226 0.00522472)
(0.104052 0.0104766 -0.0145262)
(0.0433524 -0.00362501 0.00247748)
(0.119511 0.00092319 -0.00229066)
(0.126982 -0.000547843 6.68268e-05)
(0.0475358 0.00293327 2.47468e-05)
(0.129778 0.00257322 -0.00073292)
(0.144782 0.0081896 0.0085232)
(0.0464574 0.00391453 -0.0027602)
(0.171309 0.000360175 -0.000114889)
(0.135117 0.00624697 0.00794961)
(0.149122 -0.000364175 0.000305274)
(0.0187826 0.00232217 -0.000808386)
(0.164869 0.000654239 0.000192396)
(0.164973 0.00220909 0.00149063)
(0.122364 0.000254166 -0.000616667)
(0.147244 0.00348079 0.0049401)
(0.0255564 -0.0017264 0.00233495)
(0.0403834 0.000242437 -0.000206247)
(0.121498 -0.0050684 0.022251)
(0.135888 0.00124194 -0.00270236)
(0.0362645 0.00101846 0.000296907)
(0.162337 0.00160042 0.00013243)
(0.022721 0.00142505 -0.00347522)
(0.142697 0.00075902 0.000505639)
(0.177483 3.3149e-05 -0.000215615)
(0.157769 -0.00197521 -0.00241435)
(0.163466 -0.00216217 -0.00318561)
(0.148227 -0.000110813 -9.75967e-05)
(0.0451346 -0.00152046 0.00141217)
(0.151311 0.00299852 0.00750111)
(0.0377054 0.00229331 0.00107684)
(0.146553 0.00392863 0.00582728)
(0.139558 0.00182422 0.00560238)
(0.019683 -0.000754491 0.00275241)
(0.146424 0.00315327 0.00615482)
(0.173216 -0.000291494 0.000663095)
(0.032073 -0.00116889 0.000504014)
(0.149973 0.000200841 0.000415249)
(0.0537925 0.000691053 0.00226836)
(0.107178 0.00841033 -0.00576521)
(0.131538 -0.000870853 -0.0114381)
(0.138773 0.0017693 -0.000267388)
(0.170784 7.20905e-05 -0.000145798)
(0.137118 0.0012668 -0.000299975)
(0.159824 0.000467789 2.01908e-05)
(0.109944 -0.0105722 0.00396109)
(0.14013 -0.000437187 0.000638612)
(0.0526967 -0.0018017 -0.004144)
(0.0645983 0.00238269 -0.000991185)
(0.147971 -0.000906062 0.00156645)
(0.0370293 0.000603083 0.00139471)
(0.0240645 0.00121256 -0.00274181)
(0.0227637 0.000806255 0.00314351)
(0.0536312 -0.000821358 -0.00285559)
(0.135337 0.000657084 -0.000232132)
(0.146696 -0.000241357 9.08784e-05)
(0.0392145 0.00342991 -0.00140513)
(0.104848 0.00035252 -0.000733002)
(0.100796 -0.000705563 0.000102115)
(0.0652203 0.00041135 -0.00265238)
(0.124936 0.0128954 -0.0135376)
(0.0302635 0.00307675 -0.000434055)
(0.066057 0.000825779 -0.00406963)
(0.118037 0.0173891 -0.0087334)
(0.159272 2.57488e-05 -0.000103085)
(0.100342 0.00108009 0.00106775)
(0.0535599 0.000563335 -0.00205878)
(0.1333 -3.87154e-05 0.00079102)
(0.0216098 -0.000305108 0.00104159)
(0.146796 0.00130264 0.000362358)
(0.179331 -0.000431375 0.000385645)
(0.166432 -0.000273613 0.000494035)
(0.158041 -0.000372137 0.000792107)
(0.16506 -0.000559346 0.000592631)
(0.13234 -0.0177549 0.00275968)
(0.0900777 0.00124319 -0.00290494)
(0.0293114 -0.0005149 0.00192041)
(0.138275 -0.0135813 -0.00106542)
(0.0898355 -0.00276083 0.0131375)
(0.175772 0.000504464 -1.75825e-05)
(0.177736 0.000335543 0.000280628)
(0.112722 0.00165373 0.00191056)
(0.0229834 0.00135205 -0.00157956)
(0.148241 -9.28137e-05 0.000641778)
(0.101687 0.00121459 0.000271052)
(0.116021 -0.000714603 -0.00197597)
(0.107505 0.0127848 -0.00895675)
(0.130095 -0.000368009 0.000420798)
(0.0389317 0.00266456 0.000118401)
(0.0986782 0.000405178 -0.00123339)
(0.0431722 -0.000873896 -0.00218335)
(0.179045 -0.000507242 0.00038679)
(0.0183742 0.000806874 0.00160198)
(0.12568 -0.00113695 -0.000438041)
(0.173135 0.000523612 0.000484986)
(0.141711 0.00161619 0.000141847)
(0.140503 -0.0049234 -0.00170853)
(0.118181 0.00138937 -0.00263483)
(0.0621282 -0.00100532 0.00173129)
(0.106954 -0.000762269 -0.000839994)
(0.10363 -9.50415e-05 -0.000829818)
(0.0344523 -0.00129949 2.32272e-05)
(0.165642 -0.000936793 0.00106862)
(0.154022 -0.000378321 0.000467239)
(0.0894371 -0.000348424 0.00205097)
(0.018404 -0.000364572 0.00199308)
(0.113508 -0.000164569 -0.0001839)
(0.114095 0.00126776 -0.000208811)
(0.0826364 0.00117928 0.000157379)
(0.018877 0.00226968 -0.00246644)
(0.0639682 0.00150522 -0.0033123)
(0.0658815 -0.00356993 -0.00229828)
(0.0341816 -0.00139827 0.000336635)
(0.0246616 -0.000214095 -0.000485967)
(0.0996666 0.00182675 0.00236501)
(0.170871 0.000164597 0.00112179)
(0.0604674 -0.000719529 0.000346089)
(0.174524 0.000695323 -1.04334e-05)
(0.0193195 -0.00118958 0.00223434)
(0.136224 -0.000555374 5.88665e-05)
(0.0837055 0.00132661 0.00114485)
(0.0510654 0.000739201 -0.000782801)
(0.0629331 0.00158385 0.000826911)
(0.136835 -0.000501631 0.000572724)
(0.0490143 -0.000777861 0.000259041)
(0.135038 -0.00145964 -0.00505321)
(0.167678 -0.000300473 -0.00100307)
(0.149442 -0.00531625 -0.00323669)
(0.0660205 -0.000845335 0.0030808)
(0.0399354 -0.000134185 -0.000547246)
(0.145853 0.00206032 0.000695275)
(0.0325502 -0.00285467 -0.00128221)
(0.028045 -0.000350165 -0.00221591)
(0.063189 -0.00162925 0.00017767)
(0.174734 2.20956e-06 0.000524385)
(0.0577746 0.000301082 0.000698512)
(0.0343713 -0.000585665 -0.00267571)
(0.0223335 1.57415e-05 0.000295573)
(0.121776 0.000111157 -6.31648e-05)
(0.0998314 -0.00176797 -0.000179043)
(0.13528 -0.000624349 0.00280784)
(0.0506483 0.00307221 3.04639e-05)
(0.162695 -0.000592658 -0.000174741)
(0.0556642 0.00214283 4.87358e-05)
(0.154499 -6.79376e-05 -0.000185797)
(0.0286767 -0.000254787 0.000798406)
(0.0556729 0.000749204 -0.000138862)
(0.0395453 -0.00107755 0.000273347)
(0.109585 0.00283719 0.00365952)
(0.153607 0.000684787 -0.000411975)
(0.0800525 -0.00273624 0.000337243)
(0.178633 -0.000641006 0.000442717)
(0.102263 -0.000749354 0.000862024)
(0.0189283 0.00205126 -0.00138064)
(0.127857 -0.00122134 -0.000474233)
(0.145105 0.000218245 0.000226749)
(0.177229 0.00022422 0.000122723)
(0.152779 -0.00125629 -0.000292712)
(0.0222896 -0.000685373 0.000209591)
(0.113701 -0.00198013 -2.47294e-05)
(0.0492849 0.00348108 0.00304499)
(0.0236971 -0.00388898 -0.000632523)
(0.14376 0.000303446 -0.00140184)
(0.0544856 -0.00112617 0.000739664)
(0.115774 0.00139877 0.000159847)
(0.168855 -0.000156704 -0.000181826)
(0.139872 0.00106061 0.000270019)
(0.156927 -0.00134276 0.000469641)
(0.0529674 0.00214626 -0.00279637)
(0.156341 -0.000257702 0.000799153)
(0.0540097 0.00210418 0.00183976)
(0.104256 0.000354434 -3.14393e-05)
(0.162934 0.000702156 0.000922475)
(0.0384738 -0.000188796 0.000673077)
(0.166759 -0.000365451 -5.69593e-05)
(0.168724 -0.000353871 -0.000727884)
(0.0273702 -0.000294208 0.00139298)
(0.0456082 0.0014676 -0.00215386)
(0.167943 0.000436835 0.000671084)
(0.0530591 0.000213881 -0.00395362)
(0.17002 -0.000611719 0.000214183)
(0.169641 0.000307212 -0.000410815)
(0.176698 0.000562488 0.000769526)
(0.0242484 -0.00191063 -0.00136643)
(0.0318375 0.000859543 -0.00153975)
(0.0332137 0.000852258 -0.00118648)
(0.06198 0.000355423 0.000226638)
(0.0961959 -0.00122104 0.000637632)
(0.155685 0.0010033 0.00122783)
(0.0559943 -0.00121239 0.00146359)
(0.17848 -0.000173099 0.000598636)
(0.0198901 0.0003592 0.00294786)
(0.0530921 3.36907e-05 0.000878081)
(0.0241235 0.000173578 0.00265948)
(0.176204 0.000675991 0.000346483)
(0.0918977 -0.00051487 -0.000310958)
(0.145525 0.00021203 0.000876653)
(0.063975 0.000807708 -0.00142213)
(0.167627 2.68107e-06 -0.000215487)
(0.104138 0.000249796 0.000443332)
(0.164355 -0.000714161 0.000157965)
(0.140517 5.33424e-05 0.000637566)
(0.178908 0.000248689 0.000668116)
(0.144559 0.000463816 -0.000591956)
(0.146799 0.0012279 0.000852206)
(0.157112 0.000205831 0.000652647)
(0.054335 8.37883e-05 -0.00025473)
(0.153246 0.000931923 0.00162032)
(0.0409177 -0.000375536 -0.00226403)
(0.0588383 0.000481451 0.00206727)
(0.130247 0.000801412 -0.000989371)
(0.160849 -0.000417632 0.000536637)
(0.114784 0.00292527 0.00152217)
(0.17278 0.000108881 0.000548205)
(0.0983666 3.47071e-05 0.00214028)
(0.0566533 0.00223162 -0.00150499)
(0.158818 -0.000109067 -0.0011076)
(0.0921004 0.0018895 0.000516299)
(0.0453537 -0.000744534 -0.000672761)
(0.0506386 0.000190196 -0.00142425)
(0.0966478 0.000817575 -0.00306091)
(0.169358 -0.000606731 -0.000237011)
(0.0979164 -0.00233194 4.80579e-05)
(0.0921987 -0.00130558 0.000944051)
(0.163445 -0.00105255 -0.000313165)
(0.0922741 -0.000594062 0.00247876)
(0.0207064 0.00247421 -0.00140994)
(0.160879 0.000190797 0.000963389)
(0.0249847 0.00160816 -0.00212966)
(0.0396096 -0.00161523 0.00107361)
(0.175682 0.000345412 0.000905505)
(0.139564 -0.000120393 -0.000357912)
(0.0246105 0.00265704 0.00264196)
(0.120813 0.000917853 0.000462262)
(0.124522 0.00240234 7.0274e-05)
(0.166108 -0.000454807 0.00129576)
(0.175782 -0.000657474 -6.99431e-06)
(0.0236609 0.00280589 0.000543251)
(0.174866 0.000367934 0.000506149)
(0.1778 -0.00059005 0.00019082)
(0.169946 0.000122635 0.000835272)
(0.135268 0.00049791 0.00084387)
(0.137284 0.00128534 0.000815175)
(0.0952149 0.00047952 -0.000267264)
(0.169897 0.00104808 0.000225152)
(0.0276655 -0.000991395 -0.00127719)
(0.158719 -0.00071034 0.000507728)
(0.139566 -0.00075053 -0.000540206)
(0.177661 -0.000293722 0.000451741)
(0.166193 4.92303e-05 0.000660726)
(0.116532 -0.000563073 0.000601133)
(0.0585294 0.000885676 0.00128676)
(0.0225896 -0.000335778 0.00157297)
(0.0279941 -0.000674437 0.000472358)
(0.16339 -0.00106732 -0.000756639)
(0.0202089 -0.00117029 0.00293197)
(0.0628232 -0.00033201 -0.00108003)
(0.0514262 0.00284445 0.00115488)
(0.165993 0.000304078 0.000824949)
(0.172015 -0.000355705 -0.000363919)
(0.154309 -0.000154399 -0.00056671)
(0.0582227 -4.94096e-06 -0.00129092)
(0.10315 0.00148687 -0.00225477)
(0.0395785 -0.00327404 0.00266181)
(0.0544594 0.00123045 0.00120171)
(0.156464 0.000652967 3.39778e-05)
(0.0980373 0.00109152 -0.000938288)
(0.107737 0.0123719 0.00351378)
(0.0898984 -0.00187962 0.000930681)
(0.0424185 -0.00019743 -0.000424241)
(0.0635727 -0.000936554 0.00196882)
(0.107908 -0.000915029 -0.00163984)
(0.173041 -2.50333e-05 -0.000206103)
(0.17826 -0.000672198 0.000713469)
(0.178292 -0.000111554 0.00094962)
(0.16127 -0.00121011 0.000333289)
(0.0970208 0.00369779 0.00461792)
(0.126997 0.0007984 0.000781107)
(0.164512 0.00127885 0.000909668)
(0.160136 -0.000729574 6.1451e-05)
(0.162602 -0.00062904 0.000793199)
(0.0560463 0.00123052 -0.0032181)
(0.0220194 -0.00142363 -0.00260352)
(0.150188 -0.00119253 0.000271608)
(0.0391744 -0.00186466 0.002138)
(0.0313609 0.000149672 6.73351e-05)
(0.160195 0.000535408 0.0016233)
(0.145947 -0.000413562 0.00046681)
(0.0598569 -0.00133443 -0.00294775)
(0.170537 -0.00093853 0.000487171)
(0.165606 -0.0013393 0.000423019)
(0.177672 -0.00089976 -0.00044251)
(0.171513 -0.00108561 -0.000326289)
(0.032295 0.00152033 4.36013e-05)
(0.15929 3.02087e-05 -3.2343e-05)
(0.173223 -0.00103732 0.000874908)
(0.057182 5.5819e-05 0.000793304)
(0.17627 3.09924e-05 0.00122045)
(0.171746 -0.000433956 0.00051715)
(0.131641 6.92517e-05 -0.000875582)
(0.122942 0.000163162 -0.000935694)
(0.151503 -0.00101393 0.00140008)
(0.143326 -0.00127941 0.000500152)
(0.0693836 -0.000357138 -0.000201739)
(0.0313417 0.0013032 -0.00100803)
(0.0345408 -0.00252279 -0.000190125)
(0.0946664 0.000486667 -0.000121345)
(0.0862518 -0.00678146 0.0106151)
(0.0746092 -0.0042068 -0.00607989)
(0.0831171 0.000354933 0.000344364)
(0.114826 8.54455e-05 0.00202586)
(0.131604 0.000242178 0.000657131)
(0.158804 -0.00134782 0.00401718)
(0.156942 -0.00044168 0.000810049)
(0.132055 -0.000709034 -0.000310031)
(0.148823 1.52451e-05 0.000598912)
(0.149164 0.000880942 0.000387589)
(0.0310028 -0.000944476 -0.000325424)
(0.113909 -0.0224652 0.00276591)
(0.0578042 0.00148935 0.000512417)
(0.0407935 -0.00183003 -0.000428849)
(0.0410632 0.000861375 0.000318375)
(0.160869 -0.000520314 -0.000361976)
(0.0937671 -0.000521823 -1.57149e-05)
(0.160165 0.00057133 -0.00111061)
(0.0196697 0.00108405 -0.00168608)
(0.126647 -0.000422009 0.000266178)
(0.043967 0.00105027 -0.000851685)
(0.164155 -0.000383882 -0.000130831)
(0.0474324 -0.000623734 -0.000476304)
(0.0613976 -0.00147091 0.00122678)
(0.106098 -0.00270922 0.000838687)
(0.151721 -0.00106927 0.0012067)
(0.0193596 0.00157089 -0.00208735)
(0.0539049 -0.000592262 0.00230747)
(0.133305 -0.000181031 0.000587453)
(0.0229885 -0.00143026 -0.00180876)
(0.130776 0.00127833 0.00928036)
(0.116107 -0.00077898 0.00255691)
(0.131985 -0.00029253 -0.00203886)
(0.0943723 0.00208246 -0.00280168)
(0.0881707 -0.00117753 0.00202762)
(0.161229 0.000767877 2.84716e-05)
(0.0771941 -0.00789768 -0.00717611)
(0.178324 0.000451313 0.00010837)
(0.111363 0.00860451 0.00902978)
(0.0589698 -0.0026231 0.000362394)
(0.0621456 -0.000399096 -0.00146362)
(0.17619 0.00048539 0.000220443)
(0.176284 0.000703466 0.000379343)
(0.0520768 -0.000513151 0.000613033)
(0.13372 0.00052098 -0.000578611)
(0.0977203 -0.000500034 -0.00229431)
(0.175993 -4.55091e-06 0.000616884)
(0.175435 -0.000169056 0.00101691)
(0.0451575 0.00130807 -0.00339081)
(0.132786 -0.00105153 7.45282e-05)
(0.145405 -0.00173852 0.00154959)
(0.148059 0.000623198 -0.000373405)
(0.156475 0.000662212 0.000563623)
(0.0212734 -0.000730227 -0.00269246)
(0.020739 0.00104822 -0.0026065)
(0.12665 0.0011558 -0.00162119)
(0.172934 5.58805e-05 6.54364e-06)
(0.17706 -0.00158036 -0.000602773)
(0.034125 0.000364366 -0.00249319)
(0.167038 -0.00154831 0.000478773)
(0.106609 -0.000999428 -0.000659704)
(0.171725 -0.000152587 0.00061979)
(0.173726 0.000549198 0.000651129)
(0.177235 0.000730877 -0.000440754)
(0.171266 0.000708769 0.000587229)
(0.170575 0.00148089 0.000509112)
(0.0885548 0.000565698 0.000315597)
(0.175329 0.000858779 -0.000124849)
(0.0556287 -0.00108855 -0.00274359)
(0.165638 0.000253011 -0.000419767)
(0.109228 -0.000412278 -0.00107361)
(0.152943 0.000536824 0.00087671)
(0.172247 0.000233633 -0.00013074)
(0.149326 -0.000429212 0.000195328)
(0.144506 0.000298359 -0.00115531)
(0.0399062 0.00227701 0.00211989)
(0.0334393 0.000827093 0.000292815)
(0.0209239 0.00181369 -0.00207881)
(0.152824 0.00410351 0.00734912)
(0.182562 4.07053e-05 -0.000175437)
(0.139269 -0.000839883 0.000674451)
(0.126468 0.00101523 0.000177865)
(0.0304335 -7.86506e-05 0.00113415)
(0.0233358 -0.000388765 0.00267293)
(0.114186 -0.000492465 0.0017156)
(0.152125 -0.00025397 0.0014625)
(0.172659 -0.000570709 0.000780302)
(0.154275 0.00044173 7.73476e-05)
(0.135397 -0.0010807 -0.000952537)
(0.180599 0.000439959 0.000239335)
(0.134324 0.000814391 0.00087116)
(0.0260568 -0.000548321 0.00244831)
(0.122586 -0.000250881 0.00070641)
(0.0569057 0.000547215 0.0029459)
(0.0704771 -0.00704339 0.00150838)
(0.153428 0.00022219 0.00042327)
(0.0930285 0.000463983 -7.64676e-06)
(0.14627 -0.000135698 0.000101808)
(0.0202985 -0.00380471 -0.00139501)
(0.176179 0.000789362 -0.000341702)
(0.176205 -4.95924e-06 -0.00034169)
(0.174214 0.000623175 0.000467945)
(0.0912043 0.000939152 0.000115981)
(0.152966 -0.000580028 0.00144227)
(0.170602 0.000150412 0.000900184)
(0.121252 0.000404843 0.000138132)
(0.17677 0.00102344 0.000199906)
(0.0980332 0.00394563 -0.00321621)
(0.16916 0.000602434 -0.000267441)
(0.148707 -0.00265057 -0.000530159)
(0.0202098 -0.00130805 0.00143027)
(0.175373 -0.000252185 -0.000163807)
(0.116407 0.00213901 2.98511e-05)
(0.0453634 -0.00130178 0.00372201)
(0.0904739 0.000769154 -0.00153574)
(0.165829 -0.000148272 -0.000312)
(0.128794 -0.000384381 0.000905774)
(0.0839753 0.000215396 -0.00239714)
(0.0200633 -0.00183248 -0.00200854)
(0.172353 -0.000548935 -0.000257005)
(0.124454 0.00166471 -0.0018245)
(0.160199 -0.000428389 -0.000533157)
(0.123973 2.76995e-05 0.000750761)
(0.0361388 0.00165022 0.00162881)
(0.140793 3.94193e-05 -0.000425511)
(0.0258674 0.00209228 -0.00331582)
(0.161737 0.000227028 -0.000727593)
(0.10228 0.0114014 -0.00365274)
(0.166628 -0.00100708 -0.000707598)
(0.0507531 -7.51662e-06 0.00177107)
(0.105764 -0.00124527 -0.00154577)
(0.0945893 0.000236851 -0.00125124)
(0.0340966 0.00196135 0.00172471)
(0.177545 8.66892e-05 0.000537762)
(0.169106 3.56302e-06 0.000828072)
(0.0214866 0.000751021 0.00209554)
(0.160549 -0.00040362 0.000365227)
(0.177485 8.24347e-05 0.000648679)
(0.036367 -8.12612e-05 -0.00215074)
(0.0605011 0.00266911 -5.06144e-05)
(0.0526775 0.00193903 0.00138614)
(0.153479 0.000381725 0.000639203)
(0.174719 0.000206485 0.000333532)
(0.0324922 -0.000856403 0.00149346)
(0.0528254 -0.00176388 -0.000596773)
(0.0555075 0.00109954 -7.94067e-05)
(0.114616 0.00146011 0.000325282)
(0.175888 0.000303745 0.000449344)
(0.0227006 0.0012146 -0.00298227)
(0.158992 -0.000633841 0.000831778)
(0.151672 0.00301724 -0.000227434)
(0.175319 -0.000273151 0.00116562)
(0.0900994 0.00386635 -0.00372704)
(0.167196 0.000927994 0.000263255)
(0.022227 -0.00026045 -0.00242439)
(0.163505 -0.00047787 -0.000281554)
(0.0266141 -0.000418455 -5.18701e-05)
(0.0589866 -0.00168482 0.000681991)
(0.154413 -0.00119578 0.000141409)
(0.0593725 -0.00175181 -0.000603544)
(0.0200653 0.00233265 0.00208254)
(0.0359212 0.000688282 -0.00113631)
(0.0443054 -0.00234199 0.00154808)
(0.0574585 0.00113275 -0.0016144)
(0.146487 -7.97573e-06 -0.000744275)
(0.049113 -0.00111954 9.8662e-06)
(0.0579552 0.00188903 -0.00104643)
(0.12822 -0.0071172 -0.0137453)
(0.167607 0.000177016 0.00079523)
(0.0233453 0.00150007 0.000270868)
(0.105972 0.00023836 -0.00106164)
(0.081287 0.00884886 -0.00349504)
(0.169123 -0.000897104 -0.00014229)
(0.0572065 -0.000151378 -0.00132682)
(0.16408 0.000354099 0.00122923)
(0.0560745 -0.00228265 -0.00162731)
(0.122667 0.00056492 0.000660845)
(0.173864 0.000193945 -0.000616555)
(0.0497946 0.00226204 -0.00446461)
(0.173338 -5.05183e-05 -1.36032e-05)
(0.0475516 0.00222061 0.00242017)
(0.018675 0.00284828 0.00106397)
(0.145649 0.000863966 -0.000354844)
(0.174976 0.00014489 0.000244754)
(0.129388 0.000984914 -0.000424837)
(0.124685 0.00164981 -0.000686123)
(0.174972 -0.00109185 0.000240346)
(0.0595096 0.0016824 -0.00021185)
(0.165955 -0.00104936 0.000441682)
(0.0558144 -0.00174246 0.00243604)
(0.172232 0.000386072 0.0001446)
(0.125726 -0.00148012 -0.0013296)
(0.0272468 0.000689751 -0.00379653)
(0.153379 0.000598573 -0.000854026)
(0.0508989 7.25965e-05 0.00163284)
(0.0253232 -0.00182023 -0.00183424)
(0.148497 -0.00102784 -0.000368837)
(0.0421173 -0.00119011 0.00106461)
(0.137566 0.000338054 5.51005e-05)
(0.174338 -9.09589e-05 0.000988737)
(0.130563 0.000467665 0.000333148)
(0.0524287 -0.00237158 -0.00254)
(0.176305 0.00152991 0.000292244)
(0.0889048 -0.00134333 0.00115571)
(0.1816 0.000374526 0.000176556)
(0.177517 -6.8316e-05 0.000441065)
(0.177134 0.000439807 0.000816585)
(0.17455 4.89925e-05 -4.04701e-05)
(0.0429202 -0.00238687 -0.00200672)
(0.0502841 0.00026472 -0.000467987)
(0.174651 -0.0003242 2.57585e-05)
(0.161461 0.000480462 0.00161931)
(0.0308571 -0.00218317 -0.00102288)
(0.160487 -0.000114161 0.000521353)
(0.17767 5.69781e-05 0.000266391)
(0.173905 -0.00087352 -0.000278179)
(0.177396 -0.00116847 -0.000183939)
(0.115337 -0.000114054 -0.00162245)
(0.020796 0.00210073 0.00181416)
(0.175192 0.000571947 -0.000190892)
(0.0991561 -0.000944711 -0.00124478)
(0.150748 0.000484738 0.000611331)
(0.094563 0.000261414 -6.99368e-05)
(0.0283209 0.00201911 -0.000121749)
(0.175888 0.000302415 0.000630865)
(0.0903049 0.00227046 0.00230261)
(0.13244 -0.000204747 0.000244203)
(0.178702 -0.000953094 4.05417e-05)
(0.140928 -0.00156313 -0.000335239)
(0.01677 0.00152163 -0.00197685)
(0.0213431 -0.00130415 -0.00208781)
(0.172332 -0.000112741 0.000222082)
(0.166176 -0.00106894 -0.000491469)
(0.178797 0.00081158 0.00099076)
(0.151631 -0.000262448 0.00126564)
(0.0907661 -0.00137094 0.000553971)
(0.149219 -0.00103593 -0.000576438)
(0.172539 0.000157094 0.00064268)
(0.0195363 0.00171327 0.000401802)
(0.173791 -3.58469e-05 0.0005603)
(0.134963 -0.0149869 -0.000385148)
(0.0361731 -0.000604117 0.00190137)
(0.0531857 -0.00340291 0.00086808)
(0.143851 -0.00030988 -0.000893754)
(0.140485 -0.00173752 0.000992061)
(0.137337 0.000544217 -0.000105234)
(0.123172 -0.000749916 0.000645172)
(0.103749 -0.00357693 0.00113014)
(0.177884 0.000188361 -0.000173531)
(0.0966154 0.000918399 -0.00287154)
(0.173422 0.000903818 -0.000108909)
(0.169397 0.000886369 -2.0323e-05)
(0.181105 -0.000760035 0.000201352)
(0.171511 -0.000812543 0.000242142)
(0.0387952 -0.000371091 0.00190151)
(0.162654 -0.000756637 0.000153946)
(0.0313716 0.000946828 -0.00129217)
(0.0944265 -0.00919879 0.00542358)
(0.0584541 0.00186186 0.00147683)
(0.127252 -0.00253144 -0.0130168)
(0.130041 -0.000730503 -0.000671236)
(0.117453 -0.0190544 -0.00422949)
(0.16807 0.000223897 -0.00047673)
(0.173797 -0.000397645 -0.00026573)
(0.153697 0.000765358 -0.000111633)
(0.168791 -0.000336823 0.000963122)
(0.032384 0.000246997 -0.000566092)
(0.100941 -0.00379893 -0.00254665)
(0.112489 -0.00210447 -0.0160288)
(0.172821 0.000302766 0.000124068)
(0.111407 -0.00232572 -0.000574306)
(0.136879 -0.0134043 -0.00467709)
(0.156639 -0.00357339 0.00437641)
(0.109971 0.000885045 0.000831112)
(0.0337717 -0.000693756 0.00120297)
(0.0522049 -0.00256256 0.00144493)
(0.0233626 0.000111586 -0.000228998)
(0.0222267 0.000165866 -0.00170451)
(0.0330519 -8.02933e-05 0.000172733)
(0.133619 -0.00934654 0.00546471)
(0.13828 -0.000429479 0.00083932)
(0.0225556 -0.000777617 0.00312841)
(0.0213654 0.00152949 0.00236215)
(0.178717 0.000323342 -4.07562e-05)
(0.096134 -0.0126254 0.00857285)
(0.0356152 0.00154931 0.000590372)
(0.147512 0.000217785 -0.00046517)
(0.104653 -0.0010696 -0.00150505)
(0.134054 0.000178121 0.00122417)
(0.0399748 0.00208129 -0.00114271)
(0.0522677 0.00161453 -0.000609907)
(0.11045 -0.00121172 8.17081e-05)
(0.167767 0.000138933 -0.000730942)
(0.15177 0.000115331 -0.000817499)
(0.0340374 0.00280745 -0.000970708)
(0.0227951 -0.00178247 0.00109883)
(0.106234 -0.015184 -0.0112659)
(0.0243416 -0.00317648 0.00010475)
(0.134069 -0.000875941 -0.00106841)
(0.0258012 0.00143859 -0.00322073)
(0.1032 -0.000420921 0.00217564)
(0.172779 -0.000822908 -0.000171927)
(0.174847 -0.000433555 0.00118425)
(0.0417145 0.000619194 -0.000840005)
(0.0969658 -0.000317485 -0.000994046)
(0.0334148 0.00122567 -0.00137306)
(0.0263947 0.00311416 -0.00115115)
(0.17337 -0.000307847 -0.000710605)
(0.0180671 -0.00153056 -0.00233136)
(0.163548 -0.000661501 -0.000703823)
(0.0456461 0.000973773 -0.00214525)
(0.15486 -0.00115074 -0.000220834)
(0.141314 -0.000601552 -0.000162984)
(0.0206573 -0.00055154 0.00328281)
(0.0544113 -0.00266313 0.000208899)
(0.148401 0.000337909 0.000577887)
(0.032364 -0.00156347 5.15684e-05)
(0.158355 -0.000397048 -0.000566397)
(0.0514462 -0.00204027 0.00321409)
(0.107151 0.000279747 -3.18515e-05)
(0.176393 -0.000775646 -0.000450777)
(0.0343509 0.0010239 0.000759833)
(0.0222785 0.000949977 -0.00290358)
(0.048046 0.000917909 -0.000409415)
(0.110791 0.0173967 0.00374198)
(0.103234 0.000364425 0.000413009)
(0.053484 -0.00242691 0.00259694)
(0.0831946 0.000343456 0.00124178)
(0.0288932 -0.00111167 0.000702669)
(0.177093 -0.000832732 -0.000704483)
(0.0220714 -0.000348018 -0.00161899)
(0.168071 -0.000694396 -0.000468701)
(0.144789 -0.000154527 0.00022072)
(0.1656 -1.62023e-05 -0.000191843)
(0.018307 0.00184149 7.56804e-05)
(0.150538 -0.000219458 0.00051838)
(0.0808952 0.000693825 8.77373e-05)
(0.156624 0.000188379 6.41294e-05)
(0.0519801 -0.00051486 -0.000223411)
(0.10816 -0.0130243 0.00669575)
(0.15959 -0.00147207 -0.000384826)
(0.0376561 0.000482949 -0.000436254)
(0.179792 0.00072482 0.0002744)
(0.108866 0.0020103 -0.0205036)
(0.116999 0.000299477 -0.000791783)
(0.0310464 0.000798334 -0.00170816)
(0.0480997 -0.000456208 -0.00252222)
(0.175478 -0.000198564 -0.000185536)
(0.13184 0.00130721 0.000289388)
(0.0303887 0.00149385 0.000597229)
(0.108905 0.00130658 -0.00162296)
(0.0580029 -0.000584557 -0.00178289)
(0.023084 -0.00201903 0.00135025)
(0.173896 -8.74929e-06 -0.000456992)
(0.103341 -0.00128988 0.0100499)
(0.130551 0.00142866 -0.00196688)
(0.169696 -0.000395038 -7.97209e-05)
(0.172284 -0.000208712 0.000557109)
(0.16616 -0.00055216 -0.000140125)
(0.13225 0.000752788 -2.46685e-05)
(0.0412271 0.00109161 0.000351867)
(0.0377766 -0.0018611 -0.00182703)
(0.176322 0.000562785 0.000458866)
(0.10758 -0.00940352 0.00874045)
(0.121072 -0.00117581 0.000538629)
(0.128007 -0.00162986 0.000743421)
(0.0794637 0.00184783 0.000862854)
(0.147571 -0.000320708 0.00121256)
(0.161584 -0.000266582 -0.000969786)
(0.0979017 -0.000386077 -0.00130611)
(0.103042 0.00189705 0.000361441)
(0.0360267 0.000414188 -0.00228055)
(0.069627 0.000557325 -0.000409443)
(0.0411151 -0.00108858 -0.003104)
(0.150814 -0.000760271 0.000993738)
(0.171182 -0.000211123 -0.000161139)
(0.0925925 0.00164996 -0.00220877)
(0.0970263 0.00077256 -0.0005507)
(0.0198367 0.00206438 -0.000412162)
(0.0775793 -0.000371864 -0.000631607)
(0.0558226 -0.00191132 -0.00239756)
(0.171965 -0.000253476 -0.00104557)
(0.173132 -0.00129824 -0.000470421)
(0.104821 -0.00957866 0.00606024)
(0.160614 -0.000549859 0.00120396)
(0.0800322 -0.00234438 -0.0018863)
(0.101707 -0.00255227 0.00794385)
(0.13293 -0.00145305 0.00190521)
(0.0248064 -0.00192865 -0.000151784)
(0.173158 -0.000994148 -0.000102442)
(0.0477179 0.00136441 -6.02567e-05)
(0.138964 -0.000371895 0.00131604)
(0.0269458 0.00383975 -0.000278754)
(0.17132 0.000304217 -0.000761353)
(0.101647 -0.00433791 0.00266998)
(0.156724 -0.000328528 -0.000383115)
(0.114784 0.000410002 0.000457894)
(0.14597 3.3687e-06 0.000548989)
(0.149255 0.00102154 0.000310575)
(0.178139 0.000875324 6.96181e-05)
(0.0328437 -0.0019424 -2.7424e-05)
(0.0453955 0.000617493 -0.000980702)
(0.027481 -0.000719936 -0.000236753)
(0.171665 -0.00020359 0.000656159)
(0.155593 0.000350141 -0.000758915)
(0.136112 0.00173886 -0.000380182)
(0.158696 0.00068982 -0.00121011)
(0.0199392 0.000357761 0.000523)
(0.0968336 -0.000183141 -0.000230696)
(0.0877305 0.000921642 -0.00182083)
(0.17157 -0.000128475 -0.000320577)
(0.126248 -0.000897201 -0.000296752)
(0.14497 -7.76575e-05 -0.000526702)
(0.104784 -0.000275124 0.00134841)
(0.174595 -0.000102671 -1.56407e-05)
(0.0196304 -0.00226791 -0.00239424)
(0.0837231 -0.00338533 0.000459891)
(0.151414 -0.000253071 0.000402232)
(0.02479 -0.00221082 0.00190991)
(0.0426461 -0.000745083 -0.00198888)
(0.059848 -0.00100955 0.000634539)
(0.0205602 0.00127819 -0.00218231)
(0.0934748 0.000502244 -0.00130178)
(0.166676 0.000448101 -7.31211e-06)
(0.0578731 -0.00176936 -0.00150685)
(0.0182403 -0.0023625 -0.00169821)
(0.103337 0.000438301 -0.000784107)
(0.0245065 0.000175953 0.000364312)
(0.0972902 0.00122733 -0.00070026)
(0.16976 0.0001784 3.22333e-06)
(0.178763 -6.7836e-05 -0.00037151)
(0.169357 -0.000153682 -0.000269985)
(0.16239 0.00090024 -0.000159308)
(0.170559 -2.33037e-05 -4.17412e-05)
(0.129345 0.000629863 0.00185617)
(0.0447596 0.000908957 -0.0011248)
(0.171189 0.000565887 0.000728549)
(0.12343 -0.000294532 0.00091457)
(0.0864034 0.000521435 -0.00160292)
(0.0947184 -0.000938254 0.00134092)
(0.161337 -9.51832e-05 0.000134243)
(0.114687 -0.00124153 -0.00060381)
(0.0636368 9.01483e-05 0.00172083)
(0.153732 0.000675106 0.00119803)
(0.0319471 0.00115068 0.000498763)
(0.0859208 4.42901e-05 0.000725032)
(0.0950019 -0.000288827 0.000216534)
(0.0591451 0.000321225 0.00101238)
(0.159187 -3.25696e-05 0.000102374)
(0.105997 -0.0126033 0.0134387)
(0.127178 0.00798429 0.00526868)
(0.0313306 0.000574855 -0.00268548)
(0.0253057 -0.00162396 0.000828404)
(0.0542411 0.00201105 -0.00102843)
(0.0196079 -0.00126651 -0.00155843)
(0.125364 0.000625696 -0.000586631)
(0.152684 0.000881246 -0.00072476)
(0.128344 0.00164266 0.000208808)
(0.110235 0.0100696 -0.0115625)
(0.132958 -3.6628e-05 0.000365063)
(0.145873 0.000573655 -0.00047335)
(0.024095 -0.00197033 0.00462963)
(0.155632 0.000750814 -2.94902e-05)
(0.127567 -0.00406303 0.01256)
(0.0424682 0.00076966 -0.00109253)
(0.0211968 -0.00353555 0.000708759)
(0.114255 0.000309092 0.000682139)
(0.107928 -0.00122264 -0.00068963)
(0.0247372 -0.00169523 0.00278935)
(0.161385 -0.000500685 -0.000664037)