/*--------------------------------*- C++ -*----------------------------------*\
| =========                 |                                                 |
| \\      /  F ield         | OpenFOAM: The Open Source CFD Toolbox           |
|  \\    /   O peration     | Version:  2406                                  |
|   \\  /    A nd           | Website:  www.openfoam.com                      |
|    \\/     M anipulation  |                                                 |
\*---------------------------------------------------------------------------*/
FoamFile
{
    version     2.0;
    format      ascii;
    arch        "LSB;label=32;scalar=64";
    class       volScalarField;
    location    "34";
    object      epsilon;
}
// * * * * * * * * * * * * * * * * * * * * * * * * * * * * * * * * * * * * * //

dimensions      [0 2 -3 0 0 0 0];

internalField   nonuniform List<scalar> 
59516
(
0.0151641
0.0145758
0.0118575
0.0111004
0.00942938
0.345291
0.0104811
0.0140466
0.0127231
0.0301673
0.00833552
0.0294758
0.0120734
0.0933962
0.0258897
0.0301443
0.00759026
0.040038
0.0153867
0.00736285
0.0369591
0.0085923
0.0080253
0.041655
0.00759459
0.0232683
0.0410137
0.0467227
0.0263882
0.07185
0.0459395
0.0420228
0.00987983
0.0130602
0.0108357
0.00840067
0.0683369
0.0457215
0.0188567
0.00773079
0.0142752
0.0103671
0.00907266
0.0159978
0.0092094
0.0307736
0.0110202
0.00788574
0.0127327
0.00949557
0.0271385
0.0340266
0.0112055
0.0110144
0.0310289
0.0115976
0.010319
0.0358847
0.00762487
0.0124629
0.00858065
0.054867
0.00798411
0.0078386
0.0109386
0.00958894
0.0690576
0.0340817
0.0201701
0.0103533
0.0334245
0.00812818
0.0538527
0.0094501
0.00711994
0.00807778
0.00784513
0.00870803
0.0315361
0.00954982
0.0395827
0.00997591
0.0108065
0.0600244
0.0100967
0.00728886
0.0420393
0.00809337
0.0283567
0.0267496
0.0103509
0.0100084
0.00709251
0.0101989
0.00836618
0.0107671
0.00979366
0.031417
0.0332904
0.00885017
0.0340679
0.0526697
0.0524913
0.0279532
0.0100028
0.00942004
0.039159
0.0139777
0.01489
0.0226517
0.0201714
0.0292767
0.0247281
0.0304293
0.00766148
0.0166558
0.0268038
0.0105741
0.0506155
0.00881068
0.00725834
0.0082115
0.00789718
0.00814873
0.0158357
0.0212772
0.0504008
0.0133852
0.0820248
0.00707628
0.00718321
0.0127899
0.0511004
0.00802213
0.0145551
0.0116702
0.0371541
0.00942883
0.0360279
0.0163778
0.0323562
0.00707357
0.0686908
0.011375
0.00755338
0.00886236
0.00976644
0.0130166
0.25321
0.013123
0.0154952
0.0390513
0.00712852
0.0079588
0.0176032
0.0774953
0.0121299
0.0117477
0.0202488
0.0666937
0.0234374
0.0221348
0.0425456
0.0787676
0.0155189
0.00724112
0.0239966
0.00715627
0.0603446
0.0104684
0.0194707
0.0332051
0.0213074
0.00959515
0.0314688
0.0110561
0.00803
0.00903888
0.0218296
0.0411228
0.00843792
0.0494982
0.0676408
0.0266578
0.00718509
0.0286953
0.0428692
0.0617845
0.0111822
0.0156308
0.0103563
0.0311069
0.00746318
0.0274099
0.00769894
0.0480986
0.0304388
0.0384572
0.013804
0.00772789
0.0213479
0.00736984
0.0141236
0.0654968
0.0104237
0.00880196
0.00702433
0.00899958
0.0661183
0.0127268
0.0342975
0.0649034
0.00911663
0.0291914
0.0124309
0.00739808
0.00904262
0.00756259
0.0300999
0.00814663
0.030401
0.0140179
0.00819471
0.0354671
0.00773865
0.00764428
0.0347488
0.0312651
0.0074248
0.028295
0.00726022
0.00755337
0.00737721
0.042579
0.0434791
0.0398618
0.0276114
0.0144959
0.00826875
0.0325605
0.00711547
0.0613567
0.0298675
0.0540893
0.00716648
0.0173869
0.00889298
0.0217744
0.00708081
0.014017
0.00736423
0.00926944
0.00717866
0.00895896
0.00870309
0.0076536
0.0316165
0.00843079
0.031511
0.0259409
0.0102442
0.00774755
0.0125363
0.00705698
0.0159121
0.0294037
0.00798569
0.0173739
0.0281916
0.0322794
0.0170373
0.00771173
0.01435
0.0171626
0.00750572
0.0170259
0.0501084
0.00750411
0.0395505
0.0340714
0.00739659
0.00953625
0.0471023
0.0119065
0.0110159
0.00764056
0.00721925
0.0488221
0.0073653
0.00746378
0.00770125
0.0102585
0.010139
0.0163054
0.00721743
0.0300511
0.00801866
0.00861664
0.00731813
0.00770552
0.0115277
0.0269451
0.051223
0.0300425
0.00718869
0.0637932
0.0208501
0.0324184
0.0073706
0.00672818
0.00756758
0.027157
0.0145568
0.0364994
0.0345234
0.00842276
0.015804
0.0117864
0.0182066
0.0369888
0.02398
0.0144064
0.0074603
0.00727599
0.00739193
0.00767385
0.0216926
0.0106893
0.00808949
0.00818784
0.00756971
0.027084
0.0528519
0.00871365
0.0315231
0.0431534
0.00792899
0.00920784
0.0321927
0.00771862
0.00737467
0.00736955
0.0076126
0.0397543
0.00788052
0.00784938
0.0299319
0.00738201
0.00782086
0.0104701
0.0109841
0.00857991
0.00866358
0.0252155
0.048402
0.0356868
0.015819
0.0531201
0.0974052
0.0221299
0.013036
0.00974932
0.0081952
0.00764596
0.00988059
0.00876339
0.00906259
0.041555
0.0361528
0.0299535
0.0355116
0.0368782
0.00836823
0.0159897
0.00797318
0.057805
0.0108059
0.0364963
0.00793421
0.0358484
0.025097
0.0133923
0.00842724
0.0610445
0.0275784
0.0100966
0.0469672
0.0138397
0.0130183
0.00952265
0.0170397
0.0172601
0.00769835
0.0680612
0.00741307
0.0288265
0.0234758
0.0240222
0.00737809
0.0071002
0.0325663
0.00971368
0.016454
0.00728729
0.00730991
0.0283505
0.0107113
0.00864277
0.00859938
0.00808291
0.0506739
0.0527677
0.0101361
0.00732455
0.00725054
0.0394945
0.0080789
0.0127859
0.00774837
0.00726387
0.00711586
0.00763085
0.00760372
0.0175764
0.00759385
0.0245295
0.00788324
0.0140639
0.0087095
0.0075818
0.00869991
0.00927447
0.034939
0.0428553
0.05575
0.00922736
0.00677361
0.00986678
0.010464
0.0431587
0.0566746
0.012767
0.00892661
0.00754408
0.00799745
0.00909023
0.00695981
0.00917724
0.0395639
0.0111253
0.0289442
0.11552
0.00846723
0.0158193
0.00911767
0.0596964
0.00724145
0.00725583
0.00771572
0.0179104
0.00889505
0.00762099
0.0116586
0.00761779
0.0188497
0.0075552
0.00858469
0.0532904
0.00732189
0.0123263
0.0296679
0.0166949
0.00752489
0.0104674
0.0208053
0.056068
0.00723578
0.0103183
0.00771202
0.0106755
0.038159
0.00918415
0.0622119
0.00802972
0.0170028
0.00780744
0.0276346
0.0141513
0.0158789
0.0384218
0.00726398
0.007977
0.0629257
0.00778612
0.00742535
0.037375
0.0246733
0.0266293
0.00839676
0.00763962
0.0905888
0.0308756
0.0291309
0.0131555
0.00753059
0.048138
0.00769718
0.00850965
0.00739886
0.114225
0.00714115
0.0442843
0.00752016
0.054839
0.0268731
0.00871222
0.0267463
0.0581158
0.0400182
0.0277522
0.0292752
0.00828357
0.0329941
0.0243387
0.01278
0.00792524
0.0365386
0.0131327
0.0686505
0.00729497
0.0314185
0.00835037
0.0302454
0.0114793
0.00757768
0.0291554
0.00749246
0.055959
0.0698821
0.0084357
0.00733607
0.0106972
0.0110554
0.00706127
0.026905
0.00727444
0.0264111
0.00771899
0.0107254
0.0382269
0.00776933
0.0282395
0.0380301
0.00835125
0.03637
0.00975377
0.00744605
0.0102047
0.0274991
0.00702927
0.0189222
0.00686999
0.00699383
0.00724159
0.00740393
0.0336551
0.0310929
0.0073223
0.00788356
0.0466006
0.00799825
0.00672063
0.00690669
0.00694393
0.0120191
0.0601581
0.00695491
0.0149803
0.00877842
0.0152473
0.0346552
0.0075486
0.0182471
0.0091874
0.00701528
0.00927977
0.0699361
0.0535464
0.00758752
0.0081147
0.00740623
0.00916844
0.0182754
0.00916717
0.00750679
0.0471225
0.00757257
0.0143577
0.03827
0.0247974
0.00843405
0.00919305
0.00976514
0.0111368
0.0149013
0.0072419
0.0171785
0.00716549
0.00751416
0.00693305
0.00739996
0.0352214
0.00753549
0.0462722
0.0951124
0.026072
0.0112367
0.00966246
0.0301861
0.00785715
0.0068352
0.00805759
0.00750733
0.0415599
0.0104409
0.0144002
0.00747618
0.0129343
0.013243
0.00844592
0.0127227
0.0364949
0.0314068
0.0345042
0.0603301
0.0382744
0.0126217
0.00963707
0.0667837
0.0578693
0.0073785
0.06604
0.0405783
0.00908679
0.0134443
0.0101986
0.0399713
0.0300206
0.0130974
0.00759812
0.00845734
0.0431369
0.0446048
0.0596497
0.0455851
0.0094555
0.0435542
0.0150199
0.0076065
0.00681378
0.0345347
0.0153601
0.0420116
0.0473435
0.00757821
0.0661049
0.00798424
0.0288885
0.00836946
0.0094324
0.0570721
0.0291675
0.00881133
0.0385433
0.00839354
0.0319464
0.0138755
0.00746322
0.0389614
0.0526216
0.0298951
0.0191147
0.0148846
0.0314913
0.0209095
0.0508522
0.00747663
0.0384003
0.00705138
0.00850212
0.00790877
0.0672499
0.00804107
0.0186642
0.00797654
0.0332082
0.0141499
0.00745706
0.037978
0.00721053
0.029551
0.0111187
0.044804
0.0277749
0.00751308
0.00992803
0.0421981
0.0121646
0.0262766
0.04693
0.00752059
0.0121534
0.00986839
0.00771268
0.0076145
0.00773278
0.00973851
0.0305575
0.0340933
0.00720766
0.0126333
0.0123679
0.0104516
0.0222027
0.00845208
0.0080666
0.0150908
0.0146828
0.0413983
0.0186716
0.0414511
0.00858429
0.00711805
0.0176491
0.0152011
0.0593015
0.0220156
0.0308463
0.00774551
0.00746059
0.0128037
0.00835379
0.0214303
0.0160174
0.0099237
0.0562278
0.00750196
0.0341057
0.00963058
0.0488367
0.00726265
0.0106505
0.00829586
0.0126306
0.00927676
0.00856299
0.00745806
0.0365885
0.0272202
0.0520975
0.00781145
0.00826274
0.0103263
0.00749742
0.0822976
0.0153049
0.0180667
0.00767474
0.0108676
0.0095241
0.015177
0.00762468
0.056122
0.0199009
0.00911555
0.0367156
0.032661
0.0249435
0.0572345
0.0180206
0.00800038
0.0255258
0.0633826
0.0139776
0.0331864
0.0147275
0.00755854
0.00738996
0.00771955
0.00751719
0.00763772
0.0100322
0.0429901
0.00737546
0.0105069
0.0191354
0.0155728
0.0078635
0.0121705
0.023315
0.00782362
0.0395628
0.0181616
0.0173448
0.0255107
0.00819202
0.0425562
0.0163208
0.0432064
0.0497105
0.0272769
0.0577187
0.0107412
0.0090048
0.0108037
0.0308729
0.0106796
0.00952094
0.0543058
0.00871416
0.0106811
0.0349735
0.0560284
0.0127244
0.0129512
0.0447369
0.00774644
0.0536402
0.00743687
0.00859559
0.0116146
0.00815811
0.00823465
0.0147955
0.00758717
0.0789163
0.0424566
0.0155919
0.0154301
0.0654603
0.00937567
0.0131635
0.00724355
0.00801031
0.0224231
0.00886389
0.00722971
0.0182848
0.0299765
0.0077597
0.0156991
0.0365824
0.00807828
0.00789909
0.00787177
0.0164303
0.0101005
0.0136848
0.019683
0.0150253
0.0157391
0.00950245
0.0273425
0.00867106
0.00746291
0.0093833
0.00851492
0.0134505
0.0114116
0.0393827
0.0270715
0.0111228
0.00917312
0.00979301
0.0072635
0.00825096
0.0072117
0.0069233
0.228872
0.012522
0.00716906
0.0508986
0.0087719
0.00893138
0.0507347
0.00809942
0.00754137
0.0149409
0.00742689
0.00747385
0.00730621
0.0257259
0.0106525
0.0338754
0.012824
0.00776902
0.0453592
0.0370973
0.0286434
0.0116606
0.0346742
0.00880776
0.00762211
0.00769259
0.00765474
0.019042
0.0260968
0.00843006
0.00753617
0.0123814
0.0195513
0.00837568
0.00758575
0.00704923
0.0416015
0.00718485
0.0167685
0.0215489
0.0406787
0.0290088
0.0180917
0.00760876
0.0320071
0.00784291
0.00750441
0.00790995
0.00749634
0.00776997
0.00678122
0.00740803
0.00747859
0.00970522
0.00954948
0.0117404
0.0398041
0.0333913
0.00827088
0.0102402
0.0412569
0.00777576
0.0146265
0.00752522
0.00745012
0.00746818
0.00912649
0.0183575
0.00742371
0.123056
0.0160323
0.00746835
0.0704305
0.00786404
0.0393391
0.0194798
0.0084789
0.0216584
0.0364326
0.008372
0.00875981
0.00827521
0.038753
0.00796524
0.0392297
0.0176418
0.0247986
0.0276252
0.0152154
0.00734368
0.0257164
0.00840242
0.00785624
0.0131949
0.00734839
0.00726062
0.0124434
0.00698503
0.00787251
0.0228254
0.00734148
0.0284377
0.0411516
0.00839779
0.00941927
0.03
0.00742589
0.0137999
0.0204905
0.00891206
0.0624329
0.00735959
0.00779762
0.0128448
0.0462964
0.0306853
0.0156587
0.029546
0.00970337
0.0102279
0.0148827
0.0616503
0.0126323
0.00746455
0.0100097
0.00757595
0.00762109
0.0291692
0.0082743
0.00726508
0.0125238
0.00916807
0.0415818
0.0127268
0.00844967
0.00704488
0.0245462
0.0080765
0.01766
0.0134268
0.0522767
0.0124323
0.0193705
0.0368029
0.0118951
0.0358275
0.00822403
0.0138483
0.00744778
0.067206
0.00688718
0.0169055
0.0305607
0.0156215
0.00969156
0.0511686
0.00820019
0.0086733
0.031841
0.0731212
0.0321764
0.00722166
0.00871971
0.00778605
0.0150467
0.0334474
0.00902237
0.0489684
0.0142481
0.00754134
0.0099677
0.0310247
0.00852972
0.0532674
0.0193568
0.00811776
0.00730642
0.0451105
0.00841717
0.0110622
0.0295636
0.00739981
0.00832563
0.00669071
0.0101803
0.0165908
0.0291029
0.00760146
0.00829515
0.0525808
0.0369286
0.0283716
0.00726243
0.0165876
0.00784617
0.0330982
0.00725347
0.0397063
0.00973502
0.0169169
0.00743655
0.00762943
0.0087981
0.0098489
0.0493142
0.0434513
0.00913541
0.0100138
0.050477
0.0416193
0.00789662
0.00785285
0.00803364
0.0146626
0.00991006
0.00682335
0.00779383
0.0271252
0.0198216
0.0246729
0.00872822
0.0189554
0.0422494
0.0400358
0.00717706
0.0132603
0.0165602
0.00814412
0.00793774
0.0488534
0.00757919
0.00754599
0.0361971
0.0516712
0.00772377
0.00688592
0.0512874
0.0695017
0.00735206
0.0151184
0.0547892
0.0240241
0.00723088
0.00692927
0.00765082
0.0092239
0.00764568
0.0489805
0.041722
0.0075311
0.00774824
0.0155695
0.00853857
0.0326504
0.0298871
0.0321528
0.00895756
0.0670747
0.00802712
0.0088923
0.0166013
0.0284326
0.0574561
0.00735203
0.00691362
0.0117884
0.00724229
0.0141489
0.00763342
0.0335292
0.028715
0.211405
0.013651
0.00947303
0.0149036
0.0306862
0.0179676
0.0122433
0.00900277
0.0163306
0.00830872
0.00717301
0.0145906
0.0303234
0.0462634
0.00804634
0.0495987
0.0122359
0.0114941
0.0188292
0.0512784
0.00901473
0.0260298
0.0669427
0.0556928
0.0102538
0.0071407
0.0105906
0.0103522
0.0197789
0.0135932
0.0570672
0.0396061
0.035153
0.00724868
0.0148586
0.0089758
0.0139728
0.0143632
0.0103237
0.0544154
0.0118196
0.0533434
0.00790474
0.013438
0.0478235
0.00736285
0.0171272
0.0102791
0.018484
0.0303429
0.054675
0.00798376
0.033177
0.0077444
0.00748445
0.0116332
0.0243984
0.0490334
0.00974948
0.0361552
0.00804706
0.00803361
0.00757603
0.0324523
0.0079535
0.00810706
0.00823517
0.00811002
0.0566983
0.0337004
0.00781989
0.0135742
0.0253997
0.00749044
0.0112919
0.0109917
0.0152579
0.0397222
0.133763
0.0346836
0.0083837
0.00762188
0.0114468
0.0505291
0.0396262
0.00854509
0.0122831
0.0241565
0.00744981
0.00813596
0.00789799
0.00766811
0.00726269
0.00787402
0.00924349
0.0131214
0.0124399
0.0131445
0.0217897
0.0255707
0.00731164
0.0106583
0.0419461
0.0297519
0.00707506
0.0382978
0.00853453
0.016068
0.00755684
0.00885842
0.0128561
0.00707005
0.00737612
0.0073493
0.0295052
0.0341523
0.00766763
0.00720854
0.0538777
0.0191694
0.011441
0.00774444
0.00961998
0.0673412
0.014965
0.0102286
0.0203016
0.00713321
0.0118282
0.0585853
0.0110357
0.048897
0.0171402
0.0658094
0.00802389
0.0080783
0.00731375
0.0571814
0.0301311
0.0189234
0.00786534
0.033403
0.0325211
0.0170058
0.00770947
0.0411
0.00695815
0.00800447
0.0250145
0.0260534
0.0332264
0.00746077
0.00711812
0.00867718
0.011866
0.0157057
0.01492
0.0158914
0.0464396
0.0460594
0.0377955
0.0175925
0.00752219
0.0422239
0.0687474
0.0320775
0.0503732
0.00870413
0.0484079
0.0073923
0.00767793
0.00878341
0.0247124
0.00802489
0.041021
0.0268641
0.00725863
0.00754732
0.0118135
0.00991584
0.00762771
0.0549233
0.0102023
0.00846384
0.00788742
0.0170559
0.00825216
0.00705715
0.0146279
0.0383029
0.0494786
0.0149448
0.00747745
0.0452598
0.0199124
0.00703061
0.0380837
0.0415067
0.0155282
0.0469016
0.0232345
0.0567912
0.0324275
0.0410624
0.0599904
0.0387099
0.0628932
0.0141444
0.0204561
0.00750241
0.0593615
0.00722428
0.0105984
0.00846926
0.0121979
0.00881457
0.0427856
0.00782854
0.0107448
0.0171558
0.00740844
0.0102457
0.0708206
0.0126498
0.0190544
0.0427613
0.0451681
0.00932004
0.0174079
0.048775
0.00913781
0.00976889
0.00745803
0.00781951
0.0334748
0.0120915
0.0192216
0.0118269
0.00943248
0.00914996
0.00774272
0.0171909
0.00822347
0.0101325
0.01117
0.0142726
0.0139275
0.0117607
0.0183232
0.00753109
0.010424
0.0460224
0.00919642
0.0501983
0.121185
0.0303132
0.0092827
0.00978744
0.00880605
0.00836952
0.0125543
0.0214537
0.012988
0.0631241
0.0530501
0.0575824
0.0296492
0.0312458
0.00729832
0.0330078
0.012623
0.0479471
0.0448632
0.00727049
0.0299088
0.00852258
0.0107667
0.00802784
0.0391107
0.0339787
0.0111408
0.00878332
0.0603312
0.00929469
0.0279311
0.0144118
0.00744005
0.00823657
0.00750775
0.015444
0.0159833
0.0192054
0.0244143
0.0393796
0.033635
0.0462225
0.0135558
0.00768113
0.0220761
0.0277143
0.0150719
0.00811811
0.00864552
0.0296227
0.00969235
0.0487205
0.0251348
0.00883342
0.0327658
0.0200177
0.0165409
0.0117618
0.0142784
0.00889632
0.0170589
0.0152579
0.00791306
0.0134534
0.00799333
0.0533817
0.0545962
0.011041
0.0144908
0.00867637
0.0138049
0.0158845
0.059346
0.0102355
0.0103874
0.0092198
0.0175475
0.0367681
0.0287909
0.0351988
0.0112917
0.0258168
0.0144548
0.0544522
0.0120843
0.0354828
0.0206801
0.00775703
0.0296993
0.00828444
0.00827377
0.038678
0.0476353
0.0119659
0.0745633
0.00857639
0.00796773
0.0190202
0.00917882
0.0200195
0.0120591
0.0435823
0.0139568
0.0112149
0.00715849
0.0676349
0.00806936
0.0108802
0.020429
0.00984873
0.040648
0.00825026
0.043524
0.00888398
0.0112691
0.00924581
0.00967286
0.0358916
0.0533813
0.00812982
0.00728096
0.0368546
0.014142
0.0438115
0.0104229
0.0278866
0.0594126
0.0164241
0.00898375
0.018519
0.00725192
0.0125993
0.00896641
0.0447425
0.00740854
0.0408876
0.0211278
0.00749524
0.00749966
0.0113904
0.0550073
0.0331221
0.00768545
0.00757273
0.00963869
0.0085349
0.00882375
0.0769449
0.0091062
0.00976256
0.0103809
0.0315228
0.0102548
0.00752679
0.0107761
0.00757013
0.00772841
0.0284337
0.00810948
0.034203
0.00880124
0.0170057
0.0106485
0.00845491
0.00731387
0.00758159
0.0402652
0.00722921
0.0298143
0.047726
0.0109442
0.031613
0.00838923
0.0576347
0.0309537
0.03157
0.0204236
0.0114912
0.0438374
0.0435346
0.00944381
0.0169897
0.00737868
0.0152198
0.053376
0.018598
0.0369744
0.0133063
0.00885334
0.0305235
0.00898134
0.00739717
0.00800727
0.00791483
0.00731618
0.00800409
0.00730762
0.00841885
0.0289395
0.062241
0.00891619
0.0636405
0.0111556
0.0114641
0.0195297
0.007369
0.0105798
0.0381615
0.0071634
0.0353919
0.0159315
0.0262299
0.00975758
0.00713098
0.0201646
0.0142814
0.035751
0.0113045
0.0114807
0.0183025
0.00950716
0.0685817
0.048002
0.00695061
0.0109553
0.00763296
0.0150247
0.0780511
0.00746389
0.0256754
0.0069665
0.00841644
0.0421907
0.0080775
0.00738166
0.0410518
0.029439
0.00734745
0.0158762
0.0525339
0.00787116
0.0294454
0.0519134
0.0168942
0.00738594
0.00742794
0.00930612
0.00782957
0.00884574
0.00734149
0.0128137
0.0144346
0.00738947
0.00891796
0.061482
0.0391561
0.0113559
0.00768306
0.0120119
0.0546947
0.0479315
0.00884247
0.0347289
0.00844825
0.00775522
0.00724964
0.0345119
0.0206538
0.0074925
0.0133124
0.00893206
0.00931312
0.0285513
0.0430012
0.00752952
0.0478803
0.0235648
0.0418487
0.0349768
0.00759339
0.00756191
0.00895897
0.0141302
0.0169565
0.0176676
0.00760154
0.00898924
0.0307482
0.00682477
0.00830179
0.00802039
0.0494015
0.011308
0.0504135
0.0175853
0.0336973
0.00802535
0.00903952
0.0117537
0.0436011
0.0194031
0.0259653
0.0653388
0.00839669
0.0515248
0.0291552
0.00757779
0.00763422
0.00735826
0.0383461
0.0138027
0.0321539
0.00746778
0.00815251
0.00741861
0.00746361
0.0356353
0.00876621
0.0122522
0.00750656
0.00757512
0.00760077
0.00784888
0.00742149
0.0591281
0.0364469
0.0124482
0.00728607
0.00889425
0.0367175
0.00744272
0.027761
0.0111794
0.00913524
0.019036
0.0253937
0.0280819
0.0659348
0.00813513
0.00855438
0.0292928
0.011836
0.0614335
0.00855789
0.00683425
0.0550923
0.011553
0.0103431
0.00769216
0.0921372
0.0644829
0.04469
0.0243589
0.0267537
0.0519578
0.0444112
0.0621011
0.0193849
0.00778473
0.0101627
0.00827493
0.011099
0.0556499
0.00776735
0.0125873
0.0680076
0.0661072
0.0435914
0.0183169
0.0350193
0.0081911
0.0152804
0.00729908
0.00983839
0.035425
0.0186342
0.00827743
0.00738269
0.00863848
0.00758247
0.00782474
0.0321311
0.0139302
0.00833474
0.00787124
0.0730779
0.0147065
0.0140802
0.0105912
0.0121154
0.00717694
0.028572
0.0431071
0.0575278
0.0154846
0.00724774
0.0069372
0.00832339
0.0259311
0.0135175
0.0325871
0.0156592
0.00787393
0.035018
0.027174
0.00744962
0.00902476
0.00829997
0.00781939
0.0183045
0.0238189
0.00874563
0.0150504
0.0114413
0.00933034
0.0104105
0.00792253
0.0199868
0.00912788
0.0600901
0.0457724
0.0663986
0.0166927
0.0121846
0.0150958
0.0343877
0.00810923
0.0342358
0.0282327
0.0587462
0.0118359
0.00695858
0.00762918
0.058167
0.0275915
0.0342375
0.0499896
0.0286361
0.00704161
0.00701587
0.0444681
0.038381
0.0290342
0.00768965
0.00697733
0.0091708
0.016681
0.00818861
0.00869062
0.016064
0.0394405
0.00688574
0.00916601
0.00899846
0.0114448
0.00868396
0.00737913
0.0223656
0.0115902
0.0239454
0.0102492
0.00727985
0.0072148
0.0686205
0.00774579
0.0510998
0.00757044
0.00843273
0.00758615
0.00783095
0.0304091
0.0537701
0.0305262
0.00778234
0.00718314
0.0108902
0.00735497
0.0483764
0.0175433
0.00780055
0.00717258
0.0133044
0.036186
0.0157522
0.0130731
0.00723656
0.0079039
0.00787434
0.00689923
0.0082133
0.00869287
0.0184249
0.00763743
0.00752867
0.0088837
0.0183136
0.0404946
0.0547356
0.0220735
0.0141007
0.00723393
0.00728962
0.0466732
0.0134743
0.00951725
0.0098417
0.0164558
0.00774308
0.00892872
0.0105812
0.00691293
0.015089
0.00980379
0.031548
0.0133493
0.00902538
0.0516302
0.0107595
0.00829065
0.00988931
0.00772659
0.00723607
0.0524815
0.00766053
0.0195946
0.00694591
0.0218418
0.00751981
0.0102562
0.0172804
0.0112518
0.053335
0.0106017
0.0341961
0.0383408
0.00876065
0.0486066
0.00758497
0.00782097
0.0071453
0.0326624
0.0152035
0.0542435
0.0100277
0.0392253
0.0161453
0.00809404
0.00719878
0.00724224
0.00880537
0.00838262
0.0076171
0.00890558
0.00821675
0.00850292
0.034132
0.0159615
0.00717661
0.00705729
0.0279628
0.00861112
0.0077278
0.00727172
0.052172
0.0100261
0.0534017
0.00710569
0.0453944
0.038362
0.0124346
0.00987661
0.00957258
0.0122641
0.0416306
0.00801455
0.0420392
0.041868
0.00836306
0.0315547
0.0193574
0.0102222
0.0079234
0.0567987
0.0274526
0.0419583
0.00751947
0.00819215
0.0253772
0.00786471
0.0172639
0.026217
0.00765802
0.0378348
0.00994339
0.00875122
0.00785525
0.00732537
0.00742023
0.00697193
0.0114456
0.00680058
0.00821888
0.00767215
0.0142075
0.0161068
0.00695455
0.021285
0.00863364
0.00884618
0.00831424
0.00945655
0.00714607
0.00978029
0.038273
0.00822433
0.00714184
0.0274874
0.0114299
0.00717965
0.10916
0.00845638
0.00792625
0.0167266
0.0106532
0.0312576
0.0125624
0.00693745
0.00863686
0.0165603
0.0282692
0.0269449
0.0106642
0.0358042
0.0386514
0.046424
0.00917062
0.00707247
0.00702783
0.0101221
0.00852775
0.00962304
0.0267289
0.013661
0.00716666
0.00704406
0.00717008
0.00730101
0.0486781
0.07076
0.0613206
0.0236984
0.008812
0.00757404
0.00718006
0.0182775
0.00838939
0.00782477
0.0571183
0.00754844
0.00819137
0.0070465
0.00775023
0.0227317
0.0311166
0.0115046
0.0324716
0.00781261
0.00895116
0.0159057
0.00852548
0.0165148
0.025636
0.0150201
0.00718774
0.0187049
0.0108218
0.00752283
0.0199547
0.0364058
0.00758776
0.00728175
0.0293776
0.0381723
0.0174046
0.0409907
0.0072096
0.0127465
0.0306154
0.00728676
0.00728879
0.00731918
0.0108687
0.00815314
0.00815326
0.00835248
0.00913711
0.018867
0.00905928
0.0232674
0.0208207
0.030759
0.00743935
0.0125622
0.00842775
0.00952291
0.0169371
0.0148572
0.0568929
0.0149657
0.0574317
0.0170152
0.0093001
0.0077766
0.00730097
0.00802555
0.0410831
0.0328331
0.00768226
0.0205734
0.0245436
0.0105462
0.0347854
0.00706279
0.00847085
0.00758433
0.0124367
0.00750653
0.0115903
0.00848336
0.0385394
0.00777614
0.0416864
0.0434618
0.0252181
0.009662
0.0120046
0.00734076
0.0425864
0.00841236
0.00843393
0.0152261
0.0201295
0.0180231
0.0369093
0.0273125
0.0369075
0.0251297
0.00688455
0.0309253
0.00856942
0.0271993
0.0608014
0.0165858
0.0352627
0.0721414
0.0553541
0.00980607
0.0124124
0.00789949
0.0252193
0.00710689
0.04045
0.0130081
0.0270212
0.00876022
0.00768844
0.0595224
0.0101726
0.00819128
0.00853398
0.0102778
0.010275
0.00780961
0.0080853
0.00795441
0.00907765
0.0397723
0.0178847
0.032646
0.00810568
0.0494703
0.018072
0.00809922
0.0224611
0.0135249
0.0591518
0.0132305
0.0149832
0.00702942
0.0114951
0.00719251
0.00964384
0.00724024
0.00953362
0.00688619
0.0302234
0.0304591
0.00779172
0.00811807
0.00963587
0.00834249
0.00766655
0.0090778
0.0083991
0.0414621
0.00795346
0.00741927
0.0431719
0.0108767
0.0423418
0.0103377
0.0242006
0.0336417
0.00772962
0.0366082
0.0418534
0.0553789
0.046159
0.0399342
0.00715531
0.0122353
0.00696019
0.00975469
0.0274381
0.00793825
0.00730778
0.00755007
0.0558559
0.00846678
0.0130364
0.0121321
0.008201
0.0462006
0.0436167
0.00847516
0.0392929
0.00738166
0.0329433
0.0114313
0.0236739
0.00711188
0.00730717
0.00808448
0.0358908
0.054096
0.039765
0.0076598
0.0274147
0.0712147
0.0123772
0.0165539
0.045409
0.0158326
0.0281262
0.0103107
0.00846497
0.00753579
0.00887695
0.102492
0.0136799
0.0531301
0.00710223
0.0084686
0.0113722
0.00815265
0.0173004
0.0132284
0.0545629
0.00898178
0.0153185
0.0075234
0.00735402
0.0285113
0.0657867
0.00706442
0.00781088
0.00768485
0.0246761
0.00949413
0.05406
0.0375768
0.033768
0.007766
0.0448812
0.0128929
0.06294
0.0320787
0.00918334
0.0312552
0.0398714
0.0420584
0.00842742
0.00874145
0.00764307
0.030142
0.0107609
0.0071322
0.0114694
0.0117591
0.00897474
0.00777427
0.00749807
0.0542011
0.00837494
0.0150051
0.023727
0.0333436
0.00747397
0.00752378
0.0158845
0.00928627
0.0649249
0.0124913
0.0107735
0.0597218
0.00764985
0.00756542
0.00884588
0.0281484
0.00721376
0.0307587
0.00698638
0.0275569
0.0561447
0.00708708
0.00755676
0.0252124
0.00857916
0.00751289
0.00728645
0.00712334
0.0286095
0.0437285
0.0075653
0.00885427
0.00865455
0.00810421
0.031449
0.00980799
0.0289559
0.0249645
0.00744311
0.0076652
0.014982
0.0088067
0.0120639
0.0383422
0.0664991
0.00700605
0.00811906
0.0313249
0.0456289
0.0186693
0.0087788
0.00915685
0.0564867
0.0171584
0.00831105
0.00745662
0.00772293
0.00842071
0.0127397
0.00734598
0.00790328
0.00769119
0.0180967
0.0430384
0.0554084
0.011856
0.0137771
0.00878888
0.00798679
0.00764017
0.00763108
0.00749656
0.00802807
0.00803905
0.00772618
0.01522
0.008189
0.00837063
0.016541
0.00802437
0.0158498
0.0435205
0.011219
0.00994546
0.0100327
0.0106859
0.00996502
0.0174441
0.0309697
0.00863141
0.00847965
0.00921802
0.011801
0.0489697
0.00907389
0.0146025
0.0524878
0.00949367
0.0424866
0.0114259
0.00826481
0.00893294
0.00959352
0.0127949
0.037634
0.0505436
0.0685024
0.00737573
0.0314195
0.00797464
0.00782877
0.0346768
0.00720009
0.0160496
0.00700236
0.0120269
0.0114744
0.0215399
0.00697353
0.00684445
0.065715
0.00802554
0.0388276
0.0664692
0.00994558
0.0247037
0.00728192
0.00746647
0.00729822
0.0147305
0.0193316
0.00898817
0.00763786
0.00872626
0.0291313
0.0492559
0.0117948
0.00812183
0.0130506
0.00748521
0.0188693
0.0158957
0.00745441
0.00716143
0.0074241
0.0172261
0.013635
0.0184175
0.00984067
0.00866992
0.0129316
0.014462
0.0393948
0.00827936
0.00875764
0.00778698
0.00796178
0.00852705
0.00706341
0.0369103
0.0108638
0.0207875
0.0291548
0.00795129
0.019883
0.00726462
0.00753665
0.00854939
0.0539577
0.0151274
0.00906871
0.00722029
0.0264711
0.00813688
0.0202242
0.00985219
0.0193213
0.0128733
0.00790082
0.0072497
0.0675883
0.00931601
0.00712242
0.00817871
0.0167699
0.00813914
0.00781062
0.13253
0.00693389
0.0343153
0.00850836
0.0072303
0.00747323
0.0124383
0.0163589
0.0214589
0.0273
0.0392751
0.00724271
0.00702324
0.0897473
0.0363554
0.00863274
0.00947416
0.029714
0.0140959
0.00880174
0.00920421
0.00889376
0.0574788
0.00761591
0.0218639
0.0341636
0.00732854
0.0290578
0.0185056
0.0502592
0.0333507
0.0188127
0.0296051
0.0113902
0.0285225
0.0128425
0.0403449
0.0525774
0.0108723
0.043889
0.0267405
0.00873238
0.0458577
0.00853154
0.0280712
0.0232058
0.0293386
0.00728172
0.0453542
0.0415017
0.0101406
0.00881197
0.0108361
0.0320451
0.0103764
0.0180973
0.0109411
0.0246288
0.0152835
0.00707585
0.015689
0.00723953
0.0100305
0.00969523
0.00740846
0.0681086
0.0106679
0.0119814
0.00815243
0.0472544
0.0115394
0.0684232
0.0154931
0.0161469
0.00773214
0.00835771
0.0123584
0.00853846
0.0207134
0.00739744
0.00790341
0.0197146
0.00701714
0.0243438
0.00797761
0.0102369
0.0261996
0.0151695
0.0242312
0.00731392
0.00918078
0.0256328
0.0100347
0.0114674
0.0595977
0.00763761
0.0554844
0.0330755
0.0127527
0.00854925
0.00932789
0.0293286
0.00735536
0.00778408
0.0146612
0.0277936
0.0183225
0.0423311
0.00902672
0.0173841
0.00997451
0.0171332
0.00748407
0.0093822
0.0391255
0.0100894
0.00743496
0.0169228
0.0685806
0.024226
0.008898
0.0289361
0.0175801
0.0274559
0.00941453
0.0176201
0.0318017
0.0310448
0.00739787
0.0533245
0.00836766
0.0462938
0.00733238
0.01524
0.00816824
0.0402336
0.00908709
0.00690477
0.007827
0.00753455
0.0158528
0.061209
0.0600749
0.0314618
0.0681688
0.00846472
0.0394953
0.00717175
0.00800628
0.0108644
0.00826841
0.0511126
0.0270832
0.0295901
0.00816726
0.0434172
0.00899958
0.0153309
0.00930461
0.0258313
0.0389846
0.0458429
0.00804845
0.0296236
0.0073424
0.0107912
0.0109582
0.0297074
0.0294385
0.0110091
0.015354
0.0338097
0.00765579
0.00840714
0.0193711
0.0154461
0.00893549
0.00760351
0.00819257
0.00736175
0.00786894
0.0148479
0.0185571
0.00798733
0.0695275
0.0442795
0.0105833
0.00824871
0.00730415
0.0459564
0.0329627
0.0071552
0.0153377
0.00699045
0.0371587
0.00717882
0.007107
0.00873704
0.0270061
0.0187711
0.0484313
0.0536083
0.0116476
0.0578074
0.0106553
0.0209065
0.0106453
0.0100773
0.00776004
0.0497104
0.0755717
0.00732755
0.0104778
0.0406756
0.00762313
0.00832628
0.0411714
0.0569175
0.0609344
0.0344661
0.0209094
0.0546596
0.0182054
0.00719767
0.039726
0.0543318
0.0108167
0.00820951
0.00774008
0.00908461
0.0159615
0.0722828
0.00729684
0.0376901
0.00770804
0.0326333
0.0143655
0.0108537
0.0138628
0.0125315
0.0431733
0.00758571
0.0110519
0.00730621
0.0530221
0.0115122
0.0299658
0.0149414
0.0238979
0.0487714
0.0131346
0.0136377
0.0117776
0.0208342
0.00830887
0.0310589
0.0401982
0.0321848
0.00986683
0.0125158
0.0100794
0.0405476
0.0127798
0.0496203
0.0739248
0.00889839
0.00693353
0.0303405
0.0386827
0.0166157
0.00774956
0.0116296
0.00812325
0.0109545
0.00954938
0.00758171
0.00928982
0.00713293
0.02919
0.056634
0.0107162
0.00744035
0.00737867
0.0171365
0.0672566
0.0157444
0.0074845
0.0281645
0.0145981
0.0114005
0.0152201
0.00707115
0.00792835
0.00720739
0.0439817
0.0107367
0.008136
0.00916323
0.00707325
0.0125343
0.0292929
0.00761149
0.0163177
0.0580885
0.00701789
0.00689911
0.0127579
0.0178419
0.00859526
0.00751337
0.00905663
0.00706855
0.0120769
0.0167607
0.0377715
0.0307113
0.00784292
0.0110675
0.00765847
0.00934929
0.0352777
0.0396083
0.0332114
0.052901
0.0256706
0.0492552
0.00793749
0.0513046
0.0107199
0.0196366
0.0074128
0.0413262
0.00798892
0.0381009