/*--------------------------------*- C++ -*----------------------------------*\
| =========                 |                                                 |
| \\      /  F ield         | OpenFOAM: The Open Source CFD Toolbox           |
|  \\    /   O peration     | Version:  2406                                  |
|   \\  /    A nd           | Website:  www.openfoam.com                      |
|    \\/     M anipulation  |                                                 |
\*---------------------------------------------------------------------------*/
FoamFile
{
    version     2.0;
    format      ascii;
    arch        "LSB;label=32;scalar=64";
    class       volScalarField;
    location    "34";
    object      k;
}
// * * * * * * * * * * * * * * * * * * * * * * * * * * * * * * * * * * * * * //

dimensions      [0 2 -2 0 0 0 0];

internalField   nonuniform List<scalar> 
59516
(
0.00122221
0.00175785
0.00110439
0.00179892
0.00771023
0.0173769
0.00132918
0.00131172
0.00108085
0.00385808
0.00471351
0.00317443
0.00114432
0.00842396
0.00325011
0.003305
0.00321548
0.00437934
0.00143024
0.00256421
0.00500521
0.00168367
0.00193027
0.00510272
0.00179319
0.00293793
0.00497071
0.0059416
0.0033937
0.00717873
0.00704456
0.00558299
0.00141682
0.00160082
0.00197233
0.00147673
0.0069331
0.00438778
0.0016715
0.00212451
0.00123881
0.0032437
0.00186683
0.00167974
0.00155643
0.00339937
0.00130696
0.00323602
0.00764692
0.00273203
0.00902121
0.00453815
0.00096564
0.00119765
0.00471422
0.00137157
0.00399875
0.00491297
0.00344694
0.00185001
0.00205488
0.00675558
0.00323865
0.00307767
0.00144897
0.00215158
0.00835141
0.00448978
0.00620655
0.001203
0.00649053
0.00290051
0.00704979
0.00188233
0.00373826
0.00236944
0.00314751
0.00191944
0.00434301
0.00284064
0.00491091
0.00234042
0.00183362
0.0070433
0.0022911
0.00351063
0.0048905
0.00162827
0.00322761
0.00258966
0.00570413
0.00215328
0.00292547
0.00186609
0.00292954
0.00786603
0.00195783
0.00334337
0.00367477
0.00203509
0.00491899
0.00707784
0.00693252
0.00322638
0.00145514
0.00260078
0.00512908
0.0010595
0.00145652
0.00302927
0.00476528
0.00584891
0.00332783
0.00461238
0.002278
0.00137783
0.00315521
0.00168063
0.006631
0.00194702
0.00429459
0.00329368
0.00217749
0.00320704
0.00418314
0.00180973
0.00744898
0.00283785
0.0105437
0.00357687
0.00410181
0.00113639
0.00663567
0.00150592
0.00151599
0.000999842
0.00453772
0.000936772
0.00476465
0.00182601
0.00443092
0.00382762
0.00700737
0.00150929
0.00381281
0.00166463
0.00142489
0.00133309
0.0198513
0.00122512
0.00164632
0.00474015
0.00231317
0.00195789
0.00150154
0.00753712
0.00144699
0.00105459
0.00176162
0.00712292
0.0031635
0.00299693
0.00509935
0.00842282
0.00135194
0.00306537
0.00300032
0.00347887
0.00684617
0.0022409
0.00166773
0.00337202
0.00241593
0.00146077
0.00399264
0.00139466
0.0033147
0.00202083
0.00293205
0.00460329
0.00162677
0.00546657
0.00840481
0.00271082
0.00359866
0.00316548
0.00456202
0.00710881
0.00109405
0.00144647
0.00193886
0.00337655
0.00262411
0.00262095
0.00173101
0.00500447
0.00317849
0.00445796
0.00174386
0.00175552
0.00235546
0.00431604
0.00123143
0.00703706
0.00124266
0.001695
0.00368557
0.00277392
0.00734083
0.00146303
0.00383972
0.00791839
0.00175111
0.00343365
0.00125783
0.00286059
0.00158307
0.00179639
0.00350512
0.00219859
0.0035562
0.00178752
0.00308667
0.00495432
0.00315058
0.00333313
0.00604842
0.00427145
0.00317018
0.00335465
0.00301428
0.00334718
0.00428224
0.00628705
0.00504022
0.00451543
0.00282776
0.00116758
0.00247282
0.00371594
0.00407222
0.00723779
0.00313032
0.00734511
0.00383516
0.00139873
0.00207691
0.00304939
0.00267542
0.00115948
0.00245349
0.00185685
0.00426238
0.00202873
0.00178996
0.00218842
0.00351251
0.00227789
0.0043953
0.00321481
0.00124272
0.00260575
0.00129913
0.00318095
0.00120748
0.0030454
0.00259828
0.0015357
0.00455936
0.00323239
0.00176335
0.0033852
0.00116274
0.00167527
0.00268133
0.00141938
0.00629614
0.002331
0.00621364
0.00449104
0.00411595
0.00163584
0.00675473
0.00133011
0.00121253
0.00327993
0.0038008
0.00708223
0.00405239
0.00456733
0.00355027
0.00159432
0.00186678
0.00153189
0.00279851
0.00587505
0.00268968
0.00136201
0.004337
0.00333491
0.000988482
0.00292947
0.00671435
0.00546569
0.00200173
0.00715659
0.00337025
0.00378187
0.0027957
0.00266883
0.00168812
0.00302516
0.00152712
0.00503605
0.00347754
0.00276364
0.00146333
0.00825741
0.00186773
0.00445476
0.00327876
0.0014923
0.00353462
0.00407978
0.00429217
0.00219973
0.00212051
0.00148827
0.00320044
0.00255915
0.00226742
0.00305078
0.00685135
0.00209515
0.00416958
0.00495671
0.00268819
0.00175731
0.00334209
0.00348247
0.00243065
0.00406535
0.00340869
0.00458132
0.00232396
0.00401207
0.00328025
0.00411138
0.0037211
0.00157208
0.00153878
0.00231888
0.00158685
0.00212115
0.00528464
0.00477979
0.00163782
0.00609043
0.0111584
0.00190584
0.00142547
0.00148007
0.00441612
0.0018695
0.00133252
0.00213199
0.00227823
0.00502861
0.0068421
0.00354612
0.00445337
0.0047675
0.00276571
0.00164892
0.00249337
0.00665341
0.00145142
0.00473086
0.0029975
0.00326867
0.00300273
0.00107098
0.0049461
0.00724248
0.00321234
0.00162886
0.0065767
0.00185701
0.00142731
0.00122948
0.00177167
0.00171316
0.00244391
0.00654854
0.00411895
0.00363338
0.00307186
0.00307859
0.00378826
0.00347467
0.00318829
0.00111401
0.00135922
0.00386048
0.00375593
0.00422834
0.00158791
0.00173215
0.00181031
0.00217895
0.00686691
0.00661277
0.00116541
0.00346866
0.00404069
0.00491459
0.00343424
0.00104244
0.00398661
0.00355118
0.00387553
0.00352908
0.00338575
0.00135576
0.00401604
0.00297539
0.00300643
0.00141378
0.00241188
0.00369212
0.0016395
0.00199002
0.0043305
0.00511215
0.0067112
0.00372024
0.00373504
0.00191755
0.00113608
0.00481304
0.00711238
0.00139207
0.00247148
0.00368063
0.00210019
0.00134512
0.00408012
0.00133974
0.00635787
0.00133561
0.00315101
0.0118494
0.00247423
0.00151797
0.00191009
0.00715323
0.003745
0.00376952
0.0039993
0.00135711
0.00247352
0.00352099
0.00177098
0.00431174
0.00175613
0.00317077
0.00182903
0.00661376
0.0037305
0.00141779
0.00421416
0.00123112
0.00297853
0.00136402
0.00185829
0.00665369
0.00322746
0.00118992
0.00229429
0.00135245
0.00448064
0.00173562
0.0076424
0.00284139
0.00951786
0.00320605
0.00427318
0.00134512
0.00130101
0.00419443
0.00439288
0.00386854
0.0074626
0.00278436
0.0044326
0.00500383
0.00303908
0.00299703
0.0023726
0.00410886
0.010169
0.00321512
0.0030877
0.00125188
0.00419085
0.00653119
0.00205208
0.00216574
0.00386387
0.0136562
0.00256478
0.0062029
0.00264944
0.00711475
0.00283059
0.00218102
0.0030434
0.00692154
0.00509679
0.00398211
0.00334731
0.00138965
0.00342517
0.00277921
0.00504784
0.0035371
0.0061529
0.00113577
0.00631201
0.00314383
0.00340652
0.00336713
0.00358678
0.00167679
0.0038706
0.00373576
0.00326448
0.00641018
0.00727548
0.00176727
0.00397624
0.00149299
0.00140163
0.00359779
0.00352539
0.00266756
0.00299153
0.00367546
0.00137849
0.00616183
0.00180718
0.00433273
0.00620657
0.00156577
0.00433849
0.00169785
0.00406806
0.00156341
0.00304851
0.00345587
0.00166796
0.00370155
0.003448
0.00390829
0.0039759
0.00432
0.0034889
0.00355393
0.00238669
0.00543569
0.00266929
0.00309137
0.00308002
0.00356894
0.000975191
0.00699355
0.00287164
0.00167387
0.00244063
0.00126754
0.00603975
0.00423718
0.00174632
0.00118004
0.00391716
0.00165166
0.00678213
0.00666611
0.00385204
0.0033124
0.00443758
0.00262355
0.00155096
0.00200486
0.00361618
0.00625473
0.00412371
0.00341313
0.00501815
0.00285995
0.00137373
0.00170477
0.0015376
0.00112743
0.00121577
0.00414736
0.0017672
0.00322887
0.00318323
0.00379578
0.00352449
0.00483678
0.00258523
0.00520069
0.0101916
0.0029039
0.00574916
0.00149377
0.00465061
0.00353186
0.00277486
0.00203121
0.00338131
0.00486751
0.00960451
0.00734952
0.00387661
0.00106322
0.00325742
0.00401677
0.0012647
0.00448798
0.00293999
0.0056791
0.00746792
0.00658958
0.00186999
0.0018592
0.00760519
0.00689661
0.00455236
0.00811262
0.00502
0.00183856
0.00106442
0.00150757
0.00513381
0.00329289
0.00120195
0.00325052
0.00204858
0.00510815
0.00626874
0.0100876
0.00677898
0.00144345
0.00649781
0.00147785
0.00390233
0.00283863
0.0043714
0.00153475
0.00470159
0.00682336
0.00375382
0.00691949
0.00311304
0.00439441
0.0023745
0.00179013
0.00686923
0.00325315
0.00189004
0.00466124
0.00295448
0.0035684
0.00106437
0.00415101
0.00477677
0.00664626
0.00424535
0.00784792
0.00127172
0.00336124
0.00148267
0.00526134
0.00424178
0.00612884
0.00247618
0.00125332
0.00314409
0.00702495
0.00157742
0.00170433
0.00228247
0.00369685
0.008388
0.00194903
0.0044663
0.004368
0.0080243
0.00105383
0.00505995
0.00427379
0.00408428
0.00117025
0.00494289
0.00105614
0.00302992
0.00657986
0.00378717
0.00909455
0.00113761
0.00336722
0.00366863
0.00316242
0.00131815
0.00421302
0.00457155
0.00369283
0.00852399
0.00106914
0.00138876
0.00193961
0.00172953
0.00283184
0.00149506
0.0011529
0.00556392
0.00273968
0.00533348
0.00215732
0.00303527
0.00151236
0.00125012
0.00684792
0.00192335
0.00357586
0.00368769
0.00368354
0.00888127
0.00280385
0.0016358
0.00955357
0.00167328
0.00758367
0.00372834
0.00348334
0.00162718
0.00726741
0.00311174
0.00950389
0.00236958
0.00111569
0.00208139
0.00177328
0.00415393
0.00471195
0.004369
0.0050626
0.0038378
0.00244705
0.00177681
0.00200441
0.00772238
0.00180633
0.00176863
0.00365137
0.00138939
0.00217526
0.00176772
0.00420216
0.00671859
0.00157221
0.00262399
0.00620099
0.00406084
0.00294042
0.0068009
0.00206033
0.00307642
0.00297371
0.00693083
0.00119695
0.00569217
0.00116663
0.00349717
0.00448269
0.00345144
0.002357
0.00368554
0.0013215
0.0047514
0.00341018
0.00130285
0.00157374
0.00194403
0.00287066
0.00112058
0.00261901
0.00195233
0.00486238
0.00159122
0.0015776
0.00310304
0.00229248
0.00730235
0.00220574
0.00502399
0.00707991
0.00299909
0.00696752
0.00128318
0.00250213
0.00140259
0.00362238
0.00187013
0.00234176
0.00719504
0.00266456
0.00589473
0.0042488
0.00703426
0.00119716
0.001138
0.00645653
0.0024027
0.00686699
0.0034374
0.00245554
0.00157433
0.00200268
0.00214786
0.00152555
0.00394193
0.00758703
0.00493784
0.00139629
0.00133634
0.0070644
0.00182627
0.00453637
0.00333376
0.00326108
0.00199963
0.00250201
0.0042927
0.00177008
0.00441796
0.00322306
0.00124083
0.00501768
0.00259042
0.00391557
0.00189237
0.00146896
0.00121969
0.00114789
0.00178253
0.00126055
0.00163043
0.00114204
0.0028293
0.00296074
0.00357571
0.00885624
0.00122631
0.00140459
0.00154853
0.00506705
0.00381084
0.00137864
0.00157201
0.00140644
0.00429268
0.00181564
0.0040755
0.00364872
0.0173487
0.00146261
0.00354289
0.00677905
0.00142176
0.00222802
0.00539957
0.00227774
0.00382796
0.00141802
0.00366013
0.00441688
0.00340672
0.00301652
0.00923793
0.00477894
0.00110522
0.0035736
0.00663404
0.00391273
0.00312778
0.00146556
0.00421331
0.00230859
0.00336864
0.00325479
0.00201341
0.00181786
0.00417375
0.00243035
0.0025864
0.0013688
0.00189238
0.00223651
0.00415575
0.00374107
0.00522494
0.00357379
0.00156142
0.00206578
0.00527195
0.00319278
0.00143025
0.00364103
0.00390742
0.00321038
0.00296137
0.00310873
0.00402262
0.00316564
0.00312739
0.00326269
0.00424212
0.00871908
0.001422
0.00150212
0.00510112
0.00351214
0.00281342
0.00103937
0.00523123
0.00294591
0.00129691
0.00464947
0.00461666
0.00410627
0.00202386
0.0015528
0.00382465
0.015136
0.00140263
0.00401534
0.00744547
0.00408153
0.0048013
0.0016222
0.00310899
0.00264941
0.00467028
0.00331984
0.00274164
0.00170918
0.0045947
0.00380495
0.00470002
0.00163212
0.00275335
0.00279393
0.00146627
0.00425323
0.00309469
0.00223964
0.0029254
0.0012289
0.00409092
0.00423271
0.0011079
0.0039107
0.00357369
0.00299305
0.00413345
0.00402552
0.00502647
0.0036722
0.00295641
0.00602758
0.00375787
0.00123522
0.00152078
0.00397221
0.00755934
0.00296784
0.00392677
0.00111369
0.00697747
0.00486822
0.00150989
0.00417792
0.00153941
0.00149974
0.00149314
0.00684684
0.00105268
0.00282499
0.00319128
0.00457547
0.00399453
0.00288131
0.00266641
0.00385686
0.0011535
0.00187411
0.00500042
0.00144653
0.00250993
0.00396876
0.00270118
0.0025766
0.00164158
0.00136081
0.00666631
0.00152504
0.00167108
0.0047003
0.00134715
0.0048962
0.00264429
0.00132889
0.00377079
0.00782708
0.00376637
0.0017201
0.00306569
0.00152157
0.00187139
0.00655892
0.00282532
0.00220298
0.00313258
0.00819524
0.00466576
0.00417352
0.00188701
0.00369177
0.00175144
0.00313214
0.00215164
0.00496918
0.00135493
0.00396704
0.00194642
0.00340298
0.00146301
0.00720753
0.00175408
0.00193775
0.00407061
0.00532419
0.00220069
0.00119454
0.00550392
0.00255236
0.00261485
0.00356601
0.00213102
0.00154322
0.00556417
0.00279735
0.00155329
0.00714941
0.00455837
0.00412823
0.00305206
0.00164364
0.00263636
0.00330099
0.00305105
0.00594913
0.00141747
0.00191831
0.00251869
0.00406535
0.00123112
0.00178578
0.00518608
0.00508803
0.00208723
0.00155836
0.00671494
0.00675294
0.00289212
0.00157123
0.00262412
0.00121245
0.00170998
0.00200332
0.00325441
0.0032679
0.00228142
0.00285396
0.00183913
0.00167463
0.00506098
0.0065763
0.0032488
0.00115414
0.00121798
0.00284709
0.00264191
0.00495808
0.00292745
0.003628
0.00503555
0.00722431
0.00342891
0.00344184
0.00568426
0.00713905
0.00353416
0.00145821
0.00728613
0.00200658
0.00352293
0.0025438
0.00358516
0.00165154
0.00250886
0.00655507
0.0045139
0.00382881
0.0031701
0.00113892
0.00246495
0.00325639
0.00332114
0.00433659
0.00196317
0.00782276
0.00171183
0.00135281
0.0014159
0.00344756
0.0071498
0.00414992
0.00335415
0.00110501
0.00357376
0.00122777
0.00165121
0.00474086
0.00371232
0.0173523
0.00119025
0.00191653
0.00115021
0.00307687
0.00178724
0.00112502
0.0016591
0.00157698
0.00200074
0.00281486
0.00155573
0.00336307
0.0069136
0.00281938
0.00528523
0.00140177
0.00149919
0.00182292
0.00653174
0.00199173
0.00291747
0.00691828
0.00679396
0.00159087
0.00344766
0.00147917
0.00158012
0.00181869
0.00132598
0.00597664
0.00472535
0.00489745
0.00416418
0.00119957
0.00181522
0.00134542
0.00125634
0.00149579
0.0076934
0.00134598
0.00656705
0.0028211
0.00132811
0.00631098
0.00404935
0.00138093
0.00138424
0.00153872
0.0027249
0.00516966
0.00194617
0.0047078
0.00440089
0.00458377
0.00168312
0.00230514
0.00520051
0.00342249
0.00479418
0.00310889
0.00303196
0.00335306
0.0037858
0.00268359
0.0029386
0.00247282
0.00277972
0.00547666
0.00471175
0.00318887
0.00122193
0.00316939
0.00441861
0.00140522
0.00156377
0.00136953
0.00672136
0.0124462
0.00352299
0.00253941
0.00322528
0.00161169
0.00640023
0.00466481
0.00175198
0.00146398
0.00317032
0.00432216
0.00261235
0.00295002
0.00343808
0.00392659
0.00266511
0.00198101
0.00166733
0.00145544
0.00124868
0.00168391
0.00268285
0.00413998
0.00156486
0.00516263
0.00315107
0.00279473
0.00356662
0.00148453
0.00136096
0.00282389
0.00204947
0.00123673
0.00327205
0.00291852
0.0023885
0.00399897
0.00621253
0.00355917
0.00402802
0.00685752
0.00164621
0.00162345
0.00362059
0.00171405
0.00728046
0.00130523
0.00195769
0.00179164
0.00315781
0.00114972
0.00731516
0.00128898
0.00672464
0.00128114
0.00725883
0.00227796
0.00144766
0.00339394
0.00705248
0.00357249
0.00139757
0.00157552
0.00322302
0.00346413
0.00141624
0.00400175
0.0051227
0.00382157
0.0015452
0.0030365
0.00301417
0.00581505
0.00233983
0.00359735
0.00134766
0.00150432
0.00123279
0.00142612
0.00126827
0.00637041
0.00502642
0.0061159
0.00173687
0.00457239
0.00473893
0.00681981
0.00318557
0.00701269
0.00263239
0.00704426
0.00317606
0.00461823
0.00183284
0.0030504
0.00411313
0.00473631
0.00338699
0.0040783
0.00286195
0.0013252
0.00926527
0.00290385
0.00687991
0.00143726
0.00231139
0.00398596
0.00168342
0.00230148
0.0033561
0.00178343
0.00381876
0.0052203
0.00155179
0.00426751
0.00518964
0.00169883
0.00205225
0.00485547
0.00653828
0.00132755
0.00432171
0.00310453
0.00706145
0.00310404
0.00499378
0.006725
0.00484513
0.00749854
0.00128057
0.00162236
0.00398539
0.00684204
0.00313439
0.00117806
0.00167678
0.00126435
0.00254165
0.00489105
0.00253738
0.00912767
0.00176752
0.004532
0.00130686
0.00702125
0.00169386
0.00152228
0.00693321
0.00492984
0.00135984
0.00140324
0.00626995
0.00224362
0.00182063
0.00406186
0.0027649
0.00451257
0.000980115
0.00180225
0.00350012
0.00154895
0.00159751
0.00336187
0.0014569
0.00212264
0.00139515
0.00408171
0.00120452
0.00136075
0.00134076
0.00177263
0.00425963
0.00159468
0.00658701
0.0013266
0.00706442
0.0128521
0.00350922
0.00157778
0.00166626
0.00512534
0.00239536
0.00143302
0.00189757
0.00110492
0.00747555
0.0072656
0.0089643
0.00335573
0.00620318
0.00209993
0.0046776
0.00150059
0.00514531
0.00639154
0.00432262
0.003094
0.00303835
0.00137316
0.00342545
0.00493196
0.00478764
0.00120287
0.00209556
0.00737696
0.00144077
0.00310847
0.00188189
0.00360162
0.00217473
0.00373783
0.00128201
0.00142998
0.00188179
0.00387387
0.00440418
0.00373901
0.00501181
0.00118378
0.00339708
0.00307265
0.00320584
0.00117336
0.00164784
0.0021848
0.00310731
0.00123223
0.00630297
0.00352428
0.00197424
0.00467225
0.0016402
0.00156449
0.00125747
0.00154619
0.00210357
0.00144487
0.00173068
0.00296252
0.00125002
0.00282528
0.00678889
0.00625748
0.00156564
0.0011465
0.00204815
0.00176913
0.00129146
0.00666403
0.00173166
0.00126169
0.00212677
0.00152516
0.00494588
0.00315963
0.00401919
0.00125319
0.00289349
0.00140347
0.00681157
0.000958708
0.00476986
0.00173617
0.00384912
0.00335374
0.0017957
0.00250444
0.00475932
0.00653147
0.0012862
0.00882633
0.00254997
0.00308821
0.00173792
0.00204389
0.00159828
0.00133719
0.00634767
0.00137439
0.00106024
0.00418036
0.00697315
0.00259645
0.00131093
0.00168156
0.00158221
0.00482919
0.00304305
0.00623438
0.00237306
0.00133472
0.00185284
0.000978721
0.00458938
0.00688136
0.0039843
0.00347683
0.00463944
0.00123453
0.00477814
0.00120339
0.0033584
0.00691797
0.00124046
0.00205796
0.00174213
0.00354197
0.00109746
0.00149451
0.00519553
0.00407218
0.0064095
0.00261142
0.00362307
0.00403991
0.00160103
0.00759108
0.00440516
0.00490428
0.00466105
0.00218951
0.00168139
0.00234538
0.00748618
0.00100966
0.00199208
0.00157919
0.00365661
0.00119435
0.00349428
0.00176395
0.00309805
0.00485348
0.0030369
0.00212051
0.00446993
0.0027498
0.00167817
0.00158336
0.00218555
0.00269137
0.00361968
0.00483742
0.00428459
0.0033432
0.00669932
0.00136493
0.00456308
0.00230093
0.00684095
0.00450035
0.00327975
0.00218734
0.0015522
0.00454962
0.00642481
0.00191211
0.00196007
0.00333792
0.0013683
0.00656341
0.00170417
0.00484533
0.00119957
0.00244443
0.0030463
0.00246131
0.0033803
0.00241708
0.0028386
0.00338286
0.0022712
0.00329155
0.00146985
0.00577873
0.00731485
0.00152194
0.00776168
0.000926982
0.00118005
0.00166942
0.00421067
0.00116186
0.00492425
0.00420187
0.00328734
0.00155535
0.00410808
0.00105744
0.00402023
0.00195292
0.00127419
0.0045677
0.0014511
0.00105543
0.00161297
0.0017363
0.00713973
0.00668205
0.00293487
0.00135719
0.0032778
0.00147016
0.00805829
0.00456753
0.00275861
0.0039433
0.00280827
0.00498803
0.00169179
0.00235611
0.00503126
0.00583676
0.00432316
0.00180409
0.00689066
0.00169913
0.00425895
0.00714435
0.00190729
0.00352142
0.00410756
0.00198752
0.00329065
0.00184844
0.00342024
0.0011982
0.00120305
0.0033542
0.00188559
0.0069408
0.00485714
0.00113699
0.00289509
0.00136283
0.00691734
0.00676764
0.00167153
0.00600606
0.00202449
0.00280246
0.00384286
0.00458633
0.00291068
0.00339353
0.00137142
0.00220282
0.0014554
0.0030717
0.00668457
0.00330291
0.00706984
0.00397125
0.00478675
0.00443826
0.00274894
0.00443113
0.00195466
0.00124947
0.00139348
0.00145061
0.00293781
0.0027336
0.00329296
0.00350863
0.00299544
0.0027402
0.00490016
0.00154242
0.00708357
0.00169534
0.00457186
0.0023185
0.00152239
0.00945756
0.00625442
0.00143943
0.00337176
0.00700289
0.00183661
0.00658763
0.00322634
0.00321126
0.00266318
0.00421667
0.00457584
0.00129651
0.00319218
0.00406797
0.00261453
0.00264979
0.00336968
0.00452297
0.00139601
0.00111938
0.00436675
0.00278944
0.00291036
0.00260777
0.00433708
0.00687462
0.00445527
0.00122352
0.00418948
0.00162944
0.00426474
0.00343953
0.00296311
0.00105174
0.0015512
0.00161616
0.00309597
0.00297958
0.00691491
0.0022682
0.00115261
0.0031299
0.00126833
0.00674678
0.00229274
0.00329841
0.00727643
0.00129783
0.00140347
0.00254881
0.00999136
0.00766211
0.00549939
0.00313742
0.00286673
0.00714635
0.00662397
0.00772509
0.00164647
0.00288833
0.00198889
0.00266998
0.00159517
0.00690427
0.00221945
0.00121774
0.00698177
0.00707567
0.00669445
0.00193523
0.00626403
0.00237968
0.00472833
0.00428972
0.00189004
0.00424779
0.00147582
0.00229731
0.00398511
0.00160716
0.00234045
0.00340717
0.00341909
0.00124296
0.00205095
0.00263794
0.00689435
0.00180346
0.00126597
0.000954555
0.00118792
0.00338896
0.00299611
0.00477914
0.00732471
0.00125059
0.00428914
0.00379837
0.00251627
0.00399727
0.00109739
0.00343141
0.00112452
0.00298199
0.00425058
0.00414559
0.00329562
0.00198009
0.00245503
0.00255583
0.00196253
0.00262544
0.00161487
0.00135808
0.00119872
0.00194116
0.00141335
0.00377632
0.00151117
0.00141339
0.00689239
0.00453691
0.00776244
0.00124688
0.00132977
0.00151591
0.00320224
0.00178502
0.00403782
0.00293975
0.00667734
0.00104648
0.00333954
0.00304923
0.00666949
0.00396274
0.0037272
0.00668317
0.00433176
0.00328
0.0037987
0.00632722
0.00483339
0.00304861
0.00428191
0.0036365
0.00172934
0.00138733
0.00226072
0.00127718
0.00145543
0.00471982
0.00392377
0.00162144
0.00137328
0.00130473
0.00144214
0.00280105
0.00229585
0.00135975
0.00330618
0.00452343
0.0023763
0.00293025
0.00717714
0.00336227
0.00672874
0.00181128
0.00203066
0.00277011
0.00266882
0.00320522
0.00721955
0.00332691
0.0043631
0.00345982
0.00161707
0.00255244
0.00539709
0.00186427
0.00247888
0.00320669
0.00125391
0.00667683
0.00270812
0.00111098
0.0029301
0.00356618
0.00300201
0.00303279
0.00188323
0.00169283
0.00132974
0.00302468
0.00342485
0.00183471
0.00179939
0.00638062
0.00664073
0.00181165
0.00113577
0.00320335
0.00320442
0.00666952
0.00139298
0.00133058
0.00167397
0.00160599
0.00248729
0.00138898
0.0015782
0.00372753
0.00111531
0.00122563
0.00420902
0.00121698
0.00154419
0.00677958
0.00104072
0.00188615
0.00156805
0.00201744
0.00324752
0.00538244
0.00270599
0.00184443
0.00299933
0.00180192
0.00283591
0.001024
0.00172356
0.00105511
0.00680653
0.00102424
0.00447535
0.0049131
0.00153747
0.00642191
0.00352389
0.0024262
0.00313692
0.00317403
0.00149583
0.00677349
0.00134388
0.00458212
0.00144171
0.00202199
0.00210565
0.00317206
0.00197724
0.00227699
0.00401134
0.00249788
0.00237964
0.00225955
0.00474285
0.00190057
0.00406646
0.00363657
0.00317328
0.00158219
0.00261662
0.00295086
0.00660929
0.00167286
0.00707014
0.00367294
0.00651506
0.00445775
0.00155823
0.00127653
0.00165688
0.00129632
0.00583298
0.00287469
0.00649791
0.00602502
0.00191428
0.00350965
0.00156875
0.00123499
0.00218375
0.0068849
0.00309466
0.00487587
0.00331552
0.00284667
0.00284095
0.00186034
0.00164571
0.00306217
0.00359423
0.00622304
0.00178192
0.00264863
0.00368312
0.00202134
0.00342608
0.00312015
0.00111434
0.00381185
0.00184468
0.00356449
0.00146311
0.00174205
0.00346635
0.00184895
0.00254352
0.00185991
0.00237516
0.00213467
0.00375363
0.00192559
0.00491127
0.00275601
0.00383743
0.00288071
0.00110846
0.00406493
0.0105625
0.00248616
0.00330251
0.00156749
0.00132578
0.00440585
0.00105182
0.00274671
0.00230841
0.00159154
0.00313755
0.00322686
0.00123369
0.004562
0.00470993
0.0072262
0.00135742
0.00276965
0.00372007
0.00153472
0.00160306
0.00164501
0.0036672
0.00133973
0.00339743
0.00362844
0.00415158
0.00439328
0.0053376
0.00749438
0.00712482
0.00270228
0.00254032
0.00371876
0.00372115
0.00170834
0.00215133
0.00312503
0.0069585
0.00471912
0.00303649
0.00318433
0.004071
0.00312956
0.00366623
0.000960071
0.00437216
0.00256979
0.00167602
0.00149209
0.00215513
0.00151385
0.0027061
0.00138431
0.00395702
0.00142891
0.00157555
0.00344673
0.00283156
0.0046817
0.00326108
0.00400757
0.00324296
0.00504722
0.00154627
0.00551842
0.00331944
0.00161086
0.0042019
0.00397391
0.00420426
0.00263885
0.00131447
0.00318629
0.00212442
0.00284316
0.00199624
0.00177354
0.00205018
0.00279787
0.00199807
0.0032012
0.00377919
0.0014527
0.00320976
0.00166947
0.00154802
0.00163025
0.00672248
0.00174975
0.0067143
0.00169263
0.00190032
0.00171931
0.0030595
0.00204843
0.0048892
0.00485611
0.00292301
0.00160048
0.00360124
0.00136215
0.00457207
0.00283842
0.00128522
0.00218462
0.00125407
0.00286968
0.00129446
0.00258858
0.00454182
0.00357859
0.00517197
0.0049209
0.00295849
0.00120215
0.00140912
0.00445678
0.00510969
0.0045547
0.00216721
0.00152007
0.00159567
0.00165812
0.00463562
0.00385332
0.00477826
0.00293693
0.00353885
0.00337435
0.00221536
0.00284703
0.00634231
0.0015393
0.00429673
0.00780678
0.00696824
0.00207503
0.00105522
0.00340458
0.00296735
0.00418721
0.00537328
0.00122171
0.00271241
0.00247919
0.002317
0.00725086
0.001367
0.00271326
0.00261321
0.0018093
0.00119247
0.00327652
0.00220439
0.00306596
0.00157486
0.00682523
0.00162863
0.00329329
0.001993
0.00536651
0.00180432
0.00150734
0.00222113
0.00122411
0.00658282
0.00130965
0.0013093
0.00322857
0.00157873
0.00223603
0.00180401
0.00244515
0.00137316
0.00369433
0.0032898
0.00325367
0.00174558
0.00300913
0.00148877
0.00189082
0.00249443
0.00232098
0.00178354
0.00492205
0.00177213
0.0042217
0.00555833
0.00124785
0.00560558
0.00136666
0.0027688
0.0044675
0.00191444
0.00437005
0.00650666
0.00670382
0.00517896
0.00466195
0.00288673
0.00137062
0.00347368
0.00119248
0.00325831
0.00270325
0.00399479
0.00248723
0.00693767
0.00132996
0.00123168
0.000984331
0.00230192
0.00638457
0.00481942
0.00138955
0.00662116
0.00354184
0.00468512
0.00124902
0.00258753
0.00413389
0.00433934
0.00246789
0.00469312
0.0065105
0.00487444
0.00181315
0.00293565
0.00666136
0.00126832
0.00159036
0.00643115
0.00154521
0.00570404
0.00112427
0.00165499
0.00379838
0.00270986
0.00970378
0.00120136
0.00508284
0.00363521
0.00215286
0.00141173
0.00263286
0.00166512
0.00122417
0.00565008
0.00180455
0.00136657
0.00431079
0.00377251
0.0031507
0.00693147
0.00250702
0.00229867
0.00337913
0.00264819
0.00165354
0.00735523
0.00657729
0.00452662
0.00335409
0.00525483
0.00109045
0.00711237
0.00452341
0.00203104
0.00316002
0.00475626
0.00496595
0.00152492
0.00236233
0.00383838
0.00317756
0.00154624
0.00235641
0.00121883
0.00133502
0.00229777
0.00349054
0.00360229
0.00716613
0.00211707
0.00173658
0.00291932
0.0057292
0.00342436
0.00303674
0.00134684
0.00214487
0.00750794
0.00115278
0.00130588
0.00719003
0.00200076
0.00252868
0.00196851
0.0040506
0.00317704
0.004163
0.00366869
0.00293037
0.00666154
0.00318791
0.00254247
0.00284528
0.00147262
0.00262698
0.00274671
0.00319492
0.00335888
0.00649641
0.00305684
0.00189227
0.00153127
0.00251647
0.00332387
0.0014196
0.00345659
0.00283949
0.00180865
0.00475905
0.00110419
0.00227188
0.00153104
0.00473704
0.0060173
0.00318841
0.00252259
0.00412181
0.00534013
0.0015806
0.00200781
0.0018845
0.00704158
0.00159798
0.00268599
0.002943
0.00217335
0.00163807
0.00115178
0.00416223
0.00148152
0.00272374
0.00169285
0.00658357
0.00725983
0.0013693
0.00139543
0.00199724
0.00224092
0.00315613
0.00244765
0.00356021
0.00264771
0.00212352
0.00318324
0.00136162
0.00246112
0.00275325
0.00145095
0.00262388
0.00140004
0.00611912
0.00109496
0.00160408
0.00136224
0.00123843
0.00141985
0.00148351
0.00466848
0.00161396
0.00258966
0.00189537
0.00109571
0.00471133
0.00280108
0.00116865
0.00741534
0.00189881
0.0050366
0.00123136
0.00180555
0.00137027
0.00131288
0.000936416
0.00458075
0.00686573
0.0100379
0.00402499
0.0045659
0.00215351
0.00275727
0.00444676
0.00433785
0.00118525
0.00351415
0.00132695
0.00114862
0.00205959
0.00398785
0.00253513
0.00720959
0.00292294
0.00475721
0.00728943
0.00197686
0.00272533
0.00253777
0.00229743
0.00338599
0.00153995
0.00172416
0.00178086
0.00219786
0.00162181
0.00378232
0.00572304
0.00136456
0.00226152
0.00148969
0.00395058
0.00155334
0.00145409
0.00199336
0.0022061
0.00231668
0.0017084
0.00137975
0.00196003
0.00113692
0.00158652
0.00134386
0.00145878
0.00500761
0.00164044
0.00146637
0.00197469
0.00327505
0.00143372
0.00323671
0.00472255
0.00109849
0.00281557
0.0038978
0.00204355
0.00159173
0.00378267
0.00300304
0.0015231
0.00663203
0.00147205
0.00215756
0.00285489
0.00288241
0.00278157
0.00185571
0.00118509
0.00197846
0.00124231
0.00156194
0.00195568
0.00734149
0.00139034
0.00199289
0.00259345
0.00142569
0.00180653
0.00204175
0.0124099
0.0038042
0.00444749
0.00141839
0.00287761
0.0023679
0.00168996
0.00149043
0.00184067
0.00416973
0.00641981
0.00258072
0.0022791
0.00897484
0.00448933
0.00155792
0.00174375
0.00358121
0.00108273
0.0012684
0.0011724
0.00157491
0.00699624
0.00166455
0.00207359
0.00470416
0.00233267
0.00299287
0.00144924
0.00651745
0.00493116
0.00149478
0.00320781
0.00130256
0.00358817
0.00143432
0.00493531
0.00550231
0.00118586
0.00635406
0.00352073
0.00137288
0.00644315
0.00187073
0.00387272
0.00291062
0.00351567
0.00330756
0.00518793
0.00512641
0.00145509
0.0024116
0.00142285
0.00343929
0.00184152
0.00153937
0.00126156
0.00293267
0.00142548
0.00411956
0.0013604
0.00310607
0.00195853
0.00120207
0.00267829
0.00823783
0.00125041
0.00126703
0.00214106
0.00542826
0.000982448
0.00763891
0.00165811
0.00170431
0.00317099
0.00271682
0.00110054
0.00195422
0.0084006
0.00401685
0.00242786
0.00166052
0.00390716
0.0028869
0.00208272
0.00145684
0.00305351
0.00649583
0.00276685
0.00267544
0.00241861
0.00285013
0.00132225
0.0013088
0.00696877
0.00213264
0.00725027
0.0045184
0.00122573
0.00200344
0.00141271
0.0056622
0.00278827
0.00223551
0.00146622
0.00297193
0.00167917
0.00497219
0.00192018
0.00162346
0.00120083
0.00144533
0.00412427
0.00174136
0.00649685
0.00150515
0.00414324
0.00156789
0.0068327
0.00378637
0.00175568
0.00316838
0.00139965
0.00275668
0.00196224
0.00145835
0.00341874
0.00423307
0.00343124
0.0072257
0.00219607
0.00550989
0.00250244
0.00130095
0.00188818
0.00456645
0.00180471
0.00299477
0.00265373
0.00311756
0.00162764
0.00716005
0.00687375
0.00585881
0.00679024
0.00227965
0.00483418
0.00311967
0.00148896
0.0012592
0.00294738
0.00547783
0.00339144
0.00336861
0.00147539
0.00499259
0.00229802
0.00129614
0.00148544
0.00288987
0.0045368
0.00525034
0.00212176
0.00335847
0.00221172
0.00127591
0.00120756
0.0043022
0.00425482
0.000929764
0.00147877
0.00340764
0.00366162
0.00263598
0.00158244
0.00120216
0.00137818
0.00173868