/*--------------------------------*- C++ -*----------------------------------*\
| =========                 |                                                 |
| \\      /  F ield         | OpenFOAM: The Open Source CFD Toolbox           |
|  \\    /   O peration     | Version:  2406                                  |
|   \\  /    A nd           | Website:  www.openfoam.com                      |
|    \\/     M anipulation  |                                                 |
\*---------------------------------------------------------------------------*/
FoamFile
{
    version     2.0;
    format      ascii;
    arch        "LSB;label=32;scalar=64";
    class       volVectorField;
    location    "34";
    object      momentum:momentum;
}
// * * * * * * * * * * * * * * * * * * * * * * * * * * * * * * * * * * * * * //

dimensions      [1 1 -1 0 0 0 0];

internalField   nonuniform List<vector> 
59516
(
(2.32994e-07 6.98468e-10 -1.17395e-09)
(1.74699e-07 -1.43076e-10 -6.85648e-10)
(2.11588e-07 -2.31086e-09 -4.19501e-10)
(1.76172e-07 2.54889e-09 2.46181e-09)
(2.00369e-07 4.19596e-10 -7.91171e-09)
(5.03655e-08 -2.41145e-09 -5.37945e-09)
(2.15071e-07 -9.3564e-11 -2.59071e-09)
(2.05757e-07 1.74028e-09 -4.61781e-11)
(1.62761e-07 1.29086e-09 8.42401e-11)
(8.62495e-08 -1.43556e-09 3.42268e-09)
(2.05084e-07 1.96134e-10 -2.17013e-09)
(1.05705e-07 9.26208e-10 -5.72526e-09)
(3.34349e-07 2.82934e-09 -2.25012e-10)
(1.69633e-08 -6.73187e-11 -1.86102e-10)
(1.63529e-07 4.09033e-09 8.22319e-09)
(9.07035e-08 6.03118e-09 -3.06052e-09)
(2.58054e-07 5.87015e-10 -3.77076e-10)
(1.60681e-07 8.90813e-09 -9.38703e-09)
(3.32763e-07 1.43941e-08 2.84433e-09)
(3.5917e-07 -7.8542e-10 1.30796e-09)
(1.02059e-07 1.2209e-09 -1.80192e-09)
(3.17982e-07 -4.93698e-10 8.53172e-10)
(3.49106e-07 1.39725e-09 -8.15144e-10)
(3.77562e-08 -1.14772e-09 -2.64294e-10)
(3.06796e-07 -1.14934e-09 2.34544e-09)
(2.14995e-07 4.15699e-09 2.36809e-09)
(5.66043e-08 1.15031e-09 -3.61517e-09)
(7.51863e-08 6.14207e-09 5.65182e-10)
(1.48247e-07 4.96863e-09 -2.78809e-10)
(1.48311e-08 -2.31093e-09 6.18768e-10)
(1.89416e-07 -3.66967e-08 -8.06907e-09)
(8.48514e-08 6.45456e-09 -1.0001e-09)
(1.7707e-07 8.94794e-11 1.08623e-09)
(1.80596e-07 -1.06497e-09 3.74557e-09)
(1.3281e-07 3.46141e-09 2.82733e-09)
(3.99701e-07 -6.28816e-10 -2.91545e-10)
(1.43829e-08 -1.38956e-09 -1.94333e-09)
(1.32405e-07 5.00585e-09 -1.24385e-08)
(2.72563e-07 -8.68003e-09 -5.21298e-10)
(2.73848e-07 -2.91131e-09 1.24941e-10)
(2.69049e-07 -1.99856e-09 2.19153e-10)
(4.05637e-07 -2.10715e-08 -1.94388e-08)
(3.41913e-07 -4.7216e-09 -3.4819e-09)
(1.1621e-07 -8.12338e-10 4.16804e-10)
(2.66635e-07 -4.76056e-09 4.42732e-10)
(1.09574e-07 -1.48878e-09 -2.55556e-09)
(3.27006e-07 -4.48428e-09 -7.03524e-09)
(2.48089e-07 -3.74388e-09 -4.55204e-10)
(2.51805e-07 -2.0278e-08 2.7994e-08)
(2.37529e-07 8.07517e-09 6.92981e-09)
(1.63895e-07 1.64739e-08 -2.28721e-08)
(8.27654e-08 -6.4705e-09 4.3499e-09)
(3.26235e-07 2.56615e-09 -5.64481e-09)
(3.08715e-07 -9.78677e-10 -2.70769e-10)
(8.50759e-08 4.77064e-09 5.51147e-11)
(2.47945e-07 2.45525e-09 -8.13875e-10)
(2.01655e-07 1.05702e-08 1.12428e-08)
(8.52777e-08 6.82825e-09 -4.75155e-09)
(1.95724e-07 -3.64572e-10 -2.64345e-11)
(1.45258e-07 5.91221e-09 7.53043e-09)
(2.0698e-07 -2.40221e-10 6.92255e-10)
(1.67452e-08 1.99496e-09 -7.1557e-10)
(2.51301e-07 2.68361e-10 -7.05397e-10)
(3.2722e-07 2.21427e-09 3.98891e-10)
(3.04139e-07 1.02949e-09 -1.22874e-09)
(2.12479e-07 3.64474e-09 4.65119e-09)
(2.0051e-08 -1.34962e-09 1.80747e-09)
(7.14764e-08 2.92807e-10 -2.88647e-10)
(1.98105e-07 -8.19619e-09 3.61773e-08)
(1.70344e-07 1.56337e-09 -1.13038e-09)
(5.68394e-08 1.60228e-09 4.77417e-10)
(1.51733e-07 6.80205e-10 -1.94514e-11)
(2.5499e-08 1.5993e-09 -3.84884e-09)
(1.85713e-07 -3.27576e-10 -7.24766e-13)
(3.47706e-07 -9.63186e-10 3.90198e-10)
(3.55135e-07 -1.10233e-09 -1.59968e-09)
(2.09208e-07 -8.19042e-10 -1.72257e-09)
(2.23921e-07 1.29955e-10 -7.13761e-10)
(9.19463e-08 -3.11975e-09 2.7415e-09)
(1.89825e-07 3.30461e-09 7.27432e-09)
(5.55443e-08 3.22427e-09 1.41071e-09)
(1.692e-07 3.64958e-09 4.9224e-09)
(1.81811e-07 2.06639e-09 5.29579e-09)
(2.00236e-08 -7.80093e-10 2.74208e-09)
(2.12648e-07 3.8633e-09 6.56738e-09)
(3.55807e-07 -7.46933e-10 9.2193e-10)
(3.43489e-08 -1.20837e-09 5.62549e-10)
(5.01276e-07 1.11579e-09 2.59411e-09)
(1.18185e-07 1.48683e-09 5.06545e-09)
(1.67353e-07 1.27138e-08 -8.53562e-09)
(1.83218e-07 -1.07245e-09 -1.52774e-08)
(1.872e-07 2.27996e-09 -1.6273e-10)
(2.43967e-07 -1.28425e-10 -1.45172e-11)
(1.81599e-07 1.38913e-09 -3.37365e-10)
(1.73994e-07 1.67315e-10 8.94038e-11)
(1.83492e-07 -1.76132e-08 6.7096e-09)
(1.24405e-07 -6.28204e-10 8.96944e-10)
(9.09321e-08 -2.84738e-09 -6.88547e-09)
(1.17332e-07 3.94667e-09 -1.34524e-09)
(2.05776e-07 -1.098e-09 2.01775e-09)
(6.71763e-08 1.2201e-09 2.4196e-09)
(2.90594e-08 1.37774e-09 -3.31712e-09)
(2.56037e-08 9.18465e-10 3.54305e-09)
(9.1577e-08 -1.3763e-09 -4.66095e-09)
(2.36751e-07 1.10159e-09 -3.51915e-10)
(1.59887e-07 1.51413e-10 5.68004e-10)
(6.05166e-08 5.11732e-09 -2.13624e-09)
(1.43982e-07 4.25483e-10 -8.51789e-10)
(1.83484e-07 -1.23624e-09 -1.04589e-10)
(2.01873e-07 1.24127e-09 -8.14074e-09)
(2.80152e-07 2.84785e-08 -2.98477e-08)
(4.73599e-08 4.70428e-09 -5.42732e-10)
(1.99968e-07 2.35691e-09 -1.16637e-08)
(2.19242e-07 3.18688e-08 -1.59936e-08)
(2.14919e-07 -1.31035e-10 1.17462e-11)
(1.44415e-07 1.48655e-09 1.28346e-09)
(1.35549e-07 1.27015e-09 -5.25434e-09)
(1.45505e-07 2.14179e-10 9.37844e-10)
(2.00234e-08 -2.32013e-10 9.70203e-10)
(2.6026e-07 2.83674e-09 6.77463e-10)
(3.75126e-07 -9.02461e-10 5.28431e-10)
(1.67225e-07 3.0087e-10 2.55497e-10)
(1.56942e-07 -3.98448e-10 4.71901e-10)
(1.73508e-07 -2.93926e-10 4.71232e-10)
(1.32864e-07 -1.72701e-08 2.81745e-09)
(1.45922e-07 1.7214e-09 -3.8101e-09)
(3.90331e-08 -6.34667e-10 2.57741e-09)
(2.1185e-07 -1.93543e-08 -1.23119e-09)
(1.63231e-07 -4.99719e-09 2.38125e-08)
(1.4773e-07 5.15602e-10 2.06578e-10)
(2.59702e-07 7.48684e-10 1.33867e-09)
(3.36407e-07 4.42718e-09 5.57363e-09)
(2.47643e-08 1.3838e-09 -1.71103e-09)
(2.54902e-07 -1.64088e-10 1.17084e-09)
(3.2939e-07 3.13013e-09 1.03296e-09)
(2.04921e-07 -1.62031e-09 -2.95797e-09)
(1.51995e-07 1.7785e-08 -1.24864e-08)
(3.2094e-07 -8.60686e-10 1.31433e-09)
(5.66301e-08 3.74003e-09 1.43578e-10)
(1.66003e-07 8.28491e-10 -2.13867e-09)
(8.27877e-08 -1.64292e-09 -4.07003e-09)
(3.03233e-07 -3.54058e-10 1.67726e-10)
(1.51062e-08 6.93009e-10 1.34074e-09)
(1.54286e-07 -1.57303e-09 -5.03833e-10)
(2.01471e-07 4.90534e-10 9.53888e-11)
(2.82648e-07 2.86289e-09 -1.86823e-10)
(2.03888e-07 -4.73253e-09 -1.09745e-09)
(2.10818e-07 1.22712e-09 -3.60919e-09)
(6.4049e-08 -1.04212e-09 1.79411e-09)
(2.1463e-07 -1.47101e-09 -1.67925e-09)
(3.32833e-07 -1.96342e-10 -2.56214e-09)
(5.74976e-08 -2.11798e-09 5.06508e-11)
(3.71904e-07 -1.73634e-09 2.52804e-09)
(2.15421e-07 -6.48569e-10 1.15713e-09)
(1.67088e-07 -9.01896e-10 3.39603e-09)
(1.61208e-08 -3.60024e-10 1.74627e-09)
(2.88483e-07 4.41521e-10 -4.21577e-10)
(3.41782e-07 3.1903e-09 -7.26234e-10)
(1.35569e-07 1.87787e-09 1.2308e-10)
(1.73819e-08 2.06894e-09 -2.2964e-09)
(9.44099e-08 2.1141e-09 -4.71539e-09)
(1.18482e-07 -6.13166e-09 -4.02262e-09)
(4.33149e-08 -1.8965e-09 4.43032e-10)
(2.46992e-08 -2.0578e-10 -4.88275e-10)
(1.70957e-07 2.79098e-09 3.83529e-09)
(3.11533e-07 6.8802e-10 2.03142e-09)
(1.65483e-07 -1.5756e-09 9.10235e-10)
(2.61862e-07 8.42346e-10 -1.89695e-10)
(1.87278e-08 -1.11736e-09 2.17578e-09)
(2.13228e-07 -6.58709e-10 3.91475e-10)
(9.15287e-08 1.40327e-09 1.2323e-09)
(7.1927e-08 1.00964e-09 -1.05053e-09)
(1.13334e-07 2.81795e-09 1.61578e-09)
(1.52552e-07 -8.3376e-10 8.00333e-10)
(9.15575e-08 -1.55291e-09 5.56587e-10)
(4.55127e-07 -2.53373e-09 -1.21933e-08)
(2.35802e-07 -3.76661e-11 -1.52034e-09)
(3.08964e-07 -7.51633e-09 -4.29521e-09)
(1.58243e-07 -2.14387e-09 7.63252e-09)
(6.75306e-08 -2.98327e-10 -7.69593e-10)
(3.06017e-07 3.6343e-09 1.92787e-09)
(4.63545e-08 -3.90526e-09 -1.74614e-09)
(3.25625e-08 -3.79618e-10 -2.55772e-09)
(1.11831e-07 -2.99923e-09 2.45751e-10)
(1.90828e-07 -2.00004e-10 8.14259e-10)
(1.03346e-07 5.42579e-10 1.19005e-09)
(4.976e-08 -9.32558e-10 -3.76748e-09)
(2.21563e-08 3.99181e-11 2.82128e-10)
(1.95901e-07 1.83366e-10 1.89446e-10)
(2.36074e-07 -3.84201e-09 -2.48104e-10)
(1.58724e-07 -8.97182e-10 3.20934e-09)
(1.23567e-07 7.31051e-09 2.39856e-10)
(2.07745e-07 -6.49624e-10 -2.25279e-10)
(1.01105e-07 4.16689e-09 -4.14305e-11)
(3.35614e-07 -7.63372e-10 -4.56295e-10)
(3.08545e-08 -2.65403e-10 8.32282e-10)
(1.04218e-07 1.30805e-09 -4.71614e-10)
(6.14897e-08 -1.53502e-09 4.52197e-10)
(1.93034e-07 4.70502e-09 6.22295e-09)
(2.60584e-07 8.28521e-10 -1.19854e-10)
(8.15038e-08 -2.63255e-09 3.74694e-10)
(1.77485e-07 -4.76679e-10 1.34137e-10)
(3.26687e-07 -1.9682e-09 2.78325e-09)
(1.74058e-08 1.89264e-09 -1.20836e-09)
(2.26518e-07 -2.71484e-09 -8.86301e-10)
(2.38105e-07 -4.42462e-11 1.52653e-10)
(3.24121e-07 -1.27758e-10 1.44308e-13)
(1.92925e-07 -8.4792e-10 4.98247e-11)
(1.96157e-08 -5.61583e-10 1.77013e-10)
(3.12592e-07 -4.99988e-09 -4.17204e-11)
(6.49292e-08 4.46595e-09 3.79612e-09)
(2.57366e-08 -4.17142e-09 -6.63031e-10)
(2.32992e-07 6.39291e-10 -2.17403e-09)
(1.01993e-07 -1.93008e-09 1.48816e-09)
(3.03721e-07 2.90403e-09 2.08808e-10)
(2.76058e-07 -8.8681e-10 4.26125e-10)
(2.72707e-07 1.77892e-09 3.00684e-10)
(2.04866e-07 -1.39396e-09 6.60267e-10)
(8.90821e-08 3.60132e-09 -4.42622e-09)
(2.15763e-07 -7.03212e-10 8.40567e-10)
(1.27944e-07 5.13594e-09 3.91677e-09)
(2.0091e-07 1.12039e-09 -1.52076e-10)
(1.72446e-07 8.58694e-10 1.20817e-09)
(8.13124e-08 -3.19872e-10 1.57407e-09)
(2.81875e-07 -1.91772e-09 7.71367e-10)
(2.94678e-07 2.15707e-11 -1.46469e-09)
(3.42029e-08 -3.5705e-10 1.78058e-09)
(7.03096e-08 2.24983e-09 -3.24776e-09)
(1.89726e-07 5.41428e-11 1.17053e-09)
(1.26061e-07 3.49732e-10 -8.95142e-09)
(2.31288e-07 -1.10279e-09 5.46878e-10)
(1.70727e-07 5.36412e-10 -5.27021e-10)
(2.94543e-07 8.50745e-10 2.03134e-09)
(2.90761e-08 -2.27285e-09 -1.59763e-09)
(3.37245e-08 8.97896e-10 -1.59018e-09)
(4.23689e-08 1.07035e-09 -1.4754e-09)
(1.16272e-07 6.30065e-10 9.40359e-10)
(1.82813e-07 -2.60493e-09 1.19064e-09)
(4.08953e-07 2.10872e-09 3.5341e-09)
(9.22066e-08 -1.7701e-09 2.13308e-09)
(2.31441e-07 -2.49404e-11 1.18271e-09)
(2.04092e-08 3.96809e-10 2.9726e-09)
(1.1692e-07 7.91778e-11 1.81941e-09)
(2.93597e-08 2.40465e-10 3.2068e-09)
(1.52802e-07 6.41318e-10 3.54726e-10)
(1.60771e-07 -7.76539e-10 -7.79027e-10)
(1.9506e-07 1.32061e-10 9.94335e-10)
(1.97843e-07 1.61304e-09 -3.89237e-09)
(2.67841e-07 -2.55981e-10 6.9014e-10)
(2.07247e-07 4.43582e-10 7.17169e-10)
(3.70403e-07 -3.60585e-09 1.57561e-09)
(2.13132e-07 1.95413e-10 1.1101e-09)
(1.77507e-07 2.81e-10 8.96962e-10)
(2.80352e-07 6.68041e-10 -5.78536e-10)
(2.80255e-07 2.39257e-09 1.2935e-09)
(2.93274e-07 6.55798e-10 1.00358e-09)
(1.1887e-07 3.32861e-10 -3.69038e-10)
(2.78927e-07 1.11074e-09 2.56543e-09)
(8.68339e-08 -6.55189e-10 -4.7726e-09)
(1.03833e-07 8.25109e-10 3.583e-09)
(2.22591e-07 1.43164e-09 -1.34287e-09)
(2.54003e-07 -1.38325e-09 1.41319e-09)
(2.46308e-07 5.10531e-09 3.16829e-09)
(2.68908e-07 -6.83541e-10 1.44033e-09)
(7.78231e-08 -1.05963e-10 1.68628e-09)
(1.14303e-07 4.63154e-09 -2.74674e-09)
(2.97182e-07 3.63591e-10 -1.6566e-09)
(2.2507e-07 4.29596e-09 1.3022e-09)
(6.58403e-08 -1.09817e-09 -1.0166e-09)
(7.92271e-08 6.14798e-11 -2.16241e-09)
(1.70111e-07 6.76414e-10 -4.49019e-09)
(1.76757e-07 -8.73822e-10 -3.25134e-10)
(3.2186e-07 -6.92108e-09 2.6381e-10)
(1.56771e-07 -1.84711e-09 1.39307e-09)
(3.22814e-07 -2.8362e-09 3.42596e-10)
(1.99474e-07 -1.12787e-09 5.54143e-09)
(2.11701e-08 2.48143e-09 -1.45122e-09)
(2.90507e-07 -6.92263e-10 2.09019e-09)
(3.10991e-08 1.9947e-09 -2.58176e-09)
(5.60745e-08 -2.2453e-09 1.41351e-09)
(3.27018e-07 2.65894e-10 2.291e-09)
(2.51935e-07 -9.5766e-10 -3.06062e-10)
(2.98202e-08 3.15664e-09 3.22729e-09)
(3.06377e-07 2.2402e-09 5.28883e-10)
(2.53615e-07 4.28112e-09 6.66115e-11)
(2.4009e-07 9.32618e-10 3.97277e-10)
(3.01403e-07 -9.98125e-10 1.8978e-10)
(2.51661e-08 2.9405e-09 6.39515e-10)
(2.59762e-07 -3.44414e-10 1.38038e-09)
(1.36341e-07 -1.15623e-09 1.01377e-10)
(1.50344e-07 -3.51364e-11 1.06915e-09)
(2.5464e-07 5.02175e-11 1.84654e-09)
(1.69491e-07 1.66613e-09 1.26793e-09)
(1.84281e-07 9.01091e-10 -7.28611e-10)
(2.55358e-07 1.69452e-09 4.11591e-10)
(4.15564e-08 -1.48739e-09 -1.85413e-09)
(2.7271e-07 -2.82674e-09 7.65452e-10)
(1.92162e-07 -1.56313e-09 -8.55489e-10)
(3.33489e-07 -2.04454e-09 1.50658e-09)
(2.52687e-07 -1.65086e-09 6.30332e-10)
(3.1672e-07 -2.24401e-09 1.25888e-09)
(1.45217e-07 2.20648e-09 3.00653e-09)
(2.12436e-08 -3.01515e-10 1.4983e-09)
(3.82704e-08 -9.61407e-10 6.64147e-10)
(5.0052e-07 -4.522e-09 -1.19885e-09)
(1.97709e-08 -1.16507e-09 2.82916e-09)
(1.82096e-07 -8.33657e-10 -2.98637e-09)
(7.75322e-08 4.15011e-09 1.65274e-09)
(3.0132e-07 -1.23736e-09 1.39158e-09)
(3.55043e-07 -3.82373e-11 -1.16998e-09)
(3.11048e-07 -6.74763e-10 -5.25493e-10)
(1.29476e-07 -4.71798e-10 -2.80623e-09)
(3.05219e-07 3.63331e-09 -5.90715e-09)
(7.24042e-08 -5.81638e-09 4.85295e-09)
(9.00544e-08 1.7437e-09 2.47887e-09)
(1.92752e-07 -3.00548e-10 -2.58236e-11)
(1.62435e-07 2.03393e-09 -1.40591e-09)
(2.69464e-07 3.09658e-08 8.88472e-09)
(1.98599e-07 -4.1354e-09 1.98607e-09)
(6.87031e-08 -3.76338e-10 -7.11656e-10)
(1.08439e-07 -1.52049e-09 3.1041e-09)
(2.12824e-07 -1.20065e-09 -3.12705e-09)
(2.02544e-07 4.45563e-11 -7.7138e-11)
(3.89364e-07 7.9023e-11 9.7331e-10)
(2.06861e-07 -2.92841e-10 1.41408e-09)
(4.76844e-07 -4.38074e-09 9.0319e-10)
(1.67764e-07 5.63562e-09 7.53134e-09)
(3.41667e-07 2.95109e-09 1.66137e-09)
(2.63002e-07 2.80247e-09 7.39121e-10)
(1.91257e-07 -4.13321e-10 2.24153e-11)
(3.26521e-07 -8.70911e-10 1.90484e-09)
(1.0906e-07 2.5049e-09 -5.95284e-09)
(2.4811e-08 -1.55551e-09 -2.97676e-09)
(2.9027e-07 -1.39835e-09 6.98064e-10)
(6.24216e-08 -2.85052e-09 3.30865e-09)
(3.03571e-08 1.99977e-10 3.67899e-11)
(3.79602e-07 9.13848e-10 3.71223e-09)
(1.9974e-07 -7.84648e-10 7.19016e-10)
(1.08343e-07 -2.65785e-09 -4.75394e-09)
(2.38743e-07 -1.53582e-09 9.48047e-10)
(3.16256e-07 -2.98301e-09 7.15267e-10)
(3.90382e-07 -1.8411e-09 -1.51801e-09)
(2.52174e-07 -6.48925e-10 -6.16915e-10)
(3.32394e-08 1.45401e-09 -2.12214e-11)
(3.10479e-07 5.20831e-10 -5.92785e-10)
(2.02932e-07 -1.52956e-09 1.09874e-09)
(1.04456e-07 -5.68698e-11 1.35506e-09)
(2.71232e-07 -2.78328e-10 2.40462e-09)
(2.34742e-07 -3.66984e-10 5.27554e-10)
(1.75799e-07 7.61484e-11 -1.18956e-09)
(2.02556e-07 9.96005e-11 -1.17866e-09)
(2.7002e-07 -1.17635e-09 2.08178e-09)
(2.01119e-07 -1.79978e-09 6.86761e-10)
(8.14669e-08 -3.83921e-10 -2.71296e-10)
(2.13416e-08 8.63829e-10 -6.90904e-10)
(4.17617e-08 -2.89373e-09 -3.44543e-10)
(2.28682e-07 1.1953e-09 5.88799e-10)
(2.68093e-07 -2.07263e-08 3.27413e-08)
(1.15861e-07 -6.51758e-09 -9.38694e-09)
(1.16753e-07 4.50733e-10 2.70382e-10)
(2.54128e-07 2.26345e-10 4.06686e-09)
(3.11095e-07 4.98889e-10 1.02985e-09)
(2.25755e-07 -7.76152e-10 4.58283e-09)
(3.5457e-07 4.12717e-10 1.70352e-09)
(3.42408e-07 -1.56522e-09 -1.71797e-10)
(2.20758e-07 5.7118e-10 8.14388e-10)
(1.36143e-07 1.04598e-09 4.11373e-10)
(2.54134e-08 -7.09369e-10 -2.75566e-10)
(2.40983e-07 -4.73653e-08 5.88994e-09)
(9.18246e-08 2.47372e-09 9.15073e-10)
(6.81072e-08 -3.07449e-09 -7.55328e-10)
(7.20345e-08 1.22996e-09 5.33687e-10)
(1.67712e-07 -5.75399e-11 -1.34389e-10)
(1.79948e-07 -6.75221e-10 2.03255e-10)
(2.30146e-07 8.0515e-10 -1.08172e-09)
(1.8128e-08 1.03236e-09 -1.54191e-09)
(1.72224e-07 -4.71929e-10 2.75157e-10)
(6.86911e-08 1.63604e-09 -1.21514e-09)
(1.79237e-07 -7.93833e-10 -1.28535e-10)
(5.87223e-08 -7.64645e-10 -5.38265e-10)
(1.54415e-07 -3.49145e-09 3.08887e-09)
(2.27354e-07 -5.18612e-09 1.77352e-09)
(1.828e-07 -6.14223e-10 1.62554e-09)
(2.03469e-08 1.70125e-09 -2.17007e-09)
(1.18452e-07 -1.14002e-09 5.30534e-09)
(2.40455e-07 1.12949e-10 1.11875e-09)
(2.6983e-08 -1.67675e-09 -2.015e-09)
(2.89274e-07 2.73509e-09 1.80835e-08)
(1.8648e-07 -9.37366e-10 3.81283e-09)
(3.06884e-07 9.8097e-11 -4.27217e-09)
(2.07385e-07 4.51128e-09 -5.51564e-09)
(9.75712e-08 -1.05445e-09 2.02174e-09)
(3.84047e-07 3.13952e-09 -2.41836e-10)
(1.42187e-07 -1.43445e-08 -1.31542e-08)
(3.04163e-07 2.22268e-09 6.09729e-10)
(1.55466e-07 1.16958e-08 1.24648e-08)
(1.49596e-07 -6.43617e-09 9.35315e-10)
(1.50874e-07 -7.45645e-10 -3.40413e-09)
(2.54015e-07 1.48903e-09 4.5379e-10)
(5.07827e-07 4.01699e-09 1.37399e-09)
(8.48895e-08 -8.17626e-10 9.16271e-10)
(3.43693e-07 1.55141e-09 -1.33061e-09)
(1.24652e-07 -6.95825e-10 -2.79284e-09)
(4.04851e-07 -1.1139e-09 1.82246e-09)
(3.0897e-07 -5.55146e-10 2.09718e-09)
(7.47014e-08 2.10669e-09 -5.42474e-09)
(2.20434e-07 -1.4028e-09 -1.70167e-10)
(3.80473e-07 -3.96655e-09 3.50972e-09)
(2.2714e-07 6.69007e-10 -2.40707e-10)
(2.18206e-07 4.84257e-10 6.0481e-10)
(2.54432e-08 -8.81323e-10 -3.17727e-09)
(2.11639e-08 1.08228e-09 -2.64457e-09)
(2.97466e-07 2.27407e-09 -3.56498e-09)
(2.66739e-07 3.21297e-10 -4.67693e-11)
(2.04466e-07 -1.77061e-09 -9.89003e-10)
(3.85035e-08 4.33045e-10 -2.70626e-09)
(8.42882e-08 -6.12899e-10 3.00875e-10)
(3.13931e-07 -2.76798e-09 -1.03837e-09)
(1.55557e-07 2.49413e-10 9.10766e-10)
(2.91575e-07 2.27279e-09 5.59005e-10)
(2.64082e-07 1.3563e-09 -1.82162e-10)
(2.06799e-07 1.40408e-09 8.3075e-10)
(2.2149e-07 2.25146e-09 9.404e-10)
(1.27947e-07 7.16316e-10 3.47384e-10)
(1.98138e-07 1.76818e-09 1.13065e-10)
(9.34377e-08 -1.84155e-09 -4.65267e-09)
(2.75208e-07 -4.75222e-11 -4.13502e-10)
(1.96977e-07 -6.06886e-10 -2.10879e-09)
(2.09605e-07 1.45185e-09 8.35533e-10)
(2.06879e-07 5.55958e-10 -2.94929e-10)
(3.48764e-07 -5.79617e-10 8.31837e-11)
(2.64011e-07 1.51845e-09 -1.32812e-09)
(7.26146e-08 4.12974e-09 3.73857e-09)
(4.82305e-08 1.09328e-09 4.0898e-10)
(2.11402e-08 1.80691e-09 -2.1304e-09)
(2.27957e-07 5.36147e-09 9.3817e-09)
(2.70634e-07 1.01653e-10 1.10556e-11)
(2.70402e-07 -1.56333e-09 9.56888e-10)
(1.97169e-07 2.13953e-09 7.14109e-10)
(3.21508e-08 -9.37322e-11 1.11115e-09)
(2.42748e-08 -4.5653e-10 2.75601e-09)
(1.86968e-07 -3.89676e-10 2.73806e-09)
(2.26359e-07 -6.17013e-10 1.98218e-09)
(2.90619e-07 -4.37035e-10 1.29886e-09)
(3.16109e-07 1.40808e-09 -2.68419e-10)
(2.01715e-07 -1.13221e-09 -1.65249e-09)
(3.13062e-07 1.68209e-09 -1.52422e-10)
(3.80243e-07 2.66622e-09 1.49828e-09)
(3.41468e-08 -7.69157e-10 3.25174e-09)
(1.87264e-07 -6.7625e-10 5.29752e-10)
(7.80874e-08 7.86829e-10 3.92833e-09)
(9.76319e-08 -9.72004e-09 2.08025e-09)
(1.25283e-07 1.71375e-10 -7.56474e-11)
(1.49939e-07 5.41105e-10 1.84758e-10)
(2.50762e-07 3.12835e-10 -1.99611e-10)
(2.11008e-08 -3.87402e-09 -1.46618e-09)
(3.31669e-07 3.11879e-09 -2.20126e-11)
(2.47079e-07 4.79951e-11 -2.71549e-10)
(1.99557e-07 1.60264e-09 4.70883e-10)
(2.12592e-07 2.10394e-09 4.07533e-10)
(1.67314e-07 1.70208e-11 1.1607e-09)
(2.444e-07 7.39446e-10 1.49797e-09)
(2.51417e-07 8.18998e-10 1.49937e-11)
(2.77496e-07 1.90941e-09 5.13543e-10)
(1.69501e-07 6.10416e-09 -4.47005e-09)
(2.54211e-07 6.50043e-10 -1.5651e-10)
(2.88708e-07 -4.36345e-09 -1.1297e-09)
(2.00204e-08 -1.33447e-09 1.40771e-09)
(2.83621e-07 -9.5081e-10 -1.16389e-09)
(1.95937e-07 3.07399e-09 -2.04815e-10)
(6.94714e-08 -2.02018e-09 5.49381e-09)
(1.80504e-07 1.16167e-09 -2.94788e-09)
(3.27839e-07 -2.82159e-10 -1.3177e-09)
(2.29465e-07 -4.80804e-10 1.1363e-09)
(1.25798e-07 2.71425e-10 -3.49683e-09)
(1.97381e-08 -1.7736e-09 -1.9916e-09)
(2.41367e-07 -1.19364e-09 -7.78923e-10)
(3.43877e-07 4.71516e-09 -4.31624e-09)
(2.2948e-07 -5.6846e-10 -2.44251e-10)
(1.92727e-07 2.27533e-10 1.14095e-09)
(6.20593e-08 2.76839e-09 2.77408e-09)
(2.51629e-07 1.0532e-10 -9.52829e-10)
(2.71462e-08 2.22843e-09 -3.395e-09)
(1.67385e-07 2.36958e-10 -4.41908e-10)
(2.08658e-07 2.32469e-08 -7.44848e-09)
(2.42485e-07 -5.88537e-10 -7.54825e-10)
(9.4823e-08 -1.44048e-10 3.26408e-09)
(1.9077e-07 -2.22721e-09 -2.79564e-09)
(1.20991e-07 4.81384e-10 -1.70928e-09)
(5.12761e-08 3.08322e-09 2.51312e-09)
(4.22636e-07 9.01182e-10 1.29509e-09)
(1.96513e-07 7.16166e-10 8.58314e-10)
(1.93924e-08 7.12987e-10 1.90004e-09)
(2.6807e-07 -2.15222e-09 3.71239e-10)
(2.56942e-07 -1.50982e-09 1.08988e-09)
(4.19257e-08 -1.00165e-10 -2.32871e-09)
(1.36092e-07 5.90034e-09 6.97334e-11)
(1.05828e-07 3.62591e-09 2.76182e-09)
(1.86045e-07 1.16856e-09 8.03168e-10)
(2.38513e-07 -3.36269e-10 4.75592e-10)
(3.55031e-08 -8.8092e-10 1.63123e-09)
(9.79901e-08 -3.16321e-09 -1.07366e-09)
(1.09123e-07 2.25084e-09 -3.47523e-11)
(1.81332e-07 2.22511e-09 5.11333e-10)
(3.07401e-07 -5.37403e-10 8.03217e-10)
(2.52759e-08 1.29324e-09 -3.33079e-09)
(3.57715e-07 -2.37434e-09 2.00966e-09)
(2.34251e-07 2.64605e-09 2.65047e-10)
(2.5161e-07 3.36541e-10 1.71073e-09)
(1.14195e-07 4.89821e-09 -4.71972e-09)
(3.19556e-07 2.35519e-09 6.25312e-10)
(2.48983e-08 -2.05038e-10 -2.64678e-09)
(2.85823e-07 -1.17197e-09 -2.95519e-10)
(2.99385e-08 -5.17794e-10 -6.45536e-11)
(1.40938e-07 -4.39924e-09 6.75788e-10)
(2.23302e-07 -1.20658e-09 2.76095e-10)
(1.46511e-07 -4.29598e-09 -1.36421e-09)
(2.09603e-08 2.43689e-09 2.21174e-09)
(5.49291e-08 1.00702e-09 -1.79654e-09)
(8.18949e-08 -4.24336e-09 2.66882e-09)
(1.40786e-07 2.75648e-09 -3.82444e-09)
(3.25027e-07 -4.77024e-10 -1.72174e-09)
(6.14374e-08 -1.3723e-09 9.09748e-12)
(1.45364e-07 4.66088e-09 -2.8301e-09)
(2.255e-07 -1.20929e-08 -2.35995e-08)
(2.00447e-07 7.71509e-10 9.00947e-10)
(3.15128e-08 1.99549e-09 3.09851e-10)
(2.34426e-07 -1.31362e-11 -2.11003e-09)
(1.47546e-07 1.58628e-08 -6.18424e-09)
(1.90203e-07 -1.87688e-09 -2.42006e-10)
(1.06195e-07 -3.34862e-10 -2.39026e-09)
(1.66528e-07 9.13858e-10 9.62222e-10)
(1.13752e-07 -4.80459e-09 -3.02346e-09)
(1.64284e-07 4.91288e-10 9.5222e-10)
(1.49471e-07 6.84374e-10 -4.3364e-10)
(7.79743e-08 3.68399e-09 -6.89393e-09)
(2.78233e-07 -2.96017e-11 2.16976e-10)
(7.14469e-08 3.14056e-09 3.64649e-09)
(1.69846e-08 2.57968e-09 9.85479e-10)
(3.13315e-07 1.36024e-09 -8.25975e-11)
(1.74719e-07 7.66614e-10 2.62124e-10)
(2.98587e-07 1.96487e-09 -4.9642e-10)
(2.32447e-07 3.05053e-09 -1.15873e-09)
(4.30236e-07 -4.26603e-09 1.08747e-09)
(1.4617e-07 3.76048e-09 -5.21126e-10)
(3.90085e-07 -3.94877e-09 9.66316e-10)
(1.04012e-07 -3.13952e-09 4.47701e-09)
(1.42842e-07 6.86926e-10 -8.36697e-11)
(3.12335e-07 -3.76652e-09 -3.04549e-09)
(3.52502e-08 8.26225e-10 -4.85611e-09)
(2.99159e-07 1.28337e-10 -1.3863e-09)
(1.22372e-07 2.31468e-10 3.93884e-09)
(3.25404e-08 -2.36275e-09 -2.25516e-09)
(2.7809e-07 -9.37946e-10 -4.01884e-10)
(6.71031e-08 -1.80143e-09 1.58763e-09)
(2.03553e-07 7.94575e-10 2.34551e-10)
(2.03406e-07 3.51818e-10 9.38688e-10)
(3.7696e-07 2.59892e-09 1.87817e-09)
(1.02169e-07 -4.33542e-09 -4.89163e-09)
(2.7099e-07 2.56135e-09 4.36555e-10)
(1.59823e-07 -2.19138e-09 1.89281e-09)
(2.94728e-07 5.89071e-10 8.22818e-10)
(2.99981e-07 3.37649e-10 -3.74541e-11)
(2.64239e-07 1.706e-09 1.00006e-09)
(1.55848e-07 6.20808e-10 9.89522e-11)
(5.21804e-08 -2.81995e-09 -2.26558e-09)
(7.4568e-08 2.97237e-10 -8.77948e-10)
(1.68332e-07 4.67632e-10 -3.81417e-11)
(2.79822e-07 1.74693e-09 2.26073e-09)
(3.08722e-08 -2.0838e-09 -1.03892e-09)
(2.38956e-07 2.87429e-10 2.61087e-10)
(4.49045e-07 3.88945e-10 8.68282e-10)
(3.32518e-07 -2.92449e-09 -6.05678e-10)
(3.53141e-07 -3.44635e-09 -5.96358e-10)
(2.56702e-07 -6.81012e-10 -2.69079e-09)
(2.18694e-08 2.14458e-09 1.93525e-09)
(2.17168e-07 8.38403e-10 -5.33877e-11)
(1.53115e-07 -1.53716e-09 -2.28518e-09)
(2.59937e-07 -3.10521e-10 5.92124e-10)
(1.6745e-07 1.54689e-10 -8.04618e-12)
(3.86658e-08 2.80551e-09 -3.19763e-10)
(1.95335e-07 9.42295e-10 4.52882e-10)
(1.57745e-07 3.57021e-09 3.41608e-09)
(2.48686e-07 -9.26252e-10 2.32765e-10)
(2.52678e-07 -2.51864e-09 -1.10771e-10)
(2.00059e-07 -2.22908e-09 -7.75858e-10)
(1.48461e-08 1.29126e-09 -1.76388e-09)
(2.18634e-08 -1.30218e-09 -2.15679e-09)
(1.75493e-07 -1.19139e-09 2.056e-11)
(2.9277e-07 -1.17651e-09 2.57979e-11)
(2.14053e-07 1.74629e-09 1.13364e-09)
(1.78684e-07 1.86902e-10 1.19069e-09)
(1.6708e-07 -2.45901e-09 9.88585e-10)
(2.54199e-07 -1.95333e-09 -7.63976e-10)
(2.73415e-07 2.99263e-10 4.66154e-10)
(2.1181e-08 1.80297e-09 4.09034e-10)
(1.38965e-07 -9.70288e-10 2.38582e-10)
(1.73937e-07 -1.82741e-08 -2.59837e-10)
(5.02384e-08 -8.20563e-10 2.54474e-09)
(8.99936e-08 -5.71476e-09 1.47873e-09)
(3.08439e-07 -1.36839e-09 -1.94682e-09)
(2.13854e-07 -2.62583e-09 1.00222e-09)
(1.98978e-07 1.02531e-09 -3.3015e-10)
(2.42896e-07 -1.45142e-09 9.42188e-10)
(1.44958e-07 -4.81562e-09 1.47554e-09)
(3.11508e-07 4.55666e-10 -5.37495e-10)
(1.87186e-07 2.2066e-09 -5.2039e-09)
(4.09747e-07 3.62544e-09 9.31641e-11)
(2.09122e-07 2.16466e-10 -2.42573e-10)
(2.25039e-07 -1.87732e-09 8.3892e-10)
(2.98794e-07 -2.71629e-09 1.55027e-10)
(5.15637e-08 -6.48266e-10 2.52464e-09)
(5.26272e-07 -3.90245e-09 1.01735e-09)
(3.63848e-08 1.02057e-09 -1.44012e-09)
(1.48954e-07 -1.4476e-08 8.5361e-09)
(1.23942e-07 3.67664e-09 3.04434e-09)
(1.6153e-07 -3.09798e-09 -1.60612e-08)
(2.17938e-07 -1.32039e-09 -6.13064e-10)
(2.90738e-07 -4.67209e-08 -1.0294e-08)
(1.32789e-07 1.0945e-11 -3.07674e-10)
(3.0958e-07 -1.48304e-10 -5.76793e-11)
(3.33222e-07 9.03262e-10 -5.72824e-10)
(2.04034e-07 -1.90276e-10 1.53263e-09)
(3.81336e-08 2.39402e-10 -6.13638e-10)
(1.18485e-07 -4.48267e-09 -3.00064e-09)
(2.10246e-07 -3.9376e-09 -2.98925e-08)
(2.04198e-07 4.22522e-10 8.16189e-11)
(1.044e-07 -2.25793e-09 -4.13863e-10)
(2.17786e-07 -2.01129e-08 -6.92168e-09)
(2.34012e-07 -3.43218e-09 5.42325e-09)
(3.20578e-07 2.81604e-09 1.93529e-09)
(4.78023e-08 -9.79429e-10 1.60394e-09)
(5.7636e-08 -2.72661e-09 1.67419e-09)
(2.96356e-08 1.03729e-10 -2.44619e-10)
(2.14831e-08 1.29593e-10 -1.65758e-09)
(4.77579e-08 -2.07207e-10 2.70493e-10)
(2.2201e-07 -1.32613e-08 8.37745e-09)
(1.83697e-07 -1.39491e-10 9.73283e-10)
(2.04545e-08 -6.43426e-10 2.84184e-09)
(2.24427e-08 1.60456e-09 2.52562e-09)
(3.29363e-07 1.35498e-09 1.94718e-11)
(1.66203e-07 -2.17167e-08 1.47486e-08)
(5.05348e-08 2.1391e-09 9.08875e-10)
(2.27486e-07 4.51935e-10 -2.9057e-10)
(1.12116e-07 -9.90759e-10 -1.65329e-09)
(2.06119e-07 1.50083e-10 1.78988e-09)
(4.79348e-08 2.40348e-09 -1.34478e-09)
(9.91265e-08 3.01786e-09 -1.13604e-09)
(1.99813e-07 -1.97604e-09 2.35165e-10)
(2.5891e-07 4.95827e-10 -6.21164e-10)
(3.96118e-07 1.17671e-09 -1.85814e-09)
(4.68918e-08 3.86087e-09 -1.33599e-09)
(2.6674e-08 -2.04006e-09 1.32033e-09)
(2.01614e-07 -2.88135e-08 -2.13546e-08)
(3.03115e-08 -3.89043e-09 3.82697e-11)
(3.15131e-07 -2.2151e-09 -2.71879e-09)
(3.16599e-08 1.68804e-09 -3.94995e-09)
(1.54645e-07 -6.87269e-10 3.22673e-09)
(2.90909e-07 -1.01099e-09 -3.16833e-10)
(4.14198e-07 -1.77771e-09 2.57571e-09)
(6.39589e-08 8.67215e-10 -1.32228e-09)
(1.46082e-07 -6.45967e-10 -1.46332e-09)
(4.18419e-08 1.54773e-09 -1.62859e-09)
(3.1466e-08 3.68989e-09 -1.39534e-09)
(2.47747e-07 -1.51182e-10 -1.23336e-09)
(1.61083e-08 -1.33722e-09 -2.1074e-09)
(1.73661e-07 -1.58522e-09 -4.97695e-10)
(6.63551e-08 1.30124e-09 -3.05451e-09)
(3.2141e-07 -1.7965e-09 -3.31275e-10)
(2.28379e-07 -6.19168e-10 -2.52643e-10)
(2.10048e-08 -5.54737e-10 3.28581e-09)
(1.43986e-07 -6.83288e-09 4.02085e-10)
(2.46553e-07 5.00491e-10 5.37451e-10)
(3.39642e-08 -1.57388e-09 9.91731e-11)
(2.79677e-07 -1.45734e-09 -8.91232e-10)
(8.53542e-08 -3.23787e-09 5.25966e-09)
(2.24148e-07 5.04406e-10 -2.45931e-10)
(2.13946e-07 -6.8936e-10 -1.13021e-09)
(6.00516e-08 1.70317e-09 1.40946e-09)
(2.30165e-08 9.7496e-10 -2.99527e-09)
(1.00064e-07 1.88069e-09 -6.73779e-10)
(2.43599e-07 3.82434e-08 8.29474e-09)
(2.37186e-07 9.92684e-10 8.48443e-10)
(8.31471e-08 -3.45687e-09 4.03671e-09)
(1.95051e-07 6.48242e-10 3.15246e-09)
(2.67204e-08 -1.01674e-09 6.5434e-10)
(1.89335e-07 -5.21527e-10 -1.15572e-09)
(2.51732e-08 -4.1245e-10 -1.73179e-09)
(3.24541e-07 -2.84019e-09 -4.61174e-11)
(3.04096e-07 -1.27552e-09 8.87763e-10)
(2.12351e-07 -4.82165e-10 3.00456e-10)
(1.57196e-08 1.6029e-09 6.97057e-11)
(3.41086e-07 -2.07593e-09 1.2128e-09)
(1.64015e-07 9.76457e-10 -2.97123e-10)
(3.51478e-07 1.41467e-09 5.37835e-10)
(6.74164e-08 -5.01615e-10 -2.09997e-10)
(2.22507e-07 -2.68117e-08 1.38118e-08)
(2.59122e-07 -2.71824e-09 -1.61579e-10)
(7.19479e-08 8.31181e-10 -6.81413e-10)
(2.35756e-07 9.74825e-10 3.48375e-10)
(2.10032e-07 3.85247e-09 -3.95206e-08)
(1.86494e-07 4.47832e-10 -9.51563e-10)
(3.54355e-08 9.17967e-10 -1.8919e-09)
(1.09729e-07 -1.09857e-09 -5.50606e-09)
(1.79334e-07 -7.86535e-11 -2.25648e-11)
(2.21754e-07 2.21739e-09 -1.91489e-10)
(3.4859e-08 1.81487e-09 6.60156e-10)
(2.26086e-07 2.35593e-09 -2.88284e-09)
(1.68005e-07 -2.19299e-09 -5.13813e-09)
(2.69845e-08 -2.37544e-09 1.52912e-09)
(1.92116e-07 1.23396e-10 -2.74625e-10)
(1.58301e-07 -1.99537e-09 1.54504e-08)
(3.32958e-07 3.82697e-09 -4.93767e-09)
(1.91873e-07 -2.06903e-10 6.69188e-11)
(1.72806e-07 -7.46869e-12 5.83406e-10)
(2.9695e-07 -8.84453e-10 -8.38717e-10)
(2.6059e-07 1.40475e-09 7.79335e-10)
(7.62923e-08 2.03492e-09 7.09566e-10)
(7.80974e-08 -3.91029e-09 -3.68446e-09)
(3.56484e-07 2.93425e-09 6.87254e-10)
(2.24751e-07 -1.96668e-08 1.83223e-08)
(2.15622e-07 -2.11798e-09 9.78699e-10)
(1.93636e-07 -1.90346e-09 6.74931e-10)
(1.34545e-07 2.89915e-09 1.50639e-09)
(3.21225e-07 -1.92656e-10 1.44395e-09)
(1.96888e-07 2.32682e-10 -9.46927e-10)
(1.89793e-07 -9.35958e-10 -2.39454e-09)
(2.35886e-07 4.34272e-09 6.19995e-10)
(4.59479e-08 2.3969e-10 -2.87481e-09)
(1.80718e-07 1.50263e-09 -1.25169e-09)
(4.29496e-08 -1.09605e-09 -3.14369e-09)
(3.08898e-07 -6.62868e-10 1.99929e-09)
(3.08804e-07 -4.97598e-10 1.66659e-10)
(1.75107e-07 2.52677e-09 -4.38282e-09)
(1.67812e-07 1.30047e-09 -8.12526e-10)
(1.92805e-08 2.02484e-09 -3.76803e-10)
(1.1126e-07 -6.53504e-10 -8.76057e-10)
(8.08409e-08 -2.81615e-09 -3.48685e-09)
(2.49413e-07 -2.67598e-10 -1.57957e-09)
(2.23138e-07 -1.47317e-09 -9.36881e-10)
(2.20544e-07 -2.01817e-08 1.27844e-08)
(3.01363e-07 -1.25072e-09 2.23553e-09)
(8.67451e-08 -2.50921e-09 -2.00795e-09)
(1.36565e-07 -3.42899e-09 1.0675e-08)
(2.48997e-07 -1.76614e-09 3.78531e-09)
(3.01551e-08 -2.41247e-09 -1.09373e-10)
(2.29087e-07 -1.07024e-09 -7.52793e-10)
(5.7865e-08 1.64241e-09 -6.764e-11)
(2.06724e-07 -6.44398e-10 1.69496e-09)
(3.49566e-08 4.93588e-09 -2.8051e-10)
(3.41886e-07 1.74853e-09 -2.09961e-09)
(2.03958e-07 -8.73617e-09 5.3936e-09)