/*--------------------------------*- C++ -*----------------------------------*\
| =========                 |                                                 |
| \\      /  F ield         | OpenFOAM: The Open Source CFD Toolbox           |
|  \\    /   O peration     | Version:  2406                                  |
|   \\  /    A nd           | Website:  www.openfoam.com                      |
|    \\/     M anipulation  |                                                 |
\*---------------------------------------------------------------------------*/
FoamFile
{
    version     2.0;
    format      ascii;
    arch        "LSB;label=32;scalar=64";
    class       volVectorField;
    location    "34";
    object      momentum:angularMomentum;
}
// * * * * * * * * * * * * * * * * * * * * * * * * * * * * * * * * * * * * * //

dimensions      [1 1 -1 0 0 0 0];

internalField   nonuniform List<vector> 
59516
(
(8.47566e-10 -1.07128e-09 2.32994e-07)
(6.05455e-10 -3.52148e-10 1.74699e-07)
(-5.23263e-10 2.28959e-09 2.11588e-07)
(-3.54362e-09 9.93954e-12 1.76172e-07)
(-7.90906e-09 4.66831e-10 2.00369e-07)
(-5.20207e-09 2.77346e-09 5.03655e-08)
(-7.82863e-10 -2.47136e-09 2.15071e-07)
(-6.0452e-10 -1.63257e-09 2.05757e-07)
(-1.29129e-09 7.73533e-11 1.62761e-07)
(3.38314e-09 1.5264e-09 8.62495e-08)
(-2.06094e-09 -7.07452e-10 2.05084e-07)
(-4.26786e-09 -3.92707e-09 1.05705e-07)
(-2.36722e-09 -1.5659e-09 3.34349e-07)
(9.73688e-11 -1.72294e-10 1.69633e-08)
(1.10245e-10 -9.18365e-09 1.63529e-07)
(-2.2513e-09 6.37759e-09 9.07035e-08)
(4.71369e-10 -5.14378e-10 2.58054e-07)
(-1.2409e-08 -3.67264e-09 1.60681e-07)
(-1.40553e-08 -4.21056e-09 3.32763e-07)
(4.87621e-12 1.52566e-09 3.5917e-07)
(-1.94553e-09 9.75916e-10 1.02059e-07)
(9.20277e-10 3.53171e-10 3.17982e-07)
(1.73313e-10 -1.60833e-09 3.49106e-07)
(1.00538e-09 6.1344e-10 3.77562e-08)
(1.25793e-09 2.28903e-09 3.06796e-07)
(-1.04264e-09 4.66919e-09 2.14995e-07)
(-7.54592e-10 3.71796e-09 5.66043e-08)
(-5.57751e-09 -2.63358e-09 7.51863e-08)
(-4.42034e-09 -2.28595e-09 1.48247e-07)
(1.88058e-09 1.47874e-09 1.48311e-08)
(-3.75134e-08 2.12106e-09 1.89416e-07)
(-5.18928e-09 3.96646e-09 8.48514e-08)
(-9.35443e-10 -5.59329e-10 1.7707e-07)
(-3.64633e-09 -1.36666e-09 1.80596e-07)
(-4.46049e-09 -2.81439e-10 1.3281e-07)
(2.50482e-10 6.46272e-10 3.99701e-07)
(-2.10553e-09 1.12877e-09 1.43829e-08)
(-1.27577e-08 -4.12519e-09 1.32405e-07)
(-8.60712e-09 1.23784e-09 2.72563e-07)
(2.85542e-09 -5.81336e-10 2.73848e-07)
(3.78967e-10 -1.9745e-09 2.69049e-07)
(-2.86683e-08 4.01355e-11 4.05637e-07)
(-5.69383e-09 1.41334e-09 3.41913e-07)
(-7.88972e-10 4.59503e-10 1.1621e-07)
(-4.55564e-09 1.45088e-09 2.66635e-07)
(2.84191e-09 8.19081e-10 1.09574e-07)
(-8.34273e-09 4.71204e-11 3.27006e-07)
(-3.69651e-09 7.48094e-10 2.48089e-07)
(-3.44206e-08 3.17461e-09 2.51805e-07)
(-1.06405e-08 -1.03404e-10 2.37529e-07)
(-2.81748e-08 8.39517e-10 1.63895e-07)
(-7.00769e-09 -3.41778e-09 8.27654e-08)
(9.61747e-10 -6.12569e-09 3.26235e-07)
(-8.94746e-10 4.80161e-10 3.08715e-07)
(-4.64035e-09 1.10869e-09 8.50759e-08)
(-2.53646e-09 5.06977e-10 2.47945e-07)
(-1.54303e-08 -1.91468e-10 2.01655e-07)
(-7.78202e-09 -2.93979e-09 8.52777e-08)
(1.75525e-10 3.20628e-10 1.95724e-07)
(-9.56651e-09 -3.78651e-10 1.45258e-07)
(2.42227e-10 6.91556e-10 2.0698e-07)
(-1.2276e-09 1.72769e-09 1.67452e-08)
(4.8695e-10 5.76613e-10 2.51301e-07)
(-2.00935e-09 1.01224e-09 3.2722e-07)
(-1.50478e-09 5.52545e-10 3.04139e-07)
(-5.89418e-09 4.1993e-10 2.12479e-07)
(1.46233e-10 2.25101e-09 2.0051e-08)
(-1.42072e-10 3.85835e-10 7.14764e-08)
(-3.70884e-08 6.49698e-10 1.98105e-07)
(-1.30808e-09 -1.41802e-09 1.70344e-07)
(-9.78071e-10 -1.35596e-09 5.68394e-08)
(-6.27584e-10 -2.6305e-10 1.51733e-07)
(3.87245e-09 -1.54125e-09 2.5499e-08)
(3.2208e-10 -5.97567e-11 1.85713e-07)
(-8.52296e-10 5.94621e-10 3.47706e-07)
(-1.94213e-09 -4.73473e-11 3.55135e-07)
(-1.89239e-09 -2.38555e-10 2.09208e-07)
(-6.81017e-10 2.50117e-10 2.23921e-07)
(3.58535e-09 2.09617e-09 9.19463e-08)
(-7.9134e-09 1.10188e-09 1.89825e-07)
(-3.51694e-09 1.30778e-10 5.55443e-08)
(-6.09271e-09 6.54433e-10 1.692e-07)
(-5.63742e-09 7.31322e-10 1.81811e-07)
(-2.52215e-09 1.32902e-09 2.00236e-08)
(-7.50578e-09 1.31107e-09 2.12648e-07)
(-8.35408e-11 1.18359e-09 3.55807e-07)
(6.83813e-10 1.14413e-09 3.43489e-08)
(2.6448e-09 9.8965e-10 5.01276e-07)
(-4.60964e-09 -2.57307e-09 1.18185e-07)
(-1.48177e-08 -3.86434e-09 1.67353e-07)
(-1.53144e-08 -1.2963e-10 1.83218e-07)
(-1.72416e-09 1.50065e-09 1.872e-07)
(8.849e-11 9.41981e-11 2.43967e-07)
(-1.8623e-10 1.41732e-09 1.81599e-07)
(-1.73318e-10 7.71267e-11 1.73994e-07)
(-1.88479e-08 2.90148e-12 1.83492e-07)
(-8.53346e-10 -6.86258e-10 1.24405e-07)
(3.26353e-09 6.69826e-09 9.09321e-08)
(-3.73527e-09 -1.85299e-09 1.17332e-07)
(1.81277e-09 1.41096e-09 2.05776e-07)
(-2.07582e-09 1.74186e-09 6.71763e-08)
(3.2372e-09 1.55629e-09 2.90594e-08)
(3.24356e-09 1.69591e-09 2.56037e-08)
(-3.1575e-09 3.69443e-09 9.1577e-08)
(1.1512e-09 -1.09863e-10 2.36751e-07)
(-4.15599e-10 4.15731e-10 1.59887e-07)
(2.71056e-09 -4.8377e-09 6.05166e-08)
(-8.05882e-10 -5.07085e-10 1.43982e-07)
(-8.07052e-10 9.42278e-10 1.83484e-07)
(-4.39304e-09 6.96517e-09 2.01873e-07)
(-4.12506e-08 -5.53225e-10 2.80152e-07)
(3.56942e-09 -3.11193e-09 4.73599e-08)
(-7.28799e-09 9.40645e-09 1.99968e-07)
(-3.56568e-08 -9.36495e-11 2.19242e-07)
(-1.28811e-10 -2.67548e-11 2.14919e-07)
(1.15101e-09 -1.59131e-09 1.44415e-07)
(-4.69935e-09 -2.6716e-09 1.35549e-07)
(-7.30991e-10 -6.25361e-10 1.45505e-07)
(-4.05954e-10 -9.11222e-10 2.00234e-08)
(-1.9021e-09 2.2109e-09 2.6026e-07)
(9.54395e-10 4.27558e-10 3.75126e-07)
(2.53594e-10 3.02477e-10 1.67225e-07)
(4.02865e-10 4.68135e-10 1.56942e-07)
(-4.07763e-10 3.7707e-10 1.73508e-07)
(-1.74512e-08 1.2842e-09 1.32864e-07)
(-4.18058e-09 5.33671e-11 1.45922e-07)
(-2.43782e-09 -1.05017e-09 3.90331e-08)
(-1.91131e-08 3.28559e-09 2.1185e-07)
(-2.36839e-08 5.57517e-09 1.63231e-07)
(5.51775e-10 -6.37463e-11 1.4773e-07)
(1.14265e-09 -1.02319e-09 2.59702e-07)
(4.26777e-09 5.69662e-09 3.36407e-07)
(-6.22098e-10 -2.11081e-09 2.47643e-08)
(5.98136e-10 1.01981e-09 2.54902e-07)
(3.06958e-09 1.20101e-09 3.2939e-07)
(-2.62405e-09 2.1188e-09 2.04921e-07)
(-2.16397e-08 1.98516e-09 1.51995e-07)
(8.27208e-10 1.33565e-09 3.2094e-07)
(-4.88475e-10 3.71077e-09 5.66301e-08)
(-1.75051e-09 1.4819e-09 1.66003e-07)
(-1.81355e-09 3.99692e-09 8.27877e-08)
(-2.55711e-10 -2.96819e-10 3.03233e-07)
(-7.55163e-10 -1.30674e-09 1.51062e-08)
(-4.48986e-10 1.58956e-09 1.54286e-07)
(-2.68953e-10 4.21173e-10 2.01471e-07)
(-2.3568e-09 1.63601e-09 2.82648e-07)
(-4.53504e-09 1.74202e-09 2.03888e-07)
(-3.18991e-09 2.08723e-09 2.10818e-07)
(9.82037e-10 -1.82768e-09 6.4049e-08)
(-3.47847e-10 2.20517e-09 2.1463e-07)
(7.55885e-11 -2.56854e-09 3.32833e-07)
(2.82263e-10 2.0997e-09 5.74976e-08)
(2.34355e-09 1.97829e-09 3.71904e-07)
(1.29947e-09 2.66387e-10 2.15421e-07)
(-7.36691e-10 -3.43566e-09 1.67088e-07)
(-1.55151e-09 8.78563e-10 1.61208e-08)
(5.26025e-10 -3.09784e-10 2.88483e-07)
(-2.59836e-09 1.98847e-09 3.41782e-07)
(-1.61144e-09 9.72003e-10 1.35569e-07)
(-2.53592e-09 -1.76722e-09 1.73819e-08)
(3.91046e-09 3.37825e-09 9.44099e-08)
(6.435e-09 -3.51703e-09 1.18482e-07)
(-8.26007e-10 1.76372e-09 4.33149e-08)
(-2.28404e-10 -4.78111e-10 2.46992e-08)
(4.73621e-09 2.59583e-10 1.70957e-07)
(-1.78596e-09 1.18759e-09 3.11533e-07)
(1.80859e-09 -2.00069e-10 1.65483e-07)
(-8.47491e-10 -1.65198e-10 2.61862e-07)
(1.15004e-09 2.15869e-09 1.87278e-08)
(-4.60439e-10 -6.12491e-10 2.13228e-07)
(-1.42599e-09 -1.20594e-09 9.15287e-08)
(-1.1588e-09 8.83265e-10 7.1927e-08)
(6.20448e-11 -3.24773e-09 1.13334e-07)
(6.73069e-10 -9.39503e-10 1.52552e-07)
(9.84062e-10 1.32398e-09 9.15575e-08)
(-1.22464e-08 -2.26314e-09 4.55127e-07)
(-1.51361e-09 1.47814e-10 2.35802e-07)
(-8.59152e-09 1.06291e-09 3.08964e-07)
(1.12483e-09 -7.84769e-09 1.58243e-07)
(7.38228e-10 3.69177e-10 6.75306e-08)
(-1.55115e-09 -3.81035e-09 3.06017e-07)
(1.21331e-09 4.10219e-09 4.63545e-08)
(-1.1339e-09 -2.32385e-09 3.25625e-08)
(9.85537e-10 2.84333e-09 1.11831e-07)
(4.7424e-10 -6.91459e-10 1.90828e-07)
(-6.25796e-10 1.14847e-09 1.03346e-07)
(-3.77796e-09 8.89152e-10 4.976e-08)
(1.5791e-10 2.37179e-10 2.21563e-08)
(-1.88357e-10 -1.84485e-10 1.95901e-07)
(3.41289e-09 1.7818e-09 2.36074e-07)
(-3.29255e-09 -5.13727e-10 1.58724e-07)
(-1.95989e-09 -7.04698e-09 1.23567e-07)
(-5.18249e-10 -4.51862e-10 2.07745e-07)
(3.09233e-09 -2.79324e-09 1.01105e-07)
(-6.63877e-10 5.91785e-10 3.35614e-07)
(4.3433e-10 7.57951e-10 3.08545e-08)
(1.38735e-09 9.31101e-11 1.04218e-07)
(3.82229e-10 -1.55392e-09 6.14897e-08)
(-7.78926e-09 -4.35569e-10 1.93034e-07)
(7.53116e-10 -3.65553e-10 2.60584e-07)
(-1.64627e-09 -2.08819e-09 8.15038e-08)
(-3.17454e-10 -3.80051e-10 1.77485e-07)
(9.41574e-10 3.27624e-09 3.26687e-07)
(1.50518e-09 -1.66633e-09 1.74058e-08)
(2.15327e-09 1.87599e-09 2.26518e-07)
(7.01216e-11 -1.42632e-10 2.38105e-07)
(3.85798e-11 1.21794e-10 3.24121e-07)
(3.9674e-10 -7.51032e-10 1.92925e-07)
(1.66562e-10 -5.64771e-10 1.96157e-08)
(4.44328e-09 2.29299e-09 3.12592e-07)
(-5.17409e-10 5.83846e-09 6.49292e-08)
(-4.13246e-09 8.73556e-10 2.57366e-08)
(-1.7145e-09 1.48175e-09 2.32992e-07)
(-3.47835e-10 2.41222e-09 1.01993e-07)
(-1.67872e-09 -2.37885e-09 3.03721e-07)
(-8.50719e-10 -4.94259e-10 2.76058e-07)
(-1.59598e-09 8.41323e-10 2.72707e-07)
(-1.10237e-09 1.07882e-09 2.04866e-07)
(-2.89707e-09 4.91608e-09 8.90821e-08)
(1.01191e-09 4.20822e-10 2.15763e-07)
(-2.71549e-09 -5.86047e-09 1.27944e-07)
(-4.5267e-10 1.03609e-09 2.0091e-07)
(-9.48238e-10 -1.13925e-09 1.72446e-07)
(8.57108e-10 -1.35845e-09 8.13124e-08)
(-1.88296e-09 -8.52694e-10 2.81875e-07)
(1.06174e-09 1.00919e-09 2.94678e-07)
(-1.27325e-09 -1.2949e-09 3.42029e-08)
(-3.85877e-09 8.48298e-10 7.03096e-08)
(-4.40794e-10 1.08572e-09 1.89726e-07)
(-4.43151e-09 7.78537e-09 1.26061e-07)
(6.91757e-10 1.01818e-09 2.31288e-07)
(-6.62841e-10 3.5515e-10 1.70727e-07)
(-1.54792e-09 -1.56654e-09 2.94543e-07)
(-1.42998e-09 -2.3819e-09 2.90761e-08)
(-1.36101e-09 -1.21759e-09 3.37245e-08)
(-1.82273e-09 1.14559e-11 4.23689e-08)
(7.61265e-10 -8.37694e-10 1.16272e-07)
(-2.77252e-09 -7.18612e-10 1.82813e-07)
(-4.09379e-09 4.21277e-10 4.08953e-07)
(2.7423e-09 -4.03863e-10 9.22066e-08)
(1.15586e-09 2.51809e-10 2.31441e-07)
(2.46763e-09 1.70428e-09 2.04092e-08)
(1.46113e-09 1.08702e-09 1.1692e-07)
(2.7716e-09 1.63084e-09 2.93597e-08)
(6.82072e-10 2.68138e-10 1.52802e-07)
(-3.84172e-10 -1.03068e-09 1.60771e-07)
(-9.9488e-10 1.27894e-10 1.9506e-07)
(-1.16762e-09 4.04834e-09 1.97843e-07)
(6.01761e-10 4.23914e-10 2.67841e-07)
(-7.26494e-10 -4.28138e-10 2.07247e-07)
(3.73126e-09 -1.24996e-09 3.70403e-07)
(-1.06654e-09 3.6469e-10 2.13132e-07)
(8.34233e-10 4.33078e-10 1.77507e-07)
(1.08989e-10 8.76986e-10 2.80352e-07)
(-9.17964e-10 2.56025e-09 2.80255e-07)
(-3.79966e-10 1.13705e-09 2.93274e-07)
(-4.71227e-10 -1.57896e-10 1.1887e-07)
(-2.7794e-09 3.00189e-10 2.78927e-07)
(2.39505e-09 4.1798e-09 8.68339e-08)
(-5.01805e-10 3.64238e-09 1.03833e-07)
(-1.82921e-09 7.11979e-10 2.22591e-07)
(-1.02464e-09 1.69133e-09 2.54003e-07)
(5.73132e-09 1.80396e-09 2.46308e-07)
(4.04039e-11 1.59378e-09 2.68908e-07)
(1.67354e-09 2.32475e-10 7.78231e-08)
(2.8398e-10 -5.37727e-09 1.14303e-07)
(-2.8179e-10 -1.67246e-09 2.97182e-07)
(4.46468e-09 4.66467e-10 2.2507e-07)
(-7.94957e-10 -1.26787e-09 6.58403e-08)
(-4.01506e-10 2.12569e-09 7.92271e-08)
(-2.85996e-09 3.52704e-09 1.70111e-07)
(-7.80676e-10 -5.09727e-10 1.76757e-07)
(-4.21587e-09 5.49521e-09 3.2186e-07)
(-8.46415e-10 2.15314e-09 1.56771e-07)
(-2.75769e-09 7.46011e-10 3.22814e-07)
(3.29793e-10 5.64543e-09 1.99474e-07)
(-1.25365e-09 -2.58686e-09 2.11701e-08)
(8.58703e-10 2.0275e-09 2.90507e-07)
(2.61224e-09 -1.95461e-09 3.10991e-08)
(2.32471e-09 1.27871e-09 5.60745e-08)
(-1.79114e-09 -1.453e-09 3.27018e-07)
(-3.63452e-10 9.37384e-10 2.51935e-07)
(-4.02541e-09 2.04349e-09 2.98202e-08)
(-8.59375e-10 -2.13534e-09 3.06377e-07)
(-2.1534e-09 -3.70072e-09 2.53615e-07)
(3.67807e-10 9.44629e-10 2.4009e-07)
(6.95611e-10 -7.40538e-10 3.01403e-07)
(2.16829e-09 -2.08664e-09 2.51661e-08)
(-1.19405e-09 7.73522e-10 2.59762e-07)
(-6.18091e-10 -9.824e-10 1.36341e-07)
(-3.96431e-10 -9.93558e-10 1.50344e-07)
(-1.72419e-09 -6.62861e-10 2.5464e-07)
(-1.79354e-09 1.0802e-09 1.69491e-07)
(-9.73822e-10 -6.28099e-10 1.84281e-07)
(2.58516e-10 -1.72452e-09 2.55358e-07)
(3.31231e-11 2.37677e-09 4.15564e-08)
(1.49912e-09 -2.51575e-09 2.7271e-07)
(1.39907e-09 1.10356e-09 1.92162e-07)
(-1.37498e-09 -2.13527e-09 3.33489e-07)
(-2.04802e-10 -1.75519e-09 2.52687e-07)
(2.16752e-09 -1.38644e-09 3.1672e-07)
(2.33238e-09 -2.90995e-09 1.45217e-07)
(-6.76444e-10 -1.37049e-09 2.12436e-08)
(9.9845e-10 6.07036e-10 3.82704e-08)
(-3.68851e-09 2.87761e-09 5.0052e-07)
(-2.84287e-09 1.1312e-09 1.97709e-08)
(-2.17296e-09 -2.2117e-09 1.82096e-07)
(-1.41304e-09 4.23772e-09 7.75322e-08)
(1.27936e-09 -1.35306e-09 3.0132e-07)
(-6.40887e-10 -9.79577e-10 3.55043e-07)
(1.8679e-10 8.34601e-10 3.11048e-07)
(2.63176e-09 1.08229e-09 1.29476e-07)
(6.93233e-09 -1.95477e-10 3.05219e-07)
(2.14827e-10 7.572e-09 7.24042e-08)
(1.19707e-09 -2.7843e-09 9.00544e-08)
(1.19425e-10 -2.77009e-10 1.92752e-07)
(1.0335e-09 -2.24618e-09 1.62435e-07)
(-3.19736e-08 -3.93833e-09 2.69464e-07)
(5.31271e-10 -4.55673e-09 1.98599e-07)
(-8.03674e-10 -4.6829e-11 6.87031e-08)
(3.45238e-09 -1.68477e-10 1.08439e-07)
(-7.13295e-10 -3.2728e-09 2.12824e-07)
(-5.87647e-11 -6.69495e-11 2.02544e-07)
(-4.70372e-10 -8.55762e-10 3.89364e-07)
(-1.23198e-09 7.53389e-10 2.06861e-07)
(1.68236e-10 4.46971e-09 4.76844e-07)
(-9.30091e-09 -1.40513e-09 1.67764e-07)
(-3.31247e-09 7.04751e-10 3.41667e-07)
(-1.8621e-09 2.22097e-09 2.63002e-07)
(3.86258e-10 1.488e-10 1.91257e-07)
(2.06389e-09 -3.56713e-10 3.26521e-07)
(-4.73538e-09 -4.3917e-09 1.0906e-07)
(3.13497e-09 -1.20527e-09 2.4811e-08)
(1.53517e-09 -2.93114e-10 2.9027e-07)
(1.77657e-09 3.98954e-09 6.24216e-08)
(1.29594e-11 -2.02919e-10 3.03571e-08)
(-3.80734e-09 -3.46264e-10 3.79602e-07)
(8.15173e-10 6.84216e-10 1.9974e-07)
(-2.91767e-09 4.59906e-09 1.08343e-07)
(-1.08382e-09 -1.44322e-09 2.38743e-07)
(7.59346e-10 2.9721e-09 3.16256e-07)
(-2.38064e-09 1.62909e-10 3.90382e-07)
(-8.20377e-10 -3.58705e-10 2.52174e-07)
(-1.6137e-10 -1.44518e-09 3.32394e-08)
(3.02229e-10 -7.28915e-10 3.10479e-07)
(-1.8575e-09 3.10602e-10 2.02932e-07)
(2.48337e-10 1.33332e-09 1.04456e-07)
(-1.22292e-10 -2.41759e-09 2.71232e-07)
(-4.39626e-10 4.68743e-10 2.34742e-07)
(9.05655e-10 7.75011e-10 1.75799e-07)
(8.25215e-10 8.47458e-10 2.02556e-07)
(-6.81011e-10 -2.29213e-09 2.7002e-07)
(1.11743e-09 1.56914e-09 2.01119e-07)
(-4.54252e-10 1.21046e-10 8.14669e-08)
(-3.96591e-10 1.0326e-09 2.13416e-08)
(2.48135e-10 2.90359e-09 4.17617e-08)
(1.17409e-09 6.30032e-10 2.28682e-07)
(-3.875e-08 -4.1823e-11 2.68093e-07)
(-1.13637e-08 1.20794e-09 1.15861e-07)
(2.68096e-10 -4.52096e-10 1.16753e-07)
(3.05888e-09 -2.68957e-09 2.54128e-07)
(-6.17375e-10 9.63493e-10 3.11095e-07)
(-4.50805e-09 1.13234e-09 2.25755e-07)
(1.68954e-09 4.66636e-10 3.5457e-07)
(-1.26461e-09 -9.38183e-10 3.42408e-07)
(-5.93168e-10 -7.98515e-10 2.20758e-07)
(-1.11802e-09 -1.15483e-10 1.36143e-07)
(-3.49242e-10 6.76145e-10 2.54134e-08)
(-4.76965e-08 1.79014e-09 2.40983e-07)
(6.7573e-10 2.54952e-09 9.18246e-08)
(-1.66118e-09 2.69508e-09 6.81072e-08)
(1.22039e-09 5.55218e-10 7.20345e-08)
(-3.14225e-11 1.42772e-10 1.67712e-07)
(-4.56856e-10 5.37138e-10 1.79948e-07)
(-1.32809e-09 2.33569e-10 2.30146e-07)
(-1.2214e-09 1.39694e-09 1.8128e-08)
(4.43755e-10 -3.18606e-10 1.72224e-07)
(1.79194e-09 -9.7064e-10 6.86911e-08)
(-3.17788e-10 7.38717e-10 1.79237e-07)
(-5.69719e-10 7.41506e-10 5.87223e-08)
(4.35048e-09 1.67472e-09 1.54415e-07)
(1.67862e-09 5.21761e-09 2.27354e-07)
(-1.69696e-09 3.74124e-10 1.828e-07)
(2.75346e-09 -1.48155e-10 2.03469e-08)
(-3.20265e-11 5.42635e-09 1.18452e-07)
(-3.80854e-10 -1.05797e-09 2.40455e-07)
(-2.62e-12 -2.62139e-09 2.6983e-08)
(-1.82866e-08 -3.04163e-10 2.89274e-07)
(5.43303e-10 -3.88859e-09 1.8648e-07)
(4.06617e-10 -4.25391e-09 3.06884e-07)
(4.93894e-09 -5.13623e-09 2.07385e-07)
(2.19586e-09 6.1442e-10 9.75712e-08)
(2.77425e-09 -1.48951e-09 3.84047e-07)
(-1.85238e-08 -5.97228e-09 1.42187e-07)
(-2.19442e-09 -7.04701e-10 3.04163e-07)
(-1.7065e-08 9.74941e-10 1.55466e-07)
(-5.20874e-09 3.89464e-09 1.49596e-07)
(-1.09808e-09 3.30731e-09 1.50874e-07)
(-5.37692e-10 -1.46082e-09 2.54015e-07)
(2.05685e-09 -3.71395e-09 5.07827e-07)
(9.51068e-10 -7.76875e-10 8.48895e-08)
(-6.70362e-10 -1.9308e-09 3.43693e-07)
(-2.70011e-09 9.96784e-10 1.24652e-07)
(1.48429e-09 -1.53591e-09 4.04851e-07)
(9.51384e-10 -1.94967e-09 3.0897e-07)
(-1.66705e-09 -5.57556e-09 7.47014e-08)
(-8.44685e-10 1.13283e-09 2.20434e-07)
(5.28096e-09 -4.0393e-10 3.80473e-07)
(-4.95379e-10 -5.1001e-10 2.2714e-07)
(4.26318e-10 -6.46956e-10 2.18206e-07)
(2.90664e-09 -1.55667e-09 2.54432e-08)
(-2.75657e-09 -7.52618e-10 2.11639e-08)
(-2.95521e-09 3.02443e-09 2.97466e-07)
(2.24385e-10 -2.34671e-10 2.66739e-07)
(1.47088e-09 1.39631e-09 2.04466e-07)
(-2.43717e-09 1.25363e-09 3.85035e-08)
(4.44773e-10 -5.18023e-10 8.42882e-08)
(-2.92419e-09 4.3481e-10 3.13931e-07)
(-8.07137e-10 -4.90135e-10 1.55557e-07)
(1.88604e-09 1.38597e-09 2.91575e-07)
(1.08814e-09 8.29859e-10 2.64082e-07)
(-3.27421e-10 -1.59824e-09 2.06799e-07)
(-2.86397e-10 -2.4231e-09 2.2149e-07)
(3.30581e-10 -7.24224e-10 1.27947e-07)
(-1.71045e-09 4.62169e-10 1.98138e-07)
(-3.16918e-09 3.87233e-09 9.34377e-08)
(-2.61344e-10 3.23947e-10 2.75208e-07)
(-1.75501e-09 -1.3173e-09 1.96977e-07)
(-1.6241e-09 4.10214e-10 2.09605e-07)
(-4.84234e-10 -4.01982e-10 2.06879e-07)
(-3.15236e-10 4.93459e-10 3.48764e-07)
(2.01732e-09 -4.36036e-12 2.64011e-07)
(3.16061e-09 4.58718e-09 7.26146e-08)
(1.1659e-09 5.66083e-11 4.82305e-08)
(-1.98264e-09 -1.96791e-09 2.11402e-08)
(-1.08044e-08 1.62187e-10 2.27957e-07)
(-1.48788e-11 1.01164e-10 2.70634e-07)
(-1.83044e-09 9.55671e-11 2.70402e-07)
(1.42589e-10 -2.25104e-09 1.97169e-07)
(1.09279e-09 2.21905e-10 3.21508e-08)
(7.9428e-10 -2.67827e-09 2.42748e-08)
(-1.31569e-09 -2.43264e-09 1.86968e-07)
(-1.74167e-09 1.12974e-09 2.26359e-07)
(-8.85724e-10 -1.04572e-09 2.90619e-07)
(1.02242e-09 -1.00468e-09 3.16109e-07)
(-1.93985e-09 -4.99597e-10 2.01715e-07)
(-8.85527e-10 1.43823e-09 3.13062e-07)
(2.9448e-09 -8.2566e-10 3.80243e-07)
(-1.51825e-09 2.97663e-09 3.41468e-08)
(-3.28158e-10 7.93891e-10 1.87264e-07)
(3.45387e-09 -2.03019e-09 7.80874e-08)
(-9.88021e-09 -1.08997e-09 9.76319e-08)
(9.80011e-11 1.59649e-10 1.25283e-07)
(5.65404e-10 -8.51377e-11 1.49939e-07)
(2.47023e-10 -2.76929e-10 2.50762e-07)
(-3.53007e-09 2.1671e-09 2.11008e-08)
(2.80014e-09 -1.3735e-09 3.31669e-07)
(-2.46494e-10 -1.23625e-10 2.47079e-07)
(-1.56211e-09 5.91618e-10 1.99557e-07)
(1.64941e-09 -1.36825e-09 2.12592e-07)
(-1.78013e-10 -1.1471e-09 1.67314e-07)
(-1.20933e-09 -1.15247e-09 2.444e-07)
(1.28877e-10 8.08933e-10 2.51417e-07)
(-1.84268e-09 7.17023e-10 2.77496e-07)
(-7.46524e-09 -1.22977e-09 1.69501e-07)
(-4.10755e-10 -5.27571e-10 2.54211e-07)
(-4.27871e-09 1.41724e-09 2.88708e-07)
(1.50426e-09 -1.2246e-09 2.00204e-08)
(2.66548e-10 1.47907e-09 2.83621e-07)
(2.12611e-09 2.22957e-09 1.95937e-07)
(-4.22781e-09 -4.0483e-09 6.94714e-08)
(-1.4901e-09 2.79626e-09 1.80504e-07)
(1.09512e-09 7.85287e-10 3.27839e-07)
(3.11302e-12 -1.23383e-09 2.29465e-07)
(1.4232e-09 3.20562e-09 1.25798e-07)
(-2.20521e-09 1.49973e-09 1.97381e-08)
(-3.97882e-10 1.36865e-09 2.41367e-07)
(9.31116e-10 6.32422e-09 3.43877e-07)
(-5.64236e-10 2.53854e-10 2.2948e-07)
(-1.16163e-09 -6.44268e-11 1.92727e-07)
(-3.79354e-09 9.84128e-10 6.20593e-08)
(9.57839e-10 -3.89868e-11 2.51629e-07)
(-4.05378e-09 2.42422e-10 2.71462e-08)
(-7.35917e-11 4.96e-10 1.67385e-07)
(-2.43801e-08 1.2291e-09 2.08658e-07)
(7.07067e-10 6.4513e-10 2.42485e-07)
(-5.74902e-10 3.21628e-09 9.4823e-08)
(-2.2093e-09 2.80982e-09 1.9077e-07)
(-4.71202e-10 1.71211e-09 1.20991e-07)
(2.85243e-09 -2.77231e-09 5.12761e-08)
(1.2967e-09 8.98864e-10 4.22636e-07)
(-1.10204e-09 1.87386e-10 1.96513e-07)
(-1.90439e-09 -7.01281e-10 1.93924e-08)
(1.04321e-09 -1.91875e-09 2.6807e-07)
(-1.03984e-09 -1.5447e-09 2.56942e-07)
(-6.03781e-10 2.25131e-09 4.19257e-08)
(3.07159e-09 5.03828e-09 1.36092e-07)
(-2.76978e-09 3.61984e-09 1.05828e-07)
(-6.52333e-10 1.259e-09 1.86045e-07)
(3.24195e-10 -4.83903e-10 2.38513e-07)
(-1.27614e-09 1.34476e-09 3.55031e-08)
(3.05736e-09 -1.3458e-09 9.79901e-08)
(-5.38446e-10 2.18576e-09 1.09123e-07)
(1.82624e-09 1.37019e-09 1.81332e-07)
(2.94965e-10 -9.20301e-10 3.07401e-07)
(-2.98733e-09 -1.96023e-09 2.52759e-08)
(2.68792e-09 1.56567e-09 3.57715e-07)
(-2.33763e-09 -1.2678e-09 2.34251e-07)
(-7.29567e-10 -1.58354e-09 2.5161e-07)
(-2.97331e-09 -6.11781e-09 1.14195e-07)
(2.26865e-09 8.89466e-10 3.19556e-07)
(1.32465e-09 -2.3006e-09 2.48983e-08)
(-1.20865e-09 2.00958e-12 2.85823e-07)
(2.0351e-10 -4.80481e-10 2.99385e-08)
(6.44392e-10 -4.40395e-09 1.40938e-07)
(1.31337e-10 1.23077e-09 2.23302e-07)
(-2.52685e-09 3.7325e-09 1.46511e-07)
(-2.84652e-09 1.65154e-09 2.09603e-08)
(4.36865e-10 -2.01266e-09 5.49291e-08)
(5.98061e-10 4.97705e-09 8.18949e-08)
(1.88798e-09 -4.31973e-09 1.40786e-07)
(-1.7529e-09 3.45369e-10 3.25027e-07)
(-5.61038e-11 1.37118e-09 6.14374e-08)
(2.55156e-09 -4.81901e-09 1.45364e-07)
(-2.64997e-08 9.68588e-10 2.255e-07)
(-1.15497e-09 -2.70151e-10 2.00447e-07)
(2.01919e-09 -2.90597e-11 3.15128e-08)
(9.2349e-10 1.89725e-09 2.34426e-07)
(-1.51507e-08 -7.76731e-09 1.47546e-07)
(1.88963e-09 1.02719e-10 1.90203e-07)
(-1.82982e-09 1.57393e-09 1.06195e-07)
(-1.32516e-09 7.04206e-11 1.66528e-07)
(2.92382e-09 4.86586e-09 1.13752e-07)
(-9.86445e-10 4.18346e-10 1.64284e-07)
(-7.22966e-10 -3.65693e-10 1.49471e-07)
(4.31171e-09 -6.51975e-09 7.79743e-08)
(-5.75666e-11 2.11284e-10 2.78233e-07)
(-4.61611e-09 -1.3607e-09 7.14469e-08)
(2.34469e-09 -1.45889e-09 1.69846e-08)
(-1.16218e-09 7.11631e-10 3.13315e-07)
(2.15392e-10 -7.81033e-10 1.74719e-07)
(-1.8865e-09 7.40435e-10 2.98587e-07)
(1.49691e-09 -2.89959e-09 2.32447e-07)
(4.36555e-09 -5.68795e-10 4.30236e-07)
(3.77607e-09 -3.92568e-10 1.4617e-07)
(4.03105e-09 -5.26502e-10 3.90085e-07)
(2.40765e-09 4.90952e-09 1.04012e-07)
(-5.35862e-10 -4.37858e-10 1.42842e-07)
(4.55181e-09 1.65613e-09 3.12335e-07)
(-4.13161e-09 -2.68222e-09 3.52502e-08)
(-9.59412e-10 1.00888e-09 2.99159e-07)
(2.53098e-09 -3.0269e-09 1.22372e-07)
(1.66928e-09 2.80746e-09 3.25404e-08)
(-9.73359e-10 3.06311e-10 2.7809e-07)
(-2.3984e-09 1.15714e-10 6.71031e-08)
(-1.45244e-10 8.1564e-10 2.03553e-07)
(5.20063e-10 8.56999e-10 2.03406e-07)
(-1.02247e-09 3.03916e-09 3.7696e-07)
(4.50373e-11 6.53619e-09 1.02169e-07)
(2.57463e-09 -3.49776e-10 2.7099e-07)
(2.80255e-09 7.28423e-10 1.59823e-07)
(-4.02216e-10 9.28577e-10 2.94728e-07)
(2.58363e-10 2.20587e-10 2.99981e-07)
(1.57707e-09 1.19306e-09 2.64239e-07)
(2.13004e-10 -5.91459e-10 1.55848e-07)
(3.32976e-09 -1.41338e-09 5.21804e-08)
(7.46914e-10 5.48873e-10 7.4568e-08)
(-4.35856e-10 1.73678e-10 1.68332e-07)
(-8.31298e-10 -2.73343e-09 2.79822e-07)
(4.04583e-10 2.29301e-09 3.08722e-08)
(6.00787e-11 -3.8363e-10 2.38956e-07)
(1.75227e-10 9.35141e-10 4.49045e-07)
(1.8928e-09 2.31014e-09 3.32518e-07)
(2.26404e-09 2.66592e-09 3.53141e-07)
(-2.17822e-09 1.72032e-09 2.56702e-07)
(-1.72979e-09 2.31349e-09 2.18694e-08)
(8.17541e-10 1.93383e-10 2.17168e-07)
(1.54509e-09 -2.27983e-09 1.53115e-07)
(-6.25294e-10 -2.36733e-10 2.59937e-07)
(-1.09411e-10 1.09647e-10 1.6745e-07)
(-2.46367e-09 -1.37967e-09 3.86658e-08)
(-9.77276e-10 3.71421e-10 1.95335e-07)
(-2.94783e-09 3.96564e-09 1.57745e-07)
(9.22888e-10 -2.45765e-10 2.48686e-07)
(1.54242e-09 1.99418e-09 2.52678e-07)
(-1.47146e-09 1.84542e-09 2.00059e-07)
(1.37426e-09 1.70001e-09 1.48461e-08)
(-2.30471e-09 1.01769e-09 2.18634e-08)
(-1.97937e-10 -1.17501e-09 1.75493e-07)
(5.39714e-10 -1.04573e-09 2.9277e-07)
(-4.5725e-10 2.03116e-09 2.14053e-07)
(-1.15245e-09 -3.52879e-10 1.78684e-07)
(-6.22722e-10 2.57609e-09 1.6708e-07)
(-5.40924e-10 2.02647e-09 2.54199e-07)
(1.86863e-10 5.21479e-10 2.73415e-07)
(7.477e-10 1.69085e-09 2.1181e-08)
(-2.23411e-10 -9.73894e-10 1.38965e-07)
(-1.82263e-08 1.34637e-09 1.73937e-07)
(-1.07482e-10 2.67161e-09 5.02384e-08)
(-6.11648e-10 5.87121e-09 8.99936e-08)
(-6.64502e-11 2.3787e-09 3.08439e-07)
(2.74671e-09 -5.95824e-10 2.13854e-07)
(4.02594e-10 -9.99086e-10 1.98978e-07)
(1.56859e-09 -7.30657e-10 2.42896e-07)
(-4.132e-09 2.87992e-09 1.44958e-07)
(-5.58593e-10 -4.29541e-10 3.11508e-07)
(1.76898e-09 -5.36847e-09 1.87186e-07)
(3.37794e-09 -1.31985e-09 4.09747e-07)
(2.9187e-10 1.43218e-10 2.09122e-07)
(1.82428e-09 -9.48741e-10 2.25039e-07)
(2.11697e-09 -1.70901e-09 2.98794e-07)
(1.99162e-09 1.68153e-09 5.15637e-08)
(4.01629e-09 -3.65426e-10 5.26272e-07)
(-3.80549e-10 -1.72357e-09 3.63848e-08)
(-1.66521e-08 -2.26414e-09 1.48954e-07)
(3.94867e-09 -2.6821e-09 1.23942e-07)
(-1.6357e-08 -1.00221e-10 1.6153e-07)
(1.33744e-09 5.74932e-10 2.17938e-07)
(-4.78256e-08 1.23299e-09 2.90738e-07)
(1.95625e-10 2.37726e-10 1.32789e-07)
(-1.58e-10 -1.89006e-11 3.0958e-07)
(-8.45928e-10 6.54535e-10 3.33222e-07)
(1.1536e-09 1.02682e-09 2.04034e-07)
(-6.38042e-10 -1.6361e-10 3.81336e-08)
(-5.39153e-09 1.72192e-10 1.18485e-07)
(-3.00751e-08 2.13445e-09 2.10246e-07)
(-4.172e-10 -1.05502e-10 2.04198e-07)
(-5.71163e-10 2.22336e-09 1.044e-07)
(-2.12157e-08 1.52653e-09 2.17786e-07)
(-6.3152e-09 1.1444e-09 2.34012e-07)
(2.12237e-09 2.67787e-09 3.20578e-07)
(-1.71634e-09 -7.65557e-10 4.78023e-08)
(1.64261e-09 2.74576e-09 5.7636e-08)
(-2.35977e-10 -1.22121e-10 2.96356e-08)
(1.24854e-09 1.09796e-09 2.14831e-08)
(-3.32372e-10 -7.50337e-11 4.77579e-08)
(-1.56487e-08 1.07807e-09 2.2201e-07)
(-9.65945e-10 -1.83542e-10 1.83697e-07)
(-1.99947e-09 -2.11948e-09 2.04545e-08)
(-2.89585e-09 7.53274e-10 2.24427e-08)
(8.15929e-10 1.08195e-09 3.29363e-07)
(-2.56408e-08 5.62873e-09 1.66203e-07)
(-2.32279e-09 8.04101e-11 5.05348e-08)
(-3.92223e-10 -3.67202e-10 2.27486e-07)
(-1.76376e-09 7.77248e-10 1.12116e-07)
(1.75509e-09 -3.81914e-10 2.06119e-07)
(1.53557e-09 2.2863e-09 4.79348e-08)
(-1.9731e-09 -2.55049e-09 9.91265e-08)
(4.71987e-10 1.9332e-09 1.99813e-07)
(4.64805e-10 6.44705e-10 2.5891e-07)
(1.18895e-11 2.19937e-09 3.96118e-07)
(-2.40373e-09 3.30352e-09 4.68918e-08)
(-7.39333e-10 -2.31485e-09 2.6674e-08)
(-3.58619e-08 4.04853e-10 2.01614e-07)
(-3.21409e-09 2.19237e-09 3.03115e-08)
(-2.44187e-10 3.49841e-09 3.15131e-07)
(-4.11381e-09 -1.23617e-09 3.16599e-08)
(8.34854e-10 3.19173e-09 1.54645e-07)
(-9.41512e-10 -4.85844e-10 2.90909e-07)
(2.77233e-09 1.45214e-09 4.14198e-07)
(-7.00671e-10 -1.41759e-09 6.39589e-08)
(1.23769e-09 -1.01327e-09 1.46082e-07)
(-2.21363e-09 -3.84222e-10 4.18419e-08)
(-3.93992e-09 -1.98064e-10 3.1466e-08)
(5.14168e-10 -1.13122e-09 2.47747e-07)
(-2.25795e-09 1.06346e-09 1.61083e-08)
(1.63907e-09 -2.72153e-10 1.73661e-07)
(-6.61163e-10 -3.25363e-09 6.63551e-08)
(-3.61963e-10 1.79057e-09 3.2141e-07)
(-3.15457e-10 5.89648e-10 2.28379e-07)
(3.08768e-09 1.25319e-09 2.10048e-08)
(-2.34815e-09 -6.42932e-09 1.43986e-07)
(1.15341e-10 7.25287e-10 2.46553e-07)
(-8.19111e-11 1.57488e-09 3.39642e-08)
(9.22542e-10 -1.43773e-09 2.79677e-07)
(-1.96401e-09 5.85581e-09 8.53542e-08)
(5.60262e-10 3.1856e-11 2.24148e-07)
(8.08652e-10 1.04818e-09 2.13946e-07)
(2.20544e-09 1.53043e-10 6.00516e-08)
(-3.08793e-09 -6.2198e-10 2.30165e-08)
(-1.83583e-09 -7.87831e-10 1.00064e-07)
(-3.91324e-08 1.33655e-10 2.43599e-07)
(-1.29022e-09 2.01547e-10 2.37186e-07)
(4.01265e-10 5.29943e-09 8.31471e-08)
(3.20206e-09 -3.24098e-10 1.95051e-07)
(4.1957e-10 1.13397e-09 2.67204e-08)
(9.52976e-10 8.36375e-10 1.89335e-07)
(1.10283e-09 1.39749e-09 2.51732e-08)
(-7.43388e-10 2.74157e-09 3.24541e-07)
(1.12234e-09 1.07491e-09 3.04096e-07)
(4.61979e-10 3.30655e-10 2.12351e-07)
(-1.59264e-09 -1.94069e-10 1.57196e-08)
(2.1854e-09 1.00221e-09 3.41086e-07)
(-4.86758e-10 8.97116e-10 1.64015e-07)
(6.44551e-10 1.36935e-09 3.51478e-07)
(1.5077e-10 5.22479e-10 6.74164e-08)
(-3.01486e-08 8.32275e-10 2.22507e-07)
(-2.07389e-09 1.76463e-09 2.59122e-07)
(1.07476e-09 -8.77272e-12 7.19479e-08)
(2.35406e-11 1.03494e-09 2.35756e-07)
(-3.94388e-08 4.61539e-09 2.10032e-07)
(-8.93783e-10 -5.54235e-10 1.86494e-07)
(-7.87491e-10 -1.94982e-09 3.54355e-08)
(-2.45492e-09 5.04945e-09 1.09729e-07)
(-4.05252e-11 7.10862e-11 1.79334e-07)
(6.89335e-10 -2.1162e-09 2.21754e-07)
(-1.18664e-09 1.52363e-09 3.4859e-08)
(-4.41404e-10 -3.6968e-09 2.26086e-07)
(4.76112e-09 2.92255e-09 1.68005e-07)
(-1.88722e-09 2.10222e-09 2.69845e-08)
(-2.81393e-10 -1.07067e-10 1.92116e-07)
(-1.55617e-08 7.28134e-10 1.58301e-07)
(-2.46037e-09 -5.7422e-09 3.32958e-07)
(5.33337e-11 2.10814e-10 1.91873e-07)
(5.53683e-10 1.83995e-10 1.72806e-07)
(1.10353e-09 -5.17622e-10 2.9695e-07)
(1.4723e-09 6.42655e-10 2.6059e-07)
(2.03092e-09 7.20934e-10 7.62923e-08)
(-8.39102e-10 5.30675e-09 7.80974e-08)
(2.98077e-09 4.43979e-10 3.56484e-07)
(-2.68556e-08 -1.12644e-09 2.24751e-07)
(4.13867e-10 2.29617e-09 2.15622e-07)
(1.73906e-09 -1.02682e-09 1.93636e-07)
(3.01168e-09 -1.26652e-09 1.34545e-07)
(-4.38304e-10 1.38925e-09 3.21225e-07)
(-2.44944e-10 9.4383e-10 1.96888e-07)
(-2.07242e-09 -1.52148e-09 1.89793e-07)
(-3.20136e-09 2.99916e-09 2.35886e-07)
(-1.33297e-09 2.55835e-09 4.59479e-08)
(-1.76763e-09 -8.36731e-10 1.80718e-07)
(-2.64836e-09 -2.01751e-09 4.29496e-08)
(6.88811e-10 -1.9905e-09 3.08898e-07)
(1.6161e-11 -5.24517e-10 3.08804e-07)
(-3.98813e-10 5.04328e-09 1.75107e-07)
(1.96002e-10 -1.52086e-09 1.67812e-07)
(1.1591e-09 -1.70248e-09 1.92805e-08)
(9.24508e-11 -1.08903e-09 1.1126e-07)
(-4.07481e-09 -1.86675e-09 8.08409e-08)
(-1.28093e-09 9.62224e-10 2.49413e-07)
(1.62798e-09 6.30611e-10 2.23138e-07)
(-2.3841e-08 -1.53292e-09 2.20544e-07)
(-2.51019e-09 5.10759e-10 3.01363e-07)
(-1.48195e-09 2.85164e-09 8.67451e-08)
(-1.12007e-08 5.09288e-10 1.36565e-07)
(3.63692e-11 -4.1769e-09 2.48997e-07)
(2.21771e-09 9.55883e-10 3.01551e-08)
(1.22997e-09 4.46391e-10 2.29087e-07)
(-2.41039e-10 1.62603e-09 5.7865e-08)
(-1.6915e-09 -6.53415e-10 2.06724e-07)
(4.43617e-09 -2.1822e-09 3.49566e-08)
(2.71871e-09 2.72673e-10 3.41886e-07)