/*--------------------------------*- C++ -*----------------------------------*\
| =========                 |                                                 |
| \\      /  F ield         | OpenFOAM: The Open Source CFD Toolbox           |
|  \\    /   O peration     | Version:  2406                                  |
|   \\  /    A nd           | Website:  www.openfoam.com                      |
|    \\/     M anipulation  |                                                 |
\*---------------------------------------------------------------------------*/
FoamFile
{
    version     2.0;
    format      ascii;
    arch        "LSB;label=32;scalar=64";
    class       volScalarField;
    location    "34";
    object      nut;
}
// * * * * * * * * * * * * * * * * * * * * * * * * * * * * * * * * * * * * * //

dimensions      [0 2 -1 0 0 0 0];

internalField   nonuniform List<scalar> 
59516
(
2.21348e-05
4.03658e-05
2.32398e-05
6.39397e-05
0.00110921
0.000186205
3.81446e-05
2.66253e-05
2.06168e-05
8.86338e-05
0.000567511
6.94097e-05
2.42975e-05
0.00015797
8.18874e-05
7.16494e-05
0.000306134
9.50238e-05
3.05733e-05
0.000204036
0.000141831
7.19206e-05
9.99486e-05
0.000135423
9.16236e-05
7.30665e-05
0.000129274
0.000160938
8.36539e-05
0.000138807
0.000242655
0.000153196
4.43991e-05
4.28788e-05
7.45021e-05
5.57722e-05
0.000135407
8.65627e-05
3.11796e-05
0.000121508
2.40437e-05
0.000224159
8.51598e-05
3.97481e-05
5.7088e-05
7.21723e-05
3.39861e-05
0.000300149
0.000869956
0.000169987
0.000624049
0.000125072
1.86129e-05
2.74334e-05
0.00015022
3.74553e-05
0.000325954
0.00014227
0.000362897
6.20495e-05
0.000104816
0.000149134
0.00026923
0.000265536
4.22372e-05
0.000106971
0.000194275
0.000124362
0.000428085
3.13788e-05
0.000213013
0.000224289
0.000171753
7.67928e-05
0.00047382
0.000153091
0.000286571
9.18548e-05
0.000120818
0.000183445
0.00012598
0.000120815
6.97628e-05
0.000157682
0.000116431
0.000391377
0.000123601
6.96876e-05
7.32919e-05
5.48309e-05
0.000578844
8.76362e-05
0.000283104
7.31735e-05
0.00021818
0.00109685
8.71378e-05
7.27233e-05
8.01781e-05
0.000100827
0.000144211
0.000173119
0.000169676
7.21787e-05
4.78923e-05
0.000140156
0.000135878
1.8089e-05
3.17901e-05
7.97783e-05
0.000252496
0.000186631
8.48854e-05
0.00015756
0.000145461
2.68522e-05
7.3321e-05
5.57594e-05
0.000158147
8.76137e-05
0.000617981
0.000280894
0.000135194
0.000280107
0.000251495
3.14121e-05
0.000189956
0.000135301
0.000281215
0.000436297
0.000568967
2.26869e-05
0.000150951
6.20693e-05
3.2859e-05
1.89736e-05
0.000114951
2.11971e-05
0.000133895
4.22884e-05
0.000126644
0.000495436
0.000134706
4.12979e-05
0.00044886
6.73598e-05
4.6536e-05
3.06328e-05
0.000251168
2.50643e-05
3.58262e-05
0.000121463
0.000164198
0.000101947
2.75712e-05
0.00014774
3.82948e-05
2.13036e-05
3.26831e-05
0.000150135
8.80018e-05
8.58459e-05
0.000129404
0.000178513
2.70179e-05
0.000286935
7.30482e-05
0.000383942
0.00014162
9.90797e-05
3.14095e-05
6.92197e-05
5.77402e-05
4.95001e-05
0.000107607
3.94585e-05
0.000300147
0.000103941
7.88206e-05
0.000108986
6.85565e-05
0.000124665
0.000200884
5.80511e-05
0.000420594
6.986e-05
0.00010545
0.000146104
2.31671e-05
2.91892e-05
7.78402e-05
7.21941e-05
0.000206429
5.19418e-05
8.71101e-05
0.000106236
6.9566e-05
0.000109342
4.8969e-05
8.58482e-05
5.29431e-05
0.000594484
2.34521e-05
0.000138429
3.31582e-05
6.94949e-05
0.000465593
0.000182572
0.000152119
3.66741e-05
8.24958e-05
0.000181931
7.40535e-05
7.81317e-05
2.87198e-05
0.000248743
5.72401e-05
9.1857e-05
8.02499e-05
0.000127809
8.23497e-05
4.46889e-05
0.000260445
0.000146383
0.000304129
0.000324459
0.000180619
0.000123726
0.000317949
7.63098e-05
0.000288377
0.000339089
0.000612507
0.00016451
0.000122552
0.000107162
5.97926e-05
2.17296e-05
0.000157641
8.70736e-05
0.000565157
0.000160513
6.75261e-05
0.000177918
0.000491297
2.47818e-05
9.97304e-05
7.96596e-05
0.000235849
2.1533e-05
0.000179692
7.59628e-05
0.000611489
9.82042e-05
7.84535e-05
0.000141812
8.27327e-05
0.000132432
0.000123059
7.92348e-05
3.32774e-05
0.000184188
3.063e-05
0.000334746
2.11676e-05
6.33414e-05
0.000175393
2.86459e-05
0.000155319
6.6642e-05
3.70422e-05
0.000330414
2.07222e-05
3.26816e-05
0.000221463
2.6016e-05
0.000145318
0.000154796
0.000163219
0.00012336
0.000543063
5.81561e-05
0.000181907
3.21948e-05
3.02874e-05
0.000314706
0.000477024
0.000183915
0.000524156
0.000674665
0.000363143
5.38823e-05
7.29883e-05
2.98593e-05
0.000250909
0.000194509
0.000195251
4.69891e-05
0.0006188
0.000318115
1.88517e-05
6.33303e-05
0.00015729
0.000167522
0.000127507
0.000157444
0.000112754
8.5184e-05
0.000227503
0.000223194
8.51432e-05
6.77171e-05
3.4057e-05
0.000138026
7.16971e-05
0.000189479
2.89643e-05
0.0010858
3.97273e-05
0.00011569
8.6538e-05
3.53144e-05
0.000397046
0.000535442
0.000609802
0.000136063
4.30887e-05
4.51439e-05
0.000275568
0.000174573
0.000147744
6.87557e-05
0.000166324
0.000106506
0.000117798
0.000125762
0.000206195
7.09709e-05
7.15364e-05
0.000348009
0.00017608
0.000533871
0.000353853
0.00011228
0.000144195
0.000471754
7.10796e-05
0.000540351
0.000399092
5.13375e-05
4.54751e-05
0.000128733
6.48046e-05
3.58835e-05
0.000130397
0.000133253
3.55324e-05
0.000144234
0.00026407
3.39459e-05
3.47179e-05
4.78901e-05
0.000521105
9.8882e-05
3.87555e-05
0.000110664
0.000116104
0.000132136
0.000288729
8.34586e-05
0.000117272
0.000128642
0.000196024
3.46777e-05
0.000177953
0.000144615
4.33423e-05
0.000129379
0.000247723
6.20726e-05
6.78927e-05
1.95885e-05
0.000587774
0.000167007
7.33651e-05
5.79624e-05
0.000157978
5.73072e-05
3.28287e-05
3.57028e-05
3.80635e-05
3.59705e-05
0.000162394
0.000129005
0.000545273
0.000101647
7.93903e-05
7.78886e-05
0.000457502
0.00040747
6.44207e-05
2.93713e-05
2.56589e-05
0.000480114
0.000444454
0.00013436
5.07721e-05
7.79667e-05
7.9393e-05
0.000128755
0.0001696
0.000159269
2.97532e-05
0.000391881
0.000538966
0.000127431
0.000328913
1.93676e-05
0.00046599
0.000404871
0.000503234
0.000385167
0.000350148
2.37732e-05
0.000501743
7.38575e-05
0.000255636
3.23498e-05
0.000135555
0.000426913
6.82821e-05
8.59731e-05
0.000112204
0.000127495
0.000148764
0.000334543
0.000499039
7.81306e-05
2.70819e-05
0.000113967
0.000159189
3.37745e-05
0.000144587
0.000409688
0.00012111
4.53241e-05
0.000569863
4.40664e-05
0.000177556
3.43792e-05
6.98035e-05
0.000254772
0.000155261
2.9658e-05
8.36862e-05
0.000159733
0.000469489
0.000465521
0.000481442
2.26401e-05
0.000144521
0.00036514
5.9242e-05
0.000556808
3.39614e-05
0.000301843
8.55256e-05
0.000149856
0.000445497
3.53866e-05
0.000127368
2.04969e-05
0.000264442
4.08088e-05
3.63068e-05
0.000154461
0.000338278
3.08105e-05
0.000141067
3.88008e-05
0.000111587
7.17308e-05
0.000179299
0.000222902
0.000792562
0.00030197
0.000138117
2.82255e-05
2.40376e-05
9.45859e-05
0.000641858
0.000434983
0.000174428
0.000221658
0.00063904
0.000144303
7.72307e-05
6.81918e-05
0.000139313
0.000508495
0.000217129
6.85025e-05
6.58956e-05
2.60825e-05
0.00054958
0.000167198
0.000119108
0.000125087
0.000477346
0.00023326
0.000206294
0.000153305
0.000214073
0.000155951
6.08632e-05
0.000118345
6.80019e-05
0.000159336
0.000139135
0.000122713
7.60924e-05
5.14035e-05
7.17836e-05
6.46185e-05
0.000422656
0.000356179
0.000174248
2.2816e-05
0.000120613
0.000315378
7.37314e-05
0.00030972
8.07188e-05
5.23761e-05
0.000460606
9.9798e-05
0.000314438
0.000152462
0.000145833
7.77512e-05
0.000519514
4.61017e-05
3.78401e-05
0.000429602
8.88515e-05
0.000220987
6.68711e-05
0.000404019
3.9744e-05
0.00017337
9.17759e-05
0.000134537
0.000173294
6.32648e-05
0.000112533
6.19625e-05
0.000530441
5.16432e-05
6.56998e-05
0.000399638
3.22576e-05
0.00048313
0.000403899
0.000494477
0.000513014
0.000119529
7.98073e-05
0.000400127
0.000161642
0.000134681
0.00020257
0.000337542
0.000322706
0.000446892
1.82334e-05
0.000149882
0.000264085
3.90173e-05
0.000150114
2.3991e-05
0.000178789
0.000542287
3.61899e-05
3.54083e-05
0.00053033
6.1384e-05
0.000122431
0.000158806
0.000456088
0.000291826
0.000632675
0.000155057
2.94971e-05
9.56879e-05
0.000402646
0.000146008
0.000533735
0.000178655
0.000138258
6.77151e-05
4.82629e-05
6.47538e-05
5.2803e-05
2.5429e-05
2.27241e-05
0.000577673
3.88975e-05
0.000326465
0.000296612
0.000506562
0.000393359
0.000143985
0.000193387
0.000125192
0.000207691
6.5822e-05
0.000579154
5.00307e-05
0.000162315
0.000360316
0.000253685
0.000110788
0.000340968
0.000124357
0.00148221
0.000708016
0.000469635
1.93013e-05
0.000180259
0.000424502
2.89139e-05
0.000114591
5.8365e-05
0.000164321
0.000173219
0.000190548
6.18308e-05
7.55966e-05
0.000167401
0.000160953
0.000691873
0.00021005
0.000126103
8.10604e-05
1.96179e-05
4.58431e-05
0.00014381
7.08512e-05
2.44668e-05
0.000306765
0.000104583
0.000126237
0.000155444
0.000391305
0.000186375
4.85923e-05
0.000176204
3.18875e-05
0.000476343
0.000280841
0.000117897
3.37335e-05
0.000111172
0.000183056
0.000426264
0.000142914
0.000270958
0.000140515
0.000141429
7.38376e-05
0.000153569
7.23751e-05
8.77508e-05
0.000124219
0.000225351
7.77798e-05
1.883e-05
0.000551748
0.000120875
0.000158735
0.000125629
0.000668871
2.46486e-05
7.40569e-05
2.30816e-05
0.000114494
0.000584225
0.000164164
0.000187563
4.02245e-05
0.000276183
0.000147355
6.48601e-05
3.30441e-05
0.000143322
8.16371e-05
0.000884145
0.000112782
0.00010766
0.000645564
0.000487632
2.28048e-05
0.000120697
0.000141331
0.000519735
3.03004e-05
0.000123282
2.09092e-05
7.09817e-05
0.000166653
0.000452082
0.00124491
2.95334e-05
0.000332169
0.000419325
0.000284961
3.97347e-05
0.000120425
0.00012587
0.000448668
0.000986239
2.03828e-05
4.25917e-05
3.42347e-05
7.33048e-05
0.000216329
3.12975e-05
2.06595e-05
0.000159153
7.95365e-05
0.000147994
0.000117402
0.000291582
2.83666e-05
2.32456e-05
0.000141363
3.57586e-05
8.06544e-05
0.000406905
0.000422939
0.00118201
0.000215915
2.84103e-05
0.000839438
6.20001e-05
0.000180251
0.000435928
7.22099e-05
5.64981e-05
0.000185456
0.000298854
0.00134708
0.000150097
2.2286e-05
0.000104356
7.65275e-05
0.000544373
0.000134528
0.000145036
0.000106792
0.000431784
0.000159244
6.37203e-05
0.000120593
0.000136626
4.35514e-05
3.68469e-05
0.000413831
3.88387e-05
0.00010337
4.13126e-05
0.000560013
0.000156378
2.72145e-05
0.000162082
0.000178042
0.000105912
7.09383e-05
0.000156453
4.81197e-05
0.000258463
7.00478e-05
0.000146369
2.32697e-05
0.000163437
2.15311e-05
0.000359226
0.000662343
0.000354186
0.000163346
0.000391629
3.76913e-05
0.000113703
0.000368596
3.74133e-05
2.76817e-05
4.99495e-05
0.000235548
2.29801e-05
6.12061e-05
9.95949e-05
0.000128264
2.88974e-05
3.08911e-05
7.87031e-05
0.00012918
0.000265067
6.76444e-05
0.000122452
0.000187042
6.7605e-05
0.000150019
3.32148e-05
0.000148736
3.91131e-05
9.03163e-05
6.46546e-05
0.000123336
0.00016501
0.000167686
0.000623259
0.000107892
0.000164158
2.50108e-05
2.29285e-05
0.000164647
0.000168433
0.000158858
0.000364022
0.000153703
4.5566e-05
9.95944e-05
0.000125183
3.28998e-05
0.000475435
0.000144263
0.00012781
2.74366e-05
2.54824e-05
0.000142932
7.77898e-05
0.000338055
0.000347457
0.000285642
3.85134e-05
0.000152801
0.000626837
3.60775e-05
0.000138715
0.000299853
2.22302e-05
0.000143256
0.00018537
0.000441036
9.9643e-05
2.85667e-05
3.2651e-05
2.18076e-05
3.42434e-05
2.36924e-05
3.50774e-05
3.08908e-05
6.09012e-05
0.000212752
0.000385513
0.00156451
3.93241e-05
3.29778e-05
4.47361e-05
0.000142188
0.000113926
3.7308e-05
5.90171e-05
4.53994e-05
0.000610547
8.53359e-05
0.000552419
0.000459156
0.000224799
3.88245e-05
0.000398408
0.00015653
4.94085e-05
0.000119716
0.000122759
0.000133602
0.000448198
2.96167e-05
0.000435039
0.000644088
0.000360374
7.14665e-05
0.00143853
0.000137841
2.16202e-05
0.000377038
0.000172234
8.27386e-05
6.88287e-05
3.94437e-05
0.000107699
0.000133574
0.000336709
0.000324514
0.000111555
3.51613e-05
0.000143408
0.000146413
0.00020232
3.34726e-05
3.8285e-05
0.000124165
0.000542795
0.000473423
0.000144108
0.000416433
3.05807e-05
4.27958e-05
0.000143382
7.11516e-05
2.5234e-05
0.000406484
9.64992e-05
0.000297727
0.000263341
0.000255472
0.000517806
0.000298844
0.000344353
0.000323772
0.000584896
0.00140678
4.68868e-05
4.32467e-05
0.000135199
7.41399e-05
0.000216773
2.41332e-05
0.000135093
0.000261086
2.53669e-05
0.000689503
0.000690231
0.000529433
9.73557e-05
2.96583e-05
0.000454335
0.000294933
2.59603e-05
0.000511629
0.000166844
0.000464719
0.000121378
2.86936e-05
0.000247933
6.56535e-05
0.000127472
0.000257059
0.000188934
7.76117e-05
0.00011469
0.000406553
0.000117018
3.14697e-05
6.38692e-05
5.96432e-05
3.03e-05
0.000601695
7.39171e-05
0.000128398
0.000248758
2.63096e-05
0.000549172
0.000608777
2.22654e-05
0.000532179
0.000381282
7.47122e-05
0.000564224
0.000122189
0.000125366
0.000343082
0.000210428
0.000200509
0.000429307
2.55366e-05
2.49534e-05
0.000384901
0.000167757
0.00027339
0.000434428
2.18405e-05
0.0001802
0.000159255
3.2468e-05
0.00012199
5.50237e-05
4.48763e-05
3.16194e-05
0.000144094
2.03879e-05
0.000239139
0.000239099
0.000677611
0.000499583
6.08707e-05
0.000188414
0.00047589
2.41833e-05
8.17116e-05
0.000124073
3.49715e-05
0.000160746
0.000546251
6.17424e-05
0.000180149
3.2154e-05
3.08166e-05
0.0001525
4.04481e-05
3.09665e-05
0.000125794
3.29462e-05
0.000138661
0.00018134
2.796e-05
0.000442881
0.000186612
0.000488774
3.73209e-05
6.20026e-05
3.09152e-05
7.49613e-05
0.000154798
0.000208372
0.000122896
6.27848e-05
0.000182112
0.000141966
0.000580975
8.40952e-05
0.000390286
4.11311e-05
6.00858e-05
0.000104175
0.000106252
2.96757e-05
0.000490561
8.48891e-05
7.43279e-05
5.36718e-05
0.000176436
3.32016e-05
9.29908e-05
0.000540518
0.000132275
0.000120716
2.91329e-05
0.00017409
0.000191419
0.000168392
0.000456534
9.86462e-05
3.10016e-05
0.00017871
0.000230693
6.07904e-05
0.000175043
0.000117026
0.000122383
0.00027691
3.31278e-05
0.000194219
6.7344e-05
0.000300281
0.000161281
4.62539e-05
5.06867e-05
0.000191712
0.000505055
3.75834e-05
6.73112e-05
0.000119392
0.000124801
0.000109113
4.95517e-05
0.000158002
0.000190841
0.000227083
6.80052e-05
0.00018838
2.28669e-05
6.64126e-05
0.000128685
0.000314484
7.98603e-05
5.26927e-05
6.37552e-05
8.38861e-05
3.07539e-05
0.00012408
0.000179018
0.000336907
2.28269e-05
2.04984e-05
0.000224833
0.000190833
0.000102849
0.000256667
0.000415083
0.000145157
0.000176035
0.000348567
0.000399502
0.0001357
0.00013676
0.000382227
3.12121e-05
0.000183425
3.46156e-05
0.000406054
0.00020533
0.000390713
6.38266e-05
0.000175131
0.000157719
0.000103601
0.000449329
0.000292357
1.88241e-05
0.00015147
6.73643e-05
7.24902e-05
0.000124062
9.77056e-05
0.000180908
7.94599e-05
4.66178e-05
2.58437e-05
8.17625e-05
0.000158135
0.000566542
0.000387895
2.32199e-05
0.000401992
2.42743e-05
8.10871e-05
0.000141135
9.07449e-05
0.000241171
2.36049e-05
8.19878e-05
2.04222e-05
6.40556e-05
3.54334e-05
2.25508e-05
6.72605e-05
3.25026e-05
0.000106784
0.00024463
3.64063e-05
7.48406e-05
0.000185878
0.000208364
0.000123068
3.60519e-05
4.15849e-05
3.83538e-05
0.000151657
9.29797e-05
6.58146e-05
0.000130477
0.000149029
5.03884e-05
0.000381147
4.67883e-05
5.05602e-05
3.65794e-05
2.93539e-05
0.000129355
0.000122388
0.00014072
0.000580941
2.17606e-05
7.70163e-05
2.95002e-05
2.39324e-05
4.67976e-05
0.000206376
3.2778e-05
0.000147526
0.000226433
2.97849e-05
0.000152181
0.000532922
2.42552e-05
4.00149e-05
2.69572e-05
5.36092e-05
0.000106654
9.82585e-05
0.000141954
0.00060535
0.0006846
5.2182e-05
4.71625e-05
0.000120464
0.00026829
0.000133236
0.000269109
0.000252687
0.000333967
8.77104e-05
0.000202207
0.000227515
0.00016344
0.000207372
0.000112435
0.000136451
0.000282837
2.53358e-05
7.66648e-05
0.000637257
3.90332e-05
4.98603e-05
2.67095e-05
0.000186166
0.000202009
7.1621e-05
0.000169758
0.000312087
4.96839e-05
0.000148106
0.000113402
8.17392e-05
3.79325e-05
8.05868e-05
0.000598817
0.000187065
0.000244057
0.000351007
0.000501932
0.00019819
8.81119e-05
4.46401e-05
3.69601e-05
2.62889e-05
2.8008e-05
5.75295e-05
0.000533436
4.67461e-05
0.000133001
6.80673e-05
0.000249397
6.83401e-05
5.6835e-05
2.59845e-05
0.000227095
0.000104296
2.61213e-05
0.000352753
0.000254051
0.000171218
0.00011529
0.000190037
0.000376172
0.000521782
0.000154303
3.05539e-05
5.17883e-05
0.000394697
6.51071e-05
0.000144965
2.52942e-05
7.66563e-05
3.22778e-05
0.000324589
2.54198e-05
0.000167901
3.32399e-05
0.000159608
2.12399e-05
0.000154638
0.000141646
5.80232e-05
0.000364931
0.000164424
8.02286e-05
2.23127e-05
6.82341e-05
6.20137e-05
7.57411e-05
2.58405e-05
0.000486051
0.000134966
0.000497545
6.99591e-05
7.54114e-05
7.27249e-05
0.000178724
0.000158291
0.000436011
4.78371e-05
4.00971e-05
2.20387e-05
3.13844e-05
2.19199e-05
0.000149963
0.000116285
0.000176689
3.54672e-05
0.000672444
0.000114264
0.00012302
6.52264e-05
0.000177213
0.000166247
0.000177566
0.000310242
0.000666106
8.08641e-05
7.45662e-05
0.0004655
0.000118229
8.39008e-05
0.000560948
0.000244715
3.225e-05
0.0017143
0.000252675
0.000159426
4.49414e-05
0.000140188
0.000439225
3.54655e-05
0.000144078
0.000373169
4.38323e-05
7.27743e-05
0.00011939
3.54836e-05
0.000593631
0.000127262
3.09529e-05
0.000128764
0.000126988
0.000192461
2.62301e-05
8.29483e-05
8.3022e-05
0.000164166
5.96532e-05
0.000133167
0.000138832
0.000128584
0.000161702
2.66796e-05
2.71194e-05
0.000501388
0.000148894
0.000298792
3.09939e-05
7.61973e-05
2.83082e-05
0.000159952
0.000121669
0.000178198
0.00140678
3.71761e-05
0.000684982
3.66528e-05
0.000140031
4.65087e-05
2.52483e-05
0.000200155
0.000116122
4.23639e-05
2.48418e-05
0.000146718
0.000116864
6.89945e-05
0.000530752
0.000217366
0.000126153
1.78934e-05
3.65087e-05
0.000228939
5.48471e-05
5.8422e-05
0.000325987
2.73696e-05
0.000120802
4.31893e-05
0.000320409
2.29904e-05
3.06357e-05
3.26079e-05
3.69904e-05
0.000574261
5.40206e-05
0.000196526
4.30675e-05
0.000207599
0.000228844
8.03095e-05
5.6083e-05
6.32896e-05
0.000584628
0.000148654
3.64889e-05
3.34933e-05
2.15815e-05
0.000168193
0.000177983
0.000223577
7.59966e-05
0.000200912
0.000137045
0.000141355
3.9723e-05
0.000117145
0.000155973
0.000621738
6.75776e-05
0.000240401
3.89042e-05
0.000338865
0.000133029
0.000141858
2.82275e-05
9.96382e-05
0.000172478
4.90526e-05
7.04118e-05
4.89077e-05
0.000386255
0.000126714
0.000429296
2.44218e-05
2.85886e-05
3.92464e-05
0.00013202
0.000105973
8.14233e-05
0.000113914
2.33211e-05
0.000333624
8.59316e-05
7.32524e-05
2.08499e-05
7.23917e-05
0.000116533
6.73961e-05
3.54012e-05
0.000149956
9.48105e-05
9.64283e-05
0.000138913
2.91508e-05
3.20311e-05
2.88086e-05
3.50084e-05
0.000102012
2.56544e-05
3.81622e-05
0.000237898
2.61844e-05
0.000228363
0.0001654
0.00013011
4.78521e-05
1.95211e-05
0.000108694
4.49955e-05
2.32959e-05
0.000142233
6.31967e-05
3.45431e-05
0.000107233
2.91861e-05
0.000140407
6.87199e-05
9.59644e-05
3.10157e-05
6.6571e-05
2.99427e-05
0.000164427
1.71226e-05
0.00012984
3.24005e-05
0.000436836
7.91383e-05
8.67366e-05
0.000164238
0.000123521
0.000170611
3.1399e-05
0.000192433
0.000162457
0.000275846
3.33178e-05
9.97394e-05
2.92162e-05
3.28029e-05
0.000167282
3.11254e-05
2.15789e-05
0.000598748
0.000140608
0.00018835
3.50575e-05
3.05946e-05
5.48325e-05
0.000119003
0.000253736
0.000158163
0.000143766
3.60515e-05
7.92863e-05
2.23124e-05
0.000121899
0.000159336
0.000435529
0.000384251
0.000123379
2.40369e-05
0.000113579
3.11962e-05
8.13601e-05
0.000143167
2.12263e-05
0.000103204
3.4405e-05
0.000411059
2.12276e-05
5.31708e-05
0.000131424
0.000539293
0.000187923
6.53165e-05
0.000406798
0.00052367
4.94043e-05
0.000199296
0.00012174
0.000750401
0.00069937
0.000104785
7.17289e-05
0.000135058
0.000134665
2.54821e-05
8.03465e-05
5.11388e-05
8.44954e-05
3.10579e-05
0.000380299
6.27916e-05
0.000286661
0.000726469
6.55913e-05
0.000113963
0.000116596
0.00018057
3.60292e-05
5.12951e-05
0.000117054
0.000220336
0.000403174
0.000122686
0.000619649
7.61262e-05
0.000171774
3.70531e-05
0.000139856
0.000136357
0.000161136
0.000134384
6.65908e-05
4.77371e-05
4.55715e-05
9.7949e-05
0.000178577
7.89327e-05
4.29041e-05
0.00034094
2.83086e-05
0.000151167
3.32723e-05
0.000134921
2.48878e-05
0.00014878
6.24202e-05
0.000139134
0.000358601
0.000156302
0.000227407
0.000357995
0.000138713
0.000325345
5.60842e-05
0.00019071
0.000167626
5.21261e-05
0.000183763
1.74803e-05
2.69226e-05
2.98564e-05
0.000586973
2.83056e-05
0.0001324
0.000600644
6.28233e-05
3.27506e-05
0.000132466
2.55484e-05
0.000535485
4.04639e-05
2.49163e-05
0.000126302
3.87516e-05
2.1462e-05
2.98676e-05
7.13614e-05
0.000143364
0.00015962
0.000285087
3.59498e-05
0.000310005
3.15821e-05
0.000162697
0.000680104
6.1844e-05
0.000549675
0.000192025
0.000122552
7.72986e-05
0.000163589
0.000132425
0.000198124
0.000621447
4.17543e-05
0.000163203
8.3161e-05
0.000133552
0.000177731
4.38281e-05
0.000393248
0.000534962
9.14727e-05
0.000291942
8.15129e-05
0.000369989
2.52589e-05
2.35666e-05
0.000348057
8.55174e-05
0.000142387
0.000126975
2.50914e-05
0.000238837
3.39859e-05
0.000155985
0.000169743
7.10509e-05
0.000184241
0.000102806
0.00023338
0.000476378
0.000125866
8.34368e-05
0.000350981
2.96014e-05
0.000121853
5.08436e-05
6.76951e-05
0.000191205
0.000340028
0.000184325
0.000140486
0.000116481
0.000121446
0.00022415
0.000624833
8.90534e-05
2.55088e-05
2.50857e-05
2.74138e-05
0.000258455
0.000170371
7.12177e-05
0.000426337
0.000227065
0.000195215
0.000104801
4.4249e-05
0.000184614
3.43512e-05
0.000130286
0.000143821
5.43615e-05
0.00116678
0.000151892
2.34114e-05
8.28345e-05
0.000149122
9.01481e-05
0.000151119
7.13979e-05
0.000311457
0.000203068
0.000594101
0.00011568
2.74727e-05
6.41824e-05
0.000539076
0.000183657
0.000212269
0.000354022
0.000123738
4.82163e-05
2.27034e-05
0.000623032
0.000220533
0.00025177
0.000191529
0.000620972
0.000156768
0.000112765
2.70539e-05
0.000595797
6.80355e-05
0.000104226
0.000376982
6.47376e-05
2.28571e-05
5.94616e-05
2.89216e-05
7.59447e-05
6.50918e-05
0.000140038
0.000126221
3.45344e-05
6.79129e-05
3.13389e-05
0.000143624
0.00013302
0.000371882
0.000181069
3.31866e-05
4.26105e-05
0.00018398
0.000224303
0.000169109
0.000141369
7.55619e-05
6.3829e-05
0.00018113
0.000170779
0.000174944
2.98654e-05
0.000230545
7.84114e-05
0.000176461
4.6538e-05
0.000157101
0.000139778
2.56115e-05
0.000134319
0.000144617
0.000191345
4.02071e-05
0.000196378
0.000149108
0.000320907
0.000597676
8.27973e-05
0.000107803
2.52341e-05
0.000131521
0.000515983
6.44394e-05
0.000161948
0.000333958
7.50202e-05
2.46983e-05
0.000112392
0.000199901
0.0001283
5.11697e-05
2.65071e-05
1.90977e-05
2.63144e-05
0.000370829
6.39741e-05
0.000110842
0.000175026
2.17505e-05
0.000604842
0.000507537
0.000169733
0.000123448
2.06655e-05
7.24164e-05
1.853e-05
0.000260806
0.000109715
0.000133864
0.000330223
9.41423e-05
0.000149492
0.000175961
4.27672e-05
5.81624e-05
6.3164e-05
2.71592e-05
2.7232e-05
8.27284e-05
4.15107e-05
0.000417684
2.54713e-05
4.72707e-05
0.000148496
9.67996e-05
0.000178389
2.12819e-05
3.3104e-05
3.19447e-05
6.19563e-05
8.1492e-05
9.94752e-05
6.41596e-05
0.000148886
1.97115e-05
0.000370198
0.000266313
0.000139868
0.000120725
7.85955e-05
0.000163194
0.000137477
0.000344859
0.00050263
0.000159718
0.000130555
6.58764e-05
0.000549592
0.000457609
7.00112e-05
2.46515e-05
0.00013794
4.12183e-05
2.80531e-05
0.000122649
0.000544885
6.09443e-05
4.64061e-05
3.32351e-05
5.37562e-05
0.000241267
4.86378e-05
3.60462e-05
8.74138e-05
0.000410361
0.000173033
0.000261019
0.000136743
0.000328645
0.000167032
0.000100193
0.000108657
0.000221788
0.000198888
6.86648e-05
0.000178137
7.30987e-05
0.000597452
0.000391347
5.21087e-05
0.000193678
0.000132017
4.05372e-05
0.00016599
0.000335314
2.64303e-05
0.000213331
0.000103754
2.10153e-05
0.000279673
0.000351715
0.000246395
0.000307663
9.207e-05
6.96904e-05
2.12722e-05
0.000269339
0.000352909
8.33602e-05
3.60069e-05
0.000170131
0.000149574
3.14772e-05
2.08459e-05
0.000337757
0.000331966
0.000174248
3.37184e-05
3.98694e-05
6.16818e-05
3.22296e-05
0.000167796
4.58175e-05
4.95574e-05
0.000489257
1.87941e-05
3.30414e-05
0.00011849
2.50025e-05
5.54057e-05
0.000154685
2.23322e-05
9.19738e-05
5.35774e-05
0.000110328
0.000337665
0.000120996
0.000215164
3.69518e-05
0.000296261
3.18503e-05
0.000239835
2.30664e-05
3.45523e-05
2.17755e-05
0.000157183
2.20962e-05
0.000125691
0.000131519
5.56736e-05
0.000149989
0.000388365
0.000169253
0.000320902
6.17699e-05
3.02333e-05
0.000158106
4.09624e-05
0.000111849
2.79215e-05
0.000107122
0.000134768
0.000316003
9.40891e-05
0.000129338
0.00049712
0.000143281
0.000143967
0.0001276
0.000137341
4.59031e-05
0.000559367
0.000461111
7.40747e-05
6.40992e-05
0.000202248
0.000274468
0.000147458
6.0911e-05
0.000167401
0.000456777
0.000174441
0.000109773
4.23936e-05
3.57737e-05
6.39671e-05
3.13529e-05
0.000151697
0.000230006
0.00018058
0.000155548
9.38312e-05
7.95337e-05
2.85967e-05
3.32154e-05
0.000128978
0.000154866
7.08419e-05
0.000123206
0.000333688
0.000222553
6.43978e-05
9.23352e-05
3.27442e-05
7.25678e-05
0.00039036
0.000171457
6.86676e-05
0.00017742
0.000405792
0.0001192
0.000358189
0.000321807
2.43847e-05
0.000523516
8.81353e-05
0.000377445
3.21629e-05
3.84756e-05
0.000405122
3.38642e-05
0.000163066
8.30011e-05
0.000138958
0.0001041
0.000462351
8.07255e-05
0.00013246
0.000199839
0.000500289
6.34965e-05
2.36103e-05
0.000557086
0.000191443
0.000156355
0.000319902
3.23094e-05
3.59618e-05
0.000134074
2.03678e-05
0.000245453
0.000129856
3.20072e-05
7.07743e-05
7.58473e-05
3.11191e-05
0.000124951
0.000121467
0.000200314
4.50837e-05
0.000248551
0.000476899
5.25232e-05
6.99117e-05
6.2361e-05
9.91475e-05
2.96189e-05
0.000368683
0.000447979
0.000585785
0.000651228
0.000124208
0.000152397
0.000160826
6.50785e-05
0.000157322
0.000427414
0.000455586
3.37323e-05
0.000110174
0.000282311
0.000160346
0.00071716
0.000232339
0.000344933
0.000481717
8.55655e-05
8.54663e-05
1.80234e-05
0.000121443
0.000180936
6.80246e-05
3.17064e-05
0.000118768
2.96672e-05
6.04004e-05
2.74469e-05
0.000533297
2.46403e-05
4.89615e-05
0.000359317
8.7876e-05
0.000126154
0.000309485
0.000528042
7.30171e-05
0.000141105
2.99184e-05
0.000154215
0.000355119
4.35446e-05
0.000120342
0.000520963
0.00059522
0.000213929
3.47002e-05
0.000262833
0.000128827
0.000216862
8.61558e-05
3.56798e-05
9.64042e-05
6.89326e-05
4.0497e-05
6.69869e-05
0.000440712
3.59261e-05
0.000266872
6.50339e-05
3.06888e-05
3.78697e-05
0.000151099
4.29147e-05
0.000147053
3.55334e-05
7.88059e-05
8.19441e-05
0.000292009
0.000114387
0.0001219
0.000151189
0.000238977
2.75379e-05
0.000109072
3.67112e-05
0.000125823
0.00025264
4.27142e-05
0.000140934
2.79993e-05
0.000251303
3.23534e-05
0.000159054
0.000113491
0.000363139
0.000131918
0.000119529
7.05524e-05
3.23392e-05
3.45113e-05
0.000658329
0.000130015
0.000515472
0.000112806
3.32793e-05
2.54215e-05
3.22654e-05
0.000124105
0.000113452
0.000130849
6.95231e-05
0.000430867
7.1435e-05
0.000124528
6.20462e-05
0.000128689
3.08344e-05
0.000110697
0.000158768
0.000155386
8.85298e-05
1.95465e-05
0.000322857
7.45602e-05
0.000595506
0.000161684
2.57835e-05
5.76746e-05
0.000142812
0.000159873
0.000158934
3.98352e-05
0.000193773
0.000164237
7.02286e-05
3.0953e-05
0.000315742
0.000133773
0.000260237
5.80219e-05
0.000192403
3.10007e-05
6.84356e-05
0.000111589
0.000121894
3.62573e-05
6.25473e-05
4.47389e-05
2.52376e-05
0.000142491
2.88295e-05
2.61686e-05
0.000346526
4.54355e-05
0.000155935
7.52674e-05
0.000187659
4.42633e-05
0.00046914
7.36752e-05
7.07525e-05
8.19283e-05
0.000241881
4.98706e-05
9.05614e-05
0.000178571
0.00013144
7.8833e-05
0.000125404
8.86999e-05
0.000583135
0.000156192
3.14973e-05
0.000163878
4.14594e-05
6.53342e-05
0.000125248
0.000103454
0.000109726
0.000170838
0.000140711
0.000126481
0.00011961
0.000255454
3.3447e-05
0.000415489
3.24382e-05
7.51242e-05
0.000203196
0.000510987
0.00017714
0.000160853
4.59103e-05
2.6461e-05
1.84852e-05
0.000143632
0.000154808
0.000112762
5.09859e-05
0.000192749
0.00038505
0.000142406
3.10811e-05
5.88896e-05
0.000574707
0.000627172
0.000158254
0.000126283
0.000141724
0.000127238
9.84315e-05
6.55377e-05
0.000120143
2.77093e-05
3.22151e-05
0.000159035
3.30091e-05
0.000177873
2.69103e-05
6.70464e-05
0.000450527
0.000177042
0.000184068
2.39966e-05
0.000104166
0.000444802
0.000116166
3.82414e-05
0.000181399
3.40912e-05
2.56278e-05
0.000121482
7.51098e-05
2.6822e-05
0.000589572
0.000453168
6.96024e-05
0.000141098
0.000203613
0.00014614
0.000345967
5.84228e-05
5.77809e-05
0.000185052
0.000211053
0.000123771
0.000322825
0.000130577
2.10883e-05
0.000159918
0.000134269
8.72107e-05
6.46371e-05
0.000117657
0.000120693
6.15947e-05
0.000134999
0.000456246
6.69038e-05
4.85391e-05
0.00017816
2.89545e-05
3.37272e-05
0.000130839
0.000366593
0.000398309
0.000175992
0.000115743
4.37062e-05
7.20945e-05
0.00017163
0.000361659
0.000273519
2.54104e-05
0.000108274
0.000172175
2.38394e-05
3.37158e-05
0.000152199
0.000119933
0.000183623
9.57705e-05
0.000124596
0.000316949
0.000116269
0.000475621
6.49538e-05
0.000152488
0.000322301
0.00019019
6.3393e-05
5.72604e-05
0.000197592
0.000229048
0.000334149
7.66398e-05
0.000170432
0.000285999
8.32045e-05
5.881e-05
0.000161763
7.07123e-05
4.57736e-05
7.87382e-05
6.40823e-05
9.72537e-05
0.000719886
1.83658e-05
0.000130848
4.33796e-05
0.000120947
0.000115253
0.000318008
0.000167505
0.000115405
0.000133657
2.86065e-05
9.80502e-05
8.38965e-05
0.000163555
3.22472e-05
0.000198963
0.000268491
0.000128915
6.61839e-05
2.30181e-05
0.000553084
5.90765e-05
0.00020624
3.29678e-05
0.000176017
0.000174843
3.25435e-05
3.02015e-05
0.000100037
0.000139658
0.000283142
0.000164223
0.00038679
0.000191131
0.000117916
0.000286948
2.65124e-05
0.000157423
0.000199744
2.73964e-05
0.000181348
2.62975e-05
0.000149569
2.29119e-05
5.49701e-05
4.0562e-05
3.29975e-05
4.3605e-05
2.78128e-05
0.000145629
6.48675e-05
0.00016966
8.32659e-05
2.274e-05
9.71246e-05
0.000198993
2.15297e-05
0.000186068
8.07426e-05
0.000127857
2.95866e-05
8.03486e-05
4.4586e-05
3.9686e-05
1.56704e-05
0.000117803
0.000174638
0.000255656
0.00052092
0.000141154
0.00012655
0.000200268
0.000122729
0.000626358
2.01262e-05
0.000420216
3.22533e-05
2.50203e-05
4.2627e-05
0.000555752
0.000206245
0.00014457
0.000240795
0.000124181
0.000146902
7.72072e-05
6.24009e-05
0.000202959
0.000145301
0.000367368
3.29206e-05
3.37577e-05
7.21438e-05
0.000143629
6.18992e-05
0.000105108
0.000142372
3.65177e-05
0.000130189
3.89573e-05
0.000472401