/*--------------------------------*- C++ -*----------------------------------*\
| =========                 |                                                 |
| \\      /  F ield         | OpenFOAM: The Open Source CFD Toolbox           |
|  \\    /   O peration     | Version:  2406                                  |
|   \\  /    A nd           | Website:  www.openfoam.com                      |
|    \\/     M anipulation  |                                                 |
\*---------------------------------------------------------------------------*/
FoamFile
{
    version     2.0;
    format      ascii;
    arch        "LSB;label=32;scalar=64";
    class       volScalarField;
    location    "34";
    object      p;
}
// * * * * * * * * * * * * * * * * * * * * * * * * * * * * * * * * * * * * * //

dimensions      [0 2 -2 0 0 0 0];

internalField   nonuniform List<scalar> 
59516
(
0.267467
0.0151534
0.0144423
0.00196943
0.280875
0.301468
0.26835
0.238654
0.0796045
-0.000627972
0.275618
0.269661
0.189319
0.266795
0.250774
0.0805508
0.268834
0.276611
0.272923
0.265607
0.272086
0.238089
0.268219
0.174922
0.0705682
0.168886
0.0997774
0.275401
0.270769
0.249708
0.284296
0.275553
0.127095
0.00155512
0.273164
0.225331
0.0682361
0.279462
0.2714
0.0130801
0.01571
0.275744
0.272267
0.00152599
0.27082
0.0423334
0.271633
0.272179
0.282572
0.273545
0.288607
0.00127607
0.12962
0.243036
0.271592
0.270578
0.276963
0.00169052
0.174692
0.274253
0.00160899
0.220702
0.175669
0.269145
0.0032053
0.271115
0.008097
0.229383
0.282927
0.270694
0.233258
0.265733
0.0472916
0.26692
0.23052
0.270259
0.271607
0.029614
0.192703
0.273376
0.00153961
0.273332
0.27236
0.113613
0.273306
0.264907
0.0796713
0.265696
0.128281
0.276586
0.279091
0.23461
0.260341
0.231663
0.232587
0.282267
0.249664
0.239379
0.273073
0.187115
0.0865825
0.155999
0.245258
0.00875895
0.0472197
0.00649878
0.00614544
0.0748738
0.135348
0.194328
0.281229
0.0933489
0.23513
0.281775
0.257517
0.214896
0.0325772
0.243462
0.243839
0.0329289
0.245283
0.241723
0.0640019
0.243308
0.279732
0.273265
0.257872
0.277338
0.288368
0.259363
0.256726
0.0155781
0.230554
0.259995
0.260656
0.227306
0.280109
0.253392
0.157157
0.263936
0.0945912
0.118643
0.238833
0.0937322
0.264659
0.262233
0.271177
0.266598
0.287391
0.261008
0.264531
0.00301477
0.257734
0.00303614
0.25945
0.0053084
0.00395624
0.260291
0.261011
0.251669
0.264809
0.264523
0.250971
0.00444015
0.213115
0.0306638
0.0794637
0.261966
0.262683
0.00409344
0.259542
0.259572
0.254771
0.255555
0.255144
0.272165
0.215928
0.272956
0.0140292
0.21361
0.257514
0.139026
0.164617
0.256896
0.257399
0.0883219
0.122064
0.0676394
0.258639
0.255956
0.000402024
0.13787
0.261987
0.256026
0.263198
0.0207189
0.157865
0.157246
0.00394352
0.254173
-0.000553631
0.0663408
0.240234
0.187993
0.220396
0.138883
0.262698
0.00328538
0.179736
0.247544
0.0441777
0.275178
0.246523
0.22145
0.247777
0.100453
0.261422
0.0207037
0.204691
0.248054
0.247992
0.262313
0.254435
0.00439958
0.250823
0.215298
0.179025
0.188297
0.254272
0.0383282
0.250188
0.136877
0.254618
0.144135
0.151696
0.255038
0.253416
0.0537101
0.253133
0.0570971
0.25799
0.139343
0.135006
0.0032615
0.259125
0.258589
0.25609
0.0124826
0.254779
0.258222
0.0130258
0.256015
0.258417
0.163503
0.257449
0.258127
0.0810209
0.252452
0.198144
0.249202
0.18167
0.251091
0.252706
0.252442
0.22509
0.0612901
0.205792
0.0732768
0.25
0.171998
0.268903
0.219909
0.0778975
0.175059
0.251261
0.225402
0.172269
0.250015
0.250754
0.100999
0.254187
0.188918
0.176132
0.248629
0.247009
0.268123
0.257868
0.00749099
0.252711
0.226266
0.251832
0.248946
0.232073
0.0302712
0.235485
0.134507
0.227266
0.222961
0.249708
0.226011
0.225804
0.0641792
0.105527
0.219876
0.229634
0.168476
0.0205693
0.225525
0.227086
0.086043
0.0703588
0.226823
0.164521
0.155262
0.271055
0.228664
0.240842
0.28299
0.22792
0.067362
0.136993
0.239672
0.145622
0.24284
0.189091
0.229347
0.275057
0.240824
0.179022
0.242256
0.0235736
0.264504
0.176082
0.242185
0.200512
0.249244
0.252672
0.219459
0.274469
0.247248
0.221597
0.219221
0.243361
0.0532416
0.111688
0.247072
0.103801
0.251826
0.243577
0.198668
0.254018
0.255657
0.0391507
0.129342
0.179063
0.0542896
0.00788868
0.281103
0.285657
0.214752
0.034835
0.260664
0.274126
0.235829
0.0342848
0.242246
0.241662
0.261078
0.284724
0.24586
0.0915176
0.0898749
0.241226
0.18386
0.210161
0.240988
0.242649
0.237009
0.195296
0.230982
0.261601
0.00122343
0.274809
0.0104599
0.0199505
0.242564
0.00750135
0.274437
0.241893
0.0145862
0.0140772
0.0604512
0.237392
0.279695
0.240129
0.280172
0.0116615
0.080608
0.237343
0.2383
0.249181
0.235116
0.196642
0.249386
0.25062
0.0648192
0.156631
0.250773
0.24923
0.248209
0.0421049
0.0233107
0.0254505
0.143113
0.220988
0.0105136
0.0380622
0.0748727
0.0046927
0.236726
0.234425
0.240452
0.240066
0.25166
0.239875
0.186673
0.233951
0.162138
0.240503
0.202248
0.243896
0.238933
0.225236
0.144599
0.24972
0.274861
0.0243166
0.244507
0.183235
0.0890028
0.186201
0.20532
0.246284
0.244206
0.24096
0.23932
0.0859313
0.23901
0.188132
0.0300781
0.20765
0.285816
0.161615
0.0692245
0.241328
0.200362
0.238424
0.151961
0.23858
0.0681415
0.239536
0.00401293
0.00785634
0.235628
0.272326
0.233331
0.216686
0.0403533
0.219962
0.218038
0.0453693
0.227125
0.218112
0.213343
0.212707
0.108648
0.220578
0.215123
0.148399
0.213114
0.0957824
0.21057
0.275579
0.21088
0.28786
0.211873
0.25368
0.0931187
0.10742
0.185276
0.00406784
0.00296972
0.200316
0.224952
0.229278
0.178666
0.21583
0.0540455
0.235195
0.2331
0.276702
0.157853
0.138688
0.188835
0.232781
0.0219881
0.227385
0.267791
0.00467915
0.307512
0.234066
0.0718382
0.264241
0.198663
0.26982
0.21909
0.191506
0.210908
0.236385
0.194994
0.236634
0.260606
0.0825304
0.08286
0.280349
0.00308337
0.235052
0.226162
0.279909
0.224457
0.264317
0.000992019
0.227951
0.0938398
0.000454981
0.173769
0.0423483
0.277889
0.242715
0.0766514
0.00270071
0.249553
0.141732
0.226859
0.248609
0.226126
0.261332
0.000805171
0.115536
0.0754202
0.226126
0.0384199
0.16799
0.235159
0.147572
0.233589
0.00258433
0.238197
0.07137
0.234383
0.186255
0.128107
0.119306
0.236445
0.0023075
0.046762
0.224887
0.0888793
0.179834
0.204697
0.135705
0.130333
0.224605
0.224042
0.256282
0.223161
0.129194
0.224698
0.22256
0.123847
0.110626
0.000925982
0.223763
0.223532
0.225258
0.105745
0.216332
0.0109956
0.226096
0.00570603
0.236767
0.000775414
0.0259679
0.193147
0.138334
0.0114471
0.226573
0.278163
0.00367256
0.018242
0.223245
0.219834
0.0360507
0.222041
0.222871
0.152571
0.0437466
0.236909
0.229286
0.0146758
0.224887
0.225108
0.167104
0.221427
0.286916
0.225629
0.280131
0.195377
0.282577
0.198102
0.024648
0.263512
0.00569962
0.00634612
0.28424
0.282915
0.199925
0.22492
0.277607
0.274431
0.141363
0.113721
0.184489
0.0688386
0.195945
0.131105
0.274755
0.199002
0.201352
0.218197
0.206904
0.284786
0.187607
0.210661
0.0587105
0.211074
0.158227
0.0190245
0.21098
0.209995
0.211352
0.159645
0.0967925
0.293014
0.1346
0.138135
0.163732
0.249082
0.211687
0.0697813
0.196491
0.1634
0.0139007
0.0724373
0.213838
0.244859
0.171213
0.160033
0.213202
0.213135
0.0865791
0.255443
0.222734
0.148414
0.219771
0.178231
0.230071
0.217418
0.0106549
0.0273469
0.1987
0.285408
0.157024
0.14673
0.00336304
0.167611
0.21703
0.126591
0.227162
0.222429
0.0963062
0.132393
0.225253
0.264076
0.236956
0.181819
0.284766
0.225259
0.0362123
0.234211
0.287563
0.0228766
0.131532
0.249592
0.212617
0.0835459
0.206684
0.024576
0.0184875
0.18137
0.213082
0.284818
0.238785
0.212496
0.212066
0.217946
0.0977155
0.0112248
0.0704902
0.237195
0.284177
0.161998
0.215257
0.146165
0.0623475
0.211866
0.0666113
0.212756
0.269084
0.133166
0.0024028
0.242401
0.103376
0.218552
0.0185762
0.0829502
0.165142
0.245523
0.216665
0.218493
0.285473
0.245807
0.0412055
0.287477
0.00341915
-0.000645608
0.217898
0.0443982
0.120587
0.164862
0.115851
0.284993
0.214512
0.242092
0.210293
0.0485058
0.176972
0.055551
0.136046
0.24053
0.210061
0.21181
0.209613
0.078495
0.258758
0.197634
0.0694698
0.211073
0.209273
0.20862
0.194914
0.210961
0.0201622
0.0124067
0.209768
0.00362533
0.128775
0.147345
0.0108228
0.154799
0.180643
0.266443
0.19986
0.233632
0.18499
0.136642
0.211643
0.213528
0.213768
0.116543
0.212827
0.259243
0.0174732
0.00276417
0.144189
0.123317
0.0030762
0.21241
0.209804
0.211333
0.0191303
0.0318045
0.20904
0.248675
0.0304349
0.0408844
0.285001
0.276485
0.215023
0.0420878
0.224683
0.199384
0.229841
0.181947
0.206542
0.278967
0.1821
0.18154
0.0935649
0.183431
0.279936
0.0343366
0.204351
0.182082
0.110349
0.222392
0.228923
0.0951478
0.220985
0.24622
0.223877
0.182
0.270244
0.0550505
0.181451
0.240915
0.0155266
0.194625
0.0752143
0.178672
0.0991471
0.279015
0.185839
0.00307505
0.179552
0.178624
0.189828
0.180727
0.167056
0.004719
0.0446745
0.221453
0.192376
0.159357
0.223863
0.115974
0.247161
0.0248391
0.191802
0.0860293
0.174259
0.224293
0.0160285
0.194697
0.191032
0.281208
0.026093
0.229972
0.251302
0.0426914
0.187795
0.04453
0.153153
0.213047
0.228664
0.187409
0.186279
0.18567
0.284907
0.03282
0.227605
0.114771
0.0196137
0.188296
0.232882
0.19924
0.198337
0.0340928
0.201258
0.20294
0.107622
0.254039
0.283466
0.266566
0.152473
0.203042
0.00407427
0.273744
0.183844
0.200249
0.167496
0.202428
0.20092
0.205984
0.223338
0.206027
0.228755
0.201438
0.263599
0.265156
0.200754
0.219579
0.199719
0.228861
0.229564
0.0137806
0.133853
0.158978
0.0134434
0.212765
0.203356
0.214259
0.113271
0.00645898
0.118174
0.199647
0.217467
0.21763
0.130353
0.15086
0.215126
0.281806
0.204703
0.0084564
0.0194203
0.237671
0.205986
0.124316
0.165698
0.203532
0.13476
0.195371
0.195867
0.195609
0.167732
0.219831
0.19511
0.286023
0.0250097
0.194841
0.286264
0.195506
0.253088
0.0437045
0.193613
0.123842
0.0942407
0.195657
0.194927
0.121724
0.12414
0.193783
0.104314
0.191993
0.192837
0.199931
0.115584
0.19051
0.0322052
0.193293
0.192799
0.130768
0.190987
0.191513
0.267591
0.186086
0.157506
0.18753
0.189614
0.132436
0.0631397
0.114221
0.274515
0.191888
0.192847
0.163119
0.064764
0.274995
0.165993
0.168909
0.164299
0.16339
0.0115745
0.00599424
0.0530561
0.109015
0.192908
0.192308
0.00584468
0.237517
0.182071
0.0832474
0.275022
0.159538
0.158365
0.277397
0.161372
0.230461
0.0485132
0.159227
0.224456
0.20892
0.159696
0.118334
0.0420318
0.160321
0.237608
0.213993
0.123464
0.0581705
0.0949662
0.167678
0.0984314
0.237314
0.0940121
0.165028
0.176219
0.281224
0.128054
0.0107748
0.0613268
0.0959053
0.161862
0.235581
0.174846
0.174562
0.0212212
0.138848
0.0084589
0.177346
0.177342
0.0971248
0.0131043
0.210829
0.0414842
0.257743
0.196597
0.193042
0.273504
0.0952666
0.225504
0.234584
0.159162
0.0163867
0.193132
0.271181
0.191261
0.188954
0.161873
0.0839019
0.192629
0.0176737
0.272517
0.239052
0.130132
0.192326
0.184097
0.236843
0.266067
0.226981
0.0308655
0.0848712
0.189695
0.198066
0.221715
0.126688
0.218099
0.276447
0.188459
0.220095
0.0758678
0.195196
0.147795
0.0913523
0.194765
0.195039
0.193885
0.220447
0.190616
0.0433926
0.191524
0.0835352
0.216485
0.0210677
0.189696
0.219786
0.00391396
0.0238089
0.186271
0.0712627
0.0477814
0.0754399
0.0629049
0.11504
0.0406222
0.188918
0.187168
0.0324209
0.186187
0.187474
0.218519
0.010212
0.188766
0.181476
0.00231223
0.0253542
0.178415
0.103977
0.00383919
0.0130583
0.179003
0.128826
0.184264
0.269195
0.0171245
0.21908
0.16626
0.183454
0.1804
0.163592
0.207424
0.191427
0.185498
0.170016
0.272156
0.240356
0.18413
0.186981
0.251256
0.0367916
0.238026
0.207737
0.127271
0.119915
0.186696
0.0855137
0.020573
0.172878
0.177941
0.286948
0.150281
0.178073
0.176022
0.203789
0.0847745
0.176204
0.177243
0.262647
0.17772
0.0801969
0.180732
0.180589
0.145387
0.13181
0.15931
0.180501
0.177611
0.180407
0.122688
0.153968
0.184191
0.16099
0.121288
0.129089
0.129722
0.130257
0.150922
0.178665
0.153955
0.275213
0.252675
0.0451989
0.109345
0.114262
0.152069
0.149745
0.154276
0.196724
0.150946
0.150058
0.0902474
0.114062
0.208636
0.0898093
0.0353287
0.153445
0.152262
0.155229
0.256425
0.0142898
0.00691048
0.107013
0.163823
0.160826
0.238158
0.0361006
0.1528
0.275284
0.0428006
0.161994
0.162067
0.192194
0.00192843
0.160095
0.160686
0.159795
0.172921
0.00498931
0.00751589
0.173467
0.173446
0.170155
0.171765
0.178065
0.168498
0.0843874
0.0162768
0.280098
0.213638
0.17391
0.172599
0.130828
0.267835
0.260537
0.242594
0.00139829
0.242824
0.174795
0.175041
0.173297
0.174165
0.174871
0.173396
0.233298
0.146096
0.227381
0.154057
0.0840174
0.0142967
0.175987
0.131337
0.00450487
0.155894
0.180972
0.271947
0.182289
0.124699
0.120711
0.21083
0.136512
0.178757
0.185523
0.183212
0.149482
0.161089
0.267899
0.1783
0.225664
0.0805313
0.0660697
0.17609
0.0685503
0.0233252
0.181067
0.180331
0.134511
0.0905992
0.104091
0.253214
0.179978
0.0527533
0.00585962
0.162225
0.0290045
0.128207
0.174406
0.213668
0.161354
0.0265264
0.258158
0.0154381
0.251189
0.142051
0.239037
0.166448
0.0466193
0.176086
0.159212
0.100947
0.12145
0.176689
0.177032
0.258893
0.215158
0.22725
0.264138
0.220719
0.213247
0.213688
0.232012
0.172974
0.171982
0.136337
0.0675795
0.0778682
0.0183498
0.240146
0.136942
0.169528
0.167452
0.168609
0.0468899
0.165235
0.228682
0.00509577
0.164994
0.169995
0.193542
0.282567
0.229722
0.228555
0.166216
0.0129438
0.239491
0.168411
0.20214
0.176466
0.205946
0.217698
0.155229
0.236615
0.171593
0.21504
0.176218
0.020873
0.230247
0.237168
0.139588
0.278287
0.0780821
0.0902031
0.0784453
0.153423
0.224383
0.0628947
0.201486
0.0644316
0.172353
0.172337
0.148643
0.178791
0.162369
0.249397
0.20767
0.160461
0.212898
0.167805
0.283591
0.234734
0.167483
0.16289
0.207385
0.245423
0.164697
0.027224
0.200989
0.249207
0.161543
0.147468
0.165943
0.168957
0.170449
0.171411
0.00382902
0.0783593
0.172599
0.277584
0.171238
0.140807
0.221201
0.138169
0.120051
0.250156
0.27772
0.23091
0.230948
0.23265
0.0363846
0.160748
0.19152
0.276212
0.264519
0.278282
0.281907
0.264338
0.142965
0.139607
0.27666
0.0610098
0.144066
0.212367
0.140879
0.230348
0.217885
0.276448
0.257436
0.230003
0.0779418
0.143146
0.15824
0.152193
0.159613
0.233173
0.213595
0.15885
0.154292
0.156469
0.0162777
0.245714
0.0437914
0.1604
0.188492
0.166148
0.161864
0.15629
0.0439684
0.163403
0.14436
0.162668
0.161724
0.237389
0.147479
0.0841304
0.0502065
0.223471
0.116056
0.1152
0.218443
0.0961009
0.052773
0.0454059
0.0340609
0.215545
0.0721289
0.146874
0.182287
0.0334343
0.24262
0.243461
0.102812
0.0997067
0.261675
0.151752
0.0158572
0.176776
0.0339902
0.21083
0.0322781
0.0509081
0.0200043
0.0103076
0.0861436
0.238617
0.0488694
0.0254001
0.0266498
0.159148
0.0307384
0.156939
0.244321
0.16097
0.158201
0.214949
0.0484733
0.164161
0.162623
0.0124336
0.0784432
0.239471
0.163904
0.164429
0.216898
0.244726
0.23345
0.243685
0.0581454
0.268609
0.27672
0.16386
0.165001
0.0133362
0.251767
0.275555
0.162105
0.123325
0.16146
0.018119
0.234287
0.0068885
0.0481205
0.152523
0.195171
0.154275
0.125779
0.240883
0.115583
0.229164
0.152968
0.153938
0.0757577
0.145425
0.132101
0.272
0.240879
0.208648
0.153083
0.245889
0.0845426
0.04744
0.0696978
0.0139458
0.153364
0.242873
0.152734
0.0141541
0.0117202
0.237092
0.154914
0.0729423
0.252854
0.155154
0.155662
0.237566
0.0204895
0.235759
0.156243
0.159323
0.160447
0.168402
0.160688
0.231729
0.228466
0.16067
0.260526
0.171385
0.228161
0.194592
0.158515
0.243774
0.15514
0.124664
0.26282
0.174863
0.157644
0.0120343
0.161413
0.160134
0.120695
0.154228
0.211517
0.0609855
0.241199
0.147065
0.221018
0.231616
0.157924
0.172215
0.010729
0.0733411
0.0588048
0.156195
0.241645
0.0197305
0.153108
0.26314
0.0578035
0.219148
0.0545908
0.153873
0.187267
0.152214
0.00139839
0.200726
0.241741
0.120828
0.0372362
0.0592039
0.116952
0.118741
0.12645
0.239186
0.011211
0.0375735
0.132433
0.134023
0.227463
0.211629
0.134322
0.140422
0.128479
0.19458
0.264194
0.247699
0.170867
0.0307657
0.224902
0.22388
0.102385
0.0518968
0.206693
0.0969395
0.132312
0.21493
0.170939
0.175065
0.149453
0.128301
0.139518
0.139205
0.137109
0.218637
0.142052
0.190125
0.260141
0.24161
0.21279
0.234088
0.129318
0.0944968
0.240269
0.142969
0.215562
0.168894
0.221866
0.270203
0.134256
0.00704135
0.144266
0.14643
0.153504
0.238583
0.143514
0.150874
0.173915
0.153402
0.173743
0.146303
0.00189077
0.172346
0.150884
0.150057
0.00509542
0.213782
0.266162
0.172024
0.179615
0.136249
0.152604
0.151241
0.061021
0.264146
0.153085
0.152756
0.154697
0.0367256
0.239105
0.164322
0.137895
0.172048
0.0897272
0.117216
0.226756
0.14199
0.138201
0.112252
0.13867
0.150095
0.0939384
0.142126
0.238761
0.160768
0.0814712
0.237866
0.23886
0.12416
0.125051
0.105432
0.142274
0.0619794
0.145938
0.0683983
0.285636
0.223105
0.186317
0.0897594
0.0215974
0.248109
0.019466
0.0225357
0.14159
0.00202535
0.142083
0.031784
0.187587
0.0991707
0.140629
0.209473
0.188634
0.141826
0.0274696
0.0223332
0.18376
0.139536
0.0404306
0.142649
0.140975
0.160707
0.148247
0.269356
0.215707
0.247876
0.185323
0.21094
0.141642
0.215209
0.186844
0.141898
0.249607
0.273062
0.209835
0.205109
0.141967
0.232297
0.13864
0.248682
0.181998
0.213346
0.020256
0.0429006
0.202669
0.0106275
0.241064
0.285293
0.251225
0.0125602
0.0596177
0.0194455
0.237264
0.246699
0.00639748
0.188637
0.134364
0.231857
0.193304
0.133861
0.142991
0.032551
0.20616
0.209934
0.058095
0.269233
0.24765
0.152324
0.135991
0.280274
0.134911
0.274171
0.208201
0.206155
0.136361
0.257076
0.121068
0.255037
0.238344
0.259538
0.00711786
0.139562
0.267203
0.073176
0.275996
0.140035
0.261089
0.105704
0.10485
0.111668
0.270286
0.223797
0.258459
0.222561
0.119182
0.266949
0.267496
0.106285
0.268747
0.123806
0.215874
0.117045
0.223558
0.15029
0.101753
0.143138
0.098867
0.143913
0.0213364
0.125259
0.114792
0.249051
0.111297
0.208971
0.158944
0.187496
0.122595
0.0404913
0.0913289
0.210694
0.117132
0.248644
0.0788292
0.127661
0.255568
0.214242
0.129974
0.231884
0.128036
0.116894
0.114528
0.148698
0.122428
0.00218944
0.0404859
0.0450003
0.117596
0.118371
0.212929
0.0518081
0.0295044
0.11155
0.0740638
0.247029
0.225791
0.0357755
0.13078
0.190149
0.123783
0.132072
0.106349
0.129546
0.225238
0.129066
0.179277
0.000657442
0.243886
0.176303
0.277574
0.133154
0.129122
0.0226199
0.249257
0.0988735
0.133829
0.215681
0.138508
0.134842
0.126727
0.124558
0.033496
0.137827
0.132016
0.133021
0.127152
0.148336
0.129637
0.243923
0.107488
0.135235
0.2461
0.2773
0.184035
0.111358
0.203923
0.132478
0.121229
0.115408
0.0618517
0.108225
0.0990916
0.265046
0.109675
0.1488
0.146428
0.0359029
0.108343
0.243485
0.123575
0.126658
0.17485
0.165154
0.12117
0.190878
0.14915
0.124826
0.122174
0.138678
0.122598
0.242113
0.233588
0.111161
0.107425
0.118343
0.0475962
0.125292
0.148995
0.212059
0.121974
0.12646
0.115776
0.128258
0.244638
0.106806
0.237252
0.126029
0.121836
0.112924
0.122367
0.0953013
0.118785
0.0971575
0.0847561
0.120718
0.262122
0.137342
0.259963
0.175771
0.0815009
0.0256686
0.105229
0.243694
0.123338
0.121872
0.089842
0.123692
0.0893102
0.245668
0.244147
0.0934479
0.0942254
0.098473
0.0989897
0.197661
0.156508
0.0964723
0.0970669
0.072776
0.120117
0.0986909
0.0990982
0.0564681
0.0544065
0.00257311
0.0993487
0.199758
0.0334458
0.15667
0.102952
0.105859
0.110745
0.141302
0.24143
0.125619
0.090781
0.0126012
0.0207448
0.158698
0.104164
0.0988749
0.136005
0.0347971
0.0226401
0.105616
0.242889
0.117441
0.119381
0.055451
0.110867
0.271043
0.113556
0.111579
0.155256
0.11376
0.117697
0.242916
0.118365
0.133802
0.020565
0.00433588
0.19264
0.0406504
0.0232064
0.122044
0.100769
0.243249
0.119811
0.251668
0.252016
0.11648
0.241976
0.00763712
0.112635
0.119911
0.0381072
0.121138
0.252128
0.277739
0.0553418
0.248096
0.119363
0.211181
0.230989
0.120075
0.125234
0.250426
0.117553
0.269715
0.119475
0.144669
0.129626
0.270492
0.247889
0.146086
0.122494
0.118956
0.219218
0.144314
0.219248
0.248008
0.244469
0.122799
0.0134391
0.12333
0.114872
0.217964
0.0935232
0.218719
0.0465786
0.230582
0.000374546
0.244078
0.145183
0.103457
0.113665
0.246663
0.111112
0.243595
0.237036
0.246346
0.0146182
0.00378494
0.220811
0.00387561
0.110949
0.14307
0.191449
0.108555
0.23744
0.16431
0.241596
0.106051
0.239779
0.200773
0.217528
0.278838
0.149644
0.264235
0.105618
0.0109361
0.164308
0.0106601
0.276186
0.051233
0.159075
0.217797
0.116446
0.110666
0.0152043
0.0373266
0.112878
0.223367
0.246238
0.00708551
0.252371
0.145537
0.26918
0.0661897
0.225864
0.112688
0.201449
0.247949
0.198741
0.186957
0.209774
0.227508
0.241604
0.184619
0.0479655
0.213997
0.114892
0.115068
0.114688
0.0681058
0.263391
0.264427
0.215804
0.125354
0.2374
0.244341
0.125294
0.115704
0.114547
0.110561
0.263451
0.0545551
0.108296
0.170204
0.110908
0.213757
0.198659
0.132897
0.0649298
0.111862
0.109934
0.155581
0.274727
0.179042
0.110033
0.238904
0.0780802
0.0591559
0.259129
0.00515273
0.0776288
0.0153269
0.0778899
0.0780593
0.240064
0.108607
0.200217
0.238567
0.135646
0.1157
0.247627
0.0823203
0.244738
0.103958
0.107317
0.107472
0.217683
0.184971
0.244238
0.22233
0.235043
0.0921194
0.159583
0.248255
0.232336
0.115571
0.231479
0.0802082
0.214441
0.051709
0.216482
0.11056
0.195542
0.0979264
0.149193
0.231987
0.0778777
0.232672
0.0591526
0.119571
0.0958537
0.0338201
0.100927
0.0944064
0.133363
0.244317
0.0988454
0.0447714
0.0195326
0.218548
0.0217353
0.234303
0.00423013
0.10348
0.0556618
0.102411
0.232291
0.236069
0.051732
0.262258
0.0358091
0.00248902
0.216994
0.197039
0.101087
0.232798
0.075895
0.0214018
0.129988
0.00269484
0.164758
0.208624
0.153297
0.103414
0.273251
0.104753
0.168627
0.216994
0.138697
0.23539
0.100953
0.151181
0.0999923
0.156166
0.261785
0.107353
0.0924994
0.156653
0.100648
0.174498
0.0995477
0.06453
0.0992955
0.261676
0.0989695
0.0948444
0.0979869
0.254938
0.12513
0.245782
0.265504
0.263801
0.190982
0.0531648
0.0718325
0.199304
0.233108
0.0242784
0.0689693
0.0979689
0.0963849
0.234356
0.2763
0.0031635
0.0349986
0.0887548
0.245767
0.0352269
0.1401
0.234689
0.0954026
0.094021
0.0950169
0.0920092
0.0952121
0.192076
0.117677
0.231044
0.0248593
0.0989428
0.0955432
0.256872
0.14944
0.252635
0.267504
0.051186
0.0960235
0.0715538
0.254984
0.257695
0.252112
0.250855
0.132545
0.0705836
0.246591
0.0516925
0.0957835
0.227063
0.106965
0.0948725
0.0750875
0.0930285
0.225211
0.223818
0.0955331
0.168393
0.107323
0.106752
0.273671
0.0266006
0.0582714
0.0958125
0.0965584
0.00834555
0.0964006
0.0730781
0.102204
0.220618
0.0967287
0.0176859
0.104023
0.00808107
0.257668
0.250188
0.133963
0.0991987
0.102096
0.117364
0.0870983
0.0792198
0.119807
0.0837793
0.0825221
0.0720556
0.0840982
0.259162
0.231897
0.140586
0.217551
0.0887137
0.224146
0.0703145
0.217365
0.181861
0.208816
0.0855762
0.159417
0.0193376
0.224361
0.241604
0.09829
0.281319
0.0884245
0.0906379
0.151821
0.0228306
0.118136
0.0914786
0.223397
0.0693661
0.0979704
0.0950866
0.0656968
0.187272
0.0657094
0.0645212
0.066503
0.0673114
0.066029
0.219703
0.220225
0.226874
0.216875
0.0415894
0.0665798
0.253501
0.0732694
0.0401545
0.0725633
0.0718825
0.0429901
0.0729603
0.0716981
0.0721918
0.0917862
0.088381
0.162035
0.101087
0.11411
0.146915
0.1267
0.117095
0.0427032
0.0925266
0.0916484
0.0691709
0.0746642
0.0897394
0.176611
0.0177355
0.207926
0.27337
0.164309
0.263018
0.0905106
0.0195345
0.0211459
0.0210441
0.122868
0.0222084
0.0869453
0.0894403
0.24685
0.280886
0.152467
0.0808999
0.250373
0.138327
0.169808
0.0887189
0.172419
0.0887361
0.177641
0.0744983
0.038866
0.0474097
0.0844026
0.00155484
0.0912498
0.248857
0.0670953
0.205421
0.0261598
0.0817156
0.0840891
0.233194
0.11474
0.177902
0.128333
0.176823
0.0829438
0.015569
0.25156
0.10006
0.16509
0.247675
0.247677
0.0854282
0.072314
0.0863744
0.130976
0.0855645
0.173448
0.23268
0.134447
0.0868745
0.0875562
0.139195
0.158423
0.194341
0.0868275
0.0887752
0.0892006
0.248873
0.0879545
0.0893429
0.0312837
0.0783503
0.0406664
0.0152631
0.0398539
0.0245542
0.0766981
0.0788522
0.0123769
0.0620034
0.0118119
0.246097
0.0805107
0.0449334
0.246442
0.191181
0.120684
0.0692055
0.083922
0.0126259
0.0817785
0.18346
0.129399
0.080341
0.252314
0.0387089
0.00374424
0.0812557
0.288389
0.127558
0.167367
0.0140038
0.081716
0.080906
0.194178
0.0140427
0.126268
0.162006
0.0751339
0.0812731
0.0837417
0.28057
0.259733
0.252954
0.122429
0.0408149
0.0157145
0.0140095
0.254565
0.0140046
0.0506896
0.0847634
0.276774
0.0997174
0.0864408
0.229887
0.254036
0.183875
0.174744
0.0857244
0.083399
0.246562
0.212555
0.224636
0.0243057
0.208553
0.0547449
0.116048
0.0451309
0.0825167
0.131302
0.259373
0.132077
0.130038
0.268138
0.0776002
0.248265
0.0580373
0.172499
0.201544
0.259015
0.131979
0.251624
0.0732126
0.0608005
0.0359953
0.0776568
0.251993
0.0585435
0.0527088
0.158476
0.0603475
0.0602864
0.0652194
0.0205165
0.120344
0.079348
0.0939776
0.054865
0.0720245
0.0633424
0.0428729
0.254231
0.179301
0.0583987
0.0814216
0.28552
0.153157
0.0778532
0.164363
0.0787109
0.146488
0.0765529
0.252637
0.0568271
0.282384
0.049128
0.0434558
0.1598
0.059571
0.174524
0.153109
0.184099
0.023846
-0.00108667
0.0326086
0.0270467
0.0490151
0.0171518
0.054169
0.0504074
0.0497375
0.266393
0.0328099
0.254907
0.255124
0.0389007
0.243013
0.0822938
0.249313
0.232289
0.056573
0.245353
0.0568736
0.0019449
0.183568
0.118586
0.237099
0.231472
0.12975
0.0191103
0.0351938
0.185784
0.20182
0.0583666
0.0565167
0.0767534
0.205338
0.222992
0.16672
0.0200136
0.0143861
0.0760221
0.189171
0.207523
0.226087
0.266751
0.0782691
0.237769
0.218409
0.165305
0.283278
0.118459
0.152097
0.191753
0.0734546
0.257206
0.0123819
0.11428
0.218165
0.197823
0.230552
0.255695
0.0226461
0.113987
0.0762122
0.135904
0.0771554
0.125933
0.139645
0.134979
0.0979393
0.0768001
0.0758709
0.0733464
0.0996915
0.265352
0.107855
0.0967538
0.103404
0.250696
0.221552
0.021365
0.256884
0.0765046
0.0732115
0.153089
0.0642089
0.0647343
0.0904956
0.0218582
0.063385
0.0685133
0.0153361
0.0600901
0.0586921
0.0647288
0.0856431
0.0712737
0.0719503
0.254753
0.0471534
0.0577026
0.0420013
0.0784866
0.0416336
0.0388862
0.0743109
0.0169261
0.0182347
0.105965
0.0427965
0.0376732
0.256207
0.0748325
0.0569048
0.0525814
0.0192984
0.0467844
0.0740661
0.0764261
0.0677312
0.119807
0.163368
0.187648
0.141374
0.0183175
0.0673324
0.065604
0.0677034
0.213319
0.104132
0.0759488
0.272639
0.0664521
0.103491
0.0660975
0.0684761
0.180479
0.186913
0.0657255
0.110699
0.232924
0.23188
0.104368
0.0665189
0.253872
0.0664716
0.143699
0.0671317
0.277352
0.0676333
0.210854
0.0660893
0.180237
0.216978
0.248778
0.226802
0.0647548
0.219873
0.161157
0.179798
0.0665834
0.0269672
0.117716
0.164204
0.0665213
0.065963
0.0669259
0.117649
0.0594687
0.267576
0.195757
0.024915
0.25445
0.06255
0.24764
0.0249984
0.0571837
0.061
0.212711
0.0660314
0.184607
0.265463
0.0580357
0.062335
0.101479
0.260832
0.212812
0.211985
0.0633882
0.222923
0.191791
0.0618875
0.10424
0.0881271
0.0608608
0.0609438
0.184289
0.22557
0.0675814
0.106919
0.0864296
0.25198
0.247055
0.251323
0.0661893
0.253427
0.0444208
0.201298
0.230798
0.134411
0.1818
0.0661666
0.258329
0.0314675
0.0355319
0.0382115
0.112246
0.0383667
0.120438
0.118129
0.104952
0.13036
0.207708
0.107328
0.158597
0.00894348
0.0443769
0.0911622
0.151379
0.0630924
0.169174
0.234161
0.123064
0.203055
0.196029
0.011474
0.038006
0.17864
0.0449806
0.000414392
0.256906
0.214356
0.246469
0.0362478
0.256614
0.100394
0.24434
0.0956401
0.247882
0.0948651
0.253046
0.0415948
0.223364
0.0607681
0.191423
0.0970219
0.197355
0.100249
0.291645
0.061368
0.083494
0.208392
0.191967
0.0592003
0.130047
0.192071
0.0615032
0.173088
0.0239703
0.172638
0.0560975
0.0541844
0.0843231
0.256447
0.0615726
0.0388076
0.0605836
0.0627674
0.113486
0.215611
0.0704138
0.063299
0.113038
0.113002
0.00468834
0.249592
0.0609919
0.0810075
0.146414
0.19914
0.0017155
0.0628209
0.254543
0.0520898
0.049798
0.159611
0.0292464
0.0440683
0.230883
0.0628864
0.251865
0.117772
0.0395324
0.0490427
0.132217
0.0466469
0.0606004
0.0898807
0.0573409
0.0591561
0.057932
0.0239454
0.154063
0.056422
0.0803125
0.0537359
0.0733029
0.0818335
0.0555861
0.0525913
0.249151
0.0572093
0.0492805
0.0523549
0.254525
0.0616381
0.0511353
0.0717876
0.190366
0.0772711
0.0556945
0.0624412
0.0541663
0.00299238
0.252315
0.0779439
0.0542142
0.0401459
0.260292
0.104161
0.0271993
0.05245
0.0106721
0.113387
0.251025
0.0516414
0.24966
0.0480887
0.0314751
0.254104
0.250492
0.259127
0.0387441
0.255524
0.0151366
0.0182223
0.0530377
0.0272578
0.0234188
0.065722
0.19268
0.255036
0.24487
0.263902
0.242566
0.152612
0.111644
0.0403945
0.0495607
0.0584781
0.145162
0.162923
0.100307
0.214624
0.0768467
0.0544394
0.175557
0.0689843
0.243461
0.243085
0.0299327
0.244983
0.163484
0.222799
0.260358
0.0507466
0.204105
0.165932
0.175824
0.165292
0.0514861
0.127029
0.24605
0.262179
0.0620227
0.240585
0.260047
0.250448
0.209754
0.0430098
0.263644
0.0457526
0.233912
0.23467
0.0455513
0.0506073
0.0405917
0.146729
0.256352
0.107164
0.164461
0.0413411
0.182
0.256752
0.0544054
0.211525
0.0524528
0.215474
0.243239
0.263981
0.242247
0.089527
0.09886
0.117501
0.204976
0.0545417
0.227994
0.228552
0.0527926
0.217353
0.126981
0.0527539
0.164557
0.220755
0.0511829
0.246233
0.0428204
0.225076
0.267806
0.0480721
0.13903
0.048818
0.16865
0.0512688
0.0240873
0.256777
0.171299
0.0842222
0.114392
0.145064
0.137463
0.0204848
0.130854
0.128494
0.245292
0.175018
0.270949
0.234561
0.0693398
0.250255
0.0255058
0.026462
0.184142
0.157376
0.217571
0.216797
0.0279488
0.0241122
0.126444
0.253419
0.206795
0.234276
0.26834
0.0273913
0.209219
0.172368
0.209865
0.215882
0.16151
0.257889
0.220284
0.224035
0.0639791
0.0687631
0.267249
0.027441
0.0243174
0.0468476
0.237103
0.253972
0.257474
0.045311
0.0429746
0.190562
0.044735
0.0460766
0.196192
0.262556
0.215727
0.0724818
0.244392
0.126484
0.212966
0.214858
0.263892
0.0435584
0.158466
0.159008
0.0459144
0.043382
0.0417048
0.0444594
0.169095
0.0460564
0.263201
0.21018
0.194213
0.0459009
0.04062
0.0918152
0.204099
0.264758
0.12345
0.110997
0.261882
0.0196478
0.0353719
0.0730251
0.114801
0.0348998
0.045152
0.0466035
0.0885982
0.0471345
0.261758
0.263085
0.0977799
0.261755
0.15568
0.0878299
0.0420549
0.0698372
0.0652224
0.0782721
0.0448947
0.0381647
0.0489979
0.0567472
0.0406242
0.0677297
0.0725185
0.205093
0.0409112
0.0446231
0.0795509
0.0263463
0.0466785
0.0409368
0.0378083
0.0387438
0.0399781
0.261399
0.0423262
0.045885