/*--------------------------------*- C++ -*----------------------------------*\
| =========                 |                                                 |
| \\      /  F ield         | OpenFOAM: The Open Source CFD Toolbox           |
|  \\    /   O peration     | Version:  2406                                  |
|   \\  /    A nd           | Website:  www.openfoam.com                      |
|    \\/     M anipulation  |                                                 |
\*---------------------------------------------------------------------------*/
FoamFile
{
    version     2.0;
    format      ascii;
    arch        "LSB;label=32;scalar=64";
    class       surfaceScalarField;
    location    "34";
    object      phi;
}
// * * * * * * * * * * * * * * * * * * * * * * * * * * * * * * * * * * * * * //

dimensions      [0 3 -1 0 0 0 0];

oriented        oriented;

internalField   nonuniform List<scalar> 
113358
(
-1.51295e-05
3.17857e-05
-2.20922e-05
5.4364e-06
2.28793e-05
3.04902e-07
-6.19162e-06
-1.69928e-05
-2.63967e-05
2.01744e-05
-3.22728e-06
9.45219e-06
-2.40778e-05
-6.50238e-06
2.39363e-05
6.63442e-06
-1.7307e-05
9.35249e-07
3.01779e-05
-1.3806e-05
1.36167e-05
-1.41965e-05
-7.9606e-06
8.54042e-06
-7.29366e-06
3.50453e-05
-2.52924e-05
-2.45831e-06
-8.16471e-07
-3.29326e-05
1.7991e-05
1.57589e-05
8.64425e-06
5.90508e-07
1.84909e-05
-2.77257e-05
7.86258e-06
3.898e-06
-1.14498e-05
-3.26947e-07
-6.11891e-06
2.28638e-05
-2.12671e-05
4.52238e-06
-1.52034e-05
-4.21402e-08
-3.09229e-07
1.55552e-05
-4.61912e-05
3.63649e-06
1.25553e-05
2.99983e-05
1.28944e-06
-2.76118e-06
1.47195e-06
2.11173e-06
-1.48677e-06
2.06274e-05
-2.12542e-05
1.10818e-06
3.40229e-07
1.24241e-05
-1.38747e-05
1.01501e-05
3.35507e-05
-2.79528e-05
-1.57477e-05
-1.95672e-05
1.08629e-05
6.80737e-06
1.8972e-06
1.48757e-05
-3.82623e-05
3.2416e-05
-9.02905e-06
2.44677e-05
3.37752e-06
2.73946e-05
-5.52402e-05
1.93133e-05
4.2098e-07
-4.73314e-07
-1.92607e-05
-1.15685e-05
4.61829e-05
4.28492e-06
-3.89018e-05
-4.63693e-07
-4.49974e-05
4.82463e-05
-2.78443e-06
-9.72242e-07
4.69472e-06
3.38621e-07
-4.06012e-06
-4.68255e-05
2.05389e-05
-3.86315e-06
3.0148e-05
-2.34475e-05
5.46331e-06
1.93419e-05
-1.36156e-06
-1.00512e-05
9.76455e-06
-1.77619e-07
4.6462e-07
-1.98446e-06
-7.56066e-06
5.46881e-06
4.07655e-06
1.94586e-05
-3.36591e-07
1.91609e-07
-2.42382e-06
2.41736e-06
6.62181e-09
-5.43092e-06
-2.58602e-05
2.74458e-05
3.8455e-06
5.18616e-06
-2.83403e-07
-8.18771e-06
3.28522e-06
2.05776e-05
-1.13963e-06
1.13076e-06
-2.05689e-05
-2.83216e-05
1.27968e-05
-2.97439e-06
1.84816e-05
1.75828e-05
2.19933e-06
-1.98997e-05
1.17802e-07
-3.39362e-05
8.33179e-06
-1.1869e-05
3.74712e-05
-3.76092e-08
-2.35991e-06
2.3974e-06
9.32193e-06
1.08677e-05
1.80144e-06
-2.1991e-05
7.25557e-06
-3.77411e-05
3.09723e-05
-4.86332e-07
-3.47022e-06
4.66215e-06
3.57738e-05
-3.69724e-05
-1.96846e-05
1.64886e-05
-2.05527e-05
2.37499e-05
5.41383e-07
-2.38053e-05
-3.10947e-05
5.43591e-05
-8.25027e-07
4.3217e-05
-1.20209e-05
-3.03708e-05
5.43371e-06
-1.90411e-05
-7.6485e-06
-5.72066e-06
3.26372e-05
-4.7733e-07
-2.64388e-05
-2.41736e-06
1.66861e-05
-1.11653e-05
-3.10363e-06
-3.05257e-05
-1.17051e-05
4.14063e-05
-1.06607e-05
3.48424e-05
1.17872e-06
-2.53603e-05
-3.40943e-05
4.27828e-06
-5.53587e-06
3.5352e-05
3.49943e-05
1.53289e-05
-4.63964e-05
-3.92659e-06
2.32221e-05
-1.61769e-05
1.55381e-06
-8.59891e-06
-1.11643e-05
3.29882e-06
1.12211e-05
-3.36419e-06
3.01191e-05
-7.81088e-06
1.70043e-05
-3.93145e-05
-1.03797e-05
-3.87773e-05
4.18885e-05
7.26929e-06
-2.11421e-06
7.89346e-06
-9.0568e-06
3.27774e-06
2.85579e-05
-1.24726e-05
2.02955e-05
-3.63806e-05
-2.11321e-05
4.80828e-06
3.70626e-05
-2.07385e-05
1.27349e-05
-6.2532e-06
5.02152e-06
-1.15043e-05
3.62203e-05
-9.24844e-06
-2.80813e-05
1.10802e-06
-1.28017e-05
-1.47655e-05
7.95871e-06
1.96086e-05
-3.05871e-05
-4.91196e-06
1.45709e-05
2.09355e-05
-3.09463e-06
3.52221e-06
-4.27556e-07
3.37224e-05
-5.64702e-06
-3.31184e-05
5.04362e-06
-1.50002e-05
-4.14597e-05
1.587e-05
4.05902e-05
-4.24104e-06
4.48876e-06
-3.57549e-05
3.55037e-05
1.92214e-06
2.16268e-05
2.38341e-06
-2.59321e-05
3.83777e-06
-3.17879e-06
-6.62303e-07
-9.23068e-09
6.38362e-08
1.22946e-05
-1.23502e-05
6.23095e-06
-3.01599e-05
3.26186e-05
-8.68954e-06
1.02251e-05
-2.43759e-05
2.30838e-05
-8.93277e-06
7.92401e-06
-8.19605e-06
2.73255e-07
-1.87654e-05
-6.29581e-06
3.26477e-05
-7.58637e-06
-2.5792e-07
4.40859e-06
-4.15074e-06
7.16783e-06
-2.93454e-05
9.43382e-06
1.27441e-05
4.36274e-05
-3.37777e-06
-2.90366e-06
-3.73448e-05
-2.7266e-05
-3.21135e-05
3.5084e-05
2.42963e-05
3.29727e-06
-3.64728e-05
5.90959e-06
3.58196e-05
-2.85875e-05
-8.88245e-07
-6.34363e-06
1.09877e-07
1.89596e-07
-1.62563e-05
1.5959e-05
6.85749e-06
7.81282e-06
1.25655e-05
-2.72355e-05
8.46603e-06
-4.47052e-06
3.48316e-06
-7.49837e-06
-1.59639e-05
-1.08455e-05
2.72734e-05
-4.63713e-07
-2.12514e-05
2.61048e-05
-1.85793e-05
1.37262e-05
-3.32707e-06
3.97923e-09
3.32278e-06
-3.03578e-05
3.16919e-05
-3.23571e-05
2.5133e-05
-3.09672e-06
-1.02909e-06
-6.68989e-07
4.79505e-06
6.33615e-05
-6.13775e-05
1.89667e-06
-3.8818e-06
-1.24452e-05
3.87576e-06
1.2041e-05
-3.47246e-06
-4.59042e-06
2.57625e-05
-2.83839e-05
7.21195e-06
-1.78866e-05
-2.1262e-05
3.14429e-05
7.70596e-06
8.97647e-06
-1.27323e-05
1.83637e-05
-1.46073e-05
7.33652e-06
2.34636e-05
-4.88742e-05
1.8074e-05
-3.35615e-05
1.1967e-05
1.45347e-05
7.06063e-06
8.39928e-07
-2.86693e-05
2.33326e-05
4.49642e-06
-2.71095e-05
2.49989e-06
9.66758e-06
1.49421e-05
2.34686e-05
-2.02443e-05
7.04258e-06
-1.02684e-05
1.4216e-06
1.26583e-05
-1.38549e-05
-2.26241e-07
1.75169e-05
-2.41718e-06
-2.68473e-06
-1.24148e-05
1.57728e-05
1.81356e-05
-1.55377e-05
-1.83709e-05
2.54672e-06
-8.03609e-07
4.6001e-06
-6.34301e-06
5.04571e-06
-3.04321e-07
-4.74034e-06
4.25128e-08
4.18118e-06
-4.22368e-06
-5.10077e-07
3.16321e-06
-1.38787e-05
1.12255e-05
-2.03475e-05
4.17482e-05
4.31719e-07
-2.18298e-05
4.75431e-06
-2.15095e-05
1.66175e-05
1.29969e-07
-3.27817e-06
-4.39071e-06
1.22155e-06
6.44691e-06
-5.98357e-06
-1.45568e-05
3.76686e-06
1.67719e-05
-3.11521e-06
2.04283e-05
8.76894e-06
-2.60851e-05
4.35656e-06
3.9208e-06
-1.90039e-05
1.07266e-05
-2.74167e-06
2.83069e-05
-3.22537e-05
6.68873e-06
-8.00005e-06
8.22585e-06
-2.28452e-07
1.92443e-05
-2.38121e-05
3.76207e-06
8.0475e-07
1.84707e-05
1.07803e-05
-3.24341e-05
3.18325e-06
-2.61478e-05
-1.4569e-05
7.29463e-06
3.34226e-05
-2.33051e-06
-2.18679e-05
9.114e-07
2.32866e-05
1.35736e-05
-1.40949e-05
1.138e-07
4.07538e-07
1.63813e-05
-2.85011e-05
-5.54702e-06
1.76678e-05
-3.72278e-06
2.92815e-07
3.4297e-06
-4.27885e-06
-1.43025e-06
2.92329e-05
-2.35252e-05
-1.38006e-05
8.64269e-06
4.42504e-05
-3.90931e-05
-1.01995e-05
2.06459e-05
-3.06252e-05
2.01798e-05
1.61133e-06
-2.5113e-05
2.00948e-05
3.40939e-06
-3.67364e-06
-8.78865e-06
3.13074e-05
-1.88449e-05
2.31506e-05
-9.90669e-06
-1.01996e-05
-3.04419e-06
-2.71134e-06
-1.25487e-05
1.81932e-05
-2.93289e-06
6.51513e-06
-3.18292e-06
-3.332e-06
-1.07653e-06
-2.51934e-05
-6.4228e-06
3.2693e-05
-1.47499e-05
2.06276e-05
5.87603e-06
-1.17537e-05
5.31058e-06
-1.31599e-05
2.25371e-05
-1.46878e-05
-4.32476e-05
1.01685e-05
-7.12372e-07
3.37922e-05
-2.60922e-06
-4.34886e-05
3.92943e-05
6.79754e-06
5.94555e-08
-4.25162e-06
4.19351e-06
2.11643e-05
-3.25402e-05
6.06676e-07
1.07694e-05
3.68623e-05
4.20384e-06
-3.96458e-05
-1.41994e-06
1.14294e-05
1.1667e-06
-2.67543e-05
1.41594e-05
-9.39357e-06
1.29731e-05
1.48912e-05
-2.69465e-05
-2.24225e-05
1.30757e-05
3.62919e-05
6.19467e-06
3.22456e-06
-4.37176e-06
7.09389e-06
-5.37231e-06
-2.71496e-05
2.54284e-05
4.87759e-06
1.52044e-05
-6.89576e-06
-1.31857e-05
-7.07074e-06
1.52858e-05
3.16036e-05
-3.98195e-05
1.86234e-07
2.59711e-06
-2.78358e-06
-2.28688e-05
3.62883e-06
1.40236e-05
5.21772e-06
3.25062e-05
-1.74232e-05
-2.19915e-05
6.90861e-06
3.27887e-05
-8.1542e-06
-3.6197e-06
-2.10146e-05
-2.90034e-05
-6.65957e-07
-9.02599e-07
3.05724e-05
2.58168e-05
1.19858e-05
-3.60114e-05
-1.79111e-06
6.92728e-06
4.83276e-06
-1.176e-05
1.8114e-06
-2.60924e-05
-1.9426e-07
2.44746e-05
4.14261e-05
-3.18535e-05
-2.99753e-06
-6.57388e-06
4.85004e-06
-6.8434e-07
-3.88605e-06
-2.8255e-07
-3.19424e-05
4.5241e-05
1.87747e-05
-3.20724e-05
1.82063e-05
-2.91661e-05
-2.91459e-06
1.38718e-05
-2.49691e-05
2.71056e-05
-8.91688e-07
-1.24355e-06
-3.26563e-06
1.61694e-06
1.64563e-06
3.62067e-05
-3.97666e-06
1.00849e-05
-4.2316e-05
-2.67716e-05
3.60934e-05
-3.42897e-05
9.46452e-08
2.58108e-06
1.96005e-05
-2.22756e-05
2.91021e-06
-2.81036e-06
-9.99586e-08
-1.18939e-05
-6.61431e-06
1.13601e-06
1.73726e-05
-8.97842e-06
2.2538e-05
-1.72448e-05
3.68572e-06
1.69198e-06
-5.2226e-06
3.26135e-06
2.69969e-07
-2.06515e-06
-1.91996e-06
3.9816e-06
-2.3736e-05
2.35492e-05
2.362e-05
-2.34336e-05
4.9821e-05
-1.26423e-05
-1.08218e-05
-2.63559e-05
1.39051e-05
6.04021e-07
-4.64472e-07
-1.40439e-05
3.35591e-05
-4.0993e-05
5.66919e-06
1.76474e-06
3.35392e-06
-5.60468e-08
-3.29778e-06
-5.82964e-06
2.84011e-05
-2.73522e-05
4.77291e-06
-1.47109e-05
1.53481e-05
-1.70547e-06
1.06835e-06
-1.12213e-05
9.82794e-06
6.79676e-07
7.13759e-07
2.67798e-06
-2.11089e-05
7.56489e-06
1.08659e-05
-1.14154e-05
-1.08148e-05
2.63308e-05
-4.10058e-06
-1.58427e-05
1.55243e-05
2.84865e-07
3.37644e-08
-3.0827e-05
-3.56124e-05
3.59141e-05
-1.11004e-05
3.49384e-05
1.10742e-05
-3.49117e-05
5.82485e-06
3.08365e-05
6.49842e-06
-4.31597e-05
-1.42861e-05
6.2727e-06
1.93752e-05
-1.13601e-05
-1.60307e-08
7.89502e-08
1.14869e-05
-1.15482e-05
1.49686e-06
3.81562e-05
-5.62899e-06
-3.40235e-05
-4.22889e-06
-2.75929e-06
4.5857e-06
2.40289e-06
4.64061e-06
-4.37809e-06
-2.61933e-07
-3.81059e-06
-1.30824e-05
1.05055e-06
-2.80076e-05
4.10755e-07
-5.48459e-06
3.30816e-05
-1.60058e-05
1.43697e-05
4.53538e-07
1.18198e-06
-4.77788e-07
8.91788e-06
-1.35359e-07
-8.30554e-06
-3.15698e-06
3.07851e-06
7.95419e-08
3.24876e-06
-8.23533e-07
2.15392e-05
-2.39647e-05
2.97901e-05
3.31355e-06
-2.58755e-05
-7.22743e-06
-3.38124e-06
-1.55737e-05
-1.01946e-05
1.48331e-05
-1.63121e-05
1.0798e-06
3.96878e-07
7.3239e-06
-3.08719e-05
3.64461e-05
-1.28978e-05
1.18588e-05
2.4845e-06
-6.26161e-06
-8.08023e-06
-1.63816e-05
-3.82856e-05
9.56534e-06
4.51013e-05
5.61675e-08
2.83085e-06
-2.17035e-07
-2.66598e-06
1.05554e-05
-6.7446e-07
1.67041e-06
-1.1549e-05
-1.07518e-05
2.29171e-07
1.06314e-05
-1.07249e-07
2.30739e-05
3.95964e-06
-2.9129e-05
2.09739e-06
-3.06851e-05
-1.76224e-05
3.94055e-05
8.90207e-06
-7.32915e-06
3.11308e-06
-6.82932e-06
6.5181e-06
2.72333e-05
-3.50275e-05
1.27534e-06
-2.34214e-05
-2.37496e-05
9.66322e-06
3.75104e-05
-2.99485e-06
3.26616e-06
-2.71512e-07
1.82716e-05
1.04863e-05
-2.17321e-06
-2.65821e-05
-7.25343e-07
-4.39921e-06
-2.91389e-05
3.42618e-05
-2.09128e-05
5.30207e-06
5.09534e-05
-3.5343e-05
2.685e-05
-2.00661e-05
-1.03871e-05
3.60993e-06
2.84092e-06
-1.00887e-07
-2.74083e-06
4.40285e-05
-2.1691e-05
3.02967e-06
-2.53676e-05
1.01529e-05
-1.08922e-05
1.35607e-06
-6.15027e-07
2.49329e-06
2.37313e-06
-4.86626e-06
-1.64954e-05
-2.14119e-05
4.31714e-06
3.35888e-05
-1.22558e-05
2.34201e-07
1.2677e-05
-6.53929e-07
2.16048e-05
-4.46528e-05
5.47513e-07
2.25005e-05
-2.07531e-05
-2.57493e-05
3.40876e-05
1.24144e-05
-1.31496e-05
1.75435e-05
2.8395e-05
5.37274e-06
2.8227e-05
-2.95759e-05
-4.02478e-06
2.0181e-06
1.5176e-06
-1.36197e-05
1.00844e-05
-3.31522e-05
1.46821e-05
1.18141e-05
6.6566e-06
1.44584e-05
3.79649e-06
-1.63958e-06
-1.66172e-05
-3.43983e-06
-2.65549e-05
2.74125e-06
2.72541e-05
6.6091e-06
-2.53101e-06
2.61683e-05
-3.02462e-05
-2.23225e-06
-7.2462e-08
-5.5871e-06
7.88055e-06
7.13021e-07
1.03987e-05
-3.88345e-05
2.77229e-05
-1.37216e-05
-2.78277e-05
-1.0918e-06
4.26399e-05
3.80775e-07
5.43408e-06
-5.8142e-06
9.00641e-08
-2.03887e-07
1.18864e-05
-1.17732e-05
2.59109e-06
1.6183e-05
1.39983e-05
-3.27722e-05
3.01948e-07
-1.56312e-05
1.34214e-07
1.51947e-05
4.12298e-06
-2.01951e-05
-1.53859e-05
3.14583e-05
1.48674e-05
1.83404e-05
-1.59345e-05
-1.7274e-05
3.11747e-05
1.86309e-05
-4.19164e-05
-7.88938e-06
1.2681e-07
-4.76072e-06
4.63405e-06
2.9725e-06
1.44518e-06
-7.60357e-09
-4.41019e-06
2.14393e-06
2.72167e-06
3.53481e-07
-5.21933e-06
2.74905e-06
-3.22023e-06
1.59957e-05
1.78419e-07
-2.98362e-05
1.115e-05
1.85092e-05
5.67513e-05
6.00505e-06
-1.18777e-05
-5.08803e-05
-8.71157e-06
1.17103e-05
-2.81429e-06
-1.8531e-07
-1.58753e-05
1.51213e-05
-2.55717e-05
2.63264e-05
3.41509e-06
6.13179e-08
-3.47726e-06
1.21901e-06
9.11737e-06
-1.74111e-05
7.07501e-06
3.40738e-06
-5.12944e-06
1.72307e-06
2.66164e-05
-1.42253e-05
-7.08047e-06
-1.71733e-05
6.2597e-06
-1.59083e-05
2.68221e-05
3.28152e-05
-3.18845e-05
5.03833e-06
-5.96857e-06
1.536e-05
5.17146e-06
-1.83376e-05
-2.19208e-06
3.09965e-06
-3.81688e-05
1.29826e-05
2.20867e-05
2.80991e-05
-5.73252e-06
4.74015e-06
4.84479e-05
-5.4207e-05
2.28436e-06
-3.22888e-05
2.5051e-06
3.33784e-05
-3.5948e-06
-2.81633e-05
-1.81319e-05
3.04204e-05
-1.2041e-05
-1.17828e-05
-1.6341e-05
4.01653e-05
-1.30344e-06
4.5973e-06
3.89881e-05
-4.22809e-05
1.47022e-06
2.81207e-05
-4.91174e-05
1.95267e-05
-1.16343e-07
7.47473e-08
1.91367e-05
-1.90966e-05
-4.11892e-05
6.9263e-06
3.23278e-06
3.1028e-05
1.30305e-05
-1.31009e-05
4.50416e-06
-4.43217e-06
8.03293e-07
1.1919e-05
-1.5182e-05
2.45959e-06
-2.36334e-05
3.58025e-05
-4.56308e-06
-7.60541e-06
-3.50386e-05
2.58983e-05
1.64397e-06
7.49528e-06
-2.88454e-05
2.85786e-05
3.74902e-05
-3.72226e-05
3.23942e-05
-2.63956e-05
1.23054e-06
-7.22928e-06
-1.3763e-05
1.77676e-05
-1.07373e-05
6.73281e-06
-7.96944e-06
1.84665e-05
1.57157e-06
-1.20665e-05
-3.66566e-05
2.94858e-06
4.01003e-05
-6.39255e-06
-4.77271e-06
-2.58497e-05
3.76297e-07
3.02505e-05
2.56973e-06
-8.914e-06
7.14749e-06
1.0156e-05
8.44287e-07
-9.70701e-06
-1.29277e-06
1.00994e-05
1.91422e-05
-2.23603e-05
-6.88063e-06
-1.00972e-05
1.3859e-05
2.37243e-05
-2.7487e-05
9.6295e-07
4.46983e-06
-3.76847e-05
3.22536e-05
1.77938e-05
-2.69529e-05
8.88828e-06
2.72623e-07
-3.94128e-05
-6.38004e-06
1.07549e-05
-3.39485e-06
-8.98117e-07
-2.55016e-05
2.97939e-05
-3.52894e-06
3.67633e-08
3.49258e-06
-5.08737e-06
-6.61451e-06
4.24507e-05
-3.07487e-05
5.69347e-06
-5.41301e-06
-2.79209e-07
2.68764e-07
2.10423e-07
-1.02091e-05
9.73117e-06
-1.86303e-05
1.7955e-05
3.18499e-05
5.94824e-06
3.28543e-05
-2.36362e-05
-1.51657e-05
4.80271e-06
-4.8785e-06
7.5365e-08
-4.52577e-06
5.06233e-05
-2.8142e-05
-1.79535e-05
-2.70901e-05
2.91182e-05
1.95765e-05
-2.21599e-06
2.45105e-05
1.12402e-05
-3.35345e-05
-3.23698e-05
-1.20376e-05
4.31997e-05
1.20817e-06
-5.11388e-06
4.6417e-06
4.72028e-07
3.16344e-05
-3.37112e-05
-3.24065e-07
2.40197e-06
-2.05451e-05
-1.2831e-05
1.84613e-05
1.49151e-05
-3.81531e-06
1.72976e-06
-2.15774e-05
2.36634e-05
-2.85628e-05
-7.6501e-06
7.72181e-07
3.54408e-05
-1.7803e-05
-8.87687e-06
-6.8815e-06
1.64118e-05
-3.74886e-05
-3.27277e-06
2.43454e-05
8.05361e-06
-3.36434e-05
-1.0247e-05
3.58361e-05
7.99334e-06
-7.61172e-06
-3.81779e-07
-2.8461e-05
4.77699e-05
-6.7749e-06
-1.25321e-05
-6.40084e-06
-2.69284e-05
3.04927e-05
2.83678e-06
-4.39563e-05
4.50211e-05
-5.23544e-06
4.17049e-06
-2.60971e-05
-6.53559e-06
1.8545e-05
1.40884e-05
-2.70584e-05
-5.76493e-06
3.28821e-05
-5.60491e-08
-4.03383e-07
9.60556e-08
-1.34753e-05
1.37826e-05
3.6982e-06
1.83381e-07
-3.88187e-06
-6.78425e-06
6.86002e-06
-7.64023e-08
4.29573e-05
-3.63941e-05
-4.97542e-05
4.31869e-05
3.16514e-06
1.2975e-07
-3.29461e-06
-3.04078e-05
2.99212e-05
-3.90401e-07
8.78431e-07
-1.11811e-05
9.47931e-06
2.10814e-07
1.49242e-06
4.67638e-06
4.91174e-05
-2.64588e-05
-2.73349e-05
-2.78571e-05
-8.72349e-06
3.51843e-06
3.30587e-05
3.34844e-05
1.49159e-05
-1.49872e-05
-3.34131e-05
1.36359e-05
-5.07498e-06
1.73871e-06
-1.02998e-05
3.76298e-05
-3.51384e-06
-2.71329e-05
-6.98503e-06
-4.27139e-06
6.35267e-06
-6.99831e-06
4.91667e-06
-2.78834e-06
8.79642e-06
3.26812e-06
-9.27584e-06
-1.42076e-05
-7.22446e-06
3.9988e-05
-1.85546e-05
6.61777e-06
2.54612e-05
-2.49596e-05
-7.11924e-06
-2.25408e-05
2.32427e-05
1.49981e-05
-1.56998e-05
2.38409e-05
-2.16001e-05
-2.90179e-06
6.63464e-07
-6.73755e-08
-1.18059e-05
-5.04716e-08
1.19261e-05
-7.54076e-06
1.41923e-05
-1.50905e-06
-5.14267e-06
-3.34875e-05
-1.15945e-05
1.67619e-05
2.83192e-05
2.33476e-05
-1.97439e-05
-3.98531e-06
3.82615e-07
8.99609e-06
-3.08749e-05
-3.51297e-05
5.70096e-05
1.96859e-05
-2.56242e-05
-1.25253e-05
1.84648e-05
-6.23125e-06
-5.3852e-05
1.47286e-05
4.53535e-05
1.79324e-05
-1.59626e-05
2.35056e-06
-4.32019e-06
3.11152e-05
-1.11822e-05
-3.68128e-05
1.68778e-05
1.27948e-05
2.14387e-05
-4.97488e-05
1.55139e-05
-7.73401e-06
3.06407e-05
-2.69187e-05
4.01196e-06
-2.90545e-05
3.28747e-05
3.35161e-05
-3.73358e-05
-1.67185e-07
-1.4745e-05
1.28963e-05
2.01626e-06
4.40541e-06
-4.13674e-06
-2.66958e-07
3.78264e-05
-4.69083e-05
1.34804e-06
-4.34929e-06
5.92766e-06
3.0646e-06
-4.64213e-06
-3.20246e-06
1.35634e-07
-1.55157e-06
4.61903e-06
1.798e-05
-2.41764e-06
1.81508e-05
-2.75423e-05
1.15599e-06
8.23565e-06
-9.32337e-06
-2.27932e-06
8.89155e-06
2.44736e-05
-3.21022e-05
1.82906e-05
-1.06614e-05
-2.73154e-05
-3.96404e-06
3.28046e-05
-1.52469e-06
-5.39716e-05
-8.28708e-06
4.77547e-05
1.45019e-05
-4.03448e-05
1.09789e-05
9.31989e-07
2.84343e-05
-4.42256e-06
3.70659e-07
8.99922e-07
3.15073e-06
-2.62993e-05
-3.16091e-05
2.43179e-05
3.35915e-05
1.85889e-05
1.61833e-05
-2.78196e-05
-6.95178e-06
1.84948e-07
1.51886e-05
-1.28925e-05
-2.4818e-06
-2.89213e-07
-1.84618e-05
3.62011e-05
-1.74501e-05
3.82073e-05
-2.7349e-05
-1.45318e-05
2.83339e-05
-3.19543e-05
6.43527e-06
-2.81606e-06
-3.9585e-06
-2.63728e-05
2.85679e-05
1.76427e-06
3.98623e-05
-2.7067e-06
-4.1113e-05
2.34387e-05
-2.61606e-05
6.34609e-06
-3.62597e-06
1.86737e-06
-1.23892e-05
-1.02239e-06
1.15447e-05
-2.68639e-06
2.58226e-06
-3.11376e-06
3.21792e-06
-1.91237e-06
4.767e-06
1.57287e-06
-4.4303e-06
-7.49676e-06
-1.97263e-05
-1.4501e-06
2.86709e-05
1.0961e-05
8.69419e-06
-2.97863e-05
1.01313e-05
-1.87127e-05
5.91572e-07
6.69569e-06
1.14256e-05
-1.79553e-06
-1.8756e-05
1.82221e-05
-2.36074e-05
2.78246e-05
8.74115e-06
-1.29556e-05
-3.38901e-05
3.91468e-05
-1.23236e-05
7.06783e-06
-5.77272e-06
-1.95452e-05
2.31312e-06
2.30049e-05
1.42829e-06
3.44554e-05
-4.02131e-05
4.32819e-06
1.74198e-05
-5.54178e-05
1.19957e-05
2.59999e-05
4.9621e-06
-3.78228e-05
2.06804e-05
1.2181e-05
1.54459e-06
2.06184e-05
-7.05998e-06
-1.51027e-05
-4.21075e-06
2.01157e-06
4.12928e-06
-1.92967e-06
-3.94379e-06
7.88892e-06
-2.9267e-05
2.5322e-05
-1.5977e-06
-1.1665e-05
3.1377e-07
1.29487e-05
1.83248e-07
1.2009e-05
-2.01706e-07
-1.1992e-05
1.7239e-07
2.58037e-07
1.2241e-05
-1.26681e-05
-9.20198e-06
-1.57519e-05
2.77999e-05
-2.84512e-06
3.46769e-06
-3.3694e-05
1.81352e-05
1.20924e-05
3.28029e-05
8.42513e-07
2.53848e-06
-3.61846e-05
2.85791e-06
-2.92692e-06
6.91216e-08
1.07961e-05
2.18714e-05
-2.77051e-05
-1.17835e-05
4.73777e-08
1.32158e-07
1.16054e-05
2.0959e-06
-2.6926e-05
9.76158e-06
1.50687e-05
9.36437e-07
7.74941e-06
-7.84817e-06
-8.38246e-07
-5.89951e-06
-1.25368e-05
2.3942e-05
-5.50495e-06
2.91433e-05
-3.18967e-05
2.74571e-05
-2.47081e-05
1.89981e-05
-8.66904e-06
-3.2263e-05
2.1934e-05
-2.06725e-06
-1.9713e-06
4.04083e-06
1.22426e-05
2.64349e-06
-3.54156e-06
-1.13432e-05
-2.4943e-05
3.72832e-05
3.07383e-06
2.58046e-06
-5.65598e-06
1.99248e-06
-3.08097e-05
-2.72281e-07
2.90897e-05
-2.50417e-07
6.25837e-07
2.14964e-05
-1.25852e-06
2.28648e-05
-4.49885e-05
2.33849e-05
-7.35417e-06
-2.11271e-05
-3.02779e-06
3.15073e-05
5.83285e-06
-9.66441e-06
9.95728e-06
-6.12646e-06
-7.1397e-06
-3.46363e-05
-4.32244e-06
4.60999e-05
1.97804e-05
3.69776e-06
-2.27549e-05
-7.23127e-07
6.22707e-06
2.97614e-05
-4.92804e-05
1.32914e-05
-2.3974e-06
-1.42588e-05
-8.30478e-06
2.4961e-05
-1.98231e-05
-6.35079e-06
1.0351e-05
1.58195e-05
-1.13967e-06
-1.18302e-06
-1.35721e-05
1.58944e-05
3.79992e-05
-1.58793e-05
-9.22184e-06
-1.28975e-05
-2.35695e-05
5.74522e-05
-3.18591e-05
-2.02364e-06
1.17789e-05
3.01702e-07
3.12075e-07
-1.23941e-05
3.01212e-05
-3.58937e-05
3.59647e-05
-3.0193e-05
-5.44585e-06
1.70919e-05
-1.38422e-05
2.19639e-06
1.40045e-05
-5.12951e-05
2.09479e-06
3.51962e-05
9.55804e-06
4.54298e-05
-3.89401e-05
-1.60474e-05
6.76684e-06
-6.59932e-06
-1.07813e-05
1.06152e-05
-2.2813e-05
-1.3714e-05
4.03554e-05
-3.82984e-06
3.5421e-05
-2.83925e-05
-4.25004e-05
3.54705e-05
1.79543e-05
1.51189e-05
-9.40312e-06
-2.36682e-05
1.63677e-07
-1.53614e-05
9.47671e-08
4.13521e-06
-4.22831e-06
-3.56683e-06
3.45397e-06
1.1176e-07
2.61917e-05
-2.47539e-05
-2.27994e-05
2.13578e-05
-7.04362e-06
8.92214e-06
-2.55241e-05
2.36439e-05
3.76634e-05
-2.9431e-05
-6.14601e-06
-2.08637e-06
-5.04079e-06
1.24298e-06
3.28936e-06
-8.35584e-06
2.94626e-05
-8.02583e-06
-1.30806e-05
-4.33338e-05
1.11081e-06
1.48685e-05
2.73501e-05
1.44097e-05
-6.10501e-06
-1.41936e-05
5.88791e-06
7.99659e-06
3.64587e-05
-3.41035e-05
-1.03507e-05
-2.10718e-05
-4.26623e-06
4.01772e-05
-1.48386e-05
2.1665e-06
2.34205e-05
5.13752e-06
-3.07245e-05
7.9689e-06
2.56917e-05
-3.14943e-05
1.97087e-05
-1.45527e-05
-7.61074e-06
2.45426e-06
2.19714e-05
-2.81937e-05
1.24495e-05
-1.37263e-05
8.80714e-06
8.11631e-06
-3.19718e-06
9.37119e-06
1.11338e-05
2.21493e-05
-4.26531e-05
4.51547e-06
-2.77856e-05
-4.34136e-06
2.76088e-05
4.78887e-07
2.70231e-05
2.46801e-06
-2.99691e-05
1.23609e-05
2.34825e-05
-3.9083e-05
3.2392e-06
-5.61829e-05
4.65667e-05
-7.63722e-07
1.31541e-07
3.85862e-05
-3.01966e-06
-3.56996e-05
-3.51938e-06
7.78679e-06
-1.06715e-05
6.40515e-06
-8.67832e-07
-3.77211e-06
2.6541e-07
4.37558e-06
-3.6385e-06
3.50769e-06
1.30616e-07
-5.00945e-06
-7.97608e-06
3.73258e-05
-2.43401e-05
-2.93634e-05
4.36877e-06
-1.28549e-05
3.78491e-05
4.35484e-05
-1.06328e-05
-1.40544e-05
-1.88593e-05
3.51415e-06
-3.22931e-05
1.15879e-05
1.71921e-05
3.65708e-06
-3.31231e-06
-1.26899e-06
9.22914e-07
-4.22047e-06
4.06715e-06
1.53975e-07
1.96225e-06
2.76879e-05
-4.96534e-06
-2.46838e-05
-5.32463e-06
2.60297e-05
-3.39729e-05
1.32689e-05
1.15488e-05
1.94779e-05
-4.49383e-05
1.39118e-05
-2.10106e-06
2.58367e-05
1.9022e-05
-4.27579e-05
-4.18945e-05
2.22696e-05
2.44959e-05
-4.87121e-06
3.73514e-05
-3.80876e-05
7.55518e-06
-6.81834e-06
-3.16136e-05
-6.6502e-07
-9.6155e-06
2.40814e-07
5.62125e-06
-5.8623e-06
3.03152e-05
4.11196e-06
-2.50408e-05
-9.39015e-06
-1.96283e-06
-2.84902e-06
1.35041e-05
-8.69221e-06
3.03134e-06
5.32917e-07
9.98136e-06
-1.35455e-05
-3.33804e-05
1.48123e-05
1.62153e-05
2.35275e-06
1.40525e-05
-2.22233e-05
-3.21472e-06
1.13834e-05
-2.46128e-05
5.70383e-06
4.03321e-05
-2.14229e-05
-3.33412e-06
-1.99389e-07
3.53169e-06
-1.44323e-05
3.68514e-05
2.5786e-05
-4.82051e-05
3.22731e-05
8.99948e-07
-5.13784e-05
1.82059e-05
-2.30643e-06
3.3128e-05
-2.91054e-06
-2.79108e-05
1.92394e-05
-1.50095e-05
1.15399e-05
-1.5766e-05
-1.315e-06
-2.38582e-05
2.68854e-05
-1.71198e-06
-2.07682e-05
-3.27594e-06
-1.43333e-05
3.83822e-05
-8.0239e-06
-8.47402e-06
-1.49034e-05
3.14085e-05
-1.25206e-06
3.41282e-05
-3.6691e-06
-2.92067e-05
2.33451e-05
-2.31227e-05
4.97789e-07
-7.1997e-07
3.66676e-05
7.93137e-08
-2.53854e-05
-1.13606e-05
-8.63518e-06
-4.28778e-06
-2.45931e-05
3.75154e-05
-3.20479e-07
-3.32363e-06
3.64303e-06
-3.05783e-05
4.57042e-05
-3.54051e-06
-1.15849e-05
2.74951e-06
1.9209e-05
6.18025e-06
-2.81408e-05
-4.57115e-06
1.06151e-05
3.7724e-06
-9.81827e-06
-1.64534e-05
-4.09586e-06
1.71161e-05
3.43544e-06
2.02705e-05
1.45056e-05
-5.13111e-05
1.6535e-05
1.24076e-05
-9.55178e-06
3.12443e-05
-3.40992e-05
-2.52323e-06
2.05089e-05
1.70053e-06
-1.96859e-05
3.20787e-06
-3.15831e-06
-4.97008e-08
2.49836e-06
3.13121e-05
1.3726e-06
-3.51833e-05
2.89146e-05
-4.61162e-06
-2.76929e-05
3.39114e-06
-5.34593e-06
6.60628e-06
-3.0391e-05
2.91333e-05
-2.8951e-05
-4.47998e-06
2.25581e-05
1.0876e-05
1.12574e-05
-1.0668e-05
-9.66945e-08
-4.93784e-07
-4.23152e-05
2.73757e-05
-1.64604e-06
1.6586e-05
-4.90551e-06
4.14523e-06
7.60363e-07
1.34491e-05
-1.15403e-05
1.76512e-05
-1.95607e-05
1.95589e-05
1.64098e-05
-8.55248e-06
1.40666e-05
-3.80898e-05
-1.69223e-05
4.09442e-05
1.35204e-07
-1.63152e-05
1.63949e-05
-2.15461e-07
8.96336e-06
-1.47009e-05
-1.69286e-05
2.26677e-05
1.45406e-05
6.27642e-06
-2.39507e-06
-1.84214e-05
-4.49309e-06
1.06965e-06
5.71582e-06
-2.29238e-06
-4.291e-06
5.35707e-05
-1.82105e-05
-3.1077e-05
1.46932e-05
1.69571e-05
-7.34887e-07
-3.09155e-05
1.45989e-07
3.21366e-06
-3.35927e-06
-1.08777e-06
5.45438e-06
3.18321e-05
-3.61976e-05
3.93659e-05
5.16409e-06
-1.90814e-05
-2.54481e-05
-1.12346e-06
5.96309e-06
-4.70752e-06
-1.32821e-07
1.42805e-05
-1.28892e-06
-1.5513e-05
2.52343e-06
-4.30451e-06
-1.36225e-05
6.93815e-06
1.09903e-05
-5.95088e-06
2.73761e-05
4.49342e-06
-2.59191e-05
2.90085e-05
-3.85544e-06
-3.15866e-05
6.4339e-06
-3.02033e-06
5.84989e-06
-2.8295e-06
2.69711e-06
-1.18376e-05
1.05585e-05
-1.41858e-06
7.10968e-07
1.12849e-05
-1.18959e-05
-1.0071e-07
1.10857e-05
1.28843e-05
-1.44568e-06
-2.25244e-05
2.04048e-05
2.76009e-05
-1.89972e-05
-1.41538e-07
4.19771e-06
-4.05747e-06
-3.99221e-05
1.98662e-05
3.7063e-05
-1.70091e-05
3.96245e-05
6.95419e-06
-4.14537e-05
-5.12516e-06
2.67487e-05
-1.78449e-05
-2.96748e-05
8.34058e-06
1.4328e-05
-3.40033e-05
-1.96084e-06
-7.35967e-06
4.33241e-05
-9.55185e-08
4.14588e-06
-4.0513e-06
3.80748e-05
-1.48574e-06
-4.3681e-06
-3.22211e-05
4.36803e-06
-4.36975e-06
2.56737e-09
-1.26066e-05
3.18733e-06
-7.83837e-06
1.7258e-05
-2.15652e-05
-1.79732e-05
1.6299e-05
2.32399e-05
2.16665e-05
-1.6613e-05
-4.50915e-06
-5.42956e-07
-4.65465e-08
3.33933e-06
-3.29398e-06
-7.44236e-07
-4.37303e-06
1.1597e-08
5.10653e-06
8.16325e-06
3.21793e-06
-5.69898e-06
-5.68258e-06
-1.26282e-05
1.36498e-05
-1.76554e-06
-2.44554e-07
4.19227e-05
-1.23792e-06
-4.04399e-05
-7.80508e-06
-7.71596e-07
1.02251e-05
-1.6491e-06
3.69266e-06
-1.47711e-05
1.16673e-05
-5.89182e-07
1.07838e-05
-2.02338e-05
1.43502e-05
-4.89996e-06
8.44814e-06
1.95605e-05
3.2651e-06
-3.12766e-05
5.9852e-06
-6.14083e-06
1.55352e-07
1.60977e-05
-1.31064e-05
-3.32291e-05
3.0235e-05
1.06461e-06
1.1988e-06
1.59934e-05
-1.82567e-05
4.0948e-06
1.83481e-05
-2.32995e-05
8.56344e-07
1.24028e-05
-5.55787e-07
-1.95121e-06
-9.89563e-06
1.03728e-05
2.16087e-05
-3.18635e-05
-1.15759e-07
1.50748e-05
-1.01421e-07
-1.30392e-06
-1.36693e-05
-2.62454e-05
9.53426e-06
1.30329e-06
1.5406e-05
-1.18286e-05
-1.10453e-05
-1.46472e-06
1.06713e-05
-1.86263e-05
1.40071e-05
-6.05412e-06
-4.26485e-06
-1.74027e-05
-2.6228e-05
4.7895e-05
-6.12984e-06
7.61764e-06
-1.75355e-06
2.65993e-07
4.72733e-08
2.78244e-06
-2.83009e-06
-7.68344e-06
3.99531e-05
1.21462e-05
-4.4418e-05
2.92637e-05
1.22407e-05
-1.08826e-05
-3.06169e-05
2.77713e-05
-2.35051e-05
2.72582e-05
-3.15239e-05
3.57106e-05
-3.94496e-05
4.46111e-06
-7.21964e-07
-5.45851e-05
2.3713e-05
1.00233e-05
2.08487e-05
-1.25694e-05
-1.55393e-06
1.37909e-05
3.32365e-07
3.32926e-05
-4.45117e-05
1.55935e-05
-4.37426e-06
1.13345e-05
-1.24358e-05
3.93889e-06
-2.83731e-06
-1.67358e-05
1.5149e-05
-1.02451e-05
-1.47681e-05
4.93061e-05
5.45737e-06
-3.9992e-05
-5.85132e-06
1.49406e-07
5.70111e-06
-4.80188e-06
1.0661e-05
-3.97965e-05
-2.12541e-05
-3.80004e-07
2.1573e-07
2.14175e-05
5.00799e-06
1.17821e-07
-5.1241e-06
8.392e-06
-5.19171e-07
-3.06177e-05
2.27454e-05
-6.02279e-08
-2.06072e-07
1.13684e-05
-1.11034e-05
8.49686e-06
1.80806e-05
-3.0407e-05
3.8304e-06
2.5563e-05
1.80436e-06
1.6802e-06
-2.90523e-05
-2.83562e-06
6.23059e-06
3.96768e-05
-4.3071e-05
-9.41008e-06
-1.1614e-06
-3.70543e-07
1.09428e-05
-9.03898e-06
7.77672e-06
-3.09436e-05
3.22052e-05
-1.49288e-06
2.61476e-05
-2.27817e-05
-1.87201e-06
3.68388e-05
1.12689e-05
-1.68408e-05
-3.12659e-05
8.00387e-06
-4.37739e-05
2.86991e-05
-3.69891e-05
4.72623e-05
-2.27656e-06
2.04752e-05
-7.98243e-06
1.67736e-05
-1.44728e-05
-3.59892e-06
7.04535e-06
1.10261e-05
-7.60687e-06
7.99525e-07
6.95096e-06
-1.44749e-07
-1.1982e-05
2.98682e-05
-2.09096e-05
3.02215e-06
-3.33552e-05
2.95204e-05
3.14199e-05
-2.75853e-05
-3.5983e-06
3.30181e-06
1.83451e-07
1.13503e-07
3.29839e-05
-4.84716e-05
-1.80268e-05
3.35123e-05
-4.39768e-05
-1.75e-05
2.95288e-05
3.19476e-05
3.95527e-05
4.19467e-06
2.11037e-06
-4.58583e-05
3.38646e-05
-2.26241e-05
2.83121e-05
-3.93219e-05
-3.74284e-06
1.54988e-05
2.75674e-05
3.49349e-06
2.91293e-07
-3.78434e-06
3.76514e-05
-3.48443e-05
-1.18544e-05
9.04701e-06
-2.11749e-05
-7.47127e-06
6.22256e-06
2.2422e-05
1.54939e-05
2.64055e-05
-1.5081e-05
-2.68186e-05
7.19103e-06
2.27626e-05
-2.21147e-05
-7.83727e-06
5.10597e-07
-6.93254e-06
6.4223e-06
-1.72032e-05
-1.50113e-05
1.47454e-05
1.74657e-05
1.72235e-06
2.09543e-05
-4.92143e-06
-1.77563e-05
-3.51062e-05
3.52841e-05
-6.58007e-06
-2.97206e-06
3.72184e-05
-3.62943e-05
2.0484e-06
2.04505e-05
4.21658e-06
1.12068e-05
-3.58726e-05
-6.41024e-08
-2.41549e-06
2.48022e-06
-3.52119e-06
3.49744e-06
2.19051e-08
-2.45724e-05
-1.19296e-05
1.4328e-05
2.21746e-05
-3.15286e-05
-8.28768e-07
3.82778e-05
-5.92414e-06
-9.44499e-06
3.46059e-05
-3.58768e-05
1.07159e-05
-2.58137e-05
2.10335e-05
-9.37371e-06
1.41555e-05
3.62146e-07
2.15958e-05
-2.42001e-05
2.24068e-06
-3.59002e-05
8.10296e-06
2.3333e-05
4.46404e-06
2.1766e-06
4.61191e-05
-1.74624e-05
-3.08346e-05
2.38353e-06
-4.45097e-06
-2.24471e-05
-1.14985e-05
9.3731e-06
2.03357e-05
-1.33712e-06
3.5579e-06
-2.25564e-05
-2.12814e-06
-4.99891e-06
6.27707e-06
8.42481e-07
1.43966e-05
-4.3664e-06
-1.02321e-05
1.99725e-07
1.30292e-05
-4.40181e-05
4.22231e-05
-1.12327e-05
-1.71283e-05
3.00741e-05
4.31123e-06
-1.72561e-05
-3.62892e-06
4.18213e-06
2.83919e-05
-2.89466e-05
-3.88222e-05
2.87935e-06
3.85388e-07
3.55604e-05
-2.18862e-05
2.63843e-06
1.75413e-05
1.70744e-06
-2.51524e-05
1.55467e-05
3.54843e-05
-2.58776e-05
-1.48329e-05
-2.73784e-05
7.57536e-06
3.46377e-05
5.05437e-06
-4.04707e-05
-4.70399e-06
4.0121e-05
-3.07296e-05
4.15326e-06
-1.45652e-06
2.80324e-05
-3.18235e-05
-2.22051e-06
-2.2367e-06
3.62785e-05
7.16221e-06
-3.82573e-06
3.4535e-05
-3.78707e-05
7.54996e-06
-4.32645e-06
-2.06514e-08
-3.20226e-06
4.66585e-06
-4.89503e-05
-7.48947e-06
5.17738e-05
-4.35547e-06
2.76652e-06
2.21494e-06
-6.26713e-07
-2.87906e-05
-7.55509e-06
1.58118e-05
2.0534e-05
-1.53559e-06
1.4837e-05
2.79188e-06
-1.60929e-05
-1.31061e-05
-1.41789e-05
9.3985e-06
-6.20331e-06
2.49095e-06
3.21619e-05
-2.84482e-05
2.48333e-05
-3.39902e-05