/*--------------------------------*- C++ -*----------------------------------*\
| =========                 |                                                 |
| \\      /  F ield         | OpenFOAM: The Open Source CFD Toolbox           |
|  \\    /   O peration     | Version:  2406                                  |
|   \\  /    A nd           | Website:  www.openfoam.com                      |
|    \\/     M anipulation  |                                                 |
\*---------------------------------------------------------------------------*/
FoamFile
{
    version     2.0;
    format      ascii;
    arch        "LSB;label=32;scalar=64";
    class       volVectorField;
    location    "34";
    object      U;
}
// * * * * * * * * * * * * * * * * * * * * * * * * * * * * * * * * * * * * * //

dimensions      [0 1 -1 0 0 0 0];

internalField   nonuniform List<vector> 
59516
(
(0.107927 0.000323545 -0.000543798)
(0.100365 -8.21973e-05 -0.000393904)
(0.115643 -0.00126299 -0.000229277)
(0.130195 0.00188369 0.00181933)
(0.11388 0.000238478 -0.00449663)
(0.101092 -0.00484019 -0.0107975)
(0.130433 -5.67434e-05 -0.00157118)
(0.10567 0.000893752 -2.37155e-05)
(0.114939 0.000911583 5.94888e-05)
(0.0574293 -0.00095587 0.00227899)
(0.151571 0.000144956 -0.00160387)
(0.0621383 0.00054447 -0.00336559)
(0.122159 0.00103374 -8.22114e-05)
(0.0209035 -8.29555e-05 -0.00022933)
(0.0637746 0.00159518 0.00320695)
(0.0543236 0.00361216 -0.00183299)
(0.162374 0.000369365 -0.000237266)
(0.0704372 0.00390503 -0.00411497)
(0.115382 0.00499101 0.000986246)
(0.159737 -0.000349306 0.000581701)
(0.0551703 0.000659989 -0.000974072)
(0.148395 -0.000230397 0.000398155)
(0.153547 0.000614552 -0.000358524)
(0.0354772 -0.00107844 -0.00024834)
(0.158066 -0.000592161 0.00120841)
(0.0686567 0.0013275 0.000756228)
(0.0440911 0.00089602 -0.00281599)
(0.0449126 0.00366897 0.000337612)
(0.0670273 0.00224649 -0.000126059)
(0.0186549 -0.00290675 0.000778303)
(0.108334 -0.0209882 -0.004615)
(0.0461628 0.00351156 -0.000544097)
(0.134216 6.78239e-05 0.000823344)
(0.1145 -0.000675205 0.00237474)
(0.138606 0.00361248 0.00295072)
(0.146102 -0.000229849 -0.000106568)
(0.0180136 -0.00174033 -0.00243388)
(0.0703235 0.00265873 -0.0066064)
(0.0971638 -0.00309427 -0.000185833)
(0.155127 -0.00164918 7.07757e-05)
(0.104407 -0.000775559 8.50443e-05)
(0.14357 -0.007458 -0.00688011)
(0.147824 -0.00204136 -0.00150538)
(0.110994 -0.000775878 0.000398097)
(0.143593 -0.00256374 0.000238428)
(0.0576359 -0.000783099 -0.00134423)
(0.133329 -0.00182836 -0.00286846)
(0.159243 -0.00240312 -0.000292186)
(0.111858 -0.00900793 0.0124355)
(0.148851 0.00506044 0.00434268)
(0.104043 0.0104578 -0.0145195)
(0.0462945 -0.00361925 0.0024331)
(0.12272 0.000965309 -0.00212341)
(0.129633 -0.000410958 -0.000113699)
(0.048902 0.00274218 3.16802e-05)
(0.130539 0.00129265 -0.000428492)
(0.143679 0.00753125 0.00801054)
(0.0501515 0.00401567 -0.00279437)
(0.162647 -0.000302959 -2.1967e-05)
(0.134707 0.00548279 0.00698348)
(0.148104 -0.000171889 0.000495341)
(0.0202739 0.00241535 -0.000866359)
(0.157301 0.000167979 -0.00044154)
(0.158833 0.00107481 0.000193623)
(0.126408 0.000427885 -0.000510698)
(0.145607 0.00249766 0.00318736)
(0.0277142 -0.00186544 0.00249827)
(0.0430219 0.000176242 -0.000173738)
(0.121388 -0.00502219 0.0221675)
(0.136641 0.00125404 -0.000906728)
(0.0388626 0.00109552 0.000326423)
(0.157223 0.000704817 -2.01552e-05)
(0.0244057 0.00153073 -0.00368382)
(0.142336 -0.000251063 -5.55481e-07)
(0.166638 -0.000461607 0.000187002)
(0.155778 -0.00048353 -0.000701691)
(0.159827 -0.000625718 -0.00131598)
(0.146715 8.51476e-05 -0.000467663)
(0.0481142 -0.00163252 0.00143459)
(0.149117 0.00259594 0.00571436)
(0.0405341 0.00235294 0.00102948)
(0.144938 0.00312625 0.00421656)
(0.138934 0.00157907 0.00404686)
(0.0213151 -0.000830408 0.00291894)
(0.144992 0.00263416 0.00447793)
(0.163778 -0.000343813 0.000424364)
(0.0342676 -0.00120551 0.000561218)
(0.149502 0.000332775 0.000773675)
(0.0568562 0.000715285 0.00243689)
(0.107491 0.0081661 -0.00548245)
(0.131403 -0.00076915 -0.0109568)
(0.137502 0.00167468 -0.000119529)
(0.162357 -8.54651e-05 -9.66097e-06)
(0.136517 0.00104427 -0.000253613)
(0.153512 0.000147619 7.88793e-05)
(0.109972 -0.0105561 0.00402127)
(0.140079 -0.000707352 0.00100995)
(0.0556809 -0.00174355 -0.00421621)
(0.0655987 0.00220653 -0.000752107)
(0.146858 -0.000783619 0.00144003)
(0.0394682 0.00071685 0.00142159)
(0.0260287 0.00123405 -0.00297117)
(0.0245448 0.000880481 0.00339653)
(0.0569936 -0.000856553 -0.00290077)
(0.136445 0.000634873 -0.000202817)
(0.14387 0.000136245 0.000511103)
(0.0421246 0.00356208 -0.001487)
(0.108631 0.000321016 -0.000642652)
(0.104316 -0.000702835 -5.94616e-05)
(0.0688755 0.000423499 -0.00277747)
(0.124881 0.0126946 -0.0133049)
(0.0326542 0.00324356 -0.000374209)
(0.0695088 0.000819264 -0.00405429)
(0.118049 0.0171595 -0.00861162)
(0.155592 -9.48632e-05 8.50375e-06)
(0.104456 0.00107522 0.000928333)
(0.0565543 0.000529938 -0.00219224)
(0.134424 0.000197868 0.000866424)
(0.0231518 -0.000268262 0.00112178)
(0.145661 0.00158766 0.00037916)
(0.166771 -0.000401209 0.000234926)
(0.159349 0.000286699 0.000243463)
(0.155588 -0.00039501 0.000467829)
(0.157957 -0.000267582 0.000428996)
(0.132185 -0.0171819 0.00280307)
(0.0912141 0.00107603 -0.00238165)
(0.0313899 -0.000510392 0.00207272)
(0.138078 -0.0126146 -0.000802458)
(0.0898516 -0.00275074 0.0131078)
(0.164597 0.000574471 0.000230165)
(0.165159 0.000476129 0.000851335)
(0.116208 0.00152933 0.00192535)
(0.0246846 0.00137934 -0.00170553)
(0.147892 -9.52028e-05 0.000679311)
(0.105405 0.00100164 0.000330548)
(0.119767 -0.000946996 -0.0017288)
(0.107638 0.0125947 -0.00884246)
(0.132694 -0.000355856 0.000543416)
(0.0417505 0.00275733 0.000105853)
(0.102156 0.000509845 -0.00131612)
(0.0462156 -0.000917145 -0.00227206)
(0.166605 -0.00019453 9.21537e-05)
(0.0196747 0.000902591 0.00174621)
(0.128142 -0.00130648 -0.000418458)
(0.162656 0.000396028 7.70112e-05)
(0.141221 0.00143041 -9.33437e-05)
(0.141076 -0.00327459 -0.000759359)
(0.12072 0.000702678 -0.00206671)
(0.0621434 -0.00101111 0.00174073)
(0.110115 -0.000754697 -0.000861531)
(0.107372 -6.334e-05 -0.000826548)
(0.0371604 -0.00136884 3.27354e-05)
(0.160315 -0.000748477 0.00108975)
(0.152206 -0.000458247 0.000817569)
(0.093182 -0.000502971 0.00189391)
(0.0199095 -0.000444638 0.00215668)
(0.117026 0.000179108 -0.000171017)
(0.117285 0.00109477 -0.000249212)
(0.0861614 0.00119349 7.82245e-05)
(0.0204607 0.0024354 -0.00270315)
(0.0672582 0.00150609 -0.00335927)
(0.069254 -0.00358403 -0.00235127)
(0.0366845 -0.00160619 0.000375215)
(0.026696 -0.000222416 -0.000527749)
(0.103759 0.00169394 0.00232776)
(0.163392 0.000360851 0.00106543)
(0.0636464 -0.000605988 0.000350085)
(0.163712 0.000526621 -0.000118594)
(0.0207295 -0.00123679 0.00240833)
(0.135205 -0.00041768 0.00024823)
(0.0872898 0.00133828 0.00117523)
(0.0540841 0.000759179 -0.000789925)
(0.0665996 0.00165595 0.000949503)
(0.137642 -0.000752267 0.000722107)
(0.0521536 -0.000884578 0.000317047)
(0.135556 -0.000754652 -0.00363168)
(0.160322 -2.56092e-05 -0.00103368)
(0.148998 -0.00362475 -0.00207136)
(0.0695918 -0.00094283 0.00335662)
(0.0427294 -0.000188764 -0.000486953)
(0.145095 0.00172317 0.00091408)
(0.0349146 -0.00294147 -0.0013152)
(0.0302045 -0.000352128 -0.0023725)
(0.0667494 -0.00179018 0.000146683)
(0.163726 -0.000171599 0.000698613)
(0.0608054 0.000319237 0.000700189)
(0.0368213 -0.000690072 -0.00278785)
(0.0241387 4.34898e-05 0.000307372)
(0.124336 0.000116381 0.000120239)
(0.10364 -0.0016867 -0.000108922)
(0.13524 -0.00076444 0.00273451)
(0.0538761 0.00318743 0.000104579)
(0.157709 -0.00049316 -0.00017102)
(0.0590803 0.00243491 -2.42098e-05)
(0.152738 -0.000347412 -0.000207661)
(0.030526 -0.000262577 0.000823421)
(0.0591426 0.000742303 -0.000267636)
(0.0423785 -0.00105793 0.000311653)
(0.113079 0.0027562 0.00364541)
(0.151437 0.000481489 -6.96522e-05)
(0.0836638 -0.00270232 0.000384625)
(0.165623 -0.00044482 0.000125172)
(0.106194 -0.000639789 0.000904731)
(0.0203684 0.00221477 -0.00141403)
(0.130924 -0.00156914 -0.000512271)
(0.144568 -2.68645e-05 9.26851e-05)
(0.165412 -6.52002e-05 7.36462e-08)
(0.148414 -0.000652293 3.83295e-05)
(0.0238199 -0.000681946 0.000214952)
(0.116947 -0.00187055 -1.56084e-05)
(0.0522479 0.00359371 0.0030547)
(0.0241983 -0.00392209 -0.000623401)
(0.144189 0.00039563 -0.00134541)
(0.0578949 -0.00109559 0.000844737)
(0.11913 0.00113906 8.19019e-05)
(0.162123 -0.000520806 0.000250255)
(0.139718 0.000911409 0.000154052)
(0.154769 -0.00105309 0.000498808)
(0.0562846 0.00227541 -0.00279661)
(0.154119 -0.000502303 0.000600416)
(0.0575357 0.0023096 0.00176135)
(0.10687 0.000595971 -8.0894e-05)
(0.156662 0.000780096 0.00109759)
(0.0417028 -0.000164053 0.000807295)
(0.158921 -0.00108121 0.000434897)
(0.160769 1.17685e-05 -0.000799096)
(0.0291516 -0.000304319 0.00151761)
(0.0486496 0.00155673 -0.00224724)
(0.160265 4.57354e-05 0.00098877)
(0.0563521 0.000156339 -0.0040015)
(0.162947 -0.000776939 0.000385288)
(0.161367 0.000507003 -0.000498127)
(0.163571 0.000472451 0.00112808)
(0.0261272 -0.00204234 -0.0014356)
(0.0340655 0.000906975 -0.00160625)
(0.0356388 0.000900332 -0.00124104)
(0.0655723 0.000355329 0.000530321)
(0.100152 -0.00142708 0.000652277)
(0.151882 0.000783163 0.00131254)
(0.0590778 -0.00113412 0.00136669)
(0.165084 -1.77898e-05 0.000843614)
(0.0214672 0.00041738 0.0031267)
(0.0560767 3.79748e-05 0.000872614)
(0.0260919 0.0002137 0.00284988)
(0.164147 0.000688934 0.000381063)
(0.0961629 -0.000464475 -0.000465963)
(0.144099 9.75592e-05 0.000734559)
(0.0675647 0.000550865 -0.00132927)
(0.161539 -0.000154385 0.000416233)
(0.107593 0.000230288 0.000372322)
(0.159571 -0.00155342 0.00067878)
(0.140441 0.000128765 0.000731487)
(0.164937 0.000261101 0.000833443)
(0.143781 0.000342612 -0.000296708)
(0.145465 0.00124185 0.000671384)
(0.153508 0.000343264 0.000525306)
(0.0574237 0.000160798 -0.000178274)
(0.150495 0.000599301 0.00138417)
(0.0438164 -0.000330609 -0.00240826)
(0.0621136 0.000493584 0.00214337)
(0.132397 0.000851542 -0.000798741)
(0.156007 -0.000849588 0.000867975)
(0.117915 0.00244407 0.00151676)
(0.163405 -0.00041536 0.000875231)
(0.102297 -0.000139286 0.00221658)
(0.0600805 0.00243445 -0.00144375)
(0.155145 0.000189814 -0.000864832)
(0.0960677 0.00183366 0.000555823)
(0.0483429 -0.000806329 -0.000746433)
(0.0537568 4.17149e-05 -0.00146723)
(0.0994486 0.000395439 -0.00262501)
(0.1606 -0.000793946 -0.000295414)
(0.101995 -0.00219324 8.35993e-05)
(0.0966496 -0.00113875 0.000858831)
(0.157959 -0.0013878 0.000167638)
(0.0962932 -0.000544465 0.00267505)
(0.0223911 0.00262455 -0.00153492)
(0.157042 -0.000374222 0.00112991)
(0.0268821 0.00172422 -0.00223168)
(0.0423294 -0.00169493 0.00106703)
(0.16297 0.000132509 0.00114172)
(0.140344 -0.000533478 -0.000170496)
(0.0263626 0.00279063 0.00285309)
(0.123863 0.000905677 0.000213819)
(0.127889 0.00215881 3.35898e-05)
(0.159963 0.00062137 0.000264691)
(0.163669 -0.000542005 0.000103055)
(0.0255616 0.00298671 0.000649564)
(0.162847 -0.000215916 0.000865376)
(0.163595 -0.00138736 0.000121642)
(0.160597 -3.75329e-05 0.00114207)
(0.136042 2.68288e-05 0.000986518)
(0.136626 0.00134306 0.00102207)
(0.0987691 0.000482957 -0.000390513)
(0.163497 0.00108495 0.000263529)
(0.0296686 -0.00106191 -0.00132373)
(0.153516 -0.00159126 0.000430896)
(0.140833 -0.0011456 -0.000626977)
(0.164561 -0.00100889 0.000743427)
(0.15757 -0.00102944 0.000393062)
(0.119596 -0.00084736 0.000475365)
(0.0621903 0.000944947 0.00128758)
(0.0242439 -0.000344099 0.00170992)
(0.0301642 -0.000757767 0.000523471)
(0.160377 -0.00144895 -0.000384137)
(0.0218482 -0.00128748 0.0031264)
(0.0660959 -0.000302595 -0.00108397)
(0.0543286 0.00290807 0.00115812)
(0.159799 -0.00065621 0.000737996)
(0.164497 -1.7716e-05 -0.000542068)
(0.152921 -0.000331735 -0.000258349)
(0.0614293 -0.000223842 -0.0013314)
(0.106326 0.00126569 -0.00205781)
(0.0422737 -0.00339593 0.00283343)
(0.0561827 0.00108785 0.00154651)
(0.151543 -0.000236293 -2.03027e-05)
(0.101929 0.00127629 -0.000882212)
(0.107731 0.0123801 0.0035521)
(0.0930081 -0.0019367 0.000930122)
(0.0453809 -0.000248585 -0.000470075)
(0.0669736 -0.00093908 0.00191715)
(0.111028 -0.000626366 -0.00163135)
(0.163725 3.60168e-05 -6.23541e-05)
(0.166191 3.37292e-05 0.000415436)
(0.165667 -0.000234525 0.00113248)
(0.157702 -0.0014488 0.000298703)
(0.0976251 0.00327947 0.00438262)
(0.128616 0.0011109 0.000625398)
(0.157131 0.00167434 0.000441589)
(0.155881 -0.000336871 1.82693e-05)
(0.157946 -0.000421281 0.000921418)
(0.0590113 0.00135537 -0.00322102)
(0.0235957 -0.00147932 -0.00283095)
(0.148481 -0.000715293 0.000357079)
(0.0420079 -0.00191832 0.00222663)
(0.0337178 0.000222116 4.08628e-05)
(0.155041 0.000373245 0.00151619)
(0.14591 -0.000573183 0.000525239)
(0.0608271 -0.00149221 -0.00266902)
(0.161394 -0.00103824 0.000640895)
(0.160283 -0.00151184 0.000362508)
(0.165317 -0.000779659 -0.000642836)
(0.162937 -0.00041929 -0.000398608)
(0.0344977 0.00150905 -2.20247e-05)
(0.156564 0.000262637 -0.000298921)
(0.162247 -0.0012229 0.000878456)
(0.0605626 -3.29726e-05 0.000785648)
(0.163846 -0.000168133 0.00145258)
(0.161825 -0.00025299 0.000363682)
(0.133298 5.77388e-05 -0.000901973)
(0.124826 6.13794e-05 -0.000726357)
(0.14848 -0.000646858 0.00114474)
(0.14332 -0.00128255 0.000489396)
(0.0728341 -0.000343238 -0.000242547)
(0.0334181 0.00135264 -0.00108187)
(0.0367996 -0.0025499 -0.000303605)
(0.0987396 0.000516103 0.00025423)
(0.0863304 -0.00667419 0.0105432)
(0.074652 -0.00419944 -0.00604824)
(0.0871758 0.000336547 0.000201885)
(0.117835 0.000104952 0.00188573)
(0.132902 0.000213129 0.000439958)
(0.155081 -0.000533175 0.00314816)
(0.155236 0.000180694 0.000745827)
(0.133954 -0.000612332 -6.72089e-05)
(0.147219 0.000380907 0.000543096)
(0.146996 0.00112936 0.000444167)
(0.0331178 -0.000924424 -0.000359108)
(0.113876 -0.0223824 0.00278329)
(0.061012 0.00164364 0.000608012)
(0.0436678 -0.00197125 -0.000484288)
(0.0439664 0.000750706 0.000325736)
(0.156389 -5.36551e-05 -0.000125316)
(0.0974585 -0.000365696 0.000110082)
(0.156723 0.000548285 -0.00073662)
(0.0211024 0.00120175 -0.0017949)
(0.128686 -0.000352626 0.000205597)
(0.0470039 0.00111951 -0.000831492)
(0.158305 -0.000701125 -0.000113524)
(0.0504026 -0.00065631 -0.000462003)
(0.0644617 -0.00145753 0.00128947)
(0.110414 -0.00251862 0.000861303)
(0.149739 -0.000503135 0.00133154)
(0.0209814 0.0017543 -0.00223774)
(0.0569444 -0.000548051 0.00255048)
(0.134366 6.31157e-05 0.000625154)
(0.0247815 -0.00153995 -0.0018506)
(0.13067 0.00123549 0.00816866)
(0.118894 -0.000597636 0.00243094)
(0.13355 4.26901e-05 -0.00185917)
(0.0979991 0.00213179 -0.0026064)
(0.0918385 -0.000992496 0.00190296)
(0.157746 0.00128955 -9.93337e-05)
(0.0772879 -0.00779719 -0.00715017)
(0.165994 0.001213 0.000332753)
(0.111347 0.00837667 0.00892747)
(0.0623897 -0.00268423 0.000390076)
(0.0653561 -0.000323 -0.00147461)
(0.165662 0.000971101 0.000295949)
(0.166807 0.00131947 0.000451316)
(0.0551437 -0.000531125 0.000595204)
(0.136271 0.00061512 -0.000527577)
(0.10178 -0.000568151 -0.00228039)
(0.164708 -0.000453174 0.000741445)
(0.164273 -0.000295159 0.00111503)
(0.0483516 0.00136359 -0.00351124)
(0.134363 -0.00085506 -0.000103723)
(0.145163 -0.00151337 0.00133908)
(0.147623 0.000434801 -0.000156441)
(0.154192 0.000342192 0.000427379)
(0.022912 -0.000793646 -0.00286118)
(0.0221977 0.00113515 -0.00277375)
(0.128378 0.000981425 -0.00153855)
(0.163478 0.000196915 -2.86638e-05)
(0.165306 -0.0014315 -0.000799587)
(0.0366901 0.00041265 -0.0025788)
(0.158989 -0.00115608 0.000567527)
(0.11065 -0.000975621 -0.000365992)
(0.160359 0.000257112 0.000938881)
(0.164779 0.00128443 0.000315912)
(0.1658 0.00085153 -0.000114368)
(0.162871 0.00110582 0.000654282)
(0.162929 0.00165618 0.000691761)
(0.0928174 0.000519641 0.000252004)
(0.164063 0.00146409 9.36208e-05)
(0.0588404 -0.00115968 -0.00292992)
(0.159051 -2.74645e-05 -0.000238975)
(0.112964 -0.000348043 -0.00120937)
(0.149765 0.00103737 0.000596998)
(0.162643 0.00043708 -0.000231866)
(0.148771 -0.000247245 3.54834e-05)
(0.143768 0.000826877 -0.000723232)
(0.0426086 0.00242324 0.00219371)
(0.0359591 0.000815115 0.000304922)
(0.0225804 0.00193001 -0.00227554)
(0.150458 0.00353873 0.00619219)
(0.169708 6.37441e-05 6.9327e-06)
(0.13862 -0.000801433 0.000490544)
(0.128975 0.00139954 0.000467124)
(0.032631 -9.5132e-05 0.00112774)
(0.0250578 -0.000471256 0.00284491)
(0.117682 -0.000245271 0.00172339)
(0.148577 -0.000404995 0.00130106)
(0.162981 -0.000245091 0.000728406)
(0.152748 0.000680399 -0.000129703)
(0.137282 -0.000770557 -0.00112464)
(0.167499 0.000899976 -8.15514e-05)
(0.135984 0.000953502 0.000535818)
(0.0279709 -0.000630044 0.00266362)
(0.125199 -0.000452119 0.000354176)
(0.0605185 0.0006098 0.0030445)
(0.0705174 -0.00702057 0.00150252)
(0.150195 0.000205451 -9.06891e-05)
(0.0974703 0.000351755 0.000120105)
(0.145361 0.000181343 -0.00011571)
(0.0219721 -0.00403399 -0.00152672)
(0.166281 0.00156359 -1.1036e-05)
(0.165368 3.21228e-05 -0.000181746)
(0.163218 0.0013108 0.000385136)
(0.0953992 0.000944132 0.000182878)
(0.149866 1.52459e-05 0.00103966)
(0.161164 0.000487613 0.000987803)
(0.123164 0.000401209 7.34507e-06)
(0.16402 0.0011286 0.000303541)
(0.0994238 0.00358051 -0.00262199)
(0.161816 0.000413781 -9.96257e-05)
(0.148049 -0.00223756 -0.000579309)
(0.0217239 -0.00144801 0.00152749)
(0.164755 -0.000552324 -0.000676102)
(0.118951 0.00186619 -0.000124341)
(0.04837 -0.00140657 0.00382511)
(0.094586 0.000608726 -0.00154472)
(0.159457 -0.000137239 -0.000640917)
(0.131401 -0.000275328 0.00065069)
(0.0883285 0.00019058 -0.00245528)
(0.02156 -0.00193731 -0.00217543)
(0.163766 -0.000809882 -0.000528496)
(0.126964 0.0017409 -0.00159361)
(0.156441 -0.000387532 -0.000166511)
(0.126526 0.000149376 0.000749036)
(0.038709 0.00172676 0.00173031)
(0.140906 5.89764e-05 -0.000533561)
(0.0264118 0.00216814 -0.00330315)
(0.15654 0.000221605 -0.000413277)
(0.102277 0.0113949 -0.003651)
(0.159541 -0.000387223 -0.000496632)
(0.0540698 -8.21388e-05 0.00186124)
(0.109676 -0.00128045 -0.00160725)
(0.0983722 0.00039139 -0.00138973)
(0.0364666 0.00219273 0.00178728)
(0.163662 0.000348974 0.00050151)
(0.158837 0.000578861 0.000693756)
(0.023252 0.00085489 0.00227819)
(0.154792 -0.00124276 0.000214365)
(0.163925 -0.000963235 0.00069532)
(0.0388978 -9.29307e-05 -0.00216053)
(0.0640082 0.0027751 3.27976e-05)
(0.0558819 0.00191465 0.00145837)
(0.150446 0.000944966 0.000649488)
(0.16285 -0.000229595 0.000324721)
(0.0329093 -0.000816561 0.00151205)
(0.0563695 -0.00181966 -0.000617632)
(0.0589103 0.00121512 -1.87611e-05)
(0.117515 0.00144201 0.000331376)
(0.163395 -0.00028565 0.00042694)
(0.0242504 0.00124077 -0.00319566)
(0.15618 -0.00103665 0.000877428)
(0.150134 0.00169588 0.000169871)
(0.163618 0.000218848 0.00111246)
(0.0900996 0.00386469 -0.00372386)
(0.162039 0.00119426 0.000317081)
(0.0238939 -0.000196766 -0.00254)
(0.158561 -0.000650153 -0.000163939)
(0.0284707 -0.000492409 -6.13889e-05)
(0.0607824 -0.00189726 0.000291447)
(0.152291 -0.000822879 0.000188295)
(0.0627652 -0.00184039 -0.000584424)
(0.0217105 0.0025241 0.0022909)
(0.0385611 0.000706944 -0.0012612)
(0.047348 -0.00245332 0.00154299)
(0.0608912 0.00119221 -0.00165411)
(0.146217 -0.000214595 -0.000774543)
(0.0519067 -0.00115942 7.6862e-06)
(0.0613719 0.0019678 -0.00119485)
(0.128084 -0.00686878 -0.0134045)
(0.158767 0.000611087 0.000713611)
(0.0251043 0.00158968 0.000246839)
(0.109555 -6.13902e-06 -0.000986088)
(0.0814135 0.00875288 -0.00341237)
(0.1613 -0.00159166 -0.00020523)
(0.0602432 -0.000189964 -0.00135597)
(0.156508 0.000858873 0.000904327)
(0.0594251 -0.00250996 -0.00157948)
(0.124492 0.000372291 0.000721579)
(0.163567 0.000748912 -0.000474533)
(0.0531755 0.00251234 -0.0047014)
(0.164459 -1.7497e-05 0.000128251)
(0.0477828 0.00210036 0.00243873)
(0.0201794 0.00306491 0.00117084)
(0.144416 0.000626974 -3.80716e-05)
(0.163217 0.000716148 0.000244868)
(0.131116 0.000862818 -0.000217989)
(0.127058 0.00166745 -0.000633372)
(0.164353 -0.00162965 0.000415422)
(0.0627094 0.00161331 -0.000223572)
(0.159863 -0.00161827 0.000396012)
(0.0587807 -0.00177425 0.00253011)
(0.162945 0.000783601 -9.5445e-05)
(0.128099 -0.00154478 -0.00124906)
(0.0293755 0.000688529 -0.00404681)
(0.152089 6.52453e-05 -0.000704782)
(0.0541834 0.000102489 0.00174402)
(0.027349 -0.0019858 -0.00189538)
(0.149087 -0.000502844 -0.000215455)
(0.0448228 -0.0012033 0.00106049)
(0.137859 0.000538135 0.000158852)
(0.16207 0.000280322 0.000747929)
(0.131586 0.000907212 0.000655617)
(0.0554446 -0.00235273 -0.00265457)
(0.166439 0.00157315 0.000268127)
(0.0927492 -0.00127171 0.00109844)
(0.169388 0.000338554 0.000472894)
(0.166492 0.000187398 -2.07873e-05)
(0.166408 0.00107437 0.000629801)
(0.163108 0.00064973 0.000103562)
(0.0457575 -0.00247284 -0.00198671)
(0.0533155 0.000212522 -0.000627726)
(0.164539 0.000457095 -3.72822e-05)
(0.157221 0.000981531 0.00127021)
(0.0332391 -0.00224356 -0.00111858)
(0.155476 0.000187015 0.000169875)
(0.167934 0.000145458 0.000324722)
(0.164918 -0.00145045 -0.000300397)
(0.166149 -0.00162147 -0.00028058)
(0.118768 -0.000315084 -0.00124495)
(0.0223456 0.00219127 0.00197739)
(0.166587 0.000643127 -4.0953e-05)
(0.102424 -0.00102827 -0.00152864)
(0.147473 -0.000176172 0.000335938)
(0.0982304 9.07444e-05 -4.7201e-06)
(0.0305682 0.00221797 -0.000252797)
(0.163161 0.00078709 0.000378288)
(0.093944 0.00212622 0.00203443)
(0.134684 -0.000501641 0.000126061)
(0.166052 -0.00165517 -7.27948e-05)
(0.140787 -0.00156867 -0.000545993)
(0.0180423 0.00156925 -0.00214363)
(0.0230399 -0.00137225 -0.00227285)
(0.161018 -0.00109312 1.88642e-05)
(0.157547 -0.00063311 1.38825e-05)
(0.165786 0.00135252 0.00087802)
(0.147985 0.000154791 0.000986122)
(0.0941131 -0.00138512 0.000556851)
(0.147917 -0.00113663 -0.000444552)
(0.163155 0.000178579 0.000278168)
(0.0210794 0.00179433 0.000407073)
(0.1616 -0.00112833 0.000277443)
(0.13484 -0.0141664 -0.000201431)
(0.0389489 -0.000636168 0.0019729)
(0.0560592 -0.00355987 0.00092114)
(0.144646 -0.000641721 -0.000912984)
(0.141481 -0.00173719 0.000663046)
(0.138244 0.000712355 -0.000229379)
(0.126466 -0.000755695 0.000490558)
(0.107662 -0.0035766 0.0010959)
(0.165657 0.00024232 -0.000285835)
(0.100256 0.00118184 -0.00278719)
(0.165354 0.00146305 3.75965e-05)
(0.160842 0.000166491 -0.000186571)
(0.168197 -0.00140314 0.00062702)
(0.161377 -0.00146706 8.37297e-05)
(0.0415701 -0.000522625 0.00203534)
(0.158149 -0.00117272 0.000305722)
(0.0337487 0.000946634 -0.00133578)
(0.0944388 -0.00917801 0.00541201)
(0.0618465 0.00183463 0.00151911)
(0.127152 -0.00243865 -0.012643)
(0.132155 -0.000800666 -0.000371753)
(0.11746 -0.0188755 -0.00415886)
(0.159572 1.31526e-05 -0.000369732)
(0.166003 -7.95236e-05 -3.09287e-05)
(0.150842 0.000408888 -0.000259306)
(0.160005 -0.000149216 0.00120189)
(0.0349319 0.000219303 -0.000562118)
(0.100942 -0.00381896 -0.00255636)
(0.112463 -0.00210626 -0.0159898)
(0.162264 0.000335754 6.48578e-05)
(0.115025 -0.00248771 -0.000455979)
(0.136671 -0.0126218 -0.00434369)
(0.153882 -0.00225693 0.00356622)
(0.113713 0.00099888 0.00068647)
(0.0362858 -0.000743467 0.00121752)
(0.055306 -0.00261638 0.00160651)
(0.0252126 8.82482e-05 -0.000208111)
(0.0240307 0.000144962 -0.00185415)
(0.035419 -0.000153673 0.000200608)
(0.133882 -0.00799713 0.00505197)
(0.13857 -0.000105223 0.000734184)
(0.0244083 -0.000767795 0.00339115)
(0.0230418 0.00164739 0.00259305)
(0.165205 0.000679641 9.76681e-06)
(0.09617 -0.0125659 0.00853399)
(0.0380879 0.00161224 0.000685017)
(0.146882 0.000291804 -0.000187614)
(0.108245 -0.000956558 -0.00159621)
(0.135659 9.87782e-05 0.00117802)
(0.0428166 0.00214685 -0.00120119)
(0.0551209 0.00167813 -0.000631717)
(0.113897 -0.00112638 0.000134049)
(0.160079 0.000306561 -0.000384054)
(0.149818 0.00044505 -0.000702776)
(0.0367453 0.00302544 -0.00104691)
(0.0245006 -0.00187384 0.00121275)
(0.106235 -0.0151825 -0.0112522)
(0.0261461 -0.00335581 3.30107e-05)
(0.1354 -0.000951745 -0.00116816)
(0.0279529 0.00149039 -0.00348745)
(0.107002 -0.000475536 0.00223264)
(0.162476 -0.00056465 -0.000176955)
(0.167124 -0.000717284 0.00103927)
(0.044665 0.000605609 -0.0009234)
(0.100649 -0.000445065 -0.00100822)
(0.0357596 0.00132275 -0.00139185)
(0.028496 0.0033416 -0.00126363)
(0.16273 -9.93021e-05 -0.000810116)
(0.0195086 -0.00161949 -0.00255225)
(0.156811 -0.00143141 -0.000449405)
(0.048801 0.000957001 -0.00224644)
(0.152154 -0.000850455 -0.000156824)
(0.141671 -0.00038409 -0.000156723)
(0.0222586 -0.000587851 0.00348195)
(0.0575191 -0.00272958 0.000160624)
(0.146914 0.000298229 0.000320252)
(0.0346472 -0.00160553 0.000101167)
(0.152985 -0.000797177 -0.00048751)
(0.0548273 -0.00207985 0.00337854)
(0.111097 0.000250006 -0.000121894)
(0.164513 -0.000530082 -0.000869074)
(0.0368349 0.0010447 0.000864548)
(0.0238318 0.0010095 -0.00310137)
(0.0513175 0.000964501 -0.000345544)
(0.110777 0.0173912 0.00377204)
(0.10748 0.000449829 0.000384467)
(0.0568754 -0.00236461 0.00276125)
(0.0875656 0.00029102 0.00141526)
(0.031117 -0.00118404 0.000762007)
(0.1647 -0.000453671 -0.00100535)
(0.023666 -0.000387754 -0.00162809)
(0.162451 -0.00142167 -2.30843e-05)
(0.145601 -0.000610717 0.00042506)
(0.159324 -0.000361762 0.000225428)
(0.0196836 0.00200709 8.72829e-05)
(0.149612 -0.000910578 0.000531979)
(0.0843818 0.000502365 -0.000152863)
(0.153767 0.000618897 0.000235295)
(0.0551314 -0.000410207 -0.00017173)
(0.108136 -0.0130302 0.00671238)
(0.156839 -0.00164528 -9.77995e-05)
(0.0406979 0.000470164 -0.000385446)
(0.1663 0.000687632 0.00024574)
(0.108853 0.00199662 -0.0204824)
(0.119586 0.000287165 -0.000610173)
(0.0331697 0.000859271 -0.00177093)
(0.051593 -0.000516533 -0.00258887)
(0.163787 -7.18348e-05 -2.06086e-05)
(0.133709 0.001337 -0.00011546)
(0.0327386 0.00170447 0.000619999)
(0.111998 0.00116707 -0.00142809)
(0.061097 -0.000797505 -0.00186854)
(0.0249951 -0.0022003 0.00141639)
(0.163466 0.000104993 -0.00023367)
(0.103331 -0.00130248 0.0100853)
(0.133079 0.00152959 -0.00197352)
(0.161422 -0.000174067 5.62985e-05)
(0.162522 -7.02421e-06 0.000548686)
(0.159028 -0.000473658 -0.000449165)
(0.134381 0.000724402 0.000401888)
(0.0441417 0.00117738 0.000410545)
(0.0405008 -0.00202785 -0.00191074)
(0.166193 0.00136795 0.000320398)
(0.107564 -0.0094124 0.00876892)
(0.12422 -0.00122018 0.000563831)
(0.131069 -0.00128842 0.00045685)
(0.0834569 0.00179831 0.000934396)
(0.14688 -8.80922e-05 0.00066025)
(0.156718 0.00018521 -0.000753731)
(0.101799 -0.000502018 -0.00128435)
(0.107017 0.00197022 0.000281282)
(0.0378365 0.000197376 -0.0023673)
(0.0732152 0.000608767 -0.000507105)
(0.0444118 -0.00113337 -0.00325072)
(0.148952 -0.000319638 0.000964065)
(0.162993 -0.000262642 8.79658e-05)
(0.0969935 0.0013996 -0.0024277)
(0.100529 0.000779059 -0.00048675)
(0.0213179 0.0022388 -0.000416619)
(0.0814112 -0.00047818 -0.000641026)
(0.0591943 -0.00206208 -0.00255318)
(0.162747 -0.000174613 -0.0010307)
(0.163306 -0.00107816 -0.000685668)
(0.104812 -0.0095912 0.00607569)
(0.154805 -0.000642476 0.00114836)
(0.0838653 -0.00242591 -0.00194129)
(0.101702 -0.00255362 0.00794987)
(0.134618 -0.000954844 0.00204649)
(0.0270032 -0.00216031 -9.79412e-05)
(0.163298 -0.000762886 -0.000536606)
(0.0507196 0.0014396 -5.92875e-05)
(0.138989 -0.000433255 0.00113959)
(0.0290605 0.00410334 -0.000233197)
(0.163026 0.000833775 -0.00100118)
(0.101646 -0.00435382 0.00268799)
(0.15345 1.69119e-05 -0.000410666)
(0.118381 0.000471184 0.000237785)
(0.145225 0.000101895 0.000204878)
(0.14835 0.000550357 0.000275983)
(0.165312 0.000518565 -0.000396769)
(0.0351352 -0.00200966 -7.31102e-05)
(0.0484474 0.000683578 -0.00110618)
(0.0295025 -0.000756611 -0.000266419)
(0.161738 -0.000151378 0.000652179)
(0.152027 0.000315395 -0.000923398)
(0.137096 0.00175 -0.000575306)
(0.156053 0.000703774 -0.000656831)
(0.0213579 0.000390747 0.000573516)
(0.100651 -4.49213e-05 -0.000169317)
(0.0914945 0.000842996 -0.00184764)
(0.162146 -0.000140701 0.000122343)
(0.128683 -0.000996958 -0.000346651)
(0.144057 -0.000182031 -0.00034993)
(0.107947 -0.00028099 0.00144722)
(0.163269 -8.96146e-05 0.00036455)
(0.0210648 -0.00241703 -0.00256635)
(0.0875236 -0.00340054 0.000470736)
(0.148883 -0.000104561 0.00037118)
(0.0267893 -0.0023062 0.00203609)
(0.0451495 -0.00072219 -0.0020833)
(0.0631637 -0.00111102 0.000555878)
(0.0222433 0.00137836 -0.00237616)
(0.0973798 0.00041454 -0.00123204)
(0.159685 0.000879255 8.24248e-05)
(0.0608981 -0.00185838 -0.00150859)
(0.0197384 -0.00254922 -0.0017506)
(0.107584 0.000409968 -0.00082532)
(0.0261295 0.000205002 0.000398042)
(0.101307 0.00132879 -0.000675731)
(0.161038 0.000164374 -3.16453e-05)
(0.16528 2.64542e-05 -0.000423096)
(0.160958 0.000100224 -0.000386046)
(0.157857 0.00117621 -0.000555421)
(0.161291 0.000153544 -0.000121549)
(0.131398 0.00058502 0.00155942)
(0.0476473 0.00105135 -0.00115352)
(0.161641 0.000620624 0.00082469)
(0.126603 -0.000207015 0.000817914)
(0.0902781 0.000501259 -0.0015057)
(0.097933 -0.00093051 0.0012186)
(0.155993 -5.44932e-06 -1.86995e-05)
(0.118295 -0.0012986 -0.000457442)
(0.0674574 0.00012289 0.00180951)
(0.151396 0.00015765 0.000830094)
(0.0341538 0.0011673 0.00044257)
(0.090079 4.34552e-05 0.000827577)
(0.0986404 -0.000293926 0.000344986)
(0.0625517 0.000226479 0.00107341)
(0.155349 -0.000104939 0.000366799)
(0.105987 -0.0125546 0.013424)
(0.127108 0.00737744 0.00500998)
(0.0338644 0.000595729 -0.00287107)
(0.02724 -0.00181732 0.000927622)
(0.0574486 0.00210363 -0.00105295)
(0.0211249 -0.00132445 -0.00167303)
(0.127236 0.000399877 -0.000416651)
(0.149035 0.00131023 -0.000517762)
(0.130608 0.00162597 4.137e-05)
(0.110381 0.00988797 -0.0113716)
(0.133109 0.000308119 0.000302145)
(0.143715 0.00103301 -0.000257277)
(0.0258929 -0.00205902 0.00491183)
(0.15111 0.00102218 1.52529e-05)
(0.127382 -0.00389625 0.0124433)
(0.0453072 0.000790546 -0.00117127)
(0.0229438 -0.00372889 0.000810787)
(0.117182 0.000196064 0.000957531)
(0.112478 -0.00102615 -0.000830748)
(0.0266244 -0.00180933 0.00302556)
(0.157434 -0.000814703 -0.000451943)
(0.0239413 -0.00260572 0.00195646)