/*--------------------------------*- C++ -*----------------------------------*\
| =========                 |                                                 |
| \\      /  F ield         | OpenFOAM: The Open Source CFD Toolbox           |
|  \\    /   O peration     | Version:  2406                                  |
|   \\  /    A nd           | Website:  www.openfoam.com                      |
|    \\/     M anipulation  |                                                 |
\*---------------------------------------------------------------------------*/
FoamFile
{
    version     2.0;
    format      ascii;
    arch        "LSB;label=32;scalar=64";
    class       volVectorField;
    location    "34";
    object      U:Transformed;
}
// * * * * * * * * * * * * * * * * * * * * * * * * * * * * * * * * * * * * * //

dimensions      [0 1 -1 0 0 0 0];

internalField   nonuniform List<vector> 
59516
(
(0.00039261 -0.000496241 0.107927)
(0.000347834 -0.000202309 0.100365)
(-0.000285988 0.00125137 0.115643)
(-0.00261882 7.34555e-06 0.130195)
(-0.00449513 0.000265324 0.11388)
(-0.0104414 0.00556681 0.101092)
(-0.00047478 -0.0014988 0.130433)
(-0.000310461 -0.000838432 0.10567)
(-0.000911888 5.46255e-05 0.114939)
(0.00225267 0.00101636 0.0574293)
(-0.00152317 -0.000522854 0.151571)
(-0.00250886 -0.00230852 0.0621383)
(-0.0008649 -0.000572124 0.122159)
(0.000119986 -0.000212314 0.0209035)
(4.29942e-05 -0.00358152 0.0637746)
(-0.00134834 0.00381963 0.0543236)
(0.000296597 -0.00032366 0.162374)
(-0.0054397 -0.00160997 0.0704372)
(-0.00487353 -0.00145997 0.115382)
(2.16864e-06 0.000678517 0.159737)
(-0.00105171 0.000527556 0.0551703)
(0.000429472 0.000164817 0.148395)
(7.6228e-05 -0.000707392 0.153547)
(0.000944696 0.000576411 0.0354772)
(0.000648107 0.00117935 0.158066)
(-0.000332959 0.00149107 0.0686567)
(-0.000587779 0.00289606 0.0440911)
(-0.00333173 -0.00157317 0.0449126)
(-0.00199859 -0.00103356 0.0670273)
(0.00236544 0.00186 0.0186549)
(-0.0214553 0.00121311 0.108334)
(-0.00282319 0.00215793 0.0461628)
(-0.00070905 -0.000423962 0.134216)
(-0.00231182 -0.000866481 0.1145)
(-0.00465516 -0.000293722 0.138606)
(9.15578e-05 0.00023623 0.146102)
(-0.00263703 0.00141371 0.0180136)
(-0.00677591 -0.00219099 0.0703235)
(-0.00306828 0.000441266 0.0971638)
(0.00161751 -0.00032931 0.155127)
(0.000147061 -0.000766223 0.104407)
(-0.0101468 1.42054e-05 0.14357)
(-0.00246169 0.000611048 0.147824)
(-0.00075356 0.000438879 0.110994)
(-0.00245339 0.000781356 0.143593)
(0.00149485 0.000430838 0.0576359)
(-0.00340156 1.92123e-05 0.133329)
(-0.00237272 0.000480187 0.159243)
(-0.0152904 0.00141023 0.111858)
(-0.00666804 -6.48001e-05 0.148851)
(-0.0178857 0.000532935 0.104043)
(-0.00391972 -0.00191172 0.0462945)
(0.000361781 -0.0023043 0.12272)
(-0.000375714 0.000201625 0.129633)
(-0.00266729 0.000637281 0.048902)
(-0.0013354 0.000266916 0.130539)
(-0.0109941 -0.000136421 0.143679)
(-0.00457658 -0.00172888 0.0501515)
(0.000145861 0.000266442 0.162647)
(-0.00887168 -0.000351149 0.134707)
(0.000173325 0.000494841 0.148104)
(-0.00148628 0.00209176 0.0202739)
(0.000304804 0.000360928 0.157301)
(-0.000975343 0.000491347 0.158833)
(-0.000625426 0.000229652 0.126408)
(-0.00403915 0.000287769 0.145607)
(0.000202122 0.00311133 0.0277142)
(-8.55139e-05 0.000232236 0.0430219)
(-0.0227258 0.0003981 0.121388)
(-0.00104927 -0.00113746 0.136641)
(-0.000668733 -0.000927102 0.0388626)
(-0.000650292 -0.000272568 0.157223)
(0.00370642 -0.00147516 0.0244057)
(0.000246851 -4.57992e-05 0.142336)
(-0.000408463 0.000284972 0.166638)
(-0.000851904 -2.07686e-05 0.155778)
(-0.00144572 -0.000182247 0.159827)
(-0.000446209 0.000163879 0.146715)
(0.00187616 0.0010969 0.0481142)
(-0.0062164 0.000865587 0.149117)
(-0.00256653 9.54364e-05 0.0405341)
(-0.00521906 0.000560592 0.144938)
(-0.00430792 0.000558852 0.138934)
(-0.00268482 0.00141474 0.0213151)
(-0.00511777 0.000893945 0.144992)
(-3.84538e-05 0.000544806 0.163778)
(0.000682196 0.00114142 0.0342676)
(0.000788793 0.000295156 0.149502)
(-0.00221761 -0.00123785 0.0568562)
(-0.00951745 -0.00248208 0.107491)
(-0.0109834 -9.29694e-05 0.131403)
(-0.00126644 0.00110226 0.137502)
(5.88889e-05 6.26875e-05 0.162357)
(-0.000139997 0.00106547 0.136517)
(-0.000152915 6.80474e-05 0.153512)
(-0.0112961 1.73895e-06 0.109972)
(-0.000960859 -0.000772719 0.140079)
(0.00199837 0.00410158 0.0556809)
(-0.00208835 -0.00103599 0.0655987)
(0.00129373 0.00100697 0.146858)
(-0.00121961 0.0010234 0.0394682)
(0.00289958 0.00139398 0.0260287)
(0.00310942 0.00162578 0.0245448)
(-0.00196509 0.00229925 0.0569936)
(0.000663468 -6.33166e-05 0.136445)
(-0.000373966 0.000374084 0.14387)
(0.00188677 -0.00336744 0.0421246)
(-0.000608016 -0.000382582 0.108631)
(-0.000458832 0.000535711 0.104316)
(-0.00149883 0.00237639 0.0688755)
(-0.0183879 -0.000246605 0.124881)
(0.00246108 -0.00214565 0.0326542)
(-0.00253331 0.00326969 0.0695088)
(-0.0191991 -5.04249e-05 0.118049)
(-9.32533e-05 -1.93693e-05 0.155592)
(0.00083253 -0.001151 0.104456)
(-0.00196068 -0.00111465 0.0565543)
(-0.000675323 -0.000577737 0.134424)
(-0.000469378 -0.00105359 0.0231518)
(-0.00106456 0.00123739 0.145661)
(0.000424298 0.000190081 0.166771)
(0.000241649 0.00028823 0.159349)
(0.00039939 0.000464096 0.155588)
(-0.000371215 0.000343274 0.157957)
(-0.0173621 0.00127764 0.132185)
(-0.00261323 3.33591e-05 0.0912141)
(-0.00196047 -0.000844533 0.0313899)
(-0.0124574 0.00214146 0.138078)
(-0.0130369 0.00306889 0.0898516)
(0.000614775 -7.10246e-05 0.164597)
(0.000726675 -0.000650702 0.165159)
(0.00147426 0.00196784 0.116208)
(-0.000620096 -0.00210402 0.0246846)
(0.000347034 0.000591688 0.147892)
(0.000982267 0.000384325 0.105405)
(-0.00153364 0.00123834 0.119767)
(-0.0153245 0.00140582 0.107638)
(0.000342014 0.000552233 0.132694)
(-0.000360128 0.00273576 0.0417505)
(-0.00107725 0.000911949 0.102156)
(-0.0010124 0.00223125 0.0462156)
(-0.000140495 -0.000163081 0.166605)
(-0.000983543 -0.00170193 0.0196747)
(-0.000372904 0.0013202 0.128142)
(-0.000217136 0.00034003 0.162656)
(-0.00117754 0.000817413 0.141221)
(-0.00313794 0.00120536 0.141076)
(-0.00182662 0.0011952 0.12072)
(0.00095282 -0.00177331 0.0621434)
(-0.000178461 0.00113135 0.110115)
(2.43849e-05 -0.000828612 0.107372)
(0.000182425 0.00135703 0.0371604)
(0.00101022 0.000852773 0.160315)
(0.000918142 0.000188216 0.152206)
(-0.000410839 -0.001916 0.093182)
(-0.00191615 0.00108505 0.0199095)
(0.000213388 -0.000125667 0.117026)
(-0.000891643 0.000682354 0.117285)
(-0.00102416 0.000617762 0.0861614)
(-0.0029851 -0.00208024 0.0204607)
(0.00278584 0.00240669 0.0672582)
(0.00376134 -0.00205574 0.069254)
(-0.000699565 0.00149373 0.0366845)
(-0.000246868 -0.000516763 0.026696)
(0.00287455 0.000157549 0.103759)
(-0.000936696 0.000622866 0.163392)
(0.000695601 -7.69483e-05 0.0636464)
(-0.000529837 -0.000103279 0.163712)
(0.00127296 0.00238941 0.0207295)
(-0.00029196 -0.000388374 0.135205)
(-0.00135995 -0.00115009 0.0872898)
(-0.00087134 0.000664154 0.0540841)
(3.64602e-05 -0.0019085 0.0665996)
(0.000607282 -0.000847675 0.137642)
(0.000560548 0.000754177 0.0521536)
(-0.00364749 -0.000674059 0.135556)
(-0.0010291 0.000100499 0.160322)
(-0.00414326 0.000512589 0.148998)
(0.000494676 -0.00345125 0.0695918)
(0.000467107 0.000233594 0.0427294)
(-0.000735465 -0.00180664 0.145095)
(0.000913874 0.0030898 0.0349146)
(-0.00105179 -0.00215557 0.0302045)
(0.000588246 0.00169712 0.0667494)
(0.000406886 -0.000593254 0.163726)
(-0.0003682 0.000675727 0.0608054)
(-0.0027956 0.000657953 0.0368213)
(0.000172039 0.000258401 0.0241387)
(-0.000119548 -0.00011709 0.124336)
(0.00149831 0.00078224 0.10364)
(-0.00280541 -0.000437719 0.13524)
(-0.000854526 -0.00307253 0.0538761)
(-0.000393427 -0.00034303 0.157709)
(0.00180699 -0.00163222 0.0590803)
(-0.000302131 0.000269322 0.152738)
(0.000429706 0.000749881 0.030526)
(0.000787307 5.2839e-05 0.0591426)
(0.000263431 -0.00107096 0.0423785)
(-0.00456295 -0.000255156 0.113079)
(0.000437668 -0.000212438 0.151437)
(-0.0016899 -0.00214353 0.0836638)
(-0.000296236 -0.00035465 0.165623)
(0.00030607 0.00106498 0.106194)
(0.00176137 -0.00194995 0.0203684)
(0.00124456 0.0010843 0.130924)
(4.2575e-05 -8.66002e-05 0.144568)
(1.96888e-05 6.21565e-05 0.165412)
(0.000305207 -0.000577758 0.148414)
(0.000202261 -0.000685817 0.0238199)
(0.00166231 0.00085785 0.116947)
(-0.000416354 0.00469815 0.0522479)
(-0.00388546 0.000821343 0.0241983)
(-0.00106103 0.000916994 0.144189)
(-0.000197445 0.00136927 0.0578949)
(-0.000658452 -0.000933067 0.11913)
(-0.000499611 -0.000290269 0.162123)
(-0.000817681 0.000431041 0.139718)
(-0.000832799 0.000815011 0.154769)
(-0.00183045 0.00310612 0.0562846)
(0.000722808 0.000300593 0.154119)
(-0.00122114 -0.00263542 0.0575357)
(-0.00024079 0.000551131 0.10687)
(-0.000861444 -0.00103497 0.156662)
(0.000439586 -0.000696708 0.0417028)
(-0.00106162 -0.000480749 0.158921)
(0.00057926 0.000550592 0.160769)
(-0.00108521 -0.00110366 0.0291516)
(-0.00267001 0.000586966 0.0486496)
(-0.000372347 0.000917124 0.160265)
(-0.00198099 0.00348024 0.0563521)
(0.000487358 0.000717331 0.162947)
(-0.000626501 0.000335679 0.161367)
(-0.00085962 -0.00086996 0.163571)
(-0.00128495 -0.00214033 0.0261272)
(-0.00137477 -0.0012299 0.0340655)
(-0.0015332 9.63622e-06 0.0356388)
(0.00042932 -0.000472422 0.0655723)
(-0.00151889 -0.000393683 0.100152)
(-0.0015204 0.000156459 0.151882)
(0.00175702 -0.000258759 0.0590778)
(0.000824464 0.000179613 0.165084)
(0.00259556 0.00179263 0.0214672)
(0.00070078 0.000521349 0.0560767)
(0.00246312 0.00144932 0.0260919)
(0.000732713 0.000288046 0.164147)
(-0.000229787 -0.000616487 0.0961629)
(-0.000734961 9.4481e-05 0.144099)
(-0.000398752 0.00138254 0.0675647)
(0.00036293 0.000255668 0.161539)
(-0.000377163 -0.00022227 0.107593)
(0.00160745 -0.000538489 0.159571)
(-0.000702785 0.000240308 0.140441)
(0.000775156 0.000402409 0.164937)
(5.58961e-05 0.000449772 0.143781)
(-0.000476465 0.00132889 0.145465)
(-0.000198886 0.000595164 0.153508)
(-0.000227639 -7.62763e-05 0.0574237)
(-0.00149962 0.000161966 0.150495)
(0.00120854 0.00210913 0.0438164)
(-0.000300182 0.00217889 0.0621136)
(-0.00108801 0.000423485 0.132397)
(-0.000629329 0.00103881 0.156007)
(0.00274376 0.000863613 0.117915)
(2.45519e-05 0.000968479 0.163405)
(0.00219983 0.000305584 0.102297)
(0.000149266 -0.00282642 0.0600805)
(-0.000147109 -0.000873111 0.155145)
(0.00190568 0.000199104 0.0960677)
(-0.000583693 -0.00093093 0.0483429)
(-0.000272428 0.00144231 0.0537568)
(-0.00167196 0.00206194 0.0994486)
(-0.000709314 -0.000463133 0.1606)
(-0.00133598 0.00174139 0.101995)
(-0.000521818 0.00132742 0.0966496)
(-0.00134939 0.000365036 0.157959)
(0.000159203 0.00272525 0.0962932)
(-0.00132596 -0.00273607 0.0223911)
(0.000464196 0.00109602 0.157042)
(0.00225803 -0.00168957 0.0268821)
(0.00175487 0.000965271 0.0423294)
(-0.000892617 -0.000724103 0.16297)
(-0.000202467 0.000522183 0.140344)
(-0.00355867 0.00180655 0.0263626)
(-0.000347432 -0.000863285 0.123863)
(-0.00108588 -0.00186614 0.127889)
(0.000245057 0.000629372 0.159963)
(0.000377733 -0.000402129 0.163669)
(0.00220236 -0.00211943 0.0255616)
(-0.000748558 0.000484928 0.162847)
(-0.000741647 -0.00117878 0.163595)
(-0.000423469 -0.00106132 0.160597)
(-0.000921154 -0.000354135 0.136042)
(-0.00144576 0.000870746 0.136626)
(-0.000521939 -0.000336642 0.0987691)
(0.00016552 -0.00110416 0.163497)
(2.36478e-05 0.00169687 0.0296686)
(0.0008439 -0.00141619 0.153516)
(0.00102536 0.000808784 0.140833)
(-0.00067849 -0.00105365 0.164561)
(-0.00012771 -0.0010945 0.15757)
(0.000818475 -0.000523535 0.119596)
(0.000998863 -0.00124621 0.0621903)
(-0.000771982 -0.00156405 0.0242439)
(0.000786964 0.000478457 0.0301642)
(-0.00118188 0.000922047 0.160377)
(-0.00314155 0.00125006 0.0218482)
(-0.000788726 -0.000802786 0.0660959)
(-0.000990152 0.00296947 0.0543286)
(0.000678485 -0.000717571 0.159799)
(-0.000296933 -0.000453853 0.164497)
(9.18321e-05 0.000410316 0.152921)
(0.00124862 0.000513485 0.0614293)
(0.00241493 -6.80962e-05 0.106326)
(0.000125428 0.00442096 0.0422737)
(0.000746824 -0.00173705 0.0561827)
(9.38925e-05 -0.000217786 0.151543)
(0.000648527 -0.00140948 0.101929)
(-0.012783 -0.00157454 0.107731)
(0.000248806 -0.00213402 0.0930081)
(-0.000530856 -3.09323e-05 0.0453809)
(0.00213225 -0.000104054 0.0669736)
(-0.000372117 -0.00170738 0.111028)
(-4.75022e-05 -5.41183e-05 0.163725)
(-0.000200768 -0.000365263 0.166191)
(-0.000986646 0.000603361 0.165667)
(5.5639e-05 0.00147822 0.157702)
(-0.00541237 -0.00081767 0.0976251)
(-0.00124693 0.000265294 0.128616)
(-0.00111251 0.00132692 0.157131)
(0.000314814 0.000121277 0.155881)
(0.000998356 -0.000172551 0.157946)
(-0.00256226 -0.0023763 0.0590113)
(0.00298142 -0.00114623 0.0235957)
(0.000785283 -0.000149936 0.148481)
(0.00119558 0.00268484 0.0420079)
(1.43941e-05 -0.000225384 0.0337178)
(-0.00155504 -0.000141425 0.155041)
(0.000595481 0.000499817 0.14591)
(-0.00163807 0.00258206 0.0608271)
(-0.000732678 -0.000975639 0.161394)
(0.000384848 0.00150631 0.160283)
(-0.00100814 6.89876e-05 0.165317)
(-0.00053007 -0.00023177 0.162937)
(-0.000167478 -0.00149989 0.0344977)
(0.000152403 -0.000367566 0.156564)
(-0.00148509 0.00024833 0.162247)
(0.000143984 0.000773046 0.0605626)
(-7.38739e-05 -0.00146042 0.163846)
(-0.000303067 0.000323139 0.161825)
(0.000686705 0.000587645 0.133298)
(0.000508543 0.00052225 0.124826)
(-0.000374478 -0.00126041 0.14848)
(0.000796294 0.00111819 0.14332)
(-0.000406116 0.000108219 0.0728341)
(-0.000621011 0.00161692 0.0334181)
(0.000218652 0.00255859 0.0367996)
(0.000506945 0.000272033 0.0987396)
(-0.0124781 -1.34677e-05 0.0863304)
(-0.00732194 0.000778305 0.074652)
(0.000200178 -0.000337565 0.0871758)
(0.00141835 -0.00124711 0.117835)
(-0.000263747 0.000411612 0.132902)
(-0.00309679 0.000777856 0.155081)
(0.000739709 0.000204301 0.155236)
(-0.00049473 -0.000367028 0.133954)
(-0.00039557 -0.000532511 0.147219)
(-0.00120714 -0.000124689 0.146996)
(-0.00045512 0.000881127 0.0331178)
(-0.022539 0.000845928 0.113876)
(0.000448983 0.001694 0.061012)
(-0.00106509 0.00172798 0.0436678)
(0.000744865 0.000338878 0.0439664)
(-2.9301e-05 0.000133133 0.156389)
(-0.000247431 0.000290911 0.0974585)
(-0.000904393 0.000159054 0.156723)
(-0.00142181 0.00162614 0.0211024)
(0.000331574 -0.000238063 0.128686)
(0.00122618 -0.000664188 0.0470039)
(-0.000280675 0.000652446 0.158305)
(-0.000489001 0.00063645 0.0504026)
(0.00181613 0.000699124 0.0644617)
(0.000815214 0.00253392 0.110414)
(-0.00139005 0.00030646 0.149739)
(0.00283932 -0.000152775 0.0209814)
(-1.53964e-05 0.00260865 0.0569444)
(-0.000212821 -0.000591192 0.134366)
(-2.40624e-06 -0.00240752 0.0247815)
(-0.00826043 -0.000137396 0.13067)
(0.000346393 -0.00247925 0.118894)
(0.000176952 -0.00185122 0.13355)
(0.00233388 -0.00242711 0.0979991)
(0.00206684 0.000578321 0.0918385)
(0.00113952 -0.000611812 0.157746)
(-0.0100689 -0.00324632 0.0772879)
(-0.00119758 -0.000384583 0.165994)
(-0.0122221 0.000698264 0.111347)
(-0.00217232 0.00162427 0.0623897)
(-0.000475671 0.00143267 0.0653561)
(-0.000350668 -0.000952709 0.165662)
(0.000675619 -0.00121993 0.166807)
(0.000617808 -0.000504653 0.0551437)
(-0.000265793 -0.000765548 0.136271)
(-0.00220467 0.000813887 0.10178)
(0.000603864 -0.000624864 0.164708)
(0.00050583 -0.0010366 0.164273)
(-0.00107902 -0.00360886 0.0483516)
(-0.000514867 0.000690505 0.134363)
(0.00201486 -0.000154113 0.145163)
(-0.000321957 -0.000331466 0.147623)
(0.000301251 -0.000457162 0.154192)
(0.00261748 -0.00140181 0.022912)
(-0.00289122 -0.000789382 0.0221977)
(-0.00127539 0.00130526 0.128378)
(0.00013752 -0.000143824 0.163478)
(0.00118917 0.00112889 0.165306)
(-0.00232238 0.00119459 0.0366901)
(0.000838956 -0.000977124 0.158989)
(-0.00103068 0.000153256 0.11065)
(-0.000832053 -0.000505265 0.160359)
(0.00106586 0.000783255 0.164779)
(0.000683175 0.000521014 0.1658)
(-0.00025787 -0.00125874 0.162871)
(-0.000210674 -0.00178244 0.162929)
(0.000239815 -0.000525377 0.0928174)
(-0.00141629 0.000382687 0.164063)
(-0.00199572 0.00243852 0.0588404)
(-0.000151038 0.000187219 0.159051)
(-0.00100648 -0.000755456 0.112964)
(-0.00116044 0.000293102 0.149765)
(-0.000380692 -0.000316028 0.162643)
(-0.000134469 0.000210493 0.148771)
(0.00109854 -2.37445e-06 0.143768)
(0.00185458 0.00269165 0.0426086)
(0.000869258 4.22053e-05 0.0359591)
(-0.00211771 -0.00210197 0.0225804)
(-0.00713122 0.000107048 0.150458)
(-9.33013e-06 6.34375e-05 0.169708)
(-0.000938365 4.89919e-05 0.13862)
(9.32725e-05 -0.00147249 0.128975)
(0.00110911 0.000225219 0.032631)
(0.000819901 -0.00276467 0.0250578)
(-0.000828128 -0.00153116 0.117682)
(-0.0011432 0.000741537 0.148577)
(-0.000496719 -0.000586444 0.162981)
(0.000494047 -0.000485472 0.152748)
(-0.00132022 -0.000340013 0.137282)
(-0.000473788 0.000769502 0.167499)
(0.00105313 -0.000295275 0.135984)
(-0.00124366 0.00243826 0.0279709)
(-0.000219396 0.000530771 0.125199)
(0.00267678 -0.00157341 0.0605185)
(-0.00713626 -0.000787258 0.0705174)
(0.000117488 0.000191394 0.150195)
(0.000367551 -5.53454e-05 0.0974703)
(0.000143194 -0.000160529 0.145361)
(-0.00367584 0.00225658 0.0219721)
(0.00140384 -0.000688601 0.166281)
(-0.000164977 -8.27417e-05 0.165368)
(-0.00127765 0.000483885 0.163218)
(0.000740162 -0.000613995 0.0953992)
(-0.000159449 -0.00102747 0.149866)
(-0.000797469 -0.000759976 0.161164)
(6.31341e-05 0.000396279 0.123164)
(-0.00108916 0.000423813 0.16402)
(-0.00437888 -0.000721344 0.0994238)
(-0.000261463 -0.000335823 0.161816)
(-0.00219411 0.000726754 0.148049)
(0.00163225 -0.0013288 0.0217239)
(0.000154837 0.000859186 0.164755)
(0.00129074 0.00135355 0.118951)
(-0.00294364 -0.00281866 0.04837)
(-0.00078083 0.00146527 0.094586)
(0.000532653 0.000381955 0.159457)
(1.78264e-06 -0.000706541 0.131401)
(0.000999293 0.00225081 0.0883285)
(-0.00240876 0.00163816 0.02156)
(-0.000269961 0.000928621 0.163766)
(0.00034378 0.00233499 0.126964)
(-0.000384653 0.000173058 0.156441)
(-0.000762613 -4.22963e-05 0.126526)
(-0.00236619 0.000613841 0.038709)
(0.000536366 -2.18316e-05 0.140906)
(-0.00394411 0.000235863 0.0264118)
(-6.88237e-05 0.000463864 0.15654)
(-0.0119503 0.000602466 0.102277)
(0.000465209 0.000424459 0.159541)
(-0.00032782 0.00183398 0.0540698)
(-0.00127015 0.0016154 0.109676)
(-0.000383112 0.00139204 0.0983722)
(0.00202859 -0.00197161 0.0364666)
(0.000502133 0.000348077 0.163662)
(-0.000890751 0.00015146 0.158837)
(-0.00228341 -0.000840854 0.023252)
(0.000602383 -0.00110795 0.154792)
(-0.000663399 -0.000985492 0.163925)
(-0.000560176 0.00208872 0.0388978)
(0.00144466 0.00236965 0.0640082)
(-0.00146257 0.00191144 0.0558819)
(-0.000527514 0.0010181 0.150446)
(0.000221351 -0.000330395 0.16285)
(-0.00118291 0.00124652 0.0329093)
(0.00175877 -0.000774182 0.0563695)
(-0.000290681 0.00117999 0.0589103)
(0.00118352 0.000887972 0.117515)
(0.000156785 -0.000489175 0.163395)
(-0.00286613 -0.00188071 0.0242504)
(0.00117356 0.000683577 0.15618)
(-0.00149822 -0.000812546 0.150134)
(-0.000474427 -0.00102975 0.163618)
(-0.00234594 -0.00482696 0.0900996)
(0.00115038 0.000451027 0.162039)
(0.00127121 -0.00220779 0.0238939)
(-0.000670502 1.11482e-06 0.158561)
(0.000193533 -0.000456925 0.0284707)
(0.000277907 -0.00189929 0.0607824)
(8.95713e-05 0.000839382 0.152291)
(-0.0010825 0.001599 0.0627652)
(-0.00294839 0.00171065 0.0217105)
(0.000306687 -0.00141292 0.0385611)
(0.000345772 0.00287751 0.047348)
(0.00081657 -0.00186833 0.0608912)
(-0.000788561 0.000155368 0.146217)
(-4.74005e-05 0.00115847 0.0519067)
(0.00107725 -0.00203455 0.0613719)
(-0.0150519 0.000550159 0.128084)
(-0.000914812 -0.000213978 0.158767)
(0.00160856 -2.315e-05 0.0251043)
(0.000431578 0.00088665 0.109555)
(-0.00835993 -0.00428589 0.0814135)
(0.00160247 8.71097e-05 0.1613)
(-0.00103803 0.000892872 0.0602432)
(-0.00124543 6.61835e-05 0.156508)
(0.00152743 0.00254197 0.0594251)
(-0.000747515 0.000317017 0.124492)
(-0.000791144 -0.000400179 0.163567)
(0.00294042 -0.00444622 0.0531755)
(-3.40266e-05 0.000124886 0.164459)
(-0.0030872 -0.000910021 0.0477828)
(0.00278572 -0.0017333 0.0201794)
(-0.000535682 0.000328012 0.144416)
(0.000201213 -0.000729618 0.163217)
(-0.000828407 0.000325142 0.131116)
(0.000818227 -0.00158495 0.127058)
(0.00166767 -0.000217284 0.164353)
(0.00162 -0.000168418 0.0627094)
(0.00165199 -0.000215769 0.159863)
(0.00136064 0.00277454 0.0587807)
(-0.000611277 -0.000499481 0.162945)
(0.00186686 0.000679237 0.128099)
(-0.00344305 -0.00223521 0.0293755)
(-0.000487754 0.000512903 0.152089)
(0.00112066 -0.00134024 0.0541834)
(0.00140296 0.00235957 0.027349)
(-0.000521829 0.000164217 0.149087)
(-0.00160206 7.72937e-05 0.0448228)
(-9.83684e-05 0.000552401 0.137859)
(0.000414376 0.000682841 0.16207)
(-0.000356915 0.00106089 0.131586)
(2.44406e-05 0.00354703 0.0554446)
(0.00158131 -0.000214828 0.166439)
(0.00162639 0.00042272 0.0927492)
(-0.000231164 0.000533677 0.169388)
(0.000143393 0.000122428 0.166492)
(0.000993177 0.000751346 0.166408)
(0.000222927 -0.000619013 0.163108)
(0.0029199 -0.0012394 0.0457575)
(0.000534038 0.00039244 0.0533155)
(-0.000426035 0.000169764 0.164539)
(-0.000467072 -0.0015358 0.157221)
(0.000435601 0.00246881 0.0332391)
(3.90901e-05 -0.000249608 0.155476)
(6.55316e-05 0.000349726 0.167934)
(0.00093877 0.00114576 0.164918)
(0.00106521 0.00125429 0.166149)
(-0.00100779 0.00079594 0.118768)
(-0.00176745 0.00236386 0.0223456)
(0.000627124 0.000148341 0.166587)
(0.00103357 -0.00152506 0.102424)
(-0.000354756 -0.000134309 0.147473)
(-6.41834e-05 6.4322e-05 0.0982304)
(-0.00194771 -0.00109073 0.0305682)
(-0.000816309 0.000310244 0.163161)
(-0.00175557 0.00236172 0.093944)
(0.000499819 -0.000133102 0.134684)
(0.00101363 0.00131051 0.166052)
(-0.00103551 0.00129867 0.140787)
(0.00167013 0.002066 0.0180423)
(-0.00242874 0.00107245 0.0230399)
(-0.000181611 -0.00107809 0.161018)
(0.000290434 -0.000562734 0.157547)
(-0.000354145 0.00157315 0.165786)
(-0.000954456 -0.000292252 0.147985)
(-0.000350768 0.00145107 0.0941131)
(-0.00031476 0.00117919 0.147917)
(0.000111507 0.000311182 0.163155)
(0.000744115 0.00168274 0.0210794)
(-0.0002598 -0.00113252 0.1616)
(-0.0141294 0.00104374 0.13484)
(-8.33286e-05 0.00207125 0.0389489)
(-0.00038101 0.00365732 0.0560592)
(-3.11625e-05 0.00111552 0.144646)
(0.00181716 -0.000394184 0.141481)
(0.000279711 -0.000694137 0.138244)
(0.000816701 -0.000380423 0.126466)
(-0.00306888 0.00213895 0.107662)
(-0.000297055 -0.000228427 0.165657)
(0.000947455 -0.00287533 0.100256)
(0.00136317 -0.000532629 0.165354)
(0.000224487 0.000110154 0.160842)
(0.00136349 -0.000709103 0.168197)
(0.00114337 -0.000923028 0.161377)
(0.00160562 0.00135563 0.0415701)
(0.00120693 -0.000109813 0.158149)
(-0.000352978 -0.0015987 0.0337487)
(-0.0105577 -0.0014355 0.0944388)
(0.00197037 -0.00133836 0.0618465)
(-0.0128758 -7.88919e-05 0.127152)
(0.000811001 0.000348631 0.132155)
(-0.0193219 0.000498136 0.11746)
(0.000235083 0.000285676 0.159572)
(-8.47223e-05 -1.01349e-05 0.166003)
(-0.000382934 0.000296294 0.150842)
(0.000904659 0.000805237 0.160005)
(-0.000584473 -0.000149874 0.0349319)
(-0.00459325 0.000146697 0.100942)
(-0.0160875 0.00114174 0.112463)
(-0.000331525 -8.38361e-05 0.162264)
(-0.000629288 0.00244961 0.115025)
(-0.0133139 0.000957969 0.136671)
(-0.00415275 0.000752536 0.153882)
(0.000752829 0.000949868 0.113713)
(-0.00130284 -0.00058112 0.0362858)
(0.0015762 0.00263475 0.055306)
(-0.000200758 -0.000103895 0.0252126)
(0.0013966 0.00122816 0.0240307)
(-0.0002465 -5.56478e-05 0.035419)
(-0.00943684 0.000650125 0.133882)
(-0.000728648 -0.000138453 0.13857)
(-0.00238595 -0.00252916 0.0244083)
(-0.00297316 0.000773383 0.0230418)
(0.000409261 0.000542691 0.165205)
(-0.0148366 0.00325696 0.09617)
(-0.00175068 6.06049e-05 0.0380879)
(-0.000253249 -0.000237094 0.146882)
(-0.00170287 0.000750418 0.108245)
(0.00115513 -0.00025136 0.135659)
(0.00137161 0.00204218 0.0428166)
(-0.00109717 -0.00141824 0.0551209)
(0.000269042 0.00110196 0.113897)
(0.00028738 0.000398609 0.160079)
(4.49678e-06 0.000831832 0.149818)
(-0.00188361 0.0025887 0.0367453)
(-0.000679091 -0.00212623 0.0245006)
(-0.0188965 0.000213326 0.106235)
(-0.00277241 0.0018911 0.0261461)
(-0.000104918 0.00150314 0.1354)
(-0.00363213 -0.00109143 0.0279529)
(0.000577654 0.00220843 0.107002)
(-0.000525845 -0.000271349 0.162476)
(0.0011186 0.000585921 0.167124)
(-0.000489305 -0.000989955 0.044665)
(0.000852759 -0.000698131 0.100649)
(-0.00189185 -0.00032837 0.0357596)
(-0.00356804 -0.000179369 0.028496)
(0.000337725 -0.000743028 0.16273)
(-0.00273458 0.00128794 0.0195086)
(0.00148003 -0.000245747 0.156811)
(-0.000486254 -0.00239289 0.048801)
(-0.000171352 0.000847648 0.152154)
(-0.000195688 0.000365777 0.141671)
(0.003272 0.001328 0.0222586)
(-0.000938032 -0.00256837 0.0575191)
(6.87286e-05 0.000432178 0.146914)
(-8.35583e-05 0.00160655 0.0346472)
(0.000504637 -0.000786446 0.152985)
(-0.00126158 0.00376148 0.0548273)
(0.00027769 1.57892e-05 0.111097)
(0.000621811 0.000805995 0.164513)
(0.00135279 9.38747e-05 0.0368349)
(-0.00319731 -0.000644012 0.0238318)
(-0.000941498 -0.000404035 0.0513175)
(-0.0177955 6.07796e-05 0.110777)
(-0.000584654 9.133e-05 0.10748)
(0.000274479 0.00362499 0.0568754)
(0.00143753 -0.0001455 0.0875656)
(0.000488607 0.00132056 0.031117)
(0.000828985 0.000727554 0.1647)
(0.0010368 0.00131381 0.023666)
(-0.000372107 0.00137231 0.162451)
(0.000537374 0.000514666 0.145601)
(0.000346616 0.000248086 0.159324)
(-0.00199424 -0.000243006 0.0196836)
(0.000958594 0.000439604 0.149612)
(-0.000250426 0.000461546 0.0843818)
(0.000281981 0.000599069 0.153767)
(0.000123296 0.00042727 0.0551314)
(-0.0146519 0.000404478 0.108136)
(-0.00125527 0.00106808 0.156839)
(0.000607946 -4.96235e-06 0.0406979)
(1.66053e-05 0.000730034 0.1663)
(-0.0204399 0.00239202 0.108853)
(-0.000573123 -0.000355394 0.119586)
(-0.000737137 -0.00182515 0.0331697)
(-0.00115427 0.00237418 0.051593)
(-3.70119e-05 6.49235e-05 0.163787)
(0.000415641 -0.00127598 0.133709)
(-0.00111445 0.00143094 0.0327386)
(-0.000218661 -0.00183131 0.111998)
(0.00173144 0.00106282 0.061097)
(-0.00174808 0.00194723 0.0249951)
(-0.000239428 -9.10998e-05 0.163466)
(-0.0101579 0.00047529 0.103331)
(-0.000983377 -0.00229508 0.133079)
(4.48694e-05 0.000177357 0.161422)
(0.000520732 0.000173045 0.162522)
(0.00059098 -0.000277206 0.159028)
(0.000759238 0.000331404 0.134381)
(0.00117506 0.000417123 0.0441417)
(-0.000435153 0.00275205 0.0405008)
(0.00138964 0.000206983 0.166193)
(-0.0128529 -0.000539103 0.107564)
(0.00023843 0.00132283 0.12422)
(0.00117714 -0.000695041 0.131069)
(0.00186811 -0.000785606 0.0834569)
(-0.000200415 0.000635235 0.14688)
(-0.000194969 0.000751265 0.156718)
(-0.00111158 -0.000816076 0.101799)
(-0.0014524 0.00136067 0.107017)
(-0.00109766 0.00210671 0.0378365)
(-0.000716128 -0.000338989 0.0732152)
(-0.00273853 -0.00208619 0.0444118)
(0.000332148 -0.000959826 0.148952)
(8.53007e-06 -0.00027685 0.162993)
(-0.000220907 0.00279353 0.0969935)
(0.000117417 -0.000911083 0.100529)
(0.00128158 -0.00188238 0.0213179)
(6.76478e-05 -0.000796866 0.0814112)
(-0.00298371 -0.0013669 0.0591943)
(-0.00083583 0.000627869 0.162747)
(0.00119146 0.00046152 0.163306)
(-0.0113302 -0.000728509 0.104812)
(-0.00128944 0.000262369 0.154805)
(-0.00143275 0.00275697 0.0838653)
(-0.00834132 0.000379275 0.101702)
(1.96626e-05 -0.0022582 0.134618)
(0.00198591 0.000855971 0.0270032)
(0.000876751 0.000318197 0.163298)
(-0.000211274 0.00142524 0.0507196)
(-0.00113726 -0.000439318 0.138989)
(0.00368792 -0.00181413 0.0290605)
(0.0012964 0.000130022 0.163026)
(-0.00510873 -0.000286141 0.101646)
(-6.93186e-05 -0.000405126 0.15345)
(0.00019368 -0.000490962 0.118381)
(-5.88171e-06 0.000228742 0.145225)
(-1.24824e-05 0.000615552 0.14835)
(-0.000365299 0.000541196 0.165312)
(0.000146189 0.00200567 0.0351352)
(-0.000100765 -0.00129644 0.0484474)
(-0.000357703 0.000717975 0.0295025)
(6.84032e-06 0.000669482 0.161738)
(0.000926866 -0.000305054 0.152027)
(0.0017915 0.000428958 0.137096)
(0.000813458 -0.000514792 0.156053)
(0.000258109 -0.000644192 0.0213579)
(-5.09542e-05 0.0001676 0.100651)
(0.00141127 -0.00146039 0.0914945)
(-3.44553e-05 0.000183241 0.162146)
(-0.00104285 -0.000162973 0.128683)
(-9.52593e-05 -0.000382769 0.144057)
(-0.00135753 0.00057492 0.107947)
(1.83746e-05 0.000374953 0.163269)
(-0.00286137 0.00205931 0.0210648)
(0.000368436 0.00341314 0.0875236)
(-0.000216551 0.000319081 0.148883)
(-0.000131051 0.00307361 0.0267893)
(0.000273139 0.00218794 0.0451495)
(-0.00106675 -0.000636726 0.0631637)
(-0.00252058 -0.00109209 0.0222433)
(0.00129935 -3.81459e-05 0.0973798)
(-0.000882997 1.40942e-05 0.159685)
(-0.000421247 0.00235627 0.0608981)
(0.00239566 0.00195549 0.0197384)
(-0.000340465 -0.000856336 0.107584)
(0.000443278 6.29918e-05 0.0261295)
(-8.29823e-06 0.00149071 0.101307)
(6.72387e-05 0.000153294 0.161038)
(0.000326868 0.000269939 0.16528)
(0.000229201 0.00032641 0.160958)
(0.00112048 0.000660682 0.157857)
(0.000118416 0.000155973 0.161291)
(-0.000316618 0.00163517 0.131398)
(0.00114335 -0.0010624 0.0476473)
(0.00103125 4.24788e-05 0.161641)
(8.35028e-07 -0.000843705 0.126603)
(-0.000761408 -0.00139235 0.0902781)
(-0.00142632 -0.000562536 0.097933)
(1.73502e-05 -8.85092e-06 0.155993)
(-0.00109829 0.000830278 0.118295)
(0.00106122 0.0014708 0.0674574)
(-0.00041468 -0.000736172 0.151396)
(0.000305818 -0.00121035 0.0341538)
(0.000695626 0.000450417 0.090079)
(0.000291041 -0.000347424 0.0986404)
(-0.000913205 0.000607905 0.0625517)
(0.000250398 0.000287845 0.155349)
(-0.0183739 -0.000471758 0.105987)
(-0.00891637 0.00015798 0.127108)
(-0.000574091 0.00287548 0.0338644)
(0.00201556 -0.000317283 0.02724)
(-0.000208222 0.00234321 0.0574486)
(0.00208463 -0.000455545 0.0211249)
(-0.000444107 0.000369145 0.127236)
(-7.40834e-05 0.00140687 0.149035)
(-0.000825021 0.00140172 0.130608)
(-0.0150216 0.00119864 0.110381)
(-0.000384109 0.000196696 0.133109)
(-3.30229e-05 0.00106406 0.143715)
(0.00438155 0.0030278 0.0258929)
(-0.000486521 0.000899099 0.15111)
(-0.013037 -0.000230729 0.127382)
(-0.00137276 -0.000335216 0.0453072)
(0.0028798 0.00250375 0.0229438)
(-0.000336571 -0.000917621 0.117182)
(-0.00113876 -0.000668094 0.112478)