/*--------------------------------*- C++ -*----------------------------------*\
| =========                 |                                                 |
| \\      /  F ield         | OpenFOAM: The Open Source CFD Toolbox           |
|  \\    /   O peration     | Version:  2406                                  |
|   \\  /    A nd           | Website:  www.openfoam.com                      |
|    \\/     M anipulation  |                                                 |
\*---------------------------------------------------------------------------*/
FoamFile
{
    version     2.0;
    format      ascii;
    arch        "LSB;label=32;scalar=64";
    class       volScalarField;
    location    "4";
    object      epsilon;
}
// * * * * * * * * * * * * * * * * * * * * * * * * * * * * * * * * * * * * * //

dimensions      [0 2 -3 0 0 0 0];

internalField   nonuniform List<scalar> 
59516
(
0.0198701
0.0223965
0.0143925
0.0119027
0.00964955
0.267705
0.0132344
0.0210694
0.0161197
0.0821658
0.00968971
0.0793165
0.0174263
0.688983
0.0655091
0.085727
0.00969052
0.0814606
0.0183621
0.00977246
0.123859
0.0104173
0.0101781
0.17192
0.0100806
0.061207
0.17753
0.145355
0.0600396
0.518374
0.0346978
0.135492
0.0117492
0.015674
0.0110373
0.0114241
0.499521
0.0821804
0.0326121
0.0103703
0.0240792
0.0100586
0.0107663
0.0195888
0.0110705
0.0965075
0.0129209
0.00972721
0.0106756
0.00985032
0.0209676
0.125413
0.0153566
0.0138282
0.111336
0.0140508
0.00975569
0.121433
0.00975652
0.0113031
0.0102948
0.318035
0.00974317
0.00967643
0.0152637
0.0102799
0.376395
0.140593
0.0128411
0.011264
0.184747
0.009789
0.344638
0.0114843
0.00974761
0.00997473
0.00978119
0.0104651
0.124027
0.00995162
0.146986
0.0101527
0.0111773
0.42912
0.0102571
0.00964427
0.180288
0.0106738
0.0817686
0.0271809
0.00965171
0.0110972
0.00964313
0.0108367
0.00980354
0.00989472
0.0104904
0.0889136
0.0724942
0.010576
0.156834
0.368572
0.345301
0.0791771
0.0120458
0.0105618
0.132413
0.0162602
0.0210225
0.0621909
0.0126066
0.185176
0.0662106
0.0204848
0.0101015
0.0237139
0.0786917
0.0114249
0.296211
0.0105598
0.00960047
0.00981382
0.01003
0.00979424
0.0107336
0.0326914
0.284898
0.0108591
0.105364
0.00967043
0.00971992
0.0184734
0.318073
0.0106474
0.0265463
0.0147434
0.030937
0.0129534
0.161924
0.0255501
0.120322
0.00967564
0.494623
0.0121656
0.00964371
0.0109458
0.0112189
0.0159892
0.372557
0.019318
0.029858
0.168299
0.00971618
0.01045
0.0283252
0.551443
0.0155828
0.0152995
0.0356339
0.465223
0.049122
0.0468353
0.181687
0.492269
0.0243457
0.009737
0.0713656
0.00961166
0.41271
0.0116184
0.0331419
0.102239
0.0510652
0.0110151
0.134291
0.0127496
0.00975307
0.0104046
0.0564199
0.170415
0.0105737
0.239408
0.429377
0.0755775
0.00965503
0.0809405
0.2091
0.491594
0.013408
0.0269421
0.011754
0.10654
0.0100295
0.0845286
0.0101692
0.234402
0.0994483
0.164726
0.0174782
0.0103595
0.0359853
0.00968542
0.024781
0.494554
0.0129354
0.01108
0.00956938
0.0100974
0.446267
0.0170511
0.104598
0.367744
0.0107949
0.093271
0.015808
0.00972742
0.0112154
0.0101071
0.0876646
0.0100085
0.0871336
0.0212622
0.00982079
0.146291
0.00974047
0.00969172
0.204398
0.127425
0.00972597
0.0903134
0.00965698
0.00975408
0.00966328
0.289288
0.20992
0.18545
0.0829549
0.0202859
0.00987835
0.097908
0.00969667
0.42565
0.0945045
0.376229
0.00969592
0.0313777
0.0105296
0.0604031
0.00969386
0.0184107
0.00993686
0.011033
0.00971385
0.010518
0.0107123
0.0101434
0.114999
0.00999537
0.11869
0.0714583
0.0122027
0.00994272
0.0179669
0.00964565
0.0196549
0.0982057
0.00996487
0.0318797
0.102837
0.111369
0.0255934
0.00974204
0.0294734
0.028263
0.00980754
0.0307462
0.32873
0.00988278
0.264453
0.15608
0.00961954
0.0111419
0.312048
0.014974
0.0131457
0.00989868
0.00968072
0.285905
0.00966193
0.00972143
0.00964063
0.01167
0.0107284
0.0280773
0.00966355
0.166918
0.00989492
0.0107664
0.00963293
0.00971392
0.0154867
0.0832053
0.299265
0.186175
0.00989198
0.434822
0.0764174
0.101173
0.00972211
0.00970189
0.0102194
0.0741394
0.0218099
0.161027
0.106791
0.00982984
0.0269748
0.0101407
0.0318052
0.176317
0.0668613
0.0207675
0.00977325
0.00961945
0.00968582
0.00996677
0.0331346
0.0130294
0.00968911
0.00992937
0.00982333
0.0759285
0.354562
0.01035
0.144442
0.187611
0.00972614
0.0106424
0.0789931
0.00965938
0.00987389
0.00965823
0.00972755
0.195179
0.0101724
0.0096824
0.0989192
0.00964994
0.00971376
0.0117472
0.0132214
0.0101419
0.0105646
0.0514226
0.204644
0.168179
0.0298493
0.0672224
0.145445
0.040214
0.0173534
0.0143158
0.00970937
0.0101289
0.0119349
0.0102521
0.0102939
0.172162
0.0263534
0.0899324
0.156814
0.16995
0.00990938
0.0277745
0.00999877
0.387713
0.0125792
0.152928
0.00982942
0.124014
0.071254
0.0194083
0.0097428
0.418036
0.0841486
0.0115334
0.261731
0.0126329
0.0157928
0.0122015
0.0306536
0.0248918
0.00996823
0.0942105
0.00969113
0.0226057
0.0785983
0.0662671
0.00962514
0.00963163
0.0924928
0.0130625
0.0232803
0.00959834
0.00960888
0.127491
0.0122891
0.0109514
0.0105546
0.00994042
0.401051
0.370712
0.0121254
0.009679
0.0096823
0.157644
0.00984374
0.0215899
0.00975519
0.00967188
0.00962996
0.00973762
0.00976118
0.0275109
0.0097266
0.0602013
0.0097788
0.019738
0.0101019
0.00969839
0.0106077
0.0105744
0.157159
0.192587
0.362635
0.00974511
0.00960203
0.0111198
0.0128246
0.20447
0.339997
0.0150422
0.0102763
0.00964755
0.0101805
0.0117841
0.00959197
0.0120682
0.220665
0.0132321
0.0720977
0.161137
0.0100477
0.0279599
0.0109748
0.407951
0.00976865
0.00959408
0.00970277
0.0312099
0.0101433
0.0096923
0.0151662
0.00965885
0.0271324
0.00974603
0.0102344
0.363808
0.00971603
0.014496
0.122199
0.0260797
0.00966312
0.0125625
0.0340434
0.403035
0.00981041
0.0130002
0.00991034
0.0135638
0.189581
0.0109569
0.343171
0.00995534
0.015237
0.00981716
0.112212
0.0176703
0.0231019
0.174769
0.00962996
0.00972321
0.372832
0.00981956
0.00973266
0.153145
0.0587659
0.0912453
0.0100481
0.00965151
0.404675
0.090294
0.0948922
0.0156488
0.00964114
0.301842
0.0099854
0.0101595
0.00966362
0.115245
0.00968578
0.321454
0.00987013
0.397785
0.0788017
0.0101329
0.0792859
0.429047
0.166107
0.105342
0.0892993
0.0104143
0.0949893
0.0698601
0.0100397
0.00973546
0.232369
0.0201554
0.0920094
0.00975537
0.0946327
0.00978639
0.0882473
0.0130737
0.0097756
0.0930613
0.00968881
0.163899
0.51417
0.0104135
0.00973938
0.0117881
0.0128918
0.00959998
0.0745852
0.00977429
0.0820916
0.00977223
0.0141498
0.261946
0.0102709
0.107141
0.243997
0.0105901
0.162032
0.0115857
0.00971487
0.0134705
0.0953311
0.00969683
0.0350649
0.00960166
0.00971871
0.00969907
0.0097525
0.132237
0.0979417
0.00971045
0.00984852
0.199857
0.00987798
0.0095931
0.00963479
0.00962237
0.0163937
0.410761
0.00965317
0.022282
0.010005
0.0241603
0.222425
0.00974104
0.0297907
0.0114449
0.00964898
0.0108196
0.503002
0.360093
0.00967843
0.00980405
0.0096963
0.0102238
0.0355585
0.0103483
0.00972693
0.326473
0.00969164
0.0106326
0.155497
0.0679572
0.0112672
0.0109484
0.0115978
0.0136652
0.0205489
0.00953884
0.0270687
0.00968398
0.00976138
0.00962795
0.00969391
0.136364
0.00981919
0.215467
0.112591
0.0664109
0.00976214
0.0118097
0.0198122
0.00973227
0.00971473
0.0103565
0.00967381
0.189486
0.0102376
0.0105095
0.00965507
0.0139319
0.0107125
0.00973016
0.0184946
0.187699
0.101956
0.211136
0.339179
0.247049
0.0122893
0.0114567
0.397508
0.360248
0.0096569
0.0688457
0.161083
0.0103619
0.0168946
0.0114151
0.167595
0.0964797
0.0151613
0.00971262
0.0106206
0.164104
0.307333
0.0478556
0.288525
0.0123196
0.275192
0.01944
0.00967907
0.00957444
0.156209
0.0230211
0.205227
0.31616
0.0096692
0.453463
0.0097544
0.112046
0.00994676
0.0106744
0.418593
0.0936329
0.0103014
0.173394
0.00979781
0.0928489
0.0208939
0.00963142
0.192191
0.359432
0.123838
0.0129547
0.0206344
0.0982657
0.0464875
0.23731
0.00963389
0.233431
0.00975879
0.0109125
0.00981743
0.511596
0.0107092
0.0363743
0.0101312
0.0990668
0.0113443
0.0100475
0.19051
0.00961629
0.0182109
0.0139703
0.206638
0.0908688
0.00966209
0.0126615
0.205572
0.0175129
0.0836893
0.285128
0.00964676
0.0107274
0.0131853
0.00968123
0.00966802
0.00964435
0.0133669
0.127626
0.15692
0.00966263
0.0107992
0.0152077
0.0124498
0.0477058
0.0106844
0.00986642
0.0244998
0.0230734
0.160935
0.0347775
0.148338
0.010171
0.00966684
0.0307637
0.0245754
0.430376
0.0410711
0.0879444
0.00968516
0.00966751
0.0109285
0.00993796
0.0394493
0.0143212
0.0123244
0.309506
0.00965442
0.127346
0.0110641
0.311792
0.00982417
0.0103391
0.0100799
0.0168291
0.0104195
0.0102641
0.0096638
0.164985
0.0995223
0.25515
0.00974214
0.0100827
0.0114902
0.0099976
0.582002
0.0280297
0.0317987
0.00970462
0.0123657
0.0104391
0.0227459
0.00971802
0.377214
0.029797
0.0100003
0.219107
0.148827
0.0666765
0.395493
0.0300922
0.0097198
0.0644457
0.444026
0.0191113
0.197009
0.0239728
0.00963649
0.00962531
0.00970586
0.00987703
0.00963829
0.0150798
0.164388
0.00973944
0.0125405
0.037361
0.0282577
0.00975773
0.0170551
0.0616431
0.0102357
0.180043
0.0335932
0.0239796
0.0652443
0.0101199
0.0356815
0.0139828
0.193097
0.316381
0.0798505
0.374218
0.0126105
0.0100186
0.0123207
0.0242766
0.0113698
0.0101501
0.374412
0.0099884
0.00970414
0.154574
0.342395
0.0145241
0.0197887
0.304354
0.00991175
0.327562
0.00966911
0.0101943
0.0130882
0.0100195
0.00997624
0.024871
0.00966676
0.50294
0.187973
0.0214459
0.0207426
0.486322
0.0104824
0.0100156
0.00957322
0.00973945
0.0391137
0.0100118
0.00964171
0.0305741
0.10617
0.0097508
0.0244869
0.14648
0.00982954
0.00976847
0.00997209
0.0289987
0.0129956
0.019964
0.0336713
0.0189043
0.0254755
0.0126316
0.0814898
0.00999547
0.00962753
0.00987431
0.0112332
0.0172382
0.0133511
0.165283
0.0951475
0.0135234
0.0109898
0.0119419
0.00966761
0.0101789
0.00958724
0.00953086
0.386601
0.0163537
0.00960975
0.333019
0.0112998
0.0101674
0.220745
0.0102243
0.00969312
0.0214385
0.00967561
0.00968851
0.00964435
0.0712664
0.0102302
0.142916
0.0213054
0.0097256
0.279401
0.0959693
0.0925504
0.0154637
0.151552
0.0101017
0.00963354
0.00974264
0.0100929
0.0354373
0.0891833
0.00996249
0.00989688
0.0155437
0.0329262
0.0100726
0.00974891
0.00968463
0.175899
0.00969136
0.0291824
0.0382085
0.169033
0.0791516
0.0326153
0.00965447
0.127556
0.00972509
0.00974282
0.00981484
0.00965006
0.0097545
0.00966093
0.00958852
0.00961354
0.0099623
0.0114086
0.0151863
0.163589
0.0969635
0.00985047
0.0124589
0.152813
0.00981636
0.0178715
0.00967872
0.00968962
0.00969433
0.0102296
0.026786
0.00967872
0.201568
0.0255001
0.00966959
0.0715427
0.00971616
0.187588
0.0394809
0.00989289
0.054156
0.160631
0.00992598
0.00996882
0.0104219
0.190006
0.00978141
0.19708
0.0290714
0.0597465
0.063152
0.0289726
0.0096453
0.0711616
0.0101607
0.00987502
0.0173946
0.00962446
0.009628
0.0163132
0.00952318
0.009603
0.0694039
0.00964699
0.109926
0.176514
0.00989184
0.00993715
0.168057
0.00968187
0.0195228
0.0418737
0.00980525
0.39201
0.00973429
0.00966883
0.0153932
0.278026
0.1209
0.0230533
0.122017
0.0116355
0.0126919
0.0258309
0.422158
0.0205054
0.00980319
0.0099655
0.00974332
0.00965398
0.0323647
0.00991191
0.00962951
0.0202931
0.0109207
0.189295
0.0144735
0.00997656
0.00971221
0.0739953
0.00989254
0.0342407
0.0171325
0.352012
0.0135398
0.0331636
0.153275
0.0125773
0.149659
0.00986305
0.0206288
0.00963561
0.111718
0.00966462
0.0257388
0.0873647
0.0289306
0.0109223
0.350221
0.00979881
0.0101886
0.104564
0.516303
0.144037
0.00961987
0.0104915
0.00979417
0.0285029
0.12045
0.0105854
0.254946
0.0176483
0.00968012
0.0107218
0.0975265
0.0109682
0.316209
0.0352521
0.0102066
0.0096441
0.189072
0.0100937
0.0141211
0.186467
0.00987675
0.00999654
0.00953723
0.0105266
0.0235592
0.179282
0.00980525
0.0104008
0.355129
0.163115
0.116336
0.00973631
0.0298648
0.00978352
0.100059
0.00968757
0.270347
0.0115904
0.0145293
0.00968251
0.00966183
0.0119445
0.0107862
0.252183
0.17739
0.010242
0.0113233
0.291696
0.251422
0.00976362
0.0102129
0.00976995
0.0197307
0.0112674
0.00977236
0.00976443
0.0822596
0.032064
0.0767271
0.0108562
0.0389697
0.204899
0.251646
0.00964157
0.019779
0.0235638
0.00994005
0.0098349
0.245048
0.0097212
0.00969882
0.153963
0.371948
0.00974029
0.00960395
0.225053
0.553855
0.00962799
0.0238715
0.351467
0.0503172
0.00965025
0.00967972
0.00967527
0.0114882
0.00984555
0.320475
0.191296
0.00961658
0.00965824
0.0193206
0.0101824
0.0959125
0.0904494
0.116901
0.0103203
0.474881
0.0100925
0.0110702
0.0308568
0.0763246
0.381013
0.00963769
0.00963161
0.0147853
0.0095617
0.0205722
0.010411
0.136252
0.0744141
0.334726
0.0202552
0.0107886
0.0226985
0.0901591
0.0335701
0.0148478
0.0105838
0.0322014
0.0100702
0.00967521
0.0203815
0.0936948
0.343254
0.00980279
0.238568
0.0147997
0.0136909
0.0315223
0.360092
0.0108656
0.0687352
0.465312
0.398185
0.0116699
0.00967196
0.0125386
0.0122597
0.0346148
0.0195432
0.218987
0.184708
0.161103
0.00964465
0.0231819
0.0105446
0.0191018
0.0180023
0.0116573
0.351633
0.0139969
0.378262
0.00984941
0.0196078
0.285486
0.00968458
0.023037
0.0120805
0.0307162
0.095904
0.261342
0.010732
0.149686
0.00971103
0.00970217
0.0138816
0.0578093
0.229111
0.00978832
0.150968
0.00978338
0.00975311
0.00961172
0.07649
0.00989289
0.00980394
0.00991219
0.00979488
0.277689
0.137428
0.0096588
0.0209681
0.0734475
0.00966104
0.0138236
0.0123937
0.0298132
0.234599
0.369032
0.108969
0.00983283
0.00976156
0.0143296
0.316095
0.188239
0.0104019
0.0144527
0.0663178
0.0096719
0.00994572
0.00978019
0.00978915
0.00965677
0.0101062
0.0111851
0.0171385
0.0150139
0.0158791
0.0445243
0.0825365
0.00961928
0.0117164
0.173007
0.0927834
0.00969445
0.113931
0.0104379
0.0255269
0.00976844
0.0103391
0.0163217
0.00960079
0.00966262
0.00981581
0.126548
0.227886
0.00967061
0.00958302
0.340784
0.0317685
0.0140236
0.00968507
0.0111806
0.519342
0.0185404
0.0111658
0.0413109
0.00960219
0.0159525
0.362071
0.0135651
0.301846
0.0327752
0.478586
0.00998974
0.0102054
0.00967481
0.380875
0.0864386
0.0377338
0.0100461
0.108682
0.0969167
0.0310331
0.00971606
0.181238
0.00958803
0.0103779
0.065955
0.0678496
0.212382
0.00981303
0.00956223
0.0105116
0.0133296
0.0224289
0.0238974
0.0262135
0.266341
0.22583
0.240863
0.0313716
0.00968539
0.206956
0.542579
0.100006
0.339288
0.0100853
0.298331
0.00974181
0.00969845
0.0109407
0.0685969
0.0097166
0.186919
0.0621681
0.00961445
0.00987447
0.014251
0.0100822
0.00984657
0.368606
0.0125148
0.0100226
0.00977525
0.0312349
0.0100668
0.00959811
0.0224769
0.136678
0.235356
0.0200315
0.00966882
0.198799
0.0313592
0.0098344
0.168698
0.234702
0.0224931
0.0939494
0.0556491
0.436847
0.119487
0.170623
0.409478
0.192182
0.418607
0.0189075
0.0398979
0.00962198
0.430221
0.00971814
0.0123344
0.010386
0.0173564
0.0099474
0.190906
0.00992478
0.0101995
0.0276317
0.00968275
0.0131991
0.528651
0.0144722
0.0344349
0.316311
0.221058
0.0113874
0.0269745
0.342806
0.0102854
0.0112695
0.0096421
0.00978979
0.134662
0.0149413
0.0314997
0.0100386
0.0113404
0.0111806
0.0096935
0.0272721
0.010024
0.012355
0.00983454
0.0207167
0.0202459
0.0150098
0.031911
0.00973198
0.0111958
0.109088
0.0110812
0.111689
0.271967
0.0914505
0.0111044
0.0107565
0.00959942
0.00999508
0.0153632
0.04302
0.0174942
0.42882
0.329305
0.174435
0.0778299
0.161045
0.00982722
0.150754
0.0165386
0.22571
0.276139
0.00974112
0.0824718
0.00987861
0.0138981
0.00962236
0.18229
0.135305
0.0133206
0.0104041
0.378056
0.0126895
0.0743528
0.0215333
0.00968288
0.010359
0.00967258
0.0217025
0.0243263
0.0300422
0.0880728
0.181335
0.113483
0.231919
0.0186672
0.009868
0.0519709
0.0865645
0.0267977
0.0107944
0.00989854
0.0895296
0.012248
0.341914
0.0601853
0.0103456
0.136511
0.0359057
0.0258328
0.0148901
0.0256335
0.0104264
0.029223
0.0234256
0.009773
0.0175036
0.00979284
0.36101
0.403971
0.0145489
0.0235558
0.0103358
0.0208255
0.0229285
0.432728
0.0115164
0.0137143
0.0104258
0.0327505
0.136121
0.0838706
0.122757
0.0136401
0.0672749
0.0210451
0.363993
0.014495
0.151054
0.0368707
0.0097063
0.0883974
0.0102471
0.00989393
0.158128
0.317341
0.0156791
0.343316
0.0101445
0.00973992
0.0403884
0.0101574
0.0209885
0.0156993
0.303694
0.0185051
0.0143661
0.00965337
0.512992
0.0098891
0.0126713
0.0395402
0.0124635
0.172357
0.00980701
0.290248
0.0101395
0.0142254
0.0106391
0.0126684
0.15924
0.356216
0.00968692
0.00967679
0.162835
0.0178054
0.213683
0.0151127
0.0766797
0.368846
0.0236428
0.0102446
0.0345819
0.00956025
0.0151245
0.0120879
0.183286
0.00959707
0.303778
0.0486365
0.00960459
0.00958903
0.0123116
0.3323
0.136012
0.00967468
0.00969095
0.0101614
0.0106439
0.0100176
0.490079
0.0120439
0.0104841
0.0121952
0.0862116
0.0133144
0.00970666
0.0116901
0.00976145
0.00971071
0.0925274
0.0103132
0.139447
0.0100175
0.027426
0.0111465
0.010349
0.00970388
0.00957983
0.175756
0.00967739
0.0883711
0.309938
0.0126506
0.126536
0.0100421
0.420477
0.132268
0.116488
0.0333429
0.0122869
0.214409
0.267029
0.0112152
0.0257623
0.00965918
0.0201658
0.441498
0.0353501
0.154503
0.017108
0.00993541
0.0784151
0.0100598
0.00971027
0.00992622
0.00980147
0.00972313
0.0100407
0.00971569
0.0108669
0.16586
0.508066
0.0111156
0.446731
0.0172535
0.0154837
0.0398425
0.00963632
0.0139123
0.166889
0.00957256
0.128813
0.029205
0.100974
0.012171
0.00964307
0.0522466
0.0202895
0.141708
0.0132097
0.0147119
0.0329933
0.0105508
0.514722
0.327054
0.00966614
0.0139536
0.00973049
0.0222732
0.484243
0.009732
0.064278
0.0095934
0.00992401
0.198029
0.0102502
0.00976742
0.185053
0.173923
0.00964301
0.0244729
0.334133
0.0102602
0.112456
0.310491
0.0285146
0.00959049
0.00969364
0.0102826
0.00971686
0.0108453
0.00958217
0.0182274
0.0194974
0.00968212
0.0106766
0.402242
0.172287
0.0137164
0.00970593
0.0176274
0.36692
0.292801
0.0106172
0.198733
0.0106257
0.0097147
0.0096162
0.152184
0.0403236
0.00959435
0.0144135
0.0101907
0.0113017
0.0896332
0.263778
0.00975683
0.306636
0.0852346
0.210935
0.140477
0.00979661
0.00967358
0.0107882
0.0180759
0.0291514
0.0245361
0.00974359
0.0101398
0.105504
0.00956861
0.00978785
0.00989573
0.257029
0.0150814
0.276646
0.0297472
0.143819
0.00994871
0.0109864
0.010763
0.258076
0.0361621
0.0679622
0.499453
0.0102289
0.336445
0.0919587
0.00967826
0.0100329
0.00961563
0.202814
0.0220685
0.0957438
0.00965499
0.00989191
0.00974297
0.00960941
0.148253
0.0109695
0.0150376
0.0096706
0.00980221
0.00970444
0.00986311
0.00968857
0.413831
0.171216
0.0175458
0.00963212
0.0104796
0.144239
0.00966177
0.0781237
0.0141097
0.0116123
0.0344298
0.0582423
0.0840553
0.457217
0.0101836
0.0114203
0.0844134
0.0146344
0.43763
0.00996424
0.00960646
0.36185
0.0166873
0.0151432
0.00986977
0.122141
0.379916
0.1973
0.065815
0.075772
0.320221
0.2782
0.303147
0.0327696
0.00981822
0.0107732
0.00995718
0.0137357
0.42789
0.0100985
0.0141232
0.492981
0.514705
0.309806
0.0278903
0.203908
0.00995023
0.0108031
0.00967049
0.0102804
0.162001
0.0337804
0.0101067
0.00976791
0.0105629
0.00994725
0.0096844
0.098
0.021559
0.0104097
0.00984382
0.601929
0.0144517
0.0209378
0.013646
0.0171811
0.00961402
0.084821
0.215429
0.377513
0.0287446
0.00962549
0.00965763
0.0100282
0.0983533
0.0203917
0.104104
0.0218701
0.00973419
0.167627
0.0957473
0.00966154
0.0103564
0.0100471
0.00985286
0.0322487
0.0641167
0.0104773
0.0221276
0.0143877
0.0109742
0.0115915
0.00973105
0.0419844
0.011054
0.465147
0.218082
0.379038
0.0287464
0.0156874
0.0244689
0.117093
0.0109071
0.116717
0.0861233
0.4173
0.0149599
0.00964345
0.00989052
0.389619
0.11956
0.103249
0.357447
0.121781
0.00966309
0.00969582
0.310677
0.182184
0.0793713
0.00964146
0.00970132
0.010785
0.029123
0.0102466
0.0108138
0.0266328
0.167683
0.0096046
0.011167
0.0110379
0.0145067
0.0104828
0.00974154
0.0372358
0.0144934
0.0606419
0.00967417
0.00972118
0.00970542
0.492521
0.00972649
0.348107
0.0100237
0.0101888
0.009833
0.00987545
0.0943126
0.366182
0.0943872
0.00973967
0.00966387
0.0127637
0.009795
0.225666
0.0298375
0.0098674
0.00962886
0.018192
0.200642
0.0131095
0.0178602
0.00973554
0.0097021
0.00977037
0.00964136
0.0105084
0.0109328
0.0270634
0.00986592
0.00973324
0.0103909
0.0298652
0.255485
0.413127
0.0439612
0.0214628
0.00963066
0.00963479
0.299354
0.017137
0.0114335
0.012524
0.0277599
0.00990456
0.0107283
0.011781
0.00958486
0.0199856
0.0117006
0.124649
0.0157569
0.0109154
0.361531
0.0141723
0.0103236
0.0112487
0.0099687
0.0096289
0.240781
0.00981823
0.0339855
0.00966493
0.0466331
0.00968288
0.0140427
0.0297834
0.0149495
0.33186
0.014618
0.144367
0.171796
0.0110583
0.298699
0.00971072
0.00995565
0.00964995
0.114894
0.0239263
0.369319
0.0119522
0.188112
0.0311125
0.00998413
0.0097859
0.00966432
0.0103284
0.0100923
0.00963214
0.0100359
0.00986688
0.0099531
0.14173
0.0257485
0.00969486
0.00962823
0.0749114
0.0104002
0.00973627
0.00968493
0.349408
0.0110789
0.30803
0.00966887
0.311458
0.182889
0.0181441
0.0120811
0.0110535
0.017723
0.269287
0.00977871
0.274405
0.31351
0.0105013
0.0966297
0.0329915
0.0125276
0.0099817
0.405212
0.080893
0.206728
0.00966691
0.0098308
0.0654579
0.0101847
0.031625
0.0828419
0.00965347
0.256971
0.0115037
0.0100548
0.00981231
0.0101852
0.00969004
0.00973055
0.0134412
0.00959691
0.0105853
0.00968358
0.0190989
0.024554
0.00962144
0.0366803
0.0102151
0.0105822
0.0099148
0.0104524
0.00980847
0.0110247
0.144973
0.00997785
0.00966935
0.077991
0.0148293
0.00964837
0.425811
0.00991775
0.00973084
0.0312911
0.0136388
0.121539
0.0182151
0.0096416
0.0102554
0.0265068
0.0956678
0.0802891
0.0130579
0.160415
0.181278
0.322488
0.0114171
0.0097263
0.0096864
0.0116724
0.0106324
0.0107749
0.0738194
0.0188767
0.0096817
0.00965491
0.00966674
0.00972064
0.221923
0.483543
0.389048
0.0597185
0.00991414
0.00974975
0.00963696
0.0316992
0.0100945
0.0099458
0.406788
0.0096696
0.00991779
0.00966909
0.00967102
0.0560148
0.0898656
0.016475
0.145957
0.0101051
0.0105796
0.0221261
0.0100906
0.0313633
0.070651
0.0246236
0.00962319
0.0333032
0.0139896
0.00965521
0.014007
0.164301
0.00978143
0.00962287
0.0935034
0.159894
0.0309767
0.121904
0.00968909
0.0133088
0.112557
0.00974749
0.00959488
0.00975818
0.0131677
0.00985565
0.00993773
0.00982815
0.0112816
0.0351178
0.010466
0.0580346
0.0485033
0.0879856
0.00970215
0.0170144
0.00979432
0.0117604
0.0286351
0.0226366
0.404302
0.0225517
0.42691
0.033833
0.0108305
0.0106878
0.00983528
0.0104153
0.191955
0.142121
0.00975655
0.0463351
0.0998032
0.0135339
0.140229
0.00963642
0.0119936
0.0101947
0.0152992
0.00989271
0.0160942
0.00993389
0.181229
0.00972805
0.18579
0.19923
0.064464
0.0117696
0.0140079
0.00963179
0.192237
0.00971965
0.0103729
0.0198601
0.0358834
0.0333366
0.175062
0.110971
0.161383
0.0690544
0.00960062
0.104201
0.0101499
0.0791755
0.465677
0.0283572
0.164029
0.463341
0.375879
0.0108932
0.0159184
0.00970789
0.0728353
0.00961622
0.150967
0.0173371
0.0857675
0.0102982
0.00992291
0.428075
0.0116437
0.00991288
0.00997127
0.0111104
0.0132039
0.00972177
0.00998045
0.00968718
0.0113067
0.233361
0.0350488
0.103975
0.0102796
0.237649
0.0314359
0.0101734
0.0421751
0.0210269
0.442632
0.0142373
0.0187148
0.00963616
0.01179
0.00973826
0.0112892
0.00968382
0.013069
0.00956805
0.0815903
0.0959138
0.010289
0.00982018
0.0112481
0.0104405
0.00978368
0.0100382
0.0107163
0.192359
0.0103804
0.00969314
0.150976
0.0140853
0.169348
0.0119028
0.0574638
0.157666
0.0103178
0.160432
0.238519
0.361392
0.209098
0.176009
0.00974424
0.0136873
0.00960333
0.012773
0.0728266
0.00983384
0.00961007
0.00979994
0.374723
0.0111119
0.0204988
0.0173145
0.01003
0.328431
0.208599
0.0111133
0.234786
0.00967802
0.127816
0.012546
0.0565077
0.00967487
0.00967495
0.00991885
0.161076
0.381969
0.160102
0.0101325
0.0779937
0.580989
0.0153497
0.0324759
0.300235
0.0227091
0.152942
0.0132948
0.0108879
0.00968593
0.0100376
0.545064
0.0174544
0.290817
0.00959743
0.0102084
0.0150784
0.00999728
0.0292802
0.0187179
0.253934
0.0106462
0.0213254
0.00969813
0.0096026
0.0855549
0.413245
0.00972408
0.00992478
0.00968978
0.0651216
0.0112048
0.323478
0.198154
0.135627
0.00974447
0.221757
0.0173593
0.388369
0.12726
0.010762
0.0974431
0.194117
0.178667
0.0103283
0.0100189
0.00969722
0.0993185
0.0114598
0.00977664
0.0187045
0.0147607
0.010113
0.00974796
0.00970618
0.29342
0.0101118
0.015444
0.0579812
0.219592
0.00970717
0.00969009
0.0255741
0.0101924
0.489319
0.018077
0.0128631
0.393756
0.0100066
0.00977922
0.0109728
0.111372
0.00961361
0.10121
0.0096033
0.082424
0.428357
0.00959108
0.00986927
0.0694723
0.0104188
0.00976406
0.00970048
0.00973035
0.0760632
0.259746
0.00968165
0.0106675
0.0113069
0.00985375
0.0885645
0.0113269
0.0833562
0.0741419
0.00997187
0.00972035
0.0229167
0.010129
0.0148636
0.15863
0.100997
0.00959802
0.0100519
0.129957
0.202398
0.0345134
0.0106408
0.0107101
0.371172
0.0343896
0.0099229
0.00967618
0.00986397
0.0103842
0.0173418
0.00964931
0.0106428
0.0097064
0.0317433
0.290147
0.371344
0.0136441
0.0241197
0.010176
0.0100215
0.00969736
0.00978675
0.00965921
0.00980738
0.0104199
0.00969825
0.020301
0.00987955
0.00983324
0.0253631
0.00983986
0.0313233
0.261572
0.0140324
0.011329
0.0120064
0.0149023
0.0133698
0.0273109
0.125802
0.0108891
0.00990507
0.0105363
0.0148817
0.238001
0.00983903
0.0200666
0.360234
0.0110393
0.191015
0.015845
0.0103954
0.0108897
0.0120073
0.0183212
0.167929
0.309513
0.200916
0.00956575
0.123706
0.0100587
0.00983354
0.149593
0.00961644
0.0239071
0.00958515
0.0142025
0.0147534
0.046238
0.00959434
0.00968067
0.437038
0.00986391
0.160182
0.504048
0.0108441
0.0704919
0.00975173
0.00979001
0.00961459
0.0228768
0.0347238
0.011024
0.00986462
0.0112555
0.12437
0.207959
0.0141978
0.0104191
0.0172429
0.00962852
0.0370889
0.0229865
0.0100552
0.00979511
0.00995128
0.0278612
0.0175787
0.0305597
0.012584
0.0107792
0.0176636
0.0214441
0.168486
0.0104257
0.0114696
0.010228
0.00975403
0.0111362
0.00955823
0.160379
0.0150029
0.0578673
0.129503
0.0102023
0.0445559
0.00964576
0.00973691
0.0116367
0.390724
0.0285522
0.0102003
0.00970438
0.084657
0.00981879
0.0370787
0.013403
0.0430663
0.0186116
0.0105429
0.00992072
0.421539
0.01135
0.00974165
0.00988511
0.0282824
0.010692
0.00991121
0.147647
0.0096338
0.138553
0.0111314
0.00969406
0.00977979
0.0147534
0.0301386
0.0419482
0.108639
0.250876
0.00970859
0.00971464
0.180096
0.167477
0.0109456
0.0113176
0.0838891
0.0194541
0.0116478
0.0114381
0.0105682
0.420367
0.0102286
0.0228053
0.14684
0.00971243
0.0867894
0.0326485
0.353843
0.134316
0.0341566
0.0971523
0.0131218
0.0813643
0.0148341
0.191793
0.251334
0.0134749
0.291573
0.0771319
0.0108569
0.297868
0.0105651
0.105049
0.0614301
0.0792649
0.00969607
0.201517
0.176785
0.0116593
0.0101676
0.0131139
0.098742
0.0113032
0.0347714
0.0139604
0.0622069
0.0262299
0.00963654
0.0267287
0.00976858
0.0106096
0.0128198
0.00972309
0.456643
0.0129907
0.0170377
0.0103555
0.215927
0.016154
0.487654
0.0264498
0.0290319
0.00966356
0.00992919
0.0195993
0.0104058
0.0148434
0.00955447
0.00984317
0.0364234
0.00969221
0.061117
0.00995656
0.0118275
0.0845292
0.0109427
0.0620181
0.00971865
0.0102096
0.0713083
0.0122928
0.0148405
0.379429
0.0099736
0.313775
0.140489
0.0183398
0.0101275
0.011182
0.170877
0.00968642
0.00990686
0.0256792
0.0826473
0.0316712
0.198906
0.0105957
0.0287427
0.0116472
0.0253291
0.00971006
0.0106921
0.217423
0.0113371
0.00971112
0.0288104
0.580641
0.0765038
0.0107652
0.0787009
0.0328593
0.0678772
0.0108591
0.0301551
0.083815
0.108865
0.00971636
0.351602
0.0100989
0.190874
0.00976471
0.0232708
0.0100781
0.160393
0.0107513
0.00967804
0.00982295
0.00970599
0.0216469
0.419475
0.406444
0.0192482
0.577705
0.00988499
0.17424
0.00966824
0.010646
0.0138722
0.00990978
0.220905
0.068232
0.0865457
0.0103485
0.20376
0.0104905
0.0302054
0.011368
0.0815426
0.181046
0.212973
0.00997753
0.0819713
0.00987706
0.0146032
0.013603
0.110786
0.117128
0.0169382
0.0202971
0.0945917
0.00967821
0.00994817
0.0377193
0.0262733
0.0106902
0.00994829
0.00973041
0.00965858
0.00975174
0.0204434
0.0451013
0.00975476
0.500227
0.227004
0.0122752
0.0102311
0.00964414
0.213605
0.132264
0.00970004
0.0245962
0.00962066
0.171449
0.0096547
0.00965719
0.00999232
0.0764391
0.0405449
0.238872
0.36027
0.0163411
0.415716
0.0127443
0.125955
0.0138268
0.0118894
0.00981595
0.276474
0.530284
0.00983921
0.0125722
0.171896
0.0100596
0.00990879
0.175081
0.395575
0.438731
0.20189
0.0418296
0.36891
0.0282135
0.00962066
0.176529
0.310942
0.0156658
0.0103135
0.00970955
0.0103297
0.0227209
0.555767
0.00963098
0.178426
0.00978607
0.190647
0.0208715
0.0132176
0.0227275
0.0170031
0.324478
0.00967104
0.00977952
0.00960526
0.358409
0.0151441
0.0995601
0.0229742
0.0584689
0.287939
0.0187691
0.0167197
0.0159122
0.0412856
0.0110128
0.109574
0.213143
0.128988
0.0134023
0.0190799
0.0136497
0.21923
0.0159806
0.308233
0.50187
0.0112774
0.00968081
0.123403
0.14805
0.0327423
0.00974234
0.0157094
0.00999053
0.013328
0.0116985
0.0100876
0.0106175
0.00957907
0.0897668
0.390759
0.0134452
0.00968136
0.00965643
0.0224663
0.491194
0.0309358
0.00978489
0.113619
0.0252802
0.0164472
0.0197267
0.00969106
0.0102361
0.00962886
0.219012
0.011684
0.0097836
0.0101331
0.00972657
0.0138703
0.098113
0.00972752
0.0225593
0.407428
0.00966263
0.00963469
0.0177675
0.035855
0.0103269
0.00987497
0.0113784
0.00963281
0.0145303
0.0281042
0.167338
0.0928714
0.00996583
0.0118914
0.0097015
0.0123667
0.167626
0.176541
0.142181
0.245447
0.0734876
0.278715
0.00986658
0.318149
0.0124306
0.0402538
0.00966496
0.1767
0.010066
0.132728
0.0098971
0.489057
0.106483
0.0993194
0.00982314
0.00971743
0.0383483
0.0293928
0.40815
0.34843
0.00963675
0.0122928
0.012703
0.00966547
0.00963876
0.0103191
0.0102792
0.00980968
0.0335193
0.0150358
0.067521
0.0791882
0.278917
0.00968798
0.073014
0.377758
0.00969463
0.0815427
0.009867
0.335713
0.0105136
0.00969541
0.0151991
0.021616
0.00992146
0.0113656
0.366485
0.0101443
0.00974148
0.131657
0.156387
0.010783
0.0139394
0.479358
0.0589202
0.00986332
0.00958769
0.0170359
0.00997665
0.015822
0.0154159
0.00964287
0.00966997
0.0272305
0.0109401
0.0217211
0.0261864
0.0101022
0.0142173
0.400946
0.00962154
0.0145798
0.46469
0.0102813
0.0573187
0.0111209
0.410975
0.0103977
0.0187055
0.0121539
0.011226
0.0106161
0.177588
0.0103529
0.0203865
0.0158511
0.338183
0.0104579
0.029773
0.00968642
0.0133228
0.128543
0.194989
0.0116784
0.197077
0.0678704
0.0175037
0.185932
0.415037
0.0276056
0.00976485
0.0118711
0.00976879
0.305835
0.213282
0.449163
0.00979818
0.237452
0.0162198
0.0096081
0.0294764
0.00962972
0.00998462
0.00980403
0.224568
0.0104951
0.0137994