/*--------------------------------*- C++ -*----------------------------------*\
| =========                 |                                                 |
| \\      /  F ield         | OpenFOAM: The Open Source CFD Toolbox           |
|  \\    /   O peration     | Version:  2406                                  |
|   \\  /    A nd           | Website:  www.openfoam.com                      |
|    \\/     M anipulation  |                                                 |
\*---------------------------------------------------------------------------*/
FoamFile
{
    version     2.0;
    format      ascii;
    arch        "LSB;label=32;scalar=64";
    class       volScalarField;
    location    "4";
    object      k;
}
// * * * * * * * * * * * * * * * * * * * * * * * * * * * * * * * * * * * * * //

dimensions      [0 2 -2 0 0 0 0];

internalField   nonuniform List<scalar> 
59516
(
0.00987398
0.0101741
0.00970689
0.00992233
0.00980259
0.0189262
0.00971192
0.00983491
0.00980197
0.0129051
0.00984494
0.0118375
0.00972941
0.0311806
0.0118187
0.0119635
0.00978382
0.0118672
0.00978614
0.00966478
0.0142191
0.00971765
0.00964305
0.01667
0.00980417
0.011494
0.0160437
0.0157389
0.0114494
0.0260078
0.010374
0.0152983
0.00974957
0.0100056
0.00982293
0.00969765
0.0265293
0.0114897
0.0100736
0.00983656
0.00977295
0.0098005
0.00985523
0.0100007
0.00976464
0.0126213
0.00977707
0.00981123
0.010159
0.0098006
0.0102825
0.0140646
0.00967007
0.00968442
0.014821
0.0097511
0.00981158
0.0157397
0.00983418
0.00981135
0.00985861
0.0227019
0.00978715
0.00971519
0.00992532
0.00978173
0.0268015
0.0149933
0.00986393
0.00973213
0.0200889
0.00976713
0.0246447
0.00984857
0.00986581
0.00979286
0.00986029
0.00974498
0.0140934
0.00986195
0.0155952
0.00982525
0.00978957
0.0276054
0.00982648
0.00972799
0.0160144
0.00958195
0.0118606
0.0100298
0.00976263
0.00978708
0.00974613
0.00979145
0.00980194
0.00994095
0.00983578
0.0120345
0.0115154
0.00975615
0.0166311
0.0253975
0.0233347
0.0117918
0.00975392
0.00987551
0.0153614
0.00986164
0.00987599
0.0118033
0.0097654
0.0205478
0.0119405
0.00983464
0.00985952
0.00987087
0.0120226
0.00983356
0.021374
0.00987702
0.00976343
0.00986839
0.00982732
0.0098214
0.00976879
0.0101745
0.0234536
0.00983579
0.0143331
0.00978573
0.00985364
0.00979447
0.0220418
0.009665
0.0100024
0.00971681
0.0102031
0.0096066
0.0164473
0.0100568
0.0150783
0.00982252
0.024696
0.00977784
0.0097724
0.00972959
0.0097408
0.0097571
0.0272852
0.00969451
0.0100293
0.0159776
0.00970225
0.00982341
0.00986177
0.0242197
0.00983623
0.00963019
0.0099774
0.0249666
0.0110255
0.0108986
0.0168243
0.026458
0.00993672
0.0097798
0.0121628
0.00974554
0.0228018
0.00988606
0.00999868
0.0121511
0.0107703
0.00980714
0.0138623
0.00973907
0.00980053
0.00984604
0.0114434
0.0149108
0.00979804
0.017705
0.028986
0.0114436
0.00978418
0.0118011
0.0154011
0.0274777
0.00975174
0.0100663
0.0100187
0.0125729
0.00981356
0.0115332
0.00968049
0.0167459
0.0123432
0.0150064
0.0098899
0.00969108
0.0105693
0.00981898
0.00988767
0.0253219
0.00991655
0.0097841
0.00973012
0.00982753
0.0264776
0.00982124
0.0131645
0.024011
0.00980554
0.0128289
0.00971678
0.00980303
0.00971443
0.00974816
0.0123726
0.00977187
0.0123674
0.00990208
0.00986048
0.0160706
0.00983341
0.00977471
0.019985
0.0141255
0.00980301
0.0123971
0.0097478
0.00984499
0.00980875
0.0215802
0.0176491
0.0151355
0.0115604
0.00977232
0.00970126
0.0134692
0.0098162
0.0259074
0.0121244
0.0253669
0.00981666
0.0101482
0.00977116
0.0116504
0.00974192
0.00966659
0.00984674
0.00978143
0.0098409
0.00971817
0.00978563
0.00977155
0.0131292
0.00973397
0.014183
0.0120021
0.00974645
0.00988735
0.00986566
0.00976001
0.00996366
0.0123096
0.00980809
0.0101655
0.0148539
0.0124412
0.0100167
0.00983564
0.0100607
0.010227
0.00984865
0.00995243
0.0205532
0.00977278
0.0218425
0.015202
0.00976104
0.00974703
0.0234466
0.00973551
0.00967622
0.00995932
0.00982207
0.0233421
0.00978266
0.00983014
0.00974767
0.00976234
0.00977379
0.00991876
0.00974446
0.0187338
0.00974876
0.00981195
0.00978526
0.00976311
0.00979273
0.0121674
0.022029
0.0180506
0.00978936
0.0256517
0.0125722
0.0130613
0.00980026
0.00982823
0.00967277
0.011693
0.00980946
0.0162002
0.0124711
0.00978734
0.0100418
0.00999969
0.010004
0.0156639
0.0121002
0.0099176
0.00988907
0.00977666
0.00983472
0.00986574
0.0103304
0.0098024
0.00974908
0.0097926
0.00980259
0.0116222
0.0229088
0.0097638
0.0149312
0.0161782
0.00971143
0.00985922
0.0117667
0.00975564
0.00991815
0.00981203
0.00982389
0.0161571
0.00972497
0.00979022
0.0126851
0.00978233
0.00982486
0.0097763
0.00970375
0.00972011
0.00980374
0.0107987
0.0174475
0.0164786
0.0100082
0.0116312
0.0163413
0.0103722
0.00979349
0.00982306
0.00985897
0.00971658
0.00966395
0.0097738
0.00983166
0.0154615
0.0102099
0.012541
0.0152384
0.0158334
0.00982817
0.00996447
0.00977488
0.0218116
0.00979113
0.0157553
0.00988354
0.0125644
0.0117371
0.00981446
0.00990185
0.0250438
0.012304
0.0098019
0.0207413
0.00986747
0.00987119
0.00976185
0.0103272
0.0101841
0.00987337
0.012333
0.00984585
0.00989564
0.0124447
0.0123314
0.00975814
0.00977725
0.0118878
0.00967419
0.00992667
0.00974401
0.00975082
0.0150302
0.00976306
0.00968595
0.00974706
0.00975545
0.0278822
0.0234042
0.00974501
0.00982425
0.00982773
0.0153322
0.00990455
0.00972311
0.00988716
0.00980045
0.00977466
0.00984708
0.00985011
0.0099165
0.00986691
0.0113616
0.00977365
0.00985655
0.00980242
0.00981459
0.00971712
0.00972228
0.0150944
0.0168751
0.0217888
0.00983361
0.00975597
0.00970885
0.00981674
0.0171613
0.0220863
0.00978218
0.00975394
0.00977371
0.00976678
0.00971617
0.00972364
0.00968713
0.0200251
0.00983349
0.0116726
0.0169108
0.00981501
0.0102162
0.00978994
0.0248715
0.00993085
0.00973068
0.00984074
0.00995296
0.00984655
0.0097712
0.00977687
0.00980624
0.0100241
0.00983372
0.00973075
0.0234343
0.00985338
0.00976823
0.0145275
0.00988375
0.00969453
0.00966311
0.0101181
0.0245256
0.00992713
0.00973937
0.00978991
0.00981163
0.0156633
0.00974191
0.0230534
0.00988296
0.0102664
0.00988252
0.0144945
0.00983626
0.00987939
0.0151698
0.00983459
0.0098218
0.0239264
0.0097907
0.00984969
0.0160558
0.0112768
0.0121949
0.00979182
0.00977915
0.0268715
0.0123149
0.0125265
0.00976159
0.00977579
0.0223488
0.00970662
0.00981273
0.00981375
0.0146248
0.00971459
0.0223677
0.00976165
0.0256252
0.0115114
0.009826
0.0119419
0.0240654
0.0163546
0.0139894
0.0123696
0.00968127
0.0123108
0.0118766
0.00988815
0.00981567
0.0204759
0.00977145
0.0118911
0.00986235
0.0122608
0.00984167
0.0127216
0.00979899
0.00996897
0.0132309
0.00979539
0.0153247
0.0270831
0.00970538
0.00985342
0.00974131
0.00979113
0.00973888
0.0125292
0.00980726
0.0119211
0.00993269
0.00974088
0.0204245
0.00969677
0.0144358
0.0207366
0.0097598
0.014727
0.00978134
0.00990185
0.00967595
0.012642
0.00983513
0.0101579
0.009748
0.00986065
0.00984628
0.00987379
0.0143897
0.0127447
0.0098455
0.00978845
0.0174298
0.00982364
0.00974593
0.00976111
0.00976472
0.00970986
0.0227573
0.00977214
0.0101118
0.00979301
0.0097579
0.0210266
0.00993633
0.0102962
0.00981417
0.00978077
0.00982622
0.0235808
0.0224058
0.00978242
0.00987047
0.00984154
0.00991984
0.0101889
0.00982655
0.00982974
0.0204782
0.00980935
0.00981015
0.0158354
0.0114713
0.00980192
0.00989
0.00976338
0.00980847
0.00991385
0.00969059
0.0101038
0.00981653
0.00982247
0.00979738
0.00980588
0.0156217
0.00973033
0.0175392
0.0136828
0.0115016
0.00984017
0.00988793
0.0097726
0.00980993
0.00980702
0.00970026
0.00976716
0.0164285
0.0101781
0.00996455
0.0097709
0.00989033
0.00982071
0.0098791
0.00976623
0.0162692
0.0118939
0.0187543
0.0231176
0.0226993
0.00980403
0.00978576
0.0247096
0.0223678
0.00981134
0.0121773
0.0157621
0.00977302
0.00973887
0.00975659
0.0169001
0.0122712
0.00978486
0.00979643
0.00971505
0.0163384
0.0225879
0.011305
0.0233082
0.00971985
0.0218853
0.00998702
0.00983441
0.0097058
0.0149745
0.00989776
0.0161029
0.0245776
0.00979499
0.0241624
0.00978784
0.014608
0.00974437
0.00979444
0.0254
0.0120908
0.00977293
0.0160854
0.00978481
0.0123546
0.00979596
0.0097579
0.0172177
0.0234392
0.0145883
0.0100792
0.00985164
0.01238
0.0101302
0.0170797
0.00975993
0.0214665
0.00979075
0.00987352
0.0098528
0.0272392
0.00971148
0.0100167
0.00970443
0.0129913
0.010149
0.00977022
0.0159231
0.00976521
0.0101217
0.00976204
0.0168892
0.0141041
0.00979464
0.00974458
0.0174619
0.00978757
0.012394
0.0215542
0.00977022
0.0101689
0.00969419
0.00976675
0.00978182
0.00972171
0.00978191
0.0142297
0.0159619
0.00981496
0.0102441
0.00982283
0.00967956
0.0104785
0.00966056
0.00986147
0.0100808
0.009815
0.0169997
0.0106759
0.0168311
0.00977939
0.00977157
0.00991508
0.0098382
0.0239993
0.0102957
0.0124113
0.00980181
0.0097798
0.010249
0.00978392
0.0102342
0.0102387
0.00977614
0.0243415
0.00976721
0.0133308
0.00981818
0.0243691
0.00991541
0.0102225
0.0098019
0.00975427
0.00988002
0.00972232
0.00980016
0.0162802
0.0139964
0.017642
0.00985483
0.00974547
0.00985101
0.00969135
0.0265246
0.0102543
0.0104221
0.00981626
0.00976643
0.00981638
0.0101741
0.00986248
0.0234402
0.0100181
0.00986495
0.0197119
0.0143419
0.0117105
0.0223873
0.0102871
0.00979637
0.0114214
0.0252157
0.00985935
0.0186933
0.0097337
0.00972878
0.00976715
0.00978838
0.00979961
0.00974456
0.00977845
0.0152374
0.00983756
0.00979991
0.0101337
0.0102372
0.00971518
0.00971902
0.0113394
0.0097435
0.0163188
0.0102711
0.00983876
0.0117356
0.00979282
0.0105946
0.00973202
0.0165861
0.024564
0.011547
0.0244522
0.00973935
0.00983524
0.00981812
0.0100133
0.00977466
0.0098276
0.0266312
0.00991283
0.00979004
0.0144812
0.0238875
0.00978143
0.0097102
0.0225769
0.0098286
0.0231886
0.00977998
0.00977538
0.00981333
0.00978474
0.00973612
0.0100056
0.00979914
0.0272411
0.0163873
0.00981256
0.00996009
0.0266755
0.00974241
0.00972671
0.00969725
0.009826
0.0103826
0.0097658
0.00978988
0.010158
0.0147396
0.00980595
0.00984045
0.0162141
0.00974943
0.00988416
0.009838
0.0101312
0.00965951
0.00981274
0.0100273
0.00990637
0.00986616
0.00978923
0.0116889
0.00997359
0.00975652
0.00998941
0.00979479
0.00983237
0.00977698
0.016622
0.0129895
0.00965188
0.00974672
0.0097252
0.009787
0.00970149
0.00972826
0.00968753
0.0255283
0.00981399
0.00974232
0.0247352
0.00975022
0.00979897
0.0168414
0.00984374
0.00979424
0.00977981
0.00978238
0.00982157
0.00974207
0.0118098
0.0101775
0.0154923
0.00974968
0.00981835
0.0213552
0.0123029
0.0123638
0.00980402
0.0145096
0.00974843
0.0097377
0.00984862
0.00989787
0.0103268
0.0139596
0.00977528
0.00978028
0.00976229
0.0102899
0.00982768
0.00986134
0.00984474
0.0169972
0.00981929
0.0101125
0.0104258
0.0166525
0.0116064
0.0100289
0.00976899
0.0131696
0.00976359
0.00980029
0.00982311
0.00977907
0.00981921
0.0098055
0.00970428
0.00973992
0.0100641
0.00971001
0.00969733
0.0162956
0.0122646
0.0097871
0.00976267
0.0159855
0.00978213
0.00982064
0.0098244
0.00983784
0.00984174
0.00984074
0.0100114
0.00982291
0.0212408
0.0100196
0.00982039
0.0118325
0.00984695
0.0159967
0.0103652
0.00997218
0.0111496
0.0154981
0.0099375
0.00991959
0.00976481
0.0162898
0.0099387
0.0167176
0.0100121
0.0109213
0.0111416
0.0101118
0.00978265
0.0117939
0.00981127
0.00987884
0.00982967
0.00976137
0.00977612
0.00977196
0.00968223
0.00972881
0.0119748
0.0097727
0.0142876
0.0166698
0.0099432
0.00987095
0.0197632
0.00983339
0.00993681
0.0100628
0.00994312
0.0266861
0.00976666
0.00976631
0.00981773
0.02365
0.0150036
0.0101981
0.0143386
0.00975338
0.00975944
0.0100536
0.0258992
0.00993502
0.00987032
0.0098663
0.00986777
0.00978863
0.0102589
0.00978323
0.0097551
0.00982563
0.00980144
0.0165136
0.00981779
0.0098049
0.00983309
0.0116412
0.00980371
0.0100806
0.00974979
0.0227128
0.00986919
0.0103479
0.0158314
0.00983014
0.0158447
0.00979154
0.00970944
0.00977055
0.014165
0.00983573
0.00998376
0.0117728
0.0101181
0.00978985
0.0236985
0.00975145
0.00971657
0.0119788
0.0290615
0.0159062
0.0097621
0.00981374
0.00988044
0.010208
0.012628
0.00992455
0.0172627
0.00989432
0.00984527
0.00979449
0.0127278
0.00979781
0.0237952
0.0102412
0.00983393
0.00978475
0.017153
0.00976716
0.00967254
0.0189063
0.00982074
0.00982845
0.00972405
0.00992591
0.00988056
0.0186507
0.00979891
0.00973632
0.0255565
0.0152979
0.0140654
0.00978289
0.010217
0.00976239
0.0122591
0.0098098
0.0205619
0.00977831
0.00975762
0.00969801
0.00977688
0.00971892
0.00984696
0.0179636
0.0165056
0.00991665
0.00977876
0.0225018
0.0222121
0.009776
0.00970379
0.00973255
0.0098618
0.00978661
0.00973152
0.00985613
0.0123622
0.0103535
0.0118563
0.00973239
0.0103642
0.017708
0.0225075
0.00976049
0.00984015
0.00989211
0.00986137
0.00976038
0.017888
0.00971678
0.0098201
0.016479
0.0250397
0.00984859
0.00977372
0.0180624
0.0271775
0.00975232
0.00999091
0.0239185
0.0104649
0.00977986
0.00977233
0.0097917
0.00982546
0.0097586
0.0224836
0.0152579
0.00975017
0.00976164
0.00989238
0.00994105
0.0119025
0.0121547
0.0140133
0.0097898
0.0265982
0.00970529
0.00964818
0.010037
0.0124338
0.02452
0.0097916
0.00976865
0.00977653
0.00969441
0.00991654
0.00973399
0.0162654
0.0122981
0.024168
0.00981615
0.00974823
0.00977168
0.0118332
0.0103101
0.00972905
0.0097915
0.00996703
0.00982943
0.00973676
0.00985046
0.0121848
0.0267874
0.0098086
0.0181082
0.00979615
0.00971837
0.0101118
0.0232472
0.00969883
0.011441
0.0243147
0.023385
0.00987672
0.00981307
0.00982364
0.00983449
0.0101156
0.00988994
0.0169589
0.0156799
0.0168034
0.00978451
0.00975616
0.00974084
0.00999873
0.00984933
0.00976253
0.027015
0.00988913
0.0237182
0.00979043
0.00986377
0.0210792
0.00983551
0.00995316
0.00974565
0.010176
0.0115962
0.0171566
0.00970668
0.0163273
0.00980823
0.00985335
0.00995104
0.0109184
0.0173507
0.00977834
0.0157197
0.00979358
0.00975728
0.00973107
0.0126832
0.00979733
0.00983919
0.00982426
0.00976624
0.0173321
0.0158215
0.00973359
0.00978077
0.0121329
0.00980983
0.00975014
0.00979373
0.0100669
0.0218279
0.0219912
0.0126294
0.00974612
0.00978878
0.0097743
0.0208591
0.0153293
0.00976108
0.0100385
0.0117682
0.00981372
0.00981162
0.00976015
0.00982952
0.00980168
0.00988653
0.00975181
0.00994582
0.00968872
0.00973782
0.0103584
0.0117392
0.00976328
0.00980083
0.0160723
0.0122114
0.00983103
0.0124944
0.00983498
0.00991794
0.00978365
0.00980181
0.00981509
0.00974179
0.00974418
0.00980153
0.0148855
0.0215658
0.00976602
0.00973072
0.0234939
0.0100474
0.00976877
0.00980101
0.00974164
0.0275287
0.00986079
0.0097697
0.0103535
0.00973137
0.0097555
0.0247082
0.00968579
0.0236426
0.00991763
0.0270481
0.00976762
0.00976129
0.00979705
0.0240622
0.0124989
0.0100885
0.0097495
0.0121356
0.0123341
0.0102494
0.00984639
0.0170267
0.0097433
0.00972898
0.0116719
0.0114913
0.0197285
0.00978366
0.00970582
0.00979211
0.00979061
0.0098841
0.00984061
0.00998818
0.0208554
0.0172703
0.0208314
0.0102208
0.00981618
0.0162569
0.0250402
0.0119565
0.0245526
0.00985482
0.0241111
0.00976421
0.0098419
0.00977493
0.0119389
0.00981461
0.0158951
0.0116741
0.00976354
0.00975686
0.0096781
0.010133
0.00993606
0.023135
0.00974408
0.00990434
0.00989477
0.0102201
0.00981651
0.00975316
0.0100017
0.0136296
0.0172585
0.00990035
0.00980098
0.0169171
0.0102054
0.00974636
0.0156971
0.0208502
0.0099264
0.0120346
0.0113096
0.0289274
0.0129891
0.0163947
0.0227751
0.0168087
0.0251968
0.00979371
0.0104481
0.00976922
0.025237
0.0098439
0.0098048
0.009721
0.00972782
0.00990479
0.016507
0.00975354
0.0101513
0.00991167
0.00983595
0.0097243
0.0266599
0.00976663
0.0101797
0.026226
0.0165702
0.00969139
0.00999095
0.0211516
0.00982882
0.00977338
0.00979281
0.00981186
0.0146932
0.0099304
0.010439
0.00975354
0.0098027
0.00972193
0.00976801
0.00993282
0.00979418
0.00974534
0.0097019
0.00979761
0.00988003
0.0097065
0.010249
0.00987077
0.0097959
0.0145595
0.00971412
0.0148811
0.0209673
0.0125005
0.00971324
0.00981289
0.00974362
0.00981162
0.00981066
0.0104698
0.00978234
0.0266152
0.0246375
0.0188997
0.011675
0.0192499
0.00973114
0.0158643
0.00983217
0.0171321
0.0211652
0.00987158
0.0119563
0.00979447
0.00970951
0.00970113
0.0172844
0.0156943
0.00966952
0.00990587
0.0242621
0.00970536
0.0118176
0.010005
0.00982072
0.00980024
0.00981325
0.00988612
0.0099475
0.0101145
0.0138137
0.0153837
0.0135318
0.0173223
0.00968925
0.00997203
0.0112972
0.0123103
0.00992351
0.00973212
0.0097765
0.0119681
0.00970838
0.0218464
0.0118753
0.00972574
0.0152831
0.0101656
0.0102728
0.00976031
0.0100612
0.0097276
0.0100269
0.0100192
0.00978753
0.0098465
0.00980004
0.0239693
0.0222055
0.00993279
0.00988957
0.00973374
0.0101766
0.00987311
0.0243914
0.00982014
0.00972429
0.00975929
0.0101308
0.01574
0.0120392
0.0134511
0.00983201
0.0115086
0.00983504
0.0232926
0.00981513
0.0157057
0.0101714
0.00978627
0.0124781
0.00972748
0.00973683
0.0157691
0.0237494
0.00976351
0.0249304
0.00975894
0.00975343
0.0105179
0.00986412
0.00987358
0.00974546
0.0223954
0.00982301
0.0096903
0.00980105
0.0269364
0.0098466
0.00967802
0.0103063
0.00973186
0.0165534
0.00984229
0.0214726
0.0097979
0.00972754
0.00968615
0.00972127
0.0153116
0.0235993
0.00982236
0.00982628
0.0152457
0.00975938
0.0160798
0.00964621
0.0121182
0.0222538
0.00982476
0.00975766
0.0102718
0.00968723
0.00972608
0.00979907
0.0166471
0.00974022
0.0240764
0.0109556
0.0097073
0.00972079
0.00989423
0.0256532
0.0149907
0.00980537
0.0098308
0.00993987
0.00974391
0.00988961
0.0240786
0.00967765
0.00995328
0.00967229
0.0127273
0.00974131
0.00981554
0.00974145
0.00982689
0.00983283
0.0121057
0.00979744
0.0150704
0.00973547
0.0101279
0.00989994
0.00984214
0.00975838
0.00970422
0.0158646
0.00982594
0.0122336
0.0229792
0.00978845
0.0149217
0.00973054
0.0265477
0.0149544
0.012945
0.0105257
0.00980865
0.0158711
0.0224676
0.00982606
0.00998404
0.00980152
0.00993419
0.0244184
0.0104248
0.0161958
0.00979871
0.00980643
0.0116716
0.0098651
0.00981119
0.00981001
0.00978617
0.00984928
0.00981321
0.00983472
0.00968193
0.019365
0.0285188
0.00975285
0.028206
0.00961458
0.00972554
0.0103723
0.00975902
0.00971408
0.0158539
0.00974269
0.0126514
0.010067
0.0139965
0.00968599
0.00979042
0.0108746
0.00998137
0.0150601
0.00973332
0.00977217
0.0102304
0.00983973
0.0258228
0.0223666
0.00978471
0.00971094
0.00977778
0.00991371
0.0292957
0.00986398
0.0112594
0.00975106
0.00985581
0.0168946
0.00973793
0.00980057
0.0170899
0.0187303
0.00978349
0.0101057
0.0253943
0.00987989
0.0142177
0.024363
0.0100638
0.00971742
0.00982713
0.00971518
0.009774
0.00968393
0.00971337
0.00987376
0.00986604
0.00979001
0.0097814
0.0231761
0.0161422
0.00973745
0.00976545
0.00984303
0.0229317
0.0224236
0.00982408
0.0198579
0.00980476
0.00972562
0.00975538
0.0157872
0.0107085
0.00970888
0.00983428
0.00977231
0.00982587
0.0116671
0.0217224
0.00986478
0.0239488
0.0134109
0.0172528
0.0143084
0.00984699
0.00980179
0.00990692
0.00979624
0.00995519
0.0100674
0.00977403
0.00995526
0.0128507
0.00973116
0.0098116
0.00978892
0.0172654
0.00983188
0.0227894
0.0101131
0.015304
0.00978755
0.00978359
0.0101699
0.0218215
0.0100947
0.011978
0.0264789
0.00977852
0.0214456
0.0122345
0.00976231
0.00998366
0.0097664
0.0168103
0.00980896
0.0120871
0.00977707
0.00979481
0.00970367
0.00971924
0.0154364
0.00976879
0.0097962
0.00980675
0.00987254
0.00971774
0.00977619
0.00984508
0.0244752
0.016339
0.00977212
0.00979095
0.00977436
0.0140629
0.00977736
0.0116171
0.00971377
0.00967984
0.0101702
0.0112303
0.0120016
0.0241752
0.00972515
0.00976625
0.0120756
0.00977148
0.025898
0.00973393
0.0097422
0.0256359
0.00972367
0.00979453
0.0098724
0.0148047
0.0244778
0.0181164
0.0118982
0.011548
0.0240927
0.0210094
0.0240553
0.010145
0.00982537
0.00981604
0.00982339
0.00986701
0.0255155
0.0097491
0.00979029
0.0235051
0.0277578
0.0252661
0.0102233
0.0209947
0.00974371
0.00984332
0.00983833
0.00981166
0.0148199
0.0101205
0.00970253
0.0098886
0.00969303
0.00981284
0.00978995
0.0124634
0.00981984
0.00970657
0.00977739
0.0284171
0.00972427
0.00983048
0.00970942
0.0096751
0.00971672
0.011978
0.016534
0.026776
0.00991828
0.00975581
0.00978469
0.00978214
0.0135085
0.00971409
0.0126117
0.00978542
0.00975042
0.0152165
0.0141442
0.00977199
0.00984576
0.00974325
0.00978685
0.0103719
0.0111281
0.00975954
0.00994078
0.00970269
0.00980481
0.00978579
0.0098461
0.0100704
0.0097073
0.02591
0.0157453
0.0254227
0.00993869
0.00985524
0.0101389
0.0123471
0.0097108
0.0132545
0.0119419
0.0247608
0.00977736
0.00976385
0.00994784
0.0226093
0.0142455
0.0129587
0.0246355
0.0149002
0.0097978
0.00982202
0.0224727
0.0167167
0.0118048
0.00978217
0.00987324
0.00976556
0.00997446
0.00974356
0.00964275
0.0100887
0.015826
0.00975802
0.00980212
0.00980878
0.00972254
0.00980653
0.00984029
0.0107818
0.0097555
0.0118732
0.00971713
0.00971635
0.0098105
0.0238471
0.0098067
0.023973
0.00973408
0.0097691
0.00981417
0.00981371
0.0122298
0.0259088
0.012735
0.00985116
0.00978067
0.00983131
0.00981877
0.017701
0.0100785
0.00981315
0.00976021
0.00995925
0.0215368
0.0096945
0.0097952
0.00969849
0.00980874
0.00983255
0.00975173
0.00974553
0.00983285
0.00992213
0.00992859
0.0097904
0.00976659
0.0102973
0.0212565
0.024603
0.0102891
0.00980452
0.00975647
0.00973723
0.0223537
0.00989935
0.00973214
0.00982149
0.0100253
0.00974995
0.00978725
0.00985725
0.00972869
0.00982346
0.00976022
0.014487
0.00976575
0.00974874
0.0246268
0.00973856
0.00975827
0.00972919
0.00976667
0.00974505
0.0176935
0.0098695
0.010293
0.00978694
0.0102905
0.00972978
0.00968591
0.010114
0.00969315
0.0235135
0.00964943
0.0154716
0.016355
0.00973434
0.0197069
0.00981029
0.00978993
0.00978191
0.0128211
0.01012
0.0245347
0.00973217
0.0161527
0.0101112
0.00975306
0.00972275
0.00978041
0.0097763
0.00978184
0.00975606
0.00985266
0.00975073
0.00977213
0.0154919
0.0100704
0.0098442
0.00977495
0.0118862
0.00977699
0.00973715
0.00979206
0.0224451
0.00987672
0.0223902
0.00983146
0.0239729
0.0156389
0.00974436
0.00981374
0.00982463
0.00979131
0.0187395
0.00980732
0.0231307
0.0217519
0.009867
0.0124178
0.0099665
0.00977841
0.00972821
0.0244947
0.0121119
0.0168625
0.00975712
0.00983657
0.0113153
0.00974452
0.0101619
0.0123026
0.0097692
0.0209954
0.00982984
0.0098109
0.00990987
0.00974171
0.00979967
0.00980609
0.0098172
0.00973932
0.00982452
0.00981764
0.00997818
0.010023
0.00975419
0.0103499
0.0098853
0.00979209
0.00982808
0.00983712
0.00998437
0.00980969
0.0150004
0.00985936
0.00980624
0.0116171
0.00974316
0.00979508
0.0226473
0.00980744
0.00982013
0.0100877
0.00973758
0.0143951
0.00975469
0.00973151
0.00990577
0.0100574
0.01261
0.0121165
0.0097377
0.0157746
0.0165399
0.0259069
0.00978528
0.00977278
0.00981234
0.00979813
0.009939
0.00980462
0.0126126
0.00979451
0.00980821
0.00982667
0.00979078
0.00985886
0.0175903
0.0271644
0.024912
0.0111392
0.00980982
0.00995242
0.00980216
0.0101885
0.00981115
0.00999723
0.0246559
0.00980196
0.00984694
0.00979061
0.00978991
0.0117229
0.0124138
0.00984392
0.0147753
0.00977766
0.00980012
0.00990461
0.00977226
0.0101365
0.0114515
0.0100327
0.0097661
0.0100809
0.00971852
0.0097432
0.00979145
0.0156094
0.00982347
0.00975898
0.0123667
0.0160962
0.0100528
0.0144801
0.00982942
0.00981535
0.01399
0.00985054
0.00972825
0.00978276
0.00985821
0.00988777
0.00977729
0.00977145
0.00981104
0.0102087
0.00976847
0.0112257
0.010567
0.0121159
0.00979935
0.00985227
0.00981186
0.00976053
0.0100465
0.010001
0.0240094
0.0100686
0.0230845
0.0102768
0.00980677
0.00977177
0.00986187
0.0100058
0.0166799
0.0159729
0.00973394
0.0101734
0.0130431
0.00976886
0.0148741
0.00973918
0.0096672
0.00991578
0.00975401
0.00978544
0.00976216
0.00982071
0.0157781
0.0098418
0.0174592
0.016361
0.011631
0.00969586
0.00988021
0.00976621
0.0161349
0.00987247
0.00972698
0.0100079
0.0102255
0.0100943
0.016558
0.013621
0.0159021
0.0113948
0.00976317
0.0124592
0.00987641
0.0117397
0.022884
0.0100097
0.0148676
0.0268129
0.0249549
0.00981475
0.00964954
0.00978522
0.0119015
0.00977908
0.0162956
0.00976245
0.0119643
0.00982853
0.00982127
0.0258789
0.00971188
0.0098329
0.00984741
0.00977267
0.00973113
0.00979614
0.00979606
0.00974313
0.00972966
0.0216365
0.0102585
0.0123404
0.00981488
0.017825
0.0102258
0.00974701
0.0104806
0.00970828
0.0261907
0.00988683
0.00983841
0.00978043
0.00983991
0.00970363
0.00977035
0.00965295
0.00973869
0.00974165
0.0120739
0.0122567
0.00978948
0.00982339
0.00981418
0.00981294
0.00977694
0.0097848
0.00967827
0.0167913
0.00972691
0.00982455
0.0176299
0.00971407
0.0174178
0.00982911
0.0111178
0.0162543
0.00996187
0.0151849
0.0202134
0.02289
0.0170774
0.015459
0.00982445
0.00975329
0.00974409
0.00975834
0.0120066
0.00982124
0.00975591
0.00973056
0.0233236
0.00967684
0.00977079
0.00974002
0.00977385
0.022348
0.0166929
0.00966911
0.021839
0.00980078
0.0156417
0.00977953
0.0107046
0.00983017
0.00980259
0.00977365
0.0158763
0.0230341
0.0155569
0.00964465
0.0116729
0.0243757
0.00993787
0.0102473
0.0213117
0.00988548
0.0173098
0.00970138
0.00977391
0.00979258
0.00979273
0.0278634
0.0100487
0.0183664
0.00973834
0.00980018
0.00980342
0.00987286
0.0100281
0.00988721
0.0184308
0.00981348
0.0098041
0.00981265
0.00977438
0.0119597
0.0227399
0.00981913
0.00982238
0.00979379
0.011306
0.00976474
0.0241464
0.0202531
0.0150776
0.00979866
0.0183453
0.0098293
0.0244023
0.0149896
0.00995196
0.0124424
0.0164992
0.0157977
0.00976088
0.00980501
0.0098075
0.0124163
0.0097683
0.00973442
0.00996415
0.00969406
0.00982915
0.00987706
0.00979547
0.0227157
0.00980333
0.00976678
0.0118137
0.0198465
0.00982542
0.00975576
0.00996264
0.00977577
0.0287319
0.00982949
0.00971397
0.0233698
0.00969928
0.00974123
0.00974771
0.0140784
0.0097271
0.0135867
0.00974243
0.012202
0.0258972
0.00968547
0.00983572
0.0113492
0.00976304
0.00975927
0.00976276
0.00984677
0.0118756
0.0210636
0.00972288
0.00976669
0.00972419
0.00978814
0.0119603
0.00981997
0.0122168
0.0118863
0.00976173
0.00985112
0.00983384
0.00981589
0.00989067
0.0153928
0.0123564
0.00968761
0.00975911
0.0138819
0.0173299
0.0102686
0.00978542
0.0097957
0.0245872
0.010284
0.00983122
0.00977059
0.0096744
0.00974669
0.00980312
0.00978661
0.00973181
0.00976798
0.0100669
0.0231833
0.0260371
0.00975432
0.00998524
0.00979242
0.009841
0.00976877
0.0097892
0.00976502
0.00976148
0.00992333
0.00976814
0.00994074
0.00975438
0.00973547
0.0100387
0.00983954
0.00993874
0.0192988
0.00979551
0.00979988
0.0098716
0.00974258
0.00973353
0.0100815
0.0155414
0.00972217
0.00976615
0.00980471
0.00963348
0.0156651
0.00983746
0.00974299
0.0254845
0.00969597
0.0164619
0.00983009
0.00981115
0.0097194
0.00980761
0.00965757
0.0153624
0.0237883
0.0199449
0.00970875
0.0157956
0.00973143
0.00978808
0.0153386
0.00975428
0.0100259
0.00970066
0.00975639
0.00988365
0.010623
0.00974971
0.00977992
0.0239604
0.00978538
0.0148497
0.0269164
0.00979567
0.0115735
0.00977392
0.00979744
0.00972354
0.00986685
0.0100133
0.00980209
0.00981468
0.00979642
0.0140732
0.0174806
0.00992638
0.00978804
0.00980784
0.00976502
0.010045
0.00994667
0.00967544
0.00982745
0.00976087
0.00998274
0.00975931
0.0102633
0.00968895
0.00973244
0.00974705
0.0098731
0.0163453
0.00973255
0.00971646
0.00969506
0.00980426
0.00967784
0.00968236
0.0159961
0.00980877
0.0117953
0.0140056
0.00981595
0.0102095
0.00980516
0.00981687
0.00978031
0.0230691
0.0100188
0.00988038
0.00981689
0.012019
0.00982783
0.0103584
0.00970722
0.0105132
0.00986099
0.00967878
0.00973916
0.0236438
0.00976684
0.00968586
0.00979955
0.0100837
0.00987666
0.0097115
0.0157267
0.00978363
0.0145222
0.00967003
0.00976064
0.00974149
0.00985659
0.0100726
0.0104734
0.0146932
0.02185
0.00977504
0.00975653
0.016132
0.0147738
0.0096881
0.00977369
0.0127018
0.00976285
0.00965011
0.00969644
0.00976885
0.0272443
0.00980058
0.00990349
0.0159976
0.00972471
0.0119734
0.0100432
0.0230535
0.0159366
0.0100433
0.0121694
0.00974633
0.0124254
0.00985497
0.01652
0.0180173
0.00979372
0.0244019
0.0126857
0.00978222
0.0210183
0.00973938
0.0134945
0.0115158
0.0118374
0.00979793
0.0173113
0.0169943
0.0097034
0.00974216
0.0097671
0.0124796
0.00985439
0.00989449
0.0097561
0.0114204
0.0100426
0.00980571
0.0100308
0.00989527
0.00984451
0.00972737
0.00973993
0.0287286
0.00978016
0.00976407
0.00989317
0.0181732
0.00979795
0.0292975
0.0101812
0.0102366
0.00970948
0.00979917
0.00978452
0.00978164
0.010085
0.00969761
0.00976306
0.0101663
0.0098412
0.0111057
0.00974582
0.00974199
0.0123998
0.00989225
0.0111878
0.0097931
0.00982151
0.0117855
0.00975302
0.00986798
0.0246997
0.00979742
0.0230737
0.0152829
0.00973633
0.00983798
0.00965807
0.0190564
0.00975699
0.00977923
0.00977718
0.0117914
0.0100208
0.0173756
0.0097604
0.0100762
0.00984136
0.00993119
0.00982953
0.00976794
0.0208403
0.00971477
0.00988912
0.0099938
0.0279674
0.0126418
0.00984834
0.0116968
0.00991863
0.011277
0.00983291
0.0099895
0.0123759
0.0136513
0.00984231
0.0254763
0.00979869
0.0175305
0.00980374
0.00989688
0.00974097
0.0148817
0.00988454
0.0097762
0.00972624
0.00980069
0.0101708
0.0246224
0.023389
0.00995346
0.0280641
0.00967134
0.0164602
0.00976333
0.00964458
0.00981344
0.00991105
0.0176588
0.0117919
0.0123536
0.00969768
0.0164978
0.00988241
0.00995527
0.00975706
0.0118052
0.0154896
0.0172621
0.00967056
0.0117958
0.00974267
0.00972013
0.00986482
0.0141357
0.0144609
0.00967437
0.00983341
0.0123771
0.00978177
0.00980002
0.0100495
0.00988349
0.00976385
0.00970804
0.00970634
0.0097796
0.00984401
0.00978662
0.0108717
0.0098503
0.0267257
0.0171344
0.00978424
0.00974979
0.00977602
0.0168787
0.0146283
0.00984621
0.0099908
0.00978117
0.0160907
0.00977361
0.00976493
0.00989215
0.011573
0.0101772
0.0176531
0.0225891
0.00971596
0.0261335
0.00982575
0.0170803
0.00979085
0.00981991
0.00975213
0.0246029
0.0292033
0.00974715
0.00984919
0.0172854
0.00985275
0.00980917
0.0162806
0.0218784
0.023853
0.0206428
0.0105396
0.0275105
0.0101091
0.00974809
0.0167526
0.0240739
0.00978429
0.00980199
0.00977111
0.00980771
0.00994457
0.02823
0.00974973
0.0153836
0.00982087
0.0201914
0.00982513
0.00972019
0.00966369
0.00975578
0.0214893
0.00975962
0.00979789
0.00974898
0.0247285
0.00978466
0.0124312
0.0099553
0.0114107
0.0218703
0.00981065
0.00981478
0.00985506
0.0103594
0.00970031
0.0124115
0.0165575
0.0149499
0.00964381
0.00970088
0.00965545
0.0167608
0.00971155
0.022892
0.0244802
0.00974275
0.00969994
0.0137801
0.0141651
0.0100912
0.00980962
0.00967295
0.0097466
0.009772
0.00981104
0.00963156
0.00981658
0.00971005
0.0121277
0.022254
0.00975839
0.00982267
0.00977202
0.00998104