/*--------------------------------*- C++ -*----------------------------------*\
| =========                 |                                                 |
| \\      /  F ield         | OpenFOAM: The Open Source CFD Toolbox           |
|  \\    /   O peration     | Version:  2406                                  |
|   \\  /    A nd           | Website:  www.openfoam.com                      |
|    \\/     M anipulation  |                                                 |
\*---------------------------------------------------------------------------*/
FoamFile
{
    version     2.0;
    format      ascii;
    arch        "LSB;label=32;scalar=64";
    class       volVectorField;
    location    "4";
    object      momentum:momentum;
}
// * * * * * * * * * * * * * * * * * * * * * * * * * * * * * * * * * * * * * //

dimensions      [1 1 -1 0 0 0 0];

internalField   nonuniform List<vector> 
59516
(
(3.56606e-07 3.33885e-08 9.15473e-09)
(3.01536e-07 8.20968e-09 2.08786e-08)
(2.69195e-07 6.00261e-09 7.97708e-09)
(1.9466e-07 -7.01236e-11 -4.58235e-09)
(2.51743e-07 2.68739e-10 -1.37383e-09)
(6.18429e-08 -6.15584e-09 -6.63164e-09)
(2.64144e-07 -9.41201e-09 5.09829e-10)
(3.28263e-07 -1.13693e-08 -2.18596e-08)
(2.27169e-07 -5.40138e-09 5.7478e-10)
(1.90759e-07 -1.38255e-08 3.62686e-08)
(1.99884e-07 -7.23962e-09 -3.55344e-09)
(2.19488e-07 -2.17638e-08 1.53938e-08)
(4.48994e-07 2.5365e-08 3.04179e-08)
(4.97959e-08 5.88642e-09 3.09038e-10)
(3.72291e-07 6.43083e-08 1.56027e-08)
(2.14249e-07 3.31663e-08 -1.34563e-08)
(2.38731e-07 -5.68934e-09 1.11204e-08)
(2.80883e-07 1.37953e-08 1.95678e-08)
(4.75285e-07 2.15882e-08 9.2432e-09)
(3.24379e-07 -3.97948e-11 9.02663e-09)
(2.04293e-07 -9.22174e-09 -5.38989e-09)
(3.37549e-07 2.30311e-09 -3.78204e-09)
(3.54259e-07 -1.62435e-08 2.34688e-09)
(1.09865e-07 -3.92065e-09 1.84333e-08)
(3.42112e-07 -9.064e-09 1.35921e-08)
(4.88324e-07 -5.29916e-09 5.6835e-08)
(1.51386e-07 -5.34245e-09 1.82398e-08)
(1.45902e-07 1.99023e-08 -3.64571e-08)
(2.99997e-07 -2.14565e-08 2.5967e-08)
(4.30302e-08 -8.53821e-09 6.26439e-09)
(2.65367e-07 -9.44883e-09 -1.85689e-08)
(1.93362e-07 4.26773e-08 3.02365e-08)
(2.07191e-07 1.14676e-08 4.50337e-09)
(2.4809e-07 -8.24322e-09 1.47433e-08)
(1.35431e-07 1.51176e-08 1.75894e-09)
(5.04673e-07 9.53292e-09 -7.32507e-09)
(4.67803e-08 3.17115e-09 -1.73119e-08)
(2.19217e-07 -8.34324e-09 -1.04901e-08)
(4.42451e-07 6.38581e-09 -9.16646e-09)
(2.84294e-07 -1.05065e-08 7.55232e-09)
(3.90069e-07 -9.3488e-09 1.94284e-08)
(4.38187e-07 -1.17406e-08 1.92239e-09)
(3.76791e-07 -4.31269e-09 -3.10457e-08)
(1.53729e-07 -5.49432e-09 1.26398e-08)
(2.97745e-07 -9.80969e-10 -9.58096e-09)
(2.61181e-07 -4.55311e-08 -5.55439e-08)
(4.15484e-07 -7.42512e-09 4.13413e-08)
(2.37131e-07 -1.45438e-09 -3.87058e-09)
(3.56202e-07 8.37816e-09 -1.1996e-08)
(2.20296e-07 -1.61571e-09 -3.06425e-09)
(2.33082e-07 -4.74171e-09 -1.78624e-08)
(1.8041e-07 -4.27831e-09 2.05431e-08)
(4.5938e-07 1.88014e-08 -1.15202e-08)
(4.08015e-07 -5.09359e-10 4.96089e-09)
(2.37765e-07 2.03353e-08 1.36265e-08)
(2.87694e-07 2.26018e-08 -1.29723e-08)
(1.88615e-07 -5.62404e-09 -2.11364e-09)
(2.24037e-07 -1.25517e-09 -4.61943e-08)
(1.74337e-07 -7.92879e-09 -3.9668e-09)
(1.54279e-07 -2.21547e-09 -6.28172e-10)
(2.13798e-07 -6.20851e-09 1.27803e-08)
(5.05207e-08 -3.2677e-09 6.41054e-10)
(2.52843e-07 -6.41602e-09 6.01391e-09)
(2.90093e-07 3.28932e-09 3.3233e-09)
(3.6917e-07 1.90379e-08 1.05227e-08)
(2.11322e-07 -6.12863e-09 1.90174e-09)
(5.60172e-08 -3.00901e-09 8.05778e-09)
(1.91404e-07 1.82235e-08 1.40247e-08)
(2.75337e-07 1.91026e-08 1.12411e-08)
(1.78521e-07 -4.16562e-09 5.23384e-09)
(1.30635e-07 7.44572e-09 1.83878e-09)
(1.37863e-07 4.70874e-09 -2.40083e-09)
(7.35844e-08 1.46321e-08 -2.3649e-08)
(1.91396e-07 6.7618e-09 -5.40667e-09)
(2.96262e-07 -9.05868e-09 3.20419e-09)
(3.48511e-07 1.11111e-09 3.80457e-09)
(1.854e-07 6.26742e-09 -1.42836e-08)
(2.5807e-07 2.01001e-08 1.11914e-09)
(2.07804e-07 -1.21325e-09 2.45847e-08)
(1.74373e-07 -9.63484e-09 -1.3917e-08)
(1.53299e-07 1.25853e-08 2.4427e-08)
(1.6917e-07 6.56734e-09 3.87815e-09)
(1.74985e-07 -1.05299e-08 2.54439e-09)
(7.50585e-08 -1.03867e-08 1.68726e-08)
(2.00623e-07 3.33408e-09 2.9056e-09)
(3.12398e-07 -2.41004e-09 -1.15366e-08)
(9.48765e-08 -3.08222e-08 -9.85113e-10)
(5.45085e-07 -8.45374e-09 2.42769e-09)
(2.95048e-07 3.42555e-08 4.19575e-08)
(2.21073e-07 -1.34902e-08 -1.3911e-08)
(2.05011e-07 -8.55134e-09 7.77207e-09)
(2.22112e-07 -1.26528e-08 -4.35997e-09)
(2.11088e-07 3.49365e-09 1.0156e-08)
(1.79313e-07 -4.54571e-09 7.65218e-10)
(1.60027e-07 -6.86557e-09 2.51447e-10)
(2.45915e-07 1.39593e-08 7.65878e-09)
(1.40906e-07 2.14162e-09 2.33942e-09)
(2.11542e-07 -1.50932e-08 -1.16157e-08)
(2.06653e-07 -3.59934e-09 -1.19006e-08)
(2.22782e-07 2.53449e-09 -1.27999e-09)
(2.04501e-07 1.88878e-08 2.25209e-08)
(8.3778e-08 4.46767e-09 -1.81596e-08)
(6.15782e-08 1.90081e-08 1.49887e-08)
(1.92871e-07 -1.62895e-08 8.21497e-09)
(2.72051e-07 5.89921e-09 2.8498e-09)
(1.66605e-07 -1.19758e-09 -1.34504e-10)
(1.66323e-07 2.20289e-08 1.50027e-08)
(1.92265e-07 -2.48651e-09 -1.57376e-09)
(2.88504e-07 1.13666e-08 -1.93299e-08)
(4.09559e-07 2.17919e-08 -2.02042e-08)
(3.45863e-07 1.66295e-08 5.24866e-09)
(1.2964e-07 3.73904e-08 2.49166e-09)
(4.13922e-07 -2.16739e-08 1.16966e-08)
(2.7305e-07 9.63922e-10 -9.81839e-09)
(2.0621e-07 -9.11556e-09 1.6961e-08)
(2.08187e-07 -4.32913e-11 -1.39442e-08)
(3.67883e-07 1.61792e-09 -5.31087e-08)
(1.54743e-07 -1.19038e-08 -5.81079e-09)
(4.59356e-08 1.12538e-08 1.90281e-09)
(3.22005e-07 -1.74711e-09 -2.79318e-09)
(3.54982e-07 8.88049e-09 -7.74731e-09)
(1.50349e-07 4.95711e-09 -1.9648e-09)
(1.56684e-07 5.2249e-09 -3.37714e-09)
(1.49692e-07 -3.89193e-09 -3.81733e-09)
(1.58505e-07 1.75875e-09 -8.19321e-09)
(2.56074e-07 7.22622e-09 1.70561e-08)
(9.80343e-08 -2.16772e-09 2.31755e-08)
(2.51591e-07 6.20024e-09 -1.49982e-08)
(2.43579e-07 2.83992e-08 2.98801e-08)
(1.26177e-07 -7.06312e-11 5.41407e-09)
(2.24496e-07 -1.17706e-08 4.24156e-09)
(4.66785e-07 5.79023e-09 4.06131e-09)
(5.73354e-08 -7.79982e-09 -1.58131e-08)
(2.66033e-07 -4.42597e-09 7.8508e-09)
(5.31424e-07 -1.53116e-08 1.56555e-08)
(2.69622e-07 -9.14884e-10 6.55036e-09)
(1.99607e-07 1.26734e-08 -3.05277e-09)
(3.79822e-07 7.395e-09 4.78577e-09)
(1.61931e-07 9.33976e-09 4.56704e-09)
(2.51276e-07 6.17626e-09 -4.95459e-09)
(2.11475e-07 -9.00535e-09 -1.99234e-08)
(2.99985e-07 -1.10384e-09 -9.05688e-09)
(3.72096e-08 5.9651e-09 3.45409e-09)
(1.90442e-07 -7.27699e-10 -8.29609e-09)
(1.66737e-07 2.54898e-09 4.50737e-09)
(2.92979e-07 1.30245e-08 6.75171e-09)
(2.42779e-07 -1.91279e-09 -4.38173e-09)
(2.46532e-07 1.06409e-08 2.79979e-08)
(9.93507e-08 -1.03971e-08 5.82866e-09)
(3.17159e-07 4.97989e-09 -8.70789e-09)
(4.5349e-07 -3.00456e-09 1.72177e-09)
(1.60383e-07 -3.31238e-08 -9.58653e-09)
(3.62257e-07 1.70995e-09 -1.34318e-09)
(2.24724e-07 9.97747e-09 1.78406e-08)
(2.54596e-07 -1.61468e-08 -1.17794e-08)
(3.44341e-08 -4.86754e-09 9.04449e-09)
(4.13227e-07 2.51409e-10 -4.51404e-08)
(4.08638e-07 -7.39372e-09 -2.04509e-08)
(2.09704e-07 3.26197e-09 -4.07137e-09)
(4.81846e-08 -5.57573e-09 -1.77486e-08)
(1.78743e-07 2.12617e-08 1.21698e-08)
(2.26314e-07 -1.49392e-08 2.56754e-08)
(1.39659e-07 -3.85481e-08 -1.91783e-09)
(5.41255e-08 -1.41756e-11 -2.81866e-09)
(2.6917e-07 -9.46317e-09 -1.17827e-08)
(2.99229e-07 -7.82333e-09 1.07451e-08)
(4.04996e-07 -3.53642e-08 4.99641e-09)
(2.41595e-07 -1.13159e-08 3.76222e-09)
(3.64008e-08 8.58184e-09 1.92968e-08)
(2.08825e-07 7.88759e-09 4.14694e-09)
(1.49332e-07 -7.04287e-10 -1.1928e-08)
(1.62579e-07 -5.62161e-09 7.11647e-09)
(2.21292e-07 2.36486e-08 2.22492e-08)
(1.6328e-07 -1.26244e-09 -9.30555e-09)
(2.11599e-07 -1.34174e-08 -6.27333e-09)
(5.14574e-07 -2.10154e-08 2.7499e-08)
(2.02922e-07 -7.07987e-09 -6.83492e-09)
(3.50291e-07 3.90239e-09 -2.47467e-08)
(3.24813e-07 -3.63611e-08 2.03906e-08)
(1.41692e-07 -6.97267e-09 2.66762e-08)
(3.41243e-07 2.11712e-09 8.17383e-09)
(1.28604e-07 -2.46538e-08 2.47923e-09)
(9.49259e-08 -1.06967e-08 -1.12778e-08)
(2.3112e-07 -3.61996e-09 -1.83393e-08)
(1.72962e-07 1.64612e-09 4.88622e-09)
(2.45766e-07 -8.05554e-09 -9.81162e-09)
(1.1836e-07 -1.00005e-09 -3.48822e-09)
(6.10837e-08 -1.13585e-08 6.69526e-09)
(2.50661e-07 2.65691e-09 5.22709e-10)
(3.89404e-07 3.83014e-08 3.41312e-08)
(1.68324e-07 1.0154e-08 2.93958e-09)
(3.07605e-07 7.53183e-09 3.30004e-08)
(1.84618e-07 9.59143e-09 -5.66195e-09)
(2.38073e-07 9.66229e-09 -1.5043e-08)
(3.3956e-07 -6.51875e-09 -1.16961e-08)
(8.96796e-08 5.95937e-10 1.43135e-08)
(2.20568e-07 4.05079e-09 -1.5928e-08)
(1.71155e-07 8.68691e-09 -1.80233e-08)
(2.57711e-07 8.26006e-09 -1.84394e-08)
(2.63673e-07 -1.06803e-08 2.12989e-08)
(1.24431e-07 1.42114e-08 -7.2525e-09)
(1.5746e-07 7.42063e-09 -8.69942e-10)
(4.85564e-07 -9.42542e-09 -1.38704e-08)
(3.89152e-08 1.97447e-08 -1.02203e-09)
(3.13278e-07 -2.02089e-08 1.8175e-09)
(2.95043e-07 1.36963e-08 -5.26278e-09)
(2.75433e-07 -3.2292e-09 -1.24995e-08)
(1.7659e-07 6.5627e-09 5.02891e-09)
(5.6614e-08 8.03979e-10 2.67411e-09)
(4.42714e-07 -3.36375e-09 1.30912e-08)
(1.62728e-07 2.17257e-08 -6.99604e-09)
(6.26066e-08 -2.84202e-08 3.87961e-09)
(2.40636e-07 -5.40603e-10 1.08046e-08)
(2.41971e-07 7.32562e-09 1.52054e-08)
(4.04967e-07 1.09517e-10 -1.55503e-08)
(2.56943e-07 -1.81725e-08 -7.17798e-09)
(2.65112e-07 1.41324e-08 5.48814e-09)
(2.12377e-07 -2.45967e-09 3.3996e-09)
(2.03799e-07 4.65756e-09 3.95721e-09)
(2.0439e-07 -5.1102e-09 -1.16235e-08)
(3.19103e-07 4.59084e-08 2.20469e-08)
(2.80363e-07 2.19856e-08 1.15823e-08)
(1.55134e-07 6.91558e-10 -1.2488e-09)
(1.76693e-07 -1.81034e-08 -3.16466e-09)
(2.59537e-07 1.42747e-09 1.04524e-08)
(2.74344e-07 -2.02656e-09 -7.01416e-09)
(8.68658e-08 -2.92933e-09 7.37492e-09)
(1.68729e-07 1.97292e-08 -1.28378e-08)
(1.68014e-07 -1.28462e-08 1.75703e-10)
(3.02279e-07 1.39586e-08 -1.18233e-08)
(2.06012e-07 -4.00428e-09 2.82402e-10)
(1.65954e-07 3.63848e-09 -2.74671e-09)
(2.37823e-07 -1.62128e-08 2.01609e-08)
(6.51674e-08 -2.27906e-08 -2.44962e-09)
(1.10635e-07 1.86645e-08 -1.78437e-08)
(9.19356e-08 2.72206e-08 -4.84519e-09)
(2.28052e-07 3.67076e-09 1.88653e-08)
(2.71613e-07 -1.28042e-08 2.22536e-08)
(3.99038e-07 -1.10634e-08 2.45185e-08)
(2.62889e-07 -1.19287e-08 1.97727e-10)
(1.96042e-07 7.67707e-09 7.50815e-09)
(5.92561e-08 1.53057e-08 1.56119e-08)
(2.72047e-07 -2.39969e-08 -3.58815e-08)
(7.22646e-08 1.49807e-08 9.11213e-09)
(1.25532e-07 -4.41822e-09 1.08339e-08)
(2.59504e-07 -1.7408e-08 1.53858e-09)
(1.96787e-07 -1.23887e-09 -2.53463e-09)
(4.27919e-07 -3.02653e-08 -1.13647e-09)
(2.6337e-07 5.49268e-09 -1.27619e-08)
(2.93057e-07 -2.66196e-09 -3.78943e-09)
(3.63007e-07 2.3443e-09 4.04348e-08)
(2.47774e-07 -2.79118e-08 1.50979e-08)
(1.42238e-07 -9.2668e-11 -6.86151e-10)
(2.95706e-07 1.25547e-08 3.01113e-09)
(2.96121e-07 -2.69934e-08 -1.79784e-08)
(2.90569e-07 -9.8985e-09 -8.38801e-09)
(2.605e-07 1.02621e-08 -1.67008e-08)
(2.8911e-07 -6.15246e-09 1.74888e-08)
(2.29583e-07 4.0337e-09 -2.4295e-08)
(2.16191e-07 4.39321e-08 -8.56857e-10)
(2.79217e-07 -1.14476e-08 1.74612e-08)
(2.46874e-07 -3.26164e-08 -1.56542e-08)
(3.28303e-07 -1.09634e-08 1.78966e-08)
(2.49714e-07 -1.06209e-08 -8.17317e-10)
(9.87243e-08 4.5226e-09 -4.54888e-09)
(2.67767e-07 2.0865e-09 -4.39136e-09)
(3.26027e-07 3.10337e-08 1.86289e-12)
(4.22573e-07 -3.01041e-08 -5.47722e-09)
(1.74108e-07 -4.30514e-09 -5.24607e-08)
(1.76354e-07 -6.31053e-10 -3.28929e-09)
(2.85818e-07 2.00798e-08 -8.3455e-09)
(1.62574e-07 1.51445e-09 -3.06725e-09)
(5.50058e-07 2.55167e-08 -2.12927e-08)
(2.92224e-07 1.41439e-08 2.17633e-08)
(2.95661e-07 -1.74728e-08 -2.04017e-08)
(3.39069e-07 1.01931e-08 -1.7894e-08)
(3.90675e-08 1.14976e-08 -1.72721e-08)
(2.94532e-07 -1.00978e-08 9.74903e-09)
(8.0891e-08 2.65904e-08 -1.44416e-08)
(1.52533e-07 -2.86207e-09 4.04542e-09)
(2.77294e-07 -2.69797e-09 1.41768e-08)
(2.75442e-07 -4.37645e-09 1.22468e-08)
(8.32166e-08 -8.01497e-09 2.47991e-08)
(4.05288e-07 -2.15896e-08 -2.78618e-08)
(3.1283e-07 -1.7407e-08 -5.00455e-09)
(2.26586e-07 4.46795e-09 -5.98954e-09)
(2.65843e-07 1.14179e-08 1.20027e-08)
(6.33258e-08 1.58008e-08 1.75082e-08)
(2.33398e-07 -7.10532e-09 6.47689e-09)
(1.04941e-07 -3.85366e-09 -1.93338e-10)
(1.36251e-07 -5.1264e-10 5.09943e-09)
(2.7666e-07 1.98036e-08 -1.05843e-09)
(1.71186e-07 -4.31874e-09 -5.71484e-09)
(2.82267e-07 7.21163e-09 1.86799e-08)
(2.35097e-07 -3.11466e-09 3.3124e-09)
(1.09495e-07 -1.12549e-08 -1.92187e-08)
(2.53789e-07 -3.54924e-09 -7.68646e-09)
(2.36639e-07 -1.41517e-08 -4.14238e-09)
(3.11968e-07 -5.42403e-09 5.20799e-09)
(2.31359e-07 -1.05012e-08 3.71732e-09)
(4.60902e-07 -1.5966e-08 -1.79186e-08)
(3.41078e-07 -2.51073e-08 1.11616e-08)
(5.22918e-08 1.04448e-08 6.32728e-09)
(7.70327e-08 -2.28001e-08 1.07599e-08)
(5.08891e-07 -1.97359e-09 1.12142e-08)
(5.82866e-08 -1.74406e-08 1.1404e-08)
(3.71213e-07 6.68181e-09 -4.0695e-08)
(1.71988e-07 2.80399e-08 -3.13599e-08)
(2.90311e-07 -2.51241e-08 -9.41391e-09)
(4.08963e-07 8.10533e-10 1.53061e-08)
(3.57152e-07 -1.11933e-08 4.4637e-09)
(2.65272e-07 -5.51588e-09 -1.40032e-08)
(4.63424e-07 1.06921e-09 -1.75453e-08)
(1.82739e-07 -1.43636e-08 3.89979e-09)
(1.97029e-07 -5.07976e-09 3.02687e-08)
(1.83336e-07 -6.05632e-09 -1.0995e-08)
(2.56221e-07 2.12489e-09 4.55945e-09)
(3.51679e-07 8.56839e-09 1.21172e-08)
(3.15366e-07 1.61394e-08 -2.2315e-10)
(1.78383e-07 -1.28611e-08 -1.44302e-09)
(2.30146e-07 -9.66583e-09 9.42423e-09)
(2.96712e-07 2.26655e-09 -1.43742e-10)
(1.97378e-07 3.14149e-09 4.65685e-10)
(3.62108e-07 6.31929e-09 -2.60369e-08)
(1.95134e-07 4.91071e-09 4.20257e-09)
(4.79882e-07 -3.88708e-08 4.94761e-10)
(2.6273e-07 3.66121e-08 -5.96554e-09)
(4.14596e-07 -5.61e-09 -1.18281e-08)
(2.21065e-07 -2.14155e-08 -1.71055e-09)
(1.81527e-07 -2.42814e-09 -1.99002e-09)
(3.2941e-07 -1.25689e-08 -5.45719e-09)
(2.28222e-07 1.11331e-08 -1.97979e-08)
(5.77889e-08 -1.7471e-08 -1.4205e-08)
(2.9831e-07 -7.79265e-09 -2.73251e-09)
(1.52249e-07 -8.35085e-09 1.07702e-09)
(7.55577e-08 1.98304e-08 -1.36225e-08)
(3.76177e-07 -1.38374e-08 1.74396e-08)
(2.14595e-07 1.68879e-08 9.28335e-09)
(2.26531e-07 1.51489e-08 1.43477e-09)
(2.17164e-07 1.111e-08 7.65567e-09)
(3.12465e-07 -2.93755e-09 -1.4863e-09)
(3.74756e-07 1.53697e-08 -1.88119e-08)
(2.39991e-07 4.66801e-09 5.19894e-09)
(8.25061e-08 1.12799e-08 4.17649e-09)
(3.21653e-07 -1.36503e-08 -9.37076e-09)
(1.82994e-07 -5.79658e-09 1.90738e-09)
(2.24179e-07 -2.5444e-09 4.68007e-10)
(2.47523e-07 5.39749e-09 9.88092e-09)
(2.0197e-07 5.20759e-09 -8.60128e-09)
(1.90834e-07 -6.68856e-10 8.01334e-09)
(2.70592e-07 9.28651e-09 1.04363e-08)
(2.72038e-07 1.91266e-08 1.77681e-08)
(2.43366e-07 -1.0785e-08 -4.35602e-09)
(1.83164e-07 -4.99954e-09 -1.73537e-11)
(5.62194e-08 -9.66593e-09 1.45339e-08)
(1.27771e-07 -2.48311e-08 -4.24327e-09)
(3.73939e-07 1.88181e-08 -1.64279e-09)
(4.12292e-07 2.94467e-08 2.30891e-08)
(1.48712e-07 1.56213e-08 6.3694e-09)
(1.99747e-07 -2.56707e-09 -1.66689e-08)
(3.89249e-07 8.28272e-09 1.43384e-08)
(3.9033e-07 1.3243e-08 -1.43736e-08)
(2.05187e-07 -1.8477e-10 -5.75403e-09)
(3.72189e-07 1.16691e-08 1.59953e-08)
(4.23433e-07 6.91832e-10 -5.05256e-09)
(2.24499e-07 -4.48196e-09 -1.73789e-10)
(1.3115e-07 -7.92951e-09 -5.20235e-09)
(5.72305e-08 1.9738e-08 1.63489e-09)
(3.11425e-07 4.98162e-09 1.29019e-08)
(1.97345e-07 -7.87982e-09 1.7637e-08)
(1.99198e-07 9.00029e-09 -3.03104e-08)
(1.78951e-07 1.95843e-08 -1.00309e-08)
(1.62325e-07 4.13515e-09 6.11768e-09)
(2.94526e-07 1.66516e-08 1.64812e-08)
(2.37802e-07 8.14338e-09 6.85577e-09)
(3.10678e-08 1.50366e-08 -1.67687e-08)
(1.96373e-07 8.40458e-09 4.39101e-09)
(1.67015e-07 1.13995e-08 3.05932e-08)
(1.80951e-07 6.8848e-09 -5.71594e-09)
(1.18882e-07 -1.65393e-08 -5.12531e-09)
(3.02866e-07 -2.14098e-08 7.18008e-08)
(3.09463e-07 7.0433e-09 1.5607e-08)
(1.50173e-07 -8.48387e-09 1.84493e-08)
(5.37086e-08 9.27111e-09 -1.54716e-08)
(2.68868e-07 2.24934e-09 2.68176e-08)
(2.75281e-07 8.05254e-09 -1.39163e-08)
(6.64971e-08 -5.93784e-09 8.74256e-09)
(3.46719e-07 1.19275e-08 -2.68248e-08)
(2.5331e-07 1.06747e-08 -2.00631e-08)
(3.67842e-07 1.84293e-08 3.07177e-08)
(3.4248e-07 9.23156e-09 3.00129e-08)
(1.63675e-07 -5.17543e-09 7.49407e-09)
(4.11858e-07 3.21665e-08 5.0541e-09)
(2.15687e-07 6.4142e-09 -2.34612e-08)
(2.76983e-07 -8.65652e-09 3.44637e-09)
(2.04204e-07 1.25343e-09 1.24188e-08)
(3.10175e-07 6.37136e-08 6.55828e-08)
(3.88298e-07 -2.11979e-08 -7.19766e-09)
(2.36291e-07 -4.92546e-09 3.1735e-09)
(5.17207e-07 1.46154e-08 1.07459e-08)
(1.72769e-07 1.54998e-08 -2.342e-08)
(4.10304e-07 -1.73176e-09 1.3847e-08)
(1.84379e-07 -1.02709e-09 6.11545e-09)
(3.95855e-07 -5.32738e-11 -1.14009e-08)
(2.75269e-07 -2.98491e-09 4.81161e-09)
(1.81515e-07 2.40053e-09 8.44428e-09)
(2.62956e-07 4.73162e-10 -3.84079e-09)
(4.26983e-07 1.40409e-08 -1.52708e-08)
(2.44898e-07 -5.37075e-09 2.65464e-09)
(1.99304e-07 -3.90854e-09 5.06649e-09)
(9.16437e-08 1.38914e-08 -2.09285e-08)
(5.77646e-08 -4.22383e-09 -2.22945e-08)
(3.53521e-07 -6.08624e-09 3.89153e-09)
(2.602e-07 1.09274e-08 8.86604e-09)
(1.96922e-07 6.51757e-09 -1.36183e-08)
(1.00229e-07 2.43438e-08 -7.76349e-09)
(7.24643e-08 1.60709e-09 -6.72232e-09)
(4.93169e-07 -2.50737e-08 1.80769e-08)
(1.43768e-07 6.71269e-09 3.51129e-10)
(2.92146e-07 -4.92297e-09 -2.62458e-09)
(2.46291e-07 -2.37353e-10 1.2253e-08)
(1.93314e-07 4.64062e-09 1.16018e-08)
(2.18529e-07 1.52656e-09 7.70666e-09)
(2.00651e-07 -6.26247e-09 -3.74836e-09)
(1.69792e-07 2.45615e-09 -1.08947e-09)
(1.98439e-07 2.20856e-08 9.38396e-09)
(2.65109e-07 -1.97438e-08 -3.15619e-09)
(3.0074e-07 3.50599e-09 -7.50656e-09)
(2.07758e-07 -4.34478e-09 -1.46286e-08)
(1.76404e-07 8.16011e-09 1.25299e-09)
(3.8511e-07 -6.05948e-09 -4.06484e-09)
(2.76662e-07 1.4101e-08 -2.79669e-10)
(1.70317e-07 2.11469e-08 -2.15486e-09)
(1.40636e-07 4.06134e-09 3.65675e-08)
(4.09654e-08 9.299e-09 -1.41163e-08)
(1.99665e-07 -3.10831e-09 -2.29187e-09)
(2.40598e-07 8.21082e-10 2.12261e-10)
(2.94555e-07 6.46619e-09 -1.25027e-08)
(2.59146e-07 1.41042e-09 -3.08891e-09)
(1.01047e-07 2.07457e-08 8.3062e-09)
(4.93265e-08 -2.8579e-09 -3.04175e-09)
(2.58891e-07 1.20276e-08 2.27854e-09)
(2.29289e-07 -1.69978e-08 -7.41715e-09)
(2.73401e-07 1.38804e-09 1.01056e-09)
(3.34736e-07 -1.79608e-08 -8.91467e-09)
(2.3843e-07 -5.965e-10 -5.96798e-10)
(2.72169e-07 3.77161e-09 1.41823e-08)
(4.77811e-07 2.60451e-09 -5.33974e-10)
(7.95792e-08 -4.04291e-09 1.68655e-08)
(2.476e-07 8.01975e-10 1.47319e-08)
(1.67632e-07 7.11268e-11 4.89129e-09)
(1.48195e-07 -6.59942e-09 -6.0029e-09)
(1.28496e-07 2.04384e-10 1.73741e-09)
(2.7086e-07 -1.9933e-08 2.8587e-09)
(2.58849e-07 1.3896e-09 -1.39909e-08)
(5.05298e-08 -6.62572e-09 -2.42084e-08)
(3.02876e-07 -7.51368e-09 1.09809e-08)
(2.29339e-07 7.6869e-10 -1.03954e-08)
(1.69544e-07 -4.74237e-09 -3.45765e-09)
(3.96392e-07 9.34534e-09 1.06428e-08)
(1.5202e-07 -3.78621e-09 -7.5845e-09)
(2.08644e-07 3.84733e-09 -5.97589e-09)
(3.10677e-07 -8.89332e-09 1.93889e-08)
(2.3826e-07 -5.35289e-09 -9.13781e-10)
(2.62647e-07 6.86786e-09 3.64929e-09)
(2.4414e-07 -1.2909e-08 -4.7949e-09)
(3.08172e-07 9.6346e-10 2.11757e-08)
(5.38354e-08 -7.47723e-09 -7.31735e-09)
(2.608e-07 -2.1085e-08 -1.90912e-08)
(2.80032e-07 -1.60671e-08 -7.5331e-09)
(1.75574e-07 9.17625e-09 1.90095e-08)
(2.99338e-07 1.14106e-08 7.64594e-09)
(3.00762e-07 -4.62532e-09 -6.66898e-09)
(2.87479e-07 -8.09719e-09 -3.34887e-09)
(2.32813e-07 -8.24222e-09 8.29443e-09)
(6.15297e-08 8.74998e-09 -1.35022e-08)
(2.34926e-07 1.20404e-09 1.38235e-08)
(5.09926e-07 -9.20305e-09 4.85379e-09)
(2.40972e-07 8.11895e-09 6.23219e-09)
(2.53625e-07 2.50906e-08 2.0759e-09)
(1.57379e-07 2.02296e-08 6.92504e-09)
(2.77724e-07 2.10995e-08 1.15959e-09)
(6.62718e-08 1.84023e-08 -1.44054e-08)
(1.50777e-07 5.9623e-09 -2.48326e-09)
(2.4969e-07 1.87726e-08 7.85675e-09)
(2.0754e-07 1.54289e-08 -1.43092e-08)
(2.29971e-07 1.48375e-09 1.25869e-08)
(2.71299e-07 5.34077e-09 -1.79201e-08)
(1.94678e-07 1.30631e-08 -9.69831e-09)
(1.33315e-07 2.42922e-08 1.50711e-08)
(3.82495e-07 1.17525e-09 8.60358e-09)
(1.59603e-07 1.28032e-08 2.52332e-09)
(5.0208e-08 2.53321e-09 9.83038e-09)
(2.57007e-07 1.85102e-08 1.34349e-08)
(1.95802e-07 -1.22371e-08 2.28892e-09)
(1.14311e-07 2.59469e-09 9.54075e-09)
(3.04563e-07 2.62989e-08 -1.89524e-09)
(2.44669e-07 -2.1918e-09 1.05955e-08)
(1.86188e-07 5.21312e-09 -2.975e-10)
(2.12539e-07 -1.91e-08 2.6656e-09)
(7.68335e-08 -7.24004e-09 7.60493e-09)
(2.379e-07 -6.55393e-09 -1.99188e-08)
(2.63564e-07 -1.97702e-08 -1.50407e-08)
(2.52938e-07 1.49691e-08 5.0503e-09)
(2.75435e-07 -2.00871e-08 5.23311e-09)
(7.2824e-08 -2.09657e-09 -2.03275e-08)
(3.78101e-07 -1.55959e-08 -1.06551e-08)
(2.1653e-07 6.72194e-09 -9.67286e-09)
(2.11871e-07 9.02562e-09 -2.68285e-09)
(1.30028e-07 2.1737e-08 -9.52678e-09)
(3.1583e-07 -2.04837e-09 -9.42083e-09)
(5.93802e-08 -4.33167e-09 -2.33549e-08)
(2.5208e-07 5.61831e-09 -9.69673e-09)
(6.94418e-08 -3.66828e-09 6.59377e-09)
(2.87794e-07 -5.74525e-08 -1.66146e-08)
(2.12873e-07 9.0187e-09 3.73813e-09)
(2.99754e-07 -4.95014e-09 1.9257e-08)
(4.69613e-08 9.6609e-09 1.72682e-08)
(1.47825e-07 1.57885e-08 -3.62905e-08)
(2.0651e-07 -4.1391e-08 -3.00612e-09)
(3.0287e-07 5.41544e-08 3.98874e-09)
(3.33555e-07 -1.28741e-09 -3.11477e-09)
(1.49391e-07 -7.45528e-09 -2.06664e-08)
(3.64376e-07 2.60815e-09 1.01039e-09)
(2.74722e-07 7.64834e-09 -1.88458e-08)
(1.63895e-07 4.69875e-09 1.19312e-09)
(7.7747e-08 1.36667e-08 -1.33829e-08)
(3.81839e-07 -1.80367e-08 2.63417e-08)
(2.21734e-07 1.31484e-08 3.41126e-08)
(1.84136e-07 3.42894e-09 -1.20689e-08)
(2.12142e-07 -5.79825e-09 -5.19449e-09)
(1.44418e-07 8.28072e-09 -7.53519e-09)
(2.67196e-07 -4.86996e-08 1.91093e-08)
(2.05168e-07 7.97023e-09 7.34446e-09)
(1.13529e-07 -5.20768e-09 6.77916e-09)
(1.35583e-07 3.86842e-08 -1.92673e-08)
(2.7624e-07 -1.14679e-08 -1.45822e-09)
(8.76446e-08 1.66551e-08 1.43795e-08)
(5.45501e-08 5.98826e-09 1.11074e-08)
(3.44354e-07 4.91973e-09 8.44929e-09)
(1.46894e-07 -5.40288e-10 9.49061e-09)
(3.3907e-07 -1.17415e-08 8.0644e-09)
(3.112e-07 2.82641e-08 -1.06022e-08)
(4.03737e-07 -3.93991e-09 -2.40413e-09)
(3.43237e-07 6.57843e-09 -2.33228e-08)
(4.07535e-07 6.93063e-09 -1.03614e-08)
(2.08497e-07 7.12456e-09 2.22752e-08)
(1.17209e-07 -4.02838e-10 -2.27537e-09)
(3.77145e-07 1.43979e-08 -4.13996e-08)
(5.76819e-08 5.24167e-09 -3.49872e-08)
(3.20946e-07 -2.4864e-09 5.21848e-09)
(3.13625e-07 3.82384e-08 7.03822e-09)
(6.52863e-08 -2.68413e-08 -2.00819e-08)
(3.02904e-07 1.16332e-08 -5.13208e-09)
(1.32097e-07 -6.59165e-09 6.50751e-10)
(2.19376e-07 -1.12721e-11 2.12464e-09)
(1.84688e-07 -5.22117e-09 -1.38617e-08)
(4.56182e-07 3.56459e-08 1.61485e-08)
(2.88471e-07 -4.56011e-08 1.73465e-08)
(2.47412e-07 -3.2009e-09 -8.81325e-09)
(2.81839e-07 4.211e-09 -5.79569e-09)
(2.82995e-07 -5.91543e-09 -8.75629e-09)
(2.9966e-07 -7.59883e-09 -1.6255e-09)
(2.58136e-07 1.34073e-08 -1.28398e-08)
(1.28182e-07 3.15708e-09 -2.22647e-09)
(1.08574e-07 -1.81813e-08 -1.584e-08)
(1.80255e-07 -1.65508e-10 -1.57677e-08)
(1.54059e-07 -7.74802e-09 4.96755e-09)
(2.56942e-07 -1.18539e-08 -9.12103e-09)
(9.92665e-08 -2.87503e-08 -8.47554e-09)
(2.33475e-07 2.84669e-09 -1.28439e-08)
(4.36782e-07 -1.06608e-08 -5.60607e-09)
(3.37311e-07 4.392e-09 1.82302e-08)
(3.25786e-07 3.04529e-09 2.26429e-09)
(3.54875e-07 2.6468e-08 6.97176e-09)
(4.12518e-08 4.73706e-09 1.60081e-08)
(1.97573e-07 -1.33991e-08 -1.49049e-09)
(2.24354e-07 -9.94275e-09 1.25119e-09)
(2.3963e-07 6.47088e-10 -2.63914e-09)
(2.71709e-07 7.42955e-09 -1.72143e-08)
(1.06019e-07 1.75334e-08 -5.6962e-09)
(1.84141e-07 7.27869e-09 -2.31667e-09)
(2.64697e-07 -1.13958e-08 -2.20547e-08)
(3.09984e-07 -8.25392e-09 -1.01773e-08)
(2.18636e-07 -3.32739e-09 -5.3181e-09)
(2.41013e-07 1.47909e-08 2.02524e-09)
(3.14805e-08 3.50486e-09 -1.5776e-08)
(4.89817e-08 -5.4774e-09 -1.62962e-08)
(1.48209e-07 -6.01994e-09 -1.28181e-09)
(2.47482e-07 2.08956e-08 -7.27278e-09)
(1.82374e-07 2.07263e-10 -1.22653e-08)
(1.65355e-07 1.02454e-09 -6.44404e-09)
(2.75593e-07 2.88158e-08 -3.85085e-09)
(2.4561e-07 -5.63784e-10 5.16285e-09)
(2.50619e-07 -9.25002e-10 -1.98411e-08)
(3.53011e-08 -3.60996e-09 -6.4389e-11)
(1.13455e-07 -7.62184e-09 -4.78905e-09)
(2.04525e-07 5.23032e-09 -1.14291e-08)
(1.33549e-07 -1.46917e-08 1.06822e-08)
(1.85117e-07 -1.6979e-08 6.60941e-10)
(3.50628e-07 -1.14755e-08 6.42077e-09)
(2.38012e-07 -1.16493e-08 -1.40385e-08)
(2.33779e-07 -7.22832e-10 -1.56808e-09)
(3.3299e-07 -6.28166e-09 -1.00746e-08)
(2.30434e-07 8.08654e-09 -1.02828e-08)
(2.83925e-07 6.87495e-09 -1.26452e-08)
(3.01447e-07 3.91391e-09 3.60631e-09)
(3.9628e-07 3.11225e-08 5.47494e-09)
(1.93614e-07 -4.00615e-09 3.08524e-09)
(1.94078e-07 -5.05925e-09 7.87117e-09)
(2.63536e-07 6.70946e-09 -1.67205e-08)
(1.47881e-07 -2.79027e-08 1.9494e-08)
(5.52234e-07 6.65918e-09 -1.50456e-08)
(1.14621e-07 2.40495e-09 -1.21456e-08)
(1.95451e-07 1.13717e-09 -3.12914e-08)
(2.44348e-07 -1.21021e-08 4.09158e-08)
(1.91902e-07 -4.22472e-09 -7.46638e-09)
(2.82481e-07 2.83024e-09 -1.98699e-09)
(3.78459e-07 -5.27898e-09 -2.31256e-08)
(1.21112e-07 5.63735e-09 8.02409e-10)
(3.11748e-07 -7.7728e-09 4.87135e-09)
(3.03901e-07 1.2884e-08 -4.11361e-09)
(1.8159e-07 7.65416e-09 4.18581e-09)
(9.25332e-08 3.46946e-08 -1.25619e-08)
(1.39664e-07 -8.70463e-10 1.93965e-10)
(2.65259e-07 1.37235e-08 -3.32335e-08)
(1.83776e-07 5.06345e-09 8.72666e-09)
(1.33286e-07 -4.43565e-09 2.73022e-09)
(2.64634e-07 -7.58341e-09 -1.2191e-08)
(2.36233e-07 4.56909e-09 -2.87083e-09)
(4.83055e-07 -2.43702e-08 -1.60243e-08)
(1.36723e-07 -1.92874e-08 7.9673e-09)
(1.17068e-07 1.29668e-08 1.98726e-08)
(6.3886e-08 -5.92109e-10 -1.67922e-08)
(5.19836e-08 -6.03487e-09 -6.86551e-09)
(1.23525e-07 6.4081e-10 -2.69426e-09)
(2.81723e-07 2.1484e-08 2.67836e-09)
(2.1406e-07 -3.09256e-09 -1.12357e-09)
(5.32193e-08 8.45368e-09 1.82677e-08)
(4.72383e-08 1.51563e-08 1.50948e-08)
(3.22052e-07 2.12809e-08 8.79441e-09)
(2.49645e-07 -2.60402e-08 -6.1915e-09)
(1.29255e-07 8.81206e-09 8.87995e-09)
(2.35217e-07 1.20859e-08 -1.22278e-08)
(1.71171e-07 -9.38083e-09 -6.11463e-09)
(2.30168e-07 -3.46388e-10 -4.77709e-09)
(1.00004e-07 1.15313e-08 -1.46752e-08)
(2.15642e-07 -2.63284e-08 2.45077e-08)
(2.54564e-07 -4.63241e-09 -3.0372e-09)
(2.45838e-07 1.0514e-08 -6.00075e-09)
(3.65579e-07 2.04795e-08 -1.70547e-08)
(1.62299e-07 3.83131e-08 -3.7167e-08)
(7.05358e-08 4.97124e-09 1.43539e-08)
(2.64707e-07 -2.92711e-08 1.32237e-08)
(8.90307e-08 -2.39642e-08 -1.87956e-08)
(3.73301e-07 2.12997e-08 1.54621e-08)
(7.7297e-08 1.08043e-08 -3.75602e-08)
(2.35578e-07 8.85942e-09 -2.43641e-09)
(2.64011e-07 5.71133e-09 -2.37434e-09)
(4.39802e-07 -6.25693e-09 4.81266e-09)
(1.41564e-07 -2.1194e-08 -1.70785e-08)
(2.56057e-07 -1.78546e-08 -1.00837e-08)
(8.31003e-08 -1.52733e-09 -1.58038e-08)
(9.33934e-08 2.10926e-08 -8.67536e-09)
(2.29803e-07 -1.12912e-08 3.75907e-10)
(4.17664e-08 3.77262e-09 -1.79313e-08)
(1.67968e-07 -6.32857e-09 6.05514e-09)
(1.75368e-07 -1.38219e-08 -9.3068e-09)
(3.12003e-07 -6.27448e-09 7.34379e-09)
(2.43531e-07 -2.10201e-08 -9.06981e-09)
(5.90103e-08 6.31508e-09 1.91121e-08)
(3.35235e-07 -4.82189e-09 -6.82465e-09)
(2.57671e-07 -1.19036e-08 -1.30555e-08)
(9.47904e-08 -2.5976e-08 -9.53916e-09)
(2.55751e-07 3.49034e-09 6.32078e-09)
(1.93584e-07 -9.46662e-09 2.3471e-08)
(3.10866e-07 -5.46282e-09 -2.1059e-08)
(1.93237e-07 5.28056e-09 4.49547e-10)
(1.7551e-07 6.84963e-09 3.15337e-08)
(6.06146e-08 1.14587e-09 -2.74021e-08)
(2.46496e-07 8.16377e-09 4.13678e-08)
(3.44802e-07 1.9509e-08 1.08143e-10)
(3.66796e-07 -1.0509e-09 6.20302e-11)
(1.93089e-07 3.80388e-09 2.0423e-08)
(3.68974e-07 1.21144e-08 2.12928e-09)
(6.81009e-08 -8.36086e-09 4.04988e-09)
(1.67621e-07 4.38487e-09 1.7993e-09)
(8.02887e-08 7.38393e-09 1.09514e-08)
(3.46633e-07 -2.04415e-08 1.11501e-08)
(3.64564e-07 -2.38411e-08 4.07044e-09)
(1.99788e-07 4.87817e-09 4.76276e-09)
(5.4069e-08 1.10146e-08 2.51444e-09)
(4.06868e-07 8.19672e-10 1.22288e-10)
(2.78165e-07 9.11392e-09 -9.26673e-09)
(3.37404e-07 1.82958e-08 7.21752e-09)
(1.42636e-07 -1.17267e-08 3.79868e-09)
(2.84607e-07 -1.61711e-09 -7.97416e-09)
(2.71374e-07 -2.27153e-10 -8.14114e-09)
(1.58153e-07 -6.32425e-09 -2.39313e-08)
(1.92131e-07 -1.86331e-09 -4.70942e-09)
(2.96954e-07 -1.01099e-08 -2.83227e-08)
(2.37014e-07 -5.87089e-10 -1.65172e-09)
(1.06001e-07 1.09349e-08 -2.35208e-08)
(3.36099e-07 -1.81452e-08 -3.0896e-08)
(1.7126e-07 3.26822e-09 4.14344e-09)
(2.7528e-07 -6.44469e-10 6.91863e-09)
(1.05549e-07 5.15796e-08 7.2355e-09)
(3.38109e-07 1.10329e-08 -1.82651e-09)
(3.71371e-07 -7.84625e-08 3.83498e-08)
(6.36388e-08 -1.97254e-08 1.73737e-08)
(1.68753e-07 1.32597e-09 7.77722e-09)
(2.09422e-07 2.96868e-09 2.1406e-08)
(4.18802e-07 1.19751e-08 2.29573e-08)
(1.8062e-07 2.51597e-09 7.30737e-09)
(1.61189e-07 -2.35911e-09 3.54367e-09)
(2.76052e-07 6.23208e-09 -1.07655e-08)
(3.46386e-07 -2.90988e-09 1.8004e-08)
(1.57428e-07 1.59692e-08 1.0075e-08)
(2.32716e-07 -2.5621e-08 -1.99993e-08)
(3.4303e-07 5.50914e-09 -4.16992e-09)
(3.06701e-07 1.60019e-08 1.30997e-08)
(2.65416e-07 2.54775e-08 3.09009e-09)
(2.46247e-07 4.90801e-09 -4.11478e-11)
(2.60155e-07 3.97094e-10 -1.2239e-08)
(3.68582e-07 -8.80112e-09 1.44242e-09)
(1.84564e-07 1.0599e-09 1.25712e-11)
(3.28492e-07 -1.24962e-08 -1.47038e-08)
(3.69733e-07 -1.88039e-08 2.81064e-08)
(1.36736e-07 -1.76e-08 -4.09994e-08)
(3.75529e-07 8.29085e-09 -1.49574e-08)
(1.17398e-07 -6.77174e-09 -1.81401e-08)
(3.12743e-07 -1.13152e-08 -9.02785e-09)
(2.9137e-07 4.21706e-09 1.46299e-08)
(3.21575e-07 -2.06382e-08 8.30386e-11)
(2.58062e-07 -2.4683e-08 -9.5217e-09)
(4.08489e-08 1.06038e-08 2.51304e-09)
(2.1926e-07 -2.3151e-09 -9.07468e-09)
(1.7932e-07 3.67193e-09 7.8635e-10)
(2.34451e-07 2.12545e-10 1.35421e-08)
(1.95067e-07 1.3741e-08 -7.3227e-09)
(2.98697e-07 -2.80931e-09 -6.05889e-09)
(2.86259e-07 5.47655e-09 -1.37006e-08)
(1.37018e-07 3.38915e-09 1.15747e-08)
(1.59214e-07 1.14586e-08 1.13334e-08)
(2.66654e-07 1.23228e-08 -1.73256e-08)
(7.99773e-08 -3.18469e-08 -4.3219e-09)
(2.03182e-07 -2.14985e-09 2.67775e-09)
(1.48479e-07 7.56132e-09 -5.68828e-09)
(2.46989e-07 5.42788e-09 -1.63203e-08)
(9.14074e-08 1.28818e-08 2.62942e-08)
(3.69625e-07 1.55148e-08 1.58479e-08)
(2.44387e-07 2.41894e-09 -4.31833e-09)