/*--------------------------------*- C++ -*----------------------------------*\
| =========                 |                                                 |
| \\      /  F ield         | OpenFOAM: The Open Source CFD Toolbox           |
|  \\    /   O peration     | Version:  2406                                  |
|   \\  /    A nd           | Website:  www.openfoam.com                      |
|    \\/     M anipulation  |                                                 |
\*---------------------------------------------------------------------------*/
FoamFile
{
    version     2.0;
    format      ascii;
    arch        "LSB;label=32;scalar=64";
    class       volVectorField;
    location    "4";
    object      momentum:angularMomentum;
}
// * * * * * * * * * * * * * * * * * * * * * * * * * * * * * * * * * * * * * //

dimensions      [1 1 -1 0 0 0 0];

internalField   nonuniform List<vector> 
59516
(
(3.18848e-08 1.34893e-08 3.56606e-07)
(-1.72208e-08 1.43792e-08 3.01536e-07)
(8.2396e-09 -5.63685e-09 2.69195e-07)
(3.24295e-09 3.23823e-09 1.9466e-07)
(-1.39525e-09 -1.13589e-10 2.51743e-07)
(-6.19542e-09 6.59467e-09 6.18429e-08)
(-8.93301e-09 3.00786e-09 2.64144e-07)
(-1.70297e-08 1.7807e-08 3.28263e-07)
(5.28758e-09 -1.2437e-09 2.27169e-07)
(3.58867e-08 1.47886e-08 1.90759e-07)
(-5.17575e-09 6.18471e-09 1.99884e-07)
(8.57331e-10 2.66439e-08 2.19488e-07)
(-1.23909e-09 -3.95865e-08 4.48994e-07)
(3.59945e-09 4.66792e-09 4.97959e-08)
(-5.01146e-08 -4.3215e-08 3.72291e-07)
(-1.47091e-08 3.263e-08 2.14249e-07)
(-2.66352e-09 1.2204e-08 2.38731e-07)
(1.11671e-08 -2.1178e-08 2.80883e-07)
(-2.06031e-08 -1.12694e-08 4.75285e-07)
(4.63761e-09 7.7443e-09 3.24379e-07)
(5.41378e-09 9.20773e-09 2.04293e-07)
(-4.09756e-09 -1.67874e-09 3.37549e-07)
(-7.75256e-09 1.44657e-08 3.54259e-07)
(9.54485e-09 -1.62498e-08 1.09865e-07)
(5.90785e-09 1.52315e-08 3.42112e-07)
(-5.58846e-08 1.16282e-08 4.88324e-07)
(3.34858e-09 -1.87088e-08 1.51386e-07)
(-3.11799e-08 2.74415e-08 1.45902e-07)
(3.16782e-08 -1.14524e-08 2.99997e-07)
(1.01324e-08 3.07873e-09 4.30302e-08)
(-1.41043e-08 -1.53347e-08 2.65367e-07)
(-5.19423e-08 -6.13142e-09 1.93362e-07)
(-1.03356e-08 6.70542e-09 2.07191e-07)
(-1.40225e-08 -9.41727e-09 2.4809e-07)
(-1.33119e-08 7.37755e-09 1.35431e-07)
(-1.19472e-08 -1.34046e-09 5.04673e-07)
(-1.6762e-08 -5.36587e-09 4.67803e-08)
(-9.882e-09 9.05529e-09 2.19217e-07)
(4.40848e-09 -1.02649e-08 4.42451e-07)
(9.1877e-09 -9.11097e-09 2.84294e-07)
(-1.58149e-08 -1.46545e-08 3.90069e-07)
(-7.31285e-09 9.38402e-09 4.38187e-07)
(-2.66549e-08 -1.6491e-08 3.76791e-07)
(-4.81292e-09 1.29146e-08 1.53729e-07)
(-3.00786e-09 -9.14931e-09 2.97745e-07)
(7.12915e-08 8.70139e-09 2.61181e-07)
(3.1031e-08 2.83074e-08 4.15484e-07)
(-2.60027e-09 -3.21484e-09 2.37131e-07)
(1.45449e-08 -1.59473e-09 3.56202e-07)
(3.20916e-09 1.30442e-09 2.20296e-07)
(-1.12922e-08 1.463e-08 2.33082e-07)
(-1.99197e-08 6.59737e-09 1.8041e-07)
(1.50322e-08 -1.6132e-08 4.5938e-07)
(3.05812e-09 3.93926e-09 4.08015e-07)
(-2.30422e-08 -8.26229e-09 2.37765e-07)
(-2.40207e-08 1.01058e-08 2.87694e-07)
(5.42472e-09 -2.58259e-09 1.88615e-07)
(-3.73721e-08 2.71811e-08 2.24037e-07)
(9.67695e-10 8.81276e-09 1.74337e-07)
(1.91432e-09 -1.27995e-09 1.54279e-07)
(3.08282e-09 1.38701e-08 2.13798e-07)
(2.31439e-09 -2.39424e-09 5.05207e-08)
(-2.15081e-09 -8.5268e-09 2.52843e-07)
(-4.62638e-09 -6.78621e-10 2.90093e-07)
(-1.12651e-08 -1.86082e-08 3.6917e-07)
(1.8513e-09 -6.14406e-09 2.11322e-07)
(2.94014e-09 8.08316e-09 5.60172e-08)
(-2.24601e-08 -4.93268e-09 1.91404e-07)
(-6.3716e-09 2.12291e-08 2.75337e-07)
(5.6916e-09 3.51442e-09 1.78521e-07)
(-4.77677e-09 -6.00019e-09 1.30635e-07)
(-5.27988e-09 2.43141e-10 1.37863e-07)
(2.71482e-08 -6.02905e-09 7.35844e-08)
(-5.64754e-09 6.56195e-09 1.91396e-07)
(-8.11931e-09 5.13842e-09 2.96262e-07)
(3.73183e-09 1.33522e-09 3.48511e-07)
(-8.65315e-09 -1.29778e-08 1.854e-07)
(-9.23277e-09 -1.78891e-08 2.5807e-07)
(2.37131e-08 -6.60049e-09 2.07804e-07)
(1.60807e-08 -5.28418e-09 1.74373e-07)
(-2.19508e-08 -1.65298e-08 1.53299e-07)
(-6.66976e-09 3.69923e-09 1.6917e-07)
(6.42286e-11 -1.08327e-08 1.74985e-07)
(-1.93767e-08 4.13655e-09 7.50585e-08)
(-3.89135e-09 2.10142e-09 2.00623e-07)
(-8.58798e-09 -8.0714e-09 3.12398e-07)
(2.18928e-09 3.07601e-08 9.48765e-08)
(-4.09747e-09 7.78268e-09 5.45085e-07)
(-5.38383e-08 -5.94268e-09 2.95048e-07)
(-1.47743e-09 1.93214e-08 2.21073e-07)
(7.07711e-09 9.13482e-09 2.05011e-07)
(1.27323e-08 -4.12213e-09 2.22112e-07)
(3.91131e-09 -1.00025e-08 2.11088e-07)
(9.25379e-10 -4.51583e-09 1.79313e-07)
(4.01836e-09 -5.57244e-09 1.60027e-07)
(1.03202e-08 1.21248e-08 2.45915e-07)
(-2.47618e-09 1.9819e-09 1.40906e-07)
(1.57759e-08 1.067e-08 2.11542e-07)
(-5.90943e-09 1.09388e-08 2.06653e-07)
(-8.51628e-10 -2.70865e-09 2.22782e-07)
(-1.75962e-08 2.3544e-08 2.04501e-07)
(1.78894e-08 5.44969e-09 8.3778e-08)
(2.38674e-08 -4.03978e-09 6.15782e-08)
(1.57663e-08 9.17917e-09 1.92871e-07)
(5.15915e-09 4.03798e-09 2.72051e-07)
(-4.83904e-10 -1.10369e-09 1.66605e-07)
(2.65931e-08 -1.77715e-09 1.66323e-07)
(-1.81036e-09 2.31992e-09 1.92265e-07)
(-9.04892e-09 -2.05174e-08 2.88504e-07)
(-2.80531e-08 9.80431e-09 4.09559e-07)
(-7.47159e-09 -1.57564e-08 3.45863e-07)
(3.22251e-08 -1.91258e-08 1.2964e-07)
(2.46134e-08 -8.63874e-10 4.13922e-07)
(-5.28736e-09 8.32909e-09 2.7305e-07)
(-1.36421e-08 1.3589e-08 2.0621e-07)
(-1.38889e-08 1.24106e-09 2.08187e-07)
(-5.05973e-08 -1.62194e-08 3.67883e-07)
(1.30216e-08 -2.42983e-09 1.54743e-07)
(-1.00901e-08 5.33463e-09 4.59356e-08)
(3.28326e-09 -2.72872e-10 3.22005e-07)
(-1.1465e-08 -2.7274e-09 3.54982e-07)
(5.21702e-09 -1.10276e-09 1.50349e-07)
(-2.50733e-09 -5.69368e-09 1.56684e-07)
(-2.74784e-09 -4.70835e-09 1.49692e-07)
(2.4741e-09 -8.00629e-09 1.58505e-07)
(1.23934e-08 -1.37671e-08 2.56074e-07)
(-2.25028e-08 -5.95209e-09 9.80343e-08)
(2.55737e-09 -1.60265e-08 2.51591e-07)
(-1.50128e-08 3.8392e-08 2.43579e-07)
(2.51493e-09 4.79503e-09 1.26177e-07)
(6.71185e-09 1.05588e-08 2.24496e-07)
(5.67305e-09 4.22345e-09 4.66785e-07)
(-1.74448e-08 -2.56347e-09 5.73354e-08)
(1.40326e-09 8.90254e-09 2.66033e-07)
(-1.61373e-08 1.4803e-08 5.31424e-07)
(6.60882e-09 -2.60279e-10 2.69622e-07)
(-1.25127e-08 -3.65588e-09 1.99607e-07)
(7.46347e-09 -4.67827e-09 3.79822e-07)
(-5.41033e-09 8.87791e-09 1.61931e-07)
(-7.79376e-09 1.39698e-09 2.51276e-07)
(-8.21337e-09 2.02628e-08 2.11475e-07)
(8.43875e-09 -3.46886e-09 2.99985e-07)
(-6.12062e-09 -3.17035e-09 3.72096e-08)
(-8.26587e-09 1.01493e-09 1.90442e-07)
(-5.12865e-09 7.14542e-10 1.66737e-07)
(-1.4641e-08 9.29298e-10 2.92979e-07)
(-4.03908e-09 -2.55815e-09 2.42779e-07)
(8.86431e-09 -2.861e-08 2.46532e-07)
(1.01981e-08 -6.1703e-09 9.93507e-08)
(-9.87727e-09 1.7511e-09 3.17159e-07)
(-3.16973e-09 1.39452e-09 4.5349e-07)
(-5.90187e-09 3.39744e-08 1.60383e-07)
(-1.16714e-09 -1.83462e-09 3.62257e-07)
(1.39663e-08 -1.49258e-08 2.24724e-07)
(1.97333e-08 3.17349e-09 2.54596e-07)
(-1.00126e-08 2.28996e-09 3.44341e-08)
(1.05387e-08 -4.38937e-08 4.13227e-07)
(1.52364e-08 1.55163e-08 4.08638e-07)
(-3.50627e-10 5.20515e-09 2.09704e-07)
(-1.69172e-08 7.7402e-09 4.81846e-08)
(-1.7759e-08 1.68755e-08 1.78743e-07)
(-1.56235e-08 -2.52648e-08 2.26314e-07)
(-2.5368e-08 2.90878e-08 1.39659e-07)
(-1.4606e-10 -2.81491e-09 5.41255e-08)
(-1.5112e-08 -1.0855e-10 2.6917e-07)
(-1.23964e-08 -4.79484e-09 2.99229e-07)
(3.43895e-08 9.6413e-09 4.04996e-07)
(1.18734e-08 1.10791e-09 2.41595e-07)
(2.07453e-08 3.95552e-09 3.64008e-08)
(-3.26929e-09 8.28993e-09 2.08825e-07)
(9.26423e-10 1.19128e-08 1.49332e-07)
(6.64648e-09 -6.17016e-09 1.62579e-07)
(8.13992e-09 -3.14329e-08 2.21292e-07)
(2.94546e-09 8.91691e-09 1.6328e-07)
(-2.10108e-09 1.46617e-08 2.11599e-07)
(1.75153e-08 2.98505e-08 5.14574e-07)
(-6.30354e-09 7.55686e-09 2.02922e-07)
(-1.16985e-08 -2.21534e-08 3.50291e-07)
(3.33744e-08 -2.49812e-08 3.24813e-07)
(-1.27717e-08 -2.44361e-08 1.41692e-07)
(3.61958e-09 -7.62839e-09 3.41243e-07)
(1.79167e-08 1.71158e-08 1.28604e-07)
(-1.36018e-08 -7.52323e-09 9.49259e-08)
(-1.68583e-08 8.07669e-09 2.3112e-07)
(1.82288e-10 -5.15282e-09 1.72962e-07)
(3.00849e-09 -1.23332e-08 2.45766e-07)
(-3.4995e-09 9.59851e-10 1.1836e-07)
(-7.35022e-09 1.09461e-08 6.10837e-08)
(-2.66991e-09 -4.51617e-10 2.50661e-07)
(-2.1211e-08 -4.67123e-08 3.89404e-07)
(-1.72568e-09 1.04291e-08 1.68324e-07)
(2.92316e-08 -1.70666e-08 3.07605e-07)
(1.10129e-08 -1.66444e-09 1.84618e-07)
(-2.73771e-09 -1.7668e-08 2.38073e-07)
(-1.31111e-08 2.71882e-09 3.3956e-07)
(1.09558e-08 9.23054e-09 8.96796e-08)
(1.01038e-08 -1.29625e-08 2.20568e-07)
(1.11978e-08 1.65805e-08 1.71155e-07)
(8.72297e-09 1.8225e-08 2.57711e-07)
(-3.71556e-09 2.35353e-08 2.63673e-07)
(1.34093e-08 8.64601e-09 1.24431e-07)
(3.83037e-09 6.41489e-09 1.5746e-07)
(-1.67181e-08 -1.31626e-09 4.85564e-07)
(1.87696e-08 -6.2131e-09 3.89152e-08)
(1.93144e-08 6.21757e-09 3.13278e-07)
(-1.44029e-08 2.80049e-09 2.95043e-07)
(-1.09486e-08 6.84062e-09 2.75433e-07)
(-7.70166e-09 3.00723e-09 1.7659e-07)
(-2.66757e-09 -8.25412e-10 5.6614e-08)
(8.9082e-09 -1.01655e-08 4.42714e-07)
(1.82642e-08 1.36882e-08 1.62728e-07)
(-2.515e-08 1.37925e-08 6.26066e-08)
(6.30406e-09 -8.79154e-09 2.40636e-07)
(1.58486e-08 5.80453e-09 2.41971e-07)
(-1.20989e-08 9.76929e-09 4.04967e-07)
(-4.27068e-09 -1.90663e-08 2.56943e-07)
(-1.45611e-08 4.22125e-09 2.65112e-07)
(-1.21631e-09 4.01595e-09 2.12377e-07)
(-5.19816e-09 -3.21426e-09 2.03799e-07)
(-9.57295e-09 8.34135e-09 2.0439e-07)
(-3.03208e-08 -4.09182e-08 3.19103e-07)
(-2.13253e-08 1.27573e-08 2.80363e-07)
(-5.94414e-10 1.29786e-09 1.55134e-07)
(1.58058e-08 9.37683e-09 1.76693e-07)
(-6.56688e-09 8.25627e-09 2.59537e-07)
(6.52897e-09 3.26769e-09 2.74344e-07)
(-4.45953e-09 -6.56377e-09 8.68658e-08)
(-2.31921e-08 -4.02176e-09 1.68729e-07)
(-1.17402e-08 -5.21765e-09 1.68014e-07)
(-1.78346e-08 4.0696e-09 3.02279e-07)
(8.24287e-10 3.92869e-09 2.06012e-07)
(-4.26347e-09 1.61424e-09 1.65954e-07)
(7.50879e-09 -2.47575e-08 2.37823e-07)
(-1.98405e-08 -1.1479e-08 6.51674e-08)
(-1.34329e-08 -2.20526e-08 1.10635e-07)
(-2.00264e-08 -1.90626e-08 9.19356e-08)
(1.74291e-08 -8.09934e-09 2.28052e-07)
(-2.39707e-08 9.19681e-09 2.71613e-07)
(-1.75641e-08 -2.0373e-08 3.99038e-07)
(9.00589e-09 7.82473e-09 2.62889e-07)
(8.84379e-09 -6.09074e-09 1.96042e-07)
(2.1847e-08 -8.38635e-10 5.92561e-08)
(-4.29772e-08 -4.03646e-09 2.72047e-07)
(1.60273e-08 -7.11179e-09 7.22646e-08)
(-2.96889e-09 1.13172e-08 1.25532e-07)
(-1.64821e-08 -5.8092e-09 2.59504e-07)
(2.5398e-09 -1.22824e-09 1.96787e-07)
(3.02025e-08 -2.25534e-09 4.27919e-07)
(-1.09335e-08 -8.57282e-09 2.6337e-07)
(4.12024e-09 2.1141e-09 2.93057e-07)
(1.24718e-09 -4.04835e-08 3.63007e-07)
(-1.92317e-08 -2.5242e-08 2.47774e-07)
(-5.51951e-10 -4.18021e-10 1.42238e-07)
(-9.48768e-09 8.75618e-09 2.95706e-07)
(1.37028e-08 -2.93956e-08 2.96121e-07)
(4.3445e-10 -1.29673e-08 2.90569e-07)
(-1.94089e-08 -2.74314e-09 2.605e-07)
(-1.48784e-08 -1.1061e-08 2.8911e-07)
(5.3595e-09 2.40374e-08 2.29583e-07)
(4.13699e-08 1.48085e-08 2.16191e-07)
(1.71343e-08 -1.19313e-08 2.79217e-07)
(-3.53264e-08 -7.80586e-09 2.46874e-07)
(-6.18521e-09 2.00556e-08 3.28303e-07)
(-9.84579e-09 4.06608e-09 2.49714e-07)
(-4.19589e-09 -4.85188e-09 9.87243e-08)
(-2.49623e-09 -4.17209e-09 2.67767e-07)
(2.87862e-08 -1.1595e-08 3.26027e-07)
(-3.05967e-08 3.13392e-10 4.22573e-07)
(9.52903e-09 -5.17673e-08 1.74108e-07)
(1.04776e-10 3.34764e-09 1.76354e-07)
(-2.15386e-08 -2.98953e-09 2.85818e-07)
(2.15322e-09 -2.65804e-09 1.62574e-07)
(-9.61745e-11 -3.32336e-08 5.50058e-07)
(2.34342e-08 1.11592e-08 2.92224e-07)
(-2.02194e-08 -1.76835e-08 2.95661e-07)
(5.26733e-09 -1.99085e-08 3.39069e-07)
(-1.63247e-08 -1.28072e-08 3.90675e-08)
(-1.15691e-09 1.39882e-08 2.94532e-07)
(2.94831e-08 -6.80827e-09 8.0891e-08)
(4.92571e-09 5.42416e-10 1.52533e-07)
(-7.97675e-09 -1.20263e-08 2.77294e-07)
(1.19596e-08 5.10953e-09 2.75442e-07)
(-2.1254e-08 -1.50832e-08 8.32166e-08)
(-1.03187e-08 3.37033e-08 4.05288e-07)
(4.70176e-09 1.74912e-08 3.1283e-07)
(7.40634e-09 -9.91624e-10 2.26586e-07)
(-1.62936e-08 -2.99162e-09 2.65843e-07)
(2.33407e-08 -3.37848e-09 6.33258e-08)
(-9.61363e-09 -1.18076e-10 2.33398e-07)
(-1.58744e-09 -3.51683e-09 1.04941e-07)
(-1.57471e-09 -4.87722e-09 1.36251e-07)
(-6.62901e-09 1.86912e-08 2.7666e-07)
(6.90566e-09 -1.90334e-09 1.71186e-07)
(1.54885e-08 -1.26907e-08 2.82267e-07)
(3.57749e-09 2.80619e-09 2.35097e-07)
(-2.9395e-09 2.20769e-08 1.09495e-07)
(7.89566e-09 3.0557e-09 2.53789e-07)
(1.32656e-08 6.43844e-09 2.36639e-07)
(-4.85647e-09 -5.7409e-09 3.11968e-07)
(-1.01947e-09 -1.1093e-08 2.31359e-07)
(1.69747e-08 1.69661e-08 4.60902e-07)
(1.72841e-08 2.13593e-08 3.41078e-07)
(-1.21348e-08 1.37001e-09 5.22918e-08)
(1.91218e-08 1.64311e-08 7.70327e-08)
(7.74039e-09 8.35102e-09 5.08891e-07)
(-2.0325e-08 -4.59538e-09 5.82866e-08)
(-1.38152e-08 -3.88571e-08 3.71213e-07)
(3.291e-08 2.62032e-08 1.71988e-07)
(2.48242e-08 1.01783e-08 2.90311e-07)
(8.64943e-09 1.26539e-08 4.08963e-07)
(1.1478e-08 3.67027e-09 3.57152e-07)
(1.48032e-08 2.71651e-09 2.65272e-07)
(1.52653e-08 -8.71505e-09 4.63424e-07)
(-5.82151e-09 1.36979e-08 1.82739e-07)
(2.844e-08 -1.15397e-08 1.97029e-07)
(1.2345e-08 -2.27377e-09 1.83336e-07)
(4.15185e-09 2.84005e-09 2.56221e-07)
(-1.03561e-08 -1.06299e-08 3.51679e-07)
(-8.4363e-09 1.37608e-08 3.15366e-07)
(-7.89769e-09 1.02526e-08 1.78383e-07)
(1.29213e-08 3.90958e-09 2.30146e-07)
(2.26218e-09 2.01126e-10 2.96712e-07)
(1.44897e-09 -2.826e-09 1.97378e-07)
(4.88796e-09 2.63431e-08 3.62108e-07)
(2.92084e-10 6.45688e-09 1.95134e-07)
(-5.92357e-09 3.842e-08 4.79882e-07)
(-2.1879e-08 2.99557e-08 2.6273e-07)
(1.20292e-08 5.1647e-09 4.14596e-07)
(1.06668e-08 -1.86486e-08 2.21065e-07)
(1.40035e-09 2.80982e-09 1.81527e-07)
(2.59264e-09 1.3455e-08 3.2941e-07)
(-1.47894e-08 -1.72388e-08 2.28222e-07)
(1.61079e-08 -1.57339e-08 5.77889e-08)
(6.76092e-09 4.74151e-09 2.9831e-07)
(-2.58812e-09 8.01239e-09 1.52249e-07)
(-1.58652e-08 -1.80863e-08 7.55577e-08)
(-1.19759e-08 -1.87668e-08 3.76177e-07)
(7.00249e-09 -1.7954e-08 2.14595e-07)
(-5.94305e-09 -1.40081e-08 2.26531e-07)
(-6.61335e-09 1.17604e-08 2.17164e-07)
(-1.44266e-09 2.95923e-09 3.12465e-07)
(-1.76686e-09 -2.4228e-08 3.74756e-07)
(6.16086e-09 3.29591e-09 2.39991e-07)
(3.069e-09 -1.16302e-08 8.25061e-08)
(-1.59406e-08 -4.47659e-09 3.21653e-07)
(-6.04317e-09 -8.47623e-10 1.82994e-07)
(-2.37474e-09 1.02647e-09 2.24179e-07)
(-6.95401e-09 -8.85479e-09 2.47523e-07)
(6.40015e-09 -7.75493e-09 2.0197e-07)
(-6.00726e-09 -5.34545e-09 1.90834e-07)
(-1.39686e-08 1.78484e-10 2.70592e-07)
(-2.60673e-08 1.42329e-09 2.72038e-07)
(-1.50288e-09 1.1534e-08 2.43366e-07)
(-3.21574e-09 3.82815e-09 1.83164e-07)
(1.0017e-09 -1.74259e-08 5.62194e-08)
(8.69123e-10 2.51761e-08 1.27771e-07)
(1.88639e-08 -9.87025e-10 3.73939e-07)
(-3.79873e-09 3.72261e-08 4.12292e-07)
(1.30896e-08 -1.06422e-08 1.48712e-07)
(-1.66557e-08 2.65147e-09 1.99747e-07)
(6.16233e-09 -1.53694e-08 3.89249e-07)
(1.91752e-08 3.78043e-09 3.9033e-07)
(5.19394e-09 -2.48313e-09 2.05187e-07)
(1.96496e-08 -2.43132e-09 3.72189e-07)
(3.14698e-09 -4.01291e-09 4.23433e-07)
(4.48504e-09 5.15477e-11 2.24499e-07)
(9.03501e-09 2.88274e-09 1.3115e-07)
(3.71891e-09 -1.94533e-08 5.72305e-08)
(3.85233e-09 1.32829e-08 3.11425e-07)
(-1.89577e-08 3.70932e-09 1.97345e-07)
(-2.60938e-08 -1.78561e-08 1.99198e-07)
(1.97575e-08 -9.68516e-09 1.78951e-07)
(1.97781e-10 -7.38149e-09 1.62325e-07)
(2.29303e-08 4.80727e-09 2.94526e-07)
(-1.21287e-09 -1.05757e-08 2.37802e-07)
(-1.70611e-08 1.4704e-08 3.10678e-08)
(-8.78259e-09 -3.57547e-09 1.96373e-07)
(6.94214e-09 3.19014e-08 1.67015e-07)
(-3.86937e-09 -8.06848e-09 1.80951e-07)
(-5.81136e-09 1.63109e-08 1.18882e-07)
(7.35872e-08 -1.40947e-08 3.02866e-07)
(1.57329e-08 -6.75743e-09 3.09463e-07)
(-2.00867e-08 2.9795e-09 1.50173e-07)
(1.77492e-08 -3.20752e-09 5.37086e-08)
(7.68106e-09 2.57924e-08 2.68868e-07)
(-4.43778e-09 1.54535e-08 2.75281e-07)
(-1.01534e-08 2.93226e-09 6.64971e-08)
(2.44732e-08 1.62142e-08 3.46719e-07)
(-8.57111e-09 2.10478e-08 2.5331e-07)
(1.61609e-08 3.19693e-08 3.67842e-07)
(6.79579e-09 3.06563e-08 3.4248e-07)
(8.40098e-09 3.51708e-09 1.63675e-07)
(3.14667e-08 -8.37109e-09 4.11858e-07)
(-3.95599e-09 -2.39983e-08 2.15687e-07)
(8.79665e-09 -3.07111e-09 2.76983e-07)
(-1.03304e-08 -7.0057e-09 2.04204e-07)
(8.72943e-08 2.72071e-08 3.10175e-07)
(1.45458e-08 1.7017e-08 3.88298e-07)
(5.50419e-09 2.00878e-09 2.36291e-07)
(1.31415e-08 -1.25054e-08 5.17207e-07)
(-1.89772e-08 2.07027e-08 1.72769e-07)
(1.2252e-08 6.6803e-09 4.10304e-07)
(6.19105e-09 3.52822e-10 1.84379e-07)
(-2.43259e-09 1.11385e-08 3.95855e-07)
(3.86151e-09 -4.14126e-09 2.75269e-07)
(7.07869e-09 5.19235e-09 1.81515e-07)
(-3.09804e-09 -2.319e-09 2.62956e-07)
(-2.04121e-08 3.69968e-09 4.26983e-07)
(4.63473e-09 3.79622e-09 2.44898e-07)
(6.02381e-09 2.15862e-09 1.99304e-07)
(2.34655e-08 8.96344e-09 9.16437e-08)
(-2.16153e-08 6.90391e-09 5.77646e-08)
(6.75357e-09 -2.5643e-09 3.53521e-07)
(1.40694e-08 2.58565e-10 2.602e-07)
(-9.68417e-09 1.15824e-08 1.96922e-07)
(-2.06717e-08 -1.50191e-08 1.00229e-07)
(1.17155e-09 6.81174e-09 7.24643e-08)
(-1.31561e-08 2.79711e-08 4.93169e-07)
(-5.11725e-09 4.35858e-09 1.43768e-07)
(-3.54441e-09 -4.30827e-09 2.92146e-07)
(-8.82906e-09 8.49944e-09 2.46291e-07)
(5.47958e-09 -1.12299e-08 1.93314e-07)
(5.96384e-09 -5.11426e-09 2.18529e-07)
(-3.60127e-09 6.34819e-09 2.00651e-07)
(-1.97468e-09 1.82216e-09 1.69792e-07)
(-2.54517e-09 -2.38612e-08 1.98439e-07)
(1.16015e-08 1.62845e-08 2.65109e-07)
(-1.72507e-09 -8.10337e-09 3.0074e-07)
(1.32997e-08 7.48267e-09 2.07758e-07)
(-1.94512e-09 -8.02334e-09 1.76404e-07)
(-7.03438e-09 1.93847e-09 3.8511e-07)
(1.08176e-08 9.04964e-09 2.76662e-07)
(2.10765e-08 2.76001e-09 1.70317e-07)
(1.50046e-08 3.35937e-08 1.40636e-07)
(-1.33462e-08 -1.0374e-08 4.09654e-08)
(3.50828e-09 -1.61438e-09 1.99665e-07)
(-2.43055e-10 8.12499e-10 2.40598e-07)
(1.16458e-08 -7.90601e-09 2.94555e-07)
(-3.34705e-09 -5.72647e-10 2.59146e-07)
(1.06551e-08 -1.9643e-08 1.01047e-07)
(2.45926e-09 3.37222e-09 4.93265e-08)
(-1.10232e-08 5.32396e-09 2.58891e-07)
(-8.32862e-09 -1.65702e-08 2.29289e-07)
(-1.58273e-09 6.65482e-10 2.73401e-07)
(-1.98885e-08 2.55083e-09 3.34736e-07)
(-8.41861e-10 -5.7007e-11 2.3843e-07)
(-1.36156e-08 -5.47514e-09 2.72169e-07)
(1.46424e-09 -2.21914e-09 4.77811e-07)
(-7.92667e-09 1.54259e-08 7.95792e-08)
(7.9454e-09 1.24315e-08 2.476e-07)
(4.59814e-09 -1.6694e-09 1.67632e-07)
(-4.37057e-09 -7.77723e-09 1.48195e-07)
(-1.69416e-09 4.36114e-10 1.28496e-07)
(-1.63781e-08 1.17155e-08 2.7086e-07)
(-2.45448e-09 -1.38439e-08 2.58849e-07)
(-2.3202e-08 -9.57163e-09 5.05298e-08)
(-2.00291e-09 1.31538e-08 3.02876e-07)
(-9.74174e-09 -3.70856e-09 2.29339e-07)
(5.86809e-09 -1.04594e-10 1.69544e-07)
(1.41555e-08 -4.75937e-10 3.96392e-07)
(4.8026e-09 6.98535e-09 1.5202e-07)
(-1.55854e-09 6.93428e-09 2.08644e-07)
(-2.06481e-08 -5.35499e-09 3.10677e-07)
(4.85435e-09 -2.43387e-09 2.3826e-07)
(-2.20183e-09 -7.45901e-09 2.62647e-07)
(9.5799e-10 1.37374e-08 2.4414e-07)
(1.22935e-08 1.72688e-08 3.08172e-07)
(6.47519e-09 8.21733e-09 5.38354e-08)
(9.17148e-09 2.69246e-08 2.608e-07)
(-4.50537e-09 -1.71639e-08 2.80032e-07)
(-2.10928e-08 8.1013e-10 1.75574e-07)
(-1.04647e-08 -8.89672e-09 2.99338e-07)
(7.90839e-09 1.8238e-09 3.00762e-07)
(8.76225e-09 -4.90871e-11 2.87479e-07)
(3.30948e-09 -1.12151e-08 2.32813e-07)
(-1.22506e-08 -1.04305e-08 6.15297e-08)
(1.28749e-08 -5.17439e-09 2.34926e-07)
(1.13952e-09 -1.0342e-08 5.09926e-07)
(1.00807e-08 -1.77114e-09 2.40972e-07)
(-8.27234e-09 2.37785e-08 2.53625e-07)
(-1.62093e-08 1.39446e-08 1.57379e-07)
(2.02263e-09 2.10343e-08 2.77724e-07)
(-2.25479e-08 -6.14445e-09 6.62718e-08)
(-4.77157e-09 4.35289e-09 1.50777e-07)
(-1.61255e-08 -1.24139e-08 2.4969e-07)
(-1.28035e-08 1.66995e-08 2.0754e-07)
(-1.95649e-10 1.26725e-08 2.29971e-07)
(-1.86677e-08 -1.08167e-09 2.71299e-07)
(-1.30051e-08 9.77589e-09 1.94678e-07)
(1.77761e-08 -2.23888e-08 1.33315e-07)
(4.10564e-09 7.65157e-09 3.82495e-07)
(-8.61957e-09 9.7975e-09 1.59603e-07)
(-9.09801e-09 -4.50329e-09 5.0208e-08)
(-2.20177e-08 6.19226e-09 2.57007e-07)
(-1.88689e-09 -1.23055e-08 1.95802e-07)
(3.90204e-10 -9.87958e-09 1.14311e-07)
(1.55605e-08 2.1286e-08 3.04563e-07)
(-1.05907e-08 -2.21508e-09 2.44669e-07)
(9.40547e-10 5.1362e-09 1.86188e-07)
(1.90269e-08 -3.14536e-09 2.12539e-07)
(-8.97399e-09 5.45166e-09 7.68335e-08)
(1.82902e-08 1.02558e-08 2.379e-07)
(1.95715e-08 -1.52984e-08 2.63564e-07)
(1.16323e-08 1.06896e-08 2.52938e-07)
(1.78639e-08 -1.05715e-08 2.75435e-07)
(-2.03172e-08 -2.19423e-09 7.2824e-08)
(-4.82677e-09 1.8261e-08 3.78101e-07)
(-9.93989e-09 6.32038e-09 2.1653e-07)
(-8.1411e-09 4.73095e-09 2.11871e-07)
(-2.33652e-09 -2.36177e-08 1.30028e-07)
(-9.62146e-10 -9.59281e-09 3.1583e-07)
(9.60636e-09 -2.1724e-08 5.93802e-08)
(3.059e-09 -1.07812e-08 2.5208e-07)
(-5.3413e-09 -5.3296e-09 6.94418e-08)
(3.27365e-08 -5.00515e-08 2.87794e-07)
(4.77936e-09 -8.51283e-09 2.12873e-07)
(1.70617e-08 1.02096e-08 2.99754e-07)
(-1.93846e-08 3.97015e-09 4.69613e-08)
(4.47083e-09 -3.93228e-08 1.47825e-07)
(-2.04163e-08 3.61307e-08 2.0651e-07)
(5.37777e-08 -7.5213e-09 3.0287e-07)
(-3.20326e-09 1.04802e-09 3.33555e-07)
(-2.09973e-08 6.46511e-09 1.49391e-07)
(2.75738e-09 -4.69211e-10 3.64376e-07)
(-1.38378e-08 -1.49056e-08 2.74722e-07)
(-4.49446e-09 1.81706e-09 1.63895e-07)
(1.12298e-08 -1.54846e-08 7.7747e-08)
(4.88532e-09 -3.1549e-08 3.81839e-07)
(1.68033e-08 -3.24684e-08 2.21734e-07)
(-2.52816e-09 1.22892e-08 1.84136e-07)
(-1.23531e-09 7.68611e-09 2.12142e-07)
(3.55542e-10 1.11903e-08 1.44418e-07)
(5.20831e-08 4.91659e-09 2.67196e-07)
(-7.9226e-09 7.39581e-09 2.05168e-07)
(8.48974e-09 1.00063e-09 1.13529e-07)
(4.03145e-08 -1.55704e-08 1.35583e-07)
(-1.11809e-08 -2.93716e-09 2.7624e-07)
(-2.17913e-08 -3.04979e-09 8.76446e-08)
(1.24678e-08 1.94615e-09 5.45501e-08)
(-8.31104e-09 -5.14984e-09 3.44354e-07)
(9.50592e-09 -3.33237e-11 1.46894e-07)
(1.06298e-08 -9.48179e-09 3.3907e-07)
(1.39586e-08 -2.67661e-08 3.112e-07)
(3.62367e-09 2.85863e-09 4.03737e-07)
(7.37005e-09 -2.30848e-08 3.43237e-07)
(-8.02734e-09 9.53699e-09 4.07535e-07)
(2.29494e-08 4.50243e-09 2.08497e-07)
(-1.36336e-09 1.8657e-09 1.17209e-07)
(-1.62241e-10 4.38315e-08 3.77145e-07)
(-3.0049e-08 -1.86718e-08 5.76819e-08)
(5.18429e-09 -2.55692e-09 3.20946e-07)
(-2.30215e-08 -3.13325e-08 3.13625e-07)
(2.04524e-08 2.65601e-08 6.52863e-08)
(5.48046e-09 -1.14732e-08 3.02904e-07)
(-5.55573e-09 -3.60655e-09 1.32097e-07)
(-2.11285e-09 2.2375e-10 2.19376e-07)
(-7.7052e-09 -1.26505e-08 1.84688e-07)
(-4.84483e-09 3.88321e-08 4.56182e-07)
(4.575e-08 1.69497e-08 2.88471e-07)
(-5.69113e-09 -7.45186e-09 2.47412e-07)
(-7.16187e-09 -1.73748e-10 2.81839e-07)
(4.46221e-09 -9.57881e-09 2.82995e-07)
(-4.01448e-09 -6.65345e-09 2.9966e-07)
(1.48194e-08 -1.11804e-08 2.58136e-07)
(-1.59857e-09 -3.51695e-09 1.28182e-07)
(2.25546e-08 -8.52951e-09 1.08574e-07)
(1.50792e-08 4.61164e-09 1.80255e-07)
(5.94937e-09 -7.02235e-09 1.54059e-07)
(7.84713e-09 1.2733e-08 2.56942e-07)
(1.02911e-08 2.81515e-08 9.92665e-08)
(-1.22938e-08 4.683e-09 2.33475e-07)
(-9.05517e-09 -7.94254e-09 4.36782e-07)
(8.05048e-09 -1.69357e-08 3.37311e-07)
(-8.87475e-10 -3.6896e-09 3.25786e-07)
(-4.44284e-09 -2.70078e-08 3.54875e-07)
(-1.55045e-08 6.1894e-09 4.12518e-08)
(-1.23823e-08 -5.33247e-09 1.97573e-07)
(-4.87648e-09 -8.75463e-09 2.24354e-07)
(2.69798e-09 3.23602e-10 2.3963e-07)
(6.02347e-09 1.77552e-08 2.71709e-07)
(-1.75575e-08 -5.62143e-09 1.06019e-07)
(-3.33234e-09 6.87326e-09 1.84141e-07)
(2.04743e-08 -1.40383e-08 2.64697e-07)
(8.3962e-09 1.00602e-08 3.09984e-07)
(-1.9102e-09 5.97535e-09 2.18636e-07)
(6.81775e-09 -1.32812e-08 2.41013e-07)
(1.43519e-08 7.42907e-09 3.14805e-08)
(-1.68599e-08 3.36318e-09 4.89817e-08)
(3.70059e-10 -6.14376e-09 1.48209e-07)
(-3.6e-09 2.18302e-08 2.47482e-07)
(1.15751e-08 -4.06162e-09 1.82374e-07)
(5.3463e-09 3.74064e-09 1.65355e-07)
(1.35943e-08 -2.56978e-08 2.75593e-07)
(5.19351e-09 -1.66482e-11 2.4561e-07)
(3.55702e-09 -1.95415e-08 2.50619e-07)
(-2.10257e-09 -2.93516e-09 3.53011e-08)
(4.90741e-09 -7.54617e-09 1.13455e-07)
(4.20616e-09 -1.18443e-08 2.04525e-07)
(-1.12857e-08 1.42334e-08 1.33549e-07)
(-5.31439e-09 1.61394e-08 1.85117e-07)
(1.30379e-08 1.7107e-09 3.50628e-07)
(9.40498e-09 1.56311e-08 2.38012e-07)
(-1.66745e-09 -4.4829e-10 2.33779e-07)
(4.81591e-09 1.08519e-08 3.3299e-07)
(4.5474e-09 -1.22658e-08 2.30434e-07)
(-1.29584e-08 -6.26471e-09 2.83925e-07)
(4.19856e-09 3.27051e-09 3.01447e-07)
(3.08106e-08 -7.02083e-09 3.9628e-07)
(-4.04935e-09 -3.02832e-09 1.93614e-07)
(4.58371e-09 -8.15726e-09 1.94078e-07)
(4.29231e-09 1.74977e-08 2.63536e-07)
(5.42226e-09 3.36032e-08 1.47881e-07)
(-9.03016e-09 1.37539e-08 5.52234e-07)
(-7.37772e-09 -9.94331e-09 1.14621e-07)
(2.02734e-08 -2.38627e-08 1.95451e-07)
(3.59194e-08 2.30295e-08 2.44348e-07)
(-8.14798e-09 2.6843e-09 1.91902e-07)
(-2.77207e-09 2.06737e-09 2.82481e-07)
(-1.06807e-08 -2.11798e-08 3.78459e-07)
(-4.75446e-09 3.13348e-09 1.21112e-07)
(-6.31357e-09 6.65471e-09 3.11748e-07)
(-1.24444e-08 5.29679e-09 3.03901e-07)
(7.79153e-09 -3.92419e-09 1.8159e-07)
(-1.66564e-08 -3.29253e-08 9.25332e-08)
(-5.94549e-10 6.64711e-10 1.39664e-07)
(-3.23489e-08 -1.56955e-08 2.65259e-07)
(-4.55927e-09 -9.00034e-09 1.83776e-07)
(2.41248e-09 4.61617e-09 1.33286e-07)
(-1.17592e-08 -8.23707e-09 2.64634e-07)
(5.20591e-09 1.42014e-09 2.36233e-07)
(-1.85801e-08 -2.24826e-08 4.83055e-07)
(-1.0376e-08 -1.81059e-08 1.36723e-07)
(2.00209e-08 -1.27365e-08 1.17068e-07)
(-1.67883e-08 -6.92949e-10 6.3886e-08)
(9.11318e-09 -7.10514e-10 5.19836e-08)
(2.71523e-09 -5.4518e-10 1.23525e-07)
(1.76375e-08 1.2556e-08 2.81723e-07)
(1.26284e-09 -3.03835e-09 2.1406e-07)
(-1.98768e-08 -3.17608e-09 5.32193e-08)
(-1.90135e-08 9.80057e-09 4.72383e-08)
(6.11149e-09 2.22006e-08 3.22052e-07)
(-2.18785e-08 -1.54194e-08 2.49645e-07)
(-1.17395e-08 -4.3233e-09 1.29255e-07)
(-1.48111e-08 -8.73044e-09 2.35217e-07)
(-7.23482e-09 8.5467e-09 1.71171e-07)
(-4.69129e-09 9.65594e-10 2.30168e-07)
(1.55634e-08 1.03011e-08 1.00004e-07)
(3.11652e-08 1.79595e-08 2.15642e-07)
(-2.45578e-09 4.96518e-09 2.54564e-07)
(2.94975e-09 1.17411e-08 2.45838e-07)
(-8.04016e-09 2.54092e-08 3.65579e-07)
(-1.01832e-08 5.23983e-08 1.62299e-07)
(-1.51552e-08 1.03439e-09 7.05358e-08)
(-1.53251e-08 2.82277e-08 2.64707e-07)
(-3.03672e-08 -2.32225e-09 8.90307e-08)
(-4.9586e-09 -2.58489e-08 3.73301e-07)
(-3.85322e-08 -6.54036e-09 7.7297e-08)
(6.82194e-09 -6.15521e-09 2.35578e-07)
(6.03438e-09 -1.35762e-09 2.64011e-07)
(5.53611e-09 5.62693e-09 4.39802e-07)
(-2.54619e-08 9.62035e-09 1.41564e-07)
(4.94976e-09 -1.98989e-08 2.56057e-07)
(-1.23015e-08 1.00382e-08 8.31003e-08)
(-2.28017e-08 -4.91464e-10 9.33934e-08)
(-9.83046e-09 -5.56736e-09 2.29803e-07)
(-1.73195e-08 -5.9833e-09 4.17664e-08)
(2.91035e-09 -8.26107e-09 1.67968e-07)
(-1.66623e-08 1.76563e-10 1.75368e-07)
(7.23536e-09 6.39921e-09 3.12003e-07)
(-1.11996e-08 1.99668e-08 2.43531e-07)
(2.00261e-08 -2.02605e-09 5.90103e-08)
(5.15168e-09 -6.57927e-09 3.35235e-07)
(-2.59097e-09 -1.74766e-08 2.57671e-07)
(-1.24542e-08 2.47111e-08 9.47904e-08)
(-6.39479e-09 3.35282e-09 2.55751e-07)
(-3.91126e-09 2.50041e-08 1.93584e-07)
(5.52231e-09 -2.10434e-08 3.10866e-07)
(-5.29807e-09 1.29756e-10 1.93237e-07)
(2.3941e-08 2.1636e-08 1.7551e-07)
(-2.73507e-08 2.03118e-09 6.06146e-08)
(2.22027e-08 -3.58467e-08 2.46496e-07)
(-1.90748e-08 4.09471e-09 3.44802e-07)
(6.36819e-10 -8.38276e-10 3.66796e-07)
(1.71116e-08 1.17798e-08 1.93089e-07)
(3.35093e-09 -1.18349e-08 3.68974e-07)
(2.15066e-09 9.03771e-09 6.81009e-08)
(-4.7364e-09 1.76192e-10 1.67621e-07)
(-1.13064e-08 -6.82794e-09 8.02887e-08)
(5.77885e-09 2.25563e-08 3.46633e-07)
(8.70193e-09 2.25664e-08 3.64564e-07)
(2.53577e-09 -6.32853e-09 1.99788e-07)
(-1.07859e-08 -3.36287e-09 5.4069e-08)
(-3.70875e-10 -7.41126e-10 4.06868e-07)
(1.55555e-11 1.29975e-08 2.78165e-07)
(8.15419e-09 1.7898e-08 3.37404e-07)
(1.03099e-08 6.75649e-09 1.42636e-07)
(1.99727e-09 -7.88753e-09 2.84607e-07)
(-5.79834e-09 -5.71918e-09 2.71374e-07)
(1.00974e-08 -2.25997e-08 1.58153e-07)
(3.73075e-09 -3.4252e-09 1.92131e-07)
(-2.55348e-08 1.58858e-08 2.96954e-07)
(-1.70825e-09 3.93353e-10 2.37014e-07)
(-1.01107e-08 -2.38867e-08 1.06001e-07)
(-4.2336e-09 3.55793e-08 3.36099e-07)
(4.7988e-09 -2.19565e-09 1.7126e-07)
(6.11807e-09 3.29424e-09 2.7528e-07)
(-2.27578e-08 4.68497e-08 1.05549e-07)
(6.33966e-09 -9.21244e-09 3.38109e-07)
(4.18169e-08 -7.66708e-08 3.71371e-07)
(-1.44362e-08 2.19666e-08 6.36388e-08)
(7.686e-09 -1.78008e-09 1.68753e-07)
(-2.05609e-08 6.65424e-09 2.09422e-07)
(2.58842e-08 6.69094e-10 4.18802e-07)
(7.4554e-09 -2.03585e-09 1.8062e-07)
(2.66164e-09 3.32245e-09 1.61189e-07)
(7.75085e-09 9.72925e-09 2.76052e-07)
(-1.18999e-09 1.81988e-08 3.46386e-07)
(1.59127e-08 1.01641e-08 1.57428e-07)
(-2.07672e-09 3.2436e-08 2.32716e-07)
(5.14811e-09 -4.60824e-09 3.4303e-07)
(1.91754e-09 2.05909e-08 3.06701e-07)
(9.40565e-09 -2.38785e-08 2.65416e-07)
(-4.80936e-09 9.79915e-10 2.46247e-07)
(-9.158e-09 -8.12903e-09 2.60155e-07)
(-8.91805e-09 -9.38849e-11 3.68582e-07)
(-1.05965e-09 -2.6316e-11 1.84564e-07)
(-1.84262e-08 -5.72989e-09 3.28492e-07)
(-1.0154e-08 -3.22561e-08 3.69733e-07)
(3.72207e-10 4.46158e-08 1.36736e-07)
(-1.70572e-08 -1.23017e-09 3.75529e-07)
(-1.56548e-08 -1.13949e-08 1.17398e-07)
(1.11969e-08 9.17423e-09 3.12743e-07)
(-1.51846e-08 -1.11568e-09 2.9137e-07)
(1.8601e-08 -8.94134e-09 3.21575e-07)
(-2.30112e-08 1.30536e-08 2.58062e-07)
(9.254e-09 -5.75502e-09 4.08489e-08)
(4.28988e-09 -8.32505e-09 2.1926e-07)
(3.63765e-09 -9.32162e-10 1.7932e-07)
(1.19365e-08 -6.3996e-09 2.34451e-07)
(-1.20431e-08 9.86914e-09 1.95067e-07)
(1.29218e-09 -6.5523e-09 2.98697e-07)
(1.39559e-08 -4.78875e-09 2.86259e-07)
(1.06952e-08 -5.57425e-09 1.37018e-07)
(-6.6255e-09 1.46918e-08 1.59214e-07)
(-4.02339e-09 2.08768e-08 2.66654e-07)
(2.82576e-08 1.53105e-08 7.99773e-08)
(1.37394e-09 -3.14714e-09 2.03182e-07)
(4.17212e-09 8.49256e-09 1.48479e-07)
(1.62912e-08 5.51472e-09 2.46989e-07)
(2.21118e-08 1.91936e-08 9.14074e-08)
(-4.44002e-09 2.1729e-08 3.69625e-07)
(4.45448e-09 -2.15798e-09 2.44387e-07)