/*--------------------------------*- C++ -*----------------------------------*\
| =========                 |                                                 |
| \\      /  F ield         | OpenFOAM: The Open Source CFD Toolbox           |
|  \\    /   O peration     | Version:  2406                                  |
|   \\  /    A nd           | Website:  www.openfoam.com                      |
|    \\/     M anipulation  |                                                 |
\*---------------------------------------------------------------------------*/
FoamFile
{
    version     2.0;
    format      ascii;
    arch        "LSB;label=32;scalar=64";
    class       volScalarField;
    location    "4";
    object      nut;
}
// * * * * * * * * * * * * * * * * * * * * * * * * * * * * * * * * * * * * * //

dimensions      [0 2 -1 0 0 0 0];

internalField   nonuniform List<scalar> 
59516
(
0.000815092
0.000713701
0.00119966
0.00115121
0.0017508
0.0002259
0.00122397
0.00083642
0.000963811
0.000265541
0.00153266
0.000338356
0.000949623
0.000277549
0.000367019
0.000308679
0.0017905
0.00027223
0.000895196
0.00157269
0.000280958
0.00152187
0.00138583
0.000307555
0.0012338
0.000411783
0.000277348
0.000318051
0.000356161
0.000226573
0.00062005
0.000334879
0.0014525
0.0010233
0.00100154
0.00117668
0.000234226
0.000316143
0.000515805
0.00129431
0.000783609
0.00119545
0.00113495
0.00082301
0.00147595
0.000263163
0.00103121
0.00154419
0.000917101
0.0014666
0.000798918
0.000279341
0.00107317
0.00108731
0.000349896
0.00116958
0.00134171
0.000362465
0.00199367
0.00139409
0.0011631
0.000261712
0.00119484
0.00167058
0.00106088
0.0015043
0.0003192
0.000281879
0.00152631
0.0014418
0.000316174
0.00194103
0.000273175
0.00121553
0.0012826
0.00118889
0.00147462
0.00132131
0.00027521
0.00148165
0.000284508
0.00182303
0.00134418
0.000273627
0.00129831
0.00150963
0.000265579
0.00170198
0.00030629
0.00048019
0.00149058
0.00111596
0.00177018
0.0012003
0.00157272
0.00153673
0.00153649
0.00028913
0.000350038
0.0016685
0.000335701
0.00028189
0.000263041
0.000295165
0.0012357
0.00102486
0.000322157
0.000902705
0.000872069
0.00038312
0.00130945
0.000297134
0.000336288
0.000854339
0.0010511
0.000849232
0.000302124
0.00153202
0.000261564
0.0010563
0.0014773
0.00187773
0.00174331
0.00172608
0.00151686
0.000606542
0.000297315
0.00133273
0.000358068
0.00175648
0.00112843
0.000880991
0.000241361
0.00151533
0.000610227
0.000883718
0.000592186
0.00138198
0.0003156
0.000744335
0.000335581
0.00141521
0.000219211
0.00144324
0.00149227
0.00132111
0.00142699
0.00099429
0.000283699
0.00104842
0.000587763
0.000264462
0.00158021
0.0014152
0.000505876
0.00021715
0.000875971
0.00122912
0.000444607
0.000242111
0.000476468
0.000460966
0.000308248
0.000280867
0.000739812
0.00126986
0.000325862
0.00138862
0.000225106
0.00129161
0.000530539
0.000271828
0.00038864
0.00118535
0.000282514
0.00107906
0.00156331
0.00135657
0.000477865
0.000244596
0.00129004
0.000250082
0.000320278
0.00034597
0.00176747
0.000314678
0.000226994
0.000249593
0.00112066
0.00060198
0.000957647
0.000257546
0.00112911
0.000274761
0.00154362
0.000228934
0.000295356
0.000246156
0.00095387
0.00140142
0.000624881
0.00191307
0.000689113
0.000231673
0.000991629
0.00123965
0.00150371
0.00138523
0.000253973
0.000875926
0.000292031
0.000275998
0.00137558
0.000282572
0.00116868
0.00132152
0.00122314
0.00160199
0.00028554
0.00144323
0.0003296
0.000719537
0.00138889
0.000346115
0.00129687
0.0015577
0.000302924
0.000312548
0.00153979
0.00028684
0.00170114
0.00165778
0.00173836
0.00026359
0.000306881
0.000256934
0.000320499
0.000807596
0.00175917
0.000369048
0.00134431
0.0002695
0.000295768
0.000291935
0.00172346
0.000474705
0.00135353
0.000330827
0.00135689
0.000984843
0.00145581
0.00126476
0.00160796
0.00169857
0.00125772
0.00159604
0.000260849
0.00157791
0.000302058
0.000325089
0.00141719
0.00103377
0.000888813
0.00173594
0.000757948
0.000295928
0.00126908
0.000497569
0.000333054
0.000249195
0.000708592
0.00128233
0.000554256
0.000461939
0.00119406
0.000540196
0.000236011
0.00146433
0.000267701
0.000259976
0.00142022
0.0010927
0.000296854
0.00117354
0.0012712
0.00105571
0.00157785
0.000301949
0.00140701
0.00164144
0.00207214
0.00123258
0.00155404
0.000568162
0.00153642
0.000296759
0.00178363
0.00129089
0.00182141
0.00138378
0.000868658
0.000340072
0.000263721
0.000285367
0.00147007
0.000260806
0.00032812
0.000276351
0.00142044
0.00107207
0.00137119
0.000358407
0.000870988
0.000306423
0.000263135
0.00164784
0.000665821
0.00158374
0.000646881
0.000267016
0.000388239
0.000712794
0.00137875
0.00162242
0.00117328
0.001309
0.000526669
0.0010788
0.00190201
0.00156083
0.00154888
0.000328567
0.000256748
0.00141652
0.00029712
0.000290967
0.00174826
0.00102006
0.000316948
0.001676
0.00112629
0.00157114
0.00119085
0.000254514
0.00145503
0.00147815
0.000307514
0.00137443
0.00172574
0.00148221
0.00128699
0.00146303
0.00151301
0.000404915
0.000316927
0.000312392
0.000550226
0.0003268
0.000351021
0.000456404
0.000993056
0.000928761
0.00127145
0.00150383
0.00141897
0.00185152
0.00119208
0.000251559
0.000652291
0.000309698
0.000271154
0.00026177
0.00177553
0.000654226
0.00181937
0.000221841
0.00104956
0.000309958
0.00149103
0.000246098
0.000323974
0.000733325
0.00134648
0.000280736
0.000316218
0.00132579
0.000253438
0.00126774
0.000760549
0.00110784
0.000555115
0.000750077
0.0012737
0.000269011
0.0013989
0.000762777
0.000279361
0.000405036
0.00137659
0.00131561
0.000290855
0.0012018
0.0008188
0.00165612
0.00153993
0.000351176
0.00110636
0.00159059
0.00126425
0.00145439
0.000298295
0.000255067
0.00136607
0.00156924
0.00169208
0.00029076
0.00180482
0.000888785
0.00155842
0.00126091
0.00145153
0.00167239
0.00142621
0.000708322
0.00135413
0.00040748
0.00166986
0.000800953
0.00148394
0.00133678
0.00126808
0.00170403
0.000278664
0.000256349
0.000237038
0.00170217
0.00157845
0.00138237
0.001262
0.000274159
0.000250555
0.00108729
0.00129691
0.00145276
0.00138989
0.00129059
0.0015882
0.00128173
0.000303534
0.00103867
0.000391596
0.000339128
0.00144775
0.000657229
0.00137408
0.000272459
0.0010271
0.00146999
0.00154036
0.000651627
0.00134648
0.00161875
0.000935476
0.00143823
0.000712329
0.00125517
0.00170635
0.000254127
0.00150493
0.00118268
0.000354928
0.000606103
0.00198459
0.00128107
0.000639271
0.000261911
0.00124985
0.00130605
0.00149302
0.00107493
0.000259159
0.0015291
0.000275842
0.00114629
0.000597595
0.00125127
0.000371541
0.000893372
0.000706747
0.00023055
0.00156725
0.00170065
0.000284784
0.00136906
0.00156157
0.000319385
0.000407759
0.000319166
0.0014491
0.00185819
0.000310382
0.000290888
0.000286673
0.00105261
0.00170293
0.000277507
0.00161187
0.00119416
0.00152308
0.000220741
0.0016133
0.000257367
0.00146769
0.000269473
0.000271161
0.00143394
0.00032239
0.000248798
0.000309914
0.000333433
0.000305709
0.0014198
0.000285751
0.000356151
0.00116237
0.0014935
0.000301373
0.00088268
0.000288968
0.00116641
0.000291371
0.00125582
0.000301139
0.00101861
0.00136854
0.000300068
0.00163632
0.000273561
0.000244048
0.00157103
0.00118853
0.00141758
0.00124268
0.00154618
0.000408388
0.00106769
0.000281735
0.001332
0.000937336
0.000281982
0.00127865
0.000352571
0.000277507
0.0010707
0.00026243
0.00104221
0.000975173
0.00108365
0.0002995
0.00107065
0.000496459
0.00169698
0.00114963
0.00120167
0.00138325
0.000305832
0.00028817
0.0013109
0.00152985
0.00025984
0.00127326
0.00162252
0.00143203
0.00142805
0.00109509
0.000227983
0.0016297
0.000696319
0.0012545
0.000814619
0.000291525
0.0010673
0.000570507
0.00124262
0.00114692
0.0013268
0.000199664
0.000253367
0.00172948
0.00113889
0.0013839
0.00118697
0.00050229
0.00129211
0.00129639
0.000236724
0.00202993
0.00129586
0.000324075
0.000356287
0.0013295
0.000968958
0.00101636
0.00112649
0.000845175
0.00194718
0.000678523
0.00148979
0.00129662
0.00144697
0.00135835
0.000338734
0.00135684
0.00028453
0.000245986
0.000345471
0.00125769
0.000991144
0.000823343
0.00160559
0.00130285
0.00160744
0.00175466
0.000288402
0.000875262
0.00141205
0.00170007
0.000963702
0.00129829
0.00149461
0.000855183
0.000276054
0.000251045
0.000263588
0.000274283
0.000308874
0.00111951
0.00144504
0.000266496
0.000254397
0.00150833
0.000378901
0.000296883
0.00147027
0.000959602
0.001387
0.000328666
0.000281233
0.00101419
0.00150066
0.00129208
0.000309277
0.000254997
0.0005006
0.000297883
0.00123521
0.000281419
0.000849662
0.00169304
0.0014951
0.000268135
0.000812744
0.000257993
0.000312536
0.00162786
0.000230881
0.00144136
0.000329622
0.00157647
0.00106326
0.0002538
0.000262772
0.00154482
0.000313505
0.00167655
0.000304558
0.000794496
0.00173082
0.000280326
0.000257515
0.000290479
0.00125328
0.000846561
0.000260603
0.000375732
0.000224632
0.00142219
0.000289514
0.00117531
0.000979822
0.00157815
0.000263509
0.00136515
0.000426556
0.00143841
0.000302922
0.00129789
0.00150418
0.000242287
0.00171095
0.00100171
0.00123265
0.000281388
0.000350145
0.00177922
0.00128396
0.00030233
0.000966436
0.00032576
0.000269361
0.00190743
0.00114159
0.00111068
0.00160412
0.00169875
0.00180907
0.000997326
0.000296959
0.000296249
0.00148799
0.00121744
0.00104414
0.00123771
0.000392407
0.00160589
0.00146305
0.0005558
0.000707077
0.000289772
0.000565613
0.000370258
0.00133726
0.00139295
0.000534225
0.00072237
0.000229913
0.000482475
0.000313886
0.00167496
0.00122673
0.00121464
0.00149318
0.000452896
0.000612215
0.00109686
0.000262033
0.0017007
0.000257627
0.00116235
0.000296605
0.0010381
0.000792776
0.00143884
0.000928115
0.00101259
0.00143339
0.00139298
0.000311918
0.000352721
0.000262087
0.00121342
0.00173466
0.00151358
0.00153099
0.000217477
0.000623324
0.000458349
0.00168572
0.00114263
0.00130116
0.000647093
0.00143079
0.000254438
0.000585278
0.0013675
0.000279851
0.000245416
0.000443163
0.000237481
0.000523573
0.00142644
0.000383818
0.000234869
0.000865275
0.000274311
0.000697044
0.00177641
0.00154667
0.00148681
0.00164723
0.00187583
0.00090404
0.000259533
0.00160185
0.00102527
0.00051473
0.000619841
0.00183354
0.00103974
0.000391002
0.00141193
0.000290094
0.000488264
0.000729652
0.000424906
0.00137929
0.000571105
0.00119194
0.000267725
0.000304155
0.000320042
0.000255317
0.00132583
0.00128096
0.0012879
0.000611954
0.00144429
0.00141241
0.000288478
0.000934603
0.00111145
0.000263598
0.000254879
0.00118093
0.00096697
0.000269879
0.00161021
0.000261069
0.00176907
0.00126459
0.00120554
0.0017087
0.00158209
0.000684536
0.0014843
0.000240055
0.000285417
0.000791731
0.000897012
0.000244778
0.00166958
0.00152599
0.00189523
0.00163994
0.000487459
0.00143788
0.0013776
0.000557143
0.000325559
0.00153295
0.000665652
0.000303704
0.00148711
0.00140887
0.00194744
0.000624548
0.0014047
0.000819987
0.00055999
0.000899122
0.000731197
0.00107087
0.000365755
0.00142268
0.00162875
0.00166175
0.00111374
0.000830592
0.00100491
0.000328883
0.000317822
0.00131185
0.00137194
0.00105199
0.00134085
0.00175676
0.0016753
0.00145283
0.000257678
0.000887612
0.00159567
0.000278014
0.00133561
0.00129029
0.000232572
0.00102007
0.00186835
0.000809485
0.00155075
0.00133657
0.00188935
0.000387188
0.00110035
0.000308409
0.000786266
0.00126595
0.00028061
0.000264841
0.000320324
0.000969058
0.000261957
0.00178644
0.00132622
0.00129876
0.000981339
0.000409479
0.000360284
0.00151498
0.00143351
0.000880116
0.000424388
0.0013139
0.00139623
0.00143687
0.000326333
0.00133153
0.000580224
0.000608329
0.000324277
0.000314545
0.000462616
0.00161958
0.000235046
0.00147668
0.00176757
0.00128328
0.00162444
0.00151265
0.00118046
0.00167616
0.00152231
0.00177587
0.00149203
0.00110563
0.000324137
0.000283313
0.00162604
0.00121084
0.000321427
0.00110053
0.000834115
0.00162259
0.00181436
0.00172474
0.00152259
0.000608898
0.00135504
0.000343278
0.000645298
0.00175364
0.000344905
0.00192356
0.000270989
0.000468074
0.00144122
0.000412764
0.000280237
0.00105353
0.00144576
0.00140555
0.000266804
0.00126329
0.00026974
0.000552147
0.00036847
0.000396977
0.000525067
0.00131511
0.000323944
0.00113814
0.00095446
0.00120115
0.00157419
0.00129647
0.000782429
0.00164745
0.00182025
0.000363174
0.00175747
0.000312497
0.000290825
0.00134875
0.00147121
0.000305275
0.00107821
0.000757824
0.000468035
0.00101327
0.000277977
0.00142731
0.00161864
0.00102818
0.000293177
0.000370577
0.000759187
0.000280904
0.000999025
0.00116066
0.0005936
0.000243238
0.000649542
0.00124621
0.00132166
0.00116302
0.00163807
0.000503441
0.00146613
0.00151218
0.000808331
0.00129336
0.000261994
0.000927094
0.00166366
0.0012423
0.000322464
0.00176939
0.000584136
0.00103938
0.000245545
0.00101032
0.000533252
0.000258767
0.00132186
0.000327142
0.00137887
0.000827716
0.00127422
0.000323749
0.00137416
0.000682738
0.000289584
0.000653305
0.0014164
0.000254946
0.00169057
0.00152592
0.000260273
0.000306034
0.000337846
0.00132124
0.00137531
0.00127534
0.000666021
0.00023913
0.0012365
0.000222218
0.000989028
0.00113819
0.00133087
0.000317191
0.00128099
0.000285562
0.000556399
0.00130537
0.00116696
0.000302188
0.00124336
0.00115435
0.000280967
0.0012839
0.00160595
0.00193541
0.00117314
0.000728495
0.000283854
0.00144393
0.0011132
0.000303991
0.000274554
0.000300398
0.00124346
0.00055778
0.00156573
0.000295643
0.00164881
0.000277733
0.00114959
0.000912769
0.00172289
0.00161944
0.00119193
0.00120063
0.000264198
0.000273096
0.00112166
0.00139597
0.000272805
0.000290207
0.0016214
0.00171104
0.00165882
0.00093383
0.00114991
0.0016271
0.00117164
0.000322654
0.000475929
0.000281289
0.00164919
0.000398774
0.000297152
0.000313691
0.00206147
0.000870995
0.000699302
0.00116813
0.00136011
0.000240693
0.00136702
0.00113471
0.000318098
0.000276496
0.00165248
0.00143581
0.000292298
0.000228198
0.00168976
0.000666503
0.000287384
0.000357387
0.00147318
0.00159325
0.00136459
0.000872672
0.00150688
0.000254382
0.000224047
0.00176718
0.00156658
0.000795839
0.000989087
0.000267398
0.000279359
0.000330044
0.00131702
0.000283884
0.00150514
0.00164838
0.000559237
0.000391996
0.000242496
0.00169281
0.00177229
0.00102942
0.00178637
0.000835113
0.00118418
0.000319937
0.000321448
0.000281663
0.000790715
0.0012459
0.000795599
0.000287293
0.000535277
0.00116668
0.00134772
0.00064339
0.00127813
0.00173845
0.000914526
0.00030427
0.00032138
0.00167539
0.000276628
0.000945189
0.00104004
0.000553802
0.00024561
0.00136593
0.000290451
0.000219602
0.000240778
0.00100523
0.00103191
0.000863743
0.00115408
0.000561864
0.000857697
0.000262656
0.000267788
0.000308496
0.00122103
0.000815205
0.00150865
0.000816488
0.00105956
0.00139642
0.000332786
0.000880696
0.000240934
0.00118031
0.000780148
0.000252198
0.00102152
0.00075034
0.00129929
0.000500261
0.000258305
0.000194903
0.00144947
0.000341391
0.00139197
0.00164301
0.000939719
0.000387058
0.00026081
0.00123935
0.000313131
0.00136116
0.00142898
0.00143979
0.000370959
0.0015925
0.00156917
0.00146088
0.00156981
0.000224413
0.000340886
0.00172487
0.000739409
0.000351193
0.00130835
0.0011098
0.00127225
0.000634763
0.000303253
0.000249384
0.000287468
0.00132928
0.00135923
0.00110767
0.000240213
0.000236988
0.0013573
0.00102819
0.000394237
0.00154068
0.00115477
0.00173423
0.00137523
0.00146578
0.000948573
0.0013136
0.000757095
0.00104347
0.00110419
0.00039502
0.000297933
0.00159291
0.0016635
0.000303937
0.000337384
0.00159176
0.000265866
0.00120098
0.000747905
0.00149993
0.00126784
0.000908501
0.001866
0.00173729
0.00155556
0.000310495
0.000305952
0.00159208
0.00171063
0.000266148
0.000580302
0.00106024
0.00151197
0.0013006
0.00024817
0.000876461
0.00123533
0.000466304
0.00163907
0.00101026
0.000270592
0.00118708
0.000272603
0.000526722
0.000257874
0.00133166
0.00141061
0.00147049
0.000267914
0.000333422
0.000456559
0.00159011
0.000247621
0.000277795
0.000547115
0.00146275
0.000309963
0.00159529
0.00151418
0.00037879
0.000369771
0.000296604
0.00110943
0.00164755
0.00124583
0.00109742
0.000732729
0.000590501
0.00064124
0.000239464
0.000264779
0.000277402
0.000503473
0.0014544
0.000260921
0.000211063
0.000277704
0.000287141
0.00149174
0.000298467
0.00130691
0.00144843
0.00126006
0.000374943
0.00189008
0.000265521
0.000352081
0.00155424
0.00152049
0.00101375
0.00112874
0.00106338
0.000244623
0.00114969
0.00182073
0.00123136
0.000611139
0.00137072
0.00148883
0.000800192
0.000224697
0.000266718
0.000813018
0.00147093
0.000272689
0.000648153
0.00116194
0.000289854
0.000297798
0.000734408
0.000292385
0.000373628
0.000287169
0.000229117
0.000297231
0.000234784
0.000283021
0.000262487
0.000940857
0.000433069
0.00152614
0.000249564
0.00133301
0.00116067
0.00160636
0.00101139
0.00122584
0.000290416
0.00174328
0.00126919
0.000684701
0.00157267
0.00130501
0.000244862
0.00096591
0.000552484
0.000319625
0.000247914
0.00138408
0.00074035
0.000230608
0.00139277
0.00153309
0.00150781
0.00118667
0.000294897
0.000804571
0.000527012
0.00125461
0.00130392
0.00112344
0.00157425
0.000692118
0.00118085
0.00108521
0.00160808
0.00084918
0.000806508
0.00105155
0.000635788
0.00150208
0.00120058
0.000365208
0.00163097
0.000361686
0.000268385
0.000332397
0.00129824
0.00165498
0.0019475
0.00156922
0.000810558
0.000445907
0.000855168
0.000282714
0.000289543
0.000275053
0.00029346
0.00028112
0.00111252
0.000329003
0.000931927
0.00026566
0.000245835
0.00152506
0.000365286
0.0017051
0.00112628
0.00194524
0.00030962
0.000308849
0.00126336
0.00126679
0.000271202
0.0010105
0.000329945
0.000882413
0.00126954
0.00117457
0.00160058
0.000681752
0.00068398
0.000532886
0.000361795
0.000247877
0.000280581
0.000262706
0.00101248
0.00112307
0.000486096
0.00032499
0.00072175
0.00144316
0.00147649
0.000324297
0.00115305
0.000239261
0.000365983
0.00208338
0.000299213
0.000544017
0.000567093
0.000986548
0.000572433
0.0014238
0.000539849
0.000670431
0.00144336
0.000924882
0.00135199
0.000270959
0.000214751
0.00095746
0.000623769
0.00150456
0.000915028
0.000751375
0.000236697
0.00151448
0.0012534
0.00135234
0.000515141
0.000323659
0.000283413
0.000255041
0.00104236
0.000302187
0.000884938
0.000267392
0.000933996
0.000272233
0.000514144
0.00147459
0.000294694
0.00173063
0.00179377
0.00031325
0.000283481
0.00103818
0.00029326
0.00145956
0.00189067
0.000433064
0.00151917
0.000821644
0.000935817
0.000272298
0.000857891
0.00111895
0.0017015
0.000244909
0.00130261
0.0012016
0.000511398
0.0011294
0.000268648
0.00142805
0.000252042
0.0011254
0.00108335
0.00149983
0.00115062
0.00028161
0.000246314
0.00165152
0.00163064
0.000275557
0.000995672
0.000243098
0.00105906
0.000373547
0.000220622
0.000761121
0.00139404
0.000551808
0.00165109
0.000990189
0.00137945
0.000283461
0.0012276
0.000318752
0.000403883
0.00146485
0.00150699
0.00103172
0.000323075
0.000302268
0.00137063
0.00154026
0.00120473
0.00141167
0.00142356
0.000209177
0.0014066
0.000935441
0.001269
0.000323642
0.00114099
0.00152533
0.00141294
0.00133683
0.00146218
0.000279442
0.00129611
0.000297698
0.00145115
0.000545342
0.00116967
0.00128659
0.00135922
0.00197644
0.000275111
0.00143172
0.000316314
0.000264539
0.00132939
0.000334912
0.00151578
0.000288155
0.000319044
0.000230126
0.000649157
0.00127318
0.000225394
0.000297838
0.0011454
0.000676868
0.00136542
0.000859429
0.000244237
0.000493403
0.0003053
0.00102522
0.00170141
0.000304354
0.00144633
0.00178063
0.00180532
0.00141119
0.00155741
0.00142381
0.00159095
0.00149378
0.000287078
0.00027622
0.00138302
0.000312723
0.0010911
0.00102092
0.00042712
0.00133281
0.0012722
0.000274598
0.00145948
0.000233346
0.000569267
0.00035525
0.00139587
0.00184085
0.000379584
0.000792363
0.000295177
0.00123028
0.000966745
0.000460369
0.00118498
0.000229208
0.000253214
0.00123202
0.00118851
0.00139088
0.000902116
0.000281016
0.00133465
0.000308532
0.00162903
0.0011467
0.000291236
0.00136995
0.00150248
0.000288602
0.000325653
0.0017578
0.000674789
0.000274969
0.00123963
0.000318464
0.000293346
0.000746261
0.0018204
0.00135747
0.00155053
0.00164179
0.00118498
0.00172269
0.00090604
0.000672251
0.0013951
0.00154732
0.000219222
0.000272711
0.00105495
0.00132661
0.0010694
0.000249037
0.000280339
0.00152716
0.000292466
0.00149896
0.00148175
0.00167806
0.000284693
0.000476516
0.00185525
0.000897963
0.00124442
0.00126225
0.000294925
0.000308294
0.00126057
0.000291249
0.000359686
0.000286822
0.000291263
0.00157592
0.00185737
0.00132182
0.00104905
0.000532586
0.000694139
0.00146174
0.00109822
0.000274766
0.00204301
0.00181455
0.00135499
0.000227725
0.000964265
0.000277536
0.000626996
0.00031888
0.0014287
0.00118949
0.00081294
0.000244278
0.000419946
0.000363173
0.000253042
0.0011414
0.000236186
0.000294522
0.00139702
0.00088959
0.00169441
0.000270422
0.000824592
0.000298123
0.00163835
0.00166226
0.00155719
0.00188256
0.000304145
0.00134388
0.00105684
0.00154224
0.00133519
0.00166133
0.00150285
0.00144022
0.000264214
0.000283109
0.000925514
0.00132765
0.00144125
0.000267745
0.00128116
0.000317191
0.00127426
0.00161826
0.000582026
0.000406205
0.00030649
0.000224537
0.00134495
0.00142457
0.000278637
0.00091163
0.000249777
0.00182014
0.00157878
0.000300057
0.000906117
0.0009869
0.00110477
0.000323207
0.000267349
0.000332406
0.000367686
0.000334002
0.000286055
0.000267909
0.000266336
0.000464971
0.00118975
0.000954185
0.0011851
0.000982012
0.000261098
0.00150803
0.000994556
0.000206416
0.00024812
0.000316218
0.000610147
0.000327842
0.00175256
0.00115215
0.00132412
0.00132288
0.000249981
0.000456191
0.00158324
0.00130524
0.00183147
0.00144256
0.00147041
0.000276878
0.000968537
0.00145504
0.00118676
0.000226891
0.00102707
0.00086719
0.0011413
0.00099842
0.00137093
0.000279667
0.000256822
0.000301967
0.000586471
0.00144213
0.00146159
0.00189499
0.000326541
0.00085891
0.000277523
0.00077073
0.00150282
0.000255319
0.000351476
0.00156469
0.00149221
0.00146465
0.00142271
0.000591016
0.000313873
0.00135714
0.000745312
0.00104652
0.00136399
0.00114325
0.00141084
0.000383749
0.00130547
0.00024407
0.000225039
0.000282729
0.000572145
0.00098794
0.000718786
0.000263855
0.00124044
0.000256416
0.000299548
0.000255148
0.000817079
0.00134274
0.00136666
0.000230141
0.000326275
0.000285778
0.00027469
0.00033725
0.00128543
0.00138443
0.000263782
0.000293824
0.00032626
0.00155876
0.00104997
0.00111373
0.000578038
0.00161456
0.00157267
0.0005795
0.000292634
0.00137303
0.00107258
0.00143081
0.00118426
0.00159874
0.00163694
0.000578245
0.00117854
0.000414305
0.00138202
0.00162127
0.00125387
0.000212357
0.00136015
0.000271992
0.00114792
0.00129502
0.00138992
0.00125661
0.000304678
0.000294558
0.000306528
0.00195865
0.0015059
0.00122535
0.00138402
0.00028564
0.000526814
0.00130495
0.00172412
0.000636569
0.000325968
0.00127891
0.00079017
0.00145444
0.00149362
0.001517
0.00146079
0.00100775
0.00121905
0.000656085
0.00127779
0.00170509
0.00172167
0.000532464
0.000274068
0.000244661
0.000435218
0.000715539
0.00158853
0.00171572
0.000271418
0.00092506
0.00128366
0.00154876
0.000598205
0.00138691
0.00139069
0.000998468
0.00157308
0.000764009
0.00114999
0.000306353
0.000961918
0.00137211
0.00026775
0.00113052
0.00153091
0.00150913
0.00143566
0.00171424
0.000247077
0.00146172
0.00052129
0.00127689
0.000377205
0.00154998
0.00119582
0.00058901
0.00107653
0.000247811
0.00107786
0.000285889
0.000295477
0.00145765
0.000231115
0.00140392
0.00152008
0.00175463
0.000252657
0.000711003
0.000259992
0.00130497
0.000254361
0.000630259
0.00145967
0.00153993
0.00137154
0.00160659
0.00120019
0.00175175
0.00151575
0.00133776
0.00168542
0.000308077
0.000675392
0.00124081
0.00123893
0.000378243
0.00133256
0.00139957
0.00197338
0.000237024
0.0011941
0.000262702
0.00130131
0.000294611
0.000253217
0.00101467
0.0012137
0.00132591
0.000946242
0.000229098
0.00170083
0.00028812
0.000265612
0.00122055
0.000304472
0.0006322
0.00123762
0.00141388
0.000251727
0.000313979
0.000280253
0.00154709
0.00149954
0.000318446
0.00162431
0.000577553
0.000309609
0.00140758
0.00027938
0.00112176
0.00137945
0.00116234
0.001555
0.00162839
0.00118658
0.00115558
0.00186027
0.00151047
0.00123991
0.000892091
0.000694059
0.00144881
0.000502
0.00123161
0.00140719
0.00126973
0.00144961
0.000907222
0.00129737
0.000295016
0.00154572
0.00184846
0.000338373
0.00113134
0.0013247
0.00024207
0.00123862
0.0011564
0.000557722
0.00118143
0.000296296
0.000811579
0.00157876
0.00138718
0.000689263
0.000322529
0.000316799
0.00121468
0.00029554
0.00028531
0.000324418
0.00138534
0.0013553
0.0015464
0.00104917
0.00106098
0.00127755
0.000453394
0.000763409
0.00148998
0.00132577
0.00151299
0.00139665
0.000287922
0.000248656
0.00027157
0.000421919
0.00126202
0.00149359
0.00133099
0.000442137
0.00152972
0.000996517
0.000269311
0.00169317
0.00151299
0.00152668
0.00147814
0.000385797
0.000310446
0.00102222
0.000268992
0.00116261
0.00131715
0.000690765
0.00123776
0.000546796
0.000390267
0.000717414
0.00165221
0.000573686
0.00119168
0.0016714
0.00108226
0.000265502
0.00132927
0.00192279
0.000275657
0.000299089
0.000527176
0.000308585
0.00164415
0.00129561
0.000322222
0.00156489
0.00211156
0.00143761
0.00117814
0.0015452
0.00144612
0.00156499
0.00109637
0.00047988
0.00155067
0.000414438
0.000447988
0.000275112
0.00148226
0.000818779
0.00153783
0.000990862
0.000657418
0.000696817
0.000248468
0.000826474
0.000229444
0.000527334
0.00115053
0.0012037
0.00119203
0.000994173
0.000268353
0.00033999
0.00180046
0.000405692
0.000307287
0.0012316
0.000278277
0.00120419
0.00133779
0.000915138
0.00134998
0.00147351
0.00119569
0.0015769
0.000253943
0.00166091
0.00030546
0.000276769
0.000389112
0.00139373
0.000991826
0.00180536
0.000263094
0.001223
0.00155955
0.000871883
0.000476636
0.000510694
0.000306447
0.000296103
0.000310508
0.000370358
0.00178051
0.000247545
0.00133122
0.000336732
0.000202154
0.00069863
0.000250216
0.000249007
0.000259751
0.00113824
0.00112282
0.00182254
0.000384421
0.00180107
0.000308021
0.000961844
0.000339724
0.00137073
0.00142369
0.000268892
0.00137007
0.00140549
0.00132728
0.00132368
0.00120881
0.00142258
0.00163305
0.00169688
0.00119855
0.000300601
0.000512693
0.000282244
0.00126959
0.000239231
0.000611707
0.00170415
0.000446924
0.000808823
0.000255829
0.000911852
0.000904543
0.00147752
0.00147875
0.00173702
0.00130494
0.00179605
0.00112603
0.00189636
0.000322429
0.000309872
0.000992854
0.00130128
0.00106625
0.00129576
0.0016826
0.00171428
0.00150885
0.000302228
0.00128365
0.00171615
0.000406018
0.00131624
0.000336096
0.00102877
0.000406663
0.000302328
0.00087626
0.000269989
0.000269871
0.000233898
0.000292857
0.000261552
0.00126927
0.000976183
0.00169171
0.00120568
0.000325125
0.00150226
0.00155056
0.00123417
0.000251771
0.00149042
0.000798551
0.000842646
0.00169987
0.000262995
0.000259553
0.00122119
0.000294318
0.00147186
0.000324791
0.00122358
0.000370577
0.00137251
0.00138369
0.00130845
0.000296297
0.000235491
0.000299825
0.00125655
0.000363234
0.000190056
0.000886485
0.000473079
0.000255474
0.000736277
0.00027816
0.00119618
0.000954741
0.00169024
0.00146873
0.000271986
0.000769244
0.00023619
0.00142042
0.00128695
0.00117004
0.00135596
0.000700724
0.0007968
0.000242889
0.00117949
0.000807644
0.00136453
0.00156222
0.000289205
0.000217012
0.00131311
0.00120926
0.00159878
0.000344032
0.00122768
0.000290722
0.000328177
0.000306546
0.00143891
0.000306589
0.000888601
0.000268963
0.000339721
0.000902794
0.000299504
0.000250213
0.000247718
0.00140688
0.00145541
0.00148622
0.000300451
0.00122073
0.0016092
0.000813427
0.00121486
0.00139386
0.000953448
0.00133351
0.0002656
0.00137274
0.0013339
0.000480823
0.00026888
0.00102395
0.00165291
0.000626469
0.00164058
0.00029685
0.000869096
0.0011428
0.000231907
0.00180942
0.00156376
0.00147408
0.000301917
0.00170398
0.000326824
0.00155462
0.000293329
0.000261309
0.00159321
0.00150923
0.000329204
0.0014953
0.00149512
0.00194691
0.00118337
0.000347218
0.000280024
0.0014798
0.0010585
0.0013188
0.00160225
0.000300307
0.00108347
0.000296719
0.00034594
0.00131033
0.00162198
0.000644971
0.00137979
0.000982418
0.00028675
0.000270767
0.0013223
0.00136907
0.000284185
0.000304298
0.000522732
0.00118216
0.00125019
0.000263831
0.000574761
0.00182867
0.00160222
0.00154075
0.00149207
0.000808008
0.00163496
0.00131717
0.00166161
0.000627247
0.000277357
0.000297634
0.000979188
0.000581889
0.00147787
0.00151565
0.00155511
0.00168709
0.00182578
0.00159793
0.000983517
0.00171088
0.000897633
0.00175025
0.00163732
0.00060916
0.00117247
0.000598404
0.000235055
0.00115746
0.00121844
0.00116526
0.00104444
0.00095351
0.000525874
0.0003627
0.00114723
0.00153688
0.00119692
0.00118859
0.000200493
0.00136073
0.0008742
0.000300965
0.00168123
0.000281571
0.000854144
0.00132087
0.0014004
0.00096821
0.00101618
0.000251054
0.000280811
0.000331275
0.00183914
0.000333936
0.00141936
0.000990089
0.000278541
0.00143852
0.00072779
0.001243
0.00132092
0.000752982
0.000387269
0.00168504
0.00126673
0.000222826
0.00173321
0.000275634
0.000238498
0.00141918
0.000337571
0.00164731
0.00144958
0.00140748
0.000755459
0.000530913
0.00120883
0.00135038
0.00103743
0.000299921
0.000279931
0.001053
0.00141219
0.00100285
0.00161896
0.00045318
0.00061743
0.00163378
0.0013323
0.00147487
0.000555181
0.000850019
0.000613043
0.00110373
0.00109697
0.00106526
0.000791614
0.000292837
0.00133234
0.00148091
0.00150751
0.00140159
0.00137067
0.00164764
0.000315236
0.00105976
0.00045671
0.000295165
0.0013424
0.000434999
0.00166306
0.00161484
0.00101322
0.000236886
0.000559549
0.00140795
0.00134603
0.000312602
0.00147246
0.000404327
0.0011415
0.000492314
0.000766094
0.00126865
0.0015122
0.000235067
0.00128181
0.00154205
0.00152984
0.000590036
0.00117174
0.00147271
0.000323426
0.00162618
0.000285713
0.00146519
0.0012151
0.00156255
0.000937961
0.000516491
0.000524787
0.000349354
0.000280315
0.00162592
0.00180574
0.000282787
0.000247757
0.00161951
0.00122215
0.00034916
0.000944419
0.00131149
0.00143237
0.00148212
0.000278396
0.00150032
0.000747944
0.000294126
0.00164165
0.000300547
0.000560049
0.000264258
0.000366567
0.000492727
0.000257977
0.0012835
0.000343837
0.00121135
0.000289005
0.000258363
0.00102138
0.000283857
0.000435964
0.00137878
0.000246568
0.0012945
0.000287446
0.000350316
0.000363872
0.00155385
0.000278854
0.000277939
0.00117326
0.00154721
0.000923142
0.000304879
0.00104139
0.00055262
0.00128619
0.000392652
0.000703255
0.00145919
0.000587011
0.00107844
0.00128879