/*--------------------------------*- C++ -*----------------------------------*\
| =========                 |                                                 |
| \\      /  F ield         | OpenFOAM: The Open Source CFD Toolbox           |
|  \\    /   O peration     | Version:  2406                                  |
|   \\  /    A nd           | Website:  www.openfoam.com                      |
|    \\/     M anipulation  |                                                 |
\*---------------------------------------------------------------------------*/
FoamFile
{
    version     2.0;
    format      ascii;
    arch        "LSB;label=32;scalar=64";
    class       volScalarField;
    location    "4";
    object      p;
}
// * * * * * * * * * * * * * * * * * * * * * * * * * * * * * * * * * * * * * //

dimensions      [0 2 -2 0 0 0 0];

internalField   nonuniform List<scalar> 
59516
(
-13.5815
-0.768469
-0.705989
-0.0625496
-14.1599
-14.2163
-13.5508
-12.009
-3.99227
-0.0680176
-13.897
-13.7264
-9.53868
-13.5547
-12.6345
-4.09679
-13.619
-13.9773
-13.8067
-13.4672
-13.8036
-12.0525
-13.5891
-8.76501
-3.56558
-8.35496
-4.91951
-13.862
-13.7699
-12.737
-14.1536
-13.8479
-6.30374
-0.0639717
-13.7913
-11.4175
-3.32909
-14.0038
-13.7702
-0.648369
-0.800452
-13.9217
-13.7675
-0.0242019
-13.6994
-2.22636
-13.7651
-13.7734
-14.1796
-13.8404
-14.2213
-0.0764876
-6.44974
-12.3728
-13.7026
-13.7141
-13.9543
-0.0807752
-8.72854
-13.8729
-0.0707829
-11.1092
-8.7755
-13.6317
-0.17399
-13.727
-0.434857
-11.5774
-14.138
-13.722
-11.7916
-13.4941
-2.44442
-13.5377
-11.685
-13.6965
-13.7414
-1.51432
-9.72572
-13.8187
-0.0625543
-13.7941
-13.7767
-5.54524
-13.812
-13.4427
-3.98102
-13.49
-6.3324
-13.9699
-14.0537
-11.8877
-13.2315
-11.7487
-11.7752
-14.1877
-12.7056
-12.0714
-13.8435
-9.40563
-4.31084
-7.88876
-12.5114
-0.518721
-2.38241
-0.34622
-0.362475
-3.76895
-6.72924
-9.77438
-14.0924
-4.73757
-11.9736
-14.0959
-13.0765
-10.7862
-1.56979
-12.3865
-12.3079
-1.69571
-12.4471
-12.2668
-3.18414
-12.3574
-14.0411
-13.8376
-13.0198
-13.9576
-14.1619
-13.1789
-13.0447
-0.819267
-11.5755
-13.1978
-13.2325
-11.5227
-14.0653
-12.8897
-7.85563
-13.3552
-4.65643
-5.89051
-12.0352
-4.64084
-13.4226
-13.3276
-13.7405
-13.5513
-14.1984
-13.2586
-13.4035
-0.176121
-13.0973
-0.162466
-13.1627
-0.234219
-0.270984
-13.1926
-13.2896
-12.7017
-13.3502
-13.3548
-12.6909
-0.206833
-10.7353
-1.551
-3.96356
-13.3091
-13.4062
-0.22953
-13.1824
-13.1879
-12.9334
-13.023
-12.9534
-13.7929
-10.9074
-13.8027
-0.7514
-10.7592
-13.0862
-6.99695
-8.21361
-12.9871
-13.0819
-4.45623
-6.02887
-3.39756
-13.1348
-12.9872
-0.0205816
-6.95503
-13.3205
-13.0047
-13.3526
-1.09291
-7.88588
-7.86899
-0.183216
-12.9029
-0.0415262
-3.33794
-12.1721
-9.54965
-11.1779
-6.8904
-13.3413
-0.187479
-8.99972
-12.6108
-2.33265
-13.8537
-12.5278
-11.2919
-12.5635
-4.98334
-13.283
-1.05166
-10.3484
-12.5549
-12.5184
-13.2631
-12.9371
-0.277579
-12.7204
-10.8867
-8.92237
-9.3837
-12.924
-2.01894
-12.7185
-6.82038
-12.9418
-7.13231
-7.54656
-12.9171
-12.9231
-2.63184
-12.8609
-2.89648
-13.101
-7.021
-6.64463
-0.236647
-13.1694
-13.0947
-13.0238
-0.679014
-12.9339
-13.1279
-0.648302
-12.9722
-13.1352
-8.21202
-13.0939
-13.1175
-4.02988
-12.8111
-9.96127
-12.7285
-9.13651
-12.7396
-12.7961
-12.8372
-11.3535
-3.10285
-10.3917
-3.62238
-12.7266
-8.59911
-13.6164
-11.1243
-3.86159
-8.81389
-12.7661
-11.4613
-8.54058
-12.7133
-12.8618
-5.02767
-12.9106
-9.50995
-8.74205
-12.6229
-12.534
-13.5777
-13.1049
-0.47885
-12.8519
-11.4724
-12.7956
-12.6134
-11.7866
-1.61806
-11.9251
-6.68739
-11.535
-11.3254
-12.687
-11.4669
-11.4891
-3.23672
-5.20369
-11.1448
-11.6123
-8.33989
-0.999406
-11.5005
-11.5299
-4.30147
-3.54329
-11.4698
-8.25864
-7.79361
-13.7176
-11.5985
-12.1946
-14.2144
-11.5974
-3.34446
-6.80374
-12.1856
-7.28121
-12.3333
-9.49674
-11.6226
-13.8644
-12.1861
-8.96654
-12.2857
-1.21017
-13.4745
-8.89754
-12.2935
-10.0809
-12.6315
-12.8352
-11.0706
-13.8402
-12.5575
-11.2219
-11.0921
-12.3382
-2.71001
-5.54098
-12.5425
-5.1346
-12.7974
-12.3666
-9.99358
-12.9496
-12.9598
-1.96152
-6.43097
-8.95334
-2.79938
-0.466604
-14.0623
-14.1522
-10.7926
-1.7631
-13.2624
-13.8462
-11.9755
-1.71903
-12.2912
-12.2689
-13.2675
-14.1661
-12.4802
-4.50692
-4.50267
-12.2416
-9.26593
-10.6075
-12.1496
-12.2817
-12.0335
-9.82311
-11.7017
-13.3381
-0.144959
-13.9014
-0.625693
-1.06557
-12.271
-0.402307
-13.8788
-12.2507
-0.740725
-0.691827
-3.05245
-12.0468
-14.0669
-12.1726
-14.0408
-0.718939
-4.0398
-12.0191
-12.0796
-12.5755
-11.9314
-9.90807
-12.669
-12.7336
-3.27805
-7.81895
-12.7563
-12.6464
-12.617
-2.21433
-1.11209
-1.27277
-7.13446
-11.1811
-0.512507
-1.92757
-3.7615
-0.262944
-12.0026
-11.8828
-12.1696
-12.1679
-12.747
-12.1641
-9.35938
-11.8649
-8.11008
-12.2003
-10.18
-12.3902
-12.1394
-11.4528
-7.24179
-12.5805
-13.883
-1.23492
-12.4355
-9.13311
-4.46095
-9.37212
-10.3217
-12.4764
-12.4016
-12.1988
-12.1125
-4.29036
-12.1413
-9.37359
-1.57067
-10.4156
-14.1356
-8.05222
-3.47113
-12.2405
-9.98197
-12.0924
-7.5797
-12.0941
-3.42767
-12.1635
-0.228599
-0.424832
-11.9287
-13.7665
-11.822
-10.9443
-2.0956
-11.1312
-11.0508
-2.2555
-11.4905
-11.0194
-10.7945
-10.7862
-5.31394
-11.1685
-10.8584
-7.42003
-10.7273
-4.75543
-10.6353
-13.8307
-10.6256
-14.225
-10.6954
-12.8768
-4.60181
-5.27403
-9.28636
-0.226136
-0.15926
-10.0337
-11.4058
-11.6183
-8.94146
-10.8737
-2.7044
-11.9232
-11.8065
-13.9155
-7.88462
-6.88822
-9.50203
-11.7962
-1.02488
-11.5275
-13.5832
-0.252587
-14.195
-11.8723
-3.63556
-13.4218
-9.99954
-13.6987
-11.0905
-9.67693
-10.5762
-12.0055
-9.76129
-12.0095
-13.2299
-4.06279
-4.12019
-14.057
-0.156705
-11.9421
-11.4606
-14.0878
-11.3523
-13.4064
-0.0570006
-11.6387
-4.63298
-0.0292036
-8.7501
-2.1357
-13.9543
-12.4077
-3.82189
-0.14936
-12.6452
-7.06822
-11.4954
-12.6025
-11.4593
-13.2875
-0.0490184
-5.68769
-3.67655
-11.4547
-1.93043
-8.4503
-11.9393
-7.33281
-11.8393
-0.142781
-12.0547
-3.65683
-11.8841
-9.30721
-6.36463
-5.90428
-11.9944
-0.121912
-2.3749
-11.4081
-4.42647
-9.01045
-10.3259
-6.75299
-6.48723
-11.3797
-11.3505
-13.0325
-11.2324
-6.42536
-11.3444
-11.2526
-6.17424
-5.40019
-0.0426279
-11.3824
-11.3339
-11.4169
-5.24575
-11.0122
-0.470662
-11.455
-0.313639
-12.0131
-0.0460669
-1.33351
-9.7136
-6.88643
-0.648112
-11.4802
-13.989
-0.16919
-0.950128
-11.3052
-11.1286
-1.80162
-11.204
-11.3171
-7.62061
-2.2368
-12.0136
-11.6131
-0.752648
-11.402
-11.4332
-8.35297
-11.1629
-14.1686
-11.3946
-14.0685
-9.86039
-14.1042
-9.96245
-1.22978
-13.3944
-0.302315
-0.285686
-14.2227
-14.1909
-10.0504
-11.3805
-13.9606
-13.8439
-7.01792
-5.606
-9.33577
-3.38391
-9.93195
-6.52314
-13.8915
-10.0225
-10.0522
-10.9425
-10.4207
-14.1376
-9.40323
-10.5917
-2.90781
-10.6772
-7.91464
-1.04365
-10.6826
-10.6205
-10.6624
-7.95335
-4.75162
-14.2089
-6.5975
-6.84835
-8.08757
-12.7171
-10.6838
-3.50533
-9.83554
-8.19982
-0.693952
-3.51925
-10.79
-12.331
-8.5774
-7.92466
-10.7619
-10.7566
-4.39847
-13.041
-11.2523
-7.34332
-11.1247
-8.99302
-11.6551
-10.9827
-0.595532
-1.30214
-10.0007
-14.203
-7.8799
-7.40068
-0.222919
-8.39637
-10.9594
-6.28908
-11.5022
-11.2471
-4.78592
-6.50877
-11.4108
-13.3902
-12.0155
-9.10662
-14.2035
-11.3896
-1.82245
-11.8768
-14.2197
-1.16093
-6.52212
-12.6789
-10.7213
-4.19848
-10.3819
-1.22338
-0.944104
-9.03436
-10.7392
-14.2077
-12.1493
-10.7307
-10.7104
-11.0172
-4.84509
-0.593944
-3.51677
-12.0167
-14.2048
-8.14146
-10.8779
-7.31411
-3.1072
-10.6861
-3.25
-10.7298
-13.6203
-6.61851
-0.0173776
-12.3241
-5.14238
-11.0752
-0.939575
-4.19954
-8.26957
-12.544
-10.9545
-11.0432
-14.2099
-12.4853
-2.10646
-14.1957
-0.229214
-0.0711235
-11.0064
-2.24442
-6.0018
-8.33081
-5.75277
-14.2155
-10.8181
-12.2848
-10.6255
-2.4677
-8.83959
-2.804
-6.79625
-12.1604
-10.5705
-10.704
-10.5866
-3.92257
-13.1515
-9.94701
-3.42173
-10.6377
-10.588
-10.52
-9.83253
-10.6412
-0.939288
-0.639295
-10.5427
-0.204104
-6.39624
-7.3852
-0.459443
-7.76745
-9.06076
-13.4612
-10.1025
-11.8123
-9.28396
-6.79169
-10.701
-10.7843
-10.7854
-5.76103
-10.747
-13.2238
-0.994852
-0.148627
-7.09708
-6.16849
-0.185235
-10.7253
-10.5741
-10.6127
-0.934578
-1.64214
-10.5745
-12.6546
-1.45149
-2.09838
-14.1444
-13.9477
-10.8669
-2.16847
-11.3683
-10.1672
-11.64
-9.13494
-10.4402
-14.0418
-9.13165
-9.11563
-4.781
-9.18564
-14.0731
-1.72087
-10.3491
-9.16618
-5.47498
-11.1271
-11.6122
-4.82712
-11.1853
-12.5126
-11.3023
-9.08623
-13.68
-2.79851
-9.09096
-12.1475
-0.781158
-9.7671
-3.77682
-8.96609
-4.92509
-14.0407
-9.32636
-0.181702
-9.05219
-8.94458
-9.54855
-9.01139
-8.36312
-0.269632
-2.27092
-11.1792
-9.68845
-7.95322
-11.3046
-5.69698
-12.5595
-1.29776
-9.59937
-4.33312
-8.72168
-11.3845
-0.822209
-9.81319
-9.60563
-14.2296
-1.30895
-11.6605
-12.8028
-2.11867
-9.39306
-2.24096
-7.67165
-10.7605
-11.5827
-9.41467
-9.35033
-9.31473
-14.1815
-1.65363
-11.5302
-5.78803
-1.02474
-9.46718
-11.8139
-9.9996
-9.97672
-1.74794
-10.1322
-10.2283
-5.35389
-12.9276
-14.227
-13.5296
-7.63383
-10.2162
-0.139119
-13.8831
-9.22861
-10.065
-8.38271
-10.177
-10.117
-10.3779
-11.2981
-10.4545
-11.6083
-10.1626
-13.3515
-13.5058
-10.0732
-11.1122
-10.0678
-11.586
-11.6146
-0.712427
-6.62345
-7.91736
-0.673488
-10.6698
-10.1849
-10.8167
-5.66854
-0.327427
-5.86857
-10.0546
-10.9834
-10.9964
-6.48264
-7.53144
-10.8708
-14.2146
-10.313
-0.403722
-0.97559
-11.9843
-10.3801
-6.22658
-8.29486
-10.2309
-6.68746
-9.84196
-9.84705
-9.85189
-8.3881
-11.1049
-9.8176
-14.1804
-1.32597
-9.80542
-14.1333
-9.84624
-12.821
-2.2029
-9.76926
-6.07814
-4.65806
-9.83976
-9.79139
-6.04188
-6.19051
-9.75921
-5.17473
-9.60387
-9.61895
-10.0106
-5.72211
-9.57495
-1.69226
-9.7145
-9.68588
-6.47994
-9.60367
-9.62714
-13.549
-9.33393
-7.84676
-9.50551
-9.52271
-6.59981
-3.1928
-5.65574
-13.8518
-9.68743
-9.69534
-8.18489
-3.27459
-13.87
-8.43697
-8.45355
-8.22337
-8.17428
-0.519846
-0.354592
-2.67229
-5.39786
-9.68281
-9.71394
-0.296495
-12.1301
-9.1726
-4.148
-13.8843
-7.95892
-7.91718
-13.9795
-8.08943
-11.6605
-2.43402
-7.93752
-11.4082
-10.5195
-7.98868
-5.86875
-2.09605
-8.01757
-12.0779
-10.8066
-6.20197
-2.94084
-4.72008
-8.35687
-4.86486
-12.0411
-4.65349
-8.24626
-8.80955
-14.05
-6.37192
-0.52426
-3.02466
-4.79455
-8.08856
-12.047
-8.75314
-8.7276
-1.03032
-6.90525
-0.459499
-8.88181
-8.86677
-4.81986
-0.678589
-10.6451
-2.13393
-13.0527
-9.8201
-9.71999
-13.8304
-4.83157
-11.4264
-11.8876
-7.96387
-0.867367
-9.71013
-13.719
-9.62877
-9.49649
-8.07515
-4.18106
-9.66348
-0.91002
-13.7716
-12.0991
-6.50796
-9.67802
-9.214
-12.035
-13.5234
-11.462
-1.577
-4.26076
-9.52849
-9.9639
-11.217
-6.22415
-11.0348
-13.8976
-9.45493
-11.127
-3.78169
-9.7665
-7.35234
-4.54114
-9.76907
-9.81797
-9.83652
-11.2142
-9.56439
-2.20775
-9.60904
-4.18645
-10.9596
-1.07727
-9.51518
-11.0589
-0.244457
-1.1921
-9.35492
-3.65953
-2.45693
-3.78256
-3.16743
-5.71648
-2.03867
-9.47005
-9.40394
-1.65986
-9.33302
-9.40659
-11.079
-0.546555
-9.48841
-9.10401
-0.0306202
-1.27831
-8.92504
-5.17681
-0.136982
-0.708309
-8.9486
-6.41521
-9.23483
-13.6089
-0.900256
-10.9378
-8.31744
-9.20963
-9.0386
-8.20348
-10.4662
-9.52734
-9.49127
-8.44865
-13.7926
-12.2032
-9.24373
-9.40378
-12.7239
-1.8558
-12.1149
-10.4645
-6.31789
-5.91636
-9.36473
-4.24469
-1.04134
-8.64956
-8.84634
-14.1617
-7.53397
-8.915
-8.82887
-10.1804
-4.18702
-8.82249
-8.85033
-13.3669
-8.86846
-3.99182
-9.02134
-9.04479
-7.33862
-6.56679
-7.92899
-9.01353
-8.9204
-9.02457
-6.19302
-7.68041
-9.14191
-8.14367
-6.1031
-6.43616
-6.46185
-6.45754
-7.46771
-8.97124
-7.6763
-13.888
-12.8284
-2.18375
-5.4364
-5.69975
-7.58493
-7.56415
-7.69761
-9.83718
-7.51082
-7.54147
-4.43159
-5.65291
-10.5453
-4.49887
-1.76929
-7.66449
-7.58001
-7.76891
-12.9771
-0.695897
-0.369592
-5.35434
-8.18759
-8.03292
-12.1021
-1.86655
-7.66057
-13.9076
-2.23304
-8.08009
-8.11959
-9.66732
-0.0418075
-7.9958
-8.01484
-7.9999
-8.65772
-0.269145
-0.457506
-8.68569
-8.64153
-8.58973
-8.59244
-8.93797
-8.3881
-4.21063
-0.843191
-14.0927
-10.8029
-8.71071
-8.62037
-6.53301
-13.4942
-13.1989
-12.296
-0.0833437
-12.3872
-8.74783
-8.77402
-8.67266
-8.69588
-8.74781
-8.69335
-11.8233
-7.29236
-11.5631
-7.69274
-4.14082
-0.665117
-8.81519
-6.53011
-0.213458
-7.7045
-9.05731
-13.7768
-9.14245
-6.2308
-6.00713
-10.6502
-6.76238
-8.95127
-9.30731
-9.17578
-7.49476
-8.13674
-13.5899
-8.92246
-11.4523
-4.07676
-3.3207
-8.81385
-3.43781
-1.17695
-9.11602
-9.00962
-6.70757
-4.50687
-5.18535
-12.9426
-9.01115
-2.64874
-0.293124
-7.99456
-1.48133
-6.4055
-8.72928
-10.6765
-8.15508
-1.35245
-13.1214
-0.793746
-12.695
-7.09771
-12.1168
-8.31391
-2.36009
-8.85109
-7.97902
-5.00744
-6.04153
-8.84684
-8.86975
-13.1379
-10.8286
-11.5044
-13.4218
-11.162
-10.7835
-10.7723
-11.6876
-8.71249
-8.60785
-6.76972
-3.47752
-3.88793
-0.889381
-12.1569
-6.80569
-8.4892
-8.36396
-8.41904
-2.26308
-8.27274
-11.6384
-0.158985
-8.24648
-8.51291
-9.72269
-14.2385
-11.6473
-11.6393
-8.34424
-0.683718
-12.1128
-8.4003
-10.185
-8.83338
-10.4035
-11.0876
-7.7421
-11.9868
-8.58545
-10.897
-8.75183
-1.05544
-11.6448
-11.973
-6.92868
-13.9542
-3.90853
-4.57315
-3.95131
-7.66272
-11.4607
-3.1498
-10.1472
-3.22621
-8.66435
-8.6121
-7.52323
-8.96587
-8.12871
-12.668
-10.4963
-8.00453
-10.7462
-8.38897
-14.2195
-11.9002
-8.37843
-8.11948
-10.386
-12.4982
-8.18888
-1.38285
-10.1106
-12.6498
-8.12885
-7.39109
-8.27282
-8.42224
-8.52542
-8.56813
-0.218327
-3.8905
-8.57935
-13.9635
-8.57913
-7.01676
-11.1797
-6.89472
-5.95729
-12.6294
-13.9967
-11.7121
-11.7281
-11.7971
-1.76576
-8.02938
-9.63229
-13.9625
-13.4097
-13.9748
-14.0857
-13.3952
-7.12812
-6.97617
-13.9688
-3.04702
-7.14057
-10.7693
-7.0201
-11.745
-10.8876
-13.9895
-13.1204
-11.748
-3.89321
-7.18917
-7.83642
-7.64824
-8.03083
-11.8028
-10.722
-7.90688
-7.68292
-7.81089
-0.817155
-12.4732
-2.25468
-8.04077
-9.36129
-8.25146
-8.03335
-7.81483
-2.22024
-8.16361
-7.19317
-8.12348
-8.12403
-11.9579
-7.37769
-4.2083
-2.59571
-11.3562
-5.78506
-5.70478
-11
-4.76913
-2.63368
-2.28149
-1.74721
-10.8875
-3.61558
-7.23317
-9.14465
-1.67327
-12.3142
-12.3826
-5.13081
-4.95768
-13.2847
-7.56479
-0.783173
-8.87424
-1.71356
-10.5559
-1.62804
-2.46762
-0.932838
-0.552249
-4.32282
-12.1
-2.45465
-1.30318
-1.43696
-7.90869
-1.53123
-7.82362
-12.3391
-8.06869
-7.97254
-10.8495
-2.48269
-8.17168
-8.12769
-0.562589
-3.91646
-12.1467
-8.16715
-8.22814
-10.9846
-12.4328
-11.8404
-12.413
-2.85688
-13.5584
-13.8696
-8.18561
-8.24809
-0.710237
-12.8001
-13.8996
-8.08767
-6.19695
-8.08723
-0.89771
-11.8731
-0.27044
-2.43991
-7.63399
-9.78008
-7.65158
-6.25387
-12.2207
-5.60667
-11.5685
-7.62931
-7.66636
-3.80683
-7.27724
-6.67875
-13.7492
-12.2093
-10.4837
-7.65692
-12.4341
-4.22345
-2.26825
-3.57317
-0.752851
-7.67228
-12.33
-7.63337
-0.742591
-0.573199
-11.9831
-7.73776
-3.60497
-12.8895
-7.74656
-7.77949
-12.0866
-1.03438
-11.9716
-7.79503
-7.95911
-7.98688
-8.44711
-8.03189
-11.8421
-11.5467
-8.02454
-13.2375
-8.59531
-11.5606
-9.78534
-7.95388
-12.3414
-7.74612
-6.16143
-13.3452
-8.80658
-7.86525
-0.556604
-8.04476
-8.0217
-5.9876
-7.70131
-10.6367
-3.05681
-12.1183
-7.41388
-11.181
-11.7947
-7.87957
-8.5561
-0.528547
-3.74553
-2.90636
-7.80286
-12.302
-0.930601
-7.65873
-13.3717
-2.91411
-10.9906
-2.6901
-7.65144
-9.43033
-7.63204
-0.07224
-10.0584
-12.29
-5.99205
-1.89116
-2.98987
-5.80858
-5.89012
-6.29549
-12.0943
-0.541232
-1.85959
-6.60214
-6.65934
-11.51
-10.7017
-6.64686
-6.99218
-6.41061
-9.83501
-13.3986
-12.5933
-8.53791
-1.56032
-11.4413
-11.335
-5.0542
-2.5957
-10.3866
-4.80436
-6.59381
-10.8342
-8.53842
-8.63705
-7.51015
-6.37706
-6.94913
-6.92273
-6.79189
-11.1132
-7.06729
-9.41595
-13.2148
-12.2911
-10.742
-11.8983
-6.43931
-4.69423
-12.1397
-7.1062
-10.8237
-8.31803
-11.2404
-13.6855
-6.54437
-0.388947
-7.1684
-7.29163
-7.66286
-12.1044
-7.15399
-7.53541
-8.69606
-7.68322
-8.68799
-7.26842
-0.0450381
-8.63167
-7.55652
-7.48606
-0.256318
-10.821
-13.5592
-8.60369
-8.94153
-6.78595
-7.61625
-7.54818
-3.07239
-13.4629
-7.63509
-7.65466
-7.71885
-1.86125
-12.0716
-8.11065
-6.86932
-8.62575
-4.436
-5.75371
-11.433
-7.08505
-6.88159
-5.60448
-6.91306
-7.50646
-4.70422
-7.06872
-12.0892
-8.00446
-4.05281
-12.0438
-12.0913
-6.19135
-6.19068
-5.27941
-7.1055
-3.15497
-7.27403
-3.43692
-14.2016
-11.2168
-9.34817
-4.50687
-0.994611
-12.6259
-1.07559
-1.14282
-7.06526
-0.0928223
-7.07123
-1.65942
-9.42555
-4.8057
-6.9967
-10.5918
-9.48849
-7.06053
-1.42648
-1.15337
-9.29176
-6.93802
-2.03157
-7.09121
-7.02532
-8.03048
-7.3251
-13.6659
-10.91
-12.5761
-9.30834
-10.5708
-7.06119
-10.9105
-9.35252
-7.06776
-12.6987
-13.7294
-10.5228
-10.2237
-7.06361
-11.7758
-6.82737
-12.5913
-8.99679
-10.8016
-1.0268
-2.07545
-10.2232
-0.535304
-12.2395
-14.1432
-12.8489
-0.675025
-3.10761
-0.905172
-11.9321
-12.558
-0.395341
-9.49465
-6.70194
-11.7165
-9.75843
-6.72076
-7.21574
-1.66665
-10.3678
-10.4912
-3.02741
-13.6271
-12.6063
-7.53193
-6.75365
-14.0717
-6.71644
-13.8342
-10.4948
-10.4101
-6.78465
-13.0724
-6.02585
-12.9828
-12.0778
-13.0943
-0.375337
-6.9143
-13.5462
-3.74159
-13.8982
-6.96394
-13.2295
-5.24773
-5.20695
-5.55685
-13.6613
-11.3306
-13.0745
-11.2729
-5.90782
-13.5324
-13.5669
-5.2708
-13.6264
-6.18738
-10.9029
-5.811
-11.3392
-7.48867
-5.00461
-7.11227
-4.91292
-7.16193
-1.17188
-6.2335
-5.71104
-12.6591
-5.52838
-10.5249
-7.92276
-9.38311
-6.09513
-1.93514
-4.50669
-10.5485
-5.83012
-12.57
-3.94774
-6.36762
-12.9901
-10.853
-6.43829
-11.6685
-6.33886
-5.80726
-5.69681
-7.33345
-6.13975
-0.0638502
-1.98916
-2.2484
-5.83641
-5.86394
-10.649
-2.59402
-1.50928
-5.54175
-3.7039
-12.538
-11.4667
-1.7953
-6.50543
-9.47526
-6.13264
-6.58328
-5.25762
-6.46658
-11.3842
-6.44703
-8.98128
-0.0348456
-12.3838
-8.84595
-13.9885
-6.64591
-6.4167
-1.13727
-12.6525
-4.83103
-6.66853
-10.9199
-6.91506
-6.70619
-6.22584
-6.30493
-1.7104
-6.86676
-6.56802
-6.61316
-6.30968
-7.35417
-6.4559
-12.3424
-5.33859
-6.69769
-12.5896
-13.965
-9.26796
-5.51437
-10.2678
-6.59396
-6.01126
-5.69487
-3.08408
-5.42205
-4.91358
-13.433
-5.46501
-7.36326
-7.41318
-1.90338
-5.36534
-12.3282
-6.1496
-6.28883
-8.80251
-8.23776
-6.07514
-9.62314
-7.45048
-6.19172
-6.06794
-6.93222
-6.08451
-12.2646
-11.8394
-5.53371
-5.30622
-5.87034
-2.46003
-6.23974
-7.4424
-10.697
-6.05232
-6.28699
-5.79066
-6.3716
-12.3634
-5.31089
-11.9962
-6.25982
-5.99641
-5.69683
-6.06647
-4.82074
-5.93526
-4.83078
-4.28627
-5.9449
-13.2308
-6.8398
-13.1998
-8.80201
-4.0953
-1.36645
-5.30317
-12.3494
-6.14386
-6.02565
-4.50482
-6.12903
-4.45378
-12.4478
-12.3842
-4.63918
-4.67734
-4.90158
-4.9264
-9.92308
-7.82209
-4.80019
-4.82321
-3.60967
-5.97675
-4.91858
-4.90931
-2.91706
-2.70844
-0.0136177
-4.92412
-9.93842
-1.72062
-7.85064
-5.13704
-5.25036
-5.5075
-7.03309
-12.2562
-6.29585
-4.50335
-0.668976
-1.05416
-7.95066
-5.15901
-4.91765
-6.86879
-1.67695
-1.14136
-5.25447
-12.297
-5.81712
-5.92193
-2.8345
-5.50417
-13.7229
-5.71285
-5.5667
-7.7398
-5.65345
-5.84605
-12.3258
-5.87164
-6.71292
-1.04483
-0.238011
-9.69472
-2.05524
-1.1364
-6.05316
-4.97702
-12.3227
-5.93418
-12.7996
-12.7629
-5.7747
-12.2395
-0.38853
-5.59282
-5.9522
-1.8912
-6.01644
-12.8106
-14.0148
-2.79571
-12.6021
-5.91241
-10.6083
-11.6728
-5.96311
-6.23938
-12.7201
-5.87757
-13.6653
-5.98719
-7.22461
-6.45323
-13.6913
-12.6553
-7.28286
-6.08882
-5.90482
-11.0471
-7.19546
-11.1051
-12.6463
-12.4021
-6.09804
-0.691063
-6.1375
-5.68117
-10.9658
-4.71922
-10.9452
-2.28719
-11.7081
-0.016586
-12.3775
-7.2727
-5.11752
-5.61708
-12.6064
-5.52189
-12.3368
-12.0073
-12.5276
-0.656028
-0.172102
-11.1628
-0.23677
-5.49749
-7.14966
-9.6431
-5.41776
-12.0741
-8.15985
-12.2051
-5.26421
-12.0897
-10.1475
-10.9875
-14.012
-7.51965
-13.4184
-5.24785
-0.601915
-8.24368
-0.51428
-13.8999
-2.59116
-7.91955
-11.0199
-5.77964
-5.49866
-0.778182
-1.8872
-5.602
-11.3101
-12.4844
-0.360908
-12.8642
-7.26565
-13.5598
-3.34427
-11.3691
-5.58584
-10.0858
-12.5706
-10.0186
-9.37669
-10.5273
-11.4404
-12.2405
-9.20229
-2.43024
-10.8054
-5.72503
-5.72662
-5.72719
-3.39926
-13.3768
-13.4324
-10.889
-6.21485
-12.0635
-12.4034
-6.23156
-5.74811
-5.69654
-5.49763
-13.3565
-2.72675
-5.40208
-8.55391
-5.51341
-10.8313
-9.96433
-6.52805
-3.26245
-5.48587
-5.45805
-7.76697
-13.87
-8.93124
-5.4752
-12.1583
-3.91525
-2.94938
-13.1964
-0.323911
-3.87821
-0.776351
-3.98752
-3.88257
-12.1605
-5.37945
-10.1052
-12.1159
-6.86513
-5.75534
-12.5691
-4.15362
-12.4203
-5.15317
-5.33149
-5.3528
-10.9536
-9.25378
-12.4083
-11.2813
-11.9227
-4.55801
-7.96497
-12.6111
-11.736
-5.69613
-11.7295
-4.01366
-10.8204
-2.60751
-11.0093
-5.44369
-9.76201
-4.84104
-7.46972
-11.7385
-3.90537
-11.7973
-2.98344
-5.83909
-4.79176
-1.76441
-5.01051
-4.67314
-6.66612
-12.4048
-4.91678
-2.23559
-0.996325
-10.9628
-1.082
-11.8723
-0.216324
-5.07775
-2.7965
-5.07555
-11.7779
-11.9742
-2.63075
-13.2943
-1.80468
-0.0189109
-10.9513
-9.89665
-5.03239
-11.7366
-3.76934
-1.11101
-6.47714
-0.204714
-8.32367
-10.505
-7.63257
-5.14256
-13.8006
-5.19881
-8.41197
-10.9888
-6.91468
-11.9299
-5.00449
-7.57672
-4.93738
-7.76065
-13.2892
-5.34458
-4.63532
-7.89029
-4.95354
-8.81602
-4.965
-3.25099
-4.93942
-13.3118
-4.91129
-4.72092
-4.85907
-12.9666
-6.28348
-12.4221
-13.4587
-13.322
-9.55697
-2.68208
-3.65618
-10.0059
-11.75
-1.1945
-3.46463
-4.84531
-4.78306
-11.8723
-13.9429
-0.0818175
-1.75694
-4.41514
-12.477
-1.75438
-6.98501
-11.9188
-4.72112
-4.69354
-4.72524
-4.54913
-4.72751
-9.67791
-5.77713
-11.6049
-1.28281
-4.91565
-4.77183
-12.9867
-7.45858
-12.7607
-13.475
-2.59228
-4.77639
-3.63279
-12.9777
-13.026
-12.8029
-12.7037
-6.50837
-3.57249
-12.5365
-2.62915
-4.78948
-11.532
-5.40935
-4.7461
-3.7472
-4.60226
-11.4407
-11.3272
-4.72918
-8.42215
-5.37967
-5.33247
-13.8734
-1.35248
-2.9398
-4.76961
-4.8102
-0.485709
-4.80214
-3.59443
-5.04645
-11.1616
-4.91481
-0.895988
-5.17445
-0.430206
-13.0741
-12.7199
-6.6719
-4.92563
-5.05866
-5.73395
-4.34631
-3.95754
-5.86605
-4.18532
-4.11543
-3.61435
-4.19747
-13.2239
-11.6688
-6.99062
-10.9756
-4.39525
-11.3473
-3.54426
-11.0029
-9.22285
-10.5699
-4.26747
-7.965
-1.01036
-11.3513
-12.2795
-4.92946
-14.0878
-4.41295
-4.5151
-7.53273
-1.12383
-5.85189
-4.53637
-11.2894
-3.54503
-4.83394
-4.72395
-3.28027
-9.4076
-3.29522
-3.23189
-3.32576
-3.38094
-3.32026
-11.044
-11.2083
-11.362
-10.979
-2.07575
-3.33378
-12.8968
-3.67476
-2.03081
-3.63225
-3.59705
-2.17767
-3.65639
-3.66776
-3.62381
-4.54509
-4.44147
-8.10083
-5.03494
-5.65522
-7.28736
-6.23491
-5.81623
-2.09909
-4.60736
-4.51097
-3.45197
-3.73441
-4.4923
-8.85277
-0.894765
-10.4742
-13.8202
-8.14727
-13.2885
-4.49917
-0.967084
-1.03654
-1.07601
-6.12333
-1.06671
-4.36067
-4.48357
-12.4485
-14.0155
-7.62159
-4.04062
-12.723
-6.90312
-8.45482
-4.41274
-8.64374
-4.41935
-8.87854
-3.73226
-1.89484
-2.40123
-4.21511
-0.0489594
-4.54651
-12.5957
-3.34871
-10.3355
-1.30819
-4.08278
-4.20052
-11.8201
-5.70402
-8.93975
-6.37044
-8.84488
-4.12383
-0.775362
-12.8222
-4.97098
-8.25221
-12.5641
-12.5758
-4.30784
-3.66177
-4.31081
-6.51751
-4.25495
-8.70685
-11.7744
-6.71899
-4.3342
-4.35883
-6.91686
-7.9223
-9.78548
-4.34002
-4.42736
-4.43424
-12.6516
-4.35872
-4.4407
-1.57286
-3.92641
-2.08228
-0.744402
-2.01976
-1.26145
-3.82574
-3.94311
-0.619356
-3.05253
-0.588622
-12.4678
-4.01331
-2.29878
-12.5263
-9.63562
-6.03134
-3.43644
-4.18651
-0.655922
-4.06099
-9.12193
-6.44619
-4.00531
-12.8117
-1.90574
-0.223452
-4.06712
-14.1838
-6.3358
-8.33301
-0.718265
-4.08198
-4.05465
-9.76353
-0.688355
-6.22425
-8.08976
-3.84398
-4.05106
-4.17921
-14.0644
-13.2338
-12.8383
-6.06895
-2.0522
-0.822398
-0.683075
-12.9918
-0.702636
-2.46851
-4.19529
-13.9185
-4.93193
-4.31127
-11.6292
-12.8866
-9.10523
-8.69669
-4.29624
-4.22642
-12.5407
-10.815
-11.3644
-1.21284
-10.5309
-2.77665
-5.67135
-2.26868
-4.10085
-6.56601
-13.2005
-6.56897
-6.53804
-13.5955
-3.8701
-12.6304
-2.96051
-8.61089
-10.1784
-13.1204
-6.5114
-12.7402
-3.69163
-3.06949
-1.79472
-3.83162
-12.8069
-2.94658
-2.66153
-7.91414
-3.04139
-2.998
-3.24415
-1.05424
-5.94165
-3.96576
-4.71146
-2.81193
-3.57427
-3.19287
-2.13301
-12.9205
-9.00737
-2.92121
-4.05755
-14.2208
-7.64416
-3.8807
-8.19627
-3.91141
-7.25021
-3.82548
-12.8364
-2.95143
-14.1458
-2.39993
-2.21087
-7.9738
-2.94956
-8.71055
-7.67146
-9.31009
-1.23118
-0.0682961
-1.54202
-1.36618
-2.45563
-0.884479
-2.66074
-2.53107
-2.52033
-13.4979
-1.57786
-12.9742
-13.0246
-1.96423
-12.3375
-4.11374
-12.6532
-11.7714
-2.86756
-12.3888
-2.8923
-0.109701
-9.18197
-5.77934
-12.0063
-11.7195
-6.43731
-0.954067
-1.74456
-9.33961
-10.1657
-2.91896
-2.84861
-3.81865
-10.3551
-11.2858
-8.41548
-1.02919
-0.769809
-3.79466
-9.5086
-10.4536
-11.4547
-13.5185
-3.90894
-12.0732
-11.1176
-8.31305
-14.1327
-5.7803
-7.58845
-9.63816
-3.66751
-13.0534
-0.702597
-5.68107
-11.008
-9.93256
-11.7398
-12.986
-1.13496
-5.63653
-3.803
-6.76138
-3.80743
-6.30542
-7.00235
-6.72367
-4.88847
-3.82456
-3.77768
-3.64441
-4.98172
-13.4564
-5.36231
-4.83241
-5.05989
-12.7384
-11.2256
-1.01981
-13.0299
-3.84033
-3.64935
-7.65985
-3.22219
-3.22502
-4.55431
-1.03328
-3.19504
-3.3339
-0.790328
-3.01371
-2.97375
-3.25918
-4.24191
-3.57056
-3.59244
-12.9111
-2.37414
-2.96035
-2.12879
-3.9204
-2.1159
-1.86648
-3.76572
-0.885823
-0.846738
-5.23381
-2.0284
-1.8874
-12.9642
-3.71498
-2.82288
-2.64375
-0.977767
-2.38799
-3.69972
-3.77229
-3.37791
-5.95825
-8.20071
-9.39147
-7.11321
-0.9818
-3.32505
-3.32139
-3.43864
-10.7933
-5.17143
-3.8091
-13.7216
-3.37437
-5.12709
-3.31365
-3.41502
-9.11674
-9.36923
-3.29025
-5.49453
-11.802
-11.6513
-5.19336
-3.35636
-12.8914
-3.33681
-7.15321
-3.3459
-13.9737
-3.3744
-10.5486
-3.27167
-9.01421
-10.9827
-12.6517
-11.5653
-3.3085
-11.1027
-8.01981
-9.01206
-3.3223
-1.42945
-5.79755
-8.21649
-3.32418
-3.31306
-3.34454
-5.79696
-3.00033
-13.6391
-9.74868
-1.31242
-12.928
-3.12905
-12.5509
-1.21787
-2.88594
-3.07366
-10.7278
-3.2747
-9.23283
-13.4654
-2.91557
-3.13017
-5.07001
-13.1473
-10.777
-10.7029
-3.16384
-11.3006
-9.55821
-3.12629
-5.16375
-4.35745
-3.08005
-3.04593
-9.30265
-11.435
-3.42417
-5.30861
-4.24876
-12.8046
-12.5728
-12.7876
-3.32005
-12.8401
-2.15486
-10.148
-11.7407
-6.62202
-9.11412
-3.3202
-13.0655
-1.62578
-1.77626
-1.93683
-5.56436
-1.94892
-6.04063
-5.88743
-5.20333
-6.4379
-10.4535
-5.32198
-7.91674
-0.508196
-2.24266
-4.52484
-7.60735
-3.19918
-8.53328
-11.9305
-6.11065
-10.3315
-9.87095
-0.607873
-1.91805
-8.96268
-2.25934
-0.0466243
-13.0728
-10.7512
-12.4599
-1.92809
-13.0356
-4.97458
-12.4221
-4.73078
-12.6691
-4.82521
-12.8453
-2.12152
-11.3451
-3.06022
-9.61407
-4.82006
-9.93548
-4.97917
-14.1857
-3.10771
-4.19134
-10.4018
-9.67653
-2.98903
-6.40965
-9.72241
-3.08702
-8.57785
-1.2274
-8.54615
-2.81777
-2.72471
-4.20199
-13.0052
-3.10202
-1.9333
-3.11879
-3.16069
-5.62589
-10.8876
-3.5066
-3.18082
-5.61626
-5.67656
-0.165264
-12.6504
-3.07733
-4.06752
-7.2911
-10.0496
-0.135981
-3.14746
-12.9404
-2.67032
-2.49326
-8.021
-1.52194
-2.23474
-11.7322
-3.05368
-12.8053
-5.84743
-1.99527
-2.47972
-6.53094
-2.41623
-3.11816
-4.44423
-2.91199
-2.96585
-2.8695
-1.23767
-7.76604
-2.821
-4.01221
-2.69941
-3.56302
-4.08417
-2.77932
-2.65373
-12.6421
-2.90578
-2.4547
-2.68448
-12.9109
-3.06116
-2.60903
-3.61756
-9.63125
-3.83643
-2.81472
-3.17456
-2.72771
-0.00104333
-12.8134
-3.87185
-2.71461
-2.10779
-13.2342
-5.17583
-1.37644
-2.62901
-0.529939
-5.62972
-12.8816
-2.61084
-12.7109
-2.44718
-1.59668
-12.9148
-12.7405
-13.1688
-1.96334
-13.0254
-0.774713
-0.846163
-2.67318
-1.34444
-1.17717
-3.30499
-9.66402
-12.9446
-12.4024
-13.3879
-12.2418
-7.63361
-5.5787
-2.03967
-2.49864
-2.91622
-7.16715
-8.25214
-4.93192
-10.77
-3.82277
-2.74082
-8.78077
-3.47689
-12.2937
-12.3968
-1.52344
-12.3662
-8.18043
-11.2786
-13.2508
-2.56252
-10.2704
-8.24891
-8.8193
-8.2982
-2.58555
-6.39283
-12.4987
-13.2927
-3.10981
-12.17
-13.3024
-12.7366
-10.548
-2.17702
-13.3518
-2.28199
-11.9439
-11.876
-2.29691
-2.57789
-2.04722
-7.39615
-13.0526
-5.37752
-8.22548
-2.11442
-9.16227
-13.053
-2.73772
-10.7528
-2.61217
-10.8781
-12.4015
-13.4016
-12.2766
-4.45223
-4.94696
-5.89321
-10.2457
-2.75442
-11.5109
-11.6105
-2.66133
-10.9711
-6.29697
-2.66925
-8.22407
-11.1723
-2.56645
-12.484
-2.14572
-11.3817
-13.6385
-2.42579
-7.02325
-2.46476
-8.41773
-2.57606
-1.21275
-13.0506
-8.58779
-4.20584
-5.69241
-7.23415
-6.92275
-1.04202
-6.40362
-6.41914
-12.4746
-8.73023
-13.7544
-11.8826
-3.45499
-12.7068
-1.29277
-1.31828
-9.23274
-7.84989
-10.9621
-10.9953
-1.38437
-1.19915
-6.27065
-12.8636
-10.4273
-11.8734
-13.6014
-1.43618
-10.5471
-8.65067
-10.5855
-10.9076
-8.09402
-12.9851
-11.041
-11.4102
-3.13721
-3.4567
-13.4832
-1.43734
-1.25942
-2.38495
-12.1191
-12.9408
-13.127
-2.28143
-2.18114
-9.64339
-2.35379
-2.32812
-9.88592
-13.3508
-10.8582
-3.67139
-12.3344
-6.30364
-10.7867
-10.8701
-13.3613
-2.20217
-7.82252
-7.91948
-2.32167
-2.14149
-2.0764
-2.17823
-8.47461
-2.31138
-13.3701
-10.5834
-9.71746
-2.302
-2.05047
-4.53013
-10.2847
-13.4648
-6.16081
-5.41548
-13.2919
-1.01811
-1.78065
-3.62162
-5.68219
-1.77057
-2.29225
-2.3272
-4.41198
-2.37846
-13.2541
-13.3766
-4.80988
-13.2751
-7.72208
-4.36085
-2.21319
-3.50566
-3.24608
-3.90857
-2.26865
-1.92999
-2.4662
-2.874
-2.02707
-3.39384
-3.63411
-10.3824
-2.05174
-2.24118
-4.03601
-1.40268
-2.28385
-2.07012
-1.87354
-1.95763
-2.09466
-13.2571
-2.14333
-2.31009
-7.40266
-7.44971
-12.8383
-7.8202
-13.2002
-11.6368
-11.9729
-12.8361
-6.86211
-1.97461
-7.78314
-13.5196
-3.06619
-1.03461
-10.4273
-1.96532
-11.7293
-1.94832
-2.20085
-4.79356
-1.73628
-4.36893
-1.98692
-1.66213
-5.61888
-10.6314
-0.226944
-9.12795
-14.0755
-1.5704
-10.1397
-1.53456
-12.7205
-10.8935
-1.47461
-5.6157
-10.5853
-1.6666
-12.8377
-10.5855
-5.03445
-1.67217
-2.04062
-13.1167
-6.19257
-10.5311
-3.83403
-5.19761
-11.6735
-3.15729
-2.09993
-8.87436
-4.62851
-11.1705
-4.67487
-9.17306
-1.95581
-1.97954
-2.73219
-2.40739
-13.3692
-11.3253
-1.27468
-1.2816
-14.146
-3.55763
-12.9504
-11.3723
-1.88636
-12.005
-1.73139
-1.71768
-1.69793
-1.23776
-1.6677
-1.68838
-14.2128
-1.79551
-6.14935
-8.64365
-0.675047
-3.03422
-8.97788
-7.72583
-8.93469
-8.93935
-0.790305
-0.786904
-0.801313
-0.589768
-0.502182
-13.3101
-0.562457
-6.1101
-0.471675
-13.7426