/*--------------------------------*- C++ -*----------------------------------*\
| =========                 |                                                 |
| \\      /  F ield         | OpenFOAM: The Open Source CFD Toolbox           |
|  \\    /   O peration     | Version:  2406                                  |
|   \\  /    A nd           | Website:  www.openfoam.com                      |
|    \\/     M anipulation  |                                                 |
\*---------------------------------------------------------------------------*/
FoamFile
{
    version     2.0;
    format      ascii;
    arch        "LSB;label=32;scalar=64";
    class       surfaceScalarField;
    location    "4";
    object      phi;
}
// * * * * * * * * * * * * * * * * * * * * * * * * * * * * * * * * * * * * * //

dimensions      [0 3 -1 0 0 0 0];

oriented        oriented;

internalField   nonuniform List<scalar> 
113358
(
-2.12774e-05
4.17425e-05
-2.77345e-05
7.26493e-06
3.15091e-05
-1.61108e-06
-8.21915e-06
-2.1474e-05
-2.76942e-05
2.35663e-05
-2.36916e-06
6.70664e-06
-2.25842e-05
-5.62057e-06
2.32786e-05
4.07157e-06
-1.63978e-05
-4.11652e-07
2.9467e-05
-1.2637e-05
1.48286e-05
-1.48373e-05
-9.25248e-06
9.35606e-06
-8.2633e-06
3.8683e-05
-2.73422e-05
-2.862e-06
-2.60617e-06
-4.30216e-05
2.45784e-05
2.11021e-05
1.07152e-05
1.12329e-06
1.98775e-05
-3.16894e-05
1.36882e-05
4.45103e-06
-1.62382e-05
-3.8937e-06
-4.3598e-06
1.82662e-05
-1.79095e-05
3.95915e-06
-2.21497e-05
6.74145e-07
-1.01278e-06
2.26063e-05
-5.24434e-05
6.60219e-06
1.26149e-05
3.31621e-05
7.71316e-07
-2.36286e-06
1.68257e-06
4.2368e-06
-7.14053e-07
3.29445e-05
-3.69027e-05
-9.94978e-07
1.15243e-06
2.07608e-05
-2.1221e-05
6.56874e-06
2.73384e-05
-2.05635e-05
-1.33102e-05
-2.45139e-05
1.29153e-05
8.20423e-06
3.30108e-06
1.45503e-05
-4.31458e-05
4.34613e-05
-1.48529e-05
1.84531e-05
1.88425e-06
2.18373e-05
-4.22958e-05
2.82721e-05
1.58668e-06
-2.45424e-06
-2.73541e-05
-9.85616e-06
4.12153e-05
4.42484e-06
-3.60784e-05
-1.35605e-06
-3.66864e-05
3.9749e-05
-1.60906e-06
2.2903e-07
6.56926e-06
-4.24257e-07
-6.18222e-06
-4.52742e-05
1.93896e-05
-4.87116e-06
3.05988e-05
-3.69973e-05
4.74176e-06
3.41159e-05
-2.39547e-06
-1.72865e-05
1.79612e-05
1.63789e-06
-2.272e-06
-3.12419e-06
-6.69239e-06
5.65411e-06
4.16021e-06
3.06292e-05
3.97659e-08
-2.31321e-06
-1.95772e-06
2.23408e-06
-2.44009e-07
-5.58153e-06
-2.48934e-05
3.02354e-05
2.58303e-07
5.72606e-06
-1.34501e-06
-7.86003e-06
3.56938e-06
1.9055e-05
-1.33657e-06
1.08753e-06
-1.88166e-05
-3.06486e-05
1.09395e-05
-1.78348e-06
2.00068e-05
1.57138e-05
-7.61018e-08
-1.67537e-05
1.14776e-06
-3.3136e-05
7.00577e-06
-1.47462e-05
4.06082e-05
5.93366e-07
-2.99852e-06
2.40074e-06
8.50354e-06
1.5817e-05
1.78621e-06
-2.63346e-05
1.1024e-05
-4.94205e-05
3.82244e-05
2.03686e-07
-3.3826e-06
4.45016e-06
3.24942e-05
-3.43523e-05
-2.31234e-05
1.86393e-05
-2.24513e-05
2.70394e-05
1.53304e-06
-2.1552e-05
-2.9312e-05
4.94704e-05
-3.73678e-07
3.91033e-05
-1.23805e-05
-2.64147e-05
7.51556e-06
-2.20041e-05
-8.06937e-06
-4.14818e-06
2.97098e-05
1.95178e-06
-2.74826e-05
-4.72596e-06
2.56125e-05
-1.37531e-05
-7.184e-06
-2.9606e-05
-1.38617e-05
4.31632e-05
-8.54553e-06
2.91168e-05
7.21617e-07
-2.13165e-05
-3.79848e-05
7.04633e-07
-2.72972e-06
4.0128e-05
2.92409e-05
1.21858e-05
-3.8148e-05
-3.28563e-06
2.35114e-05
-1.56864e-05
7.63421e-07
-8.52205e-06
-1.34072e-05
2.22526e-06
1.96582e-05
-9.49351e-06
3.62881e-05
-8.38653e-06
1.96238e-05
-4.7766e-05
-1.01688e-05
-4.35449e-05
4.68869e-05
6.8706e-06
-5.533e-06
1.55488e-05
-1.40974e-05
4.10499e-06
3.0798e-05
-1.18286e-05
2.23493e-05
-4.12829e-05
-1.68817e-05
3.46689e-06
3.01572e-05
-1.67011e-05
2.76819e-05
-1.44405e-05
7.00984e-06
-2.01279e-05
2.78793e-05
-7.13965e-06
-2.17815e-05
8.39711e-07
-1.12336e-05
-1.39258e-05
6.9021e-06
1.82581e-05
-2.58039e-05
-4.89806e-06
1.37804e-05
1.75039e-05
-7.52691e-06
5.67807e-06
1.81272e-06
2.88255e-05
-3.52707e-06
-2.66294e-05
1.374e-06
-1.10612e-05
-3.19519e-05
1.21893e-05
3.08291e-05
-3.59895e-06
1.77069e-06
-3.56845e-05
3.74137e-05
2.33915e-06
1.6739e-05
1.98149e-06
-2.10261e-05
5.08485e-06
-5.6378e-06
-1.31656e-07
-8.58305e-07
1.28098e-06
1.9538e-05
-2.01052e-05
4.09647e-06
-3.28393e-05
3.58068e-05
-7.13048e-06
9.54972e-06
-2.23517e-05
2.02293e-05
-7.40165e-06
8.55266e-06
-1.21141e-05
3.7635e-06
-1.53033e-05
-4.95899e-06
2.67937e-05
-6.55638e-06
-4.45881e-07
5.53499e-06
-5.10147e-06
5.99017e-06
-2.46115e-05
7.11915e-06
1.15697e-05
2.93587e-05
-2.83584e-06
3.36194e-07
-2.6693e-05
-1.99948e-05
-2.88301e-05
2.64793e-05
2.25076e-05
3.0157e-06
-2.76378e-05
4.58168e-06
3.30339e-05
-2.67433e-05
1.15133e-06
-7.36999e-06
1.86338e-07
-1.0376e-06
-2.4328e-05
2.55144e-05
7.06255e-06
5.49404e-06
7.38191e-06
-1.98779e-05
1.63596e-05
-1.15074e-05
3.91842e-06
-1.16647e-05
-1.42454e-05
-8.49558e-06
2.36496e-05
-8.81403e-07
-1.73239e-05
2.42546e-05
-1.65712e-05
9.66119e-06
-4.73806e-06
-3.96608e-07
5.06998e-06
-2.45072e-05
2.42637e-05
-2.39778e-05
1.81944e-05
-2.08491e-06
-4.03104e-07
-3.03299e-06
5.57306e-06
5.94163e-05
-5.61485e-05
1.97351e-06
-5.58686e-06
-2.13953e-05
6.48988e-06
1.67041e-05
-1.90437e-06
-5.27565e-06
2.86955e-05
-3.1227e-05
7.65547e-06
-1.65394e-05
-1.99382e-05
3.04102e-05
6.11815e-06
6.34826e-06
-1.21689e-05
1.87331e-05
-1.28388e-05
7.24286e-06
1.79076e-05
-3.90713e-05
1.38496e-05
-2.81703e-05
1.11646e-05
1.16589e-05
5.45033e-06
3.45632e-07
-2.34307e-05
1.78824e-05
5.18111e-06
-2.72456e-05
5.286e-06
7.75024e-06
1.42221e-05
2.24641e-05
-1.98692e-05
7.96409e-06
-1.07674e-05
2.00439e-06
1.89806e-05
-2.18969e-05
6.32868e-07
2.36787e-05
-2.52839e-06
-3.21846e-06
-1.7885e-05
1.4493e-05
1.61741e-05
-1.40678e-05
-1.66223e-05
4.17263e-06
1.12129e-06
4.76233e-06
-9.98563e-06
8.06894e-06
-1.83194e-06
-6.0816e-06
6.63774e-08
4.3271e-06
-4.31314e-06
-2.34501e-06
5.19996e-06
-2.14647e-05
1.8469e-05
-1.88964e-05
4.10071e-05
7.19259e-07
-2.24114e-05
2.02274e-06
-1.79557e-05
1.36096e-05
1.43749e-06
-6.87503e-06
-6.46399e-06
2.97334e-06
1.03911e-05
-7.01677e-06
-1.64578e-05
5.02598e-06
1.83e-05
-4.51834e-06
2.93413e-05
9.76187e-06
-3.49247e-05
8.06295e-06
5.3465e-06
-3.0723e-05
1.73805e-05
-4.07885e-06
2.8194e-05
-3.2246e-05
8.2145e-06
-1.51581e-05
1.30526e-05
1.36859e-06
3.21928e-05
-3.59794e-05
5.18276e-06
-1.6349e-06
2.20146e-05
7.35826e-06
-3.37941e-05
4.43661e-06
-2.30137e-05
-1.12822e-05
5.39191e-06
2.8935e-05
-2.72063e-06
-2.63896e-05
1.4724e-07
2.89041e-05
2.26523e-05
-2.46423e-05
3.51222e-06
-1.57729e-06
1.5453e-05
-2.66656e-05
-5.0994e-06
1.64196e-05
-5.89098e-06
1.64675e-06
4.1687e-06
-2.48893e-06
-1.18874e-06
2.80419e-05
-2.4532e-05
-1.12499e-05
6.0325e-06
3.64982e-05
-3.13812e-05
-6.90612e-06
1.56547e-05
-2.50799e-05
1.64613e-05
3.3353e-07
-2.01192e-05
1.7045e-05
2.97451e-06
-1.94557e-06
-6.90513e-06
2.4131e-05
-1.52628e-05
2.28292e-05
-1.14765e-05
-7.80139e-06
-3.52923e-06
-2.20446e-06
-1.50885e-05
1.99336e-05
-2.50539e-06
8.68936e-06
-3.23356e-06
-5.41439e-06
-6.37257e-07
-2.82304e-05
-3.74639e-06
3.26843e-05
-1.41607e-05
1.78572e-05
3.37877e-06
-7.20065e-06
2.84773e-06
-9.5658e-06
1.61465e-05
-9.41363e-06
-3.11748e-05
5.14634e-06
-2.08513e-07
2.63896e-05
-1.62124e-06
-5.06944e-05
4.28651e-05
8.88386e-06
1.05043e-06
-5.49044e-06
4.69842e-06
1.95717e-05
-2.86963e-05
-2.93645e-07
9.43011e-06
4.86583e-05
4.63293e-06
-5.07608e-05
-2.52707e-06
1.31878e-05
2.96857e-07
-2.85744e-05
1.5208e-05
-8.91426e-06
1.29369e-05
1.79877e-05
-2.78908e-05
-2.29892e-05
1.23334e-05
3.83064e-05
9.81032e-06
3.26904e-06
-4.77741e-06
8.33864e-06
-6.43193e-06
-3.4665e-05
3.28054e-05
1.13717e-05
2.93298e-05
-1.39396e-05
-2.67126e-05
-3.68335e-06
8.30105e-06
2.73915e-05
-3.20852e-05
-2.95557e-07
3.7316e-06
-3.52876e-06
-2.3774e-05
4.07745e-06
1.39229e-05
5.87397e-06
2.36023e-05
-1.23846e-05
-1.67301e-05
5.52542e-06
2.64431e-05
-5.37716e-06
-3.10808e-06
-1.7931e-05
-2.99251e-05
5.09857e-07
-1.80715e-07
2.96661e-05
2.61006e-05
1.29438e-05
-3.81312e-05
-9.42709e-07
7.56297e-06
3.766e-06
-1.12988e-05
1.96191e-06
-3.32909e-05
9.56012e-07
3.01966e-05
4.89713e-05
-3.9476e-05
-3.70099e-06
-5.6705e-06
2.74771e-06
2.77265e-07
-3.48635e-06
-1.89621e-07
-2.88121e-05
4.00542e-05
1.43594e-05
-2.54497e-05
1.64884e-05
-2.59651e-05
-6.24952e-07
9.76521e-06
-3.00657e-05
3.17808e-05
1.30761e-06
-2.76525e-06
-2.64446e-06
1.88391e-06
2.03306e-07
4.34499e-05
-5.2996e-06
1.34433e-05
-5.17684e-05
-2.80656e-05
3.86743e-05
-4.05167e-05
-1.15292e-06
3.40863e-06
2.64002e-05
-2.85594e-05
2.45894e-06
-2.77357e-06
2.7812e-07
-2.01842e-05
-8.81439e-06
2.66524e-06
2.64066e-05
-1.2603e-05
3.35974e-05
-2.87681e-05
7.82894e-06
4.58819e-06
-6.97802e-06
3.34342e-06
-8.32238e-07
-1.66582e-06
-6.65731e-07
1.61299e-06
-3.7646e-05
3.23959e-05
3.57548e-05
-3.05709e-05
4.04824e-05
-8.72875e-06
-9.83102e-06
-2.18153e-05
2.63105e-05
-1.3736e-06
-1.14712e-06
-2.37167e-05
2.65115e-05
-3.26933e-05
3.87208e-06
2.2977e-06
3.63818e-06
-5.91582e-07
-3.04736e-06
-3.14326e-06
2.20466e-05
-2.43236e-05
4.54469e-06
-1.9262e-05
1.83306e-05
-2.58465e-06
3.5218e-06
-1.83369e-05
1.49592e-05
2.02181e-06
1.33198e-06
3.38608e-06
-3.03053e-05
9.74591e-06
1.70729e-05
-9.02222e-06
-1.03806e-05
2.26013e-05
-3.23079e-06
-2.45299e-05
2.39612e-05
7.29096e-07
-1.11843e-07
-2.67795e-05
-3.60911e-05
3.33645e-05
-8.00182e-06
2.64349e-05
8.59436e-06
-2.6994e-05
4.34494e-06
3.08297e-05
5.3425e-06
-4.05907e-05
-2.21453e-05
8.81696e-06
3.62219e-05
-2.26077e-05
4.36489e-08
1.2481e-06
1.47758e-05
-1.58421e-05
4.2534e-06
3.31347e-05
-4.05575e-06
-3.32565e-05
-5.42572e-06
-3.65034e-06
5.19145e-06
3.98337e-06
6.39462e-06
-4.00264e-06
-2.28715e-06
-4.65852e-06
-2.08244e-05
9.71008e-07
-2.20021e-05
-2.34238e-07
-4.15599e-06
2.63889e-05
-2.9097e-05
2.6277e-05
2.24705e-06
6.0962e-07
-4.6324e-07
1.26923e-05
1.20642e-07
-1.24605e-05
-3.61541e-06
1.67846e-06
2.23512e-06
2.22539e-06
4.63304e-07
2.08018e-05
-2.35712e-05
3.68238e-05
3.37246e-06
-3.06668e-05
-9.43416e-06
-3.80202e-06
-1.22843e-05
-9.12544e-06
2.74821e-05
-2.77653e-05
1.74103e-06
-1.63279e-06
5.89304e-06
-2.40569e-05
2.78528e-05
-9.64643e-06
1.71615e-05
5.64009e-06
-1.09122e-05
-1.15526e-05
-1.41842e-05
-3.4525e-05
7.37597e-06
4.10935e-05
7.80194e-07
3.34087e-06
-7.05124e-07
-2.4314e-06
1.55253e-05
-1.20177e-07
3.44103e-06
-1.85867e-05
-1.74419e-05
2.80993e-06
1.76007e-05
-2.801e-06
2.19794e-05
6.8766e-06
-3.20098e-05
3.5536e-06
-2.7785e-05
-1.5014e-05
3.38318e-05
8.96504e-06
-8.24721e-06
2.79553e-06
-7.24023e-06
5.03864e-06
2.0239e-05
-2.68702e-05
1.48188e-06
-2.91762e-05
-2.94496e-05
1.17356e-05
4.7185e-05
-3.60194e-06
3.74205e-06
-1.65566e-07
1.96061e-05
1.107e-05
-8.58318e-07
-2.9546e-05
4.05142e-07
-3.64538e-06
-3.01751e-05
3.32779e-05
-1.54224e-05
3.52498e-06
3.92773e-05
-2.75249e-05
2.09264e-05
-1.69173e-05
-6.68802e-06
3.34091e-06
4.53765e-06
-2.82804e-06
-1.8625e-06
5.23091e-05
-2.40183e-05
5.71146e-06
-3.40248e-05
1.98119e-05
-1.79499e-05
1.53337e-06
-3.13968e-06
5.33818e-07
4.32778e-06
-4.83031e-06
-1.49231e-05
-1.91917e-05
5.1227e-06
2.8816e-05
-1.90383e-05
-2.05617e-06
2.06068e-05
7.1673e-07
2.24353e-05
-5.23616e-05
1.40156e-06
2.84847e-05
-1.69226e-05
-2.02807e-05
2.70969e-05
1.0064e-05
-1.3494e-05
1.45528e-05
2.54021e-05
3.85538e-06
2.40976e-05
-2.56598e-05
-2.33667e-06
2.15469e-06
1.35876e-06
-2.17872e-05
1.84392e-05
-2.57109e-05
1.24014e-05
9.44076e-06
3.9396e-06
2.60093e-05
5.40571e-06
-1.59308e-06
-3.00898e-05
-3.60395e-06
-2.99367e-05
2.50409e-06
3.10885e-05
5.79746e-06
-1.6391e-06
2.05519e-05
-2.4701e-05
-1.44339e-06
-3.94339e-06
-6.82979e-06
1.03193e-05
6.71115e-07
6.27452e-06
-2.98858e-05
2.29421e-05
-9.15775e-06
-2.3445e-05
1.26243e-07
3.2359e-05
1.73242e-06
7.23167e-06
-8.87186e-06
-1.83236e-07
1.64505e-06
1.8002e-05
-1.95707e-05
2.26267e-06
1.30725e-05
9.99068e-06
-2.53072e-05
-1.81806e-06
-2.64535e-05
2.97893e-06
2.5279e-05
5.17536e-06
-1.6117e-05
-1.29218e-05
2.38895e-05
1.19173e-05
1.5392e-05
-1.25386e-05
-1.49017e-05
2.21559e-05
1.23104e-05
-2.82284e-05
-6.28539e-06
-8.51102e-07
-4.98899e-06
5.84302e-06
3.51935e-06
3.02529e-06
-7.3545e-07
-5.77422e-06
1.42292e-06
2.27771e-06
-2.66838e-07
-3.56786e-06
2.63264e-06
-3.04851e-06
2.44256e-05
2.97859e-07
-3.88992e-05
1.37132e-05
2.50446e-05
4.90706e-05
5.4657e-06
-1.12759e-05
-4.34829e-05
-1.92967e-05
2.42905e-05
-2.55109e-06
-2.61308e-06
-1.15303e-05
1.02785e-05
-1.7429e-05
1.88337e-05
3.35396e-06
-9.19984e-09
-3.4889e-06
2.73443e-06
1.53292e-05
-3.0293e-05
1.22056e-05
5.85811e-06
-6.49139e-06
9.20264e-07
1.8817e-05
-1.04231e-05
-5.53627e-06
-2.35234e-05
1.2187e-05
-2.42824e-05
3.56215e-05
2.90684e-05
-2.70299e-05
3.22187e-06
-5.19042e-06
2.98575e-05
4.72406e-06
-3.32932e-05
-8.56069e-07
5.91712e-07
-3.04362e-05
1.16462e-05
1.82076e-05
3.40403e-05
-7.04707e-06
4.99064e-06
3.88028e-05
-4.59959e-05
3.27517e-06
-3.00091e-05
-6.20469e-07
3.26461e-05
-2.06715e-06
-2.10161e-05
-1.34487e-05
2.30142e-05
-1.12859e-05
-9.54926e-06
-1.39591e-05
3.48134e-05
8.83326e-07
2.82021e-06
3.36502e-05
-3.71587e-05
1.8611e-06
2.3468e-05
-4.23056e-05
1.70089e-05
-1.3856e-06
5.83049e-07
3.01657e-05
-2.95691e-05
-3.64342e-05
5.91242e-06
3.64326e-06
2.65711e-05
2.44461e-05
-2.44506e-05
8.84175e-06
-8.55593e-06
-1.46839e-07
1.91897e-05
-2.10594e-05
2.00117e-06
-2.55786e-05
3.59579e-05
-2.75373e-06
-7.59808e-06
-2.55554e-05
1.93839e-05
5.90285e-09
6.00038e-06
-4.05759e-05
3.68617e-05
4.78056e-05
-4.40095e-05
2.32859e-05
-2.10192e-05
1.7776e-06
-4.08499e-06
-1.54127e-05
2.00394e-05
-1.33127e-05
8.67307e-06
-1.46143e-05
3.38406e-05
8.40267e-07
-1.97018e-05
-3.4064e-05
2.93035e-06
3.67266e-05
-5.59072e-06
-4.93467e-06
-3.75944e-05
1.83408e-08
4.31152e-05
3.52697e-06
-1.29358e-05
9.29036e-06
1.21433e-05
1.98205e-06
-1.61921e-05
2.22751e-06
1.23934e-05
2.58811e-05
-2.82797e-05
-9.89525e-06
-9.61736e-06
1.07728e-05
1.98288e-05
-2.11036e-05
1.14383e-06
1.13144e-05
-5.34688e-05
4.11809e-05
2.59277e-05
-3.70394e-05
1.33581e-05
-1.98608e-06
-2.82494e-05
-6.25808e-06
9.03991e-06
-3.93041e-06
-2.52419e-06
-3.452e-05
4.08927e-05
-1.90177e-06
-1.36508e-06
3.27657e-06
-3.92376e-06
-7.93747e-06
3.66656e-05
-2.48103e-05
7.51591e-06
-6.87236e-06
-3.28762e-07
1.07613e-06
-1.8411e-06
-1.81257e-05
1.89808e-05
-1.37073e-05
1.29578e-05
2.28711e-05
6.08497e-06
2.91001e-05
-2.18864e-05
-1.31948e-05
5.02453e-06
-6.96915e-06
1.80179e-06
-4.69067e-06
6.10053e-05
-3.63814e-05
-1.96833e-05
-3.09712e-05
3.36211e-05
1.97502e-05
-2.31034e-06
1.91392e-05
1.04513e-05
-2.72629e-05
-2.37397e-05
-9.32687e-06
3.09019e-05
2.25258e-06
-6.7686e-06
7.27621e-06
-4.10155e-07
2.41433e-05
-2.46272e-05
5.18094e-07
1.70873e-07
-1.39572e-05
-9.41258e-06
1.23802e-05
1.10493e-05
-3.15452e-06
1.42602e-06
-1.63677e-05
1.81634e-05
-2.65243e-05
-6.82945e-06
1.36771e-06
3.19736e-05
-1.60674e-05
-6.37768e-06
-5.70682e-06
2.32986e-05
-4.73552e-05
-8.35955e-06
3.1873e-05
4.96639e-06
-2.72173e-05
-8.22603e-06
3.03595e-05
1.20771e-05
-1.10434e-05
-1.03484e-06
-2.42115e-05
3.79484e-05
-3.92837e-06
-9.59683e-06
-8.11968e-06
-2.77132e-05
3.28264e-05
3.02604e-06
-3.70167e-05
3.58381e-05
-4.40606e-06
5.57983e-06
-1.90028e-05
-4.73205e-06
1.27036e-05
1.11092e-05
-2.98681e-05
-3.47735e-06
3.57408e-05
-2.10488e-06
-2.5637e-06
-2.61472e-06
-1.97424e-05
2.48448e-05
4.67863e-06
1.77348e-06
-6.5069e-06
-7.64242e-06
9.60894e-06
-2.06798e-06
4.06747e-05
-3.43713e-05
-4.50605e-05
3.82494e-05
3.20851e-06
6.91719e-07
-3.89065e-06
-4.73945e-05
4.75515e-05
-1.10927e-07
3.25195e-07
-1.31897e-05
1.48529e-05
-2.58255e-06
1.15707e-06
4.97366e-06
4.21596e-05
-2.39597e-05
-2.31878e-05
-2.53929e-05
-5.75183e-06
2.70922e-06
2.80445e-05
3.13312e-05
1.38522e-05
-1.31583e-05
-3.20425e-05
1.86689e-05
-5.78093e-06
3.72202e-06
-1.66526e-05
4.70617e-05
-9.95713e-07
-3.43217e-05
-1.19707e-05
-6.06788e-06
9.29232e-06
-1.06403e-05
7.44912e-06
-9.50247e-07
9.4409e-06
4.50111e-06
-1.28953e-05
-1.1807e-05
-7.13163e-06
3.40483e-05
-1.49906e-05
9.69151e-06
3.3242e-05
-3.32339e-05
-9.70963e-06
-1.93628e-05
1.89246e-05
1.58017e-05
-1.53468e-05
2.76911e-05
-2.66881e-05
-3.76424e-06
3.07488e-06
9.79921e-07
-1.89388e-05
-1.613e-06
1.99645e-05
-1.25409e-05
2.59435e-05
-3.58908e-06
-9.84057e-06
-3.96884e-05
-1.91943e-05
2.48731e-05
3.38384e-05
1.71757e-05
-1.58487e-05
-3.31088e-06
2.11044e-06
8.2009e-06
-2.58916e-05
-2.86579e-05
4.65027e-05
1.5139e-05
-2.15689e-05
-9.42198e-06
1.60304e-05
-3.11551e-06
-4.69877e-05
1.04528e-05
3.95293e-05
1.87376e-05
-1.82523e-05
1.82742e-06
-2.37005e-06
3.39554e-05
-8.84882e-06
-3.85411e-05
1.3215e-05
9.86178e-06
1.68359e-05
-3.77597e-05
1.09673e-05
-7.50067e-06
2.54502e-05
-2.14979e-05
3.53335e-06
-2.78299e-05
2.82983e-05
3.14616e-05
-3.1853e-05
2.10681e-07
-2.19143e-05
2.09476e-05
8.30821e-07
4.38685e-06
-4.25014e-06
2.87197e-07
3.25657e-05
-4.03466e-05
2.81424e-07
-4.37782e-06
7.58021e-06
1.86983e-06
-4.9854e-06
-3.69566e-06
-1.81278e-07
-1.50571e-06
5.48196e-06
1.39452e-05
-1.27926e-06
1.77469e-05
-2.41228e-05
-1.57065e-07
6.5414e-06
-1.02645e-05
-2.53426e-06
1.07484e-05
1.88998e-05
-2.60533e-05
1.47824e-05
-7.58876e-06
-1.99327e-05
-4.01273e-06
2.55946e-05
-1.55948e-06
-4.41588e-05
-6.20343e-06
3.91712e-05
1.0896e-05
-3.26149e-05
8.57089e-06
5.51886e-07
2.35453e-05
-4.54255e-06
1.12457e-06
9.95778e-07
2.20475e-06
-2.36889e-05
-2.83894e-05
2.14699e-05
3.07615e-05
1.47115e-05
1.21669e-05
-2.1696e-05
-5.04714e-06
-1.04078e-07
2.4751e-05
-2.1418e-05
-3.30804e-06
1.70902e-06
-1.32072e-05
2.62584e-05
-1.47647e-05
2.8997e-05
-1.96796e-05
-1.12576e-05
2.58983e-05
-3.03176e-05
6.49181e-06
-2.18574e-06
-3.18932e-06
-3.02892e-05
3.23756e-05
1.1556e-06
3.47494e-05
-2.92582e-06
-3.48733e-05
2.33832e-05
-2.6852e-05
5.56534e-06
-2.3058e-06
1.05409e-06
-1.99115e-05
-3.83584e-07
1.92901e-05
-4.25625e-06
3.43068e-06
-4.67179e-06
5.5004e-06
-4.45011e-06
6.05907e-06
4.25902e-06
-6.47837e-06
-1.14881e-05
-2.3202e-05
-1.22953e-06
3.57934e-05
1.40718e-05
4.57598e-06
-3.21083e-05
1.35234e-05
-1.69452e-05
2.80026e-06
5.00254e-06
9.10169e-06
-1.07587e-06
-2.50935e-05
2.35916e-05
-2.95313e-05
3.70639e-05
7.80762e-06
-1.49962e-05
-3.78231e-05
4.12955e-05
-1.06709e-05
7.34223e-06
-5.14412e-06
-1.34259e-05
2.41296e-06
1.62034e-05
5.72094e-07
3.01652e-05
-3.55349e-05
4.66995e-06
1.68128e-05
-6.00426e-05
1.49991e-05
2.79906e-05
5.39605e-06
-3.26617e-05
1.71623e-05
1.0191e-05
3.43442e-06
1.57764e-05
-6.23617e-06
-1.28974e-05
-4.40661e-06
2.58422e-06
5.11911e-06
-3.24259e-06
-4.36576e-06
5.30351e-06
-2.66596e-05
2.57452e-05
-1.91035e-06
-1.96452e-05
7.60428e-07
2.08487e-05
2.62394e-06
1.8645e-05
-1.56127e-06
-1.99536e-05
-1.46051e-06
1.96753e-06
2.12945e-05
-2.11276e-05
-7.59719e-06
-1.35161e-05
2.23908e-05
-1.18171e-06
5.87073e-06
-4.72724e-05
2.43608e-05
1.71858e-05
2.88792e-05
8.75652e-07
2.11295e-06
-3.19254e-05
1.43357e-06
-1.69445e-06
2.77412e-07
1.06513e-05
2.20576e-05
-2.72869e-05
-1.67946e-05
-8.7551e-07
-4.94999e-07
1.82891e-05
1.60636e-06
-2.29012e-05
8.44378e-06
1.28582e-05
1.40951e-06
8.1644e-06
-1.01854e-05
5.14107e-07
-7.45228e-06
-1.73474e-05
3.52212e-05
-1.0304e-05
3.69446e-05
-3.94643e-05
3.40818e-05
-3.1931e-05
1.46918e-05
-6.48897e-06
-2.42774e-05
1.60579e-05
-1.25343e-06
-3.06851e-06
4.95418e-06
1.98525e-05
2.5877e-06
-6.05238e-06
-1.60786e-05
-2.32953e-05
3.73525e-05
4.96438e-06
2.58016e-06
-7.87648e-06
8.95899e-07
-2.81323e-05
-3.95925e-07
2.76376e-05
3.65789e-07
9.81791e-08
2.16682e-05
3.4913e-07
2.62611e-05
-4.70428e-05
2.07514e-05
-9.65099e-06
-2.7899e-05
-3.89311e-06
4.12477e-05
7.13421e-06
-1.10625e-05
1.26997e-05
-8.84363e-06
-6.59296e-06
-3.08818e-05
-4.1319e-06
4.17225e-05
2.33314e-05
1.89542e-06
-2.40693e-05
-1.16628e-06
3.6289e-06
2.38964e-05
-3.74671e-05
9.79047e-06
-2.18794e-06
-1.58985e-05
-9.01326e-06
2.70479e-05
-2.72737e-05
-1.25572e-05
1.33757e-05
2.57747e-05
4.48316e-07
-2.90776e-06
-2.59418e-05
2.83276e-05
3.05142e-05
-1.12694e-05
-7.85396e-06
-1.13476e-05
-2.00679e-05
4.61996e-05
-2.56797e-05
-5.53328e-07
1.60104e-05
1.50109e-06
-7.60601e-07
-1.70045e-05
3.17378e-05
-3.58936e-05
3.89854e-05
-3.49019e-05
-6.3428e-06
2.00519e-05
-1.68402e-05
3.15887e-06
1.24511e-05
-4.29294e-05
3.97464e-06
2.65582e-05
7.92959e-06
3.5735e-05
-3.14512e-05
-1.21658e-05
1.12455e-05
-1.19153e-05
-1.88071e-05
1.96768e-05
-2.41774e-05
-1.30245e-05
4.06855e-05
-3.6279e-06
3.57493e-05
-2.61074e-05
-4.68926e-05
3.71315e-05
1.38679e-05
1.56193e-05
-7.15329e-06
-2.20835e-05
3.03007e-07
-1.21177e-05
-5.02582e-07
6.27453e-06
-5.47548e-06
-3.7105e-06
3.60986e-06
-1.33811e-07
2.3644e-05
-2.60625e-05
-2.34955e-05
2.55486e-05
-5.77356e-06
6.8726e-06
-1.87798e-05
1.7482e-05
3.04005e-05
-2.50051e-05
-5.15823e-06
-2.59242e-07
-7.06988e-06
1.5184e-06
3.5372e-06
-7.52325e-06
2.32337e-05
-5.80385e-06
-9.8436e-06
-6.19475e-05
1.99123e-06
1.97561e-05
3.98599e-05
9.72623e-06
-4.09724e-06
-1.14261e-05
5.73954e-06
7.20002e-06
3.04454e-05
-2.98332e-05
-7.71427e-06
-1.58933e-05
-3.27096e-06
3.13436e-05
-1.21566e-05
1.01129e-06
1.98511e-05
3.1134e-06
-2.39702e-05
4.48577e-06
2.16455e-05
-2.51771e-05
2.84251e-05
-1.90087e-05
-1.05128e-05
9.97949e-07
1.55118e-05
-2.07294e-05
8.82061e-06
-2.04437e-05
1.56807e-05
9.23793e-06
-4.51564e-06
7.4207e-06
1.02024e-05
1.84583e-05
-3.59554e-05
4.05587e-06
-3.46235e-05
-5.28808e-06
3.56114e-05
-1.80265e-07
2.08902e-05
4.02299e-06
-2.46247e-05
8.79765e-06
1.67499e-05
-2.89074e-05
3.33419e-06
-5.43991e-05
4.67621e-05
-2.56983e-06
7.75156e-07
3.43792e-05
-3.50582e-06
-3.18287e-05
-3.81809e-06
1.37402e-05
-1.73894e-05
7.70371e-06
-1.74793e-06
-1.90677e-06
-4.15695e-07
4.29029e-06
-4.04024e-06
3.28823e-06
6.51639e-07
-4.61149e-06
-4.46535e-06
2.82327e-05
-1.91362e-05
-2.37639e-05
3.04515e-06
-7.6083e-06
2.82476e-05
3.96286e-05
-1.04952e-05
-1.19568e-05
-1.68926e-05
5.73716e-06
-3.45135e-05
1.14669e-05
1.74348e-05
4.73927e-06
-3.34781e-06
-1.85043e-06
1.85007e-07
-4.35112e-06
4.865e-06
-3.57744e-07
2.76735e-06
3.07291e-05
-4.32524e-06
-2.90016e-05
-5.09531e-06
2.29702e-05
-2.98192e-05
1.2081e-05
9.29676e-06
1.56166e-05
-3.63292e-05
1.14432e-05
-3.74211e-06
2.43692e-05
1.89905e-05
-3.96623e-05
-4.48502e-05
2.17337e-05
2.80907e-05
-4.99617e-06
2.85517e-05
-2.85687e-05
5.03742e-06
-4.97093e-06
-3.12513e-05
-1.32572e-06
-1.22589e-05
1.90376e-07
8.60999e-06
-8.86254e-06
3.35583e-05
6.24087e-06
-2.86357e-05
-1.16085e-05
-4.12407e-06
-3.23923e-06
2.05381e-05
-1.31741e-05
4.28468e-06
-2.07201e-07
9.14657e-06
-1.29781e-05
-3.11589e-05
1.38978e-05
1.4827e-05
2.40741e-06
2.0211e-05
-2.82133e-05
-7.29634e-06
1.49256e-05
-2.23382e-05
6.65705e-06
3.47974e-05
-1.90755e-05
-3.70025e-06
-3.07612e-07
3.68547e-06
-1.15225e-05
3.03186e-05
2.0311e-05
-3.91456e-05
2.72375e-05
-5.80796e-07
-4.25752e-05
1.59586e-05
-2.84351e-06
2.46586e-05
-1.88506e-06
-1.99265e-05
2.57235e-05
-2.47059e-05
1.87329e-05
-1.92279e-05
-1.09535e-06
-1.88941e-05
2.09031e-05
-8.90248e-07
-1.4047e-05
-2.34708e-06
-1.03506e-05
2.74537e-05
-6.06103e-06
-7.49726e-06
-1.19769e-05
2.65458e-05
-2.04435e-07
2.61905e-05
-4.64433e-06
-2.13066e-05
3.07529e-05
-3.13849e-05
-4.26211e-07
1.0704e-06
3.11471e-05
-2.60666e-07
-2.01378e-05
-1.06743e-05
-8.28028e-06
-4.53833e-06
-2.16537e-05
3.4429e-05
-1.69235e-06
-3.84658e-06
5.31522e-06
-2.37743e-05
3.51124e-05
-3.4968e-06
-7.7917e-06
1.93037e-06
2.34513e-05
5.81487e-06
-3.14013e-05
-7.19059e-06
1.88803e-05
5.05639e-06
-1.70755e-05
-2.31434e-05
-3.49601e-06
2.33169e-05
3.61149e-06
1.50048e-05
1.33131e-05
-4.04409e-05
1.21342e-05
1.20967e-05
-9.07231e-06
3.41029e-05
-3.70131e-05
-4.73644e-06
2.97885e-05
9.95277e-07
-2.60376e-05
3.26988e-06
-4.3443e-06
1.04954e-06
2.25138e-06
2.56623e-05
1.28088e-06
-2.92116e-05
3.37612e-05
-7.03901e-06
-2.82656e-05
1.6456e-06
-5.39319e-06
6.0737e-06
-2.5158e-05
2.47552e-05
-3.03192e-05
-5.65292e-06
2.50885e-05
1.12082e-05
1.63498e-05
-1.58877e-05
-7.50016e-08
-5.78683e-07
-3.95645e-05
2.47495e-05
-1.078e-06
1.59149e-05
-5.28908e-06
5.45404e-06
-1.12594e-07
1.10106e-05
-1.00088e-05
1.40065e-05
-1.51165e-05
1.92717e-05
1.80374e-05
-9.7689e-06
1.20737e-05
-3.15589e-05
-1.30881e-05
3.24195e-05
-5.16128e-07
-2.73102e-05
2.77707e-05
-1.08932e-07
8.33927e-06
-1.83939e-05
-1.92123e-05
2.95115e-05
2.1689e-05
6.66512e-06
-3.54197e-06
-2.47629e-05
-6.52371e-06
3.55959e-06
3.75751e-06
-7.70962e-07
-3.47592e-06
3.91239e-05
-1.39614e-05
-2.29272e-05
9.07854e-06
1.19693e-05
2.59306e-06
-2.35807e-05
-5.22579e-08
3.00008e-06
-2.87659e-06
-2.15696e-07
4.78016e-06
2.54025e-05
-2.98211e-05
2.70739e-05
3.44572e-06
-1.22039e-05
-1.82374e-05
-1.6498e-06
9.18477e-06
-7.9606e-06
3.53947e-07
2.31906e-05
1.95168e-07
-2.65184e-05
3.42668e-06
-7.06315e-06
-1.84122e-05
8.40764e-06
1.73402e-05
-5.13224e-06
2.37012e-05
3.26448e-06
-2.1886e-05
2.1274e-05
-2.43965e-06
-2.32488e-05
4.44806e-06
-4.02242e-06
5.69463e-06
-1.65665e-06
3.54613e-06
-1.98529e-05
1.68612e-05
-6.317e-07
1.71292e-06
1.92488e-05
-1.80082e-05
-2.95895e-06
1.18489e-05
1.47673e-05
5.80489e-07
-2.7254e-05
1.51844e-05
1.95101e-05
-1.34551e-05
-3.41846e-07
5.43946e-06
-5.42878e-06
-3.56103e-05
1.52755e-05
3.48546e-05
-1.47017e-05
3.2511e-05
6.39657e-06
-3.5454e-05
-3.4982e-06
1.99712e-05
-1.27612e-05
-2.1567e-05
1.01733e-05
1.24394e-05
-2.74285e-05
-1.45011e-06
-7.54828e-06
3.64833e-05
1.81219e-06
3.66665e-06
-5.6178e-06
2.98401e-05
-6.08689e-07
-3.22424e-06
-2.60331e-05
4.8002e-06
-6.61761e-06
1.95491e-06
-1.63623e-05
4.30555e-06
-9.40257e-06
2.15486e-05
-1.85415e-05
-1.34671e-05
1.39867e-05
1.80916e-05
3.22137e-05
-2.38149e-05
-7.21076e-06
-9.18481e-07
-3.34704e-07
2.22675e-06
-2.14209e-06
-9.15631e-07
-4.63661e-06
-4.27761e-07
6.14183e-06
1.13075e-05
2.52e-06
-8.78273e-06
-5.09425e-06
-1.74694e-05
1.80338e-05
-1.51376e-06
1.06709e-06
3.66187e-05
-2.18204e-06
-3.54998e-05
-1.2851e-05
3.29141e-07
1.49886e-05
-2.62648e-06
6.88274e-06
-2.55521e-05
1.67124e-05
1.92507e-06
9.71025e-06
-2.01112e-05
1.22018e-05
-1.78064e-06
5.4466e-06
1.44233e-05
2.73474e-06
-2.28496e-05
7.85341e-06
-8.47366e-06
5.68177e-07
2.39457e-05
-1.76213e-05
-4.7797e-05
4.11543e-05
2.23981e-07
2.4892e-06
1.66292e-05
-1.9288e-05
2.08685e-06
1.5681e-05
-1.81279e-05
3.50544e-07
1.50617e-05
3.89028e-07
-1.09196e-06
-1.43544e-05
6.93631e-06
1.6637e-05
-2.36907e-05
4.46661e-07
2.41948e-05
-1.46536e-06
-4.65714e-07
-2.22589e-05
-2.51135e-05
1.02968e-05
-8.702e-08
1.46889e-05
-7.68534e-06
-6.96904e-06
-1.07757e-06
1.71505e-05
-2.9573e-05
2.07294e-05
-8.59074e-06
-2.77303e-06
-1.37138e-05
-2.16967e-05
3.80999e-05
-3.40982e-06
5.39922e-06
-3.53352e-07
-1.61097e-06
-2.92029e-07
3.45885e-06
-3.28779e-06
-8.74122e-06
3.72086e-05
1.35938e-05
-4.22121e-05
2.27322e-05
1.00008e-05
-9.10243e-06
-2.30544e-05
2.72438e-05
-2.35653e-05
2.90923e-05
-3.26572e-05
4.12199e-05
-4.58233e-05
6.22904e-06
-1.63319e-06
-4.33705e-05
1.82426e-05
7.70868e-06
1.73516e-05
-2.44887e-05
-1.36511e-06
2.76665e-05
-1.77462e-06
2.88193e-05
-3.81912e-05
1.32296e-05
-3.83009e-06
1.50136e-05
-1.66189e-05
4.40889e-06
-2.78955e-06
-1.25123e-05
1.02269e-05
-5.76145e-06
-1.70957e-05
5.12115e-05
7.09237e-06
-4.07607e-05
-1.6823e-06
-1.63327e-06
3.1963e-06
-3.83597e-06
8.99923e-06
-3.84254e-05
-3.52285e-05
-3.45674e-06
-3.97835e-07
3.88975e-05
4.33384e-06
4.74877e-07
-4.4906e-06
7.91591e-06
-1.86839e-06
-2.8152e-05
2.21509e-05
-5.36159e-07
8.73897e-07
1.51568e-05
-1.56887e-05
1.00758e-05
1.44951e-05
-2.67854e-05
2.32758e-06
1.87922e-05
2.20333e-06
3.57778e-07
-2.19374e-05
-4.96524e-06
3.25828e-06
4.32883e-05
-4.14287e-05
-1.6314e-05
-4.56528e-06
1.24739e-06
1.97398e-05
-7.4999e-06
6.39833e-06
-2.36452e-05
2.46345e-05
-2.29961e-06
3.42391e-05
-3.08601e-05
-1.03162e-06
2.987e-05
8.14809e-06
-1.30151e-05
-2.48125e-05
4.3223e-06
-3.36165e-05
2.55539e-05
-3.06053e-05
3.8137e-05
-3.45675e-07
1.44569e-05
-5.68989e-06
1.43444e-05
-2.74659e-05
-5.45373e-06
1.20922e-05
2.08144e-05
-1.1669e-05
-2.3706e-07
1.10145e-05
8.03435e-07
-9.12622e-06
2.34326e-05
-1.66643e-05
2.20568e-06
-2.83919e-05
2.54204e-05
2.53737e-05
-2.24082e-05
-3.23168e-06
3.65448e-06
7.10947e-07
-1.06902e-06
2.99944e-05
-4.35273e-05
-1.75744e-05
3.0877e-05
-3.45324e-05
-1.56398e-05
2.41201e-05
2.60174e-05
3.25174e-05
3.93029e-06
1.65468e-06
-3.82038e-05
2.76374e-05
-1.66203e-05
2.14743e-05
-4.56317e-05
-5.18026e-06
1.89126e-05
3.20953e-05
3.33058e-06
2.6939e-07
-3.50674e-06
2.97226e-05
-2.76137e-05
-1.05097e-05
8.38106e-06
-2.66979e-05
-8.31373e-06
8.72766e-06
2.60666e-05
1.23552e-05
2.09183e-05
-1.15999e-05
-2.16966e-05
8.27051e-06
3.08169e-05
-3.01537e-05
-8.82924e-06
6.00973e-07
-1.18526e-05
1.13078e-05
-1.33225e-05
-9.82669e-06
1.00949e-05
1.26552e-05
2.24445e-06
2.58848e-05
-5.70796e-06
-2.25654e-05
-3.78627e-05
3.71438e-05
-7.52182e-06
-3.22675e-06
2.72663e-05
-2.54786e-05
1.49255e-06
2.02101e-05
3.90924e-06
1.14509e-05
-3.543e-05
-6.04558e-07
-2.10114e-06
2.83017e-06
-1.83222e-06
1.53147e-06
-6.26861e-08
-1.8443e-05
-8.71476e-06
1.08177e-05
1.64363e-05
-2.13928e-05
-1.98533e-06
3.00211e-05
-7.02913e-06
-8.33312e-06
2.70427e-05
-2.74381e-05
8.71536e-06
-1.88268e-05
1.55927e-05
-7.2048e-06
1.06041e-05
-9.41345e-07
2.78885e-05
-2.95694e-05
2.25375e-06
-2.95535e-05
6.25399e-06
1.92414e-05
4.05931e-06
1.16602e-06
3.72586e-05
-1.43094e-05
-2.43205e-05
2.59147e-06
-3.84939e-06
-1.6167e-05
-8.44125e-06
6.15891e-06
1.66588e-05
-1.78206e-06
6.84873e-06
-2.17255e-05
-5.40857e-06
-8.05668e-06
9.02805e-06
3.2362e-06
2.05714e-05
-5.35875e-06
-1.57978e-05
1.6759e-07
1.10929e-05
-4.22373e-05
4.37397e-05
-1.2495e-05
-1.94776e-05
2.978e-05
3.31254e-06
-1.34843e-05
-5.49682e-06
2.55105e-06
2.922e-05
-2.64283e-05
-4.56395e-05
3.4016e-06
2.03364e-06
4.05443e-05
-2.7527e-05
4.36344e-06
2.02028e-05
3.02581e-06
-1.99728e-05
1.31301e-05
2.57655e-05
-1.88137e-05
-2.14355e-05
-3.70058e-05
1.13467e-05
4.73029e-05
7.87688e-06
-3.42179e-05
-3.03206e-06
2.9446e-05
-2.35393e-05
4.24156e-06
-2.10555e-06
2.13407e-05
-2.41248e-05
-1.28886e-06
-3.54209e-07
2.54421e-05
3.81958e-06
-3.21854e-06
2.66585e-05
-2.71163e-05
1.20536e-05
-6.15724e-06
-1.47342e-07
-5.67646e-06
5.82733e-06
-3.91874e-05
-1.08485e-05
4.41924e-05
-4.22088e-06
3.55743e-06
1.16126e-06
-6.0568e-07
-2.97643e-05
-7.31207e-06
1.44933e-05
2.25595e-05
-2.07464e-06
2.0832e-05
1.3566e-06
-2.01471e-05
-1.17047e-05
-1.36929e-05
8.8732e-06
-7.92977e-06
5.50712e-06
3.35643e-05
-3.09633e-05
2.84134e-05