/*--------------------------------*- C++ -*----------------------------------*\
| =========                 |                                                 |
| \\      /  F ield         | OpenFOAM: The Open Source CFD Toolbox           |
|  \\    /   O peration     | Version:  2406                                  |
|   \\  /    A nd           | Website:  www.openfoam.com                      |
|    \\/     M anipulation  |                                                 |
\*---------------------------------------------------------------------------*/
FoamFile
{
    version     2.0;
    format      ascii;
    arch        "LSB;label=32;scalar=64";
    class       volVectorField;
    location    "4";
    object      U;
}
// * * * * * * * * * * * * * * * * * * * * * * * * * * * * * * * * * * * * * //

dimensions      [0 1 -1 0 0 0 0];

internalField   nonuniform List<vector> 
59516
(
(0.165187 0.0154662 0.00424065)
(0.173232 0.00471646 0.0119948)
(0.147128 0.00328071 0.00435985)
(0.143859 -5.1823e-05 -0.00338646)
(0.143079 0.000152738 -0.000780819)
(0.124129 -0.0123558 -0.0133108)
(0.160195 -0.00570807 0.000309194)
(0.168585 -0.0058389 -0.0112264)
(0.160423 -0.00381436 0.000405899)
(0.127017 -0.00920575 0.0241495)
(0.147728 -0.00535055 -0.00262623)
(0.129026 -0.0127938 0.00904924)
(0.164047 0.00926748 0.0111136)
(0.0613625 0.00725372 0.000380822)
(0.145189 0.0250795 0.00608488)
(0.128317 0.0198638 -0.0080592)
(0.150215 -0.00357988 0.00699723)
(0.12313 0.00604741 0.00857791)
(0.1648 0.0074855 0.00320499)
(0.144263 -1.76983e-05 0.00401448)
(0.110436 -0.00498505 -0.00291364)
(0.157526 0.00107481 -0.00176499)
(0.155814 -0.00714437 0.00103223)
(0.103233 -0.00368399 0.0173207)
(0.176261 -0.00466992 0.00700289)
(0.155942 -0.00169224 0.0181498)
(0.11792 -0.00416143 0.0142077)
(0.0871548 0.0118887 -0.0217777)
(0.135639 -0.0097012 0.0117406)
(0.0541245 -0.0107396 0.00787951)
(0.151773 -0.00540414 -0.0106203)
(0.105197 0.0232183 0.01645)
(0.157048 0.00869228 0.00341348)
(0.157292 -0.00522631 0.00934744)
(0.141341 0.0157774 0.00183571)
(0.184472 0.00348454 -0.00267751)
(0.058589 0.00397164 -0.0216819)
(0.116432 -0.0044313 -0.00557156)
(0.157726 0.00227642 -0.00326767)
(0.161045 -0.00595162 0.00427818)
(0.15137 -0.00362788 0.00753935)
(0.155091 -0.00415544 0.000680404)
(0.162903 -0.00186456 -0.0134224)
(0.146829 -0.00524772 0.0120725)
(0.160347 -0.000528289 -0.00515971)
(0.137382 -0.0239494 -0.0292161)
(0.169404 -0.00302742 0.016856)
(0.15221 -0.000933537 -0.00248445)
(0.158233 0.00372176 -0.00532889)
(0.138052 -0.00101251 -0.00192027)
(0.147963 -0.0030101 -0.0113393)
(0.100912 -0.00239306 0.0114907)
(0.172805 0.00707253 -0.00433355)
(0.17133 -0.000213886 0.00208314)
(0.136669 0.0116888 0.0078326)
(0.151467 0.0118995 -0.00682969)
(0.134389 -0.00400714 -0.00150597)
(0.131755 -0.00073816 -0.0271667)
(0.144874 -0.00658882 -0.00329641)
(0.143073 -0.00205456 -0.000582547)
(0.152982 -0.00444248 0.00914494)
(0.0611667 -0.00395628 0.000776141)
(0.158266 -0.00401607 0.00376437)
(0.140812 0.00159665 0.00161314)
(0.153437 0.00791266 0.00437353)
(0.144814 -0.00419982 0.00130322)
(0.0774265 -0.00415903 0.0111374)
(0.115207 0.0109688 0.00844155)
(0.168712 0.0117051 0.00688797)
(0.1432 -0.00334142 0.00419829)
(0.0893185 0.00509084 0.00125722)
(0.142852 0.00487912 -0.0024877)
(0.0704294 0.0140048 -0.022635)
(0.146691 0.00518243 -0.00414383)
(0.141983 -0.00434137 0.00153561)
(0.152873 0.000487381 0.00166886)
(0.141639 0.00478808 -0.0109121)
(0.16909 0.0131697 0.000733269)
(0.108741 -0.000634875 0.0128648)
(0.13698 -0.00756868 -0.0109325)
(0.111872 0.0091843 0.0178259)
(0.144912 0.00562563 0.00332205)
(0.133718 -0.00804656 0.00194434)
(0.0798997 -0.0110566 0.0179608)
(0.136794 0.00227332 0.00198116)
(0.143797 -0.00110934 -0.00531028)
(0.0946521 -0.0307493 -0.000982783)
(0.162568 -0.00252127 0.000724041)
(0.141942 0.0164797 0.0201849)
(0.141996 -0.00866479 -0.00893507)
(0.147032 -0.00613295 0.00557407)
(0.163146 -0.00929378 -0.00320249)
(0.140476 0.00232498 0.00675865)
(0.134798 -0.00341722 0.00057525)
(0.141189 -0.00605736 0.000221847)
(0.147385 0.00836621 0.00459014)
(0.158659 0.00241144 0.00263416)
(0.129535 -0.00924208 -0.00711269)
(0.115537 -0.00201235 -0.00665348)
(0.158995 0.00180881 -0.000913503)
(0.120151 0.0110972 0.0132318)
(0.0750405 0.00400172 -0.0162657)
(0.0590316 0.018222 0.0143688)
(0.120035 -0.0101379 0.00511265)
(0.15679 0.00339986 0.00164241)
(0.149915 -0.00107761 -0.00012103)
(0.115775 0.0153339 0.0104431)
(0.145059 -0.00187601 -0.00118736)
(0.164023 0.00646224 -0.0109896)
(0.139734 0.00743501 -0.00689331)
(0.154172 0.00741278 0.00233964)
(0.0893855 0.0257804 0.00171798)
(0.143879 -0.00753385 0.00406574)
(0.147022 0.000519017 -0.00528664)
(0.149287 -0.00659926 0.012279)
(0.150582 -3.13127e-05 -0.0100859)
(0.15349 0.000675035 -0.0221582)
(0.142959 -0.0109973 -0.00536827)
(0.0531124 0.013012 0.00220009)
(0.180219 -0.000977815 -0.00156328)
(0.157815 0.00394802 -0.00344424)
(0.143267 0.00472362 -0.00187226)
(0.155332 0.00517982 -0.00334801)
(0.136275 -0.0035431 -0.00347519)
(0.157696 0.00174977 -0.00815139)
(0.160069 0.00451703 0.0106616)
(0.0788379 -0.00174326 0.0186375)
(0.16398 0.00404115 -0.00977539)
(0.13408 0.0156325 0.0164477)
(0.140583 -7.86956e-05 0.00603223)
(0.142769 -0.00748555 0.00269744)
(0.161246 0.00200018 0.00140294)
(0.0571509 -0.00777472 -0.0157622)
(0.154351 -0.00256792 0.00455498)
(0.170056 -0.00489973 0.00500977)
(0.157582 -0.000534709 0.00382839)
(0.141355 0.00897486 -0.00216186)
(0.15704 0.00305751 0.00197871)
(0.119384 0.00688574 0.00336705)
(0.154633 0.00380081 -0.003049)
(0.118054 -0.00502716 -0.0111221)
(0.164821 -0.000606482 -0.00497611)
(0.0484627 0.00776909 0.00449869)
(0.158171 -0.000604389 -0.0068903)
(0.134614 0.00205789 0.00363898)
(0.146383 0.00650751 0.00337341)
(0.167986 -0.00132352 -0.00303185)
(0.141171 0.00609324 0.0160323)
(0.0963948 -0.0100878 0.00565524)
(0.162717 0.00255491 -0.00446754)
(0.146296 -0.000969275 0.000555444)
(0.103655 -0.0214078 -0.00619574)
(0.156157 0.000737098 -0.000578998)
(0.158779 0.00704959 0.0126053)
(0.141983 -0.00900478 -0.00656913)
(0.042527 -0.00601153 0.0111702)
(0.16763 0.000101987 -0.0183117)
(0.140227 -0.0025372 -0.00701784)
(0.133279 0.00207316 -0.00258759)
(0.0567193 -0.00656333 -0.0208924)
(0.127337 0.015147 0.00866981)
(0.132283 -0.00873216 0.0150076)
(0.118281 -0.0326473 -0.00162426)
(0.0585011 -1.53216e-05 -0.00304653)
(0.163368 -0.00574349 -0.00715129)
(0.156938 -0.00410315 0.00563556)
(0.155765 -0.0136014 0.00192166)
(0.151041 -0.00707453 0.00235208)
(0.0402914 0.00949908 0.0213593)
(0.132414 0.00500144 0.00262953)
(0.142416 -0.00067167 -0.0113756)
(0.122248 -0.00422706 0.00535109)
(0.13004 0.0138969 0.0130746)
(0.14732 -0.00113905 -0.00839601)
(0.120532 -0.00764289 -0.00357346)
(0.153262 -0.00625927 0.00819035)
(0.137967 -0.00481361 -0.00464707)
(0.168928 0.00188192 -0.0119341)
(0.142846 -0.0159909 0.00896736)
(0.0896542 -0.0044119 0.0168791)
(0.161797 0.00100381 0.00387554)
(0.0968655 -0.0185695 0.00186738)
(0.0880519 -0.00992211 -0.0104611)
(0.137951 -0.00216068 -0.0109464)
(0.148397 0.00141233 0.00419225)
(0.144601 -0.00473964 -0.00577286)
(0.0875841 -0.000740014 -0.00258121)
(0.0665492 -0.0123748 0.00729432)
(0.159092 0.00168631 0.000331758)
(0.170955 0.0168149 0.0149841)
(0.14342 0.00865166 0.00250466)
(0.134118 0.00328393 0.0143884)
(0.140152 0.0072813 -0.00429825)
(0.139117 0.00564612 -0.00879033)
(0.154534 -0.00296669 -0.00532289)
(0.0887248 0.000589592 0.0141611)
(0.12517 0.00229878 -0.009039)
(0.11796 0.00598699 -0.0124216)
(0.150967 0.00483874 -0.0108018)
(0.153231 -0.00620679 0.0123777)
(0.127729 0.0145881 -0.00744471)
(0.146936 0.00692466 -0.000811799)
(0.157839 -0.00306385 -0.00450875)
(0.0455388 0.0231054 -0.00119599)
(0.181071 -0.0116805 0.00105049)
(0.179138 0.00831584 -0.00319535)
(0.140565 -0.00164799 -0.006379)
(0.135848 0.00504859 0.00386867)
(0.0687479 0.000976293 0.00324725)
(0.165627 -0.00125844 0.00489765)
(0.130946 0.0174825 -0.00562964)
(0.0588645 -0.0267215 0.00364773)
(0.148919 -0.000334556 0.00668652)
(0.137352 0.0041583 0.00863119)
(0.158842 4.29564e-05 -0.00609936)
(0.150898 -0.0106724 -0.00421549)
(0.135827 0.00724058 0.00281178)
(0.160443 -0.00185819 0.00256828)
(0.128766 0.00294278 0.00250028)
(0.145996 -0.00365021 -0.00830264)
(0.143499 0.0206447 0.00991434)
(0.149134 0.0116949 0.00616102)
(0.140935 0.000628259 -0.0011345)
(0.0906205 -0.00928472 -0.00162306)
(0.146327 0.00080481 0.00589306)
(0.149675 -0.00110564 -0.00382675)
(0.074037 -0.00249671 0.00628576)
(0.11675 0.0136513 -0.00888289)
(0.141925 -0.0108515 0.00014842)
(0.135126 0.00623983 -0.00528532)
(0.14514 -0.00282111 0.000198959)
(0.156856 0.003439 -0.00259612)
(0.132072 -0.00900359 0.0111961)
(0.0585581 -0.0204792 -0.00220118)
(0.111753 0.0188532 -0.0180241)
(0.0773322 0.0228968 -0.00407556)
(0.128611 0.00207015 0.0106392)
(0.1488 -0.00701464 0.0121914)
(0.1482 -0.00410886 0.00910598)
(0.168436 -0.00764284 0.000126686)
(0.139835 0.00547598 0.00535549)
(0.0623281 0.0160992 0.0164212)
(0.130477 -0.0115093 -0.0172093)
(0.0642213 0.0133133 0.00809793)
(0.134852 -0.00474625 0.0116383)
(0.155218 -0.0104123 0.000920276)
(0.145375 -0.000915204 -0.00187244)
(0.146138 -0.0103358 -0.000388112)
(0.158842 0.00331271 -0.00769685)
(0.152142 -0.00138197 -0.0019673)
(0.156385 0.00100994 0.0174195)
(0.163267 -0.0183922 0.00994858)
(0.132165 -8.61056e-05 -0.000637561)
(0.151656 0.0064388 0.00154429)
(0.1537 -0.0140108 -0.00933159)
(0.152092 -0.00518116 -0.00439053)
(0.125842 0.00495742 -0.00806782)
(0.155989 -0.00331955 0.00943608)
(0.115848 0.00203541 -0.0122593)
(0.129326 0.0262804 -0.000512576)
(0.166078 -0.00680904 0.0103859)
(0.151629 -0.0200329 -0.00961472)
(0.157169 -0.0052485 0.00856765)
(0.151741 -0.00645392 -0.000496651)
(0.129771 0.00594485 -0.00597941)
(0.140745 0.00109671 -0.0023082)
(0.170204 0.0162012 9.72529e-07)
(0.180369 -0.0128495 -0.00233787)
(0.127838 -0.00316102 -0.038519)
(0.119659 -0.000428179 -0.00223183)
(0.167092 0.0117389 -0.00487887)
(0.147713 0.00137601 -0.00278687)
(0.174309 0.00808605 -0.00674751)
(0.180157 0.00871977 0.0134171)
(0.144672 -0.00854976 -0.00998292)
(0.163681 0.00492055 -0.00863808)
(0.0413208 0.0121607 -0.0182683)
(0.159218 -0.00545864 0.00527012)
(0.0699225 0.0229848 -0.0124834)
(0.115144 -0.00216051 0.00305379)
(0.13819 -0.00134453 0.00706502)
(0.153439 -0.00243796 0.00682228)
(0.0735677 -0.00708564 0.0219237)
(0.163851 -0.00872832 -0.0112641)
(0.157749 -0.00877771 -0.00252361)
(0.150966 0.00297684 -0.00399062)
(0.144359 0.00620017 0.00651773)
(0.0643208 0.0160491 0.0177834)
(0.146319 -0.0044544 0.00406043)
(0.125919 -0.004624 -0.000231987)
(0.145543 -0.000547603 0.00544723)
(0.147806 0.0105801 -0.000565471)
(0.137992 -0.00348132 -0.0046067)
(0.151287 0.00386521 0.0100119)
(0.150525 -0.00199422 0.00212083)
(0.0781724 -0.00803526 -0.0137209)
(0.142865 -0.00199798 -0.00432694)
(0.17343 -0.0103716 -0.0030359)
(0.153941 -0.0026765 0.0025699)
(0.144271 -0.00654834 0.00231804)
(0.174041 -0.00602891 -0.00676623)
(0.14607 -0.0107524 0.00478003)
(0.0596772 0.01192 0.00722091)
(0.060716 -0.0179707 0.0084808)
(0.16306 -0.000632381 0.00359327)
(0.0644106 -0.019273 0.0126021)
(0.13474 0.00242532 -0.0147712)
(0.120516 0.0196482 -0.0219746)
(0.153961 -0.0133241 -0.00499249)
(0.189479 0.000375533 0.00709157)
(0.175587 -0.00550298 0.00219449)
(0.125857 -0.00261698 -0.00664373)
(0.161438 0.000372468 -0.00611205)
(0.106694 -0.00838628 0.00227692)
(0.122922 -0.00316914 0.0188839)
(0.14414 -0.00476152 -0.00864432)
(0.160779 0.00133337 0.00286107)
(0.140601 0.00342563 0.00484443)
(0.147693 0.00755844 -0.000104506)
(0.117828 -0.00849521 -0.000953168)
(0.142142 -0.00596979 0.00582058)
(0.154791 0.00118243 -7.49886e-05)
(0.15955 0.00253941 0.000376434)
(0.154558 0.00269725 -0.0111133)
(0.156275 0.0039328 0.00336568)
(0.158707 -0.0128553 0.000163627)
(0.152887 0.0213053 -0.00347145)
(0.156069 -0.00211181 -0.00445251)
(0.132075 -0.0127947 -0.00102197)
(0.147951 -0.00197902 -0.00162193)
(0.159344 -0.00607991 -0.00263978)
(0.123488 0.006024 -0.0107125)
(0.0549583 -0.0166152 -0.0135092)
(0.152594 -0.00398615 -0.00139775)
(0.102459 -0.00561988 0.000724801)
(0.0839224 0.0220258 -0.0151306)
(0.153643 -0.00565164 0.0071229)
(0.156761 0.0123366 0.00678146)
(0.127182 0.00850508 0.000805529)
(0.146807 0.00751057 0.00517535)
(0.158362 -0.0014888 -0.000753282)
(0.158699 0.00650869 -0.00796635)
(0.155065 0.00301614 0.00335919)
(0.0856294 0.0117069 0.00433459)
(0.162198 -0.00688338 -0.00472535)
(0.146306 -0.00463444 0.00152497)
(0.129977 -0.00147522 0.000271346)
(0.149523 0.00326051 0.00596887)
(0.139233 0.00358998 -0.0059295)
(0.144698 -0.000507154 0.00607604)
(0.166754 0.00572286 0.0064314)
(0.14959 0.0105174 0.0097704)
(0.173426 -0.00768553 -0.00310416)
(0.163755 -0.00446975 -1.55148e-05)
(0.0880323 -0.0151356 0.0227582)
(0.112589 -0.0218807 -0.00373909)
(0.161458 0.00812523 -0.000709319)
(0.132765 0.00948233 0.00743505)
(0.0958188 0.0100652 0.00410396)
(0.149144 -0.00191674 -0.0124461)
(0.180488 0.00384056 0.00664848)
(0.166752 0.00565751 -0.00614053)
(0.140952 -0.000126927 -0.00395271)
(0.16295 0.00510894 0.007003)
(0.165652 0.000270653 -0.00197662)
(0.149713 -0.00298892 -0.000115896)
(0.141605 -0.00856162 -0.00561706)
(0.0745807 0.0257219 0.00213052)
(0.147164 0.00235406 0.00609679)
(0.131124 -0.00523567 0.0117187)
(0.127718 0.00577065 -0.0194339)
(0.109223 0.0119533 -0.00612235)
(0.151366 0.00385597 0.00570465)
(0.159514 0.00901844 0.00892611)
(0.161936 0.00554542 0.00466859)
(0.0361652 0.0175038 -0.01952)
(0.14673 0.00627991 0.00328097)
(0.114285 0.00780044 0.0209343)
(0.159819 0.00608076 -0.0050484)
(0.102039 -0.014196 -0.00439916)
(0.126433 -0.00893766 0.0299737)
(0.15029 0.00342056 0.0075795)
(0.123012 -0.00694948 0.0151126)
(0.0553834 0.00956021 -0.015954)
(0.129255 0.00108134 0.0128922)
(0.153827 0.00449975 -0.00777639)
(0.0610718 -0.00545339 0.00802928)
(0.15662 0.00538788 -0.0121173)
(0.161502 0.00680584 -0.0127916)
(0.160078 0.0080201 0.0133678)
(0.161838 0.00436234 0.0141825)
(0.154059 -0.00487136 0.00705377)
(0.169169 0.0132123 0.00207596)
(0.11724 0.00348654 -0.0127527)
(0.15116 -0.0047242 0.00188082)
(0.146253 0.000897721 0.00889447)
(0.12936 0.026572 0.0273515)
(0.168204 -0.00918256 -0.0031179)
(0.154103 -0.00321225 0.00206967)
(0.169888 0.00480074 0.00352974)
(0.11223 0.0100686 -0.0152135)
(0.162682 -0.000686628 0.00549022)
(0.150548 -0.000838636 0.00499335)
(0.161048 -2.16737e-05 -0.00463829)
(0.146354 -0.00158701 0.00255823)
(0.117488 0.00155378 0.00546568)
(0.160282 0.00028841 -0.00234111)
(0.162908 0.00535706 -0.00582632)
(0.159164 -0.00349056 0.0017253)
(0.140835 -0.00276191 0.00358015)
(0.0825267 0.0125095 -0.0188465)
(0.0605862 -0.00443015 -0.0233835)
(0.15257 -0.00262666 0.00167948)
(0.15947 0.00669716 0.00543379)
(0.159207 0.00526931 -0.0110101)
(0.0955087 0.0231973 -0.00739784)
(0.136686 0.00303138 -0.01268)
(0.173826 -0.00883764 0.00637152)
(0.148206 0.00691991 0.000361968)
(0.165101 -0.00278213 -0.00148323)
(0.15463 -0.000149018 0.00769286)
(0.152251 0.00365486 0.00913733)
(0.160751 0.00112294 0.00566905)
(0.145559 -0.00454301 -0.00271919)
(0.140592 0.00203375 -0.000902106)
(0.124963 0.013908 0.00590935)
(0.153214 -0.0114105 -0.00182406)
(0.172471 0.00201065 -0.00430493)
(0.148445 -0.00310439 -0.0104523)
(0.138684 0.00641527 0.000985071)
(0.164275 -0.00258477 -0.00173392)
(0.150657 0.00767876 -0.000152295)
(0.0999382 0.0124085 -0.00126442)
(0.104853 0.003028 0.0272635)
(0.0437563 0.0099325 -0.0150779)
(0.131785 -0.00205157 -0.0015127)
(0.150873 0.000514881 0.000133104)
(0.151002 0.00331486 -0.00640946)
(0.169516 0.000922602 -0.00202056)
(0.102556 0.0210556 0.00843025)
(0.0509176 -0.00295009 -0.00313987)
(0.162952 0.00757046 0.00143416)
(0.150501 -0.011157 -0.00486847)
(0.153325 0.000778422 0.00056673)
(0.161748 -0.00867885 -0.00430767)
(0.162269 -0.000405963 -0.000406166)
(0.14562 0.00201795 0.00758801)
(0.170876 0.000931431 -0.000190962)
(0.0651862 -0.0033117 0.0138152)
(0.165537 0.000536175 0.00984928)
(0.129917 5.51239e-05 0.00379079)
(0.107038 -0.00476661 -0.00433576)
(0.154047 0.000245024 0.00208288)
(0.176078 -0.0129578 0.00185835)
(0.150048 0.000805521 -0.00811022)
(0.0526162 -0.00689931 -0.025208)
(0.151846 -0.00376696 0.00550524)
(0.153495 0.000514479 -0.00695757)
(0.138671 -0.00387879 -0.00282802)
(0.177878 0.00419366 0.00477588)
(0.136167 -0.00339137 -0.00679357)
(0.137586 0.00253704 -0.00394068)
(0.152194 -0.00435665 0.00949822)
(0.140829 -0.00316394 -0.000540111)
(0.15406 0.00402847 0.00214056)
(0.155406 -0.00821715 -0.00305217)
(0.15803 0.000494059 0.0108588)
(0.0584162 -0.00811346 -0.00793997)
(0.151498 -0.0122482 -0.01109)
(0.170005 -0.00975418 -0.00457327)
(0.122244 0.00638903 0.0132355)
(0.156856 0.00597926 0.00400655)
(0.146287 -0.00224971 -0.00324372)
(0.164622 -0.00463678 -0.0019177)
(0.163468 -0.00578723 0.00582389)
(0.0672092 0.00955765 -0.0147486)
(0.159396 0.000816937 0.00937917)
(0.188271 -0.00339789 0.00179209)
(0.164276 0.00553487 0.00424862)
(0.166506 0.016472 0.00136283)
(0.0981636 0.012618 0.00431943)
(0.155518 0.0118152 0.00064934)
(0.0644788 0.0179045 -0.0140157)
(0.141008 0.005576 -0.00232237)
(0.12239 0.00920169 0.00385112)
(0.136549 0.0101514 -0.00941462)
(0.131134 0.000846061 0.00717726)
(0.155974 0.00307048 -0.0103025)
(0.158284 0.010621 -0.00788524)
(0.0948112 0.0172761 0.0107183)
(0.148117 0.000455105 0.00333166)
(0.129003 0.0103485 0.00203954)
(0.0602007 0.00303738 0.0117869)
(0.148404 0.0106884 0.00775774)
(0.124918 -0.00780707 0.00146029)
(0.106055 0.0024073 0.00885173)
(0.143245 0.0123691 -0.000891388)
(0.129197 -0.00115737 0.00559494)
(0.150562 0.00421563 -0.000240576)
(0.145115 -0.0130409 0.00181999)
(0.0712201 -0.00671109 0.00704932)
(0.136854 -0.00377019 -0.0114584)
(0.142286 -0.010673 -0.00811973)
(0.163919 0.00970092 0.00327291)
(0.146404 -0.010677 0.0027816)
(0.0698696 -0.00201152 -0.0195028)
(0.16508 -0.00680923 -0.00465207)
(0.138777 0.00430817 -0.00619945)
(0.137777 0.00586922 -0.00174462)
(0.102592 0.0171505 -0.00751663)
(0.16015 -0.00103868 -0.00477707)
(0.0569847 -0.00415692 -0.0224127)
(0.139842 0.00311676 -0.00537927)
(0.0660374 -0.00348844 0.00627051)
(0.124117 -0.0247775 -0.00716537)
(0.145179 0.00615071 0.00254939)
(0.128414 -0.00212063 0.00824967)
(0.048642 0.0100067 0.0178862)
(0.103776 0.0110838 -0.0254765)
(0.119395 -0.0239305 -0.00173801)
(0.130995 0.0234224 0.00172517)
(0.150054 -0.000579158 -0.00140121)
(0.126216 -0.00629875 -0.0174605)
(0.153837 0.00110114 0.00042658)
(0.156042 0.00434426 -0.0107044)
(0.129816 0.00372173 0.000945032)
(0.0619361 0.0108874 -0.0106613)
(0.178447 -0.00842915 0.0123104)
(0.122349 0.00725511 0.0188228)
(0.156154 0.00290787 -0.0102349)
(0.120346 -0.00328928 -0.00294677)
(0.135729 0.00778249 -0.00708182)
(0.139585 -0.0254411 0.00998289)
(0.155474 0.00603973 0.00556553)
(0.124235 -0.00569878 0.00741845)
(0.0924625 0.0263811 -0.0131396)
(0.16328 -0.00677847 -0.000861926)
(0.0586155 0.0111387 0.00961679)
(0.0648108 0.00711463 0.0131967)
(0.158723 0.00226765 0.00389453)
(0.137224 -0.000504721 0.00886585)
(0.148893 -0.00515594 0.00354126)
(0.170105 0.0154494 -0.00579529)
(0.154231 -0.00150507 -0.000918395)
(0.147255 0.00282226 -0.0100058)
(0.167015 0.00284029 -0.00424628)
(0.117829 0.00402633 0.0125885)
(0.133704 -0.000459532 -0.0025956)
(0.154681 0.00590509 -0.0169794)
(0.0480688 0.00436811 -0.0291563)
(0.163166 -0.00126406 0.00265301)
(0.138865 0.0169311 0.00311635)
(0.0548707 -0.0225591 -0.0168781)
(0.162391 0.00623669 -0.00275137)
(0.088237 -0.00440302 0.000434682)
(0.148575 -7.63417e-06 0.00143893)
(0.147156 -0.00416014 -0.0110447)
(0.15924 0.012443 0.00563699)
(0.156546 -0.0247466 0.0094135)
(0.151958 -0.00196595 -0.00541299)
(0.163557 0.00244374 -0.00336337)
(0.162644 -0.00339975 -0.00503246)
(0.166314 -0.00421741 -0.000902169)
(0.162564 0.00844341 -0.00808599)
(0.134153 0.00330416 -0.0023302)
(0.0952098 -0.0159433 -0.0138902)
(0.128881 -0.000118337 -0.0112738)
(0.150588 -0.00757344 0.00485562)
(0.144365 -0.00666021 -0.00512473)
(0.106877 -0.0309545 -0.00912533)
(0.15191 0.00185219 -0.00835682)
(0.163349 -0.00398693 -0.00209657)
(0.167296 0.00217829 0.00904159)
(0.153279 0.00143277 0.00106532)
(0.16419 0.0122459 0.00322562)
(0.0421499 0.0048402 0.0163566)
(0.151555 -0.0102783 -0.00114334)
(0.150079 -0.00665108 0.000836967)
(0.135952 0.000367121 -0.0014973)
(0.159391 0.00435837 -0.0100983)
(0.0838161 0.0138614 -0.00450327)
(0.153811 0.00607982 -0.00193509)
(0.157639 -0.00678669 -0.0131346)
(0.167881 -0.00447017 -0.00551182)
(0.14368 -0.00218665 -0.00349488)
(0.169608 0.0104088 0.00142522)
(0.038258 0.00425942 -0.0191724)
(0.0516176 -0.00577216 -0.0171731)
(0.135985 -0.00552341 -0.00117608)
(0.133176 0.0112444 -0.00391366)
(0.141251 0.000160527 -0.00949959)
(0.136946 0.000848521 -0.00533692)
(0.155236 0.0162314 -0.00216911)
(0.142919 -0.000328062 0.00300423)
(0.149552 -0.000551976 -0.0118398)
(0.0351318 -0.00359265 -6.40803e-05)
(0.131935 -0.00886329 -0.0055691)
(0.158551 0.00405464 -0.00886005)
(0.103538 -0.0113902 0.00828175)
(0.115314 -0.0105766 0.000411716)
(0.164431 -0.00538156 0.00301109)
(0.157464 -0.00770691 -0.00928758)
(0.162423 -0.000502203 -0.00108946)
(0.173374 -0.0032706 -0.00524541)
(0.171145 0.00600595 -0.00763717)
(0.150989 0.00365604 -0.00672461)
(0.161454 0.00209627 0.00193152)
(0.15992 0.0125595 0.00220942)
(0.148915 -0.00308126 0.00237296)
(0.145056 -0.00378136 0.00588302)
(0.142335 0.00362376 -0.00903069)
(0.11922 -0.0224949 0.0157158)
(0.165951 0.00200113 -0.00452131)
(0.106316 0.00223072 -0.0112657)
(0.123919 0.00072098 -0.0198392)
(0.121929 -0.00603891 0.0204169)
(0.151061 -0.0033256 -0.00587736)
(0.171292 0.00171621 -0.00120488)
(0.1529 -0.00213274 -0.0093429)
(0.145541 0.0067744 0.000964255)
(0.167165 -0.00416792 0.00261211)
(0.137569 0.0058323 -0.00186214)
(0.142404 0.00600243 0.00328253)
(0.0847643 0.0317816 -0.0115072)
(0.118985 -0.000741581 0.000165246)
(0.14189 0.00734083 -0.0177769)
(0.146036 0.00402363 0.00693457)
(0.14685 -0.00488704 0.00300806)
(0.16607 -0.00475896 -0.00765044)
(0.155342 0.00300454 -0.0018878)
(0.171345 -0.00864439 -0.005684)
(0.103784 -0.0146407 0.00604783)
(0.112335 0.0124425 0.0190692)
(0.0543514 -0.00050374 -0.014286)
(0.0581483 -0.00675055 -0.0076797)
(0.0916108 0.000475248 -0.00199816)
(0.169892 0.0129558 0.00161517)
(0.161474 -0.00233283 -0.000847551)
(0.0635062 0.0100877 0.0217988)
(0.0484994 0.0155609 0.0154978)
(0.161537 0.0106743 0.00441117)
(0.144452 -0.0150677 -0.0035826)
(0.0974192 0.00664163 0.0066928)
(0.151874 0.00780358 -0.0078952)
(0.165263 -0.00905701 -0.00590356)
(0.151487 -0.000227978 -0.00314407)
(0.0893261 0.0103 -0.0131083)
(0.119911 -0.0146404 0.0136279)
(0.145106 -0.00264056 -0.00173126)
(0.151997 0.00650062 -0.00371015)
(0.138267 0.00774565 -0.00645033)
(0.12718 0.0300228 -0.0291247)
(0.0647884 0.00456618 0.0131844)
(0.13948 -0.0154236 0.00696789)
(0.0767961 -0.020671 -0.0162127)
(0.160394 0.00915168 0.00664351)
(0.0682464 0.00953923 -0.0331623)
(0.163002 0.00613003 -0.00168581)
(0.147453 0.00318984 -0.0013261)
(0.177455 -0.0025246 0.00194186)
(0.0988598 -0.0148006 -0.0119266)
(0.176421 -0.0123017 -0.00694758)
(0.0710205 -0.00130531 -0.0135065)
(0.0845781 0.0191017 -0.0078565)
(0.150943 -0.00741651 0.00024691)
(0.0505829 0.00456898 -0.0217165)
(0.15167 -0.00571452 0.00546761)
(0.128975 -0.0101654 -0.00684471)
(0.147701 -0.00297032 0.00347652)
(0.15107 -0.0130394 -0.0056263)
(0.0625328 0.00669205 0.0202529)
(0.133919 -0.00192624 -0.0027263)
(0.153539 -0.00709304 -0.00777944)
(0.0966966 -0.0264983 -0.00973099)
(0.139897 0.00190924 0.00345751)
(0.124349 -0.00608088 0.0150766)
(0.154079 -0.00270761 -0.0104377)
(0.148589 0.00406047 0.000345678)
(0.107656 0.00420148 0.0193424)
(0.0627617 0.00118646 -0.0283727)
(0.126414 0.00418675 0.0212153)
(0.156799 0.00887175 4.9178e-05)
(0.166212 -0.000476211 2.81086e-05)
(0.132079 0.00260198 0.01397)
(0.165647 0.00543863 0.000955916)
(0.0793064 -0.00973658 0.00471626)
(0.145812 0.00381435 0.00156519)
(0.0754814 0.00694181 0.0102957)
(0.173509 -0.0102321 0.00558125)
(0.174553 -0.0114151 0.00194892)
(0.149898 0.00366002 0.00357344)
(0.0677032 0.0137921 0.00314849)
(0.178467 0.000359538 5.36398e-05)
(0.14311 0.0046889 -0.00476752)
(0.147609 0.00800416 0.00315756)
(0.116644 -0.00958975 0.00310646)
(0.138316 -0.0007859 -0.00387536)
(0.164256 -0.000137489 -0.00492761)
(0.0894606 -0.00357736 -0.0135369)
(0.135527 -0.00131436 -0.00332197)
(0.153903 -0.00523967 -0.0146788)
(0.151981 -0.000376461 -0.00105914)
(0.0992229 0.0102357 -0.0220169)
(0.158029 -0.00853161 -0.0145269)
(0.156413 0.00298489 0.00378423)
(0.165983 -0.000388588 0.00417165)
(0.0991287 0.0484421 0.00679537)
(0.167491 0.00546542 -0.000904808)
(0.135054 -0.0285338 0.0139463)
(0.0589469 -0.0182711 0.0160928)
(0.143586 0.00112822 0.00661738)
(0.1367 0.00193781 0.0139728)
(0.167389 0.0047863 0.00917572)
(0.151955 0.00211668 0.00614766)
(0.151597 -0.00221871 0.00333278)
(0.147836 0.00333751 -0.00576532)
(0.178624 -0.00150057 0.00928431)
(0.0910858 0.0092396 0.00582925)
(0.120685 -0.0132869 -0.0103715)
(0.159921 0.00256836 -0.00194402)
(0.146785 0.0076584 0.00626941)
(0.152907 0.0146777 0.00178021)
(0.166681 0.00332215 -2.78523e-05)
(0.161371 0.000246313 -0.00759169)
(0.168535 -0.00402432 0.00065955)
(0.146909 0.000843652 1.00064e-05)
(0.176193 -0.00670255 -0.00788665)
(0.167742 -0.00853104 0.0127514)
(0.112597 -0.014493 -0.0337616)
(0.15214 0.00335891 -0.00605978)
(0.121394 -0.00700229 -0.0187577)
(0.150806 -0.00545626 -0.00435327)
(0.153791 0.00222585 0.00772194)
(0.178124 -0.0114318 4.5996e-05)
(0.154594 -0.0147865 -0.00570404)
(0.0451654 0.0117243 0.0027786)
(0.160436 -0.001694 -0.0066401)
(0.131304 0.0026887 0.000575791)
(0.152984 0.00013869 0.00883648)
(0.142762 0.0100565 -0.00535921)
(0.141954 -0.0013351 -0.00287944)
(0.147047 0.00281322 -0.00703776)
(0.132469 0.00327664 0.0111904)
(0.118569 0.00853344 0.00844014)
(0.144164 0.00666218 -0.00936693)
(0.0716178 -0.0285181 -0.00387016)
(0.144832 -0.00153246 0.00190875)
(0.130144 0.00662762 -0.00498587)
(0.166061 0.00364939 -0.0109728)
(0.0759897 0.010709 0.0218591)
(0.176253 0.00739812 0.00755694)
(0.121794 0.00120552 -0.00215212)
(0.153466 -0.00115761 0.00435876)
(0.146802 -0.000858472 -0.00471395)
(0.14891 0.00511935 0.0150717)
(0.170827 -0.00415998 -0.0046432)
(0.139826 -0.00564171 0.000644263)
(0.103329 0.0063426 -0.00129118)
(0.123548 0.0109254 -0.0128271)
(0.0914152 -0.00581708 -0.00434058)
(0.143842 -0.00112411 -0.00621233)
(0.159871 -0.00449657 0.00221947)
(0.149735 -0.00555912 0.00848721)
(0.149061 -0.002972 0.00912593)
(0.0489922 0.00601983 -0.00950542)
(0.180042 0.00488647 -0.00761516)
(0.158012 -0.00782931 0.00886181)
(0.148742 0.00308212 0.00643253)
(0.164055 0.0120201 -0.0109381)
(0.140259 0.00826431 0.00538103)
(0.157619 -0.012014 0.00160687)
(0.155484 -0.00218983 -0.00079779)
(0.0612352 -0.00734193 -0.0169236)
(0.127497 -0.00149305 0.00190548)
(0.141536 -0.00156693 0.00590346)
(0.0606773 0.0140665 0.00736975)
(0.0951045 -0.00721662 0.00375335)
(0.136649 -0.0132091 0.00289224)
(0.0464835 -0.00639561 -0.0216278)
(0.159771 0.00322442 -0.00284446)
(0.149319 -0.00111333 -0.0041753)
(0.124414 0.00714761 0.000452002)
(0.0562713 -0.0140098 -0.00384166)
(0.168214 0.00323529 -0.00955929)
(0.0551303 0.00239041 0.00316474)
(0.16222 -0.00203259 0.0101712)
(0.141559 -0.000528589 -0.00741297)
(0.1415 -0.00709626 -0.00554314)
(0.142851 0.0111377 -0.000678074)
(0.176701 0.0112065 -0.00239715)
(0.143055 -0.00194946 -0.00137512)
(0.172408 0.00639176 -0.0102008)
(0.096177 0.00648493 -0.00408536)
(0.136527 0.00622148 -0.00507458)
(0.161781 0.0119772 0.00614138)
(0.16406 0.0130994 4.36966e-05)
(0.161094 0.00922917 0.00286664)
(0.1467 -0.000882809 0.00108437)
(0.17926 -0.000945358 -0.00671522)
(0.131208 -0.00892978 -0.0191231)
(0.155303 -0.00127737 0.0115075)
(0.0963364 0.00697119 0.00226596)
(0.169008 0.00064851 -0.00402502)
(0.150259 -0.0035143 0.0103713)
(0.142599 -0.00351833 0.00819243)
(0.154529 -0.000617186 -0.0043544)
(0.139906 0.00991133 -0.00268989)
(0.144372 0.000404136 0.00737027)
(0.108798 0.00285471 -0.0242198)
(0.0785973 -0.0053888 0.00666057)
(0.118905 0.00052635 -0.0183094)
(0.0562193 -0.00933718 -0.0260985)
(0.171705 -0.000870056 0.000321474)
(0.130858 -0.00499344 -0.00198518)
(0.155549 0.00296062 -0.00964649)
(0.141496 0.0127231 0.0101933)
(0.152428 -0.00364954 -0.00712534)
(0.140021 -0.00698555 -0.00566087)
(0.0824358 0.0138234 0.0187321)
(0.145258 0.00429476 0.00826332)
(0.142062 -2.27028e-07 -0.000779263)
(0.11065 0.0146735 -0.00373896)
(0.06284 -0.0200321 0.0129281)
(0.158994 -0.00340207 -0.0104902)
(0.173356 -0.00393791 0.00323902)
(0.0708533 -0.00743705 0.0187736)
(0.155294 0.00775891 0.0067941)
(0.071093 -0.0192917 -0.00844958)
(0.148864 0.00590358 -0.00282522)
(0.147985 0.00565751 0.000928016)
(0.14364 0.00518023 -0.00232014)
(0.169186 0.00404034 -0.00228297)
(0.146435 0.00235939 -0.00398279)
(0.160926 -0.00430255 0.002241)
(0.148427 0.00651393 0.00037023)
(0.0583178 0.00740105 -0.0196883)
(0.0910564 -0.0188665 -0.00452924)
(0.157752 -0.0153813 -0.00584777)
(0.148767 0.00650354 0.0109793)
(0.0615567 0.00230727 -0.0136264)
(0.148179 0.00370645 0.00390579)
(0.152578 3.28845e-05 0.00394749)
(0.15714 0.00780842 0.00422851)
(0.138995 -0.000858573 -0.00955692)
(0.155576 0.00781102 0.00703025)
(0.131808 -0.00777038 0.0023642)
(0.149307 -0.0014464 -0.000481007)
(0.162625 -0.00910236 0.00436893)
(0.164637 -0.0103587 -0.0184079)
(0.136567 -0.00691491 0.00770056)
(0.163579 -0.00590546 -0.00589998)
(0.120178 0.0109213 -0.00862671)
(0.158404 0.00364058 0.00118772)
(0.154212 -0.0090578 -0.00235055)
(0.169215 -0.00736422 0.00446757)
(0.165862 0.0144367 0.00327227)
(0.158233 -0.0073228 -0.0125406)
(0.173288 0.00881605 0.00752945)
(0.158577 0.00764365 -0.00165696)
(0.15303 -0.000635141 0.0136205)
(0.151464 -0.00715204 -0.0137887)
(0.16174 -0.013932 -0.0113698)
(0.12455 -0.00424113 -0.0129342)
(0.149306 0.0118216 0.000649201)
(0.154458 0.000187666 0.00295812)
(0.144336 0.00255554 0.00179527)