/*--------------------------------*- C++ -*----------------------------------*\
| =========                 |                                                 |
| \\      /  F ield         | OpenFOAM: The Open Source CFD Toolbox           |
|  \\    /   O peration     | Version:  2406                                  |
|   \\  /    A nd           | Website:  www.openfoam.com                      |
|    \\/     M anipulation  |                                                 |
\*---------------------------------------------------------------------------*/
FoamFile
{
    version     2.0;
    format      ascii;
    arch        "LSB;label=32;scalar=64";
    class       volVectorField;
    location    "4";
    object      U:Transformed;
}
// * * * * * * * * * * * * * * * * * * * * * * * * * * * * * * * * * * * * * //

dimensions      [0 1 -1 0 0 0 0];

internalField   nonuniform List<vector> 
59516
(
(0.0147697 0.00624851 0.165187)
(-0.00989332 0.00826085 0.173232)
(0.00450334 -0.00308081 0.147128)
(0.00239662 0.00239312 0.143859)
(-0.000792994 -6.45588e-05 0.143079)
(-0.0124353 0.0132366 0.124129)
(-0.00541757 0.00182417 0.160195)
(-0.0087459 0.00914511 0.168585)
(0.00373399 -0.000878281 0.160423)
(0.0238952 0.00984703 0.127017)
(-0.00382522 0.00457091 0.147728)
(0.000503981 0.0156626 0.129026)
(-0.000452719 -0.0144635 0.164047)
(0.00443552 0.00575218 0.0613625)
(-0.0195441 -0.0168533 0.145189)
(-0.00880947 0.0195426 0.128317)
(-0.00167596 0.00767906 0.150215)
(0.00489531 -0.00928373 0.12313)
(-0.00714394 -0.00390754 0.1648)
(0.00206252 0.00344418 0.144263)
(0.00292656 0.00497748 0.110436)
(-0.00191223 -0.000783428 0.157526)
(-0.00340981 0.00636245 0.155814)
(0.0089687 -0.0152689 0.103233)
(0.00304382 0.00784753 0.176261)
(-0.0178463 0.00371336 0.155942)
(0.00260833 -0.014573 0.11792)
(-0.0186253 0.0163922 0.0871548)
(0.0143228 -0.005178 0.135639)
(0.0127448 0.0038725 0.0541245)
(-0.00806678 -0.0087705 0.151773)
(-0.0282588 -0.00333576 0.105197)
(-0.00783421 0.0050826 0.157048)
(-0.00889045 -0.00597067 0.157292)
(-0.0138929 0.00769954 0.141341)
(-0.00436704 -0.000489973 0.184472)
(-0.0209932 -0.00672037 0.058589)
(-0.00524858 0.00480949 0.116432)
(0.00157154 -0.00365924 0.157726)
(0.00520457 -0.00516111 0.161045)
(-0.00613709 -0.00568678 0.15137)
(-0.00258829 0.00332136 0.155091)
(-0.0115241 -0.00712978 0.162903)
(-0.0045969 0.012335 0.146829)
(-0.00161985 -0.00492725 0.160347)
(0.0374994 0.00457695 0.137382)
(0.0126522 0.0115417 0.169404)
(-0.00166906 -0.00206354 0.15221)
(0.00646117 -0.000708413 0.158233)
(0.00201107 0.000817434 0.138052)
(-0.00716839 0.00928728 0.147963)
(-0.011142 0.00369021 0.100912)
(0.00565468 -0.00606836 0.172805)
(0.00128414 0.00165414 0.17133)
(-0.0132447 -0.0047492 0.136669)
(-0.0126465 0.00532057 0.151467)
(0.00386512 -0.0018401 0.134389)
(-0.0219784 0.0159851 0.131755)
(0.000804153 0.0073234 0.144874)
(0.00177528 -0.00118699 0.143073)
(0.0022059 0.00992469 0.152982)
(0.00280209 -0.00289877 0.0611667)
(-0.00134629 -0.00533731 0.158266)
(-0.00224566 -0.000329405 0.140812)
(-0.00468209 -0.00773408 0.153437)
(0.00126865 -0.00421039 0.144814)
(0.00406383 0.0111725 0.0774265)
(-0.0135188 -0.002969 0.115207)
(-0.00390417 0.0130081 0.168712)
(0.00456548 0.00281907 0.1432)
(-0.003266 -0.00410249 0.0893185)
(-0.00547092 0.000251938 0.142852)
(0.0259842 -0.00577055 0.0704294)
(-0.00432844 0.00502927 0.146691)
(-0.00389118 0.00246259 0.141983)
(0.00163695 0.000585685 0.152873)
(-0.00661069 -0.00991457 0.141639)
(-0.00604939 -0.0117211 0.16909)
(0.0124087 -0.00345394 0.108741)
(0.0126322 -0.00415101 0.13698)
(-0.0160188 -0.0120628 0.111872)
(-0.00571336 0.00316879 0.144912)
(4.90813e-05 -0.00827799 0.133718)
(-0.0206265 0.00440335 0.0798997)
(-0.00265329 0.00143284 0.136794)
(-0.00395304 -0.00371526 0.143797)
(0.0021841 0.0306874 0.0946521)
(-0.00122204 0.00232113 0.162568)
(-0.0259005 -0.00285891 0.141942)
(-0.000948959 0.0124102 0.141996)
(0.00507565 0.00655142 0.147032)
(0.00935215 -0.0030278 0.163146)
(0.00260292 -0.00665655 0.140476)
(0.00069565 -0.00339476 0.134798)
(0.00354532 -0.00491646 0.141189)
(0.00618524 0.00726675 0.147385)
(-0.00278816 0.0022316 0.158659)
(0.00966014 0.00653361 0.129535)
(-0.00330389 0.00611577 0.115537)
(-0.000607788 -0.0019331 0.158995)
(-0.0103383 0.0138328 0.120151)
(0.0160237 0.00488132 0.0750405)
(0.0228803 -0.00387271 0.0590316)
(0.00981225 0.00571272 0.120035)
(0.00297335 0.00232719 0.15679)
(-0.000435428 -0.000993128 0.149915)
(0.018511 -0.00123705 0.115775)
(-0.00136587 0.00175032 0.145059)
(-0.00514457 -0.0116647 0.164023)
(-0.0095712 0.00334505 0.139734)
(-0.00333054 -0.00702358 0.154172)
(0.0222189 -0.0131871 0.0893855)
(0.00855564 -0.000300283 0.143879)
(-0.00284694 0.00448474 0.147022)
(-0.00987629 0.00983786 0.149287)
(-0.0100459 0.000897665 0.150582)
(-0.0211104 -0.0067671 0.15349)
(0.01203 -0.00224479 0.142959)
(-0.0116665 0.00616809 0.0531124)
(0.00183756 -0.00015272 0.180219)
(-0.005097 -0.00121253 0.157815)
(0.00497129 -0.00105082 0.143267)
(-0.0024857 -0.00564456 0.155332)
(-0.00250155 -0.00428634 0.136275)
(0.00246147 -0.00796542 0.157696)
(0.00774697 -0.00860565 0.160069)
(-0.0180965 -0.00478659 0.0788379)
(0.00166682 -0.0104456 0.16398)
(-0.00826391 0.0211332 0.13408)
(0.00280208 0.00534251 0.140583)
(0.00426843 0.00671493 0.142769)
(0.0019597 0.00145895 0.161246)
(-0.0173886 -0.00255522 0.0571509)
(0.000814163 0.00516519 0.154351)
(-0.00516394 0.00473698 0.170056)
(0.00386256 -0.000152121 0.157582)
(-0.0088611 -0.00258897 0.141355)
(0.00308582 -0.00193426 0.15704)
(-0.00398877 0.00654524 0.119384)
(-0.0047962 0.000859687 0.154633)
(-0.00458505 0.0113115 0.118054)
(0.00463649 -0.00190589 0.164821)
(-0.00797165 -0.00412915 0.0484627)
(-0.0068652 0.000842946 0.158171)
(-0.00414057 0.000576879 0.134614)
(-0.00731519 0.000464312 0.146383)
(-0.00279477 -0.00177006 0.167986)
(0.00507593 -0.0163828 0.141171)
(0.00989466 -0.00598672 0.0963948)
(-0.00506748 0.000898391 0.162717)
(-0.00102256 0.000449875 0.146296)
(-0.00381435 0.0219575 0.103655)
(-0.000503112 -0.000790841 0.156157)
(0.00986791 -0.0105458 0.158779)
(0.0110049 0.0017698 0.141983)
(-0.0123658 0.00282815 0.042527)
(0.00427514 -0.017806 0.16763)
(0.00522848 0.00532452 0.140227)
(-0.000222843 0.00330816 0.133279)
(-0.0199137 0.00911118 0.0567193)
(-0.0126516 0.0120222 0.127337)
(-0.00913212 -0.0147676 0.132283)
(-0.0214847 0.0246351 0.118281)
(-0.000157868 -0.00304248 0.0585011)
(-0.00917193 -6.58822e-05 0.163368)
(-0.00650164 -0.00251478 0.156938)
(0.0132265 0.00370813 0.155765)
(0.00742304 0.000692647 0.151041)
(0.0229626 0.0043783 0.0402914)
(-0.00207302 0.00525656 0.132414)
(0.000883518 0.0113611 0.142416)
(0.00499769 -0.00463953 0.122248)
(0.00478336 -0.0184713 0.13004)
(0.00265757 0.00804535 0.14732)
(-0.00119683 0.0083517 0.120532)
(0.0052168 0.00889074 0.153262)
(-0.00428578 0.00513792 0.137967)
(-0.0056416 -0.0106835 0.168928)
(0.0146773 -0.0109862 0.142846)
(-0.00808119 -0.0154617 0.0896542)
(0.00171619 -0.00361693 0.161797)
(0.013495 0.0128917 0.0968655)
(-0.0126168 -0.00697844 0.0880519)
(-0.0100624 0.0048208 0.137951)
(0.000156398 -0.00442099 0.148397)
(0.00177011 -0.0072565 0.144601)
(-0.00258955 0.000710269 0.0875841)
(-0.00800789 0.0119255 0.0665492)
(-0.00169457 -0.000286636 0.159092)
(-0.00931195 -0.0205074 0.170955)
(-0.00147036 0.00888609 0.14342)
(0.0127452 -0.00744113 0.134118)
(0.00836037 -0.00126355 0.140152)
(-0.00159977 -0.0103242 0.139117)
(-0.00596686 0.00123734 0.154534)
(0.0108391 0.00913227 0.0887248)
(0.00573378 -0.00735606 0.12517)
(0.00771747 0.0114272 0.11796)
(0.00510992 0.0106762 0.150967)
(-0.00215927 0.0136773 0.153231)
(0.0137647 0.00887515 0.127729)
(0.00357436 0.00598614 0.146936)
(-0.00543442 -0.000427866 0.157839)
(0.0219643 -0.0072706 0.0455388)
(0.0111635 0.00359367 0.181071)
(-0.00874484 0.00170035 0.179138)
(-0.0055875 0.00349104 0.140565)
(-0.00592478 0.00231342 0.135848)
(-0.00323931 -0.00100232 0.0687479)
(0.00333272 -0.0038031 0.165627)
(0.014697 0.0110148 0.130946)
(-0.0236468 0.0129681 0.0588645)
(0.00390131 -0.00544071 0.148919)
(0.00899626 0.00329487 0.137352)
(-0.00474562 0.00383186 0.158842)
(-0.00250809 -0.0111973 0.150898)
(-0.00746022 0.0021627 0.135827)
(-0.000918879 0.0030339 0.160443)
(-0.00328435 -0.00203086 0.128766)
(-0.00683795 0.00595822 0.145996)
(-0.0136351 -0.0184007 0.143499)
(-0.0113436 0.006786 0.149134)
(-0.000540006 0.00117906 0.140935)
(0.00810635 0.0048091 0.0906205)
(-0.00370241 0.00465489 0.146327)
(0.00356205 0.00178277 0.149675)
(-0.00380092 -0.00559439 0.074037)
(-0.0160474 -0.00278279 0.11675)
(-0.00991718 -0.00440744 0.141925)
(-0.00797249 0.00181921 0.135126)
(0.000580729 0.00276785 0.14514)
(-0.00402973 0.00152574 0.156856)
(0.00416992 -0.0137488 0.132072)
(-0.0178283 -0.0103148 0.0585581)
(-0.0135687 -0.0222756 0.111753)
(-0.0168453 -0.0160346 0.0773322)
(0.00982925 -0.00456767 0.128611)
(-0.013132 0.00503835 0.1488)
(-0.00652318 -0.00756636 0.1482)
(0.00577018 0.00501339 0.168436)
(0.00630819 -0.00434447 0.139835)
(0.0229796 -0.000882112 0.0623281)
(-0.0206125 -0.00193594 0.130477)
(0.0142434 -0.00632023 0.0642213)
(-0.00318931 0.0121575 0.134852)
(-0.00985851 -0.00347468 0.155218)
(0.00187626 -0.000907352 0.145375)
(0.0103144 -0.000770214 0.146138)
(-0.00659414 -0.00517038 0.158842)
(0.00213904 0.00109754 0.152142)
(0.000537289 -0.0174405 0.156385)
(-0.0126725 -0.0166329 0.163267)
(-0.000512864 -0.000388418 0.132165)
(-0.00486586 0.0044907 0.151656)
(0.00711239 -0.0152577 0.1537)
(0.000227404 -0.00678745 0.152092)
(-0.00937601 -0.00132515 0.125842)
(-0.00802761 -0.00596796 0.155989)
(0.00270441 0.0121293 0.115848)
(0.0247477 0.00885854 0.129326)
(0.0101915 -0.00709672 0.166078)
(-0.0216973 -0.00479432 0.151629)
(-0.00296105 0.00960123 0.157169)
(-0.00598289 0.00247079 0.151741)
(-0.00551541 -0.00637769 0.129771)
(-0.00131208 -0.00219295 0.140745)
(0.0150279 -0.00605321 0.170204)
(-0.0130597 0.000133766 0.180369)
(0.00699664 -0.0380099 0.127838)
(7.10919e-05 0.00227142 0.119659)
(-0.0125917 -0.00174771 0.167092)
(0.00195639 -0.00241507 0.147713)
(-3.0477e-05 -0.0105315 0.174309)
(0.0144473 0.00687972 0.180157)
(-0.00989371 -0.00865283 0.144672)
(0.00254273 -0.00961056 0.163681)
(-0.0172662 -0.0135459 0.0413208)
(-0.000625403 0.00756173 0.159218)
(0.0254853 -0.00588509 0.0699225)
(0.00371831 0.000409458 0.115144)
(-0.00397523 -0.00599331 0.13819)
(0.00666225 0.00284634 0.153439)
(-0.0187896 -0.0133343 0.0735677)
(-0.00417167 0.0136257 0.163851)
(0.00237093 0.00882017 0.157749)
(0.00493458 -0.000660684 0.150966)
(-0.00884781 -0.00162452 0.144359)
(0.0237075 -0.00343157 0.0643208)
(-0.00602688 -7.40228e-05 0.146319)
(-0.00190477 -0.00421984 0.125919)
(-0.00168211 -0.00520986 0.145543)
(-0.00354157 0.0099858 0.147806)
(0.00556662 -0.00153427 0.137992)
(0.00830138 -0.00680181 0.151287)
(0.00229055 0.00179672 0.150525)
(-0.00209862 0.0157615 0.0781724)
(0.00444471 0.00172015 0.142865)
(0.00972218 0.00471865 0.17343)
(-0.00239644 -0.00283286 0.153941)
(-0.00063572 -0.00691737 0.144271)
(0.00640982 0.00640655 0.174041)
(0.00740207 0.00914729 0.14607)
(-0.0138486 0.00156351 0.0596772)
(0.0150715 0.0129507 0.060716)
(0.00248019 0.00267585 0.16306)
(-0.0224605 -0.00507819 0.0644106)
(-0.00501453 -0.0141041 0.13474)
(0.0230608 0.0183612 0.120516)
(0.0131651 0.00539786 0.153961)
(0.00400742 0.00586276 0.189479)
(0.00564293 0.00180442 0.175587)
(0.00702329 0.00128883 0.125857)
(0.00531779 -0.00303596 0.161438)
(-0.00339893 0.00799759 0.106694)
(0.017743 -0.00719934 0.122922)
(0.0097057 -0.00178765 0.14414)
(0.0026053 0.00178214 0.160779)
(-0.00414034 -0.00424982 0.140601)
(-0.0039509 0.00644448 0.147693)
(-0.00521671 0.00677222 0.117828)
(0.00798042 0.00241463 0.142142)
(0.00118015 0.000104925 0.154791)
(0.00117127 -0.00228438 0.15955)
(0.00208631 0.011244 0.154558)
(0.000233919 0.00517108 0.156275)
(-0.00195904 0.0127063 0.158707)
(-0.0127318 0.0174318 0.152887)
(0.00452821 0.00194418 0.156069)
(0.00637287 -0.0111416 0.132075)
(0.00114133 0.0022901 0.147951)
(0.00125412 0.00650852 0.159344)
(-0.00800239 -0.00932775 0.123488)
(0.0153189 -0.0149632 0.0549583)
(0.00345839 0.00242541 0.152594)
(-0.00174173 0.0053921 0.102459)
(-0.0176216 -0.0200886 0.0839224)
(-0.00489133 -0.00766496 0.153643)
(0.0051153 -0.0131154 0.156761)
(-0.00333662 -0.00786461 0.127182)
(-0.00447073 0.00795019 0.146807)
(-0.00073116 0.00149979 0.158362)
(-0.000748218 -0.0102599 0.158699)
(0.00398072 0.00212959 0.155065)
(0.00318518 -0.0120704 0.0856294)
(-0.00803828 -0.00225739 0.162198)
(-0.00483159 -0.000677685 0.146306)
(-0.00137685 0.000595136 0.129977)
(-0.00420078 -0.005349 0.149523)
(0.0044121 -0.00534605 0.139233)
(-0.00455495 -0.00405314 0.144698)
(-0.00860825 0.000109991 0.166754)
(-0.014334 0.000782647 0.14959)
(-0.00107097 0.00821926 0.173426)
(-0.00287498 0.00342249 0.163755)
(0.00156854 -0.0272867 0.0880323)
(0.000765855 0.0221847 0.112589)
(0.00814499 -0.000426175 0.161458)
(-0.00122325 0.0119874 0.132765)
(0.00843399 -0.00685701 0.0958188)
(-0.0124362 0.00197976 0.149144)
(0.00285737 -0.00712654 0.180488)
(0.00819177 0.00161503 0.166752)
(0.00356796 -0.00170578 0.140952)
(0.00860291 -0.00106447 0.16295)
(0.00123114 -0.0015699 0.165652)
(0.00299096 3.4376e-05 0.149713)
(0.00975525 0.00311254 0.141605)
(0.00484635 -0.0253509 0.0745807)
(0.00182041 0.00627683 0.147164)
(-0.0125963 0.00246462 0.131124)
(-0.0167303 -0.0114486 0.127718)
(0.012059 -0.00591135 0.109223)
(0.000184428 -0.00688313 0.151366)
(0.0124189 0.00260359 0.159514)
(-0.000825932 -0.00720175 0.161936)
(-0.0198604 0.0171166 0.0361652)
(-0.00656236 -0.0026716 0.14673)
(0.00475036 0.0218295 0.114285)
(-0.00341749 -0.00712621 0.159819)
(-0.004988 0.014 0.102039)
(0.0307194 -0.00588392 0.126433)
(0.00764064 -0.00328172 0.15029)
(-0.0164538 0.00244063 0.123012)
(0.0183027 -0.00330754 0.0553834)
(0.00369257 0.0123994 0.129255)
(-0.00247983 0.00863542 0.153827)
(-0.00932504 0.00269302 0.0610718)
(0.011055 0.00732426 0.15662)
(-0.00546468 0.0134195 0.161502)
(0.00703295 0.0139125 0.160078)
(0.00321133 0.0144866 0.161838)
(0.00790739 0.00331044 0.154059)
(0.0129249 -0.0034384 0.169169)
(-0.00215034 -0.0130446 0.11724)
(0.00480067 -0.00167603 0.15116)
(-0.00739875 -0.00501756 0.146253)
(0.0364064 0.0113468 0.12936)
(0.00630099 0.00737145 0.168204)
(0.00358968 0.00131007 0.154103)
(0.00431661 -0.00410768 0.169888)
(-0.0123275 0.0134484 0.11223)
(0.00485783 0.00264868 0.162682)
(0.00505508 0.000288084 0.150548)
(-0.000989666 0.00453153 0.161048)
(0.00205308 -0.00220182 0.146354)
(0.00458178 0.00336083 0.117488)
(-0.00188837 -0.00141352 0.160282)
(-0.00778791 0.00141155 0.162908)
(0.00301221 0.00246724 0.159164)
(0.00425663 0.00152536 0.140835)
(0.0211311 0.00807173 0.0825267)
(-0.0226712 0.00724115 0.0605862)
(0.00291466 -0.00110668 0.15257)
(0.00862281 0.000158468 0.15947)
(-0.00782944 0.00936415 0.159207)
(-0.0196981 -0.0143118 0.0955087)
(0.00220985 0.0128487 0.136686)
(-0.00463707 0.00985889 0.173826)
(-0.00527522 0.00449313 0.148206)
(-0.00200306 -0.00243474 0.165101)
(-0.00554319 0.00533624 0.15463)
(0.00431561 -0.00884446 0.152251)
(0.00438702 -0.00376207 0.160751)
(-0.00261249 0.0046052 0.145559)
(-0.00163508 0.00150879 0.140592)
(-0.00160276 -0.0150261 0.124963)
(0.00670482 0.00941131 0.153214)
(-0.000989311 -0.00464719 0.172471)
(0.00950281 0.00534646 0.148445)
(-0.0015292 -0.00630775 0.138684)
(-0.00300063 0.000826888 0.164275)
(0.00589078 0.00492802 0.150657)
(0.0123672 0.00161951 0.0999382)
(0.0111869 0.0250463 0.104853)
(-0.0142554 -0.0110807 0.0437563)
(0.00231557 -0.00106553 0.131785)
(-0.000152414 0.000509499 0.150873)
(0.00597017 -0.00405297 0.151002)
(-0.00218942 -0.000374589 0.169516)
(0.0108142 -0.0199364 0.102556)
(0.00253859 0.003481 0.0509176)
(-0.00693826 0.00335102 0.162952)
(-0.00546673 -0.0108764 0.150501)
(-0.000887604 0.000373206 0.153325)
(-0.00961037 0.00123259 0.161748)
(-0.00057295 -3.87975e-05 0.162269)
(-0.00728483 -0.00292939 0.14562)
(0.000523645 -0.000793616 0.170876)
(-0.00649302 0.0126359 0.0651862)
(0.00531204 0.00831132 0.165537)
(0.0035636 -0.0012938 0.129917)
(-0.00315676 -0.00561732 0.107038)
(-0.00203103 0.000522831 0.154047)
(-0.0106469 0.0076159 0.176078)
(-0.0014228 -0.00802497 0.150048)
(-0.02416 -0.00996686 0.0526162)
(-0.00100415 0.00659464 0.151846)
(-0.00652009 -0.00248211 0.153495)
(0.00479952 -8.55472e-05 0.138671)
(0.00635218 -0.000213574 0.177878)
(0.00430177 0.0062569 0.136167)
(-0.00102775 0.00457267 0.137586)
(-0.0101151 -0.00262329 0.152194)
(0.00286927 -0.00143859 0.140829)
(-0.00129152 -0.00437522 0.15406)
(0.000609803 0.00874445 0.155406)
(0.00630405 0.00885536 0.15803)
(0.00702615 0.00891653 0.0584162)
(0.0053277 0.0156405 0.151498)
(-0.00273516 -0.0104201 0.170005)
(-0.014686 0.000564059 0.122244)
(-0.00548361 -0.00466197 0.156856)
(0.00384656 0.000887076 0.146287)
(0.00501762 -2.81092e-05 0.164622)
(0.00232374 -0.00787465 0.163468)
(-0.0133813 -0.0113933 0.0672092)
(0.00873559 -0.0035108 0.159396)
(0.000420725 -0.00381841 0.188271)
(0.00687225 -0.00120743 0.164276)
(-0.00543081 0.0156106 0.166506)
(-0.0101104 0.00869779 0.0981636)
(0.00113262 0.0117787 0.155518)
(-0.0219379 -0.00597822 0.0644788)
(-0.00446242 0.00407087 0.141008)
(-0.0079042 -0.00608489 0.12239)
(-0.00842398 0.0109873 0.136549)
(-0.000111563 0.00722609 0.131134)
(-0.0107323 -0.000621867 0.155974)
(-0.0105739 0.00794832 0.158284)
(0.012642 -0.0159225 0.0948112)
(0.00158987 0.002963 0.148117)
(-0.006967 0.00791911 0.129003)
(-0.0109087 -0.00539956 0.0602007)
(-0.0127137 0.00357561 0.148404)
(-0.0012038 -0.00785071 0.124918)
(0.000362024 -0.00916608 0.106055)
(0.00731856 0.0100114 0.143245)
(-0.00559238 -0.00116966 0.129197)
(0.000760581 0.00415343 0.150562)
(0.012991 -0.00214756 0.145115)
(-0.00831836 0.00505337 0.0712201)
(0.0105216 0.0058997 0.136854)
(0.0105657 -0.00825887 0.142286)
(0.00753849 0.00692755 0.163919)
(0.00949536 -0.00561913 0.146404)
(-0.019493 -0.00210521 0.0698696)
(-0.00210739 0.00797284 0.16508)
(-0.00637059 0.00405081 0.138777)
(-0.00529404 0.00307647 0.137777)
(-0.00184351 -0.0186344 0.102592)
(-0.000487881 -0.00486428 0.16015)
(0.00921882 -0.0208476 0.0569847)
(0.00169698 -0.00598089 0.139842)
(-0.00507944 -0.00506831 0.0660374)
(0.0141183 -0.0215857 0.124117)
(0.0032595 -0.00580571 0.145179)
(0.00730919 0.00437378 0.128414)
(-0.0200783 0.00411224 0.048642)
(0.0031386 -0.0276053 0.103776)
(-0.0118038 0.0208892 0.119395)
(0.0232594 -0.00325304 0.130995)
(-0.00144102 0.000471464 0.150054)
(-0.01774 0.00546218 0.126216)
(0.00116415 -0.000198098 0.153837)
(-0.00785987 -0.00846638 0.156042)
(-0.00355991 0.00143923 0.129816)
(0.00894604 -0.0123356 0.0619361)
(0.00228308 -0.0147439 0.178447)
(0.00927179 -0.0179156 0.122349)
(-0.00214398 0.0104217 0.156154)
(-0.000700777 0.00436024 0.120346)
(0.00033415 0.010517 0.135729)
(0.0272087 0.00256847 0.139585)
(-0.00600364 0.00560444 0.155474)
(0.00929034 0.00109499 0.124235)
(0.0274929 -0.0106184 0.0924625)
(-0.00660882 -0.0017361 0.16328)
(-0.0145737 -0.00203966 0.0586155)
(0.014813 0.00231222 0.0648108)
(-0.00383081 -0.00237371 0.158723)
(0.00888015 -3.113e-05 0.137224)
(0.00466777 -0.00416368 0.148893)
(0.00762993 -0.0146306 0.170105)
(0.00138427 0.00109202 0.154231)
(0.00316187 -0.00990377 0.147255)
(-0.00328974 0.00390842 0.167015)
(0.0129695 0.00254448 0.117829)
(-0.00155524 0.00212827 0.133704)
(-6.65408e-05 0.0179768 0.154681)
(-0.0250411 -0.01556 0.0480688)
(0.00263563 -0.00129991 0.163166)
(-0.0101933 -0.0138733 0.138865)
(0.0171894 0.0223228 0.0548707)
(0.00293814 -0.00615091 0.162391)
(-0.00371106 -0.00240906 0.088237)
(-0.00143095 0.000151537 0.148575)
(-0.00613936 -0.0100797 0.147156)
(-0.0016912 0.0135552 0.15924)
(0.0248274 0.00919822 0.156546)
(-0.00349542 -0.00457684 0.151958)
(-0.0041562 -0.00010083 0.163557)
(0.00256454 -0.00550518 0.162644)
(-0.00222807 -0.00369272 0.166314)
(0.00933268 -0.00704099 0.162564)
(-0.00167305 -0.00368079 0.134153)
(0.0197783 -0.0074796 0.0952098)
(0.0107815 0.00329729 0.128881)
(0.00581532 -0.00686412 0.150588)
(0.00440898 0.00715417 0.144365)
(0.0110801 0.0303098 0.106877)
(-0.00799894 0.00304698 0.15191)
(-0.00338647 -0.00297037 0.163349)
(0.00399278 -0.00839958 0.167296)
(-0.000417547 -0.00173592 0.153279)
(-0.00205557 -0.0124957 0.16419)
(-0.0158421 0.00632416 0.0421499)
(-0.00949833 -0.00409047 0.151555)
(-0.00326206 -0.0058563 0.150079)
(0.00153068 0.000183593 0.135952)
(0.00353352 0.0104157 0.159391)
(-0.0138805 -0.00444415 0.0838161)
(-0.00278347 0.00574117 0.153811)
(0.0121934 -0.00836047 0.157639)
(0.00454723 0.00544842 0.167881)
(-0.00125532 0.0039268 0.14368)
(0.00479784 -0.00934635 0.169608)
(0.0174417 0.00902847 0.038258)
(-0.0177672 0.00354417 0.0516176)
(0.000339536 -0.00563701 0.135985)
(-0.00193725 0.0117474 0.133176)
(0.00896505 -0.00314577 0.141251)
(0.00442778 0.00309798 0.136946)
(0.00765742 -0.0144751 0.155236)
(0.00302207 -9.68749e-06 0.142919)
(0.00212258 -0.011661 0.149552)
(-0.00209249 -0.00292108 0.0351318)
(0.00570674 -0.0087753 0.131935)
(0.0032607 -0.00918197 0.158551)
(-0.00874962 0.0110349 0.103538)
(-0.00331046 0.0100536 0.115314)
(0.00611427 0.000802251 0.164431)
(0.00622213 0.0103412 0.157464)
(-0.0011585 -0.00031146 0.162423)
(0.00250744 0.00565012 0.173374)
(0.00337739 -0.00910994 0.171145)
(-0.00689115 -0.00333152 0.150989)
(0.00224873 0.00175167 0.161454)
(0.0124337 -0.00283327 0.15992)
(-0.00311449 -0.00232918 0.148915)
(0.00342593 -0.00609685 0.145056)
(0.00231826 0.00945043 0.142335)
(0.00437137 0.0270905 0.11922)
(-0.00271363 0.00413316 0.165951)
(-0.00684322 -0.00922293 0.106316)
(0.0128537 -0.0151293 0.123919)
(0.0179237 0.0114917 0.121929)
(-0.0064139 0.00211302 0.151061)
(-0.00168094 0.00125362 0.171292)
(-0.00431506 -0.00855679 0.1529)
(-0.00571343 0.00376551 0.145541)
(-0.00338546 0.00356838 0.167165)
(-0.0056333 0.00239774 0.137569)
(0.00611016 -0.00307737 0.142404)
(-0.015258 -0.0301609 0.0847643)
(-0.000506519 0.000566293 0.118985)
(-0.0173038 -0.00839566 0.14189)
(-0.00362299 -0.00715205 0.146036)
(0.00265799 0.00508593 0.14685)
(-0.00737948 -0.00516916 0.16607)
(0.0034233 0.000933853 0.155342)
(-0.00659056 -0.00797483 0.171345)
(-0.0078762 -0.0137438 0.103784)
(0.0192115 -0.0122216 0.112335)
(-0.0142828 -0.000589531 0.0543514)
(0.0101939 -0.000794774 0.0581483)
(0.00201371 -0.000404325 0.0916108)
(0.0106362 0.00757183 0.169892)
(0.000952609 -0.00229194 0.161474)
(-0.0237188 -0.00379 0.0635062)
(-0.0195211 0.0100622 0.0484994)
(0.00306545 0.0111356 0.161537)
(-0.0126596 -0.00892215 0.144452)
(-0.00884801 -0.00325846 0.0974192)
(-0.00956315 -0.00563704 0.151874)
(-0.00698508 0.00825168 0.165263)
(-0.0030876 0.000635513 0.151487)
(0.0139016 0.00920119 0.0893261)
(0.01733 0.00998669 0.119911)
(-0.00139984 0.00283024 0.145106)
(0.00182377 0.00725928 0.151997)
(-0.0030409 0.00961014 0.138267)
(-0.00797972 0.0410602 0.12718)
(-0.0139203 0.000950105 0.0647884)
(-0.00807512 0.0148738 0.13948)
(-0.0261941 -0.00200313 0.0767961)
(-0.00213053 -0.0111063 0.160394)
(-0.0340205 -0.00577455 0.0682464)
(0.00472025 -0.00425893 0.163002)
(0.00337027 -0.000758244 0.147453)
(0.00223376 0.0022704 0.177455)
(-0.0177811 0.00671826 0.0988598)
(0.00341034 -0.0137102 0.176421)
(-0.0105133 0.00857904 0.0710205)
(-0.0206494 -0.000445075 0.0845781)
(-0.00645701 -0.00365685 0.150943)
(-0.0209755 -0.00724632 0.0505829)
(0.00262796 -0.00745951 0.15167)
(-0.0122543 0.000129854 0.128975)
(0.0034252 0.00302936 0.147701)
(-0.00694748 0.0123861 0.15107)
(0.0212216 -0.00214699 0.0625328)
(0.00205798 -0.00262827 0.133919)
(-0.00154389 -0.0104138 0.153539)
(-0.0127046 0.0252081 0.0966966)
(-0.00349799 0.00183402 0.139897)
(-0.0025124 0.0160614 0.124349)
(0.0027371 -0.01043 0.154079)
(-0.00407394 9.97753e-05 0.148589)
(0.0146851 0.0132713 0.107656)
(-0.0283196 0.00210313 0.0627617)
(0.0113865 -0.0183838 0.126414)
(-0.00867427 0.00186207 0.156799)
(0.000288571 -0.00037986 0.166212)
(0.0117049 0.00805776 0.132079)
(0.00150436 -0.00531313 0.165647)
(0.00250454 0.0105248 0.0793064)
(-0.00412015 0.000153268 0.145812)
(-0.0106294 -0.00641912 0.0754814)
(0.00289263 0.0112907 0.173509)
(0.00416648 0.0108048 0.174553)
(0.00190256 -0.00474821 0.149898)
(-0.0135057 -0.00421086 0.0677032)
(-0.000162679 -0.000325085 0.178467)
(8.00296e-06 0.00668692 0.14311)
(0.00356734 0.00783012 0.147609)
(0.00843118 0.00552528 0.116644)
(0.000970654 -0.00383326 0.138316)
(-0.00350958 -0.00346166 0.164256)
(0.00571164 -0.0127837 0.0894606)
(0.00263164 -0.0024161 0.135527)
(-0.0132339 0.00823311 0.153903)
(-0.00109539 0.000252231 0.151981)
(-0.00946422 -0.0223594 0.0992229)
(-0.00199058 0.0167289 0.158029)
(0.00438278 -0.0020053 0.156413)
(0.00368895 0.00198629 0.165983)
(-0.0213735 0.0439998 0.0991287)
(0.00314051 -0.00456362 0.167491)
(0.0152072 -0.0278822 0.135054)
(-0.0133719 0.0203471 0.0589469)
(0.00653977 -0.00151461 0.143586)
(-0.0134212 0.00434356 0.1367)
(0.0103456 0.000267428 0.167389)
(0.0062722 -0.00171275 0.151955)
(0.00250324 0.00312472 0.151597)
(0.00415088 0.00521038 0.147836)
(-0.000613655 0.00938475 0.178624)
(0.00920685 0.00588083 0.0910858)
(-0.00107697 0.0168211 0.120685)
(0.00240005 -0.00214836 0.159921)
(0.000917718 0.00985466 0.146785)
(0.00541863 -0.0137565 0.152907)
(-0.00325538 0.000663289 0.166681)
(-0.0056806 -0.00504235 0.161371)
(-0.00407779 -4.2929e-05 0.168535)
(-0.000843452 -2.09469e-05 0.146909)
(-0.00988322 -0.00307333 0.176193)
(-0.0046067 -0.0146341 0.167742)
(0.0003065 0.0367396 0.112597)
(-0.00691048 -0.000498384 0.15214)
(-0.0161878 -0.0117829 0.121394)
(0.00539919 0.00442385 0.150806)
(-0.00801473 -0.000588879 0.153791)
(0.0103033 -0.00495271 0.178124)
(-0.013785 0.00781985 0.154594)
(0.0102319 -0.00636315 0.0451654)
(0.00313898 -0.00609158 0.160436)
(0.0026636 -0.000682559 0.131304)
(0.00778876 -0.00417586 0.152984)
(-0.00881391 0.00722285 0.142762)
(0.000614096 -0.00311393 0.141954)
(0.0071689 -0.0024599 0.147047)
(0.0103402 -0.0053892 0.132469)
(-0.00493412 0.0109412 0.118569)
(-0.0021752 0.0112868 0.144164)
(0.025304 0.0137102 0.0716178)
(0.000979373 -0.00224334 0.144832)
(0.00365693 0.00744386 0.130144)
(0.0109532 0.00370777 0.166061)
(0.0183822 0.0159562 0.0759897)
(-0.00211719 0.0103613 0.176253)
(0.00221997 -0.00107547 0.121794)
(-0.000220755 0.00450445 0.153466)
(-0.00461564 0.00128614 0.146802)
(-0.00253264 0.0157146 0.14891)
(0.00240295 -0.00575244 0.170827)
(0.00514319 -0.00240655 0.139826)
(-0.00197425 -0.00616425 0.103329)
(0.0012527 -0.0168027 0.123548)
(-0.0050249 0.00523731 0.0914152)
(-0.00255871 -0.00577145 0.143842)
(-0.00448162 -0.00224949 0.159871)
(-0.00918681 0.00430569 0.149735)
(-0.0046142 0.00841573 0.149061)
(-0.0112472 0.000304704 0.0489922)
(-0.00816373 0.0039015 0.180042)
(-0.0103378 0.00574097 0.158012)
(0.00640788 0.00313306 0.148742)
(0.00987271 -0.0129095 0.164055)
(0.00677881 0.00716254 0.140259)
(-0.00804091 -0.00906985 0.157619)
(-0.00232653 -0.000138269 0.155484)
(-0.0177408 0.00505734 0.0612352)
(0.0018598 0.00154959 0.127497)
(-0.00335302 0.00510523 0.141536)
(0.0150624 -0.00503019 0.0606773)
(0.00783941 -0.00217045 0.0951045)
(-0.0095512 -0.00957189 0.136649)
(-0.0207352 0.00887216 0.0464835)
(0.00378567 0.00203876 0.159771)
(0.00156267 0.00402873 0.149319)
(-0.00306231 -0.00647417 0.124414)
(0.013644 0.0049875 0.0562713)
(-0.00495404 -0.0087923 0.168214)
(0.00396425 -0.000119542 0.0551303)
(-0.00810905 -0.00646751 0.16222)
(0.00711217 -0.00215607 0.141559)
(0.00865441 -0.00248685 0.1415)
(-0.00669755 0.00892474 0.142851)
(0.00828127 0.00792168 0.176701)
(0.0014143 -0.00192122 0.143055)
(0.0107819 -0.00535374 0.172408)
(0.00680125 -0.00353375 0.096177)
(1.67595e-05 -0.00802857 0.136527)
(-0.013115 -0.00302784 0.161781)
(0.00895155 -0.00956381 0.16406)
(-0.000238516 0.00966118 0.161094)
(-0.00123036 -0.000664395 0.1467)
(-0.00612117 -0.00291876 0.17926)
(-0.0176918 -0.011508 0.131208)
(-0.00246743 -0.0113122 0.155303)
(0.00145176 -0.00718502 0.0963364)
(-0.00287872 -0.00288693 0.169008)
(0.00342774 -0.0104003 0.150259)
(-0.0089129 -0.000234135 0.142599)
(-0.00398759 -0.00185495 0.154529)
(0.00859312 0.00562391 0.139906)
(-0.00457822 -0.00578999 0.144372)
(-0.00267223 0.0242407 0.108798)
(0.00719105 -0.00465738 0.0785973)
(0.0153069 0.0100603 0.118905)
(0.0275481 0.00306788 0.0562193)
(0.000900636 -0.000221807 0.171705)
(0.00388217 -0.0037154 0.130858)
(0.00699881 0.00726889 0.155549)
(-0.00195 -0.0161857 0.141496)
(0.00791398 -0.0012077 0.152428)
(0.00734566 -0.00518503 0.140021)
(0.0211804 -0.00966274 0.0824358)
(-0.00931274 -1.64466e-05 0.145258)
(0.000747599 -0.000219877 0.142062)
(-0.00859632 -0.0124657 0.11065)
(0.0223413 0.00832389 0.06284)
(0.00492739 0.00986608 0.158994)
(-0.00340973 0.00379106 0.173356)
(-0.0182619 -0.00861742 0.0708533)
(0.00258476 -0.00998396 0.155294)
(0.0193313 0.00835866 0.071093)
(0.00392515 -0.00523711 0.148864)
(0.00133665 0.00557512 0.147985)
(0.00279503 0.00494021 0.14364)
(-0.00458684 0.000705073 0.169186)
(-0.00399209 0.00234362 0.146435)
(0.00459882 0.0015443 0.160926)
(-0.00378267 0.00531599 0.148427)
(-0.0196105 0.00760461 0.0583178)
(-0.00666465 0.018222 0.0910564)
(-0.0143116 0.0081215 0.157752)
(0.00912603 -0.00891944 0.148767)
(-0.00164894 0.0137216 0.0615567)
(-0.00519645 0.0014106 0.148179)
(0.00147961 0.00365985 0.152578)
(0.00607143 -0.00647993 0.15714)
(0.0015697 -0.00946615 0.138995)
(0.00403867 0.00970184 0.155576)
(0.00119224 -0.0080341 0.131808)
(0.00150058 -0.000267762 0.149307)
(-0.00932143 0.00387961 0.162625)
(-0.00271007 0.0209477 0.164637)
(-0.00568199 0.00865041 0.136567)
(-0.00580256 0.00600121 0.163579)
(-0.000730016 0.0138983 0.120178)
(0.00378425 0.000586473 0.158404)
(0.00806206 -0.00475101 0.154212)
(0.000893802 0.00856691 0.169215)
(-0.0127691 0.00748841 0.165862)
(-0.0143497 0.00223085 0.158233)
(0.0115444 -0.00106825 0.173288)
(-0.00461427 0.00631501 0.158577)
(0.0136353 2.23315e-05 0.15303)
(0.0111473 0.0108175 0.151464)
(0.0152836 0.0094755 0.16174)
(-0.0115501 -0.00720241 0.12455)
(-0.00615043 0.0101165 0.149306)
(-0.00173253 -0.002405 0.154458)
(0.00248456 -0.00189228 0.144336)