/*--------------------------------*- C++ -*----------------------------------*\
| =========                 |                                                 |
| \\      /  F ield         | OpenFOAM: The Open Source CFD Toolbox           |
|  \\    /   O peration     | Version:  2406                                  |
|   \\  /    A nd           | Website:  www.openfoam.com                      |
|    \\/     M anipulation  |                                                 |
\*---------------------------------------------------------------------------*/
FoamFile
{
    version     2.0;
    format      ascii;
    arch        "LSB;label=32;scalar=64";
    class       volScalarField;
    location    "56";
    object      epsilon;
}
// * * * * * * * * * * * * * * * * * * * * * * * * * * * * * * * * * * * * * //

dimensions      [0 2 -3 0 0 0 0];

internalField   nonuniform List<scalar> 
59516
(
0.0103999
0.00907802
0.00694648
0.00591098
0.00922853
0.345175
0.00645619
0.00878735
0.00770974
0.0200699
0.00705283
0.0234273
0.00734793
0.0697143
0.0174179
0.0206839
0.00424576
0.038104
0.0130044
0.00345492
0.0315011
0.00415409
0.00454495
0.0287934
0.00330903
0.0156192
0.0283545
0.0420567
0.0218714
0.0498204
0.0457942
0.0375463
0.00510189
0.00767818
0.00842369
0.00430434
0.0480609
0.0438171
0.0154472
0.00333012
0.00917291
0.0094715
0.00691625
0.00979493
0.00637121
0.0212415
0.00867093
0.00581881
0.0126296
0.00763204
0.0271121
0.0232526
0.00672766
0.00629943
0.0250464
0.00873126
0.00943449
0.0242121
0.00282519
0.0106837
0.0040349
0.037241
0.00315893
0.00440497
0.00624759
0.00641227
0.0471274
0.0236088
0.0200299
0.00725294
0.0228875
0.00382263
0.0378569
0.00533159
0.00267477
0.00539342
0.0053907
0.00412071
0.0212667
0.00742363
0.0269826
0.00744871
0.00810338
0.0420176
0.00774165
0.00314353
0.0295358
0.00430924
0.0194224
0.025415
0.00989135
0.00497103
0.00281084
0.0051815
0.00355508
0.0106379
0.00484753
0.0214916
0.0291366
0.0042196
0.0240463
0.0365118
0.0361935
0.0187865
0.00526134
0.00429979
0.0261372
0.00851656
0.00927691
0.015296
0.0198683
0.0197083
0.0166322
0.0300901
0.00343538
0.0105074
0.0186367
0.00545314
0.034643
0.00418126
0.00261357
0.00332165
0.00336688
0.00329762
0.0154447
0.0182202
0.0350658
0.0125518
0.0817487
0.00265892
0.00256306
0.00789852
0.0356083
0.00400138
0.00941964
0.00690106
0.036465
0.00530849
0.0248162
0.0104528
0.0220392
0.00239419
0.0478179
0.00609366
0.00316075
0.00454885
0.00716061
0.00838128
0.252767
0.00818127
0.0101132
0.0268781
0.0029626
0.0036683
0.0115231
0.053455
0.00703974
0.00709416
0.0135346
0.0459518
0.0155892
0.014762
0.0294785
0.0543004
0.00987351
0.00283338
0.0166468
0.00283678
0.0426522
0.0052979
0.0129993
0.0231151
0.0142467
0.00495461
0.0215842
0.00884835
0.00306808
0.0071619
0.0147098
0.0282312
0.00415469
0.0348694
0.0474762
0.0181815
0.00265368
0.019828
0.0300378
0.0430626
0.00654172
0.0099216
0.00540768
0.0217153
0.00327455
0.0190368
0.00367365
0.034377
0.0208006
0.0263128
0.00807713
0.00366486
0.0139645
0.00250614
0.00897123
0.0456341
0.00572507
0.00439256
0.00275116
0.0040122
0.0466115
0.00747556
0.023636
0.0574493
0.00447317
0.0199136
0.0072973
0.00292272
0.00468335
0.00337617
0.0204135
0.0035377
0.0207064
0.00854117
0.00330159
0.0239472
0.00306721
0.00298809
0.0238579
0.0214094
0.00296402
0.0193814
0.0027578
0.00297382
0.00265969
0.0293208
0.0303428
0.0274265
0.0187532
0.00902583
0.00364152
0.0226253
0.00255912
0.0426367
0.0208894
0.0368023
0.00268925
0.0116463
0.00432801
0.0146119
0.00275828
0.00877571
0.00292344
0.00468435
0.00259889
0.0043838
0.00432705
0.00347353
0.0222713
0.0038134
0.0212579
0.0174499
0.00560246
0.00324586
0.00764011
0.00265006
0.00990769
0.0204608
0.0035185
0.0114339
0.0189745
0.0224007
0.0119873
0.00294225
0.00942007
0.0109616
0.00306781
0.0112891
0.0345107
0.0032095
0.0269127
0.0233877
0.00269716
0.00483566
0.0330088
0.00683029
0.00618658
0.00398646
0.0026652
0.0333888
0.00275558
0.00285947
0.00291394
0.00537185
0.00513986
0.0104587
0.00286262
0.0203955
0.00349417
0.00445406
0.00265455
0.00311372
0.00691372
0.0185456
0.0356957
0.0201559
0.00313067
0.0443171
0.0142012
0.0225534
0.00309432
0.00272983
0.0034638
0.0186595
0.00897957
0.0251282
0.0271372
0.00369179
0.0101818
0.0117161
0.0119053
0.0258472
0.0160796
0.00887954
0.00286138
0.00260098
0.00277312
0.00335231
0.0190699
0.00580272
0.00319605
0.0034728
0.00317962
0.0189477
0.0371822
0.00400688
0.021615
0.029496
0.00334413
0.00433753
0.0278687
0.0029498
0.00294372
0.002589
0.00290577
0.0279508
0.00336206
0.00293701
0.0208123
0.00268875
0.00298834
0.00556833
0.0061264
0.00385925
0.00419845
0.0172381
0.0337284
0.0248893
0.00998949
0.0524232
0.0968357
0.014615
0.00763683
0.00550867
0.00650017
0.00351512
0.00527016
0.00398894
0.00413537
0.0287489
0.0360392
0.0205683
0.0245971
0.0255553
0.00350894
0.010345
0.00345936
0.0399653
0.00586146
0.0252277
0.00327063
0.0250295
0.0172231
0.00834222
0.00719296
0.0420902
0.0192091
0.0052034
0.0318317
0.0121873
0.00759843
0.00507738
0.0109054
0.0109882
0.00333865
0.0671422
0.00262361
0.0282053
0.0162346
0.0166026
0.00271921
0.0026346
0.0222981
0.00543508
0.0104218
0.00263603
0.0026653
0.0193118
0.00571996
0.0041783
0.00403076
0.00350772
0.0356345
0.0375444
0.00563452
0.0027417
0.00263316
0.0267578
0.00310495
0.00816064
0.00286657
0.00277459
0.00265033
0.0028339
0.00285444
0.0113035
0.0027494
0.0167451
0.00321423
0.0086781
0.00383873
0.00292358
0.00420969
0.00455651
0.0242768
0.0297501
0.0382649
0.00774097
0.00234369
0.00496032
0.00581211
0.0301123
0.0393048
0.00744907
0.00400809
0.00280694
0.00359815
0.00479878
0.00257152
0.00489684
0.0269911
0.00635397
0.0192682
0.114985
0.00388636
0.0102468
0.00444845
0.0416812
0.0026971
0.00279525
0.00283675
0.0117641
0.00395094
0.00289717
0.00638814
0.00280347
0.015135
0.00296889
0.00402796
0.0371838
0.0026831
0.00707064
0.0205627
0.0108917
0.00296423
0.00573051
0.0136436
0.0393964
0.00269151
0.00573403
0.00339813
0.00595156
0.0262826
0.00466689
0.0542488
0.00340897
0.0169915
0.00314411
0.0188795
0.0084676
0.0100944
0.0269634
0.00260994
0.00308903
0.0431674
0.00330247
0.00284363
0.0254397
0.0167704
0.0186377
0.00381948
0.00289561
0.0844604
0.0209018
0.0201387
0.0077393
0.00282321
0.0339483
0.0034401
0.00467104
0.00266574
0.114203
0.00294052
0.0307626
0.0033777
0.038099
0.0209912
0.00381523
0.0181546
0.0401684
0.0277848
0.0187558
0.0202372
0.00419386
0.0229628
0.016956
0.0123399
0.00310343
0.0250501
0.00822107
0.0677824
0.00291018
0.0220896
0.00345115
0.0207112
0.00617906
0.0028524
0.019737
0.00271038
0.0533492
0.048728
0.00395119
0.00272474
0.00558226
0.00614826
0.00271353
0.0181789
0.0030461
0.0181907
0.00292039
0.00587744
0.0262045
0.00365821
0.019121
0.0259791
0.00412298
0.0255353
0.00510023
0.00280493
0.0055442
0.0190877
0.00267789
0.0125377
0.00241943
0.00237216
0.00272069
0.0027566
0.0231471
0.0215028
0.0027073
0.00326511
0.0318832
0.00341314
0.00252241
0.002669
0.00259388
0.00726977
0.0416465
0.00262522
0.00928507
0.00394191
0.00973959
0.023514
0.00283626
0.011925
0.00494565
0.00261937
0.00460121
0.0485639
0.0366279
0.00293669
0.0031475
0.00273095
0.00425037
0.0123071
0.00433373
0.00286385
0.03238
0.00290664
0.0137481
0.0258419
0.0170867
0.00435808
0.00455324
0.00505481
0.00631012
0.00948026
0.00277879
0.0109995
0.00277504
0.00297427
0.00224282
0.00291051
0.0242526
0.0032181
0.0318415
0.0949017
0.0177131
0.0108416
0.00518387
0.0299496
0.00314919
0.00262065
0.00385812
0.00288159
0.028572
0.0104266
0.0142748
0.0029174
0.00763777
0.0125279
0.00684544
0.00759118
0.0252814
0.0218661
0.0236762
0.0411008
0.0265983
0.0113313
0.00494168
0.0459769
0.040025
0.0027286
0.0656758
0.0280422
0.00435389
0.00824096
0.00535324
0.0276274
0.0209914
0.00775348
0.00304283
0.0039681
0.0291951
0.0306146
0.0596089
0.0320994
0.00507247
0.0294501
0.00935235
0.00286993
0.00242344
0.023608
0.00969442
0.0293573
0.0332331
0.00285302
0.0458857
0.00323862
0.0193964
0.00368381
0.00463113
0.0399373
0.0203792
0.00411441
0.0268638
0.00352436
0.0218145
0.0087936
0.00268149
0.0272307
0.0374602
0.0204554
0.0190541
0.00925573
0.0217655
0.0142261
0.0354068
0.00269245
0.0263634
0.00287866
0.00431085
0.00311217
0.0481946
0.0039664
0.012588
0.00359997
0.0225924
0.0140955
0.00332088
0.0263387
0.00262472
0.0294977
0.00653636
0.0316992
0.0186765
0.00277456
0.00552469
0.0289336
0.00750082
0.0185521
0.0322647
0.0028106
0.0121231
0.00548885
0.00300528
0.00290011
0.00305283
0.00531512
0.020633
0.0240004
0.00272188
0.0125824
0.00732771
0.00562021
0.0150282
0.00405651
0.00338231
0.00946044
0.00931675
0.0313195
0.012283
0.0281102
0.00388434
0.00284492
0.0113984
0.00979422
0.0420982
0.0145838
0.0208583
0.00282371
0.00276695
0.0127691
0.00349199
0.0142525
0.0160051
0.00516823
0.0375875
0.00277654
0.0241504
0.00481349
0.0333671
0.00264732
0.0106346
0.0036041
0.00757864
0.00439979
0.00406476
0.00260713
0.0255242
0.0182862
0.0363662
0.00302964
0.00370838
0.00529631
0.00328236
0.0585296
0.00970377
0.0116023
0.00294948
0.00593041
0.00454939
0.00949155
0.00285381
0.0397608
0.0129594
0.00408204
0.0243654
0.0229519
0.0170017
0.0391405
0.0115226
0.00310456
0.0178048
0.0443879
0.00875282
0.0231431
0.00934538
0.0029662
0.0026835
0.00303756
0.00304867
0.00297293
0.005873
0.0301954
0.00283034
0.00574889
0.012769
0.0097614
0.00329007
0.00734132
0.0157048
0.00347273
0.0275519
0.0119971
0.010802
0.0176996
0.0035715
0.0424
0.0153191
0.0294147
0.0346021
0.0187201
0.0396704
0.00610459
0.00397019
0.00593792
0.0301844
0.00542679
0.00436287
0.0376568
0.00375452
0.010323
0.0242111
0.0384398
0.00742523
0.00799271
0.0305752
0.00337147
0.0369487
0.00274202
0.0038015
0.00648471
0.00361896
0.00526966
0.00937743
0.00274307
0.0549196
0.0295858
0.00976855
0.0095412
0.0461053
0.00455964
0.0127803
0.0027891
0.00329175
0.0149434
0.00391323
0.00268638
0.0117741
0.0203098
0.00310436
0.0100275
0.0246492
0.00349682
0.00317471
0.0034659
0.0105154
0.0055694
0.00868185
0.0129867
0.00936286
0.00985477
0.00530004
0.0191474
0.0037799
0.00293179
0.00930651
0.00439757
0.00823936
0.00647429
0.0272973
0.0185281
0.00625607
0.0047075
0.00519472
0.0027499
0.00388488
0.00264513
0.00251304
0.228168
0.00731182
0.00280806
0.0351329
0.00448383
0.00417376
0.0357863
0.0037033
0.00297059
0.00929575
0.00290717
0.00282168
0.00281635
0.0176012
0.0106175
0.0242414
0.00805204
0.00308128
0.0310888
0.0332678
0.020261
0.00676514
0.023738
0.0040652
0.00307159
0.00302326
0.00345944
0.0124465
0.0175948
0.0037913
0.00329213
0.00773491
0.0126393
0.00368012
0.00294735
0.00264979
0.0287168
0.00237879
0.0109291
0.0140049
0.0277765
0.0197699
0.0118669
0.00292289
0.0215645
0.003109
0.00283987
0.00328757
0.00265482
0.00292249
0.00256666
0.00299684
0.00269359
0.00963239
0.00506515
0.00655301
0.0279199
0.0230402
0.00356695
0.00570486
0.0278914
0.00321533
0.00902062
0.00290866
0.00282937
0.00288488
0.00423135
0.0118192
0.00290001
0.12264
0.0103845
0.00289125
0.0700848
0.00311328
0.0267939
0.0131676
0.0036318
0.0148115
0.025072
0.00353865
0.00384827
0.00378834
0.0273569
0.00321832
0.0276671
0.0113295
0.0167238
0.0186668
0.00978198
0.00277643
0.017424
0.00378313
0.0032419
0.00806044
0.00280428
0.00276385
0.00789419
0.00252251
0.00308653
0.0154761
0.00279084
0.0196381
0.0287364
0.00316131
0.00795903
0.0203335
0.00290028
0.00851779
0.013876
0.00770163
0.0430177
0.00297232
0.00312643
0.00769465
0.0318856
0.0204474
0.0100308
0.020097
0.00511984
0.00562574
0.00933635
0.043144
0.0079134
0.00295304
0.00863918
0.00292604
0.00304193
0.0277221
0.00372739
0.00279074
0.0077334
0.00462056
0.0285492
0.00731559
0.00388152
0.00231346
0.0170857
0.00361158
0.0117078
0.00791827
0.0365779
0.00715798
0.0125499
0.0249661
0.00662348
0.0250266
0.00339821
0.00857703
0.00271311
0.066086
0.00244369
0.0104805
0.0211667
0.010112
0.00484798
0.0357222
0.00341602
0.00391085
0.0224017
0.0513585
0.021907
0.00249808
0.00403124
0.00291199
0.00944175
0.0232767
0.00414254
0.0342566
0.00858282
0.00293147
0.00822548
0.0215746
0.00440053
0.0373834
0.0126634
0.00371634
0.00278925
0.0369734
0.00382079
0.00631186
0.0200513
0.00303593
0.00358892
0.00219447
0.00761361
0.0104807
0.0199208
0.00315143
0.0040031
0.0365964
0.0265624
0.0193733
0.00285246
0.0107718
0.0033412
0.022638
0.00281916
0.0279833
0.00507256
0.0154629
0.00311364
0.00279373
0.0046365
0.00488894
0.0350193
0.0297038
0.00427052
0.00520845
0.033932
0.0282925
0.00324316
0.00374284
0.00340028
0.00926648
0.00504556
0.00280457
0.00310716
0.0183113
0.012617
0.0172716
0.00425614
0.0127709
0.0295549
0.0279423
0.00257569
0.00804089
0.0105477
0.00342445
0.00337083
0.0345311
0.00306
0.00291201
0.0246338
0.0352492
0.00304059
0.0024801
0.0355812
0.050275
0.0026283
0.00966205
0.037426
0.0163142
0.00259082
0.00276395
0.00294471
0.00546569
0.00305907
0.0334955
0.0288567
0.00284521
0.00291538
0.00976979
0.00384272
0.0223771
0.0204005
0.0218688
0.0069316
0.0474123
0.00376785
0.00463166
0.0107438
0.0190391
0.040394
0.00276014
0.00248013
0.00685427
0.00277177
0.00884174
0.00354496
0.0230737
0.0194147
0.210901
0.00857551
0.00454029
0.00945261
0.0212612
0.0117956
0.00720462
0.00433554
0.0108805
0.00366372
0.00279147
0.00885191
0.0209708
0.0326626
0.00338553
0.0341232
0.00693542
0.00640252
0.0121598
0.0360556
0.00429637
0.0176174
0.0465004
0.0390092
0.00541975
0.00273218
0.0057578
0.00563962
0.0129706
0.00835823
0.0517588
0.0270955
0.0243364
0.00262998
0.00945857
0.00440255
0.00861044
0.0087781
0.0055306
0.0382967
0.00687207
0.0373469
0.00315363
0.00823906
0.0323615
0.0025511
0.0108371
0.00561792
0.0119044
0.0212858
0.0383159
0.00370568
0.0228124
0.00299064
0.00289115
0.00640426
0.0167005
0.0341063
0.00878024
0.0249117
0.00339619
0.00339532
0.00301015
0.0219373
0.00343872
0.0034593
0.00366058
0.00335169
0.0390081
0.0229315
0.00305578
0.00836452
0.0172968
0.00272304
0.00627716
0.00588514
0.0099615
0.027237
0.131935
0.0237946
0.00357272
0.00295792
0.00646496
0.0360837
0.0280535
0.00404587
0.00703064
0.016332
0.00259052
0.00339686
0.00317626
0.00287436
0.00257764
0.00327357
0.00461007
0.00784327
0.00735339
0.00775302
0.0149335
0.0175986
0.00256971
0.00564948
0.0284767
0.0209388
0.00265957
0.0309229
0.00418849
0.0102649
0.00293174
0.0042141
0.00765377
0.0025785
0.00292469
0.00306355
0.0203983
0.0231722
0.00391825
0.00251645
0.0374916
0.0126104
0.00643424
0.00285127
0.00478456
0.0481503
0.00918133
0.0050787
0.013531
0.00264996
0.00710219
0.0408138
0.00624696
0.0340717
0.0112669
0.0451944
0.00350988
0.00395249
0.00266188
0.0390394
0.0206356
0.012838
0.00371243
0.0232563
0.0223399
0.0111131
0.00282088
0.0281645
0.00237059
0.0038827
0.016839
0.0177699
0.022889
0.00312228
0.0025736
0.00436083
0.00654842
0.00998845
0.00974372
0.0101604
0.0311219
0.0321182
0.0260526
0.0113511
0.00268705
0.0295162
0.0482747
0.0222135
0.0355398
0.00375856
0.0334609
0.00293321
0.00282638
0.00438392
0.0169472
0.00318183
0.0284348
0.0179372
0.00273612
0.00308679
0.00680755
0.0098817
0.00309986
0.0381631
0.00560606
0.00361691
0.0029207
0.0110676
0.00364297
0.00254571
0.00904054
0.0262685
0.0345031
0.00906778
0.0027214
0.0309174
0.012964
0.00290223
0.0263634
0.0282427
0.0097784
0.0446053
0.0155359
0.0398637
0.0230587
0.0279418
0.041533
0.0272097
0.0437776
0.00874401
0.0135451
0.00277873
0.0417111
0.00265064
0.00586912
0.00400187
0.00741013
0.00382699
0.0296361
0.00330801
0.0107077
0.0112006
0.00270083
0.00567077
0.0493184
0.00719392
0.0125301
0.0306117
0.0316745
0.00478998
0.0111647
0.0341351
0.00420056
0.0047892
0.00267756
0.00312264
0.0225523
0.00719715
0.0124029
0.0110869
0.00477971
0.00464782
0.00306059
0.0110943
0.00360747
0.00537029
0.0105708
0.00905037
0.00867567
0.00693547
0.0118681
0.00291967
0.00539358
0.0432589
0.00492359
0.0476637
0.119744
0.0212121
0.0047101
0.00494758
0.00792287
0.00371387
0.00729406
0.0144002
0.00782061
0.044229
0.0364676
0.0548461
0.0203253
0.0212378
0.00307755
0.022511
0.00716739
0.0334189
0.0307352
0.00265789
0.0206422
0.00358712
0.00590694
0.00321409
0.0277665
0.0233233
0.00629606
0.00422416
0.0423718
0.00496863
0.0188237
0.00871988
0.00268744
0.00386073
0.00283101
0.00975836
0.0101863
0.0123694
0.0165165
0.0277508
0.0232562
0.0317623
0.00836044
0.00277521
0.0145804
0.0190158
0.00991786
0.00384927
0.0037771
0.0204023
0.00516725
0.0337195
0.0167121
0.00399619
0.0225699
0.0132753
0.0106898
0.0068253
0.00917296
0.00425953
0.0111611
0.00962448
0.00312837
0.00815542
0.00318029
0.0375481
0.0388506
0.00604297
0.00935099
0.00411837
0.00839956
0.0102699
0.0422076
0.00533442
0.00577813
0.00443603
0.0115613
0.0246873
0.0194235
0.0238584
0.00648149
0.0175084
0.0089628
0.0378411
0.00718726
0.0245535
0.0135993
0.00296249
0.0201895
0.00385875
0.00363657
0.0264836
0.0334526
0.00771253
0.0672421
0.00388063
0.00316339
0.0126264
0.00430235
0.0179721
0.00708038
0.0306191
0.008572
0.00658082
0.00262156
0.046939
0.00334261
0.00606338
0.0134123
0.00525785
0.028328
0.00333101
0.0295479
0.00408585
0.00646475
0.00459062
0.0054373
0.0247092
0.0371353
0.00577019
0.00269205
0.0252925
0.00864225
0.0302926
0.00603136
0.0190952
0.040926
0.0105593
0.00431497
0.0121444
0.00282744
0.00752247
0.0046139
0.0310184
0.00284653
0.0286986
0.0143834
0.0029889
0.00292717
0.00615797
0.0390895
0.0227758
0.00301635
0.00296031
0.00445242
0.00414625
0.00393312
0.0543291
0.00499154
0.00469179
0.00563889
0.0212895
0.00582486
0.00295267
0.00564905
0.00292832
0.00312216
0.0198702
0.00381343
0.0232994
0.00384584
0.0106282
0.00550927
0.0038698
0.00282965
0.00295605
0.0276187
0.00245666
0.020527
0.0331742
0.0060047
0.0218019
0.00373859
0.0402143
0.0209621
0.0221025
0.0133283
0.00614836
0.0305762
0.0305175
0.00479491
0.0109055
0.00266622
0.00942303
0.0376779
0.0121986
0.0257634
0.00807636
0.00403428
0.0206447
0.00412587
0.00262363
0.00334659
0.00326957
0.00261141
0.00337682
0.00272643
0.00417267
0.0191006
0.0433429
0.00459394
0.045259
0.0068716
0.00671059
0.0131793
0.00266707
0.00598916
0.0262226
0.00287726
0.0246181
0.010273
0.0181279
0.00543844
0.00267417
0.0136971
0.0088937
0.024258
0.00625433
0.00681891
0.0119851
0.00463823
0.0470696
0.0331651
0.00259321
0.00615995
0.00299364
0.00928629
0.0535181
0.00266464
0.0174838
0.00256526
0.00365786
0.0292169
0.00385799
0.00306309
0.0280916
0.0201713
0.00262722
0.00981448
0.0363162
0.00372541
0.0223597
0.0366934
0.0106098
0.00277851
0.00279971
0.0045276
0.00315463
0.00429152
0.00294659
0.00772969
0.00888048
0.00271653
0.00426252
0.0420826
0.0269192
0.00654005
0.00323351
0.00718586
0.0379274
0.0344895
0.00430376
0.0239784
0.00400635
0.00322061
0.00279481
0.0237359
0.0138303
0.00292882
0.00770513
0.00407781
0.00473766
0.0199733
0.0291759
0.00293772
0.0327626
0.0160818
0.0289492
0.0243919
0.00305781
0.00279088
0.00423689
0.00871214
0.011084
0.0111912
0.00300541
0.0039165
0.0211333
0.00242525
0.00339639
0.00344255
0.035057
0.00633119
0.0348591
0.0113311
0.0233472
0.00355547
0.00453752
0.0117402
0.029824
0.0129715
0.017215
0.0465384
0.00386439
0.0364913
0.0204806
0.00295501
0.00321197
0.00265003
0.0270807
0.00860001
0.022075
0.00272515
0.00356601
0.00306534
0.00285737
0.0248425
0.00447902
0.00728912
0.00273523
0.00292249
0.00301031
0.00328795
0.00282764
0.0419542
0.0284666
0.00747574
0.00260707
0.00442441
0.0250044
0.00280399
0.0189894
0.00653358
0.00470139
0.0124401
0.0205125
0.0191118
0.044798
0.00363255
0.00451042
0.0199959
0.00674978
0.0429475
0.00381639
0.00239725
0.0383615
0.00688728
0.00581378
0.00318667
0.0917394
0.0449506
0.0306953
0.0163726
0.0185855
0.0360202
0.0300361
0.0417798
0.0127181
0.00327359
0.00509424
0.00371446
0.00623912
0.039003
0.00340358
0.00720756
0.046907
0.0464405
0.0330089
0.0116431
0.0239994
0.00359278
0.014897
0.002797
0.00800513
0.0242481
0.0123172
0.00372688
0.00277594
0.00415418
0.00334598
0.00300169
0.0224789
0.00858928
0.00382976
0.00388092
0.0520693
0.0134284
0.00868699
0.00622217
0.00732744
0.00280407
0.019478
0.0335856
0.0397175
0.0101597
0.00264455
0.00228343
0.00415519
0.018426
0.0085511
0.0242901
0.0100502
0.00314598
0.0245639
0.0183262
0.00301882
0.00423867
0.00363694
0.00323738
0.0117766
0.0164373
0.00412605
0.00935178
0.0065243
0.00451314
0.00550062
0.00309862
0.0134733
0.00463418
0.0419913
0.0321965
0.0454613
0.0108982
0.00708072
0.00959796
0.0244269
0.00398091
0.0231254
0.0196779
0.041124
0.00703811
0.00242196
0.00289968
0.0404476
0.0190291
0.0233219
0.0351213
0.0197257
0.00250836
0.00234753
0.0304766
0.0265122
0.0200364
0.00271588
0.00231395
0.00448035
0.0109613
0.0035862
0.00451263
0.0101904
0.0277253
0.00256757
0.00466841
0.00463749
0.0066245
0.00433544
0.00281921
0.0146425
0.00661571
0.016123
0.00959626
0.00309203
0.00276829
0.0494917
0.00296016
0.0353176
0.00345619
0.00386573
0.00308716
0.00335044
0.0212217
0.0376721
0.0207244
0.00291553
0.00275706
0.00598991
0.00297936
0.0339237
0.0114113
0.00326622
0.00274484
0.00801998
0.02418
0.0150727
0.00815369
0.00277782
0.00317345
0.00324154
0.00244547
0.003745
0.00417867
0.0118278
0.00301443
0.00328317
0.00422981
0.0118172
0.0279214
0.0377844
0.0146645
0.00878195
0.00256479
0.00263128
0.0321293
0.00800327
0.00489458
0.00523196
0.0106382
0.00322331
0.00452142
0.00559381
0.00235509
0.00945204
0.00539322
0.0215588
0.00795257
0.00449567
0.0365808
0.0062118
0.00393767
0.00510481
0.00329759
0.00261504
0.0363313
0.00315348
0.0127219
0.0027136
0.0149699
0.00283532
0.00584826
0.0110763
0.00649303
0.0370214
0.00614778
0.0238163
0.0265339
0.00426975
0.0337653
0.00291687
0.00347076
0.00265741
0.0230962
0.00977237
0.0383724
0.00533466
0.027498
0.0104982
0.00359697
0.00297618
0.00268574
0.00411247
0.00372676
0.00273539
0.00383642
0.00354163
0.00378435
0.0233846
0.0100541
0.00245869
0.00246067
0.0188551
0.00411035
0.00318838
0.00274451
0.0367605
0.00514709
0.036472
0.00251507
0.0309105
0.026987
0.0074105
0.0054057
0.00482956
0.00726606
0.0286519
0.0032579
0.0293207
0.029202
0.0038476
0.0222612
0.012739
0.00567436
0.00347015
0.0392954
0.0188071
0.0297563
0.00299608
0.00332013
0.0172852
0.00356312
0.0111989
0.0178976
0.00508628
0.0259596
0.00500102
0.00393341
0.00282933
0.00316745
0.00277673
0.00244988
0.00667195
0.00225771
0.00389277
0.00307716
0.00862952
0.0102047
0.00240716
0.0138925
0.00382924
0.00412168
0.00367894
0.00435939
0.00240852
0.00483246
0.0260042
0.0034104
0.0024281
0.018934
0.00664946
0.00261142
0.106
0.00354385
0.00308383
0.0108491
0.00594873
0.0217013
0.00769091
0.0026563
0.00385715
0.010584
0.0219112
0.0186363
0.00597123
0.0248882
0.0308749
0.0318647
0.00479623
0.00266743
0.00233193
0.00519369
0.00417752
0.0046931
0.0179626
0.00839555
0.00256833
0.00234008
0.00243574
0.00236619
0.0338078
0.0495658
0.0428264
0.0161881
0.00397447
0.00294706
0.00260973
0.0119475
0.00388806
0.00300811
0.0393912
0.00262038
0.00340399
0.00268804
0.00290027
0.0152319
0.0209397
0.0068731
0.0220053
0.00327387
0.00436777
0.0100281
0.00386166
0.0108259
0.0174875
0.009569
0.0026833
0.0122828
0.00601626
0.00284022
0.0192308
0.0253393
0.0032514
0.00273927
0.019986
0.0262469
0.0112756
0.0370844
0.00261668
0.00702746
0.0205996
0.00246207
0.00259072
0.00278034
0.00594837
0.00318718
0.00368133
0.00346
0.00446871
0.0121564
0.00432158
0.0164407
0.0142127
0.0213002
0.00263454
0.00742252
0.00338333
0.00491704
0.0109616
0.00921694
0.0395278
0.00930256
0.0403107
0.0111764
0.00453194
0.00364153
0.00272892
0.00356423
0.028388
0.0230257
0.00340546
0.0139369
0.017018
0.0059363
0.0241363
0.00266679
0.00441565
0.00326407
0.00724519
0.003249
0.00676147
0.00368936
0.026728
0.00293157
0.0288168
0.0299444
0.0173366
0.00518995
0.00682042
0.00263639
0.0295053
0.00715035
0.00385229
0.00937824
0.0132288
0.0118381
0.0261342
0.0188178
0.0252884
0.0171209
0.00226541
0.0215507
0.00377427
0.0185986
0.0421138
0.0107933
0.0243981
0.0505132
0.0380137
0.00479113
0.00747484
0.00310287
0.017204
0.00261198
0.027647
0.00777848
0.0189722
0.00393917
0.00324705
0.0422994
0.00536359
0.00362929
0.00366638
0.00526841
0.00560031
0.00319771
0.00350009
0.00313965
0.00464563
0.0268337
0.0116505
0.0224192
0.00366065
0.034793
0.0118614
0.00387136
0.0151729
0.00847224
0.0418739
0.00768141
0.00908969
0.0026398
0.00612366
0.00309437
0.00484092
0.00296293
0.00512725
0.00232121
0.0206765
0.0215791
0.00367029
0.00340002
0.00496493
0.00387902
0.00328285
0.00420213
0.00411695
0.0290508
0.00387295
0.0025619
0.028753
0.00614244
0.0289732
0.00561994
0.0164457
0.0235712
0.00350958
0.0256121
0.0277049
0.0381707
0.0317898
0.0278868
0.00285478
0.00994396
0.00261847
0.00539389
0.0184735
0.00331847
0.00269663
0.00317282
0.0392264
0.00430938
0.00810451
0.00748929
0.0036883
0.0315484
0.0301149
0.00429255
0.0270734
0.00275255
0.0226024
0.00640038
0.0163291
0.00246879
0.00248827
0.00336008
0.0246565
0.0382116
0.0271914
0.0037968
0.0190957
0.0502635
0.00743469
0.0108065
0.0312477
0.0100666
0.0187475
0.00572417
0.00411509
0.00266868
0.00395805
0.0954901
0.00839715
0.0374028
0.00258584
0.00381842
0.00644387
0.00348533
0.0112414
0.00804527
0.0380252
0.00430909
0.00951783
0.00262504
0.00286276
0.0194218
0.0458244
0.00286227
0.00334482
0.0028201
0.016931
0.00492469
0.0376734
0.0262806
0.0234378
0.00292128
0.0314008
0.00782453
0.0433562
0.0221972
0.00442821
0.0217388
0.0278157
0.0286078
0.00413656
0.00382055
0.00298482
0.0208559
0.00555383
0.00279863
0.00675246
0.00689646
0.00412382
0.00280411
0.00287015
0.0373134
0.00386323
0.0135326
0.0162454
0.0232466
0.00270727
0.00285912
0.0100878
0.00425593
0.0457611
0.00763157
0.00591141
0.0416731
0.00327966
0.00324793
0.00421419
0.0193158
0.00269372
0.0209873
0.0025171
0.0190728
0.0391541
0.00279756
0.0030701
0.0171712
0.00423274
0.00310569
0.00280921
0.00266361
0.0195514
0.0304694
0.00295338
0.0041862
0.00430203
0.00348535
0.0215051
0.00503242
0.0197965
0.016893
0.00337625
0.0030223
0.00967859
0.00400931
0.00683473
0.0262904
0.0655714
0.00273097
0.00352448
0.0215328
0.0321528
0.012218
0.00417388
0.00450325
0.0390762
0.0113482
0.00348364
0.00282536
0.0033975
0.00403841
0.00770876
0.00250873
0.00386866
0.00304334
0.0116693
0.0289259
0.0383598
0.00669812
0.00866201
0.00402754
0.00356712
0.00285754
0.0031394
0.00266067
0.0032607
0.00353678
0.00288603
0.00941892
0.00344742
0.00349083
0.0104796
0.00338986
0.0104751
0.029308
0.00654508
0.00498746
0.00534795
0.00613278
0.0053432
0.0110466
0.0212233
0.00418599
0.00369081
0.00437115
0.00696619
0.0337287
0.00695486
0.0091591
0.0373494
0.00467259
0.0298554
0.00667769
0.00383407
0.0044474
0.0051265
0.00804779
0.0261648
0.0344293
0.0660654
0.0029244
0.0219663
0.00346867
0.00328367
0.0235613
0.00260604
0.0102224
0.00261979
0.00685692
0.00652726
0.0144277
0.00234971
0.00275844
0.0450476
0.00332409
0.026451
0.0464885
0.00501397
0.0173424
0.00294535
0.00313277
0.0028104
0.00906278
0.0127446
0.0043276
0.00317379
0.00435991
0.0202116
0.0341252
0.00676728
0.00372981
0.00758954
0.00279803
0.0125831
0.0101271
0.00329785
0.00303295
0.00311699
0.0110405
0.00832853
0.0119552
0.0054764
0.00432021
0.0078097
0.00906035
0.0268223
0.00402407
0.00443725
0.00351639
0.00316425
0.00425256
0.0026308
0.0256555
0.00638362
0.0139089
0.0204434
0.003552
0.0137099
0.00246983
0.00288196
0.00428438
0.0377801
0.00964805
0.00418139
0.00276177
0.0186524
0.00338356
0.0134734
0.00557707
0.012916
0.00792511
0.00373367
0.00314027
0.0470296
0.0048979
0.00300776
0.00340926
0.0106614
0.00392245
0.00357845
0.132288
0.00242454
0.0233282
0.00426057
0.00289867
0.00321307
0.00709775
0.0105361
0.0144122
0.0184491
0.0269999
0.00290489
0.00291028
0.0884266
0.0254963
0.00426404
0.00466238
0.020467
0.00894823
0.00454772
0.00493315
0.0043786
0.0409113
0.00357821
0.0203788
0.0235589
0.00308224
0.0200704
0.0121162
0.0348397
0.0228156
0.0124706
0.0204269
0.00638967
0.0194514
0.00749605
0.0288301
0.0365187
0.00636011
0.0300812
0.0181965
0.00441825
0.0322036
0.00416036
0.0194224
0.0158688
0.0214724
0.00264798
0.0310175
0.0289769
0.00539153
0.00408367
0.00608038
0.0224615
0.00514507
0.0119858
0.00616471
0.0165258
0.00966282
0.0024903
0.0101315
0.00269186
0.00484307
0.00535283
0.00284459
0.0481923
0.00601721
0.00705534
0.00367764
0.0326331
0.00697494
0.0482018
0.00993576
0.0102087
0.00306908
0.00358879
0.00767069
0.00398066
0.0206736
0.00285322
0.00325667
0.012977
0.00239187
0.0163638
0.00347141
0.00530206
0.0181754
0.0150011
0.0163228
0.00283498
0.00419669
0.0177216
0.00542928
0.00671075
0.0412642
0.00330853
0.0376315
0.023336
0.00783177
0.00391175
0.00480551
0.0200246
0.00291829
0.00337974
0.00970388
0.0193115
0.0119392
0.0295944
0.00425063
0.0112272
0.0053748
0.0109222
0.00281414
0.00462584
0.0265368
0.00525461
0.0027946
0.0108471
0.0483163
0.0162927
0.00440118
0.0202616
0.0116874
0.018571
0.00467186
0.0114865
0.0217918
0.0212523
0.00263124
0.0366455
0.00381746
0.0318413
0.00289427
0.00965382
0.00367218
0.0277297
0.0044607
0.00265579
0.00372599
0.00283794
0.00985914
0.0420832
0.0416116
0.0312707
0.0481244
0.00386015
0.0273731
0.00263089
0.00400519
0.00610049
0.00330472
0.0350584
0.0181497
0.0205603
0.00397825
0.0307041
0.00406964
0.0101342
0.00478454
0.0180158
0.0273749
0.0316958
0.00369592
0.020074
0.0030318
0.00607576
0.0061597
0.0202699
0.0209453
0.00677425
0.00944039
0.0231825
0.00292774
0.00367283
0.0130253
0.0101503
0.00452374
0.00335273
0.00358693
0.00272304
0.0029636
0.00910832
0.0125209
0.00306886
0.0487956
0.0314593
0.0058386
0.00372518
0.00252224
0.0325498
0.0225374
0.00240198
0.00994098
0.00236695
0.0256594
0.0024668
0.00263416
0.00366789
0.0182576
0.012431
0.0344147
0.0380613
0.00684716
0.0405665
0.00582469
0.0142381
0.00597652
0.00527946
0.00321811
0.0350085
0.0542684
0.00297069
0.00571486
0.0279141
0.0032572
0.00365397
0.0286373
0.0396317
0.043114
0.0236513
0.0141638
0.0386992
0.0115817
0.00272797
0.0276675
0.0449962
0.00649977
0.00369511
0.0029775
0.00427006
0.0100378
0.0514678
0.00267834
0.0256622
0.00312528
0.0223427
0.0090451
0.00607483
0.00896807
0.0073842
0.029393
0.00287127
0.0102542
0.00257464
0.0366473
0.00671582
0.0208758
0.00923468
0.0156398
0.0337639
0.00800331
0.00813573
0.00690193
0.013917
0.00406221
0.0218928
0.0281247
0.0219408
0.00551445
0.0076524
0.00564181
0.0283275
0.00765188
0.037329
0.0513926
0.00470404
0.0026948
0.0206566
0.0266398
0.0110578
0.00299117
0.00675943
0.00355369
0.00625521
0.00493519
0.0037569
0.0043255
0.00253961
0.0201216
0.0394456
0.0060361
0.00274547
0.0027665
0.010829
0.0468901
0.0103234
0.00306988
0.0193228
0.0093977