/*--------------------------------*- C++ -*----------------------------------*\
| =========                 |                                                 |
| \\      /  F ield         | OpenFOAM: The Open Source CFD Toolbox           |
|  \\    /   O peration     | Version:  2406                                  |
|   \\  /    A nd           | Website:  www.openfoam.com                      |
|    \\/     M anipulation  |                                                 |
\*---------------------------------------------------------------------------*/
FoamFile
{
    version     2.0;
    format      ascii;
    arch        "LSB;label=32;scalar=64";
    class       volScalarField;
    location    "56";
    object      k;
}
// * * * * * * * * * * * * * * * * * * * * * * * * * * * * * * * * * * * * * //

dimensions      [0 2 -2 0 0 0 0];

internalField   nonuniform List<scalar> 
59516
(
0.000336668
0.000703628
2.89074e-05
0.000112341
0.007534
0.0173738
3.9382e-05
0.000344593
0.000104446
0.00278483
0.00336712
0.00259253
0.000137983
0.00702666
0.00230999
0.00245458
0.000509763
0.00419794
0.000844581
6.61951e-05
0.00446897
1.92976e-06
6.66445e-05
0.00397079
2.09796e-07
0.00197881
0.00386246
0.00554886
0.00284212
0.00568771
0.0070266
0.00517904
3.98651e-06
0.000218505
0.000739801
5.14635e-06
0.00553374
0.00421225
0.00110807
3.48632e-06
0.000303634
0.00260757
0.000646341
0.000513989
0.000194117
0.0024987
0.000387874
0.00141542
0.00759061
0.00143495
0.00901525
0.00345067
2.88277e-05
2.77573e-05
0.00403613
0.000346244
0.0032772
0.00371911
9.4263e-05
0.00104271
2.21145e-05
0.00527777
0.000103822
0.000466894
0.000183382
0.000371168
0.00654897
0.00346309
0.00615395
6.81943e-05
0.00510033
0.000107429
0.00562626
2.23866e-05
0.000279785
0.000545314
0.00109674
1.07922e-05
0.0032772
0.00129959
0.00377422
0.000804535
0.000529142
0.00560978
0.000885768
0.000274585
0.0038597
3.18187e-06
0.00235729
0.00236932
0.00531472
4.51679e-05
8.60486e-05
3.48567e-05
9.296e-05
0.00778177
3.12522e-05
0.00240908
0.00326999
1.53355e-05
0.00386415
0.00559861
0.00547227
0.0023458
7.92718e-06
6.06778e-05
0.00389377
0.000161044
0.000441995
0.00212733
0.00464096
0.00454419
0.00232844
0.00452748
3.0739e-05
0.000402467
0.00230428
2.68207e-05
0.00520662
1.02827e-05
0.000405078
0.000154808
4.53824e-06
0.000127659
0.00396247
0.00134901
0.0059139
0.00240596
0.0105236
0.000233823
0.00029743
0.00018923
0.00527533
5.38247e-07
0.000564003
4.19504e-05
0.00443085
4.17819e-07
0.00367797
0.000759263
0.00337864
0.000165879
0.00556171
1.63277e-05
0.000300458
4.06368e-06
0.000269176
0.000203453
0.0198316
0.000254134
0.000666128
0.00367642
2.05403e-05
6.60265e-06
0.000721032
0.00594512
0.000173491
8.53876e-05
0.000968215
0.00562165
0.00216013
0.00203413
0.00398767
0.0066429
0.000409468
0.000106888
0.00217505
0.000206548
0.00550388
0.000102696
0.000907641
0.00254477
0.00164644
1.02814e-06
0.0030591
0.000513768
0.000101373
0.000888246
0.00202239
0.00355699
1.67304e-06
0.00431789
0.00670038
0.00193378
0.000189084
0.00230746
0.00357532
0.00564376
4.99725e-05
0.000530249
9.25087e-05
0.00252386
6.06662e-05
0.00193138
1.44595e-06
0.00400583
0.00230188
0.00342421
0.000398691
2.602e-06
0.00130647
0.000284983
0.000379993
0.00559005
1.12253e-05
5.57521e-06
0.000298615
9.67304e-05
0.00587256
0.000271532
0.00287866
0.00736596
7.5074e-06
0.00252366
0.000145754
7.95749e-05
6.1393e-06
7.08654e-07
0.00254149
6.75915e-06
0.00259896
0.000622199
8.18993e-05
0.00378739
0.00011956
0.000142233
0.0047596
0.00328277
0.000131535
0.00245691
6.69053e-05
0.000154089
0.00036204
0.00495438
0.0039557
0.00350594
0.00202914
0.000241711
3.40752e-05
0.00272401
0.000330196
0.005738
0.00230778
0.00574736
0.000311671
0.000661624
3.424e-05
0.00214283
3.55176e-05
0.000277048
5.4455e-06
2.622e-05
0.000418452
2.42056e-05
1.37567e-05
2.26148e-05
0.00269376
2.2611e-05
0.00334113
0.00224947
1.36329e-05
4.33079e-05
0.000251633
0.000126009
0.000330652
0.0022605
5.98365e-05
0.000723663
0.0034343
0.00241949
0.000846288
0.000138108
0.000431312
0.000758196
4.38371e-05
0.000676975
0.0049643
1.91314e-05
0.00486472
0.003449
0.000330942
6.01986e-06
0.00538503
0.000118004
2.59453e-05
0.000375007
0.000262586
0.00556333
0.000362268
0.000600334
0.000164903
1.41946e-05
3.07368e-05
0.000623141
5.60358e-05
0.00458849
6.82632e-05
7.10503e-07
0.000429224
0.000184502
3.39068e-05
0.00214896
0.00533345
0.00424239
2.80185e-06
0.00566665
0.00249057
0.00281393
7.81008e-05
8.73919e-05
2.63326e-07
0.00216186
0.000414087
0.00389411
0.00284317
8.2118e-05
0.000575684
0.00821555
0.000872222
0.0034803
0.0023014
0.000372873
0.0001949
0.00032861
0.000490592
1.17725e-05
0.00163765
4.33249e-05
0.00010452
3.59773e-05
9.11512e-06
0.00226161
0.00547691
1.30492e-05
0.00320348
0.00384563
4.37702e-05
8.87062e-07
0.00293224
0.000158334
1.39043e-05
0.000299302
0.000150065
0.00359732
5.69759e-06
0.000303123
0.00243674
0.000319584
0.000235806
4.41674e-05
8.31052e-05
2.41785e-05
3.35441e-07
0.00136839
0.00413587
0.00374277
0.000654433
0.00602384
0.0111181
0.00100787
0.000249048
6.30861e-05
0.00265496
4.5787e-06
4.90791e-06
7.79765e-06
2.05929e-05
0.00394231
0.00681965
0.00258784
0.0034484
0.00368747
5.31078e-05
0.000713924
3.3315e-05
0.00525909
2.24157e-05
0.00366154
0.000118141
0.00248504
0.00212297
0.000169652
0.00362682
0.00571663
0.00240981
1.01676e-05
0.00512975
0.00114745
0.000171685
1.33859e-06
0.000815907
0.00078603
3.33578e-05
0.00647984
0.000308303
0.0035164
0.00221902
0.00222079
0.000226182
0.000171089
0.00233051
7.40294e-06
0.000463599
0.00025568
0.000223183
0.00321855
5.79807e-05
6.58873e-06
2.48548e-06
6.87981e-06
0.00548253
0.0053284
9.01933e-06
0.000153582
0.000337383
0.00378662
0.000123492
0.000243742
0.000262841
0.000203546
0.000304115
0.00015461
0.000126658
0.000513705
0.000271587
0.00215659
9.65613e-05
0.000336591
2.26685e-05
0.000221179
1.3316e-06
2.44873e-05
0.00335688
0.00398186
0.00528357
0.0024298
0.00028103
1.87914e-05
3.06473e-05
0.00377455
0.0056366
0.000143655
2.83791e-05
0.000199407
5.45512e-06
2.95181e-06
0.000440804
1.97473e-06
0.0049848
6.84403e-05
0.0022263
0.0118147
6.74954e-05
0.000698916
1.14414e-05
0.0056896
0.000230298
0.000353259
0.00026523
0.000592559
2.73411e-05
0.000167313
0.000157476
0.000394805
0.00111866
0.000122303
1.20205e-06
0.00525764
0.000232479
0.000103037
0.00324056
0.000466982
7.41523e-05
2.21805e-05
0.00104094
0.00530762
0.00010563
9.82424e-06
3.35188e-05
2.27142e-05
0.00344863
1.23371e-05
0.00704309
9.80399e-05
0.00951588
0.000139519
0.00326275
0.000220047
0.000407407
0.00329196
0.000417966
0.000284011
0.00586824
7.33026e-05
0.000514567
0.00385496
0.00213115
0.00220426
3.47804e-05
0.000365542
0.00976184
0.0023367
0.00226351
7.45793e-05
0.000396245
0.00523271
5.53509e-06
5.86136e-05
0.00022403
0.0136548
4.31206e-05
0.00491442
6.26824e-05
0.00564025
0.00217938
3.56949e-06
0.00216905
0.00546793
0.00397054
0.00299494
0.00244605
2.50257e-07
0.0025706
0.00203295
0.00475273
0.000204555
0.00484107
0.000234638
0.00624086
0.00013762
0.00256222
0.000197468
0.00263342
5.86162e-05
0.000269016
0.00280605
7.93708e-05
0.00619529
0.00578321
9.37565e-07
0.000300894
1.48178e-05
3.97091e-05
0.000258582
0.00248206
7.11565e-05
0.00219404
0.000210982
6.60692e-05
0.00484603
3.74912e-06
0.00327826
0.00487132
1.7189e-06
0.00338557
2.73136e-05
0.00037076
4.56991e-05
0.00224884
0.000197754
0.000869454
0.000286681
7.85158e-05
0.000281947
0.000304615
0.0033261
0.00257018
0.000178681
1.16898e-05
0.00421864
6.24776e-05
0.000157412
0.000126996
0.000255152
6.74271e-05
0.00553558
0.000100493
0.000576935
3.52023e-05
0.000411135
0.00471344
0.000427618
0.000810674
4.12059e-07
0.000373965
4.91017e-06
0.00537635
0.00523697
0.000302043
8.70628e-05
0.000448815
0.000109732
0.000775946
1.19647e-05
0.000192203
0.00492669
0.000386768
0.00307903
0.00383689
0.00207557
1.20744e-06
3.63626e-06
4.60999e-06
2.3522e-05
0.000350969
0.00049647
0.000790712
0.000124114
0.000131188
0.000132785
0.00022117
0.00375579
4.69856e-05
0.00404246
0.0101765
0.00208699
0.00543501
9.17887e-06
0.0045893
0.000237129
6.32184e-05
4.61063e-06
0.000134677
0.00378272
0.00959727
0.00728896
0.000325575
8.62142e-05
0.00288318
0.00249289
0.000175826
0.00348125
0.00216201
0.00446546
0.00584741
0.00522638
0.00129944
4.49703e-05
0.00599324
0.00545244
0.00051503
0.00807927
0.0038757
3.88069e-06
0.00013207
8.03557e-06
0.00397888
0.00244014
0.000104294
0.000151646
2.03968e-05
0.00392802
0.00492699
0.0100841
0.00542095
1.53105e-05
0.00505812
0.000458405
0.000257073
2.65228e-05
0.00334969
0.000459971
0.00368446
0.00544451
0.00022967
0.00548484
8.54617e-05
0.0033107
1.59612e-05
3.35415e-06
0.00546607
0.00240714
2.49754e-06
0.0036526
8.76445e-05
0.00263875
0.000272145
0.000319908
0.00374705
0.00535427
0.00323434
0.00782863
0.000292155
0.00253258
0.000809022
0.00414127
0.00035595
0.00482485
3.21035e-05
2.28834e-08
9.06754e-05
0.0056796
1.70487e-06
0.000864326
2.48049e-05
0.00274503
0.00836775
3.05659e-06
0.00345239
0.000449556
0.00801194
2.6148e-05
0.00401095
0.00321077
0.000313716
1.63728e-05
0.00382665
0.000130551
0.00223722
0.00518514
0.000212562
0.00908454
1.59539e-06
0.000134068
0.000210144
0.000104547
3.87121e-06
0.00318461
0.00359124
0.000231911
0.0085019
6.10936e-05
2.88187e-05
0.00117574
2.39923e-06
7.91887e-05
0.000544682
0.000287211
0.00461841
0.00181153
0.00411745
1.12289e-05
0.000169836
0.000693329
0.000395097
0.00550702
0.00106656
0.00259425
0.000144242
0.000240383
0.00886846
5.70242e-05
0.000887277
0.0095521
3.96043e-05
0.00586181
0.000240189
0.00266935
4.14696e-06
0.00569574
4.66777e-05
0.00949686
1.51603e-05
9.72364e-05
1.57434e-05
4.46822e-06
0.000273799
0.00369454
0.00329093
0.00398943
0.000288832
3.69e-05
3.03302e-05
2.46942e-06
0.0062247
0.000792279
0.00082798
0.00021828
2.66643e-05
2.91899e-05
0.000636018
0.00035929
0.00539757
0.000765645
6.17474e-05
0.00477576
0.0031561
0.00207014
0.00534173
0.000979906
6.60454e-05
0.0021535
0.00552017
0.000298506
0.00452748
0.000294557
0.000203457
0.000437336
0.000198031
5.06542e-06
0.000255535
5.34448e-05
0.00376737
0.000178083
8.7656e-06
0.000838408
0.000772103
8.23914e-05
9.91575e-05
0.0017853
1.08095e-06
0.00378691
0.000789766
0.000539257
0.00225399
7.24422e-06
0.00727936
0.0018248
0.0038737
0.00561812
0.00215193
0.00548232
2.56904e-05
2.58406e-05
2.82553e-05
0.00348301
1.76184e-05
2.06558e-05
0.0056948
4.43354e-05
0.00560088
0.0032695
0.00552898
7.3073e-05
0.000220769
0.00506715
2.70952e-05
0.00541634
0.000156601
3.49338e-05
8.14491e-05
3.04331e-06
0.000288728
0.00049987
0.000274719
0.00601935
0.00388265
0.000403895
0.000440755
0.00564974
4.72181e-06
0.0042836
0.000166242
0.000169011
0.00116184
3.3862e-05
0.000521924
0.000813244
0.00335991
0.000127496
0.000387297
0.00383908
6.59126e-05
0.00035454
1.11008e-06
0.00057677
6.9018e-06
0.000249342
0.000900007
0.000337665
0.000590721
2.95346e-06
0.00206266
0.00013496
0.000287438
0.00878659
1.55139e-07
0.000317209
0.000113897
0.00394993
0.0028906
6.24534e-05
5.57261e-06
5.75178e-06
0.000453752
6.64335e-06
0.000389358
0.000250537
0.0173185
0.000241463
0.000250941
0.00535383
2.83991e-06
3.66777e-05
0.00428532
2.6252e-05
0.000300158
0.000380829
0.00025563
0.000442696
0.000198683
0.00218281
0.00922015
0.00380045
0.000150011
0.000220237
0.00521326
0.0035688
0.00234331
0.000128107
0.00322816
2.85895e-05
0.000185798
0.000114868
8.74008e-06
0.000952464
0.00312805
3.20261e-05
4.73197e-05
0.000129586
0.000946307
7.71105e-06
0.000426933
0.000284306
0.00406541
7.49307e-05
0.000682113
0.00107361
0.00406368
0.00231907
0.000649133
0.000229017
0.00295031
9.93614e-05
4.10455e-05
0.000142848
0.000244866
5.82297e-05
0.00018541
0.000219119
0.000318107
0.00866071
3.08429e-06
0.000145458
0.00400545
0.00257787
9.77783e-05
6.61524e-06
0.00401259
9.32569e-05
0.000262427
0.000623885
0.000600776
0.000427679
9.31097e-06
0.000635516
0.000336726
0.0151073
0.000575253
0.000389073
0.00741525
0.000382895
0.00370927
0.000872234
0.00016028
0.00184527
0.00360491
0.0002033
9.53744e-05
1.80767e-07
0.00361783
0.000334241
0.00369264
0.000724166
0.00192052
0.00198909
0.000575363
0.000489666
0.00221347
2.64979e-05
0.000115156
0.000231758
0.000438211
0.00049381
0.000107201
0.000331927
0.000210866
0.0020975
0.000428621
0.00309086
0.00394156
0.000135211
0.00180582
0.00470595
0.000335122
0.000279665
0.000842346
0.00284306
0.00596248
7.17725e-05
0.000384357
0.000107515
0.00549704
0.00366704
0.000586949
0.00316581
2.65162e-05
7.37477e-05
0.000469014
0.00545213
0.000138737
6.39355e-05
0.00218104
0.000582482
0.000373879
0.00264107
8.746e-05
0.000317379
0.000186281
3.66241e-05
0.00388236
0.000106211
7.87844e-05
0.000177458
0.00188341
8.5803e-05
0.000716116
0.000171217
0.00530805
0.000171119
0.000784363
0.00360013
3.44429e-05
0.00379799
2.4748e-05
0.000312166
0.0002066
0.00774258
0.000314802
0.000699138
0.00222939
0.000597732
2.31607e-05
0.00521514
5.60417e-05
9.58916e-06
0.00233614
0.00653914
0.0035229
0.000306054
1.07886e-06
0.000197539
0.000727694
0.00229592
1.71208e-05
0.00392467
0.000270288
0.000392105
0.000960174
0.00252147
1.6416e-06
0.00575143
0.000860212
3.74137e-06
0.000409281
0.00463613
2.55814e-05
2.6432e-05
0.00429332
4.58768e-05
7.27596e-05
0.00014262
0.000681835
0.000485437
0.0043703
8.98824e-05
6.43808e-07
0.00567828
0.00363587
0.00316606
9.64777e-05
0.000774889
7.60252e-05
0.00244397
9.67766e-05
0.0047623
4.29111e-06
0.00149012
4.86541e-05
0.000313299
1.72401e-07
9.06344e-06
0.00413317
0.00394294
1.49792e-05
7.86657e-06
0.00521193
0.00528366
0.000103066
3.06284e-07
4.85489e-05
0.000341127
6.5885e-06
4.58003e-06
0.000153981
0.00228248
0.00117647
0.00210589
5.01447e-06
0.000945945
0.00397916
0.00523225
0.000100836
0.000187239
0.000394793
9.0805e-05
4.87641e-05
0.00392851
7.61316e-05
0.000234611
0.0038507
0.00565913
0.000196506
0.000166864
0.00445337
0.00580915
0.000133415
0.000492156
0.00570956
0.00122283
0.000137382
6.93037e-05
0.000206345
1.20448e-05
6.17213e-06
0.00514581
0.00348135
0.00028971
7.54485e-05
0.00026972
4.38019e-05
0.00240153
0.00244429
0.00329193
0.00076026
0.00627633
1.18371e-06
6.4033e-07
0.000621938
0.00243044
0.00571419
0.000375941
0.000157358
3.07729e-05
0.000243822
0.00034318
3.68524e-07
0.00366802
0.00270204
0.0173297
0.000277163
4.71675e-06
0.000288244
0.00229387
0.00090222
5.69682e-05
4.94031e-07
0.000717209
1.28779e-06
6.41884e-05
0.00034116
0.00244564
0.00553709
0.000102173
0.00409697
0.000109933
4.95167e-05
0.000851201
0.00522081
1.41174e-05
0.0020177
0.00547823
0.00541403
3.10584e-05
0.00026507
6.84565e-05
8.26466e-05
0.000901804
0.000279946
0.00559781
0.0036644
0.00379066
0.000321012
0.000362125
1.45281e-05
0.000271541
0.000196125
3.58733e-05
0.00614703
7.52152e-05
0.00522695
3.10931e-05
0.000262241
0.00491842
0.000213948
0.000444295
1.30704e-05
0.000648568
0.0020606
0.00407469
4.79522e-06
0.00362209
0.00048169
0.000613336
9.73139e-05
0.00155262
0.00408133
0.00266941
0.00371153
0.000157257
0.000134498
0.000205206
0.00277925
7.79872e-05
0.000113028
4.32822e-05
3.62952e-05
0.00425147
0.00358296
8.2537e-05
0.000195743
0.00226096
0.000372229
7.6265e-05
3.02686e-05
0.000598571
0.00529037
0.0123486
0.00258611
1.75584e-05
8.0519e-05
0.000215567
0.00518417
0.00367433
1.36244e-06
0.000143154
0.00219783
0.000288069
2.32068e-05
5.21682e-05
9.77691e-05
0.00024779
2.24507e-05
2.83698e-05
0.000384282
0.000150684
0.000125546
0.00100214
0.00189537
0.000302092
3.1006e-05
0.00396197
0.00233655
3.52965e-05
0.00299156
2.68617e-07
0.000442829
3.17912e-05
1.65515e-05
0.000107386
0.000107005
9.1085e-05
1.64749e-05
0.00307159
0.0048499
0.000482662
0.000290408
0.00544664
0.000849229
0.000117459
0.000135812
5.69557e-06
0.00588284
0.000298451
2.1044e-05
0.000933484
8.95182e-05
0.000128556
0.0058165
5.50135e-05
0.00534014
0.000548795
0.00570376
2.43904e-05
2.88695e-07
9.65246e-05
0.00552906
0.00259983
0.000703081
1.573e-07
0.00241147
0.00253456
0.000623741
0.000264097
0.00394344
0.000240332
3.45251e-07
0.00213092
0.00214192
0.00458956
1.41471e-05
0.000187939
9.92455e-08
5.11688e-05
0.000442527
0.000450731
0.000485858
0.00493288
0.00393662
0.00482893
0.000869785
0.000389027
0.00370804
0.00544149
0.00237764
0.0056229
4.47335e-05
0.00556503
0.000109352
0.000441943
1.44237e-05
0.00214539
0.000377715
0.00369671
0.00238296
0.000379098
5.77814e-05
8.59934e-05
0.00924005
9.96407e-05
0.00546024
4.66599e-05
4.02777e-06
0.000269123
0.000821161
1.3289e-05
0.000113114
0.000609841
0.00286644
0.00408213
0.000309997
0.000304898
0.00400623
0.000841944
2.21888e-06
0.00379503
0.0051146
0.000412958
0.00410743
0.00218049
0.00562871
0.00233464
0.00384661
0.00532292
0.00380487
0.00595048
0.00029893
0.000853146
0.000243068
0.00546213
7.57508e-05
3.73626e-06
5.79099e-07
0.000212164
4.55841e-05
0.00380312
3.65191e-05
0.00910959
0.000791176
0.000432188
2.96309e-05
0.00557341
0.000173618
0.000749798
0.00560419
0.00386036
7.05505e-07
0.000550307
0.00499489
2.3289e-05
7.59466e-06
0.000256691
3.37372e-05
0.00341207
3.37543e-05
0.000889264
0.00302913
1.86812e-06
2.38138e-06
0.000162834
0.000636065
3.51953e-06
9.54065e-06
0.00363762
0.000359317
0.000352403
0.000109429
0.000820293
0.000483006
1.04392e-05
0.00632172
4.38431e-07
0.00683282
0.0127653
0.0026306
4.4597e-06
4.76342e-06
0.00423584
2.72146e-05
0.000223535
0.0010788
0.000119139
0.005963
0.00571932
0.00871333
0.00245877
0.00485182
3.20201e-06
0.00357978
0.000151744
0.00403576
0.00501885
0.000416427
0.00225946
0.000130394
2.25583e-05
0.000196823
0.00390688
0.00366528
2.82472e-05
4.27148e-05
0.00589398
1.84509e-05
0.00221755
0.000636229
0.000149305
2.68053e-05
0.000222202
0.00038225
0.000521163
0.000829197
0.00288998
0.00346327
0.00277425
0.00391932
0.000257644
7.30057e-05
0.00203144
0.00231513
0.000445927
8.41116e-07
6.20837e-06
0.00227712
7.26501e-06
0.00498344
0.00251374
2.29181e-06
0.00358303
0.000857845
0.000665681
9.64741e-05
0.000554994
4.30111e-05
0.00064699
0.000653237
4.97393e-05
0.000207124
4.23428e-05
0.00542534
0.00504285
0.000115045
0.000368652
1.18716e-05
0.000567005
0.000473857
0.00536236
3.64894e-05
2.15408e-05
3.21388e-05
0.00065529
0.00376386
0.00225677
0.00302766
5.14658e-05
0.00206291
0.000320876
0.00540588
2.87758e-05
0.00369712
0.000844309
0.000282349
0.00243288
2.09667e-06
4.14719e-05
0.00366743
0.00520878
0.000181393
0.00830203
5.43185e-05
9.66359e-05
0.000861317
1.47059e-05
0.00116939
0.000127485
0.005071
0.000322127
3.14088e-05
0.000376818
0.00552459
2.54953e-05
2.55366e-05
0.000863926
2.90304e-05
0.0037782
8.15222e-05
0.0048664
3.66399e-05
7.4843e-05
1.4946e-05
3.7859e-07
0.00355024
0.00545959
0.00171824
0.00016321
0.00355431
0.000237778
0.00371951
0.000112677
0.00240804
0.00545324
0.000404433
2.13918e-05
0.000797982
0.000271637
6.55517e-05
7.72564e-06
0.00404427
0.000422646
0.00511411
0.00187021
0.000287759
0.000400086
5.2297e-05
0.00611029
0.00338833
0.000720198
0.000624354
2.13464e-05
1.56967e-06
3.2321e-05
0.00600074
8.73188e-08
1.86042e-05
9.08398e-05
0.00268174
1.84015e-05
0.000218269
5.59877e-05
9.55097e-05
0.000765408
0.0022555
9.44757e-06
0.00343478
8.11686e-05
0.00067231
1.59548e-05
2.51353e-05
1.67098e-05
0.000254006
0.00373114
0.000333615
0.00245742
0.00531263
3.99268e-05
0.00350786
2.68168e-05
0.00544114
0.00339294
0.00246622
0.00116948
4.70157e-05
0.00355198
0.00512775
5.08958e-05
0.000887826
0.0001083
0.000357706
0.0052529
0.00080869
0.00375516
0.000205705
6.88244e-05
0.00221235
5.23795e-05
7.56285e-05
9.8703e-06
7.35365e-05
8.07891e-05
3.6005e-06
0.000134484
1.56055e-07
0.00443358
0.00580285
2.65702e-06
0.00624242
0.000110575
4.66122e-05
0.000895119
0.000318001
3.14563e-05
0.00380657
0.000451608
0.00241621
0.000658484
0.0031477
3.40511e-06
0.000391598
0.0012687
0.00035279
0.00349484
9.84815e-05
3.40725e-05
0.000810357
3.85256e-06
0.00561627
0.00527552
8.97345e-05
6.2325e-05
0.000116391
0.000413611
0.00633538
0.000445945
0.00194154
0.000349207
8.60257e-05
0.00387705
1.9815e-06
3.21506e-05
0.00388017
0.00459113
0.000396791
0.000682509
0.00543941
6.34452e-07
0.00350794
0.00572764
0.000842149
0.000172787
0.000413302
1.95321e-05
0.000158051
5.50196e-06
0.000282904
0.000182622
0.000248418
9.41985e-05
9.48338e-06
0.00544466
0.00375801
2.37e-05
0.00014281
0.00028462
0.0054784
0.00551473
4.50166e-07
0.00474248
1.41841e-05
9.02125e-05
0.000390701
0.00354819
0.0019802
0.000211013
0.000122868
1.98352e-05
2.44592e-06
0.00224882
0.00521585
0.000134724
0.00554828
0.00300933
0.00373267
0.00345625
4.43771e-05
0.000402997
3.09536e-06
0.000231438
0.00061073
0.000517751
6.63471e-05
5.78376e-05
0.00243772
0.000227073
8.11421e-05
7.90804e-05
0.00389298
0.000181006
0.0055971
0.000749837
0.00353971
2.66442e-05
9.06643e-07
0.00945295
0.00491261
0.000691638
0.00240644
0.00564501
1.68756e-06
0.00529339
0.00245791
0.000104714
5.61029e-05
0.000335869
0.00359333
0.000306483
0.00232534
0.000290325
5.81659e-05
5.87401e-05
0.000138709
0.00352555
1.16018e-06
4.75905e-05
0.000392079
2.53673e-05
4.88755e-05
2.73652e-05
0.000505017
0.00552424
0.00371961
0.000132727
0.000337812
1.56268e-06
0.00324592
0.000124648
0.00214282
1.31598e-05
1.39072e-06
0.000828253
0.00250526
0.00213357
0.00540188
1.22352e-05
3.69123e-08
0.00224858
9.3807e-05
0.00537018
1.30291e-05
0.000122655
0.00577587
0.000180351
9.06087e-05
3.0634e-05
0.00995942
0.00609484
0.00426499
0.00222058
0.00209988
0.00565721
0.00516691
0.00600338
0.000831015
0.000108686
4.17876e-05
9.23578e-05
0.000153243
0.00550258
1.66627e-05
3.82718e-05
0.00551144
0.00564653
0.0056357
0.000907067
0.00491824
2.03526e-05
0.00453415
0.000519378
0.000867263
0.00324812
0.000692273
2.47291e-05
0.000309586
3.9081e-07
2.79057e-05
0.000131701
0.00259433
0.000309562
8.3564e-06
0.000105438
0.00555529
0.00136403
0.000270565
1.51906e-05
0.000182748
0.000234149
0.00214113
0.00401153
0.00579015
0.000526985
0.000467043
0.000145001
7.18124e-05
0.00309719
0.000237715
0.00271437
0.000345291
7.66908e-05
0.00330894
0.00312787
0.000252132
8.10759e-06
2.2679e-05
3.13306e-05
0.000982506
0.00194125
1.34777e-07
0.00034473
5.79208e-05
7.99343e-06
8.47474e-06
0.000279274
0.000785788
9.19428e-07
0.00548159
0.00355175
0.00609506
0.000439084
0.000166147
0.000613621
0.00241873
4.20669e-06
0.00303846
0.00215359
0.00532301
6.8121e-05
7.04347e-05
4.73844e-05
0.00529057
0.00303451
0.00274608
0.00533292
0.00332202
7.94507e-05
0.000135577
0.00497241
0.00374871
0.00222372
0.000275601
0.000120655
2.72393e-06
0.000636425
8.36404e-06
3.95354e-07
0.000507014
0.00369925
0.000435716
9.28551e-06
9.47952e-07
6.53752e-05
5.8034e-07
3.73238e-05
0.00134713
0.000100199
0.00232737
0.00402148
3.05429e-05
9.41652e-05
0.00583268
0.000129933
0.0053158
2.58507e-06
4.24029e-06
5.12774e-05
7.2155e-05
0.00240767
0.00575435
0.00241041
0.000394964
0.000264924
0.00015032
4.1578e-05
0.00424691
0.000874426
2.88428e-05
0.000124997
0.000175571
0.00516512
0.00242662
0.000234848
4.2329e-05
0.000231279
0.0001296
3.90208e-05
1.01028e-06
5.3477e-07
0.000482876
9.93423e-05
0.000215878
5.55153e-06
0.000806444
0.00503356
0.00524122
0.000992107
0.000231761
5.68605e-05
9.30777e-05
0.00525799
0.00022131
3.99733e-07
5.12006e-05
0.000753273
1.3986e-05
1.83175e-07
9.71706e-06
0.000161857
0.000212501
2.54988e-06
0.00321651
0.000121218
3.96424e-06
0.00544085
5.24558e-05
1.6621e-05
6.37527e-06
8.1122e-07
9.33095e-05
0.00421612
7.48097e-05
0.000902164
0.000113909
0.00105651
3.55952e-05
4.83493e-06
0.00082893
2.0119e-05
0.0053959
1.88101e-05
0.00346309
0.00382934
4.62607e-07
0.00510091
0.000181127
4.5766e-05
7.7475e-05
0.00241595
0.000586175
0.00542764
3.20136e-06
0.00361619
0.000652414
4.16145e-06
1.81453e-06
8.21402e-05
7.46963e-06
1.37696e-05
0.000239312
1.4786e-05
1.64691e-05
1.61721e-05
0.00365263
0.000777372
0.000255409
0.000174914
0.002276
1.49867e-07
4.12316e-05
6.68235e-05
0.00528153
1.37918e-05
0.00553927
0.000235292
0.00509867
0.00348828
0.000277412
7.71855e-06
1.03608e-05
0.000194364
0.0045975
5.9753e-05
0.00516722
0.00478375
2.58962e-06
0.00265262
0.000691743
9.67806e-06
1.26191e-05
0.00544176
0.00223049
0.00386909
0.000185711
6.51217e-05
0.00201845
6.63187e-07
0.00077619
0.00223479
0.00124149
0.00489662
9.51652e-06
8.92922e-05
0.000126517
1.45171e-06
0.000158781
5.3578e-05
4.67383e-05
0.000208892
5.36176e-06
0.000264864
0.000422756
0.000755041
0.000107977
0.000945817
4.79061e-05
1.5636e-06
3.06833e-05
1.58045e-05
0.000144457
2.19607e-05
0.00375344
3.88553e-05
0.000154669
0.00203611
7.17719e-05
0.000339536
0.010387
2.08511e-05
0.000110381
0.000645676
2.93154e-05
0.00338602
0.000177248
4.28932e-05
3.09621e-05
0.000665948
0.00246489
0.00240581
2.24805e-05
0.00355686
0.00401663
0.0056874
7.92737e-07
2.86532e-05
0.00012941
7.19647e-06
4.79942e-07
1.16495e-06
0.00259129
0.000213709
9.73917e-05
9.66475e-05
0.000276978
0.000258902
0.0041683
0.00596887
0.00566489
0.00187836
5.55185e-05
0.000277996
0.000227488
0.000804245
3.21352e-05
6.47151e-05
0.0054916
0.000412382
0.000115024
0.00011681
0.000321322
0.00220856
0.00265641
4.36483e-05
0.00324312
2.63839e-05
2.60228e-06
0.000467982
1.51434e-05
0.000725863
0.00188772
0.000494095
0.000358782
0.000674253
6.15237e-05
0.000170497
0.00256593
0.00364328
0.000158352
0.000379733
0.00234968
0.0038878
0.00073149
0.00514908
9.81327e-05
0.000128319
0.00317719
0.000174451
0.000299115
1.17879e-05
2.87814e-05
7.62096e-05
9.96751e-06
6.80719e-05
2.66064e-05
0.000882959
2.54241e-05
0.00199924
0.00111018
0.00236331
0.000160702
0.000224571
0.00012052
1.71632e-05
0.000641488
0.00053713
0.0053332
0.000628629
0.00535672
0.000810994
8.20638e-06
6.56169e-07
5.67923e-05
2.50681e-06
0.0038284
0.00379251
8.42753e-05
0.000830306
0.0027254
7.52635e-05
0.00352546
4.54733e-05
1.31741e-06
7.58263e-06
9.43241e-05
9.27546e-05
0.000153103
4.59834e-05
0.00353269
0.000152894
0.00400818
0.00383245
0.0020736
1.43212e-06
0.000161807
0.000386782
0.00395008
0.003275
1.51084e-05
0.00050876
0.000809584
0.000799052
0.00365737
0.0029572
0.00367984
0.00207957
0.000109037
0.00251398
5.69255e-06
0.00205838
0.00501539
0.000626055
0.00332532
0.00621941
0.00548145
4.73509e-05
7.31417e-05
0.000156631
0.00212681
0.00040617
0.00418513
0.000194202
0.00196638
3.86483e-05
1.34599e-05
0.00583256
6.04426e-06
0.000101364
4.44722e-05
3.23784e-05
3.27562e-06
0.000147827
6.14626e-06
7.23892e-05
9.46845e-06
0.00531037
0.000777924
0.0024216
4.62083e-06
0.00423656
0.000914417
9.1357e-08
0.0013454
0.000230613
0.00528205
0.000111358
0.000271256
0.000165759
2.53591e-05
2.67112e-05
1.05143e-05
2.82587e-05
1.09474e-05
0.000168271
0.00235853
0.00242908
2.32331e-06
0.000117322
5.61801e-06
5.92471e-06
5.70422e-05
3.59928e-05
6.84666e-06
0.00384142
3.14403e-06
0.000255367
0.00423541
2.33655e-05
0.00434315
2.7927e-05
0.00198692
0.00348299
2.29351e-06
0.00341281
0.00499548
0.00528172
0.00401271
0.00362959
0.000122527
0.000577885
0.000248303
2.85206e-06
0.00226993
4.34791e-05
0.000296569
5.41183e-05
0.00553567
9.67913e-07
0.000246357
0.000113036
3.9511e-05
0.00500128
0.00374259
1.53053e-06
0.00522178
0.000214147
0.00362904
3.1368e-05
0.00180413
0.0003665
0.000304715
1.86435e-05
0.00362423
0.00521938
0.00373771
1.77921e-06
0.00216862
0.00533559
0.000160361
0.000777847
0.00506852
0.00054052
0.00441018
8.94603e-06
2.1422e-06
0.000172349
6.83742e-05
0.00930861
0.000253298
0.00402462
0.000185062
9.17652e-06
0.000164749
4.32228e-05
0.000709134
0.000237555
0.00443155
3.08613e-06
0.000344783
0.000313769
0.000319827
0.00228211
0.00551297
2.37094e-05
1.58553e-05
7.7565e-05
0.00189485
1.59039e-05
0.00585039
0.00525675
0.00351373
9.48998e-05
0.00413315
0.000138613
0.00561207
0.00349956
3.82208e-05
0.002343
0.00372308
0.00384158
2.02945e-07
9.89587e-06
0.00027733
0.00234145
6.81424e-06
3.50322e-06
0.000135955
9.86228e-05
2.98121e-05
9.02114e-05
0.00019261
0.00564508
2.28028e-05
0.00123125
0.00205866
0.00454791
9.40637e-05
5.79254e-05
0.000482604
6.74889e-06
0.00600661
0.000199326
8.07078e-06
0.00571226
1.26834e-06
6.80351e-05
1.14345e-05
0.00311661
8.85365e-05
0.00318341
0.000260621
0.00211669
0.00529487
0.000182964
1.64685e-05
0.00202533
5.61348e-07
4.43319e-05
2.73545e-05
0.000145852
0.00244361
0.00516154
7.64925e-05
3.52257e-06
5.08894e-06
3.70076e-05
0.00245847
9.29084e-07
0.00251533
0.00198267
1.93827e-06
0.000693395
0.000366861
2.54737e-05
0.000210493
0.00363938
0.00594005
0.000159282
3.97374e-05
0.00314965
0.00420799
0.000762796
1.92963e-05
1.15102e-05
0.00556507
0.000740747
2.40084e-05
3.75601e-05
1.32477e-05
5.18879e-07
0.000203245
0.000243047
2.85437e-07
2.93213e-05
0.000813515
0.00511459
0.00574942
3.90474e-05
0.000367743
6.02697e-06
2.25456e-05
5.76932e-05
1.27482e-05
0.000102181
1.88919e-05
4.09439e-06
5.57767e-05
0.000437714
1.17586e-05
4.4168e-05
0.000595191
6.78628e-05
0.000594821
0.00475412
3.60331e-05
6.41794e-06
2.83497e-06
2.26204e-05
1.46732e-05
0.000594419
0.00360123
7.12972e-07
4.06825e-05
2.14604e-06
3.2117e-05
0.00364562
0.00127909
0.000225376
0.00598166
2.01039e-05
0.00397603
0.000126355
6.47645e-07
8.31668e-08
1.88812e-06
0.000101144
0.0035652
0.0053741
0.00982926
0.000472134
0.00355783
5.72683e-06
5.46927e-05
0.0033832
0.000445903
0.000358051
0.000212263
6.78476e-05
7.71018e-05
0.00129398
0.000269537
5.6096e-05
0.0056607
7.79056e-05
0.00363956
0.00579941
4.14624e-05
0.00199236
3.23239e-05
1.98457e-05
0.000154403
0.000507601
0.000818327
6.54336e-06
1.49149e-06
4.81054e-06
0.00289926
0.00449537
0.000142909
3.49941e-05
0.000259089
0.000289486
0.000818395
0.000581592
6.96195e-06
1.90794e-05
2.11528e-05
0.000727753
0.00024635
0.000998712
3.69751e-06
2.84471e-06
0.000221963
0.000424279
0.00384466
1.47179e-06
6.56386e-06
4.92011e-06
0.00012385
1.50288e-06
0.000103202
0.00365637
3.16561e-05
0.00190791
0.00302525
4.37457e-06
0.000895788
0.000148477
5.77211e-05
1.81742e-06
0.00528259
0.000530944
1.64662e-05
4.22852e-05
0.00211099
5.52996e-05
0.00103083
9.10134e-06
0.00104231
0.000277074
9.64908e-08
5.03717e-06
0.00582986
5.10903e-06
1.31922e-06
2.89239e-05
0.00054771
6.85825e-06
1.06203e-05
0.0123951
0.000295692
0.00339114
8.30256e-08
9.90754e-05
3.25642e-05
0.000202266
0.000637452
0.00106345
0.00314387
0.00505554
4.12044e-05
2.03843e-05
0.00888909
0.00351819
1.2528e-06
1.57212e-05
0.00261886
0.000245227
4.08577e-07
7.00978e-08
3.0739e-07
0.00563068
1.1401e-06
0.00178296
0.00364227
2.16461e-05
0.00220605
0.000687995
0.00516129
0.00379168
0.000752403
0.0023801