/*--------------------------------*- C++ -*----------------------------------*\
| =========                 |                                                 |
| \\      /  F ield         | OpenFOAM: The Open Source CFD Toolbox           |
|  \\    /   O peration     | Version:  2406                                  |
|   \\  /    A nd           | Website:  www.openfoam.com                      |
|    \\/     M anipulation  |                                                 |
\*---------------------------------------------------------------------------*/
FoamFile
{
    version     2.0;
    format      ascii;
    arch        "LSB;label=32;scalar=64";
    class       volVectorField;
    location    "56";
    object      momentum:momentum;
}
// * * * * * * * * * * * * * * * * * * * * * * * * * * * * * * * * * * * * * //

dimensions      [1 1 -1 0 0 0 0];

internalField   nonuniform List<vector> 
59516
(
(2.23132e-07 -2.25574e-09 -1.10732e-09)
(1.65357e-07 -1.99571e-10 -6.55871e-10)
(2.02355e-07 -1.16237e-09 -8.27989e-10)
(1.72513e-07 1.70121e-09 2.53175e-09)
(2.00011e-07 3.67312e-10 -8.02807e-09)
(5.03648e-08 -2.4067e-09 -5.37993e-09)
(2.09401e-07 -3.28899e-09 -3.64776e-09)
(1.93333e-07 1.23415e-09 -2.15745e-10)
(1.55842e-07 1.31669e-09 -8.47153e-11)
(7.75913e-08 -1.53037e-09 3.05741e-09)
(2.08471e-07 -4.58787e-10 -3.35287e-09)
(1.01645e-07 3.47488e-10 -6.35238e-09)
(3.19127e-07 3.19719e-09 3.18041e-11)
(1.54318e-08 -9.48691e-11 -1.44598e-10)
(1.48162e-07 3.55855e-09 8.16965e-09)
(8.30782e-08 5.77082e-09 -2.59769e-09)
(2.69978e-07 -4.15146e-09 -1.95825e-09)
(1.59739e-07 9.14929e-09 -9.99734e-09)
(3.2979e-07 1.75943e-08 1.82752e-09)
(3.73711e-07 -3.6104e-09 -6.72671e-10)
(9.94277e-08 1.71157e-09 -2.36992e-09)
(3.17762e-07 -1.99055e-09 5.38548e-10)
(3.51354e-07 -2.46513e-09 -5.93554e-09)
(3.38903e-08 -1.0323e-09 -2.79775e-10)
(3.12972e-07 -1.12685e-09 7.93673e-10)
(1.96811e-07 4.47687e-09 1.91436e-09)
(5.097e-08 1.02964e-09 -3.55158e-09)
(7.4053e-08 6.3357e-09 3.25846e-10)
(1.4439e-07 6.07773e-09 -1.33665e-09)
(1.30144e-08 -2.03021e-09 5.00275e-10)
(1.89459e-07 -3.67894e-08 -8.11275e-09)
(8.36871e-08 6.74317e-09 -1.05288e-09)
(1.738e-07 2.14726e-10 1.06506e-09)
(1.73799e-07 -1.51594e-09 3.25871e-09)
(1.33643e-07 5.25197e-09 3.80276e-09)
(3.99273e-07 8.36298e-10 -1.29864e-09)
(1.2626e-08 -1.23286e-09 -1.75611e-09)
(1.31653e-07 5.04892e-09 -1.27373e-08)
(2.66466e-07 -1.08707e-08 -1.07521e-09)
(2.83084e-07 1.00998e-10 -1.33156e-09)
(2.53972e-07 -1.49284e-09 5.75594e-10)
(4.06986e-07 -2.42237e-08 -2.2521e-08)
(3.43328e-07 -9.60331e-09 -7.95288e-09)
(1.09144e-07 -7.02258e-10 3.49743e-10)
(2.64739e-07 -1.01805e-08 -8.42281e-10)
(1.00182e-07 -1.38609e-09 -2.31232e-09)
(3.24401e-07 -7.43658e-09 -1.11346e-08)
(2.54931e-07 -8.16821e-09 -1.62174e-09)
(2.5187e-07 -2.02655e-08 2.78934e-08)
(2.41253e-07 1.1003e-08 8.62133e-09)
(1.63914e-07 1.65031e-08 -2.28752e-08)
(7.44007e-08 -6.45468e-09 4.42162e-09)
(3.12743e-07 2.68183e-09 -6.12524e-09)
(2.97757e-07 -1.33603e-09 3.23112e-10)
(8.20831e-08 5.25291e-09 -2.61778e-11)
(2.46047e-07 5.84458e-09 -1.76602e-09)
(2.03473e-07 1.16897e-08 1.20241e-08)
(7.50324e-08 6.52123e-09 -4.56583e-09)
(2.12871e-07 2.46645e-10 -2.82283e-10)
(1.45847e-07 6.97314e-09 8.76871e-09)
(2.08763e-07 -7.34852e-10 1.6914e-10)
(1.48282e-08 1.86494e-09 -6.45183e-10)
(2.71435e-07 7.95074e-10 1.19579e-09)
(3.44338e-07 5.9012e-09 4.58269e-09)
(2.87212e-07 5.4218e-10 -1.77663e-09)
(2.15491e-07 5.71832e-09 8.20793e-09)
(1.75543e-08 -1.19368e-09 1.61154e-09)
(6.47707e-08 4.26523e-10 -3.70796e-10)
(1.98337e-07 -8.252e-09 3.62976e-08)
(1.68972e-07 1.57419e-09 -4.38696e-09)
(5.07242e-08 1.39753e-09 4.19805e-10)
(1.58531e-07 2.51738e-09 -2.45965e-10)
(2.2645e-08 1.41592e-09 -3.45052e-09)
(1.86206e-07 2.1444e-09 9.90464e-10)
(3.87638e-07 -1.90517e-10 -1.04859e-09)
(3.60668e-07 -6.06771e-09 -7.48806e-09)
(2.15163e-07 -3.66669e-09 -5.37809e-09)
(2.26791e-07 -4.12367e-10 5.11686e-10)
(8.28026e-08 -2.75448e-09 2.60988e-09)
(1.93298e-07 3.99273e-09 1.02172e-08)
(4.92266e-08 3.0198e-09 1.45338e-09)
(1.71559e-07 4.92375e-09 7.41931e-09)
(1.82896e-07 2.49477e-09 8.01204e-09)
(1.76137e-08 -6.65553e-10 2.46723e-09)
(2.15258e-07 4.8944e-09 9.78803e-09)
(3.86808e-07 -2.19411e-09 6.54123e-10)
(3.08425e-08 -1.12735e-09 4.89908e-10)
(5.02009e-07 -1.49835e-09 -1.00154e-09)
(1.08289e-07 1.38144e-09 4.28516e-09)
(1.66767e-07 1.31946e-08 -9.07081e-09)
(1.83386e-07 -1.22946e-09 -1.60768e-08)
(1.89589e-07 2.04352e-09 -5.04424e-10)
(2.64605e-07 5.92866e-10 -3.89117e-10)
(1.82411e-07 1.42405e-09 -4.63695e-10)
(1.85662e-07 1.56699e-10 -2.55493e-11)
(1.83421e-07 -1.75828e-08 6.56893e-09)
(1.24159e-07 -2.81065e-10 3.90475e-10)
(8.29129e-08 -3.049e-09 -6.58281e-09)
(1.15089e-07 4.36074e-09 -1.89387e-09)
(2.07838e-07 -1.1395e-09 2.43287e-09)
(6.07082e-08 9.39495e-10 2.30569e-09)
(2.55752e-08 1.32995e-09 -2.89753e-09)
(2.25903e-08 8.01923e-10 3.1043e-09)
(8.2979e-08 -1.26062e-09 -4.55948e-09)
(2.32803e-07 1.36616e-09 -3.79228e-10)
(1.64524e-07 -5.21702e-10 -4.27536e-10)
(5.38135e-08 4.74262e-09 -1.95081e-09)
(1.35797e-07 4.12069e-10 -1.0756e-09)
(1.73124e-07 -1.18672e-09 3.93426e-10)
(1.84851e-07 1.15106e-09 -7.45448e-09)
(2.80321e-07 2.90125e-08 -3.0451e-08)
(4.19822e-08 4.26036e-09 -6.79952e-10)
(1.83686e-07 2.34843e-09 -1.15136e-08)
(2.19231e-07 3.2373e-08 -1.62507e-08)
(2.22505e-07 2.77349e-11 9.79314e-11)
(1.34917e-07 1.50053e-09 1.58624e-09)
(1.23761e-07 1.40452e-09 -4.61627e-09)
(1.43164e-07 -1.10582e-10 7.88746e-10)
(1.78329e-08 -2.60069e-10 8.61278e-10)
(2.62685e-07 2.04203e-09 5.88206e-10)
(4.27403e-07 -3.03433e-10 5.21334e-10)
(1.79928e-07 -3.86604e-10 7.01098e-10)
(1.6021e-07 -1.63784e-10 8.97532e-10)
(1.86776e-07 -4.43921e-10 5.03552e-10)
(1.3308e-07 -1.79401e-08 2.7489e-09)
(1.43661e-07 2.08834e-09 -4.89538e-09)
(3.48282e-08 -6.6452e-10 2.27612e-09)
(2.12276e-07 -2.11672e-08 -1.77763e-09)
(1.63209e-07 -5.00685e-09 2.38746e-08)
(1.64938e-07 3.44164e-10 -8.96148e-11)
(2.94727e-07 2.93462e-10 -2.32405e-11)
(3.19867e-07 4.95041e-09 5.51292e-09)
(2.19826e-08 1.30968e-09 -1.50777e-09)
(2.54709e-07 -4.56329e-10 8.84344e-10)
(3.10456e-07 3.63989e-09 8.82096e-10)
(1.94296e-07 -1.03365e-09 -3.66658e-09)
(1.51779e-07 1.811e-08 -1.26726e-08)
(3.102e-07 -9.37986e-10 8.09676e-10)
(5.0566e-08 3.51115e-09 1.67013e-10)
(1.57284e-07 9.00766e-10 -2.06626e-09)
(7.43655e-08 -1.46894e-09 -3.81593e-09)
(3.42842e-07 -9.22238e-10 4.64665e-10)
(1.34739e-08 5.71853e-10 1.17532e-09)
(1.49144e-07 -1.18672e-09 -7.43255e-10)
(2.21711e-07 7.22905e-10 1.53996e-09)
(2.83708e-07 4.29546e-09 9.86402e-10)
(2.02755e-07 -8.04582e-09 -3.07876e-09)
(2.04523e-07 3.2846e-09 -5.41888e-09)
(6.40329e-08 -1.03584e-09 1.78419e-09)
(2.0466e-07 -1.1387e-09 -1.81542e-09)
(3.15019e-07 -1.28925e-09 -2.6022e-09)
(5.06632e-08 -1.95261e-09 2.8212e-11)
(3.90974e-07 -2.12584e-09 2.59435e-09)
(2.18626e-07 -2.42855e-10 1.88041e-10)
(1.56306e-07 -2.35946e-10 3.88695e-09)
(1.41401e-08 -2.62782e-10 1.52229e-09)
(2.74027e-07 -1.03125e-09 -5.66383e-10)
(3.26651e-07 4.69713e-09 -3.17386e-10)
(1.2696e-07 2.07653e-09 4.27249e-10)
(1.52127e-08 1.81596e-09 -1.98487e-09)
(8.72105e-08 2.20854e-09 -4.40362e-09)
(1.09545e-07 -5.93719e-09 -3.65783e-09)
(3.85761e-08 -1.57603e-09 3.77244e-10)
(2.16464e-08 -1.85788e-10 -4.1961e-10)
(1.60045e-07 3.0028e-09 3.92076e-09)
(3.3591e-07 -3.18281e-10 2.02657e-09)
(1.5266e-07 -2.01861e-09 1.00912e-09)
(2.90603e-07 1.78963e-09 -5.50824e-11)
(1.67845e-08 -1.05523e-09 1.91365e-09)
(2.1525e-07 -9.09781e-10 -3.30778e-10)
(8.54804e-08 1.46005e-09 1.21855e-09)
(6.55462e-08 1.02771e-09 -1.0034e-09)
(1.0338e-07 2.7045e-09 1.2798e-09)
(1.50634e-07 -2.42639e-10 5.79497e-10)
(8.2801e-08 -1.23857e-09 3.81219e-10)
(4.52845e-07 -5.6452e-09 -1.86412e-08)
(2.53221e-07 -5.95197e-10 -1.33515e-09)
(3.10057e-07 -1.2178e-08 -7.65819e-09)
(1.45664e-07 -1.73631e-09 6.77253e-09)
(6.03303e-08 -1.77683e-10 -8.33559e-10)
(3.07942e-07 5.0721e-09 1.33146e-09)
(4.14004e-08 -3.68114e-09 -1.69602e-09)
(2.87751e-08 -3.40875e-10 -2.25657e-09)
(1.0231e-07 -2.53153e-09 3.05151e-10)
(2.12872e-07 4.6237e-10 8.56184e-10)
(9.51285e-08 5.21799e-10 1.1564e-09)
(4.46901e-08 -7.0357e-10 -3.50312e-09)
(1.95479e-08 1.53404e-11 2.65909e-10)
(1.89128e-07 3.97782e-10 -1.05255e-10)
(2.2195e-07 -3.93387e-09 -3.02522e-10)
(1.58759e-07 -5.88932e-10 3.18869e-09)
(1.11849e-07 6.86377e-09 -1.13282e-10)
(2.17606e-07 -1.55821e-09 1.61146e-11)
(9.16264e-08 3.32468e-09 1.34918e-10)
(3.39925e-07 -3.31234e-10 -1.40928e-09)
(2.7944e-08 -2.47896e-10 7.7212e-10)
(9.4453e-08 1.30912e-09 -9.7865e-11)
(5.49132e-08 -1.55737e-09 3.91887e-10)
(1.8258e-07 4.93032e-09 6.0434e-09)
(2.66108e-07 1.16165e-09 -1.02376e-09)
(7.58645e-08 -2.66972e-09 2.69018e-10)
(2.03088e-07 -5.46294e-10 3.18404e-10)
(3.06876e-07 -2.46637e-09 2.47557e-09)
(1.54299e-08 1.66993e-09 -1.14512e-09)
(2.17855e-07 -1.58569e-09 -9.06096e-10)
(2.38994e-07 7.23413e-10 4.9476e-10)
(3.6285e-07 8.57055e-10 -3.44578e-10)
(2.0172e-07 -2.01841e-09 -9.68874e-10)
(1.76088e-08 -5.71631e-10 1.67262e-10)
(2.98197e-07 -5.48946e-09 -2.9105e-10)
(5.90122e-08 4.16899e-09 3.73235e-09)
(2.50691e-08 -4.13306e-09 -6.82771e-10)
(2.31384e-07 2.65648e-10 -2.40256e-09)
(9.2373e-08 -2.0263e-09 1.27427e-09)
(2.896e-07 3.86471e-09 2.04742e-10)
(2.94439e-07 1.1798e-10 -6.43676e-10)
(2.72722e-07 2.95508e-09 1.11564e-09)
(2.08789e-07 -1.93946e-09 5.9558e-10)
(8.0625e-08 3.25893e-09 -4.33008e-09)
(2.20185e-07 -1.84748e-10 1.1258e-09)
(1.15315e-07 4.39811e-09 4.14283e-09)
(1.92937e-07 7.38533e-10 2.95524e-10)
(1.83482e-07 7.71789e-10 1.06221e-09)
(7.10763e-08 -3.21048e-10 1.1804e-09)
(3.0496e-07 1.07528e-10 -6.97106e-10)
(3.19322e-07 -7.00404e-10 -9.32015e-10)
(3.09142e-08 -3.59307e-10 1.56805e-09)
(6.32948e-08 2.03811e-09 -2.99527e-09)
(2.04842e-07 6.48383e-10 7.86496e-10)
(1.14434e-07 5.60785e-10 -8.73385e-09)
(2.47779e-07 -8.66361e-10 -2.47261e-11)
(1.85221e-07 2.66158e-10 -4.22179e-10)
(3.37197e-07 1.03541e-09 1.24228e-09)
(2.57907e-08 -2.00784e-09 -1.45759e-09)
(3.02093e-08 8.15888e-10 -1.44358e-09)
(3.77661e-08 1.02973e-09 -1.36987e-09)
(1.06101e-07 6.60859e-10 6.58185e-11)
(1.70821e-07 -2.05534e-09 1.17028e-09)
(4.24817e-07 2.83698e-09 3.48493e-09)
(8.42696e-08 -1.87786e-09 2.33706e-09)
(2.65277e-07 -3.39835e-10 7.55328e-10)
(1.80087e-08 3.18892e-10 2.66464e-09)
(1.06972e-07 9.15058e-11 1.83125e-09)
(2.5792e-08 1.467e-10 2.86308e-09)
(1.72492e-07 5.83993e-10 5.28365e-10)
(1.49105e-07 -9.17907e-10 -2.62445e-10)
(1.97727e-07 3.68443e-10 1.50112e-09)
(1.81489e-07 2.92118e-09 -4.09317e-09)
(2.83714e-07 2.71019e-10 -1.03223e-09)
(1.96365e-07 7.03526e-10 9.79448e-10)
(3.87653e-07 1.86735e-10 2.41984e-10)
(2.12841e-07 -1.10239e-10 1.05805e-09)
(2.04786e-07 4.37314e-10 7.72672e-10)
(2.8232e-07 1.56558e-09 -1.82886e-09)
(2.8375e-07 2.28843e-09 2.14177e-09)
(3.03935e-07 -1.36769e-11 1.82555e-09)
(1.08693e-07 7.10679e-11 -5.25278e-10)
(2.86271e-07 1.90697e-09 3.47331e-09)
(7.76877e-08 -8.04882e-10 -4.31634e-09)
(9.47527e-08 7.64938e-10 3.30154e-09)
(2.16428e-07 1.40442e-09 -1.78773e-09)
(2.66345e-07 -5.07345e-10 5.17305e-10)
(2.35318e-07 6.67062e-09 3.2985e-09)
(2.95293e-07 4.70184e-10 5.65263e-10)
(7.27666e-08 1.23585e-10 1.58517e-09)
(1.03896e-07 3.98416e-09 -2.87246e-09)
(3.08656e-07 -3.27997e-10 -2.67814e-09)
(2.10045e-07 4.60125e-09 1.13445e-09)
(5.91685e-08 -9.97789e-10 -9.55539e-10)
(7.21626e-08 4.0258e-10 -2.09423e-09)
(1.63655e-07 1.84733e-09 -5.71872e-09)
(1.93007e-07 -2.50163e-10 -2.47528e-10)
(3.01619e-07 -7.70374e-09 1.06657e-10)
(1.45322e-07 -2.41784e-09 1.48013e-09)
(3.40715e-07 -2.11911e-09 -1.22061e-09)
(1.85474e-07 -1.23566e-09 4.7916e-09)
(1.86055e-08 2.23739e-09 -1.2583e-09)
(3.01449e-07 6.36054e-10 1.42478e-09)
(2.75471e-08 1.77387e-09 -2.38178e-09)
(5.04358e-08 -2.06578e-09 1.4071e-09)
(3.72806e-07 1.02081e-09 1.83518e-09)
(2.48972e-07 3.97249e-10 -7.04742e-10)
(2.6737e-08 2.86845e-09 2.85423e-09)
(2.93931e-07 2.08861e-09 1.21727e-09)
(2.42432e-07 4.90748e-09 -1.01358e-10)
(2.52869e-07 -2.32525e-09 3.0942e-09)
(3.40755e-07 -9.42599e-10 3.58174e-10)
(2.21952e-08 2.63472e-09 4.72735e-10)
(2.94256e-07 9.4203e-10 5.43342e-10)
(1.58118e-07 5.66348e-11 5.69187e-11)
(1.65241e-07 1.68999e-10 6.51717e-10)
(2.51672e-07 1.58064e-09 1.51262e-09)
(1.70352e-07 1.10874e-09 7.9871e-10)
(1.73088e-07 9.69227e-10 -3.26854e-10)
(2.71441e-07 1.14166e-09 4.07103e-10)
(3.71186e-08 -1.33981e-09 -1.70912e-09)
(2.88362e-07 -3.72813e-10 8.83491e-10)
(1.89567e-07 -4.90145e-10 -8.43053e-10)
(3.82695e-07 5.00403e-10 4.70984e-10)
(2.76169e-07 1.43514e-09 1.16519e-09)
(3.04696e-07 -1.10134e-09 1.65594e-09)
(1.31551e-07 2.07564e-09 2.92128e-09)
(1.89373e-08 -2.9058e-10 1.31153e-09)
(3.3873e-08 -8.26432e-10 5.56256e-10)
(5.14001e-07 -3.21844e-09 -3.07231e-09)
(1.73508e-08 -1.00992e-09 2.49861e-09)
(1.67987e-07 -9.25756e-10 -2.97447e-09)
(7.09481e-08 3.95813e-09 1.55948e-09)
(3.21271e-07 1.57144e-09 1.60033e-09)
(3.82542e-07 -1.00823e-09 -5.64464e-10)
(3.15529e-07 -7.09111e-11 -1.83328e-09)
(1.19004e-07 2.53853e-10 -2.71993e-09)
(2.89973e-07 4.69506e-09 -6.98578e-09)
(6.50468e-08 -5.44552e-09 4.38549e-09)
(8.64303e-08 2.0924e-09 1.72084e-09)
(2.02911e-07 1.19385e-09 -3.06175e-12)
(1.52364e-07 1.5777e-09 -1.47212e-09)
(2.69468e-07 3.08854e-08 8.76211e-09)
(1.88125e-07 -4.07638e-09 1.94085e-09)
(6.15727e-08 -2.4691e-10 -5.7453e-10)
(9.95198e-08 -1.46589e-09 3.21955e-09)
(2.03285e-07 -1.91289e-09 -3.13306e-09)
(2.22198e-07 -4.95158e-11 -5.60856e-10)
(4.40645e-07 -2.10698e-09 2.10342e-09)
(2.36062e-07 3.4577e-10 1.31881e-09)
(4.93182e-07 -4.01618e-09 1.20213e-09)
(1.66577e-07 6.61329e-09 7.9686e-09)
(3.33592e-07 1.68388e-09 2.27801e-09)
(2.83393e-07 1.2947e-09 1.71286e-09)
(1.99334e-07 -1.01673e-09 1.43152e-10)
(3.41794e-07 -1.8094e-09 1.56565e-09)
(1.00964e-07 2.08503e-09 -6.11917e-09)
(2.21909e-08 -1.4846e-09 -2.60131e-09)
(2.94905e-07 -2.73564e-09 4.67139e-10)
(5.56593e-08 -2.72879e-09 3.06588e-09)
(2.69193e-08 8.52525e-11 4.15699e-11)
(3.99561e-07 1.2234e-09 4.45955e-09)
(1.98937e-07 -1.40957e-10 5.32437e-10)
(1.06185e-07 -2.25822e-09 -5.39969e-09)
(2.61685e-07 -1.00457e-09 5.03761e-10)
(3.32513e-07 -1.65425e-09 8.77304e-10)
(4.43234e-07 -1.19176e-09 -1.02045e-09)
(2.74736e-07 -1.99851e-09 -5.79776e-10)
(2.98815e-08 1.4415e-09 5.77967e-11)
(3.18352e-07 -6.22588e-10 1.48992e-10)
(2.26971e-07 -8.97385e-10 7.44194e-10)
(9.51312e-08 2.33793e-10 1.41828e-09)
(3.08592e-07 6.77813e-12 1.70776e-09)
(2.60214e-07 -3.02819e-10 5.01867e-10)
(1.71821e-07 -2.84226e-11 -1.15559e-09)
(1.97313e-07 3.91166e-10 -1.65471e-09)
(2.78179e-07 -2.15955e-09 2.9043e-09)
(2.00616e-07 -1.6551e-09 4.12865e-10)
(7.5342e-08 -3.91928e-10 -1.53581e-10)
(1.92441e-08 8.1068e-10 -6.22323e-10)
(3.76303e-08 -2.80422e-09 -1.89244e-10)
(2.13359e-07 1.0572e-09 -7.3789e-10)
(2.67851e-07 -2.10939e-08 3.30071e-08)
(1.1579e-07 -6.52348e-09 -9.44573e-09)
(1.07839e-07 5.24352e-10 5.33946e-10)
(2.43054e-07 1.77237e-10 4.36806e-09)
(3.05886e-07 3.18472e-10 2.36408e-09)
(2.32352e-07 -2.37972e-09 6.13002e-09)
(3.60265e-07 -1.87711e-09 2.01456e-09)
(3.34308e-07 -2.22186e-09 -1.24063e-09)
(2.23865e-07 -1.45761e-10 8.78214e-10)
(1.38898e-07 7.63473e-10 3.03452e-10)
(2.28009e-08 -7.12405e-10 -2.55695e-10)
(2.41089e-07 -4.75498e-08 5.84405e-09)
(8.39721e-08 2.11405e-09 6.76905e-10)
(6.09358e-08 -2.69931e-09 -6.16279e-10)
(6.4634e-08 1.4031e-09 5.14973e-10)
(1.75109e-07 -6.81006e-10 -4.82401e-10)
(1.69161e-07 -1.05646e-09 -3.57661e-11)
(2.37873e-07 8.50673e-10 -1.81112e-09)
(1.60886e-08 8.66485e-10 -1.38128e-09)
(1.67233e-07 -4.90817e-10 4.47511e-10)
(6.16863e-08 1.4434e-09 -1.21115e-09)
(1.89841e-07 -2.21601e-10 -8.36032e-11)
(5.30985e-08 -7.28609e-10 -5.66032e-10)
(1.4297e-07 -3.34726e-09 2.63847e-09)
(2.12403e-07 -5.73719e-09 1.59971e-09)
(1.85528e-07 -1.5002e-09 1.32105e-09)
(1.78386e-08 1.40297e-09 -1.93244e-09)
(1.08419e-07 -1.20935e-09 4.44004e-09)
(2.36547e-07 -3.868e-10 9.83571e-10)
(2.38464e-08 -1.48274e-09 -1.92882e-09)
(2.89693e-07 2.90441e-09 2.11158e-08)
(1.78797e-07 -1.30799e-09 4.09072e-09)
(3.00259e-07 -1.34062e-09 -4.80932e-09)
(1.94893e-07 4.29754e-09 -6.11625e-09)
(9.1006e-08 -1.32161e-09 2.21748e-09)
(3.98149e-07 1.09548e-09 5.84684e-10)
(1.42007e-07 -1.45629e-08 -1.32225e-08)
(3.44611e-07 1.4558e-10 9.41508e-11)
(1.55523e-07 1.20804e-08 1.26088e-08)
(1.3667e-07 -6.31927e-09 8.44247e-10)
(1.3914e-07 -1.02297e-09 -3.19744e-09)
(2.82198e-07 -5.22817e-11 4.52589e-10)
(5.57642e-07 5.9063e-10 1.10665e-09)
(7.71847e-08 -7.76175e-10 9.36138e-10)
(3.32592e-07 8.82733e-10 -1.54301e-09)
(1.16282e-07 -5.61985e-10 -2.72e-09)
(4.54659e-07 6.80529e-10 1.09961e-09)
(3.46397e-07 -4.353e-10 1.79041e-09)
(6.6905e-08 1.97757e-09 -5.10951e-09)
(2.1557e-07 -1.85035e-09 3.47154e-10)
(3.81129e-07 -4.75165e-09 4.36096e-09)
(2.27731e-07 9.8728e-10 -1.01603e-09)
(2.22907e-07 1.13512e-09 7.64694e-10)
(2.25722e-08 -7.83779e-10 -2.83636e-09)
(1.89932e-08 9.39162e-10 -2.38016e-09)
(2.9057e-07 2.67528e-09 -3.81166e-09)
(2.93269e-07 -9.9384e-11 -2.12291e-10)
(2.30508e-07 -1.63328e-09 -8.27885e-10)
(3.42297e-08 3.61112e-10 -2.56586e-09)
(9.12799e-08 -8.81293e-10 1.33563e-10)
(2.95796e-07 -2.90804e-09 -2.48007e-09)
(1.74647e-07 -1.82576e-10 -2.83926e-11)
(3.19347e-07 -4.33219e-10 1.93247e-09)
(2.96814e-07 -5.23922e-11 -8.83943e-10)
(2.24626e-07 8.12477e-10 9.1387e-10)
(2.38612e-07 2.12072e-09 6.58665e-10)
(1.18351e-07 7.3729e-10 4.07914e-10)
(2.2198e-07 7.1155e-10 -2.32218e-10)
(8.52607e-08 -1.60515e-09 -4.07934e-09)
(2.93888e-07 1.45381e-10 -9.58274e-10)
(1.86101e-07 -6.76246e-10 -1.84349e-09)
(2.16134e-07 5.09843e-10 1.43344e-09)
(2.28024e-07 1.84107e-10 -2.72345e-10)
(3.4938e-07 -9.99708e-10 3.10752e-10)
(2.66419e-07 2.04633e-10 -2.52398e-09)
(6.51083e-08 3.73142e-09 3.5112e-09)
(4.29873e-08 1.12201e-09 3.23139e-10)
(1.86036e-08 1.61611e-09 -1.8375e-09)
(2.32307e-07 6.43959e-09 1.14923e-08)
(3.06757e-07 -2.05329e-10 -4.06923e-10)
(2.71955e-07 -1.35486e-09 1.31627e-09)
(1.90693e-07 1.35248e-09 1.02767e-10)
(2.86529e-08 -1.02905e-10 1.09102e-09)
(2.15871e-08 -3.40636e-10 2.4762e-09)
(1.77719e-07 -9.89681e-10 2.6281e-09)
(2.34648e-07 3.45664e-11 2.1866e-09)
(3.20577e-07 -6.3412e-10 1.29612e-09)
(3.20809e-07 1.0262e-09 6.01264e-10)
(1.96923e-07 -1.71612e-09 -1.0548e-09)
(3.5825e-07 2.37979e-11 6.39242e-10)
(3.72449e-07 1.87357e-09 2.9185e-09)
(3.04204e-08 -6.00161e-10 2.84959e-09)
(1.80651e-07 -2.83226e-10 1.32989e-09)
(7.04961e-08 6.63332e-10 3.69009e-09)
(9.75798e-08 -9.75361e-09 2.09102e-09)
(1.2963e-07 3.00862e-10 4.7123e-10)
(1.38992e-07 8.72451e-10 -1.89127e-10)
(2.53029e-07 -2.48898e-10 4.00332e-10)
(1.85118e-08 -3.49711e-09 -1.26232e-09)
(3.66505e-07 4.77499e-10 -1.08594e-09)
(2.76295e-07 -3.07175e-10 -2.02158e-10)
(2.22809e-07 5.53898e-11 8.53498e-10)
(1.97479e-07 1.99799e-09 1.56985e-10)
(1.72251e-07 -1.04264e-09 1.92825e-09)
(2.68554e-07 1.51667e-10 7.72172e-10)
(2.43953e-07 9.17958e-10 4.85558e-10)
(3.16599e-07 7.86763e-10 3.40622e-10)
(1.66468e-07 6.9489e-09 -5.83269e-09)
(2.73371e-07 3.96702e-10 -5.53315e-10)
(2.90318e-07 -5.6945e-09 -7.75508e-10)
(1.77977e-08 -1.13439e-09 1.28357e-09)
(3.15522e-07 4.95979e-10 2.3231e-10)
(1.89227e-07 3.73617e-09 1.60984e-10)
(6.26415e-08 -1.82908e-09 5.2137e-09)
(1.68423e-07 1.64524e-09 -2.94191e-09)
(3.49933e-07 3.93563e-10 -2.00058e-10)
(2.21573e-07 -7.3533e-10 1.98872e-09)
(1.15637e-07 3.19348e-10 -3.25973e-09)
(1.75065e-08 -1.59595e-09 -1.72871e-09)
(2.62396e-07 1.7323e-10 -3.66867e-10)
(3.32611e-07 4.55041e-09 -5.00404e-09)
(2.38324e-07 -6.11833e-10 -9.6739e-10)
(1.86191e-07 -3.70303e-11 1.203e-09)
(5.5562e-08 2.56039e-09 2.45086e-09)
(2.51157e-07 4.17395e-11 -4.72024e-10)
(2.64366e-08 2.13703e-09 -3.41187e-09)
(1.7631e-07 2.08407e-10 -8.57427e-10)
(2.08665e-07 2.32556e-08 -7.44838e-09)
(2.60459e-07 -2.26228e-09 -1.10892e-09)
(8.54006e-08 6.26151e-11 3.02435e-09)
(1.79522e-07 -2.04738e-09 -2.79052e-09)
(1.13314e-07 8.85427e-11 -1.47139e-09)
(4.59759e-08 2.58409e-09 2.38266e-09)
(4.89555e-07 1.86975e-10 1.87294e-10)
(2.18447e-07 -4.91388e-10 6.97641e-10)
(1.70257e-08 5.84118e-10 1.66471e-09)
(2.84572e-07 6.31153e-10 6.44391e-10)
(2.96045e-07 8.2776e-10 9.03047e-10)
(3.75858e-08 -9.11844e-11 -2.29257e-09)
(1.24349e-07 5.49252e-09 -2.02717e-10)
(9.62867e-08 3.59324e-09 2.50081e-09)
(1.91789e-07 -2.93384e-10 8.54893e-10)
(2.69629e-07 -2.5969e-10 6.96187e-10)
(3.497e-08 -9.37052e-10 1.60371e-09)
(8.80748e-08 -2.94332e-09 -9.51487e-10)
(9.90915e-08 1.96548e-09 -1.58179e-10)
(1.73832e-07 2.41019e-09 6.78644e-10)
(3.50118e-07 1.49826e-10 1.15098e-09)
(2.27516e-08 1.24278e-09 -2.96394e-09)
(3.67645e-07 -1.22771e-09 1.74301e-09)
(2.37087e-07 6.14663e-09 -1.20834e-09)
(2.83371e-07 -7.42275e-10 1.45174e-09)
(1.14195e-07 4.90132e-09 -4.72424e-09)
(3.36251e-07 5.84728e-10 6.03499e-10)
(2.21221e-08 -2.91712e-10 -2.41098e-09)
(2.98514e-07 -2.09128e-09 -1.05086e-09)
(2.67789e-08 -3.91224e-10 -5.03833e-11)
(1.35654e-07 -3.67149e-09 1.97551e-09)
(2.27258e-07 -1.85547e-09 1.14371e-10)
(1.33691e-07 -4.00084e-09 -1.35837e-09)
(1.84e-08 2.15109e-09 1.90547e-09)
(4.90084e-08 9.78696e-10 -1.55096e-09)
(7.33809e-08 -3.98248e-09 2.74559e-09)
(1.28343e-07 2.5991e-09 -3.71135e-09)
(3.24508e-07 2.9803e-10 -1.99137e-09)
(5.6071e-08 -1.29313e-09 7.3589e-11)
(1.32824e-07 4.31934e-09 -2.26054e-09)
(2.25785e-07 -1.25787e-08 -2.43137e-08)
(2.19194e-07 5.10811e-11 5.52624e-10)
(2.80247e-08 1.80072e-09 3.27057e-10)
(2.22949e-07 7.57747e-10 -2.3745e-09)
(1.47282e-07 1.60768e-08 -6.36007e-09)
(2.06093e-07 -1.12027e-10 -3.68827e-10)
(9.80952e-08 -1.3533e-10 -2.44056e-09)
(1.80043e-07 7.50197e-11 1.21188e-09)
(1.03722e-07 -4.1994e-09 -3.12889e-09)
(1.5985e-07 9.98209e-10 7.72825e-10)
(1.6555e-07 -2.4565e-10 -8.52895e-10)
(7.00212e-08 3.05579e-09 -6.29122e-09)
(3.03168e-07 1.43947e-10 -3.67535e-10)
(7.10275e-08 3.37006e-09 3.59611e-09)
(1.49391e-08 2.27377e-09 8.50942e-10)
(3.17106e-07 1.78141e-09 -1.07343e-09)
(1.9722e-07 -3.6511e-10 2.78864e-11)
(2.91222e-07 2.3648e-09 -1.10542e-09)
(2.25149e-07 2.98311e-09 -1.54649e-09)
(4.80387e-07 -2.05381e-09 -4.74883e-11)
(1.33936e-07 3.98682e-09 -6.04554e-10)
(4.15671e-07 -1.73566e-09 8.1326e-10)
(9.55027e-08 -3.10166e-09 4.0588e-09)
(1.56424e-07 1.20774e-10 1.14455e-10)
(3.02592e-07 -3.33269e-09 -3.3131e-09)
(3.12858e-08 8.06691e-10 -4.33934e-09)
(3.03666e-07 1.73071e-09 -1.93624e-09)
(1.10496e-07 8.49045e-11 3.51216e-09)
(2.88067e-08 -2.04099e-09 -2.16529e-09)
(2.75816e-07 -2.66316e-09 -8.84289e-10)
(6.05995e-08 -1.74515e-09 1.54451e-09)
(2.02292e-07 -2.54039e-11 6.80098e-12)
(2.31791e-07 -5.22333e-10 1.17548e-09)
(3.71962e-07 6.97263e-10 4.64323e-10)
(9.35964e-08 -4.21407e-09 -4.59558e-09)
(2.99066e-07 1.43838e-09 6.43527e-10)
(1.49109e-07 -2.29874e-09 2.17744e-09)
(3.3221e-07 2.80379e-10 1.23602e-10)
(3.33413e-07 -2.10681e-10 9.05507e-10)
(2.94494e-07 -5.57844e-10 1.69311e-09)
(1.75367e-07 -5.23556e-10 -4.30976e-10)
(4.70525e-08 -2.65749e-09 -2.25814e-09)
(6.79594e-08 4.30298e-10 -5.70751e-10)
(1.86188e-07 -8.17292e-10 -2.62622e-10)
(2.91106e-07 1.91623e-10 3.03047e-09)
(2.73278e-08 -2.00239e-09 -9.0115e-10)
(2.51314e-07 -4.36565e-10 1.1025e-09)
(4.94561e-07 2.10838e-10 1.00748e-09)
(3.63629e-07 -6.22197e-10 -6.47266e-10)
(3.95784e-07 -1.32817e-09 -4.77374e-10)
(2.44533e-07 2.50819e-10 -3.98476e-09)
(1.94397e-08 1.981e-09 1.6856e-09)
(2.36172e-07 6.26064e-10 -2.30195e-10)
(1.45062e-07 -1.33317e-09 -1.68431e-09)
(2.6896e-07 1.94052e-09 1.28439e-09)
(1.57678e-07 6.09659e-10 -2.73749e-10)
(3.41535e-08 2.41549e-09 -1.07724e-10)
(2.23289e-07 -1.14879e-10 6.23447e-10)
(1.47896e-07 3.93192e-09 4.0355e-09)
(2.42301e-07 2.22814e-10 4.14901e-10)
(2.8806e-07 -3.88599e-10 -4.86224e-11)
(1.99625e-07 -2.29199e-09 -6.77138e-11)
(1.31628e-08 1.22348e-09 -1.5404e-09)
(1.92829e-08 -1.20681e-09 -1.87552e-09)
(1.96861e-07 7.25381e-10 2.25954e-10)
(3.19093e-07 -2.10571e-09 -1.75108e-09)
(2.45052e-07 7.17247e-11 1.51646e-09)
(1.85657e-07 -6.71351e-10 1.5703e-09)
(1.57313e-07 -2.44405e-09 1.03442e-09)
(2.56822e-07 -1.76216e-09 -1.03151e-09)
(3.0114e-07 4.2225e-10 1.60574e-09)
(1.87263e-08 1.66075e-09 4.03844e-10)
(1.5747e-07 6.47534e-10 4.54094e-10)
(1.74173e-07 -1.95465e-08 -5.83225e-10)
(4.45071e-08 -7.38591e-10 2.39551e-09)
(8.27838e-08 -5.2953e-09 1.31959e-09)
(3.05641e-07 -7.30156e-13 -2.021e-09)
(2.11135e-07 -2.32237e-09 1.56506e-09)
(1.96419e-07 5.70807e-10 -3.08213e-10)
(2.32681e-07 -1.23323e-09 1.27834e-09)
(1.36169e-07 -4.64806e-09 1.54868e-09)
(3.54635e-07 -6.8208e-11 6.28926e-10)
(1.76173e-07 1.66012e-09 -5.52475e-09)
(4.4415e-07 9.61977e-10 -4.72635e-10)
(2.27513e-07 1.28974e-09 7.00723e-11)
(2.55292e-07 -1.19362e-11 2.96621e-10)
(3.3176e-07 -1.93999e-10 3.20687e-10)
(4.60427e-08 -3.89662e-10 2.30155e-09)
(5.52031e-07 -9.65156e-11 -4.82315e-11)
(3.23508e-08 1.01035e-09 -1.31803e-09)
(1.48942e-07 -1.45048e-08 8.55892e-09)
(1.12891e-07 3.73104e-09 3.00354e-09)
(1.61651e-07 -3.21784e-09 -1.66139e-08)
(2.11951e-07 -1.04229e-09 -1.27608e-09)
(2.90769e-07 -4.72154e-08 -1.05193e-08)
(1.4496e-07 3.04601e-10 -4.33303e-10)
(3.33481e-07 -1.1272e-09 -4.65264e-10)
(3.4224e-07 3.48546e-09 -1.32516e-11)
(2.23068e-07 -4.90399e-10 5.90544e-10)
(3.35993e-08 2.8374e-10 -6.19184e-10)
(1.18484e-07 -4.4459e-09 -2.983e-09)
(2.10306e-07 -3.92213e-09 -2.99427e-08)
(2.28022e-07 2.67993e-10 2.74689e-10)
(9.87933e-08 -2.00794e-09 -5.68798e-10)
(2.18227e-07 -2.16226e-08 -7.62051e-09)
(2.39132e-07 -6.05787e-09 6.90988e-09)
(3.03532e-07 2.37547e-09 2.63846e-09)
(4.26203e-08 -8.50069e-10 1.55831e-09)
(5.24321e-08 -2.58379e-09 1.42336e-09)
(2.6224e-08 1.1945e-10 -2.41202e-10)
(1.88601e-08 1.5203e-10 -1.44093e-09)
(4.27192e-08 -8.44626e-11 1.96506e-10)
(2.21579e-07 -1.61086e-08 9.21253e-09)
(1.82726e-07 -8.67528e-10 1.11683e-09)
(1.79516e-08 -6.40984e-10 2.49228e-09)
(1.97958e-08 1.41975e-09 2.17948e-09)
(3.8055e-07 2.53473e-10 -4.79353e-10)
(1.66155e-07 -2.1828e-08 1.48297e-08)
(4.5279e-08 1.95694e-09 7.0139e-10)
(2.28424e-07 2.88066e-10 -1.00367e-09)
(1.05768e-07 -1.20593e-09 -1.42983e-09)
(2.01533e-07 3.8748e-10 1.89661e-09)
(4.28897e-08 2.24105e-09 -1.2056e-09)
(9.12166e-08 2.82753e-09 -1.10382e-09)
(1.89613e-07 -2.16692e-09 5.19011e-11)
(2.79894e-07 -1.54286e-11 -1.49875e-09)
(4.03524e-07 -4.66197e-10 -1.99873e-09)
(4.13314e-08 3.43664e-09 -1.16863e-09)
(2.37269e-08 -1.85456e-09 1.11377e-09)
(2.01613e-07 -2.88099e-08 -2.13835e-08)
(2.7e-08 -3.51439e-09 1.83395e-10)
(3.09471e-07 -1.71257e-09 -2.37301e-09)
(2.76872e-08 1.54693e-09 -3.42235e-09)
(1.4548e-07 -7.07275e-10 3.04805e-09)
(3.23451e-07 -2.18967e-09 1.7015e-10)
(4.46165e-07 -8.33541e-10 2.8623e-09)
(5.70855e-08 8.58302e-10 -1.06531e-09)
(1.37324e-07 -3.32322e-10 -1.50901e-09)
(3.75965e-08 1.37768e-09 -1.59377e-09)
(2.79094e-08 3.30189e-09 -1.19172e-09)
(2.76745e-07 -1.01283e-09 -7.5851e-10)
(1.41579e-08 -1.20357e-09 -1.81515e-09)
(1.86362e-07 -4.06216e-10 -6.2267e-10)
(5.95422e-08 1.39477e-09 -2.81778e-09)
(3.29771e-07 -2.82993e-09 -5.07266e-10)
(2.26701e-07 -1.28348e-09 -2.69805e-10)
(1.85724e-08 -4.90253e-10 2.95251e-09)
(1.31452e-07 -6.55371e-09 6.5121e-10)
(2.4962e-07 8.6399e-10 1.08011e-09)
(3.0453e-08 -1.4869e-09 3.97729e-11)
(2.95949e-07 4.48382e-10 -9.52201e-10)
(7.72315e-08 -3.09969e-09 4.80591e-09)
(2.10827e-07 4.55532e-10 8.42915e-12)
(2.41625e-07 -6.2685e-10 6.44414e-11)
(5.36658e-08 1.60051e-09 1.10762e-09)
(2.06245e-08 8.81087e-10 -2.6595e-09)
(8.98368e-08 1.79451e-09 -7.69731e-10)
(2.43642e-07 3.82214e-08 8.21219e-09)
(2.21716e-07 7.99878e-10 1.03153e-09)
(7.53562e-08 -3.54845e-09 3.63579e-09)
(1.79005e-07 7.79228e-10 2.45625e-09)
(2.36267e-08 -8.98276e-10 5.54519e-10)
(2.15225e-07 -7.73633e-10 -2.9167e-10)
(2.26108e-08 -3.63792e-10 -1.73954e-09)
(3.42014e-07 -7.45512e-10 -1.49544e-09)
(3.00605e-07 4.04358e-10 1.81477e-10)
(2.26197e-07 3.65657e-10 -7.98334e-10)
(1.39749e-08 1.38275e-09 4.07098e-11)
(3.44538e-07 7.23699e-10 9.87201e-10)
(1.53983e-07 1.86975e-09 5.95535e-10)
(3.62042e-07 -1.78101e-10 1.86119e-10)
(6.12889e-08 -7.0347e-10 -2.6775e-10)
(2.22571e-07 -2.6761e-08 1.37577e-08)
(2.64977e-07 -1.98226e-09 -8.72899e-10)
(6.35877e-08 7.29715e-10 -7.69621e-10)
(2.71534e-07 1.49464e-10 5.98325e-10)
(2.10065e-07 3.88437e-09 -3.9552e-08)
(1.80084e-07 5.19874e-10 -1.26092e-09)
(3.18382e-08 8.29055e-10 -1.75438e-09)
(9.79301e-08 -9.6299e-10 -5.36258e-09)
(2.02452e-07 -3.74321e-10 -1.60521e-10)
(2.16361e-07 2.11631e-09 1.09805e-09)
(3.08773e-08 1.57256e-09 6.34447e-10)
(2.15923e-07 2.8798e-09 -3.37419e-09)
(1.54772e-07 -1.27027e-09 -4.73001e-09)
(2.37904e-08 -2.06196e-09 1.41011e-09)
(2.13422e-07 -8.43932e-11 -5.24905e-10)
(1.5832e-07 -1.96203e-09 1.53654e-08)
(3.22146e-07 3.44501e-09 -4.72456e-09)
(2.08395e-07 -6.98906e-10 -8.61186e-11)
(1.90983e-07 -5.3423e-10 7.70683e-10)
(3.19511e-07 -4.88713e-10 9.10184e-11)
(2.53569e-07 1.52313e-09 -5.45388e-10)
(6.83327e-08 1.76199e-09 5.92888e-10)
(6.99943e-08 -3.38834e-09 -3.38364e-09)
(3.95148e-07 -5.0985e-10 1.45108e-09)
(2.24792e-07 -1.96042e-08 1.82221e-08)
(2.05961e-07 -1.79171e-09 8.24541e-10)
(1.85923e-07 -2.51575e-09 1.41143e-09)
(1.24462e-07 3.04085e-09 1.3351e-09)
(3.23375e-07 -8.15697e-10 3.38129e-09)
(2.0666e-07 -8.33203e-10 -1.19581e-09)
(1.77899e-07 -5.0664e-10 -2.41575e-09)
(2.21413e-07 4.00337e-09 1.14524e-09)
(4.30189e-08 6.44558e-10 -2.77395e-09)
(1.66446e-07 1.17105e-09 -7.79446e-10)
(3.78572e-08 -9.72511e-10 -2.83132e-09)
(3.14475e-07 -1.97736e-09 1.98045e-09)
(3.35428e-07 -8.15245e-10 -6.17389e-10)
(1.62632e-07 3.35116e-09 -3.76452e-09)
(1.58543e-07 1.27789e-09 -1.0501e-09)
(1.71817e-08 1.76709e-09 -3.55907e-10)
(1.02589e-07 -4.39925e-10 -9.49997e-10)
(7.33645e-08 -2.47523e-09 -3.13418e-09)
(2.73043e-07 -5.34314e-11 -1.55607e-09)
(2.46711e-07 -1.32166e-09 -5.32247e-10)
(2.20569e-07 -2.01222e-08 1.27338e-08)
(3.19507e-07 -5.37979e-10 2.22488e-09)
(8.03453e-08 -2.34774e-09 -1.97252e-09)
(1.36573e-07 -3.42286e-09 1.06608e-08)
(2.42855e-07 -2.8965e-09 3.07643e-09)
(2.61555e-08 -2.00695e-09 -1.93097e-10)
(2.53343e-07 -1.00024e-09 3.10333e-10)
(5.24603e-08 1.47169e-09 -8.50461e-11)
(2.06231e-07 -3.3376e-10 2.01507e-09)
(3.08114e-08 4.39997e-09 -3.47141e-10)
(3.71055e-07 2.41416e-10 -1.44162e-09)
(2.0396e-07 -8.68202e-09 5.34188e-09)