/*--------------------------------*- C++ -*----------------------------------*\
| =========                 |                                                 |
| \\      /  F ield         | OpenFOAM: The Open Source CFD Toolbox           |
|  \\    /   O peration     | Version:  2406                                  |
|   \\  /    A nd           | Website:  www.openfoam.com                      |
|    \\/     M anipulation  |                                                 |
\*---------------------------------------------------------------------------*/
FoamFile
{
    version     2.0;
    format      ascii;
    arch        "LSB;label=32;scalar=64";
    class       volVectorField;
    location    "56";
    object      momentum:angularVelocity;
}
// * * * * * * * * * * * * * * * * * * * * * * * * * * * * * * * * * * * * * //

dimensions      [0 1 -1 0 0 0 0];

internalField   nonuniform List<vector> 
59516
(
(-0.000967905 -0.000646595 0.103359)
(0.000321358 -0.000227707 0.0949973)
(-0.000480718 0.00061424 0.110597)
(-0.00220545 -0.000466203 0.127491)
(-0.00455753 0.000302242 0.113676)
(-0.010443 0.00555737 0.101091)
(-0.00251355 -0.00159836 0.126995)
(-0.000309137 -0.000564304 0.0992892)
(-0.000915108 0.000175282 0.110053)
(0.00200785 0.00107297 0.0516643)
(-0.00248743 -0.000260989 0.154074)
(-0.00300394 -0.0022277 0.0597521)
(-0.000912957 -0.000728837 0.116598)
(5.9065e-05 -0.000204764 0.0190163)
(0.000218034 -0.00346836 0.0577815)
(-0.00142685 0.00351143 0.0497568)
(-0.00284014 -0.000524862 0.169877)
(-0.00572606 -0.00158263 0.0700245)
(-0.00601187 -0.00121535 0.114351)
(-0.00152874 0.000575028 0.166203)
(-0.00143314 0.000665913 0.0537482)
(0.00039449 0.000877768 0.148292)
(-0.00274457 -0.000676944 0.154536)
(0.000837207 0.000555942 0.0318447)
(6.89123e-07 0.000710119 0.161248)
(-0.000164451 0.00154615 0.0628499)
(-0.000499658 0.0028367 0.0397023)
(-0.00348935 -0.00147844 0.0442356)
(-0.00267357 -0.000876636 0.0652838)
(0.00203448 0.00166673 0.0163699)
(-0.0215131 0.00120335 0.108359)
(-0.00294733 0.00225827 0.0455294)
(-0.000751244 -0.000337418 0.131737)
(-0.00198087 -0.00112629 0.110191)
(-0.00676707 -3.24638e-05 0.139475)
(-0.000549505 0.000129684 0.145945)
(-0.00237932 0.00124916 0.0158131)
(-0.00693582 -0.00220273 0.069924)
(-0.00387298 0.000405161 0.0949902)
(6.21496e-05 0.000753898 0.160359)
(-4.29074e-05 -0.000619393 0.0985558)
(-0.0117066 -2.89505e-05 0.144048)
(-0.00529679 0.00100251 0.148436)
(-0.000651984 0.000369315 0.104245)
(-0.00545272 0.000729764 0.142572)
(0.00136741 0.000375653 0.0526959)
(-0.00545732 0.000147504 0.132267)
(-0.00530386 0.000664733 0.163635)
(-0.0152531 0.00138498 0.111886)
(-0.00875442 0.000305403 0.151185)
(-0.0178985 0.00051945 0.104055)
(-0.00395 -0.00188396 0.0416157)
(0.000355339 -0.00249008 0.117645)
(-0.000311984 0.000485606 0.125032)
(-0.00292477 0.000750132 0.0471817)
(-0.0031678 0.000545839 0.12954)
(-0.0119484 5.16073e-05 0.144975)
(-0.00438434 -0.00164184 0.0441263)
(-0.000308243 -4.49687e-05 0.176895)
(-0.0103839 -0.000346218 0.135254)
(-0.000336605 0.000421702 0.14938)
(-0.00140586 0.00193184 0.0179529)
(-0.000895915 7.25506e-05 0.169903)
(-0.00362632 -5.58426e-05 0.167143)
(-0.000563251 0.000528 0.119373)
(-0.00685439 0.000102487 0.147672)
(0.000190349 0.00276541 0.0242633)
(-0.000137292 0.000311239 0.0389858)
(-0.0228055 0.00038243 0.12153)
(-0.00364406 -0.000835784 0.13554)
(-0.000581857 -0.000810467 0.0346815)
(-0.00248109 -0.000844554 0.164267)
(0.00331091 -0.00133475 0.0216741)
(-0.00175541 -0.000442686 0.142714)
(-0.000200773 -0.00046965 0.185775)
(-0.0042216 0.000225048 0.158205)
(-0.00497061 0.000144979 0.164377)
(0.000425985 6.27503e-05 0.148596)
(0.00175053 0.000937227 0.0433294)
(-0.00858651 0.000727109 0.151846)
(-0.00244568 2.54606e-06 0.0359236)
(-0.00761613 0.000418681 0.146959)
(-0.00640138 0.000377106 0.139763)
(-0.002389 0.00130092 0.0187497)
(-0.00742078 0.000781083 0.146772)
(-0.000654942 0.000825655 0.178048)
(0.0006018 0.00106847 0.0307695)
(-0.000524867 0.000115891 0.149721)
(-0.00191845 -0.0010055 0.0520959)
(-0.00997954 -0.00248555 0.107115)
(-0.0115638 -2.56948e-05 0.131523)
(-0.000976774 0.00119843 0.139258)
(-0.000468353 -5.80216e-05 0.176091)
(-6.08851e-05 0.0011242 0.137126)
(-6.7125e-05 0.000122948 0.163806)
(-0.0112491 -7.05717e-05 0.10993)
(-0.000417734 -0.000344915 0.139802)
(0.00211025 0.00390904 0.0507705)
(-0.00246913 -0.000984168 0.064345)
(0.00158125 0.00108428 0.148329)
(-0.00119223 0.000847585 0.035668)
(0.00252663 0.00133077 0.0229079)
(0.00272256 0.00142644 0.0216561)
(-0.0019514 0.00220447 0.0516426)
(0.000815811 -4.63056e-05 0.13417)
(9.75805e-05 -0.000599042 0.148042)
(0.00176108 -0.00310497 0.0374587)
(-0.000777056 -0.000389095 0.102455)
(-0.000212584 0.000678261 0.0984256)
(-0.00137699 0.00217409 0.0630677)
(-0.0187469 -0.000237996 0.124956)
(0.00215524 -0.00205024 0.0289464)
(-0.00250752 0.00322425 0.0638492)
(-0.0195039 -4.92505e-05 0.118043)
(-1.34226e-06 7.36741e-05 0.161084)
(0.00104985 -0.00117989 0.0975858)
(-0.00168934 -0.00109503 0.0516359)
(-0.000352315 -0.000645976 0.132262)
(-0.000367026 -0.00097335 0.020619)
(-0.000816335 0.000864952 0.147018)
(0.000267016 -2.4848e-05 0.190011)
(-0.000475547 0.000596569 0.171453)
(0.000852858 0.000301197 0.158828)
(-0.000510693 0.000335655 0.170035)
(-0.0180201 0.00115094 0.132401)
(-0.00332494 0.000112736 0.0898008)
(-0.00171753 -0.00082834 0.0280084)
(-0.0136894 0.00206871 0.138356)
(-0.0130701 0.00307857 0.0898397)
(0.000289708 -0.000270334 0.18377)
(-5.52163e-05 -0.000178885 0.187433)
(0.00165552 0.00195198 0.110495)
(-0.000495316 -0.00192812 0.0219118)
(0.000110919 0.000566618 0.14778)
(0.00114777 0.000344957 0.0993461)
(-0.002002 0.000974282 0.113557)
(-0.0155897 0.00140568 0.107485)
(0.000139415 0.000492983 0.128254)
(-0.000361743 0.00256615 0.0372797)
(-0.00109499 0.000851543 0.0967908)
(-0.000976693 0.00206309 0.041514)
(-0.00038067 -0.000420735 0.188367)
(-0.000815809 -0.00149412 0.0175487)
(-0.000582761 0.00100644 0.123871)
(-0.00137075 8.59919e-05 0.178996)
(-0.00209306 0.000684133 0.141751)
(-0.00580501 0.00135399 0.140292)
(-0.00339307 0.00128578 0.117115)
(0.000947057 -0.00176348 0.0621278)
(-0.000341295 0.00104514 0.105)
(-0.000324846 -0.000878734 0.101625)
(0.000156307 0.00125238 0.0327434)
(0.00102203 0.00102268 0.168535)
(0.000178709 0.000123117 0.154471)
(-0.000866007 -0.00199153 0.087169)
(-0.00162888 0.000993355 0.0174633)
(-0.000354921 -0.000319104 0.111162)
(-0.00142019 0.000770055 0.112092)
(-0.00123824 0.000531258 0.0806902)
(-0.00258419 -0.00183038 0.0179073)
(0.00255376 0.00240741 0.0621293)
(0.0035197 -0.0020558 0.0640302)
(-0.000575319 0.00124608 0.0326711)
(-0.000221811 -0.000443639 0.0233964)
(0.00299598 9.06687e-05 0.0971367)
(-0.00107005 0.000112202 0.176177)
(0.000866904 -4.3276e-05 0.0587142)
(-0.00103817 -0.000418572 0.18168)
(0.00107384 0.00216745 0.0185784)
(0.000146103 -0.000596188 0.136488)
(-0.00141385 -0.00113597 0.0815216)
(-0.000879332 0.00062705 0.0492862)
(-0.000104615 -0.00175512 0.0607503)
(0.000119455 -0.000554108 0.135911)
(0.000412908 0.000611904 0.0471656)
(-0.00577576 -0.00054199 0.134876)
(-0.000876032 0.000469436 0.172165)
(-0.00691488 0.000560553 0.149525)
(0.000366566 -0.00305281 0.0640598)
(0.000437805 0.000314875 0.0381735)
(-0.00143982 -0.00202705 0.146008)
(0.000832765 0.00293702 0.0311831)
(-0.000933218 -0.0019001 0.0266914)
(0.000553003 0.00141793 0.0610666)
(-0.000112241 -0.000827278 0.182639)
(-0.000359709 0.000654061 0.0559707)
(-0.00259805 0.000490769 0.0330697)
(0.000140256 0.000254036 0.021297)
(-0.000250596 7.35183e-05 0.120038)
(0.00152552 0.000820408 0.0974394)
(-0.00275706 -0.000178966 0.13527)
(-0.000943117 -0.00284059 0.0487667)
(-0.00110166 -0.000431006 0.165195)
(0.00150683 -0.00122883 0.0535415)
(-0.000657081 -4.81499e-05 0.1547)
(0.000397523 0.000696899 0.0276465)
(0.000702728 0.000247345 0.0536011)
(0.000307098 -0.00106334 0.037846)
(-0.00456808 -8.6466e-05 0.106956)
(0.00046278 -0.00077171 0.154647)
(-0.00161526 -0.002231 0.0778751)
(-0.000479715 -0.000343559 0.189514)
(0.000126768 0.00112883 0.0997539)
(0.00152964 -0.00180959 0.0180562)
(0.000639265 0.00084 0.125917)
(-0.000380288 -0.000372211 0.145108)
(-0.000299312 -0.000364206 0.185177)
(0.00144204 -0.000941831 0.155181)
(0.000218896 -0.000689332 0.0213828)
(0.00178369 0.00102373 0.111561)
(-0.000512566 0.00447347 0.0474865)
(-0.00385843 0.000791108 0.0235707)
(-0.000943183 0.00116109 0.143194)
(-0.000321213 0.00132022 0.0524344)
(-0.000898466 -0.00122355 0.113591)
(0.000351654 -0.000155042 0.172919)
(-0.00154999 0.000465213 0.139726)
(-0.00123831 0.000903232 0.157732)
(-0.00162568 0.00301363 0.0509411)
(0.000806954 -0.00011363 0.157278)
(-0.000880235 -0.00257054 0.0518567)
(-0.000338547 0.000253826 0.102629)
(-0.000772621 -0.000908765 0.166688)
(0.000368576 -0.000507705 0.036453)
(0.000325931 -0.000227851 0.171936)
(0.00063283 6.40362e-05 0.174214)
(-0.000934213 -0.00100359 0.0263487)
(-0.00244378 0.000558667 0.0437958)
(0.000219317 0.000832623 0.173034)
(-0.00201997 0.00335047 0.0511549)
(6.57407e-05 0.00060707 0.174566)
(-0.000353513 0.000312316 0.175066)
(-0.000791075 -0.000425176 0.187258)
(-0.00111828 -0.00192875 0.023175)
(-0.00124787 -0.00111728 0.0305148)
(-0.00144144 -1.541e-05 0.0317672)
(-5.35874e-05 -0.000370686 0.0598363)
(-0.00127818 -0.000212472 0.0935822)
(-0.00161792 0.000409392 0.157773)
(0.00189572 -0.00030984 0.0539925)
(0.000482129 0.00034144 0.189219)
(0.00230064 0.00163558 0.0189423)
(0.000708918 0.000520349 0.0513053)
(0.00216466 0.00134361 0.0229213)
(0.000695962 0.00048101 0.185299)
(-0.000434719 -0.000370266 0.0891846)
(-0.00111007 0.000267537 0.146069)
(-0.00083502 0.00150065 0.0619799)
(-0.000560071 -0.000317183 0.171112)
(-0.000559993 -0.000279935 0.101944)
(-7.08945e-05 -0.000110965 0.167003)
(-0.000700035 3.60208e-05 0.140249)
(0.00079565 0.000217982 0.190284)
(0.000332572 0.00118905 0.144791)
(-0.000919876 0.00134184 0.147279)
(-0.000753721 0.000587387 0.159088)
(-0.000246364 6.98057e-05 0.0525073)
(-0.00209482 0.000427021 0.154457)
(0.00119235 0.00186737 0.0392013)
(-0.000274004 0.00200872 0.0566815)
(-0.00117168 0.000675031 0.128731)
(-0.000230966 0.000380401 0.163588)
(0.00348518 0.000738261 0.112654)
(0.000410017 0.000177486 0.179437)
(0.00208999 -5.29216e-06 0.0956501)
(-9.44802e-05 -0.00257996 0.0546103)
(-0.000681284 -0.00123286 0.161135)
(0.0020201 0.000104157 0.0896544)
(-0.000524233 -0.000868422 0.0434442)
(-0.000493687 0.00136016 0.0489634)
(-0.00262615 0.00233384 0.0956747)
(-0.000172139 -0.000269467 0.175365)
(-0.00153266 0.00190048 0.095581)
(-0.000793716 0.00155711 0.0895918)
(-0.00111189 -0.000442303 0.166718)
(1.61514e-05 0.0023887 0.0895349)
(-0.00114263 -0.00246285 0.0196786)
(0.000766518 0.000351978 0.162957)
(0.00202788 -0.00157403 0.0238118)
(0.00168495 0.000849088 0.0380728)
(-0.001003 -0.000298715 0.185788)
(-0.000378476 -0.000244645 0.138694)
(-0.00316763 0.00166241 0.0236369)
(-8.47013e-05 -0.000973658 0.118832)
(-0.0013215 -0.0020929 0.12225)
(-0.00255717 0.000333164 0.168477)
(0.000299565 -0.000458349 0.185038)
(0.00188873 -0.00195574 0.022544)
(0.000198986 0.000652074 0.184472)
(-2.97362e-05 9.16417e-05 0.189725)
(-0.000444475 -0.000565401 0.17651)
(-0.00107048 0.000469305 0.134457)
(-0.000928355 0.000592856 0.13732)
(-0.000328824 -0.000438657 0.0927701)
(0.00019429 -0.000751338 0.173795)
(4.19841e-06 0.00155044 0.0265003)
(-0.000195025 -0.000503349 0.162327)
(0.000251452 0.000669004 0.138931)
(-0.000247481 0.000231817 0.188842)
(-0.000924432 0.000688653 0.172213)
(0.00037905 -0.000648287 0.115056)
(0.000978115 -0.00118263 0.056338)
(-0.000651667 -0.00138766 0.0216119)
(0.000665936 0.000415993 0.0266982)
(-0.0014076 0.000226437 0.164697)
(-0.00275988 0.00111911 0.0191738)
(-0.000815906 -0.00078285 0.0609746)
(-0.000932592 0.00283143 0.049715)
(-0.000807022 -0.000873809 0.17038)
(-0.000535003 1.94334e-05 0.177238)
(-0.000546067 0.000717887 0.155124)
(0.00103194 0.00078414 0.0564608)
(0.00293189 3.55656e-05 0.101015)
(4.49364e-05 0.004082 0.037978)
(0.000230047 -0.00167443 0.0539217)
(-0.00029416 0.000891328 0.15953)
(0.000381038 -0.00129933 0.0956088)
(-0.0127436 -0.00153115 0.107733)
(0.000251934 -0.00209934 0.0881029)
(-0.000409091 -5.7126e-05 0.0406711)
(0.00217839 -0.000168028 0.0614652)
(-0.000738926 -0.00176674 0.106051)
(-0.00044224 -0.000107547 0.179612)
(0.000453213 -0.00118719 0.18808)
(-0.00058122 0.000924331 0.189053)
(0.000173037 0.00137561 0.163105)
(-0.00599611 -0.000599354 0.0969344)
(-0.00104252 -0.000224251 0.125576)
(-0.00125532 0.000264134 0.169314)
(0.000803785 0.000232887 0.162464)
(0.00111926 0.000294773 0.165334)
(-0.00272461 -0.00219366 0.0546303)
(0.00261898 -0.00112002 0.0211039)
(0.00141176 0.000149098 0.150852)
(0.00108276 0.00254105 0.0374571)
(3.46876e-05 -9.94733e-05 0.0298994)
(-0.00188481 -0.000121406 0.163193)
(0.000399048 5.13844e-05 0.145323)
(-0.0020637 0.00255713 0.0596158)
(-0.000400911 -0.000645314 0.176903)
(0.000456993 0.000831725 0.168523)
(-0.000663588 3.30204e-05 0.187698)
(-0.00134165 8.80939e-05 0.177515)
(-8.45994e-05 -0.00149488 0.0310127)
(-0.00027304 0.000172216 0.160534)
(-0.000906442 0.000217123 0.181466)
(0.000316435 0.000770993 0.0551561)
(-0.000174274 -0.0010168 0.186414)
(-0.000256732 0.000312034 0.179385)
(0.000713704 0.000508769 0.130282)
(0.000612462 0.000850198 0.121595)
(-0.000324469 -0.00196352 0.152967)
(0.000581454 0.00106751 0.142962)
(-0.000329885 0.000181127 0.0673583)
(-0.000603421 0.0014822 0.0301338)
(0.000336706 0.00245365 0.0331591)
(0.000467285 -0.000302528 0.0921236)
(-0.0126137 -6.78547e-05 0.0862525)
(-0.00735699 0.000763442 0.0746066)
(0.000396691 -0.00039353 0.0805195)
(0.00154226 -0.00131545 0.1127)
(-0.00079001 0.00064374 0.130677)
(-0.00451289 0.000196701 0.159614)
(0.000371819 0.00114677 0.15773)
(-0.0005055 -0.000857655 0.130785)
(8.12034e-05 -0.000588092 0.14929)
(-0.000882031 -9.43257e-05 0.14997)
(-0.00042979 0.000887807 0.0297133)
(-0.0226239 0.000816821 0.113926)
(0.000440816 0.0014075 0.0557945)
(-0.000906508 0.00152633 0.0390698)
(0.00085073 0.000329315 0.0394495)
(0.0002546 0.000735383 0.163287)
(-0.000491109 0.000294223 0.0916163)
(-0.00126798 0.000498874 0.161985)
(-0.00120635 0.00146544 0.0187284)
(0.000333429 -0.000367604 0.124957)
(0.00109531 -0.000680198 0.0422106)
(-0.000119234 0.000171879 0.16767)
(-0.000511523 0.000604551 0.0455755)
(0.00162153 0.000732369 0.0596836)
(0.000725937 0.00279996 0.103153)
(-0.00157785 -0.00043761 0.151973)
(0.00245237 -0.000222971 0.0183948)
(-0.000133012 0.00220825 0.0521212)
(7.64202e-05 -0.000585626 0.132182)
(8.41008e-05 -0.0022328 0.0219009)
(-0.00962388 -0.000289312 0.13086)
(0.000563375 -0.00267962 0.113996)
(-0.000430618 -0.00212962 0.130668)
(0.00225595 -0.00271811 0.0920961)
(0.00229902 0.000786341 0.0856591)
(0.000508633 3.79143e-05 0.163539)
(-0.0101923 -0.00323052 0.0771901)
(-7.71668e-05 -5.47491e-05 0.188068)
(-0.0124779 0.000843381 0.111388)
(-0.00214761 0.00156762 0.0569989)
(-0.000326658 0.00141707 0.0602732)
(0.000255839 -0.000151103 0.184042)
(0.000391882 -0.000127283 0.18317)
(0.000593235 -0.000521617 0.0501387)
(-0.000441212 -0.000549653 0.13187)
(-0.00215749 0.000698762 0.0949458)
(-0.000172717 -0.000496944 0.184972)
(0.000411684 -0.00088895 0.184172)
(-0.00101975 -0.00339649 0.0433052)
(-0.000376763 0.00108392 0.131398)
(0.00244972 -0.000232239 0.145414)
(-0.00086631 -0.000311891 0.148007)
(0.000267125 -0.000929529 0.157514)
(0.00233722 -0.00124878 0.0203266)
(-0.00259769 -0.000674113 0.019921)
(-0.00146665 0.00137405 0.125402)
(-0.000128102 -6.5023e-05 0.179737)
(0.00111382 0.000975209 0.186361)
(-0.00217398 0.00117059 0.0326175)
(0.00142861 -0.00088653 0.172177)
(-0.00132036 -0.000267147 0.104258)
(0.000156829 -0.000108098 0.180038)
(-0.000643999 0.000915361 0.180473)
(0.000369018 -0.000415811 0.18635)
(0.000103545 -0.000957483 0.176911)
(-0.000343982 -0.00159689 0.175523)
(0.000283359 -0.000541613 0.0858559)
(-0.000495915 0.000371716 0.183804)
(-0.0017527 0.00213282 0.0536912)
(-0.000453616 0.000328636 0.169846)
(-0.000946543 -0.000610059 0.106727)
(-0.000974325 -0.000482075 0.15443)
(-0.000253073 -5.24176e-05 0.179266)
(-0.000177863 0.00040962 0.149034)
(0.00098667 -0.000963321 0.145079)
(0.00165774 0.00250812 0.0382041)
(0.000870171 -2.52789e-05 0.0320499)
(-0.00182174 -0.00187434 0.019871)
(-0.00869471 5.71196e-05 0.153329)
(0.000259843 -0.000119049 0.19236)
(-0.000932286 0.000261894 0.139416)
(-0.000161502 -0.000872429 0.124739)
(0.00108774 0.000232098 0.0290808)
(0.000665423 -0.00249286 0.0222835)
(-0.000483399 -0.00170021 0.11186)
(-0.000900113 0.00111813 0.154018)
(-0.000438249 -0.000680251 0.179781)
(0.000573742 -3.34753e-05 0.155019)
(-0.00135187 0.000227776 0.134021)
(-0.000281495 -0.000194674 0.191676)
(0.00121179 0.000264322 0.133196)
(-0.00103107 0.00215107 0.0249185)
(0.000272535 0.000867249 0.120777)
(0.00253368 -0.0014225 0.0546351)
(-0.00716172 -0.000787521 0.0704798)
(-0.000511309 0.000433362 0.155406)
(0.000446848 -0.000370277 0.0903542)
(-7.59822e-05 0.000262482 0.146675)
(-0.0032678 0.00207603 0.0192762)
(-2.06372e-05 -0.000594383 0.183746)
(-0.000188432 0.000158328 0.184922)
(-0.000457375 -0.000529313 0.182236)
(0.00062308 -0.00064854 0.0886177)
(0.000685059 -0.00184011 0.154288)
(-0.000268962 -0.000443779 0.177093)
(-0.00015531 0.000484435 0.119507)
(-0.000493945 0.000113182 0.187133)
(-0.00529652 -0.00051565 0.0976449)
(-0.000425018 -8.47168e-05 0.174013)
(-0.00266908 0.00124952 0.148874)
(0.00139964 -0.00122311 0.0193121)
(-0.000186429 -0.000257808 0.183286)
(0.00137767 0.00180451 0.114878)
(-0.00281808 -0.00261872 0.0436146)
(-0.00103222 0.00143328 0.0882551)
(-7.61999e-05 0.000200763 0.170204)
(-5.29253e-05 -0.00121302 0.126881)
(0.000890561 0.00212033 0.081194)
(-0.00209882 0.00148307 0.0191225)
(-0.000272348 -4.00181e-05 0.178035)
(0.000588172 0.00242697 0.122804)
(-0.000767958 -0.00013836 0.162471)
(-0.000758711 -0.000220653 0.122235)
(-0.00212665 0.000603951 0.0346563)
(0.000264834 -1.65923e-05 0.140642)
(-0.00390412 0.000316972 0.0257214)
(8.76917e-05 0.000820549 0.164887)
(-0.0119544 0.000601328 0.102281)
(0.00158993 0.000468968 0.171367)
(-0.000192917 0.00171408 0.048697)
(-0.00129104 0.00151411 0.10321)
(-6.48687e-05 0.00119672 0.0921304)
(0.00189543 -0.00162973 0.0326972)
(9.3173e-05 4.26786e-05 0.189576)
(-0.000287663 -0.000626873 0.176566)
(-0.00196883 -0.000773538 0.0204142)
(-0.000517905 5.52202e-05 0.164321)
(-0.000593115 0.000508942 0.188871)
(-0.000558054 0.00205424 0.0348714)
(0.0014515 0.00213908 0.0584851)
(-0.00132471 0.00189449 0.0508438)
(-0.000715367 -0.000149844 0.155091)
(0.000165292 -0.000479648 0.184095)
(-0.00122648 0.00120831 0.0324151)
(0.00161803 -0.000740526 0.0506656)
(-0.000187085 0.00104793 0.0534947)
(0.00124915 0.00103574 0.112654)
(-0.000245322 -0.000566077 0.186101)
(-0.00253204 -0.00175987 0.0218286)
(0.000896437 0.000250703 0.160516)
(-0.00393241 -0.000809433 0.151952)
(0.000247043 -0.00103111 0.184272)
(-0.00234857 -0.0048304 0.0900998)
(0.000259721 0.000337796 0.170505)
(0.00107483 -0.00206794 0.0212297)
(-0.00126793 -0.000279509 0.165601)
(0.000147698 -0.000344816 0.0254661)
(-0.000350034 -0.00176367 0.0585036)
(-7.23307e-05 0.00126576 0.154989)
(-0.00104423 0.00147846 0.0572731)
(-0.00255633 0.00152474 0.0190585)
(0.000338154 -0.00124225 0.0344047)
(0.000450393 0.00276015 0.0424256)
(0.000760348 -0.00180616 0.0555099)
(-0.000883128 -0.000201479 0.145984)
(1.02028e-05 0.00109424 0.0473727)
(0.00107669 -0.00175417 0.0560776)
(-0.0155362 0.000628456 0.128246)
(-0.000291514 -0.000329016 0.173616)
(0.0014579 1.63737e-05 0.0223255)
(0.000160079 0.00115377 0.104192)
(-0.00851084 -0.00430986 0.0812682)
(0.000117846 0.000304908 0.174775)
(-0.00112323 0.000813072 0.0556482)
(-0.000912087 -0.000685787 0.16921)
(0.00122043 0.00244849 0.0541854)
(-0.000640821 0.000710284 0.121132)
(-0.000663931 0.000708909 0.181162)
(0.0024755 -0.004077 0.0477518)
(0.000112613 -0.000204334 0.179197)
(-0.00319788 -0.000798474 0.0475023)
(0.00243865 -0.00154046 0.0177491)
(-0.000492631 0.000822393 0.146164)
(4.65823e-05 0.000338882 0.184237)
(-0.00096887 0.000612594 0.127882)
(0.000649253 -0.00171811 0.123069)
(0.000776753 0.000111962 0.183511)
(0.00171826 -0.000200877 0.0574609)
(0.00074362 -0.000253098 0.170349)
(0.00116392 0.00264181 0.0539719)
(-1.13149e-06 -0.000189806 0.178439)
(0.00173425 0.000840857 0.124104)
(-0.00305407 -0.00204967 0.0260718)
(-0.00130048 0.000227833 0.15438)
(0.00103843 -0.00115819 0.0489251)
(0.00116281 0.0022141 0.024211)
(-0.00139195 0.000570703 0.147868)
(-0.00155471 7.82587e-05 0.0404787)
(-6.48041e-06 -1.65902e-05 0.137004)
(-0.000234963 0.000997607 0.184687)
(-8.25657e-05 0.000280526 0.129842)
(8.05875e-05 0.00338273 0.0507925)
(0.000961221 0.000112825 0.183683)
(0.00179772 0.000380176 0.0865313)
(2.20429e-05 0.000174719 0.19093)
(-0.000446488 0.000258634 0.185047)
(-0.000473822 0.00101775 0.185461)
(-0.000545338 0.000454205 0.183537)
(0.00284678 -0.00111696 0.0412608)
(0.000295906 0.000416684 0.0485904)
(0.000839035 1.09942e-05 0.181993)
(0.000503384 -0.00163015 0.163561)
(0.000502686 0.00231011 0.0294229)
(0.000755372 -0.000157084 0.163517)
(-1.13991e-05 0.000384771 0.184957)
(3.80265e-05 0.000443664 0.180348)
(0.000335894 0.000572807 0.186212)
(-0.00173033 0.000646828 0.113138)
(-0.00152882 0.00217396 0.019863)
(0.000510864 -2.8883e-05 0.181164)
(0.000711754 -0.00124827 0.0970376)
(-0.000590386 0.00118089 0.152593)
(-0.000157798 0.000358882 0.0924982)
(-0.00159953 -0.00104662 0.0270009)
(-0.000311539 -0.000428184 0.186511)
(-0.00209496 0.00262114 0.0880786)
(-0.000123819 -0.000222984 0.131226)
(0.000140574 0.000215583 0.189303)
(-0.000580083 0.00150577 0.140482)
(0.00142869 0.00191681 0.0159966)
(-0.00212197 0.00101042 0.0203205)
(-0.000105783 0.000689019 0.180623)
(0.00136932 -0.000544878 0.171712)
(-0.00108226 0.000459652 0.189795)
(-0.000926177 -0.00106896 0.15376)
(-0.000324854 0.00145919 0.0886117)
(-0.000481892 0.00108604 0.149443)
(3.02152e-05 0.00099031 0.179699)
(0.000663794 0.00156608 0.0186365)
(-0.000539745 0.000744673 0.183119)
(-0.015134 0.000880655 0.135022)
(-5.31604e-05 0.00194274 0.0345056)
(-0.000382582 0.00337785 0.051568)
(-0.000566176 0.000760076 0.143334)
(0.0016747 -0.000792513 0.139682)
(8.93076e-05 -0.000441764 0.136466)
(0.000728605 -0.000569573 0.121147)
(-0.00293377 0.00215253 0.101134)
(0.000335806 2.02971e-05 0.188592)
(0.000641564 -0.00302239 0.0943575)
(0.000283883 -0.000326335 0.179237)
(0.000214991 0.000969904 0.174988)
(-4.23786e-06 -0.000221838 0.190809)
(-1.57956e-05 -0.000201811 0.179182)
(0.00153431 0.00108968 0.0371191)
(2.62428e-05 1.90422e-05 0.16589)
(-0.000275495 -0.00151557 0.0300071)
(-0.010581 -0.00143543 0.0944312)
(0.00195839 -0.0013701 0.0563324)
(-0.0133209 -7.13646e-05 0.127248)
(0.000653968 0.000755348 0.128524)
(-0.0195376 0.000457813 0.117473)
(7.07504e-05 0.00063254 0.174199)
(-0.000647532 -9.09831e-05 0.178818)
(-0.00157036 0.000153061 0.154925)
(0.000162872 0.000579516 0.174931)
(-0.000594417 -0.000189579 0.0307783)
(-0.00455903 0.000140667 0.100941)
(-0.0161138 0.00113187 0.112495)
(-0.000200208 -0.00023003 0.181196)
(-0.000780258 0.0021629 0.108847)
(-0.0143574 0.00092639 0.136948)
(-0.00604104 0.000143276 0.157248)
(0.000530113 0.0011423 0.107666)
(-0.00125589 -0.00048818 0.0323523)
(0.0013371 0.00249494 0.0503124)
(-0.000196838 -0.000117008 0.0223102)
(0.00118764 0.00110288 0.0210967)
(-0.000158576 4.07747e-06 0.0316821)
(-0.0111872 0.000278239 0.133622)
(-0.000811885 -0.00069199 0.137837)
(-0.00204141 -0.00229402 0.0214215)
(-0.00257672 0.000701689 0.0203243)
(0.000267871 -4.71141e-05 0.19088)
(-0.0149138 0.00327663 0.0961424)
(-0.00156015 0.000144301 0.0341267)
(-0.000673852 -2.19527e-05 0.147488)
(-0.00151467 0.000983402 0.102117)
(0.00120442 -0.000415422 0.132641)
(0.00123592 0.00190768 0.0383101)
(-0.00104893 -0.00132235 0.0507226)
(0.000178476 0.00122258 0.108083)
(0.000895028 0.000240199 0.173053)
(0.000556343 0.000541321 0.152619)
(-0.00168585 0.00229103 0.032388)
(-0.000540664 -0.00191206 0.0217936)
(-0.0189041 0.000200059 0.106234)
(-0.00243315 0.00181507 0.0232896)
(-0.000160774 0.00124706 0.132968)
(-0.0031553 -0.00101967 0.0244453)
(0.000509769 0.00210418 0.100661)
(-0.00122109 -0.000116529 0.180651)
(0.00118717 0.000193748 0.180023)
(-0.000337738 -0.000893671 0.039865)
(0.000940795 -0.000498285 0.0946153)
(-0.00178646 -0.000223964 0.0321313)
(-0.00317223 -0.000207723 0.0252751)
(-0.000307842 -0.000772033 0.181777)
(-0.00236319 0.00117157 0.0171465)
(0.000581247 0.000335892 0.16828)
(-0.000330844 -0.00228853 0.0437904)
(-0.000263024 0.00133537 0.156112)
(-0.000248989 0.000774551 0.14063)
(0.00294198 0.00118479 0.019681)
(-0.00100132 -0.00243296 0.052512)
(6.79921e-05 0.000821372 0.148742)
(-0.000133581 0.00151145 0.0310654)
(0.000515434 0.000256476 0.161886)
(-0.00124107 0.00345749 0.0496097)
(0.000194959 0.000113955 0.104495)
(0.000473722 -0.00010189 0.185797)
(0.00119373 -1.99007e-05 0.0329179)
(-0.00284074 -0.000587678 0.0213551)
(-0.000942663 -0.000337903 0.0460723)
(-0.0177776 9.52775e-05 0.110797)
(-0.000590788 -2.89988e-05 0.100469)
(3.65141e-05 0.00347497 0.0515461)
(0.00113258 -0.000235804 0.080362)
(0.000404863 0.00116077 0.0275143)
(0.000717648 -4.74606e-05 0.187222)
(0.000998366 0.00133967 0.021257)
(-0.000817347 0.000177559 0.171197)
(4.69142e-05 -0.00020696 0.14393)
(-0.000658364 -2.44889e-05 0.169712)
(-0.00172223 -0.000185384 0.0174989)
(0.000172015 -0.000508613 0.151127)
(-0.000900124 0.000457155 0.0792205)
(-0.000112609 4.49027e-06 0.158388)
(0.000189958 0.000585496 0.0501205)
(-0.0146183 0.000391489 0.108167)
(-0.0012317 0.000449009 0.160384)
(0.000594582 -7.98302e-05 0.0359688)
(-0.000356375 0.000249481 0.191537)
(-0.0204593 0.0023793 0.10887)
(-0.000764867 -0.000424083 0.115476)
(-0.000697485 -0.00167708 0.0298024)
(-0.00116424 0.0022819 0.0460454)
(-0.000223294 0.000297503 0.184901)
(0.00110769 -0.000916332 0.130457)
(-0.00102145 0.00122186 0.0289991)
(-0.000213884 -0.00218707 0.106963)
(0.00137187 0.00113587 0.0562845)
(-0.00149714 0.00176422 0.0220364)
(-0.000441641 9.78933e-05 0.181594)
(-0.0100995 0.000487038 0.103344)
(-0.000982983 -0.00212026 0.128757)
(-0.000110503 0.000582037 0.175322)
(0.000538374 0.00069854 0.179617)
(5.00726e-05 -0.000261474 0.17111)
(0.000755248 -0.00035444 0.130761)
(0.00101753 0.000348732 0.0395364)
(-0.000458875 0.00244053 0.0362986)
(-0.000181337 0.000693728 0.184218)
(-0.0127977 -0.000551426 0.107584)
(0.00019981 0.00111856 0.118655)
(0.00148849 -0.00126368 0.125849)
(0.00184259 -0.000921113 0.0772023)
(-0.000633516 0.00145883 0.147863)
(0.000650809 0.000960354 0.164496)
(-0.000923172 -0.000948957 0.0954196)
(-0.00154192 0.00109145 0.100451)
(-0.00137298 0.00190117 0.0354246)
(-0.000486047 -0.000297592 0.067433)
(-0.00245379 -0.00188724 0.0391461)
(0.00096583 -0.000942504 0.151641)
(0.000454825 -0.000290664 0.177046)
(-0.000780397 0.00268044 0.0900837)
(-1.22597e-06 -0.00099084 0.0949764)
(0.00109721 -0.00166385 0.0189973)
(0.000220462 -0.000733636 0.0750663)
(-0.00264516 -0.00124695 0.0537198)
(-0.000886295 0.000496653 0.178166)
(0.00102479 0.000192796 0.180558)
(-0.0112932 -0.000731342 0.104824)
(-0.00104641 0.000536256 0.164126)
(-0.00142949 0.00259717 0.077678)
(-0.00832982 0.000379868 0.101708)
(0.000734708 -0.00216305 0.131297)
(0.00161975 0.000797611 0.0234217)
(0.000630223 -0.000400136 0.180588)
(-0.000168273 0.00128111 0.0459823)
(-0.0013536 -0.000231612 0.138658)
(0.00325604 -0.00169149 0.0256144)
(0.000633972 -0.000289629 0.176935)
(-0.00507185 -0.000291843 0.101647)
(-0.000759135 -8.17036e-05 0.158597)
(0.000525128 -0.000434626 0.112235)
(-0.00056814 0.00077267 0.146123)
(0.000232205 0.00134531 0.149463)
(-0.000584264 -0.000160961 0.188046)
(0.000193708 0.00191952 0.0314595)
(-6.74566e-05 -0.00110155 0.0435166)
(-0.000296992 0.000656195 0.0262516)
(-0.000222465 0.000814394 0.17936)
(0.000500116 -4.97285e-05 0.157869)
(0.00143997 0.000780409 0.135087)
(0.00078165 -0.00130162 0.160119)
(0.000217722 -0.000567952 0.019085)
(9.57465e-05 0.000322656 0.0944872)
(0.00156474 -0.00143276 0.0853071)
(-0.000611241 -0.000265981 0.178635)
(-0.000921521 -7.99145e-05 0.124616)
(9.06078e-05 -0.0005618 0.145189)
(-0.00126548 0.000441166 0.102706)
(-0.000273263 -0.000174297 0.183652)
(-0.00254867 0.00185469 0.0188101)
(0.000338861 0.00334472 0.081356)
(-0.00059933 0.000384966 0.152646)
(-0.000169726 0.0028312 0.0235718)
(0.000352135 0.00206476 0.0412746)
(-0.00103209 -0.000453279 0.0577991)
(-0.00219373 -0.000954875 0.0195403)
(0.00137661 3.42284e-06 0.0910477)
(-0.000169962 0.000319522 0.170642)
(-0.000611291 0.00219741 0.0564647)
(0.00210451 0.00183807 0.0173451)
(-0.000348549 -0.000820376 0.100589)
(0.000372491 9.02333e-05 0.023576)
(4.02509e-05 0.00137282 0.0947246)
(-0.000146058 0.000141864 0.176177)
(9.52859e-05 -1.32694e-05 0.190521)
(0.000188065 -0.000207298 0.175478)
(0.000490264 0.000682126 0.165116)
(-0.00017758 -0.000190503 0.17757)
(-0.00074221 0.00210556 0.127952)
(0.000912148 -0.00103064 0.0430338)
(0.000598494 -0.000204036 0.178243)
(5.93875e-05 -0.00103543 0.121355)
(-0.000847908 -0.00153329 0.08427)
(-0.00153498 -0.000556175 0.0926489)
(-0.000421056 -0.000125961 0.164877)
(-0.00126955 0.000645469 0.112379)
(0.000889654 0.00134912 0.0613704)
(-0.00124005 -0.00100666 0.154902)
(0.000386932 -0.00119258 0.0305657)
(0.000520669 0.000347509 0.0833748)
(0.000284828 -0.000180922 0.0925537)
(-0.000750182 0.000679308 0.0570906)
(-0.00013115 -0.000157598 0.161298)
(-0.0184111 -0.000498607 0.106007)
(-0.00968564 0.000360436 0.127217)
(-0.00055023 0.0026036 0.0297985)
(0.00169659 -0.000266312 0.0241581)
(-0.000143853 0.00223501 0.0524629)
(0.00187928 -0.000417968 0.0187032)
(-0.000639891 0.000582716 0.124428)
(0.000667093 0.0010371 0.154508)
(-0.00112892 0.0013415 0.126591)
(-0.0153374 0.00120342 0.110213)
(-0.000185172 -0.000270741 0.13253)
(0.000640305 0.000546064 0.14679)
(0.00392222 0.00281397 0.0230788)
(-0.000105965 0.000755581 0.158092)
(-0.0131557 -0.000369932 0.127574)
(-0.00124911 -0.000344869 0.0407362)