/*--------------------------------*- C++ -*----------------------------------*\
| =========                 |                                                 |
| \\      /  F ield         | OpenFOAM: The Open Source CFD Toolbox           |
|  \\    /   O peration     | Version:  2406                                  |
|   \\  /    A nd           | Website:  www.openfoam.com                      |
|    \\/     M anipulation  |                                                 |
\*---------------------------------------------------------------------------*/
FoamFile
{
    version     2.0;
    format      ascii;
    arch        "LSB;label=32;scalar=64";
    class       volVectorField;
    location    "56";
    object      momentum:angularMomentum;
}
// * * * * * * * * * * * * * * * * * * * * * * * * * * * * * * * * * * * * * //

dimensions      [1 1 -1 0 0 0 0];

internalField   nonuniform List<vector> 
59516
(
(-2.08951e-09 -1.39587e-09 2.23132e-07)
(5.59371e-10 -3.96358e-10 1.65357e-07)
(-8.79554e-10 1.12385e-09 2.02355e-07)
(-2.98428e-09 -6.30837e-10 1.72513e-07)
(-8.01885e-09 5.31787e-10 2.00011e-07)
(-5.20287e-09 2.76876e-09 5.03648e-08)
(-4.14458e-09 -2.63553e-09 2.09401e-07)
(-6.01941e-10 -1.09879e-09 1.93333e-07)
(-1.29585e-09 2.4821e-10 1.55842e-07)
(3.01547e-09 1.61143e-09 7.75913e-08)
(-3.36564e-09 -3.53134e-10 2.08471e-07)
(-5.11005e-09 -3.78957e-09 1.01645e-07)
(-2.49875e-09 -1.99482e-09 3.19127e-07)
(4.79315e-11 -1.66167e-10 1.54318e-08)
(5.59078e-10 -8.89348e-09 1.48162e-07)
(-2.38239e-09 5.86299e-09 8.30782e-08)
(-4.51371e-09 -8.3414e-10 2.69978e-07)
(-1.30622e-08 -3.61029e-09 1.59739e-07)
(-1.73383e-08 -3.50508e-09 3.2979e-07)
(-3.4374e-09 1.29296e-09 3.73711e-07)
(-2.65113e-09 1.23186e-09 9.94277e-08)
(8.45319e-10 1.88089e-09 3.17762e-07)
(-6.24008e-09 -1.53911e-09 3.51354e-07)
(8.90989e-10 5.91655e-10 3.38903e-08)
(1.33754e-12 1.3783e-09 3.12972e-07)
(-5.1497e-10 4.84169e-09 1.96811e-07)
(-6.41463e-10 3.64176e-09 5.097e-08)
(-5.84137e-09 -2.47499e-09 7.4053e-08)
(-5.91322e-09 -1.93888e-09 1.4439e-07)
(1.61746e-09 1.32509e-09 1.30144e-08)
(-3.76145e-08 2.10398e-09 1.89459e-07)
(-5.41747e-09 4.1509e-09 8.36871e-08)
(-9.91109e-10 -4.45152e-10 1.738e-07)
(-3.12434e-09 -1.77645e-09 1.73799e-07)
(-6.48408e-09 -3.11061e-11 1.33643e-07)
(-1.50332e-09 3.54788e-10 3.99273e-07)
(-1.89976e-09 9.97388e-10 1.2626e-08)
(-1.30587e-08 -4.14729e-09 1.31653e-07)
(-1.08645e-08 1.13655e-09 2.66466e-07)
(1.09713e-10 1.33087e-09 2.83084e-07)
(-1.10569e-10 -1.59613e-09 2.53972e-07)
(-3.30753e-08 -8.17957e-11 4.06986e-07)
(-1.22513e-08 2.31878e-09 3.43328e-07)
(-6.82622e-10 3.8667e-10 1.09144e-07)
(-1.0125e-08 1.35508e-09 2.64739e-07)
(2.59962e-09 7.14168e-10 1.00182e-07)
(-1.33847e-08 3.61771e-10 3.24401e-07)
(-8.263e-09 1.0356e-09 2.54931e-07)
(-3.43368e-08 3.11776e-09 2.5187e-07)
(-1.39698e-08 4.87345e-10 2.41253e-07)
(-2.8195e-08 8.18274e-10 1.63914e-07)
(-7.06182e-09 -3.36814e-09 7.44007e-08)
(9.44623e-10 -6.61955e-09 3.12743e-07)
(-7.42975e-10 1.15645e-09 2.97757e-07)
(-5.08829e-09 1.30502e-09 8.20831e-08)
(-6.0169e-09 1.03676e-09 2.46047e-07)
(-1.67697e-08 7.24312e-11 2.03473e-07)
(-7.45514e-09 -2.7918e-09 7.50324e-08)
(-3.7093e-10 -5.4114e-11 2.12871e-07)
(-1.11971e-08 -3.73334e-10 1.45847e-07)
(-4.70416e-10 5.89342e-10 2.08763e-07)
(-1.16117e-09 1.5956e-09 1.48282e-08)
(-1.4313e-09 1.15906e-10 2.71435e-07)
(-7.47074e-09 -1.15044e-10 3.44338e-07)
(-1.35518e-09 1.27037e-09 2.87212e-07)
(-1.00023e-08 1.49555e-10 2.15491e-07)
(1.37716e-10 2.00074e-09 1.75543e-08)
(-2.28096e-10 5.17092e-10 6.47707e-08)
(-3.72186e-08 6.24124e-10 1.98337e-07)
(-4.5429e-09 -1.04194e-09 1.68972e-07)
(-8.51008e-10 -1.18537e-09 5.07242e-08)
(-2.39445e-09 -8.15063e-10 1.58531e-07)
(3.45922e-09 -1.39454e-09 2.2645e-08)
(-2.29038e-09 -5.77597e-10 1.86206e-07)
(-4.18932e-10 -9.79969e-10 3.87638e-07)
(-9.62418e-09 5.13053e-10 3.60668e-07)
(-6.50634e-09 1.89772e-10 2.15163e-07)
(6.50152e-10 9.57714e-11 2.26791e-07)
(3.34526e-09 1.79104e-09 8.28026e-08)
(-1.09305e-08 9.25601e-10 1.93298e-07)
(-3.35134e-09 3.4889e-12 4.92266e-08)
(-8.89104e-09 4.88767e-10 1.71559e-07)
(-8.37695e-09 4.93486e-10 1.82896e-07)
(-2.24425e-09 1.2221e-09 1.76137e-08)
(-1.08834e-08 1.14555e-09 2.15258e-07)
(-1.42286e-09 1.79373e-09 3.86808e-07)
(6.03227e-10 1.071e-09 3.08425e-08)
(-1.75987e-09 3.88581e-10 5.02009e-07)
(-3.98779e-09 -2.09009e-09 1.08289e-07)
(-1.55371e-08 -3.86974e-09 1.66767e-07)
(-1.61237e-08 -3.58269e-11 1.83386e-07)
(-1.32981e-09 1.63158e-09 1.89589e-07)
(-7.03776e-10 -8.71868e-11 2.64605e-07)
(-8.09915e-11 1.49545e-09 1.82411e-07)
(-7.60812e-11 1.39352e-10 1.85662e-07)
(-1.87695e-08 -1.17751e-10 1.83421e-07)
(-3.70993e-10 -3.06322e-10 1.24159e-07)
(3.44624e-09 6.38382e-09 8.29129e-08)
(-4.41635e-09 -1.76031e-09 1.15089e-07)
(2.21564e-09 1.51928e-09 2.07838e-07)
(-2.02922e-09 1.44262e-09 6.07082e-08)
(2.82083e-09 1.48573e-09 2.55752e-08)
(2.84001e-09 1.48798e-09 2.25903e-08)
(-3.1355e-09 3.54214e-09 8.2979e-08)
(1.41554e-09 -8.03463e-11 2.32803e-07)
(1.08444e-10 -6.65733e-10 1.64524e-07)
(2.52998e-09 -4.46064e-09 5.38135e-08)
(-1.02993e-09 -5.15717e-10 1.35797e-07)
(-3.7392e-10 1.19301e-09 1.73124e-07)
(-4.03594e-09 6.37223e-09 1.84851e-07)
(-4.2056e-08 -5.33911e-10 2.80321e-07)
(3.12585e-09 -2.97356e-09 4.19822e-08)
(-7.2138e-09 9.27574e-09 1.83686e-07)
(-3.62227e-08 -9.14684e-11 2.19231e-07)
(-1.85406e-12 1.01766e-10 2.22505e-07)
(1.45147e-09 -1.63125e-09 1.34917e-07)
(-4.04899e-09 -2.62456e-09 1.23761e-07)
(-3.81357e-10 -6.99225e-10 1.43164e-07)
(-3.17431e-10 -8.41827e-10 1.78329e-08)
(-1.45858e-09 1.54545e-09 2.62685e-07)
(6.00613e-10 -5.58919e-11 4.27403e-07)
(-4.99053e-10 6.26057e-10 1.79928e-07)
(8.6028e-10 3.03819e-10 1.6021e-07)
(-5.60972e-10 3.68702e-10 1.86776e-07)
(-1.81126e-08 1.15685e-09 1.3308e-07)
(-5.31916e-09 1.80352e-10 1.43661e-07)
(-2.13573e-09 -1.03003e-09 3.48282e-08)
(-2.10033e-08 3.17397e-09 2.12276e-07)
(-2.37442e-08 5.59276e-09 1.63209e-07)
(2.6002e-10 -2.42631e-10 1.64938e-07)
(-8.68243e-11 -2.81286e-10 2.94727e-07)
(4.79251e-09 5.65072e-09 3.19867e-07)
(-4.96915e-10 -1.93435e-09 2.19826e-08)
(1.91177e-10 9.76602e-10 2.54709e-07)
(3.58676e-09 1.07799e-09 3.10456e-07)
(-3.42541e-09 1.66699e-09 1.94296e-07)
(-2.20142e-08 1.98496e-09 1.51779e-07)
(3.37195e-10 1.19235e-09 3.102e-07)
(-4.90666e-10 3.48071e-09 5.0566e-08)
(-1.77935e-09 1.38374e-09 1.57284e-07)
(-1.74959e-09 3.69568e-09 7.43655e-08)
(-6.92846e-10 -7.65768e-10 3.42842e-07)
(-6.26377e-10 -1.14719e-09 1.34739e-08)
(-7.01659e-10 1.21178e-09 1.49144e-07)
(-1.69786e-09 1.06513e-10 2.21711e-07)
(-4.18916e-09 1.36926e-09 2.83708e-07)
(-8.38957e-09 1.95683e-09 2.02755e-07)
(-5.92545e-09 2.2454e-09 2.04523e-07)
(9.76097e-10 -1.81756e-09 6.40329e-08)
(-6.65234e-10 2.03712e-09 2.0466e-07)
(-1.00696e-09 -2.7239e-09 3.15019e-07)
(2.41851e-10 1.93778e-09 5.06632e-08)
(2.37094e-09 2.37244e-09 3.90974e-07)
(2.52932e-10 1.74251e-10 2.18626e-07)
(-1.55287e-09 -3.57108e-09 1.56306e-07)
(-1.3189e-09 8.0432e-10 1.41401e-08)
(-8.7492e-10 -7.86629e-10 2.74027e-07)
(-4.1386e-09 2.24404e-09 3.26651e-07)
(-1.94828e-09 8.35895e-10 1.2696e-07)
(-2.19534e-09 -1.55496e-09 1.52127e-08)
(3.5847e-09 3.37927e-09 8.72105e-08)
(6.02161e-09 -3.51712e-09 1.09545e-07)
(-6.79303e-10 1.4713e-09 3.85761e-08)
(-2.0522e-10 -4.10457e-10 2.16464e-08)
(4.93628e-09 1.49389e-10 1.60045e-07)
(-2.04022e-09 2.13932e-10 3.3591e-07)
(2.25399e-09 -1.1252e-10 1.5266e-07)
(-1.66059e-09 -6.69519e-10 2.90603e-07)
(9.70147e-10 1.95816e-09 1.67845e-08)
(2.30413e-10 -9.40226e-10 2.1525e-07)
(-1.48251e-09 -1.19113e-09 8.54804e-08)
(-1.16943e-09 8.3392e-10 6.55462e-08)
(-1.78024e-10 -2.98672e-09 1.0338e-07)
(1.32395e-10 -6.14135e-10 1.50634e-07)
(7.24875e-10 1.07422e-09 8.2801e-08)
(-1.9392e-08 -1.81972e-09 4.52845e-07)
(-1.28847e-09 6.90447e-10 2.53221e-07)
(-1.43388e-08 1.16237e-09 3.10057e-07)
(8.33524e-10 -6.9417e-09 1.45664e-07)
(6.91917e-10 4.97637e-10 6.03303e-08)
(-3.0367e-09 -4.2752e-09 3.07942e-07)
(1.10562e-09 3.89935e-09 4.14004e-08)
(-1.00607e-09 -2.04844e-09 2.87751e-08)
(9.26491e-10 2.37558e-09 1.0231e-07)
(-1.30821e-10 -9.64222e-10 2.12872e-07)
(-6.11365e-10 1.11165e-09 9.51285e-08)
(-3.51098e-09 6.63222e-10 4.46901e-08)
(1.28737e-10 2.33173e-10 1.95479e-08)
(-3.94832e-10 1.15833e-10 1.89128e-07)
(3.47486e-09 1.86874e-09 2.2195e-07)
(-3.23581e-09 -2.10042e-10 1.58759e-07)
(-2.16308e-09 -6.51501e-09 1.11849e-07)
(-1.45119e-09 -5.6775e-10 2.17606e-07)
(2.57866e-09 -2.10291e-09 9.16264e-08)
(-1.44381e-09 -1.058e-10 3.39925e-07)
(4.01801e-10 7.04399e-10 2.7944e-08)
(1.23831e-09 4.35859e-10 9.4453e-08)
(4.45588e-10 -1.54286e-09 5.49132e-08)
(-7.79801e-09 -1.47603e-10 1.8258e-07)
(7.96327e-10 -1.32792e-09 2.66108e-07)
(-1.57355e-09 -2.1734e-09 7.58645e-08)
(-5.14074e-10 -3.68166e-10 2.03088e-07)
(3.89979e-10 3.47266e-09 3.06876e-07)
(1.30716e-09 -1.54638e-09 1.54299e-08)
(1.10602e-09 1.45332e-09 2.17855e-07)
(-6.26339e-10 -6.13037e-10 2.38994e-07)
(-5.86495e-10 -7.13654e-10 3.6285e-07)
(1.87451e-09 -1.22429e-09 2.0172e-07)
(1.80261e-10 -5.67666e-10 1.76088e-08)
(4.76771e-09 2.73638e-09 2.98197e-07)
(-6.36973e-10 5.55924e-09 5.90122e-08)
(-4.10371e-09 8.41399e-10 2.50691e-08)
(-1.52407e-09 1.87618e-09 2.31384e-07)
(-5.65876e-10 2.32582e-09 9.2373e-08)
(-2.29063e-09 -3.11944e-09 2.896e-07)
(5.98784e-10 -2.64e-10 2.94439e-07)
(-3.02533e-09 9.08021e-10 2.72722e-07)
(-1.63914e-09 1.1956e-09 2.08789e-07)
(-2.57297e-09 4.7697e-09 8.0625e-08)
(1.12971e-09 -1.59079e-10 2.20185e-07)
(-1.95741e-09 -5.7162e-09 1.15315e-07)
(-6.36448e-10 4.77178e-10 1.92937e-07)
(-8.50466e-10 -1.00033e-09 1.83482e-07)
(7.18652e-10 -9.89928e-10 7.10763e-08)
(5.78096e-10 -4.04134e-10 3.0496e-07)
(1.15993e-09 1.17374e-10 3.19322e-07)
(-1.09609e-09 -1.17748e-09 3.09142e-08)
(-3.53181e-09 8.07399e-10 6.32948e-08)
(2.59634e-10 9.85681e-10 2.04842e-07)
(-4.5187e-09 7.49506e-09 1.14434e-07)
(9.33124e-11 8.61676e-10 2.47779e-07)
(-3.74019e-10 3.30431e-10 1.85221e-07)
(-1.42449e-09 -7.65617e-10 3.37197e-07)
(-1.24449e-09 -2.14644e-09 2.57907e-08)
(-1.23537e-09 -1.10609e-09 3.02093e-08)
(-1.71364e-09 -1.83201e-11 3.77661e-08)
(-9.50206e-11 -6.57296e-10 1.06101e-07)
(-2.33314e-09 -3.87838e-10 1.70821e-07)
(-4.35638e-09 1.10232e-09 4.24817e-07)
(2.95877e-09 -4.83588e-10 8.42696e-08)
(6.75922e-10 4.78682e-10 2.65277e-07)
(2.18725e-09 1.55497e-09 1.80087e-08)
(1.4781e-09 1.08493e-09 1.06972e-07)
(2.43577e-09 1.51189e-09 2.5792e-08)
(6.47861e-10 4.47766e-10 1.72492e-07)
(-7.26792e-10 -6.19035e-10 1.49105e-07)
(-1.50265e-09 3.62151e-10 1.97727e-07)
(-2.4451e-09 4.39418e-09 1.81489e-07)
(-9.28633e-10 -5.25909e-10 2.83714e-07)
(-1.07866e-09 -5.39214e-10 1.96365e-07)
(-1.64563e-10 -2.57576e-10 3.87653e-07)
(-1.06237e-09 5.4665e-11 2.12841e-07)
(8.56289e-10 2.34595e-10 2.04786e-07)
(6.48465e-10 2.31846e-09 2.8232e-07)
(-1.77224e-09 2.5852e-09 2.8375e-07)
(-1.43997e-09 1.12219e-09 3.03935e-07)
(-5.09987e-10 1.44502e-10 1.08693e-07)
(-3.88253e-09 7.9144e-10 2.86271e-07)
(2.36295e-09 3.70068e-09 7.76877e-08)
(-4.58044e-10 3.3579e-09 9.47527e-08)
(-1.96987e-09 1.13489e-09 2.16428e-07)
(-3.76046e-10 6.19348e-10 2.66345e-07)
(7.28005e-09 1.54212e-09 2.35318e-07)
(6.74748e-10 2.9208e-10 2.95293e-07)
(1.58997e-09 -4.02605e-12 7.27666e-08)
(-1.79749e-10 -4.90838e-09 1.03896e-07)
(-1.30501e-09 -2.36156e-09 3.08656e-07)
(4.73275e-09 2.44022e-10 2.10045e-07)
(-7.13976e-10 -1.18274e-09 5.91685e-08)
(-7.276e-10 2.00461e-09 7.21626e-08)
(-4.49214e-09 3.99212e-09 1.63655e-07)
(-1.89457e-10 -2.96577e-10 1.93007e-07)
(-4.83653e-09 5.99724e-09 3.01619e-07)
(-1.28745e-09 2.52571e-09 1.45322e-07)
(-2.27232e-09 -9.03917e-10 3.40715e-07)
(3.34581e-11 4.94825e-09 1.85474e-07)
(-1.08032e-09 -2.32855e-09 1.86055e-08)
(1.41796e-09 6.51114e-10 3.01449e-07)
(2.34599e-09 -1.82094e-09 2.75471e-08)
(2.23208e-09 1.1248e-09 5.04358e-08)
(-2.01263e-09 -5.99406e-10 3.72806e-07)
(-6.79411e-10 -4.39167e-10 2.48972e-07)
(-3.58309e-09 1.88045e-09 2.6737e-08)
(-2.09509e-10 -2.40835e-09 2.93931e-07)
(-2.62065e-09 -4.1504e-09 2.42432e-07)
(-3.83807e-09 5.00048e-10 2.52869e-07)
(5.51661e-10 -8.44068e-10 3.40755e-07)
(1.85951e-09 -1.92548e-09 2.21952e-08)
(3.17408e-10 1.04014e-09 2.94256e-07)
(-2.47823e-11 7.63745e-11 1.58118e-07)
(-4.16096e-10 -5.29301e-10 1.65241e-07)
(-2.0037e-09 8.78432e-10 2.51672e-07)
(-1.15167e-09 7.35466e-10 1.70352e-07)
(-6.13512e-10 -8.18436e-10 1.73088e-07)
(3.03451e-10 -1.17348e-09 2.71441e-07)
(5.88065e-12 2.17167e-09 3.71186e-08)
(-3.46447e-10 -8.94159e-10 2.88362e-07)
(3.43098e-10 9.12833e-10 1.89567e-07)
(-5.0153e-10 4.69784e-10 3.82695e-07)
(-1.48246e-09 1.10436e-09 2.76169e-07)
(1.00381e-09 -1.71682e-09 3.04696e-07)
(2.28393e-09 -2.76149e-09 1.31551e-07)
(-5.71019e-10 -1.21593e-09 1.89373e-08)
(8.44897e-10 5.27786e-10 3.3873e-08)
(-4.39296e-09 7.06685e-10 5.14001e-07)
(-2.49748e-09 1.01271e-09 1.73508e-08)
(-2.24784e-09 -2.15677e-09 1.67987e-07)
(-1.3309e-09 4.04072e-09 7.09481e-08)
(-1.52173e-09 -1.64767e-09 3.21271e-07)
(-1.15473e-09 4.19441e-11 3.82542e-07)
(-1.11072e-09 1.46021e-09 3.15529e-07)
(2.17505e-09 1.65275e-09 1.19004e-07)
(8.41631e-09 1.02095e-10 2.89973e-07)
(7.69647e-11 6.99144e-09 6.50468e-08)
(3.68739e-10 -2.68393e-09 8.64303e-08)
(-3.7415e-10 1.13371e-09 2.02911e-07)
(6.07229e-10 -2.07064e-09 1.52364e-07)
(-3.1875e-08 -3.82979e-09 2.69468e-07)
(5.3795e-10 -4.48267e-09 1.88125e-07)
(-6.19331e-10 -8.64843e-11 6.15727e-08)
(3.52708e-09 -2.72059e-10 9.95198e-08)
(-1.41641e-09 -3.38659e-09 2.03285e-07)
(-5.47093e-10 -1.33046e-10 2.22198e-07)
(1.06182e-09 -2.78142e-09 4.40645e-07)
(-7.25742e-10 1.15417e-09 2.36062e-07)
(5.23214e-10 4.15945e-09 4.93182e-07)
(-1.0304e-08 -1.02996e-09 1.66577e-07)
(-2.76946e-09 -5.95722e-10 3.33592e-07)
(-2.10112e-09 4.42101e-10 2.83393e-07)
(9.86197e-10 2.85739e-10 1.99334e-07)
(2.31384e-09 6.09381e-10 3.41794e-07)
(-5.03542e-09 -4.05416e-09 1.00964e-07)
(2.75388e-09 -1.17771e-09 2.21909e-08)
(2.75989e-09 2.91477e-10 2.94905e-07)
(1.60892e-09 3.77588e-09 5.56593e-08)
(3.12302e-11 -8.95585e-11 2.69193e-08)
(-4.61476e-09 -2.97249e-10 3.99561e-07)
(5.46269e-10 7.03417e-11 1.98937e-07)
(-3.67577e-09 4.55465e-09 1.06185e-07)
(-5.9305e-10 -9.54584e-10 2.61685e-07)
(9.01695e-10 1.64108e-09 3.32513e-07)
(-1.56701e-09 7.79752e-11 4.43234e-07)
(-2.07644e-09 1.36341e-10 2.74736e-07)
(-8.15137e-11 -1.44035e-09 2.98815e-08)
(-5.4146e-10 3.41519e-10 3.18352e-07)
(-1.13374e-09 2.71569e-10 2.26971e-07)
(5.45776e-10 1.32978e-09 9.51312e-08)
(-2.88494e-10 -1.68323e-09 3.08592e-07)
(-3.72414e-10 4.52634e-10 2.60214e-07)
(9.41263e-10 6.70986e-10 1.71821e-07)
(9.93844e-10 1.37962e-09 1.97313e-07)
(-5.90067e-10 -3.57078e-09 2.78179e-07)
(8.15944e-10 1.49802e-09 2.00616e-07)
(-3.68985e-10 2.02596e-10 7.5342e-08)
(-3.85358e-10 9.46566e-10 1.92441e-08)
(3.82108e-10 2.7845e-09 3.76303e-08)
(1.08224e-09 -7.00658e-10 2.13359e-07)
(-3.91711e-08 -2.10718e-10 2.67851e-07)
(-1.14181e-08 1.18487e-09 1.1579e-07)
(5.31283e-10 -5.2705e-10 1.07839e-07)
(3.32611e-09 -2.83696e-09 2.43054e-07)
(-1.84924e-09 1.50685e-09 3.05886e-07)
(-6.56949e-09 2.86341e-10 2.32352e-07)
(8.49258e-10 2.6193e-09 3.60265e-07)
(-1.29214e-09 -2.1923e-09 3.34308e-07)
(1.21767e-10 -8.81861e-10 2.23865e-07)
(-8.1691e-10 -8.73616e-11 1.38898e-07)
(-3.29805e-10 6.81271e-10 2.28009e-08)
(-4.78763e-08 1.72854e-09 2.41089e-07)
(6.63439e-10 2.11832e-09 8.39721e-08)
(-1.41385e-09 2.38057e-09 6.09358e-08)
(1.39384e-09 5.3955e-10 6.4634e-08)
(2.73034e-10 7.88627e-10 1.75109e-07)
(-9.06784e-10 5.43253e-10 1.69161e-07)
(-1.86202e-09 7.3259e-10 2.37873e-07)
(-1.03631e-09 1.25889e-09 1.60886e-08)
(4.46238e-10 -4.91974e-10 1.67233e-07)
(1.60068e-09 -9.94036e-10 6.16863e-08)
(-1.35e-10 1.94606e-10 1.89841e-07)
(-5.95958e-10 7.04342e-10 5.30985e-08)
(3.88431e-09 1.75436e-09 1.4297e-07)
(1.49478e-09 5.76542e-09 2.12403e-07)
(-1.92623e-09 -5.3423e-10 1.85528e-07)
(2.37821e-09 -2.16228e-10 1.78386e-08)
(-2.76683e-10 4.59346e-09 1.08419e-07)
(1.36758e-10 -1.04801e-09 2.36547e-07)
(9.15719e-11 -2.43115e-09 2.38464e-08)
(-2.1305e-08 -6.4047e-10 2.89693e-07)
(8.83629e-10 -4.20286e-09 1.78797e-07)
(-9.89511e-10 -4.89363e-09 3.00259e-07)
(4.77403e-09 -5.75205e-09 1.94893e-07)
(2.44253e-09 8.35425e-10 9.1006e-08)
(1.23831e-09 9.23057e-11 3.98149e-07)
(-1.87507e-08 -5.94321e-09 1.42007e-07)
(-1.41399e-10 -1.00321e-10 3.44611e-07)
(-1.74221e-08 1.17756e-09 1.55523e-07)
(-5.1495e-09 3.75881e-09 1.3667e-07)
(-7.5409e-10 3.27131e-09 1.3914e-07)
(3.92287e-10 -2.31692e-10 2.82198e-07)
(1.19305e-09 -3.875e-10 5.57642e-07)
(9.13241e-10 -8.0299e-10 7.71847e-08)
(-1.11279e-09 -1.38629e-09 3.32592e-07)
(-2.64232e-09 8.55787e-10 1.16282e-07)
(-4.24537e-10 -1.22148e-09 4.54659e-07)
(7.74311e-10 -1.67197e-09 3.46397e-07)
(-1.57547e-09 -5.24746e-09 6.6905e-08)
(-6.18112e-10 1.77827e-09 2.1557e-07)
(6.42072e-09 -6.08698e-10 3.81129e-07)
(-1.33295e-09 -4.79891e-10 2.27731e-07)
(3.78025e-10 -1.31543e-09 2.22907e-07)
(2.59542e-09 -1.38674e-09 2.25722e-08)
(-2.47671e-09 -6.42718e-10 1.89932e-08)
(-3.3984e-09 3.18383e-09 2.9057e-07)
(-2.09018e-10 -1.06095e-10 2.93269e-07)
(1.37768e-09 1.20623e-09 2.30508e-07)
(-2.28143e-09 1.22845e-09 3.42297e-08)
(7.57378e-10 -4.69994e-10 9.12799e-08)
(-3.74606e-09 -7.57935e-10 2.95796e-07)
(1.52132e-10 -1.04861e-10 1.74647e-07)
(-1.13955e-09 1.61973e-09 3.19347e-07)
(5.87764e-10 -6.62294e-10 2.96814e-07)
(1.31472e-10 -1.21573e-09 2.24626e-07)
(-4.67619e-10 -2.17085e-09 2.38612e-07)
(3.90606e-10 -7.46604e-10 1.18351e-07)
(-5.98915e-10 4.4892e-10 2.2198e-07)
(-2.78327e-09 3.38689e-09 8.52607e-08)
(-7.849e-10 5.68644e-10 2.93888e-07)
(-1.6505e-09 -1.06377e-09 1.86101e-07)
(-1.36362e-09 -6.74692e-10 2.16134e-07)
(-3.21904e-10 -6.66743e-11 2.28024e-07)
(-4.16964e-10 9.60273e-10 3.4938e-07)
(1.81189e-09 -1.76901e-09 2.66419e-07)
(2.82517e-09 4.27439e-09 6.51083e-08)
(1.16713e-09 -3.39057e-11 4.29873e-08)
(-1.70555e-09 -1.7548e-09 1.86036e-08)
(-1.31732e-08 8.65411e-11 2.32307e-07)
(4.14372e-10 -1.89847e-10 3.06757e-07)
(-1.81858e-09 5.10869e-10 2.71955e-07)
(-2.46894e-10 -1.33371e-09 1.90693e-07)
(1.07174e-09 2.28683e-10 2.86529e-08)
(6.4463e-10 -2.41496e-09 2.15871e-08)
(-7.68004e-10 -2.70122e-09 1.77719e-07)
(-1.37133e-09 1.70349e-09 2.34648e-07)
(-7.81464e-10 -1.21299e-09 3.20577e-07)
(1.18735e-09 -6.92766e-11 3.20809e-07)
(-1.98637e-09 3.34682e-10 1.96923e-07)
(-5.26125e-10 -3.63853e-10 3.5825e-07)
(3.38846e-09 7.39108e-10 3.72449e-07)
(-1.25872e-09 2.62602e-09 3.04204e-08)
(4.07639e-10 1.29717e-09 1.80651e-07)
(3.26923e-09 -1.83546e-09 7.04961e-08)
(-9.91547e-09 -1.09033e-09 9.75798e-08)
(-4.26503e-10 3.61485e-10 1.2963e-07)
(6.87387e-10 -5.69597e-10 1.38992e-07)
(-1.31077e-10 4.52808e-10 2.53029e-07)
(-3.13821e-09 1.99371e-09 1.85118e-08)
(-4.11636e-11 -1.18557e-09 3.66505e-07)
(-2.81539e-10 2.36559e-10 2.76295e-07)
(-5.59205e-10 -6.4716e-10 2.22809e-07)
(1.3885e-09 -1.44523e-09 1.97479e-07)
(7.64816e-10 -2.05434e-09 1.72251e-07)
(-4.07871e-10 -6.72974e-10 2.68554e-07)
(-3.17038e-10 9.88888e-10 2.43953e-07)
(-8.35675e-10 1.91486e-10 3.16599e-07)
(-9.02966e-09 -8.79095e-10 1.66468e-07)
(-6.67696e-10 -1.33089e-10 2.73371e-07)
(-5.20494e-09 2.43668e-09 2.90318e-07)
(1.28989e-09 -1.1272e-09 1.77977e-08)
(-3.20932e-10 -4.43809e-10 3.15522e-07)
(2.2693e-09 2.9724e-09 1.89227e-07)
(-4.04747e-09 -3.76114e-09 6.26415e-08)
(-1.96984e-09 2.73521e-09 1.68423e-07)
(-1.56664e-10 4.12761e-10 3.49933e-07)
(-9.24234e-11 -2.11829e-09 2.21573e-07)
(1.26834e-09 3.01978e-09 1.15637e-07)
(-1.92146e-09 1.35775e-09 1.75065e-08)
(-4.01399e-10 -5.89806e-11 2.62396e-07)
(1.59304e-09 6.57334e-09 3.32611e-07)
(-1.1265e-09 -2.02957e-10 2.38324e-07)
(-1.15569e-09 -3.36104e-10 1.86191e-07)
(-3.40951e-09 9.68271e-10 5.5562e-08)
(4.72938e-10 -2.96303e-11 2.51157e-07)
(-4.01268e-09 3.25786e-10 2.64366e-08)
(9.37668e-11 8.77395e-10 1.7631e-07)
(-2.43884e-08 1.22678e-09 2.08665e-07)
(2.41652e-09 7.1278e-10 2.60459e-07)
(-3.38321e-10 3.00601e-09 8.54006e-08)
(-2.24562e-09 2.63363e-09 1.79522e-07)
(-7.97841e-11 1.47189e-09 1.13314e-07)
(2.66519e-09 -2.29159e-09 4.59759e-08)
(2.40608e-10 1.10212e-10 4.89555e-07)
(-3.55896e-10 -7.75566e-10 2.18447e-07)
(-1.64203e-09 -6.45139e-10 1.70257e-08)
(-8.96911e-10 9.56307e-11 2.84572e-07)
(-9.29674e-10 7.97738e-10 2.96045e-07)
(-6.01494e-10 2.21414e-09 3.75858e-08)
(3.08613e-09 4.54804e-09 1.24349e-07)
(-2.5087e-09 3.58773e-09 9.62867e-08)
(-8.84635e-10 -1.853e-10 1.91789e-07)
(2.4209e-10 -7.02501e-10 2.69629e-07)
(-1.32314e-09 1.30354e-09 3.497e-08)
(2.81271e-09 -1.2873e-09 8.80748e-08)
(-3.46549e-10 1.94114e-09 9.90915e-08)
(1.92751e-09 1.59821e-09 1.73832e-07)
(-4.61531e-10 -1.06498e-09 3.50118e-07)
(-2.6391e-09 -1.83429e-09 2.27516e-08)
(2.0532e-09 5.7421e-10 3.67645e-07)
(-6.13564e-09 -1.26294e-09 2.37087e-07)
(3.799e-10 -1.58562e-09 2.83371e-07)
(-2.97664e-09 -6.12217e-09 1.14195e-07)
(5.12193e-10 6.66165e-10 3.36251e-07)
(1.12002e-09 -2.15488e-09 2.21221e-08)
(-2.28558e-09 -5.03847e-10 2.98514e-07)
(1.55312e-10 -3.62592e-10 2.67789e-08)
(-8.11634e-10 -4.08947e-09 1.35654e-07)
(-1.06058e-10 1.85597e-09 2.27258e-07)
(-2.43753e-09 3.45114e-09 1.33691e-07)
(-2.468e-09 1.47206e-09 1.84e-08)
(4.81688e-10 -1.76955e-09 4.90084e-08)
(7.79016e-10 4.77405e-09 7.33809e-08)
(1.75799e-09 -4.17599e-09 1.28343e-07)
(-1.96311e-09 -4.47868e-10 3.24508e-07)
(1.20762e-11 1.29516e-09 5.6071e-08)
(2.55022e-09 -4.15489e-09 1.32824e-07)
(-2.73524e-08 1.10644e-09 2.25785e-07)
(-3.68042e-10 -4.15389e-10 2.19194e-07)
(1.83007e-09 2.05536e-11 2.80247e-08)
(3.42536e-10 2.46883e-09 2.22949e-07)
(-1.54242e-08 -7.81076e-09 1.47282e-07)
(1.38963e-10 3.59545e-10 2.06093e-07)
(-1.98e-09 1.43326e-09 9.80952e-08)
(-9.70478e-10 -7.29691e-10 1.80043e-07)
(2.33616e-09 4.68693e-09 1.03722e-07)
(-8.45649e-10 9.37314e-10 1.5985e-07)
(-6.06717e-10 6.47819e-10 1.6555e-07)
(3.62997e-09 -5.97834e-09 7.00212e-08)
(1.9052e-10 -3.45695e-10 3.03168e-07)
(-4.78161e-09 -1.19391e-09 7.10275e-08)
(2.05257e-09 -1.29658e-09 1.49391e-08)
(-1.06878e-09 1.7842e-09 3.17106e-07)
(4.9865e-11 3.62762e-10 1.9722e-07)
(-2.20637e-09 1.39504e-09 2.91222e-07)
(1.18778e-09 -3.1432e-09 2.25149e-07)
(2.03335e-09 2.93087e-10 4.80387e-07)
(4.00512e-09 -4.68228e-10 1.33936e-07)
(1.81452e-09 -6.17589e-10 4.15671e-07)
(2.05955e-09 4.67466e-09 9.55027e-08)
(-9.91892e-13 -1.66389e-10 1.56424e-07)
(4.22849e-09 2.05019e-09 3.02592e-07)
(-3.66485e-09 -2.45958e-09 3.12858e-08)
(-2.55804e-09 4.48148e-10 3.03666e-07)
(2.34528e-09 -2.61574e-09 1.10496e-07)
(1.38354e-09 2.63438e-09 2.88067e-08)
(-2.59637e-09 1.06452e-09 2.75816e-07)
(-2.32751e-09 1.17159e-10 6.05995e-08)
(-9.56856e-12 -2.4496e-11 2.02292e-07)
(-2.9489e-10 1.25205e-09 2.31791e-07)
(-2.36529e-10 8.03633e-10 3.71962e-07)
(1.485e-10 6.23343e-09 9.35964e-08)
(1.56503e-09 1.83698e-10 2.99066e-07)
(3.09779e-09 6.55111e-10 1.49109e-07)
(3.83539e-11 3.04004e-10 3.3221e-07)
(-8.04471e-10 4.66e-10 3.33413e-07)
(-7.52382e-10 1.61609e-09 2.94494e-07)
(-5.21063e-10 4.33987e-10 1.75367e-07)
(3.24639e-09 -1.27374e-09 4.70525e-08)
(4.13859e-10 5.82781e-10 6.79594e-08)
(8.58376e-10 1.12477e-11 1.86188e-07)
(8.95926e-10 -2.90134e-09 2.91106e-07)
(4.66892e-10 2.14561e-09 2.73278e-08)
(1.16095e-09 -2.41427e-10 2.51314e-07)
(-3.04804e-11 1.02885e-09 4.94561e-07)
(7.66713e-11 8.94542e-10 3.63629e-07)
(7.13926e-10 1.21747e-09 3.95784e-07)
(-3.73988e-09 1.39803e-09 2.44533e-07)
(-1.49624e-09 2.12764e-09 1.94397e-08)
(6.65979e-10 -3.76529e-11 2.36172e-07)
(1.06401e-09 -1.86605e-09 1.45062e-07)
(-1.04062e-09 2.08144e-09 2.6896e-07)
(-2.68993e-10 6.11773e-10 1.57678e-07)
(-2.02325e-09 -1.32387e-09 3.41535e-08)
(-3.72971e-10 -5.12617e-10 2.23289e-07)
(-3.51771e-09 4.40124e-09 1.47896e-07)
(-2.28626e-10 -4.11727e-10 2.42301e-07)
(2.13909e-10 3.28049e-10 2.8806e-07)
(-8.24301e-10 2.13971e-09 1.99625e-07)
(1.1756e-09 1.57724e-09 1.31628e-08)
(-2.01361e-09 9.58822e-10 1.92829e-08)
(-1.15293e-10 7.50959e-10 1.96861e-07)
(2.54461e-09 -1.01255e-09 3.19093e-07)
(-1.39735e-09 5.93474e-10 2.45052e-07)
(-1.11831e-09 -1.29072e-09 1.85657e-07)
(-5.76718e-10 2.59051e-09 1.57313e-07)
(-8.28145e-10 1.86638e-09 2.56822e-07)
(5.06346e-11 1.65956e-09 3.0114e-07)
(6.66992e-10 1.57362e-09 1.87263e-08)
(-4.64144e-10 6.40368e-10 1.5747e-07)
(-1.95222e-08 1.13601e-09 1.74173e-07)
(-6.85691e-11 2.50585e-09 4.45071e-08)
(-6.14172e-10 5.42258e-09 8.27838e-08)
(-1.2073e-09 1.62077e-09 3.05641e-07)
(2.53137e-09 -1.19791e-09 2.11135e-07)
(1.28542e-10 -6.3584e-10 1.96419e-07)
(1.39939e-09 -1.09395e-09 2.32681e-07)
(-3.9501e-09 2.89821e-09 1.36169e-07)
(6.31462e-10 3.81674e-11 3.54635e-07)
(1.19785e-09 -5.64305e-09 1.76173e-07)
(7.0346e-10 -8.08658e-10 4.4415e-07)
(2.79523e-10 1.26103e-09 2.27513e-07)
(-5.67003e-12 -2.96807e-10 2.55292e-07)
(-2.92459e-11 -3.73658e-10 3.3176e-07)
(1.90316e-09 1.35164e-09 4.60427e-08)
(8.73281e-11 6.33668e-11 5.52031e-07)
(-2.97013e-10 -1.63395e-09 3.23508e-08)
(-1.66889e-08 -2.26403e-09 1.48942e-07)
(3.92466e-09 -2.74572e-09 1.12891e-07)
(-1.69224e-08 -9.06589e-11 1.61651e-07)
(1.07847e-09 1.24566e-09 2.11951e-07)
(-4.83597e-08 1.13318e-09 2.90769e-07)
(5.88753e-11 5.26371e-10 1.4496e-07)
(-1.20759e-09 -1.69675e-10 3.33481e-07)
(-3.46905e-09 3.38122e-10 3.4224e-07)
(2.0769e-10 7.38985e-10 2.23068e-07)
(-6.48897e-10 -2.06955e-10 3.35993e-08)
(-5.35136e-09 1.65114e-10 1.18484e-07)
(-3.01243e-08 2.11599e-09 2.10306e-07)
(-2.51947e-10 -2.89476e-10 2.28022e-07)
(-7.08189e-10 1.96312e-09 9.87933e-08)
(-2.28786e-08 1.47621e-09 2.18227e-07)
(-9.18677e-09 2.17884e-10 2.39132e-07)
(1.49449e-09 3.22038e-09 3.03532e-07)
(-1.65449e-09 -6.43119e-10 4.26203e-08)
(1.39343e-09 2.60005e-09 5.24321e-08)
(-2.31368e-10 -1.37534e-10 2.6224e-08)
(1.06173e-09 9.85957e-10 1.88601e-08)
(-2.13819e-10 5.49794e-12 4.27192e-08)
(-1.85512e-08 4.6139e-10 2.21579e-07)
(-1.07629e-09 -9.17348e-10 1.82726e-07)
(-1.71073e-09 -1.92243e-09 1.79516e-08)
(-2.50972e-09 6.83443e-10 1.97958e-08)
(5.34046e-10 -9.39298e-11 3.8055e-07)
(-2.57743e-08 5.66272e-09 1.66155e-07)
(-2.07e-09 1.91457e-10 4.5279e-08)
(-1.04364e-09 -3.39995e-11 2.28424e-07)
(-1.56882e-09 1.01856e-09 1.05768e-07)
(1.82999e-09 -6.31189e-10 2.01533e-07)
(1.38366e-09 2.13572e-09 4.28897e-08)
(-1.88634e-09 -2.37804e-09 9.12166e-08)
(3.13106e-10 2.14481e-09 1.89613e-07)
(1.44761e-09 3.88495e-10 2.79894e-07)
(1.47097e-09 1.43126e-09 4.03524e-07)
(-2.15137e-09 2.92366e-09 4.13314e-08)
(-5.88625e-10 -2.08168e-09 2.37269e-08)
(-3.58765e-08 3.79674e-10 2.01613e-07)
(-2.82078e-09 2.10423e-09 2.7e-08)
(-3.74187e-10 2.90242e-09 3.09471e-07)
(-3.57375e-09 -1.15489e-09 2.76872e-08)
(7.36743e-10 3.04106e-09 1.4548e-07)
(-2.18634e-09 -2.08643e-10 3.23451e-07)
(2.94227e-09 4.80181e-10 4.46165e-07)
(-4.83631e-10 -1.27971e-09 5.70855e-08)
(1.36547e-09 -7.23209e-10 1.37324e-07)
(-2.09032e-09 -2.62058e-10 3.75965e-08)
(-3.50286e-09 -2.29373e-10 2.79094e-08)
(-4.68673e-10 -1.17538e-09 2.76745e-07)
(-1.95129e-09 9.67366e-10 1.41579e-08)
(6.43705e-10 3.71985e-10 1.86362e-07)
(-4.49851e-10 -3.11173e-09 5.95422e-08)
(-5.5561e-10 2.82083e-09 3.29771e-07)
(-4.0138e-10 1.24861e-09 2.26701e-07)
(2.77626e-09 1.11805e-09 1.85724e-08)
(-2.50657e-09 -6.09034e-09 1.31452e-07)
(1.14105e-10 1.37844e-09 2.4962e-07)
(-1.30948e-10 1.48166e-09 3.0453e-08)
(9.42281e-10 4.68871e-10 2.95949e-07)
(-1.93207e-09 5.38257e-09 7.72315e-08)
(3.93345e-10 2.29914e-10 2.10827e-07)
(6.16065e-10 -1.32505e-10 2.41625e-07)
(1.94613e-09 -3.24438e-11 5.36658e-08)
(-2.74356e-09 -5.67573e-10 2.06245e-08)
(-1.8381e-09 -6.5888e-10 8.98368e-08)
(-3.90931e-08 2.09516e-10 2.43642e-07)
(-1.30375e-09 -6.39946e-11 2.21716e-07)
(5.33806e-11 5.08012e-09 7.53562e-08)
(2.52279e-09 -5.25247e-10 1.79005e-07)
(3.47658e-10 9.96758e-10 2.36267e-08)
(8.24987e-10 -5.45593e-11 2.15225e-07)
(1.06195e-09 1.42499e-09 2.26108e-08)
(-1.63288e-09 3.54724e-10 3.42014e-07)
(9.79831e-11 -4.32248e-10 3.00605e-07)
(-8.77483e-10 -3.26394e-11 2.26197e-07)
(-1.3754e-09 -1.48051e-10 1.39749e-08)
(3.9216e-10 -1.15953e-09 3.44538e-07)
(-1.74959e-09 8.88581e-10 1.53983e-07)
(-2.574e-10 1.02638e-11 3.62042e-07)
(2.32286e-10 7.15963e-10 6.12889e-08)
(-3.00795e-08 8.05549e-10 2.22571e-07)
(-2.03495e-09 7.41828e-10 2.64977e-07)
(1.05113e-09 -1.41128e-10 6.35877e-08)
(-5.05217e-10 3.53679e-10 2.71534e-07)
(-3.94762e-08 4.59086e-09 2.10065e-07)
(-1.19281e-09 -6.61356e-10 1.80084e-07)
(-7.45129e-10 -1.79164e-09 3.18382e-08)
(-2.47612e-09 4.85318e-09 9.79301e-08)
(-2.44489e-10 3.25743e-10 2.02452e-07)
(1.83709e-09 -1.51972e-09 2.16361e-07)
(-1.08761e-09 1.301e-09 3.08773e-08)
(-4.31761e-10 -4.41497e-09 2.15923e-07)
(3.77237e-09 3.12342e-09 1.54772e-07)
(-1.61631e-09 1.90464e-09 2.37904e-08)
(-5.19048e-10 1.15051e-10 2.13422e-07)
(-1.54721e-08 7.46131e-10 1.5832e-07)
(-2.45938e-09 -5.30481e-09 3.22146e-07)
(-1.31349e-10 6.91834e-10 2.08395e-07)
(5.72441e-10 7.42742e-10 1.90983e-07)
(9.34996e-11 -4.88245e-10 3.19511e-07)
(1.46457e-09 -6.87324e-10 2.53569e-07)
(1.75864e-09 6.02731e-10 6.83327e-08)
(-8.84844e-10 4.70605e-09 6.99943e-08)
(-3.88969e-10 1.48805e-09 3.95148e-07)
(-2.67403e-08 -1.15218e-09 2.24792e-07)
(3.4683e-10 1.9416e-09 2.05961e-07)
(2.19903e-09 -1.86691e-09 1.85923e-07)
(2.97054e-09 -1.48497e-09 1.24462e-07)
(-1.38549e-09 3.19044e-09 3.23375e-07)
(8.17625e-10 1.20651e-09 2.0666e-07)
(-1.72115e-09 -1.76923e-09 1.77899e-07)
(-3.39866e-09 2.40576e-09 2.21413e-07)
(-1.66732e-09 2.30875e-09 4.30189e-08)
(-1.19972e-09 -7.34551e-10 1.66446e-07)
(-2.373e-09 -1.82511e-09 3.78572e-08)
(2.00295e-09 -1.95457e-09 3.14475e-07)
(8.61706e-10 -5.50688e-10 3.35428e-07)
(-1.40888e-09 4.83911e-09 1.62632e-07)
(-2.04649e-12 -1.654e-09 1.58543e-07)
(9.92348e-10 -1.50484e-09 1.71817e-08)
(3.01294e-10 -1.00262e-09 1.02589e-07)
(-3.61246e-09 -1.70294e-09 7.33645e-08)
(-1.35827e-09 7.61132e-10 2.73043e-07)
(1.40024e-09 2.63432e-10 2.46711e-07)
(-2.37631e-08 -1.53888e-09 2.20569e-07)
(-2.03708e-09 1.04394e-09 3.19507e-07)
(-1.47858e-09 2.68635e-09 8.03453e-08)
(-1.11852e-08 5.10085e-10 1.36573e-07)
(1.35896e-09 -4.00092e-09 2.42855e-07)
(1.80881e-09 8.90711e-10 2.61555e-08)
(8.84125e-10 -5.61342e-10 2.53343e-07)
(-1.91979e-10 1.46159e-09 5.24603e-08)
(-2.01326e-09 -3.44486e-10 2.06231e-07)
(3.91667e-09 -2.03468e-09 3.08114e-08)