/*--------------------------------*- C++ -*----------------------------------*\
| =========                 |                                                 |
| \\      /  F ield         | OpenFOAM: The Open Source CFD Toolbox           |
|  \\    /   O peration     | Version:  2406                                  |
|   \\  /    A nd           | Website:  www.openfoam.com                      |
|    \\/     M anipulation  |                                                 |
\*---------------------------------------------------------------------------*/
FoamFile
{
    version     2.0;
    format      ascii;
    arch        "LSB;label=32;scalar=64";
    class       volScalarField;
    location    "56";
    object      nut;
}
// * * * * * * * * * * * * * * * * * * * * * * * * * * * * * * * * * * * * * //

dimensions      [0 2 -1 0 0 0 0];

internalField   nonuniform List<scalar> 
59516
(
2.60489e-06
1.12865e-05
2.99127e-08
5.2351e-07
0.00108466
0.000186194
5.97005e-08
3.16974e-06
3.46995e-07
6.87911e-05
0.00034065
5.82119e-05
6.31522e-07
0.00014678
6.13282e-05
5.70566e-05
1.42903e-05
9.1584e-05
1.29044e-05
3.13263e-07
0.000132052
2.24014e-10
2.41116e-07
0.000117778
3.32514e-12
4.95504e-05
0.000112259
0.000155081
7.07449e-05
0.000125422
0.000242108
0.000146717
7.78053e-10
1.4952e-06
1.46139e-05
1.53612e-09
0.000122474
8.32129e-05
1.7259e-05
9.1147e-10
2.4007e-06
0.000159774
1.41478e-05
6.38705e-06
1.43404e-06
5.62678e-05
4.10493e-06
7.85024e-05
0.000861276
5.99638e-05
0.000623629
0.000105236
3.06758e-08
3.03103e-08
0.000135655
3.32768e-06
0.000240137
0.000120374
7.72754e-07
2.36885e-05
3.01098e-08
0.000132721
8.24186e-07
1.16266e-05
1.30154e-06
5.15587e-06
0.000174684
0.000106161
0.000423731
1.58666e-07
0.000190405
7.35481e-07
0.000155051
2.33589e-08
7.06656e-06
1.29606e-05
5.16657e-05
7.04841e-09
0.000101312
5.1019e-05
0.000108609
2.01224e-05
8.22581e-06
0.000142617
2.3675e-05
5.72762e-06
0.000109156
5.86888e-10
5.6807e-05
4.8536e-05
0.000527215
1.0074e-07
6.49478e-07
5.81774e-08
5.93891e-07
0.00108633
5.01107e-08
5.51599e-05
7.23644e-05
1.38827e-08
0.000124724
0.000155714
0.000152752
5.6388e-05
2.98196e-09
2.09457e-07
0.000116156
7.39238e-07
4.95334e-06
5.8029e-05
0.000243031
0.000165445
6.15845e-05
0.000153499
6.81374e-08
3.74626e-06
5.61946e-05
3.27367e-08
0.000141275
6.30048e-09
1.54422e-05
1.73419e-06
1.52788e-09
1.20364e-06
0.000232117
2.08549e-05
0.000170571
0.000104342
0.000280983
4.96745e-06
8.451e-06
1.09732e-06
0.000136026
1.8098e-11
7.56162e-06
6.3137e-08
0.000111638
8.22059e-12
0.000115137
1.21593e-05
0.000107462
2.80777e-06
0.000121186
1.08839e-08
6.90058e-06
9.06621e-10
2.44927e-06
1.19995e-06
0.000251055
1.87766e-06
9.63233e-06
0.000105651
3.53798e-08
2.96482e-09
1.00966e-05
0.000133112
1.03674e-06
2.52876e-07
1.51894e-05
0.000135529
6.15105e-05
5.9195e-05
0.000113434
0.000160876
4.0658e-06
9.8285e-07
5.51328e-05
3.61022e-06
0.000128498
4.85727e-07
1.42915e-05
5.62979e-05
4.01235e-05
5.33265e-11
9.1648e-05
7.06084e-06
8.18042e-07
2.6051e-05
5.54725e-05
9.43329e-05
1.68363e-10
0.000109839
0.000181815
4.32985e-05
3.26791e-06
5.36118e-05
9.20549e-05
0.000131641
9.42102e-08
6.53499e-06
3.8836e-07
5.75593e-05
2.77045e-07
4.05669e-05
1.42235e-10
9.46222e-05
5.33539e-05
9.38973e-05
4.67089e-06
4.61516e-10
2.54956e-05
7.92437e-06
3.76165e-06
0.000124657
5.48967e-09
1.76652e-09
7.8441e-06
5.6997e-07
0.000137238
2.34953e-06
6.67529e-05
0.000176583
3.14499e-09
6.15785e-05
7.11384e-07
5.3296e-07
2.00794e-09
3.71788e-11
6.18835e-05
3.22288e-09
6.42162e-05
9.71439e-06
4.99588e-07
0.000125996
1.14912e-06
1.6382e-06
0.00016067
0.000106119
1.42766e-06
5.9377e-05
4.01158e-07
1.92861e-06
1.19963e-05
0.000147361
0.000107407
9.34034e-05
4.52893e-05
1.57407e-06
7.90363e-08
6.69883e-05
1.03883e-05
0.000144678
5.23484e-05
0.000159168
8.7349e-06
8.59914e-06
6.70536e-08
5.82187e-05
1.13711e-07
2.08902e-06
2.5323e-09
3.64033e-08
1.66409e-05
3.32192e-08
1.08962e-08
3.66579e-08
6.89598e-05
3.33358e-08
0.000104597
5.75092e-05
8.2668e-09
1.42415e-07
2.0044e-06
1.46685e-06
2.66058e-06
5.00216e-05
2.49374e-07
1.01327e-05
0.000129992
5.35822e-05
1.28619e-05
1.56701e-06
4.58608e-06
1.11359e-05
1.55348e-07
9.26017e-06
0.000130722
2.83245e-08
0.000145664
0.000105168
9.70126e-06
1.87004e-09
0.000164022
4.96675e-07
2.70796e-08
8.33521e-06
6.32106e-06
0.000164805
1.14494e-05
3.07333e-05
2.24631e-06
9.34805e-09
4.56286e-08
8.21598e-06
2.71659e-07
0.000172862
3.27952e-07
2.83288e-11
1.70925e-05
2.62586e-06
4.12554e-08
4.94654e-05
0.000141318
0.000149101
6.26547e-10
0.000142001
9.00046e-05
6.73442e-05
4.81114e-07
6.76291e-07
5.0044e-12
5.01909e-05
4.42908e-06
0.000118717
6.06809e-05
4.45476e-07
7.37549e-06
0.00108012
1.39412e-05
0.000100657
6.32228e-05
3.76288e-06
3.22663e-06
1.00554e-05
2.12979e-05
1.03036e-08
2.97716e-05
8.01114e-08
8.3648e-07
9.24645e-08
6.51871e-09
5.36894e-05
0.000150169
1.05886e-08
0.000100982
0.000110196
1.42052e-07
4.53411e-11
6.34962e-05
2.05817e-06
1.6356e-08
8.33043e-06
1.90056e-06
9.78878e-05
2.40958e-09
7.50239e-06
5.62281e-05
9.19881e-06
4.47247e-06
8.67964e-08
2.75667e-07
3.76105e-08
6.69965e-12
2.22021e-05
0.000114027
0.000116059
9.55276e-06
0.000142813
0.000263565
1.4962e-05
1.95358e-06
1.77685e-07
0.000234335
1.48897e-09
1.14118e-09
3.80367e-09
2.54676e-08
0.000116635
0.000287674
6.43937e-05
0.000101084
0.000110451
1.98324e-07
1.0703e-05
7.9725e-08
0.000130082
2.13378e-08
0.000111572
1.03912e-06
5.12415e-05
4.944e-05
8.41474e-07
0.000364091
0.000150533
5.88296e-05
4.95616e-09
0.000140716
2.53446e-05
9.30865e-07
8.82015e-11
1.32843e-05
1.24116e-05
8.24056e-08
0.000127957
8.82187e-06
9.73393e-05
5.9698e-05
5.83329e-05
4.54844e-06
2.71392e-06
5.01692e-05
2.51787e-09
4.90432e-06
5.97089e-06
4.50537e-06
0.000113644
1.45062e-07
2.59411e-09
3.82845e-10
3.36757e-09
0.000153145
0.000144672
3.60221e-09
2.10153e-06
1.0584e-05
0.000110603
1.20053e-06
1.75379e-06
5.71555e-06
3.63179e-06
8.32733e-06
2.07976e-06
1.38672e-06
5.5113e-06
6.52687e-06
5.65223e-05
7.11946e-07
3.13868e-06
3.32245e-08
4.06644e-06
1.05271e-10
3.26393e-08
9.66358e-05
0.000110887
0.000133729
0.000170358
8.30021e-06
1.77081e-08
4.01084e-08
0.000100003
0.000143129
6.76063e-07
4.9893e-08
3.41511e-06
2.06506e-09
4.53701e-10
1.84971e-05
1.99013e-10
0.000158321
1.81194e-07
5.22113e-05
0.000254345
2.88284e-07
1.02445e-05
7.33535e-09
0.000144381
4.82804e-06
1.07351e-05
5.97289e-06
6.84671e-06
4.69756e-08
2.33251e-06
9.44906e-07
1.31139e-05
1.77487e-05
1.22824e-06
8.96553e-11
0.000134939
4.85144e-06
3.67504e-07
0.000108166
4.70412e-06
4.56464e-07
2.1391e-08
1.7712e-05
0.000139662
1.01146e-06
4.20036e-09
8.16682e-08
2.15935e-08
9.54563e-05
8.13232e-09
0.000173336
6.90231e-07
0.000792495
1.50917e-06
0.000117022
1.3767e-06
3.8955e-06
8.26493e-05
1.61639e-05
6.29848e-06
0.000156765
4.00105e-07
2.24916e-05
0.000124813
5.56282e-05
5.26256e-05
7.83684e-08
1.0911e-05
0.000213867
5.32541e-05
5.11667e-05
1.76808e-07
1.34002e-05
0.00015125
2.22324e-09
1.82477e-07
4.58505e-06
0.000233241
1.56267e-07
0.000137526
2.87426e-07
0.000139602
4.64063e-05
8.34138e-10
5.08294e-05
0.00014358
0.00012085
0.000102358
5.85495e-05
3.7331e-12
5.78325e-05
4.93997e-05
0.000387732
3.24931e-06
0.000155634
1.62973e-06
0.00011936
1.60197e-06
5.89652e-05
2.75398e-06
6.31296e-05
1.37205e-07
5.986e-06
8.30567e-05
5.70708e-07
0.000149016
0.000131855
5.56031e-11
7.92633e-06
9.8042e-09
6.34369e-08
5.88901e-06
6.49176e-05
4.09535e-07
5.19813e-05
3.65077e-06
1.83654e-07
0.000155291
9.59623e-10
0.000112714
0.000154942
1.79067e-10
9.72198e-05
3.6298e-08
1.17821e-05
9.32861e-08
5.12083e-05
3.51836e-06
1.36303e-05
8.28222e-06
6.4374e-07
6.93931e-06
8.15633e-06
0.000102613
6.24183e-05
2.85971e-06
1.04374e-08
0.000117983
2.83289e-07
2.40612e-06
1.47672e-06
6.07388e-06
1.54713e-07
0.000134792
9.38212e-07
8.05856e-06
7.80932e-08
4.12798e-06
0.000159327
1.48839e-05
1.24248e-05
8.58245e-12
1.28749e-05
1.30796e-09
0.000110199
0.000142675
7.44333e-06
5.90638e-07
1.77646e-05
6.86917e-07
1.12862e-05
8.23577e-09
3.09623e-06
0.000130846
1.22987e-05
0.000152263
0.0001187
5.14982e-05
8.36048e-11
7.25018e-10
1.04996e-09
2.18128e-08
3.11172e-06
2.14044e-05
1.27114e-05
1.34592e-06
1.40682e-06
1.94438e-06
4.0648e-06
0.000125351
1.69587e-07
0.000109388
0.0002075
4.99961e-05
0.000536277
4.05362e-09
0.000159252
4.27653e-06
3.76252e-07
1.37606e-09
1.52027e-06
0.00010863
0.00148467
0.000700985
8.64188e-06
2.38656e-07
0.00014974
0.000200662
9.9636e-07
9.89895e-05
4.53229e-05
0.000147146
0.000155196
0.000170998
3.39711e-05
1.01125e-07
0.000150747
0.000145161
2.40845e-05
0.000209339
0.000107878
8.64045e-10
5.20881e-07
3.00763e-09
0.000124408
5.54182e-05
3.43601e-07
1.82521e-06
2.60812e-08
0.000109569
0.000138796
0.000391293
0.000168477
1.15144e-08
0.000157456
5.24105e-06
5.59133e-06
7.22187e-08
0.000100796
5.09799e-06
9.71605e-05
0.00016544
4.46566e-06
0.000129175
5.55432e-07
0.000118085
1.72076e-08
6.06831e-10
0.000138492
5.65348e-05
3.78788e-10
0.000108856
5.33488e-07
6.18176e-05
2.03545e-06
9.14161e-06
0.000105799
0.000144159
0.000106006
0.000667159
2.21827e-06
6.06043e-05
1.03863e-05
0.000101404
1.13626e-05
0.000145979
8.85977e-08
3.0368e-14
6.47295e-07
0.000134256
1.831e-10
1.31144e-05
4.24801e-08
6.56706e-05
0.000881138
7.02771e-10
9.23649e-05
1.91694e-05
0.00048676
2.60314e-08
0.000106521
0.000118002
8.40445e-06
1.20822e-08
0.000107091
5.56507e-07
5.46736e-05
0.00014981
3.90889e-06
0.00124539
1.15888e-10
1.44919e-06
3.70834e-06
8.74801e-07
7.04297e-10
0.000101322
0.00010966
4.79713e-06
0.000984078
1.25601e-07
3.67946e-08
1.90483e-05
3.54488e-10
4.54458e-07
7.09251e-06
2.13044e-06
0.00014424
5.29136e-05
0.000129513
8.09438e-09
2.44679e-06
9.58269e-06
3.7829e-06
0.000128036
1.7075e-05
6.23708e-05
1.78664e-06
5.01e-06
0.00118136
2.30937e-07
1.28209e-05
0.000839801
7.53163e-08
0.000160478
5.0025e-06
5.96715e-05
8.91979e-10
0.000165574
2.03157e-07
0.00134879
1.58939e-08
3.06613e-07
1.40447e-08
1.22625e-09
7.02331e-06
0.000117996
0.000121452
9.45612e-05
6.57494e-06
9.11249e-08
4.30744e-08
4.64235e-10
0.000124192
1.39794e-05
1.31467e-05
3.92042e-06
2.97896e-08
4.64555e-08
9.25902e-06
1.09634e-05
0.000141904
1.02596e-05
2.30038e-07
0.000157379
9.05376e-05
5.1536e-05
0.000140721
1.78553e-05
3.46066e-07
5.24995e-05
0.000132429
2.4395e-06
0.000146312
2.25261e-06
3.34136e-06
1.7383e-05
3.13291e-06
2.10126e-09
5.17676e-06
1.20032e-07
0.000101271
2.72217e-06
3.33729e-09
1.21389e-05
1.33903e-05
5.07766e-07
3.28738e-07
4.23499e-05
8.4084e-11
0.000111102
1.1255e-05
6.16038e-06
5.9675e-05
3.66414e-09
0.000264256
4.97353e-05
0.000106335
0.000168509
5.05812e-05
0.000134062
2.68652e-08
4.1798e-08
3.33784e-08
8.55571e-05
1.42111e-08
2.43433e-08
0.000147891
1.29254e-07
0.000580178
9.18828e-05
0.000147415
1.77227e-07
1.48057e-06
0.000147181
5.41689e-08
0.000142602
2.1632e-06
7.96801e-08
2.50991e-07
6.39055e-10
3.81751e-06
6.04061e-06
6.66131e-06
0.000130303
0.000112773
3.91518e-06
4.72957e-06
0.000129083
1.22111e-09
0.000312002
2.40112e-06
2.0715e-06
1.99281e-05
7.26848e-08
2.49587e-05
1.24115e-05
0.000117941
1.26934e-06
3.55855e-06
0.000123461
3.06204e-07
9.27855e-06
8.88623e-11
7.25289e-06
2.13491e-09
1.72548e-06
1.37488e-05
2.89551e-06
7.91246e-06
4.11204e-10
4.61675e-05
1.16629e-06
6.6419e-06
0.00155882
1.36821e-12
2.91644e-06
4.88015e-07
0.000123912
9.53493e-05
1.53733e-07
1.6472e-09
1.59051e-09
1.83544e-05
2.8353e-09
1.40413e-05
6.04555e-06
0.000224643
1.93352e-06
5.32802e-06
0.000140265
4.49319e-10
7.99181e-08
0.000108998
4.6142e-08
7.19423e-06
3.67075e-06
5.41719e-06
1.68046e-05
3.36737e-06
5.44372e-05
0.00143805
0.000120653
6.82898e-07
3.7894e-06
0.000154633
7.66125e-05
5.43419e-05
5.89702e-07
9.19145e-05
4.99824e-08
2.69483e-06
1.07536e-06
5.5038e-09
1.53708e-05
0.000118976
6.70302e-08
1.68651e-07
5.31294e-07
1.54386e-05
4.02885e-09
1.44357e-05
7.26323e-06
0.000125608
5.83007e-07
9.43545e-06
1.83076e-05
0.00012388
5.50066e-05
8.21945e-06
4.32053e-06
8.11504e-05
7.77056e-07
1.47101e-07
1.47688e-06
5.47924e-06
2.87197e-07
3.28396e-06
3.85053e-06
9.16939e-06
0.0013989
4.69227e-10
7.90335e-07
0.000117624
5.76869e-05
6.6045e-07
1.91548e-09
0.000116292
6.68267e-07
1.82345e-06
3.25503e-05
3.13546e-05
1.49593e-05
5.11091e-09
7.97593e-06
9.20504e-06
0.000294705
7.1422e-06
1.25588e-05
0.000166242
1.08066e-05
0.000105532
1.26941e-05
1.70767e-06
4.65304e-05
0.00010981
2.71006e-06
5.8082e-07
2.15631e-12
0.00010028
8.1838e-06
0.000101825
1.01756e-05
4.60898e-05
4.47021e-05
7.68247e-06
2.09447e-05
5.54593e-05
4.6111e-08
1.00456e-06
1.62036e-06
1.64511e-05
2.18093e-05
3.57604e-07
1.07596e-05
3.4787e-06
5.39336e-05
1.58466e-05
0.000103829
0.000109489
1.39589e-06
9.39165e-05
0.000178523
9.0223e-06
2.22372e-06
1.15869e-05
0.000227619
0.000150985
4.2756e-07
1.09263e-05
3.68455e-07
0.000161275
0.000134272
7.99177e-06
0.000102382
3.41798e-08
2.35832e-07
5.38631e-06
0.000129877
5.97763e-07
3.4107e-07
0.000129674
2.82483e-05
1.09233e-05
5.40368e-05
5.02766e-07
8.5384e-06
1.09151e-06
7.19522e-08
0.00010804
3.75867e-07
3.92765e-07
3.36274e-06
4.3236e-05
4.99604e-07
9.75795e-06
9.00985e-07
0.00013729
9.89699e-07
1.09834e-05
0.000108134
4.44042e-08
0.000118576
4.47849e-08
2.68622e-06
3.80929e-06
0.000185458
9.87599e-06
1.04909e-05
4.72766e-05
7.87954e-06
2.74851e-08
0.00013933
2.26798e-07
5.86717e-09
4.95053e-05
0.000164962
0.000118156
9.2298e-06
7.21554e-11
3.19724e-06
1.20642e-05
4.64188e-05
1.75936e-08
9.41848e-05
2.06481e-06
1.26052e-05
2.59116e-05
5.83501e-05
1.53021e-10
0.000158946
1.27474e-05
9.40088e-10
1.44417e-05
0.000121514
4.25332e-08
2.75404e-08
0.000154913
1.71148e-07
3.61182e-07
2.27088e-06
1.43543e-05
5.19718e-06
0.000158915
6.29217e-07
2.588e-11
0.000157742
0.000102788
0.000104675
7.90588e-07
1.19536e-05
4.25232e-07
5.37687e-05
8.16453e-07
0.000145633
9.0674e-10
3.3701e-05
1.88143e-07
8.41447e-06
1.60254e-12
4.18982e-09
0.000106288
0.000108856
1.31077e-08
2.96256e-09
0.000140125
0.000170569
7.98164e-07
6.26535e-12
1.71451e-07
3.0055e-06
2.14858e-09
1.86711e-09
1.86012e-06
5.76054e-05
2.28499e-05
4.94375e-05
1.47527e-09
1.5022e-05
0.000108617
0.000160857
9.68599e-07
1.06018e-06
3.52172e-06
5.92884e-07
1.74096e-07
9.09011e-05
4.67513e-07
4.602e-06
0.000123594
0.000157118
3.07515e-06
2.71896e-06
0.000119416
0.000124593
1.65282e-06
5.85426e-06
0.000164821
1.93345e-05
1.78884e-06
4.25949e-07
3.51488e-06
6.61903e-09
3.10744e-09
0.000141424
8.87751e-05
7.06466e-06
4.81047e-07
1.78782e-06
1.23444e-07
5.33653e-05
5.72285e-05
0.000104623
1.96621e-05
0.000164408
9.29392e-11
2.21286e-11
8.08811e-06
6.02939e-05
0.000142507
1.23188e-05
2.43967e-06
3.43243e-08
5.11651e-06
3.18734e-06
9.57703e-12
0.000121989
7.05584e-05
0.000241045
2.15488e-06
1.22355e-09
2.12251e-06
5.12527e-05
1.44559e-05
1.11043e-07
1.4072e-11
1.05768e-05
1.1313e-10
3.62844e-07
3.12367e-06
5.70235e-05
0.00016808
7.5122e-07
0.00010701
4.28382e-07
9.45819e-08
1.34582e-05
0.000136972
1.15525e-08
4.66521e-05
0.000117183
0.00013408
4.40453e-08
6.19396e-06
2.01419e-07
2.96079e-07
1.41732e-05
2.261e-06
0.000124449
0.000106961
0.000120792
9.36421e-06
3.28342e-06
1.19347e-08
2.07058e-06
1.05253e-06
5.76922e-08
0.000186945
2.01931e-07
0.00013302
7.60828e-08
2.01707e-06
0.000135507
4.36287e-06
4.22977e-06
7.57604e-09
7.87829e-06
4.36818e-05
9.42987e-05
1.54894e-09
0.000121485
1.86403e-05
3.13678e-05
3.62249e-07
3.1411e-05
0.000106258
0.000183
0.000115075
1.77274e-06
1.29328e-06
3.35895e-06
6.94558e-05
4.33993e-07
8.98331e-07
1.26683e-07
9.74869e-08
9.79176e-05
0.000115433
5.46508e-07
1.11948e-06
5.71461e-05
1.23289e-05
2.28545e-07
3.87131e-08
8.17755e-06
0.000165565
0.000201385
5.61266e-05
2.14927e-08
5.39082e-07
1.73166e-06
0.000134614
9.87823e-05
1.14674e-10
7.07622e-07
5.72093e-05
7.90614e-06
3.94053e-08
2.11657e-07
8.15197e-07
5.72732e-06
3.82659e-08
4.3304e-08
4.36708e-06
7.48535e-07
4.96632e-07
1.48121e-05
4.18552e-05
8.49924e-06
4.21141e-08
0.000114666
5.3065e-05
1.16107e-07
5.9274e-05
4.30646e-12
4.52217e-06
8.54166e-08
1.61989e-08
3.68524e-07
1.08904e-06
6.93888e-07
2.20616e-08
9.79234e-05
0.00016935
1.39968e-05
8.07091e-06
0.000138416
1.27586e-05
5.26835e-07
1.58141e-06
1.69259e-09
0.000131547
2.31189e-06
2.16637e-08
1.36914e-05
7.42611e-07
5.69425e-07
0.000151765
1.19698e-07
0.000142883
6.18343e-06
0.000138858
4.21242e-08
5.27132e-12
8.54891e-07
0.000147577
6.17003e-05
8.64244e-06
1.66617e-12
4.96939e-05
5.89313e-05
8.00427e-06
5.93351e-06
0.000115973
5.91756e-06
7.67462e-12
5.49778e-05
5.37328e-05
0.000160099
1.59532e-08
3.3527e-06
5.64657e-13
9.8623e-08
4.6431e-06
4.99294e-06
5.31547e-06
0.000132915
0.000101739
0.000158826
1.43607e-05
1.37835e-05
9.96399e-05
0.000111055
5.22357e-05
0.000160696
1.3156e-07
0.000159226
9.95667e-07
1.65938e-05
1.18196e-08
5.3787e-05
1.03641e-05
0.000103478
6.21466e-05
1.27978e-05
2.67101e-07
2.66364e-07
0.00171346
7.87919e-07
0.000143972
9.626e-08
1.12039e-09
5.85773e-06
1.35016e-05
1.20915e-08
1.22364e-06
9.04211e-06
5.93537e-05
0.000104131
2.53097e-06
8.28427e-06
0.000110364
1.21455e-05
4.23818e-10
0.000111094
0.000171856
4.18433e-06
7.87664e-05
6.08337e-05
0.000147907
4.73522e-05
0.000115508
0.000124879
0.000112332
0.000145546
2.47035e-06
1.17333e-05
5.12374e-06
0.0001347
5.28062e-07
5.94391e-10
2.09479e-11
1.44956e-06
1.34362e-07
0.000105702
9.98837e-08
0.0014063
1.20756e-05
1.70039e-05
3.84402e-08
0.000126597
9.99871e-07
9.72872e-06
0.000181686
0.000101231
2.59725e-11
6.23805e-06
0.000132238
3.20872e-08
3.00341e-09
5.96917e-06
9.02929e-08
0.000106398
3.93006e-08
1.42906e-05
0.000183685
1.8245e-10
3.04804e-10
2.09499e-06
8.40269e-06
8.57699e-10
4.22977e-09
0.000269633
3.39135e-06
3.45435e-06
4.20231e-07
1.27554e-05
1.89318e-05
5.04175e-09
0.000192024
9.7594e-12
0.000203911
0.000228199
6.40589e-05
1.05426e-09
1.14546e-09
0.000439245
4.95922e-08
1.65783e-06
1.66988e-05
4.46274e-07
0.000152235
0.000159257
0.000220804
5.92292e-05
0.00017844
8.32272e-10
0.000120685
7.84982e-07
0.000102808
0.000139344
1.6114e-05
5.20163e-05
1.1551e-06
2.14351e-08
2.91511e-06
0.000116885
0.000120455
3.1464e-08
1.06201e-07
0.000156293
1.70531e-08
5.31122e-05
1.01105e-05
1.99229e-06
4.62717e-08
4.19553e-06
3.58819e-06
6.22489e-06
1.24372e-05
0.000108222
9.2549e-05
6.44151e-05
0.000100594
1.90857e-06
4.71256e-07
5.67142e-05
5.55632e-05
4.75199e-06
4.59389e-11
2.54597e-09
5.23046e-05
2.55008e-09
0.000134724
7.18147e-05
3.28412e-10
0.000117937
1.23954e-05
9.39598e-06
3.32713e-07
7.56794e-06
1.07168e-07
8.27786e-06
9.41109e-06
1.94939e-07
1.27507e-06
1.39917e-07
0.000149695
0.000117861
5.34781e-07
3.36056e-06
8.53785e-09
8.34662e-06
5.08474e-06
0.000128909
6.19157e-08
2.00035e-08
5.78087e-08
8.54149e-06
0.000120161
5.18519e-05
8.01523e-05
1.01136e-07
4.98334e-05
2.72696e-06
0.000148517
2.86261e-08
0.000111896
1.20309e-05
6.35713e-06
6.08955e-05
2.84671e-10
1.17055e-07
0.000106378
0.000154222
1.0407e-06
0.00018749
1.87758e-07
7.26153e-07
1.28883e-05
1.2528e-08
1.76726e-05
5.5966e-07
0.00015092
2.92421e-06
3.71451e-08
1.33277e-05
0.000127081
4.8406e-08
2.675e-08
1.26656e-05
3.97993e-08
0.000103722
4.91799e-07
0.000141148
8.16918e-08
2.14202e-07
1.21178e-08
6.58955e-12
0.000105229
0.000143298
0.000114315
2.39761e-06
0.000105074
1.57241e-06
9.91663e-05
5.15488e-07
6.0812e-05
0.000128304
3.67128e-06
2.6382e-08
1.15797e-05
6.32032e-06
1.40886e-07
3.22659e-09
0.000114172
1.48503e-05
0.000169879
4.89362e-05
6.62278e-06
1.3246e-05
1.09937e-07
0.000180975
0.000104257
4.20697e-05
3.11702e-05
2.54433e-08
1.48495e-10
6.59065e-08
0.000121914
3.81867e-13
1.83063e-08
3.58238e-07
6.69957e-05
1.44756e-08
3.91054e-06
1.37088e-07
7.64711e-07
4.42222e-05
5.15568e-05
5.83442e-09
0.000100446
4.19992e-07
9.72009e-06
1.15097e-08
4.04897e-08
2.45689e-08
5.20857e-06
0.000105794
1.11885e-05
5.95052e-05
0.000154634
6.57462e-08
0.000119258
4.7741e-08
0.000145775
0.000112058
5.34652e-05
2.16608e-05
8.90423e-08
8.52418e-05
0.000161315
1.33016e-07
1.46634e-05
1.0754e-06
3.26853e-06
0.000136835
1.19454e-05
0.000115658
1.27567e-06
2.89659e-07
4.86146e-05
1.6396e-07
5.37787e-07
7.25676e-09
4.07923e-07
6.14605e-07
9.58797e-10
1.60326e-06
1.45903e-12
0.000167941
0.000151388
3.83793e-10
0.000166818
4.35767e-07
8.01644e-08
1.31959e-05
9.1184e-06
4.10141e-08
0.000114447
1.73149e-05
4.87633e-05
9.57495e-06
0.000111757
5.32592e-10
1.37597e-05
2.5499e-05
3.28355e-06
0.000108507
3.76936e-07
4.22195e-08
1.19744e-05
7.99429e-10
0.000128968
0.00014254
7.62511e-07
1.55095e-07
1.09449e-06
4.32432e-06
0.00014655
1.86017e-05
4.51377e-05
1.17571e-05
4.93386e-07
0.000106146
2.54286e-10
8.35076e-08
0.000114528
0.000177214
1.46403e-05
1.04153e-05
0.0001465
2.7009e-11
0.000118553
0.000160745
1.44085e-05
2.60873e-06
1.43737e-05
2.09672e-08
1.89646e-06
1.7608e-09
6.51852e-06
1.04864e-06
1.69925e-06
7.98556e-07
5.26246e-09
0.000127522
0.000110119
2.1355e-08
1.52759e-06
2.67389e-06
0.000140275
0.000155009
1.17706e-11
0.000164482
1.25091e-08
6.23114e-07
1.2805e-05
0.000108924
5.76818e-05
3.64861e-06
4.74141e-07
2.40345e-08
3.15542e-10
5.18452e-05
0.000170915
1.50476e-06
0.000165196
0.000117348
0.000101739
0.000105167
1.59439e-07
1.39166e-05
5.64782e-10
1.49708e-06
7.69255e-06
5.70811e-06
3.6131e-07
2.10082e-07
5.65181e-05
5.14251e-06
4.74612e-07
4.43195e-07
9.28282e-05
1.23998e-06
0.000166082
1.09841e-05
0.000111947
4.95537e-08
4.52768e-11
0.00116742
0.00013615
8.39161e-06
6.28913e-05
0.000135574
1.84177e-10
0.000136556
5.85427e-05
9.11038e-07
2.41761e-07
1.04178e-05
0.000100694
2.61814e-06
4.95149e-05
7.4739e-06
2.33804e-07
2.78189e-07
1.64208e-06
0.000107265
7.51063e-11
7.69149e-08
1.35058e-05
5.46503e-08
1.96669e-07
5.65623e-08
2.19936e-05
0.000142372
0.00010002
5.76753e-07
1.0755e-05
1.37948e-10
8.83171e-05
1.36303e-06
4.93632e-05
6.61321e-09
1.0282e-10
1.20742e-05
6.15605e-05
4.91618e-05
0.000125485
1.02543e-08
7.55199e-14
5.13835e-05
3.22193e-07
0.00012973
1.10817e-08
1.53243e-06
0.000163162
1.15093e-06
3.47779e-07
7.30777e-08
0.000223771
0.000152884
0.000122783
5.61525e-05
4.92076e-05
0.00016285
0.00015226
0.000156132
1.20293e-05
8.76206e-07
8.459e-08
5.57042e-07
8.96926e-07
0.000141906
2.0298e-08
5.03426e-08
0.000120784
0.000130852
0.000177125
1.47043e-05
0.000175314
2.86843e-08
0.000302761
2.31785e-05
2.20832e-05
9.17467e-05
8.75183e-06
4.0706e-08
8.34512e-06
9.19051e-12
5.78044e-08
1.40972e-06
6.14807e-05
2.6517e-06
4.55153e-09
7.04662e-07
0.000116615
3.23498e-05
2.05305e-06
9.23561e-09
1.10626e-06
4.7214e-06
4.79728e-05
9.95431e-05
0.000157851
6.20074e-06
2.00583e-05
2.28023e-06
3.06868e-07
0.000103325
1.60744e-06
6.04643e-05
2.84005e-06
4.62455e-07
9.43916e-05
0.000112307
5.02167e-06
3.87042e-09
3.5116e-08
7.50925e-08
1.74189e-05
4.57946e-05
1.10058e-12
3.01159e-06
1.26659e-07
3.53023e-09
3.25749e-09
5.98878e-06
1.05082e-05
4.55926e-11
0.00013402
8.41229e-05
0.000160569
4.20573e-06
9.53893e-07
8.74294e-06
4.96167e-05
1.10985e-09
8.31745e-05
4.9268e-05
0.000134906
1.61523e-07
5.04371e-07
1.90654e-07
0.000125865
0.000102147
6.23243e-05
0.000147424
0.000116585
6.15727e-07
1.93295e-06
0.000143068
0.000113055
5.07312e-05
6.63935e-06
1.55322e-06
4.13731e-10
8.26101e-06
4.86721e-09
8.65831e-12
5.75997e-06
0.000106549
1.79287e-05
4.60547e-09
4.84327e-11
1.59467e-07
1.94186e-11
1.22585e-07
2.61615e-05
3.73421e-07
6.39116e-05
0.000346497
7.48845e-08
7.82554e-07
0.000124396
1.3913e-06
0.000150138
4.83189e-10
1.16175e-09
2.10114e-07
3.82348e-07
5.52957e-05
0.000160563
5.6323e-05
1.29681e-05
6.20168e-06
9.16401e-07
1.43463e-07
0.000115994
1.441e-05
6.3098e-08
1.39252e-06
9.34631e-07
0.000189365
8.74699e-05
1.61789e-06
1.60208e-07
4.00486e-06
1.25684e-06
1.54261e-07
6.81164e-11
1.71067e-11
4.58338e-06
8.00435e-07
3.40272e-06
1.81901e-09
1.18994e-05
0.000152102
0.00013437
1.46669e-05
1.48064e-06
3.12825e-07
8.11361e-07
0.000156635
1.50032e-06
8.1605e-12
1.24004e-07
1.15253e-05
1.5106e-08
1.85511e-12
4.20853e-09
2.74631e-06
1.15948e-06
3.01176e-10
0.000100833
4.53059e-07
8.72883e-10
0.000139468
1.09468e-07
1.74553e-08
1.98745e-09
4.98753e-11
8.17567e-07
0.000106808
4.37309e-07
1.41795e-05
1.16609e-06
1.63825e-05
1.10906e-07
9.98268e-10
1.30661e-05
1.55083e-08
0.000141516
1.43238e-08
0.000107599
0.000114593
1.25282e-11
0.000135079
2.74519e-06
1.49423e-07
5.55728e-07
5.03943e-05
7.73594e-06
0.000143026
4.80011e-10
9.88278e-05
9.18211e-06
1.20224e-09
2.76432e-10
6.16621e-07
3.3849e-09
1.26699e-08
5.05465e-06
1.41796e-08
1.90456e-08
1.72054e-08
0.00011812
1.30036e-05
6.47417e-06
3.06027e-06
5.63132e-05
1.36603e-12
1.32323e-07
4.00454e-07
0.0001329
9.21094e-09
0.000149847
5.36846e-06
0.000156341
9.52695e-05
2.47081e-06
2.74966e-09
5.54618e-09
1.26706e-06
0.000136401
2.70539e-07
0.000162805
0.000139548
4.35446e-10
6.40563e-05
8.72705e-06
4.11828e-09
1.14352e-08
0.000139252
5.3669e-05
0.00010868
2.78287e-06
3.15569e-07
4.77033e-05
3.08527e-11
1.17733e-05
5.6492e-05
6.91904e-05
0.000153175
4.51772e-09
4.99039e-07
1.38765e-06
1.66258e-10
2.19486e-06
2.89136e-07
8.11475e-08
4.79866e-06
1.84347e-09
5.48774e-06
4.76394e-06
1.20957e-05
1.18652e-06
1.40906e-05
1.48334e-07
1.4823e-10
6.3275e-08
1.4271e-08
2.11848e-06
2.48317e-08
0.00011332
1.09688e-07
2.41504e-06
4.60913e-05
1.90426e-07
1.07413e-05
0.000190257
3.05233e-08
9.71702e-07
8.84738e-06
3.58735e-08
0.000113382
9.97994e-07
1.71559e-07
6.16298e-08
9.28707e-06
5.63463e-05
6.04792e-05
2.10441e-08
0.000108659
0.000109972
0.000179396
3.27515e-11
7.65277e-08
1.76745e-06
2.48995e-09
1.37839e-11
7.22735e-11
7.31361e-05
1.32082e-06
9.06439e-07
9.82632e-07
7.79378e-06
7.00755e-06
0.000108308
0.000137662
0.000145128
4.60555e-05
1.91239e-07
6.29268e-06
4.78455e-06
1.19711e-05
6.56152e-08
3.43441e-07
0.000144027
1.59991e-05
9.42024e-07
1.25352e-06
8.41649e-06
6.31706e-05
6.60722e-05
6.86644e-08
9.81498e-05
5.28022e-08
3.87362e-10
5.18596e-06
1.4797e-08
1.08493e-05
4.31272e-05
5.84674e-06
1.16653e-05
8.61488e-06
1.55045e-07
2.47307e-06
7.51697e-05
0.000109155
1.87137e-06
1.27683e-05
5.61292e-05
0.000121071
1.07333e-05
0.000147816
9.04537e-07
5.70725e-07
0.000101797
3.0205e-06
8.3645e-06
1.24601e-08
3.4589e-08
4.45623e-07
6.73547e-09
3.30343e-07
3.92265e-08
1.42087e-05
3.71254e-08
4.9753e-05
1.88758e-05
5.26555e-05
2.35803e-06
1.62322e-06
1.04342e-06
1.49286e-08
8.56002e-06
7.13974e-06
0.00013636
9.54873e-06
0.000132556
1.29669e-05
3.7048e-09
2.95531e-11
2.91064e-07
4.40524e-10
0.000107473
0.00013049
5.10577e-07
1.12815e-05
8.96487e-05
2.33282e-07
0.000107267
1.91449e-07
9.82304e-11
4.39512e-09
3.01282e-07
6.51159e-07
8.44813e-07
1.40897e-07
9.84797e-05
1.92529e-06
0.000113774
0.000104689
5.04898e-05
9.87563e-11
9.18753e-07
1.40265e-05
0.000111736
0.00031025
1.47414e-08
6.3975e-06
1.04312e-05
1.1879e-05
0.000108595
9.65439e-05
0.000112796
5.08858e-05
1.29047e-06
5.66019e-05
2.14374e-09
4.73056e-05
0.000115942
8.25729e-06
9.53762e-05
0.000143399
0.000139097
1.1533e-07
1.75626e-07
1.90235e-06
5.60854e-05
1.53155e-05
0.000143022
1.17481e-06
4.31116e-05
9.36844e-08
1.39147e-08
0.000143872
1.70027e-09
6.88808e-07
1.33012e-07
4.94632e-08
4.78634e-10
1.67095e-06
2.69481e-09
4.10204e-07
4.81218e-09
0.000170368
1.13961e-05
5.37525e-05
1.45711e-09
0.000107387
1.48627e-05
5.38954e-13
2.48468e-05
1.5223e-06
0.000129081
3.95498e-07
1.95747e-06
2.53434e-06
2.60783e-08
5.72442e-08
5.69818e-09
6.6963e-08
5.83112e-09
2.98092e-06
5.52909e-05
5.55029e-05
3.67363e-10
9.83904e-07
1.58703e-09
2.25842e-09
2.44381e-07
7.6523e-08
2.84086e-09
0.000108575
6.37659e-10
6.19767e-06
0.000135621
2.21045e-08
0.000142719
3.4558e-08
4.94196e-05
0.000108005
3.74464e-10
9.51804e-05
0.000150544
0.000125712
0.000109658
0.00010349
1.27656e-06
7.75628e-06
5.71e-06
3.76777e-10
5.40575e-05
1.40851e-07
7.85537e-06
2.27497e-07
0.00014543
5.4337e-11
1.80982e-06
4.19945e-07
1.04916e-07
0.000138061
9.80588e-05
1.36389e-10
0.000172287
3.99699e-06
0.000123702
3.82291e-08
4.14525e-05
1.33271e-05
9.1689e-06
2.57253e-08
0.000108861
0.00012816
0.000108778
2.08385e-10
5.11511e-05
0.000108944
8.315e-07
1.23216e-05
0.000142549
6.731e-06
0.000156099
3.48732e-09
2.78599e-10
2.71837e-06
2.91151e-07
0.000181265
1.84243e-06
9.23783e-05
3.22018e-06
5.49855e-09
1.01966e-06
1.32288e-07
1.00296e-05
1.69213e-06
0.000106391
5.52043e-10
2.94962e-06
9.00613e-06
8.55893e-06
5.34119e-05
0.000127494
4.88863e-08
1.87052e-08
5.28336e-07
4.35732e-05
1.27659e-08
0.000167564
0.00019082
0.000106709
7.52342e-07
0.000114736
6.01412e-07
0.000144168
0.000115413
8.12792e-08
5.09786e-05
0.00010285
0.000105359
2.48906e-12
6.39012e-09
6.26209e-06
5.22862e-05
2.08727e-09
1.09562e-09
6.67637e-07
3.46599e-07
5.35998e-08
7.18914e-07
3.09821e-06
0.000158104
3.34588e-08
2.49874e-05
5.22425e-05
0.000153939
8.04409e-07
2.89746e-07
5.37666e-06
2.67171e-09
0.00015636
1.25624e-06
2.74852e-09
0.000136631
1.22598e-10
3.49956e-07
7.73735e-09
0.000106849
7.1093e-07
9.89968e-05
6.63071e-06
4.88832e-05
0.000137675
2.88976e-06
2.20144e-08
4.71419e-05
1.86095e-11
1.564e-07
6.61062e-08
1.95662e-06
5.91025e-05
0.000152791
4.88427e-07
7.4018e-10
1.5031e-09
9.70718e-08
5.63246e-05
4.28737e-11
6.06252e-05
4.62253e-05
2.78062e-10
3.87015e-05
3.28487e-06
4.02782e-08
1.56879e-06
0.000103437
0.000113845
2.23514e-06
1.10833e-07
9.75299e-05
0.000117051
1.06031e-05
2.21991e-08
7.3347e-09
0.000147171
1.09404e-05
4.12014e-08
1.24123e-07
1.28649e-08
1.66641e-11
1.28881e-06
5.70076e-06
5.26454e-12
7.00527e-08
1.23457e-05
0.000157069
0.000157664
5.62021e-08
3.64243e-06
2.25199e-09
3.54469e-08
2.86651e-07
1.2887e-08
9.64581e-07
2.72383e-08
1.1835e-09
2.65902e-07
4.71331e-06
9.99287e-09
1.38371e-07
7.65984e-06
3.32979e-07
7.59528e-06
0.000132903
4.90797e-08
2.06137e-09
3.75457e-10
2.07921e-08
1.0036e-08
7.39068e-06
0.000125373
3.03533e-11
1.10946e-07
2.63256e-10
3.67751e-08
8.41781e-05
5.49528e-05
1.34949e-06
0.000168944
2.15215e-08
0.000112426
5.84529e-07
2.73436e-11
3.88797e-13
1.73774e-10
3.12556e-07
0.000102168
0.000156272
0.000253413
1.82739e-05
0.000121873
2.36048e-09
2.23293e-07
0.000104014
1.86438e-05
3.00812e-06
4.20129e-06
1.65651e-07
2.2354e-07
2.54118e-05
7.66824e-06
2.80353e-07
0.000129522
4.49046e-07
0.000106049
0.000132659
8.44577e-08
4.73655e-05
8.81298e-08
3.11956e-08
2.07786e-06
6.32992e-06
1.19479e-05
2.4679e-09
1.75177e-10
1.3246e-09
8.87799e-05
0.000125951
7.4235e-07
8.1223e-08
2.14927e-06
7.07287e-06
1.15395e-05
7.37066e-06