/*--------------------------------*- C++ -*----------------------------------*\
| =========                 |                                                 |
| \\      /  F ield         | OpenFOAM: The Open Source CFD Toolbox           |
|  \\    /   O peration     | Version:  2406                                  |
|   \\  /    A nd           | Website:  www.openfoam.com                      |
|    \\/     M anipulation  |                                                 |
\*---------------------------------------------------------------------------*/
FoamFile
{
    version     2.0;
    format      ascii;
    arch        "LSB;label=32;scalar=64";
    class       volScalarField;
    location    "56";
    object      p;
}
// * * * * * * * * * * * * * * * * * * * * * * * * * * * * * * * * * * * * * //

dimensions      [0 2 -2 0 0 0 0];

internalField   nonuniform List<scalar> 
59516
(
0.237408
0.0137039
0.0130136
0.00180971
0.250854
0.271362
0.238214
0.211221
0.0691423
-0.000533573
0.245544
0.239493
0.165724
0.236664
0.22216
0.0701882
0.238512
0.246462
0.242822
0.235538
0.241954
0.210627
0.238107
0.152842
0.0612774
0.147503
0.0868484
0.245238
0.240622
0.221162
0.254175
0.245393
0.110879
0.00135249
0.242999
0.198887
0.0596542
0.249305
0.241223
0.0119561
0.014115
0.245575
0.242119
0.00148365
0.240631
0.0374279
0.241431
0.241945
0.252484
0.243263
0.258503
0.00108474
0.112949
0.214952
0.241407
0.240516
0.246754
0.00145932
0.152494
0.244076
0.0013975
0.194491
0.153709
0.239098
0.00296992
0.240935
0.00737896
0.202573
0.2528
0.240487
0.206177
0.23553
0.0416557
0.236795
0.203839
0.240078
0.241487
0.0265256
0.169005
0.243155
0.0013432
0.243167
0.242213
0.0988541
0.243171
0.235135
0.0694771
0.23578
0.111773
0.246431
0.24899
0.207378
0.230714
0.204696
0.205637
0.252201
0.22119
0.211865
0.242919
0.164043
0.0753369
0.136137
0.217199
0.00789221
0.0416621
0.00626612
0.0056614
0.0651811
0.117817
0.170463
0.251108
0.081245
0.207875
0.251652
0.228498
0.189368
0.029147
0.215364
0.215916
0.0291869
0.217217
0.213888
0.0561224
0.215403
0.249581
0.243054
0.228628
0.247193
0.258257
0.22993
0.227683
0.0139277
0.20366
0.230469
0.231178
0.200609
0.249988
0.22444
0.137189
0.234205
0.0822832
0.103237
0.211337
0.0816253
0.23479
0.232478
0.240983
0.236451
0.257291
0.231353
0.234574
0.0028158
0.228579
0.00268321
0.230021
0.0049906
0.00356616
0.230673
0.231272
0.222914
0.234851
0.234608
0.222352
0.00409672
0.187664
0.0274778
0.0693285
0.23227
0.232902
0.00388118
0.230085
0.230105
0.225721
0.226554
0.226127
0.242018
0.190349
0.242797
0.0126229
0.18796
0.228385
0.121125
0.143764
0.227783
0.227995
0.0768116
0.10613
0.0590425
0.229376
0.227031
0.000308924
0.120057
0.232019
0.226991
0.233391
0.0186503
0.137826
0.137313
0.00367208
0.225429
-0.000561673
0.057959
0.212433
0.164816
0.194204
0.121339
0.232981
0.00318744
0.157274
0.219207
0.0389514
0.245013
0.218239
0.195324
0.219348
0.0873851
0.231628
0.0186446
0.179808
0.219783
0.219588
0.232665
0.225622
0.00406781
0.222276
0.189637
0.156656
0.164941
0.225244
0.0338957
0.221462
0.11928
0.225803
0.125641
0.132248
0.225953
0.224499
0.047337
0.224371
0.0504409
0.228555
0.121349
0.117631
0.00297416
0.229792
0.229365
0.226945
0.0112496
0.225879
0.228949
0.0117112
0.227179
0.229032
0.142711
0.228005
0.228816
0.0706487
0.223879
0.173987
0.220792
0.158852
0.22261
0.224154
0.22383
0.198805
0.0536461
0.180509
0.0640369
0.221492
0.150193
0.238751
0.193805
0.068006
0.152862
0.222419
0.198872
0.150488
0.221273
0.222255
0.0878908
0.225481
0.165414
0.153989
0.220231
0.218525
0.23794
0.228771
0.00673284
0.224093
0.199898
0.223207
0.22073
0.205133
0.0269771
0.208148
0.117181
0.200648
0.196334
0.221236
0.199749
0.199142
0.056282
0.0919076
0.193851
0.202695
0.147145
0.0185279
0.199128
0.199907
0.074994
0.0613301
0.200285
0.143618
0.135356
0.240824
0.201918
0.213066
0.252905
0.201264
0.0589178
0.119457
0.211957
0.126872
0.214832
0.165638
0.202378
0.244889
0.213205
0.156524
0.214369
0.021256
0.234541
0.153895
0.214335
0.176088
0.220744
0.22394
0.193463
0.244211
0.219004
0.195392
0.193358
0.215206
0.0469987
0.0971455
0.218971
0.0903556
0.223234
0.215533
0.174477
0.225166
0.226958
0.0347591
0.112628
0.156634
0.047902
0.00707237
0.250967
0.255547
0.189161
0.0311014
0.231113
0.243947
0.208312
0.0306091
0.214381
0.213804
0.231482
0.254598
0.217724
0.0797944
0.0783231
0.213483
0.160839
0.184554
0.213263
0.214843
0.209618
0.171573
0.204081
0.231946
0.00104113
0.244794
0.00942392
0.0179525
0.214818
0.00700407
0.244251
0.214221
0.013042
0.0128174
0.0531236
0.209773
0.249563
0.212414
0.250057
0.0104081
0.0703009
0.209715
0.210908
0.22071
0.207951
0.172474
0.221103
0.222097
0.056629
0.136721
0.222258
0.220695
0.21973
0.0372554
0.0210254
0.0228746
0.1246
0.194957
0.00946422
0.0336795
0.0652562
0.00441111
0.209489
0.207205
0.212889
0.212528
0.223021
0.212153
0.163423
0.206867
0.141514
0.212642
0.177646
0.215849
0.211255
0.198857
0.126126
0.22115
0.244599
0.0218048
0.216473
0.160541
0.0775504
0.163003
0.18056
0.218272
0.216289
0.213324
0.211707
0.0750282
0.211381
0.164915
0.0268574
0.182572
0.255704
0.141191
0.0603912
0.213686
0.175885
0.211101
0.132659
0.210966
0.0595479
0.211744
0.00385484
0.00723542
0.208345
0.242129
0.206199
0.190752
0.0356738
0.193724
0.192107
0.0400995
0.200455
0.192158
0.187758
0.187099
0.094585
0.194165
0.189454
0.129285
0.187659
0.0833167
0.185306
0.245382
0.185479
0.257757
0.186499
0.22485
0.0810655
0.093538
0.16231
0.00369402
0.00287248
0.175895
0.198648
0.202504
0.15624
0.190091
0.0475555
0.207977
0.206
0.246568
0.137842
0.120934
0.165544
0.20578
0.0198194
0.20068
0.237777
0.0044816
0.277403
0.206762
0.062608
0.234421
0.174464
0.239629
0.19315
0.167875
0.185547
0.209063
0.171086
0.209303
0.231026
0.0719779
0.0722299
0.250259
0.00293648
0.207839
0.199657
0.249799
0.198065
0.234372
0.000784621
0.201269
0.0818335
0.000260478
0.151851
0.0376356
0.247746
0.214855
0.0668608
0.00209451
0.220982
0.123548
0.200349
0.220255
0.199767
0.231706
0.000716236
0.100756
0.065802
0.199428
0.0340974
0.146556
0.207754
0.128694
0.206492
0.00252753
0.210805
0.0622966
0.207322
0.163244
0.111438
0.10391
0.208853
0.00209049
0.0413024
0.198489
0.0771677
0.157313
0.17996
0.118209
0.113557
0.198194
0.197563
0.227041
0.196876
0.112584
0.198443
0.196406
0.107822
0.0963287
0.000884135
0.197318
0.197162
0.198849
0.0919205
0.190551
0.00990738
0.199611
0.00529943
0.20935
0.000896011
0.0232419
0.169249
0.120478
0.0103582
0.200014
0.248011
0.00340906
0.0163829
0.196961
0.193642
0.0320937
0.195852
0.196436
0.133135
0.0384449
0.209279
0.202799
0.0129833
0.198392
0.198758
0.145865
0.195222
0.256808
0.199193
0.250052
0.171203
0.252456
0.174059
0.0222496
0.233575
0.00517997
0.00574833
0.254157
0.252825
0.175768
0.198511
0.247499
0.244281
0.123257
0.0987893
0.161539
0.0601542
0.171972
0.114321
0.244509
0.174693
0.176919
0.192182
0.181804
0.254673
0.164356
0.185492
0.0516288
0.185545
0.138127
0.0171092
0.185582
0.184607
0.186006
0.139265
0.0842887
0.262903
0.117295
0.120452
0.142903
0.220617
0.186094
0.0608427
0.172391
0.142681
0.0125287
0.0634374
0.188703
0.216749
0.149565
0.139748
0.187742
0.187633
0.0754442
0.226438
0.196547
0.129406
0.19367
0.155857
0.203242
0.191525
0.00965944
0.0246262
0.174418
0.255307
0.137013
0.127892
0.00305406
0.146338
0.19123
0.110267
0.200577
0.196082
0.0837993
0.115385
0.198991
0.234161
0.20951
0.159123
0.254658
0.198822
0.0323344
0.207038
0.257454
0.0205913
0.114486
0.221033
0.187209
0.0727833
0.181689
0.0221305
0.0165798
0.158672
0.18753
0.254733
0.211028
0.187003
0.186653
0.192011
0.0850849
0.0101961
0.0616585
0.209677
0.25408
0.141224
0.189473
0.127473
0.0548583
0.186307
0.0585143
0.187204
0.238883
0.116028
0.00216122
0.21445
0.0898487
0.19249
0.0167935
0.0722598
0.14416
0.217376
0.190694
0.192664
0.255373
0.217609
0.0364698
0.257374
0.00308877
-0.000623396
0.191947
0.0392741
0.104754
0.143964
0.100635
0.254904
0.188855
0.214236
0.184907
0.0426682
0.154614
0.0490303
0.118431
0.212834
0.185016
0.186683
0.184378
0.0684346
0.229383
0.173589
0.0608926
0.185621
0.184055
0.18348
0.170993
0.185682
0.0181596
0.0112522
0.184734
0.00330901
0.112198
0.128558
0.00978318
0.135104
0.157944
0.236311
0.175537
0.206517
0.161959
0.119094
0.186083
0.187837
0.188475
0.101309
0.187317
0.229696
0.0156056
0.0026734
0.126094
0.10719
0.00283198
0.187022
0.184498
0.18596
0.0172105
0.0284045
0.183767
0.22032
0.0273573
0.0359194
0.254882
0.246358
0.189301
0.0372051
0.198233
0.175127
0.203032
0.159159
0.181402
0.248856
0.159338
0.158783
0.0813599
0.160828
0.249861
0.0306123
0.179624
0.159216
0.0959552
0.196106
0.202152
0.082696
0.194769
0.217897
0.197619
0.15943
0.240103
0.048595
0.158965
0.213209
0.01401
0.170674
0.0655217
0.156235
0.0862992
0.248884
0.162735
0.00286922
0.156982
0.156286
0.166484
0.158213
0.145769
0.0044178
0.0395456
0.19527
0.168638
0.138974
0.197676
0.101003
0.218965
0.0223144
0.168278
0.074933
0.152366
0.197805
0.0144438
0.170868
0.167457
0.251193
0.0236027
0.203234
0.222668
0.0377351
0.164509
0.0394399
0.133581
0.187652
0.201982
0.164343
0.163224
0.162616
0.254793
0.0293118
0.20094
0.0996696
0.0175953
0.165015
0.205865
0.175148
0.174023
0.0303594
0.176659
0.178224
0.0937644
0.225132
0.253394
0.236409
0.133082
0.178619
0.00379259
0.243578
0.160884
0.175707
0.146127
0.177985
0.176316
0.180809
0.196949
0.180966
0.202094
0.176739
0.233964
0.235139
0.176414
0.193493
0.175587
0.201962
0.202823
0.0124257
0.116614
0.138739
0.0121985
0.187233
0.178777
0.188772
0.0984192
0.0060751
0.102765
0.175211
0.191674
0.191658
0.11387
0.131461
0.189221
0.251759
0.179879
0.00801238
0.017577
0.210256
0.18113
0.108064
0.144553
0.17881
0.117534
0.171524
0.171993
0.17183
0.146338
0.193772
0.171163
0.255916
0.0223482
0.170926
0.256143
0.171288
0.224212
0.0387422
0.169648
0.10788
0.0821334
0.171944
0.171227
0.106005
0.108044
0.170024
0.0908214
0.168419
0.169102
0.175483
0.100688
0.167123
0.0287676
0.16939
0.169147
0.113979
0.167583
0.167982
0.237455
0.163011
0.137621
0.164246
0.166065
0.115503
0.0552868
0.0995558
0.244312
0.168247
0.169214
0.142337
0.0565945
0.244795
0.144809
0.147498
0.143677
0.142554
0.0105281
0.00549868
0.0467643
0.0948638
0.169465
0.168651
0.00538496
0.210127
0.159149
0.0726842
0.244884
0.139324
0.138096
0.247258
0.140757
0.203585
0.0428
0.139059
0.198118
0.183791
0.139363
0.10267
0.037221
0.140041
0.210055
0.188456
0.107503
0.0509648
0.082615
0.146333
0.0857224
0.20985
0.0819197
0.143936
0.154089
0.251103
0.111394
0.00981382
0.0539283
0.0833792
0.141509
0.20839
0.152919
0.152611
0.0191395
0.12099
0.00766038
0.155023
0.155021
0.0848305
0.0117941
0.185443
0.0364758
0.228568
0.172584
0.169322
0.243333
0.082817
0.198962
0.207399
0.138883
0.0145741
0.169365
0.24097
0.16773
0.165662
0.141347
0.073179
0.169332
0.0156731
0.242366
0.211583
0.113326
0.168659
0.161392
0.209472
0.236005
0.200357
0.0275726
0.0739589
0.166406
0.173815
0.195311
0.110362
0.192147
0.246335
0.165189
0.194327
0.066326
0.171459
0.128859
0.0795748
0.171067
0.17097
0.170126
0.194337
0.16717
0.0383448
0.167919
0.0726928
0.190696
0.0187589
0.166124
0.19372
0.00353631
0.0214475
0.163122
0.0619647
0.0422271
0.065766
0.0551047
0.100152
0.0360971
0.165957
0.163971
0.0290033
0.163138
0.16425
0.19261
0.00922384
0.165536
0.158729
0.00212052
0.0228378
0.156056
0.0905639
0.00346246
0.0117228
0.156456
0.112156
0.161477
0.238982
0.0152109
0.19298
0.145189
0.160658
0.157869
0.142673
0.182267
0.167835
0.162443
0.148511
0.241958
0.212658
0.161233
0.163745
0.222624
0.0327162
0.21052
0.182785
0.110615
0.104487
0.163606
0.0746077
0.0186005
0.151004
0.155532
0.256829
0.131015
0.155792
0.153779
0.179027
0.0740675
0.153979
0.155013
0.232759
0.155464
0.0699483
0.158267
0.157956
0.12671
0.114821
0.13902
0.158107
0.155216
0.157948
0.106669
0.134397
0.161323
0.140532
0.105552
0.11233
0.113147
0.113474
0.131744
0.156208
0.134411
0.245034
0.223833
0.0399666
0.0952104
0.0990937
0.132692
0.130613
0.134661
0.172796
0.131663
0.130907
0.0787008
0.0992391
0.183577
0.0781528
0.031523
0.133877
0.132915
0.135537
0.227316
0.0129166
0.00635308
0.0931055
0.143219
0.140314
0.210643
0.0320786
0.133269
0.245138
0.0378504
0.14187
0.14142
0.168762
0.00169304
0.140038
0.140244
0.13953
0.151084
0.00473375
0.00691855
0.151509
0.151615
0.14848
0.150118
0.155708
0.147126
0.0735709
0.0147154
0.24998
0.188054
0.151774
0.150785
0.114003
0.237628
0.230961
0.214784
0.00124193
0.214959
0.152606
0.152626
0.151475
0.152241
0.152846
0.151493
0.206363
0.127344
0.200607
0.134384
0.0732457
0.0129264
0.153793
0.114514
0.00414028
0.136046
0.158297
0.241695
0.15943
0.108545
0.105227
0.185508
0.118925
0.156328
0.162571
0.16052
0.130364
0.140623
0.237699
0.155813
0.199177
0.0700512
0.0579208
0.153777
0.0600038
0.0210427
0.158418
0.158021
0.117165
0.0787829
0.0905062
0.224426
0.157354
0.0465946
0.00530498
0.141553
0.0261297
0.111393
0.15222
0.187995
0.140839
0.0237521
0.22854
0.0139276
0.222629
0.123658
0.211445
0.14526
0.0413386
0.153872
0.138922
0.0879116
0.105693
0.154425
0.154758
0.229587
0.18957
0.200739
0.234209
0.194658
0.187706
0.188038
0.205062
0.151081
0.150492
0.118681
0.0589643
0.0678565
0.0165232
0.212642
0.11929
0.148199
0.146123
0.147424
0.0415209
0.14422
0.202003
0.00476604
0.144272
0.14852
0.169859
0.252512
0.203034
0.201826
0.144903
0.0116272
0.21209
0.147054
0.177388
0.154181
0.181145
0.191779
0.135416
0.209411
0.149956
0.189349
0.154192
0.0186205
0.203363
0.209777
0.121625
0.248125
0.0680491
0.0784483
0.0683607
0.133917
0.197998
0.0550598
0.176952
0.0564441
0.150496
0.150459
0.12962
0.156206
0.141691
0.220819
0.182471
0.14001
0.187363
0.146697
0.253525
0.207558
0.146225
0.142321
0.182237
0.217291
0.143881
0.0243955
0.176511
0.220587
0.140933
0.128538
0.145163
0.147787
0.149035
0.149822
0.00350233
0.0683126
0.150931
0.247399
0.149406
0.122602
0.195256
0.120271
0.104382
0.221867
0.2476
0.203917
0.20403
0.205554
0.0325242
0.140314
0.168047
0.246094
0.234583
0.248156
0.251786
0.234348
0.124602
0.121551
0.24655
0.0536833
0.125784
0.186799
0.12266
0.203497
0.19189
0.246315
0.228152
0.203171
0.067759
0.124765
0.138273
0.132717
0.139324
0.205873
0.187898
0.138875
0.134613
0.136689
0.014577
0.217593
0.0385092
0.139858
0.16522
0.145213
0.141315
0.136358
0.0388472
0.142673
0.125777
0.141965
0.141061
0.210102
0.128701
0.0732964
0.044045
0.19709
0.100909
0.100068
0.192547
0.0836565
0.0466474
0.0401782
0.0300503
0.189727
0.0629655
0.128115
0.159466
0.0298941
0.214764
0.215457
0.0894004
0.0867012
0.232018
0.132432
0.0141897
0.154404
0.0302356
0.185507
0.0288822
0.0450143
0.0180083
0.00925461
0.0750284
0.2111
0.0432759
0.0228692
0.0238878
0.1391
0.027641
0.137009
0.21641
0.140452
0.138047
0.189215
0.0425371
0.143278
0.141993
0.011171
0.0683769
0.211882
0.143208
0.143666
0.191054
0.216688
0.206456
0.215784
0.0513015
0.238482
0.24651
0.143333
0.14408
0.0119655
0.223203
0.245416
0.141567
0.107349
0.140931
0.0162729
0.207069
0.00619466
0.0425442
0.133012
0.171208
0.134672
0.109597
0.213032
0.10055
0.202729
0.1333
0.134426
0.0659722
0.126795
0.11496
0.241744
0.213243
0.183403
0.133418
0.2177
0.0736104
0.0420043
0.0607801
0.0125168
0.13356
0.215053
0.133189
0.0126924
0.0106061
0.209751
0.135534
0.0638255
0.223944
0.135574
0.135949
0.209956
0.018561
0.208494
0.136425
0.138975
0.140251
0.146892
0.140106
0.204832
0.201717
0.140345
0.230905
0.149746
0.201501
0.170747
0.138219
0.216025
0.135457
0.108528
0.233014
0.152873
0.13761
0.0110008
0.140865
0.139583
0.105041
0.134473
0.186051
0.0534097
0.213479
0.128259
0.194899
0.204631
0.137842
0.150382
0.00972613
0.0640201
0.0517027
0.136173
0.213888
0.0178216
0.133616
0.23318
0.0510161
0.193276
0.0481015
0.134503
0.164195
0.132644
0.00121749
0.17624
0.21378
0.105159
0.0329944
0.0520062
0.101592
0.103248
0.110255
0.211765
0.010183
0.0335867
0.115466
0.116694
0.200834
0.18623
0.117328
0.122294
0.11193
0.170765
0.234463
0.21946
0.149177
0.0275457
0.198508
0.197436
0.089212
0.0459505
0.181654
0.084483
0.115296
0.189313
0.149355
0.152928
0.130431
0.111598
0.121371
0.121115
0.119599
0.192699
0.123694
0.166682
0.23057
0.213583
0.187244
0.2067
0.11267
0.0822262
0.212559
0.124515
0.189986
0.147552
0.195341
0.239965
0.117016
0.00646088
0.125873
0.127621
0.13386
0.21104
0.125145
0.131658
0.152072
0.133758
0.151818
0.12764
0.00178421
0.150677
0.131435
0.130949
0.00474887
0.188147
0.236124
0.15031
0.157199
0.118775
0.133289
0.131818
0.053774
0.234122
0.133515
0.133115
0.135133
0.0324751
0.211504
0.143442
0.119941
0.150388
0.078136
0.102019
0.200213
0.123799
0.120349
0.0973241
0.120854
0.130913
0.0816109
0.123917
0.21153
0.140346
0.071085
0.210526
0.211456
0.108009
0.108963
0.0916941
0.123903
0.054253
0.127175
0.0597634
0.255538
0.196747
0.163137
0.0780307
0.0194952
0.219543
0.0175111
0.020278
0.123249
0.00204713
0.12376
0.0284298
0.164264
0.0863578
0.122496
0.184109
0.165273
0.123597
0.02464
0.0200665
0.16076
0.121498
0.0359076
0.124377
0.122974
0.140357
0.129272
0.23913
0.189952
0.21949
0.162351
0.185551
0.123279
0.189475
0.163647
0.123792
0.221019
0.242813
0.184577
0.180165
0.123857
0.205199
0.120939
0.220405
0.159243
0.187673
0.0180931
0.037953
0.178083
0.00960945
0.21318
0.255174
0.222563
0.0113588
0.0523118
0.0174766
0.209856
0.218424
0.00581325
0.165302
0.117105
0.204945
0.169325
0.116539
0.124619
0.0290012
0.181198
0.18462
0.0508501
0.239061
0.219271
0.13297
0.118453
0.250154
0.117744
0.244035
0.183038
0.181127
0.118772
0.227663
0.105314
0.225733
0.210858
0.230142
0.00641921
0.121865
0.237181
0.0637956
0.24583
0.122169
0.231553
0.091928
0.0912235
0.097037
0.240024
0.197354
0.229193
0.196289
0.103548
0.236972
0.237352
0.0924922
0.23855
0.107562
0.190189
0.101759
0.197239
0.131396
0.0888055
0.124768
0.0859088
0.12557
0.0191399
0.10897
0.0996651
0.220587
0.0967782
0.183973
0.138712
0.16432
0.106801
0.0360756
0.0795474
0.185269
0.101835
0.220264
0.0686393
0.111175
0.226629
0.188606
0.11325
0.204882
0.111574
0.101387
0.0991839
0.129813
0.106511
0.00197964
0.0361219
0.0396304
0.101978
0.102645
0.187329
0.0455209
0.0263218
0.097081
0.0646457
0.218824
0.199245
0.0320874
0.113896
0.166829
0.107828
0.115307
0.0926422
0.112848
0.198792
0.112387
0.156647
0.000648619
0.215805
0.154033
0.247484
0.115947
0.112532
0.0204064
0.220888
0.086137
0.116661
0.189993
0.120472
0.117652
0.110404
0.108488
0.0297968
0.120233
0.115293
0.115931
0.11084
0.129493
0.112876
0.216123
0.0935233
0.11793
0.217884
0.247167
0.160986
0.0969231
0.179187
0.115599
0.105479
0.100512
0.0541341
0.0940445
0.0859587
0.235095
0.095186
0.130017
0.127743
0.0319083
0.0942634
0.215611
0.107536
0.110426
0.152721
0.144334
0.105195
0.167288
0.13015
0.108726
0.106306
0.1207
0.10663
0.21429
0.206407
0.0966698
0.0935084
0.10302
0.0419119
0.109101
0.129857
0.18668
0.106107
0.11008
0.100561
0.111977
0.216674
0.0929479
0.209881
0.109921
0.106175
0.0979827
0.106554
0.0828238
0.103161
0.0845432
0.0739054
0.105338
0.232431
0.11979
0.230454
0.153573
0.0709969
0.0228891
0.0914763
0.215655
0.107405
0.106095
0.0780492
0.107933
0.0777581
0.217511
0.216068
0.0814639
0.0821439
0.0856177
0.086193
0.173476
0.136696
0.0837815
0.0843517
0.0635337
0.104418
0.0857571
0.0861633
0.0495325
0.0480436
0.00229424
0.0864288
0.175433
0.0297712
0.136775
0.0894694
0.0923035
0.0962867
0.123175
0.213475
0.109325
0.0790279
0.0114367
0.0185782
0.138593
0.0907572
0.085991
0.118467
0.0310522
0.0203893
0.0919145
0.215072
0.102044
0.103814
0.0485185
0.0963743
0.240845
0.0987169
0.0968836
0.135917
0.0990675
0.102376
0.214964
0.10305
0.116331
0.0183776
0.00398508
0.168811
0.0361037
0.0209086
0.106225
0.0876868
0.215451
0.104303
0.222971
0.223579
0.101402
0.214425
0.00710415
0.0979858
0.104238
0.0337968
0.105337
0.223248
0.247614
0.0486358
0.219505
0.103807
0.18587
0.204071
0.104399
0.108873
0.221903
0.102157
0.239442
0.103792
0.126113
0.112943
0.240243
0.219561
0.127527
0.10657
0.103479
0.193515
0.125829
0.193074
0.219659
0.216486
0.106789
0.0119433
0.107329
0.0998406
0.192103
0.0813483
0.192753
0.0412601
0.203519
0.00027555
0.216258
0.126493
0.0901701
0.0992373
0.218473
0.0968227
0.215989
0.209627
0.218094
0.0132321
0.00350523
0.194605
0.00366444
0.0966503
0.124534
0.167857
0.094502
0.209933
0.143531
0.213809
0.0922465
0.212212
0.17628
0.191656
0.248682
0.130561
0.234311
0.0918622
0.00994487
0.143521
0.00970553
0.246022
0.0451647
0.138972
0.191901
0.101061
0.0963246
0.0136674
0.0332062
0.0983422
0.197057
0.218184
0.00671082
0.223641
0.126675
0.238937
0.0577972
0.199388
0.0982077
0.177006
0.219846
0.174499
0.163827
0.18467
0.200875
0.213865
0.161759
0.0422383
0.188595
0.0996155
0.0999852
0.0995102
0.0597767
0.233518
0.234523
0.190153
0.109209
0.209896
0.216317
0.108815
0.100584
0.099395
0.0961805
0.233596
0.0478944
0.0939843
0.148564
0.0965479
0.188178
0.174346
0.115883
0.0569202
0.0975869
0.0956763
0.135708
0.2446
0.156843
0.0957558
0.211303
0.0680061
0.051885
0.229692
0.00472605
0.0676925
0.0137199
0.067852
0.0681204
0.212374
0.0944803
0.175724
0.21102
0.118054
0.100588
0.219337
0.0716811
0.216591
0.0905617
0.0932336
0.0935326
0.191923
0.161941
0.216196
0.19603
0.207872
0.0802675
0.139292
0.220045
0.205496
0.100598
0.20474
0.0697538
0.18873
0.045753
0.190698
0.0962823
0.171558
0.0853375
0.130174
0.205005
0.0678513
0.205673
0.0521192
0.104053
0.0832801
0.0300238
0.0878666
0.0822405
0.116045
0.216309
0.0859322
0.0397366
0.0175314
0.19266
0.0194961
0.20718
0.00419555
0.0902198
0.0487109
0.0890369
0.205397
0.208965
0.0453783
0.232607
0.0318591
0.00223336
0.191285
0.173018
0.0878357
0.205653
0.0662987
0.0189454
0.113254
0.00251133
0.143819
0.183523
0.133789
0.0899234
0.243043
0.0913432
0.147188
0.191246
0.120734
0.207955
0.0878031
0.131798
0.0870026
0.136311
0.232125
0.0934214
0.0805026
0.136773
0.0877578
0.152426
0.0862462
0.0565654
0.0862719
0.231955
0.0860279
0.0826811
0.0853607
0.225963
0.108831
0.217616
0.235551
0.233927
0.167467
0.0467527
0.0625693
0.175006
0.206157
0.0217723
0.0602789
0.0853812
0.0839064
0.207453
0.246175
0.00298463
0.0310428
0.0770011
0.217518
0.0315765
0.122264
0.20749
0.0830251
0.0818367
0.0824279
0.0801103
0.0827675
0.168235
0.102384
0.204024
0.0220515
0.0858976
0.0828238
0.227693
0.130409
0.223858
0.237258
0.0452583
0.0834664
0.0624319
0.226028
0.228461
0.223333
0.222619
0.1156
0.0616396
0.218397
0.0453974
0.0832639
0.2003
0.092952
0.0823558
0.0655139
0.0810004
0.198785
0.197707
0.0833243
0.146986
0.0933468
0.0927151
0.243526
0.0239679
0.0513208
0.0831152
0.0838889
0.00744397
0.0839004
0.063839
0.0889696
0.194522
0.0841318
0.0159629
0.090458
0.00747834
0.228356
0.221431
0.116789
0.0863377
0.0889758
0.102197
0.0760791
0.0690908
0.104274
0.073084
0.0718862
0.0628647
0.0734085
0.229693
0.2049
0.122701
0.191817
0.0774684
0.198002
0.0613236
0.191308
0.159083
0.183674
0.0745484
0.13924
0.0173409
0.198321
0.213748
0.0855081
0.2512
0.0770271
0.0789636
0.132486
0.0204007
0.102841
0.0797035
0.197188
0.0604541
0.0853544
0.082631
0.0574758
0.16387
0.0576238
0.0567399
0.0580369
0.0588392
0.0577077
0.193703
0.194178
0.200209
0.190865
0.0369615
0.0582407
0.224694
0.0639162
0.0355056
0.063278
0.0628537
0.0379305
0.0636543
0.0623835
0.0630092
0.0801984
0.0768007
0.141324
0.0879495
0.0991818
0.12823
0.110747
0.101745
0.0379251
0.0806529
0.0799378
0.0603897
0.0652237
0.0779239
0.154508
0.0159975
0.18277
0.243184
0.143558
0.23319
0.0791001
0.0175491
0.0192217
0.0188542
0.106798
0.020196
0.0757496
0.0779091
0.218616
0.250761
0.133053
0.0705534
0.222006
0.120411
0.148287
0.0773423
0.150636
0.0775228
0.155247
0.0648878
0.0346385
0.0419878
0.0734349
0.00146113
0.0794645
0.22038
0.0586836
0.180615
0.023571
0.0710912
0.0732577
0.206184
0.0997822
0.155485
0.111898
0.154399
0.0724277
0.0140299
0.222873
0.0870242
0.144021
0.219418
0.219516
0.0742349
0.0629841
0.0750098
0.114119
0.0745848
0.151437
0.205781
0.117092
0.0757158
0.0763587
0.12119
0.138354
0.170497
0.0755498
0.0773864
0.0778274
0.220408
0.0764764
0.0778628
0.0279937
0.0682972
0.0360958
0.0136459
0.0355426
0.0220723
0.0669881
0.0686618
0.011193
0.0543195
0.0107905
0.218049
0.0700422
0.0396219
0.218241
0.167616
0.104798
0.0605859
0.0731857
0.0111892
0.0715288
0.160595
0.112869
0.0699578
0.223773
0.034485
0.00322433
0.0707748
0.258288
0.111065
0.146022
0.0125958
0.0711613
0.0705191
0.170505
0.0127514
0.110055
0.14143
0.0654395
0.0706481
0.0728997
0.250439
0.230244
0.22411
0.106738
0.036026
0.0139713
0.0126096
0.225426
0.0127195
0.0447517
0.0740129
0.246642
0.086857
0.0753928
0.203099
0.225169
0.160969
0.152745
0.0744541
0.0725162
0.218289
0.187021
0.198313
0.0217312
0.183438
0.0483146
0.100977
0.0397168
0.0719163
0.11429
0.23011
0.115016
0.113151
0.237951
0.0676582
0.219876
0.0508663
0.150577
0.176702
0.229865
0.114995
0.223373
0.0638225
0.053368
0.031926
0.0678241
0.223289
0.0514502
0.0464278
0.138327
0.0528161
0.0530007
0.0570209
0.0182729
0.104905
0.0692596
0.0818408
0.0481065
0.0627727
0.0555475
0.0380951
0.225489
0.156654
0.0512523
0.071104
0.255415
0.133622
0.0680022
0.143629
0.0685458
0.127761
0.0666146
0.223815
0.0497751
0.252281
0.0434367
0.0384038
0.139564
0.0523335
0.152552
0.133576
0.161217
0.0211721
-0.000989308
0.0292103
0.0242353
0.0433108
0.0155889
0.047897
0.044488
0.0438833
0.236332
0.0293841
0.22589
0.226177
0.0342962
0.215192
0.0717447
0.220875
0.205175
0.0497877
0.217269
0.0499811
0.00156773
0.160799
0.103177
0.209696
0.204431
0.113017
0.0172911
0.0312629
0.162747
0.17726
0.0513421
0.0497407
0.0669469
0.18051
0.196597
0.145469
0.0180293
0.0130097
0.0661209
0.165765
0.182335
0.199519
0.23671
0.0681784
0.210157
0.192497
0.144316
0.253165
0.103062
0.132684
0.168196
0.0641577
0.228071
0.0109562
0.0993714
0.19225
0.173702
0.203744
0.226864
0.0203569
0.0991716
0.066462
0.118466
0.0672869
0.109706
0.12165
0.117614
0.0851158
0.0670619
0.0661374
0.0639221
0.086773
0.23526
0.0936306
0.0841006
0.0900693
0.222126
0.195188
0.0193141
0.227654
0.0666098
0.0638519
0.133587
0.0562711
0.0569369
0.0785916
0.0197596
0.0552636
0.0599209
0.0137621
0.0526441
0.0516013
0.0566686
0.0746265
0.062209
0.0627093
0.225905
0.0416471
0.0505343
0.0370493
0.0684388
0.0366957
0.0345802
0.0647306
0.0151811
0.016374
0.0923379
0.0378877
0.0335255
0.227066
0.0653044
0.050303
0.0462793
0.0175073
0.0413743
0.0646612
0.0668721
0.0592663
0.104075
0.14256
0.164459
0.123128
0.0165212
0.0590654
0.0575243
0.0592611
0.187757
0.0906703
0.0661544
0.242434
0.058129
0.0899185
0.0575873
0.0599882
0.157822
0.163735
0.0575811
0.096248
0.205935
0.20484
0.0907863
0.0582767
0.22504
0.0582422
0.125277
0.0589222
0.247204
0.0592401
0.18547
0.0579074
0.157645
0.191004
0.220341
0.200328
0.0564673
0.193801
0.140776
0.157293
0.0584068
0.0240876
0.102352
0.143252
0.058179
0.0577825
0.0586018
0.102301
0.0522349
0.237451
0.171766
0.0222172
0.225651
0.0549212
0.219301
0.0224494
0.0505871
0.0536967
0.187229
0.0581072
0.161574
0.235453
0.0510912
0.0545875
0.0882404
0.231236
0.18728
0.186329
0.0558542
0.196545
0.168115
0.0540763
0.0907177
0.0766748
0.0531515
0.0533796
0.161203
0.199072
0.0589384
0.0930084
0.0753409
0.223335
0.218484
0.222731
0.0582041
0.22462
0.0394268
0.176838
0.20382
0.117299
0.15889
0.0578173
0.229281
0.0280897
0.0317251
0.0339591
0.0976404
0.0338727
0.104588
0.102635
0.0912998
0.113546
0.182533
0.0932272
0.138258
0.00783459
0.0392631
0.0792959
0.132096
0.0554554
0.147621
0.20705
0.107189
0.178446
0.172137
0.0102792
0.0339568
0.156135
0.0398278
0.000333634
0.227677
0.188664
0.218263
0.0321605
0.227524
0.0872366
0.216267
0.0833648
0.219486
0.0824952
0.224343
0.0368933
0.197091
0.0534461
0.167917
0.08438
0.173077
0.087057
0.261535
0.0538404
0.0727521
0.183258
0.168273
0.0520668
0.113416
0.168419
0.0538645
0.151267
0.0217195
0.150822
0.0494256
0.0479877
0.0735385
0.22741
0.0540655
0.0346191
0.0531454
0.054975
0.098682
0.189952
0.0615812
0.0553651
0.0982407
0.0983033
0.00429806
0.221307
0.0533713
0.0705729
0.12755
0.174696
0.00168255
0.0549135
0.225895
0.0457144
0.0442208
0.13925
0.0262215
0.0389831
0.204103
0.0552985
0.223322
0.102492
0.0350703
0.0432991
0.115145
0.0407809
0.0532258
0.0786536
0.0504719
0.0518143
0.0513919
0.0213321
0.134377
0.0496464
0.0700664
0.0473744
0.0640334
0.0712645
0.0491515
0.0460539
0.220783
0.0501843
0.0435909
0.0461071
0.225507
0.0540179
0.0451498
0.0625511
0.166862
0.0673096
0.0491218
0.0548253
0.0478921
0.00274315
0.223651
0.0680104
0.0479656
0.0354737
0.23074
0.0905829
0.0243979
0.0466324
0.00981898
0.0986114
0.22243
0.0455268
0.221062
0.0424492
0.0280155
0.225124
0.221889
0.229803
0.0342049
0.226444
0.0134562
0.0164754
0.0467491
0.024592
0.0210306
0.0574343
0.169063
0.225988
0.21686
0.234001
0.214876
0.133286
0.0968981
0.035841
0.0438042
0.0514106
0.126561
0.142043
0.0873191
0.188919
0.0670195
0.0479769
0.153393
0.0604238
0.215667
0.215173
0.0268993
0.216895
0.14284
0.19652
0.230611
0.0449237
0.17934
0.144916
0.1537
0.144283
0.0452876
0.110528
0.217933
0.232463
0.0544016
0.212862
0.230561
0.22195
0.184528
0.0380648
0.233848
0.0405003
0.206776
0.207462
0.0402589
0.0447558
0.0359963
0.127893
0.227173
0.0930583
0.143615
0.0365868
0.159201
0.227546
0.0479715
0.186068
0.0463035
0.189997
0.21533
0.233828
0.214555
0.0780006
0.0860812
0.102027
0.180157
0.0481235
0.201624
0.201865
0.0464806
0.191451
0.110624
0.0466637
0.14359
0.194615
0.0452018
0.218202
0.0380373
0.198774
0.237656
0.0424085
0.121217
0.043122
0.147348
0.0452928
0.0216247
0.227604
0.149553
0.0733761
0.0992982
0.126532
0.119806
0.0182411
0.113978
0.111982
0.216951
0.152993
0.240837
0.207287
0.0606748
0.221672
0.022914
0.0238299
0.161274
0.137412
0.191616
0.190931
0.0252506
0.0215858
0.110107
0.224533
0.181699
0.207013
0.238251
0.0245561
0.183941
0.150664
0.184445
0.190201
0.140858
0.228611
0.194145
0.197656
0.0560613
0.0602008
0.237011
0.0246515
0.0218865
0.0413626
0.209703
0.225006
0.228115
0.0401884
0.0380358
0.167117
0.0395098
0.0406562
0.172099
0.232798
0.189977
0.0630302
0.216423
0.110176
0.187359
0.189233
0.234033
0.0385503
0.138319
0.139078
0.0406859
0.0389455
0.0370192
0.0392967
0.147578
0.0407809
0.233268
0.184921
0.170504
0.0406675
0.0359622
0.0801282
0.179295
0.234583
0.107495
0.0966279
0.232229
0.0176264
0.0314704
0.0638435
0.0998811
0.0309661
0.0398981
0.0413888
0.0772076
0.0415839
0.232179
0.23326
0.0850652
0.232256
0.135854
0.0766039
0.0372061
0.0610158
0.0573088
0.0682595
0.0398342