/*--------------------------------*- C++ -*----------------------------------*\
| =========                 |                                                 |
| \\      /  F ield         | OpenFOAM: The Open Source CFD Toolbox           |
|  \\    /   O peration     | Version:  2406                                  |
|   \\  /    A nd           | Website:  www.openfoam.com                      |
|    \\/     M anipulation  |                                                 |
\*---------------------------------------------------------------------------*/
FoamFile
{
    version     2.0;
    format      ascii;
    arch        "LSB;label=32;scalar=64";
    class       surfaceScalarField;
    location    "56";
    object      phi;
}
// * * * * * * * * * * * * * * * * * * * * * * * * * * * * * * * * * * * * * //

dimensions      [0 3 -1 0 0 0 0];

oriented        oriented;

internalField   nonuniform List<scalar> 
113358
(
-1.46417e-05
3.0328e-05
-2.12963e-05
5.61009e-06
2.16164e-05
2.78777e-07
-5.80135e-06
-1.60939e-05
-2.53568e-05
1.90597e-05
-2.95544e-06
9.25252e-06
-2.3764e-05
-6.17655e-06
2.3313e-05
6.62775e-06
-1.72899e-05
9.19707e-07
3.01341e-05
-1.37639e-05
1.36157e-05
-1.41962e-05
-7.96039e-06
8.54096e-06
-7.17861e-06
3.37137e-05
-2.464e-05
-1.89484e-06
-7.17707e-07
-3.093e-05
1.68893e-05
1.47583e-05
8.15152e-06
5.90779e-07
1.78898e-05
-2.66321e-05
7.0198e-06
3.56257e-06
-1.029e-05
-2.91957e-07
-6.0845e-06
2.30998e-05
-2.18081e-05
4.79275e-06
-1.46711e-05
1.14762e-07
-3.50113e-07
1.49065e-05
-4.42925e-05
3.42873e-06
1.17951e-05
2.90683e-05
1.18908e-06
-2.53048e-06
1.34142e-06
1.90137e-06
-1.3847e-06
1.87331e-05
-1.92503e-05
1.00247e-06
3.24322e-07
1.13723e-05
-1.26994e-05
9.80291e-06
3.58876e-05
-2.93225e-05
-1.63679e-05
-1.95096e-05
1.07875e-05
6.70989e-06
2.0122e-06
1.50642e-05
-3.79615e-05
3.17675e-05
-8.87025e-06
2.62863e-05
3.12202e-06
2.80849e-05
-5.74932e-05
1.89045e-05
3.71473e-07
-4.8312e-07
-1.87929e-05
-1.16171e-05
4.65535e-05
4.35613e-06
-3.92935e-05
-9.09237e-07
-4.52848e-05
4.94919e-05
-3.29781e-06
-8.88295e-07
4.21257e-06
3.14858e-07
-3.6389e-06
-4.7929e-05
2.09432e-05
-4.13109e-06
3.11166e-05
-2.14494e-05
5.01648e-06
1.76674e-05
-1.23545e-06
-9.16424e-06
8.87605e-06
-1.8018e-07
4.68399e-07
-1.88412e-06
-7.44862e-06
5.33035e-06
4.0024e-06
1.88762e-05
-4.05693e-07
4.34133e-07
-2.14497e-06
2.13735e-06
7.68832e-09
-5.44198e-06
-2.58631e-05
2.74666e-05
3.83857e-06
5.07211e-06
-2.58593e-07
-8.08034e-06
3.26685e-06
2.02258e-05
-1.07428e-06
1.19049e-06
-2.03421e-05
-2.73833e-05
1.26176e-05
-2.94843e-06
1.77143e-05
1.75038e-05
2.57237e-06
-1.98277e-05
-2.48439e-07
-3.40749e-05
8.65303e-06
-1.19267e-05
3.73481e-05
-3.62475e-08
-2.08177e-06
2.11807e-06
9.34934e-06
1.07764e-05
1.75699e-06
-2.18828e-05
7.31523e-06
-3.69883e-05
3.03751e-05
-7.02018e-07
-3.51006e-06
4.40043e-06
3.70748e-05
-3.79655e-05
-1.85494e-05
1.57416e-05
-1.95472e-05
2.23551e-05
9.79464e-08
-2.41052e-05
-3.10201e-05
5.50274e-05
-1.31923e-06
4.33939e-05
-1.23799e-05
-2.96948e-05
5.12549e-06
-1.80224e-05
-7.19173e-06
-6.36875e-06
3.24407e-05
-3.15929e-07
-2.5756e-05
-2.2025e-06
1.5272e-05
-1.01992e-05
-2.87034e-06
-3.044e-05
-1.21226e-05
4.12433e-05
-1.17264e-05
3.58189e-05
1.58294e-06
-2.56754e-05
-3.41006e-05
4.25438e-06
-5.52021e-06
3.53664e-05
3.55886e-05
1.58706e-05
-4.70979e-05
-4.36128e-06
2.32258e-05
-1.61794e-05
1.55221e-06
-8.59856e-06
-1.00982e-05
2.91662e-06
1.02354e-05
-3.05357e-06
2.88134e-05
-7.67462e-06
1.63077e-05
-3.74472e-05
-1.01872e-05
-3.73889e-05
4.06428e-05
6.93352e-06
-2.05826e-06
7.54418e-06
-8.76413e-06
3.27821e-06
2.79753e-05
-1.20396e-05
2.01359e-05
-3.60715e-05
-2.13922e-05
4.97513e-06
3.74297e-05
-2.10126e-05
1.131e-05
-5.52285e-06
4.3584e-06
-1.01455e-05
3.93417e-05
-1.02416e-05
-3.0312e-05
1.21132e-06
-1.30233e-05
-1.47856e-05
8.15894e-06
1.965e-05
-3.08046e-05
-5.05525e-06
1.45301e-05
2.13297e-05
-2.74963e-06
3.15035e-06
-4.00759e-07
3.60365e-05
-6.18147e-06
-3.56113e-05
5.75629e-06
-1.59753e-05
-4.32847e-05
1.72989e-05
4.19611e-05
-4.01585e-06
4.30868e-06
-3.37379e-05
3.34452e-05
1.59621e-06
2.17309e-05
3.0977e-06
-2.64247e-05
3.37795e-06
-2.79816e-06
-5.7988e-07
-2.30164e-08
6.8345e-08
1.12585e-05
-1.13039e-05
6.24265e-06
-3.01979e-05
3.26579e-05
-8.7027e-06
9.70354e-06
-2.42553e-05
2.34624e-05
-8.91069e-06
7.10959e-06
-7.3356e-06
2.26311e-07
-1.97237e-05
-6.44129e-06
3.42791e-05
-8.11415e-06
-2.37077e-07
3.94998e-06
-3.713e-06
7.54233e-06
-2.93467e-05
8.81586e-06
1.29884e-05
4.88749e-05
-3.56376e-06
-3.25145e-06
-4.20594e-05
-2.73128e-05
-3.32024e-05
3.59115e-05
2.46037e-05
3.93744e-06
-3.74722e-05
6.2219e-06
3.66496e-05
-2.95165e-05
-8.62569e-07
-6.27057e-06
1.05059e-07
1.67234e-07
-1.47843e-05
1.45124e-05
6.42198e-06
8.47461e-06
1.29649e-05
-2.78614e-05
7.56983e-06
-3.97368e-06
3.07104e-06
-6.66676e-06
-1.61224e-05
-1.12068e-05
2.73373e-05
-7.948e-09
-2.11502e-05
2.60972e-05
-1.88806e-05
1.39337e-05
-2.94673e-06
2.00292e-09
2.94471e-06
-3.08507e-05
3.44254e-05
-3.5337e-05
2.7198e-05
-2.77397e-06
-9.2071e-07
-6.07569e-07
4.30229e-06
6.42159e-05
-6.18496e-05
1.87838e-06
-4.24491e-06
-1.14802e-05
3.57047e-06
1.10456e-05
-3.1361e-06
-4.64311e-06
2.57607e-05
-2.82902e-05
7.1726e-06
-1.79911e-05
-2.12975e-05
3.14767e-05
7.81195e-06
9.11052e-06
-1.30573e-05
1.85023e-05
-1.45552e-05
7.79222e-06
2.58796e-05
-5.30301e-05
1.93584e-05
-3.3726e-05
1.20839e-05
1.46633e-05
6.97891e-06
9.51209e-07
-3.08156e-05
2.51093e-05
4.75487e-06
-2.70996e-05
2.50365e-06
9.68299e-06
1.4913e-05
2.34088e-05
-2.03071e-05
6.97609e-06
-1.00782e-05
1.26427e-06
1.15569e-05
-1.26319e-05
-1.89469e-07
1.71294e-05
-2.43006e-06
-2.51784e-06
-1.21815e-05
1.59808e-05
1.83777e-05
-1.6034e-05
-1.83247e-05
2.32535e-06
-7.28761e-07
4.15155e-06
-5.74806e-06
4.48405e-06
-2.70213e-07
-4.21357e-06
3.31838e-08
3.72034e-06
-3.75354e-06
-4.71415e-07
2.92951e-06
-1.26017e-05
1.01434e-05
-2.03483e-05
4.11124e-05
4.39775e-07
-2.12037e-05
4.81395e-06
-2.22247e-05
1.71902e-05
2.20603e-07
-2.93709e-06
-3.88329e-06
1.09814e-06
5.72215e-06
-5.63852e-06
-1.37407e-05
3.6439e-06
1.57351e-05
-3.00071e-06
1.92656e-05
8.33832e-06
-2.46041e-05
4.00489e-06
3.57441e-06
-1.73204e-05
9.74131e-06
-2.71696e-06
2.83816e-05
-3.22816e-05
6.61698e-06
-7.15492e-06
7.33716e-06
-1.82817e-07
1.76163e-05
-2.18418e-05
3.48751e-06
7.37669e-07
1.84042e-05
1.08536e-05
-3.24483e-05
3.19052e-06
-2.66563e-05
-1.51676e-05
7.49657e-06
3.43275e-05
-2.12379e-06
-2.05767e-05
8.78474e-07
2.18217e-05
1.24105e-05
-1.28762e-05
1.00362e-07
3.65439e-07
1.60931e-05
-2.82032e-05
-5.37677e-06
1.7487e-05
-3.33516e-06
2.61624e-07
3.07339e-06
-4.4387e-06
-1.32646e-06
2.95246e-05
-2.37596e-05
-1.56778e-05
9.91274e-06
5.02319e-05
-4.44669e-05
-1.1022e-05
2.25581e-05
-3.28536e-05
2.13179e-05
1.63246e-06
-2.55594e-05
2.04312e-05
3.49609e-06
-4.00372e-06
-9.43125e-06
3.34782e-05
-2.00431e-05
2.31867e-05
-9.8185e-06
-1.02983e-05
-3.06994e-06
-2.83719e-06
-1.22403e-05
1.81149e-05
-3.03726e-06
5.82552e-06
-2.84592e-06
-2.97956e-06
-1.10171e-06
-2.50012e-05
-6.60928e-06
3.27122e-05
-1.47484e-05
2.06301e-05
5.86993e-06
-1.17516e-05
5.96776e-06
-1.47578e-05
2.51101e-05
-1.63202e-05
-4.90335e-05
1.17663e-05
-8.48235e-07
3.81156e-05
-2.52865e-06
-4.18138e-05
3.79081e-05
6.43419e-06
5.42473e-08
-3.7914e-06
3.73754e-06
2.08332e-05
-3.24178e-05
6.4296e-07
1.09416e-05
3.4954e-05
4.01515e-06
-3.77147e-05
-1.2546e-06
1.0669e-05
1.20953e-06
-2.53512e-05
1.34729e-05
-9.41887e-06
1.29911e-05
1.48319e-05
-2.59794e-05
-2.16929e-05
1.29778e-05
3.46939e-05
5.51188e-06
2.93507e-06
-3.96244e-06
6.80191e-06
-5.0253e-06
-2.58529e-05
2.40764e-05
4.34054e-06
1.37791e-05
-6.17661e-06
-1.19431e-05
-8.0213e-06
1.75089e-05
3.54715e-05
-4.49594e-05
1.72249e-07
2.32705e-06
-2.49931e-06
-2.21397e-05
3.50609e-06
1.3713e-05
4.92087e-06
3.53965e-05
-1.91892e-05
-2.40396e-05
7.83234e-06
3.27963e-05
-7.97663e-06
-3.69595e-06
-2.11236e-05
-2.86611e-05
-1.15302e-06
-7.58155e-07
3.05723e-05
2.55803e-05
1.14578e-05
-3.50347e-05
-2.00331e-06
6.92834e-06
4.83012e-06
-1.17584e-05
1.77217e-06
-2.48523e-05
-1.61168e-07
2.32411e-05
3.90533e-05
-3.00441e-05
-2.88288e-06
-6.1261e-06
4.27965e-06
-6.13314e-07
-3.42036e-06
-2.45952e-07
-3.29776e-05
4.69834e-05
2.00126e-05
-3.40183e-05
1.81255e-05
-2.96163e-05
-2.95874e-06
1.44496e-05
-2.34886e-05
2.55779e-05
-8.74531e-07
-1.21432e-06
-2.91003e-06
1.43756e-06
1.47245e-06
3.43099e-05
-3.8137e-06
9.79869e-06
-4.02948e-05
-2.57734e-05
3.50824e-05
-3.27972e-05
6.27823e-08
2.31453e-06
1.8517e-05
-2.08942e-05
2.56919e-06
-2.48484e-06
-8.44154e-08
-1.09081e-05
-6.13559e-06
1.03184e-06
1.6012e-05
-8.35495e-06
2.08047e-05
-1.5849e-05
3.39926e-06
1.52706e-06
-4.64449e-06
2.90766e-06
2.0992e-07
-1.8287e-06
-1.70671e-06
3.5354e-06
-2.20372e-05
2.20839e-05
2.21357e-05
-2.21824e-05
5.38691e-05
-1.33977e-05
-1.18485e-05
-2.86228e-05
1.27907e-05
4.96299e-07
-4.03046e-07
-1.28839e-05
3.74108e-05
-4.55258e-05
6.32485e-06
1.79008e-06
3.01422e-06
-4.98577e-08
-2.96432e-06
-6.01191e-06
2.89169e-05
-2.77313e-05
4.82648e-06
-1.37986e-05
1.44068e-05
-1.57368e-06
9.65439e-07
-1.02052e-05
8.91894e-06
6.06538e-07
6.7973e-07
2.41624e-06
-1.93308e-05
7.0797e-06
9.83492e-06
-1.13889e-05
-1.06968e-05
2.61162e-05
-4.03049e-06
-1.44401e-05
1.41566e-05
2.51439e-07
3.21246e-08
-3.01944e-05
-3.60596e-05
3.58142e-05
-1.16208e-05
3.74025e-05
1.19812e-05
-3.77629e-05
6.00199e-06
3.03558e-05
7.07641e-06
-4.34343e-05
-1.31837e-05
5.93664e-06
1.76908e-05
-1.04437e-05
-2.18011e-08
7.41248e-08
1.03552e-05
-1.04071e-05
1.28936e-06
3.8535e-05
-5.6889e-06
-3.41351e-05
-3.81869e-06
-2.45161e-06
4.09423e-06
2.17617e-06
4.1296e-06
-3.90127e-06
-2.28165e-07
-3.4335e-06
-1.20027e-05
9.96197e-07
-3.12761e-05
4.42452e-07
-6.17803e-06
3.70118e-05
-1.47116e-05
1.32245e-05
4.12555e-07
1.07438e-06
-4.27688e-07
8.07938e-06
-1.34634e-07
-7.51717e-06
-2.79697e-06
2.72759e-06
6.94738e-08
3.10555e-06
-8.21008e-07
2.09384e-05
-2.3223e-05
2.80303e-05
3.16763e-06
-2.45058e-05
-6.69217e-06
-3.37442e-06
-1.57955e-05
-1.00735e-05
1.34282e-05
-1.4791e-05
1.01442e-06
3.47617e-07
7.92503e-06
-3.23837e-05
3.80701e-05
-1.36114e-05
1.07874e-05
2.20192e-06
-5.62462e-06
-7.36437e-06
-1.66872e-05
-3.85231e-05
9.98721e-06
4.52233e-05
5.60816e-08
2.55922e-06
-2.00737e-07
-2.41442e-06
9.57105e-06
-6.3305e-07
1.48667e-06
-1.04241e-05
-9.70435e-06
2.13299e-07
9.5827e-06
-9.13788e-08
2.21862e-05
3.68199e-06
-2.78616e-05
1.99354e-06
-3.16758e-05
-1.77897e-05
4.04426e-05
9.02301e-06
-6.93322e-06
2.96686e-06
-6.36714e-06
7.38707e-06
3.11444e-05
-4.00041e-05
1.47239e-06
-2.21097e-05
-2.23151e-05
8.90243e-06
3.5523e-05
-2.66913e-06
2.91639e-06
-2.47272e-07
1.75386e-05
1.00402e-05
-1.97741e-06
-2.5601e-05
-7.14111e-07
-4.41479e-06
-2.93857e-05
3.45141e-05
-2.33678e-05
5.83101e-06
5.70404e-05
-3.95037e-05
2.81355e-05
-2.07468e-05
-1.12612e-05
3.8722e-06
2.56552e-06
-1.02139e-07
-2.46354e-06
4.19715e-05
-2.10538e-05
2.9576e-06
-2.38752e-05
9.21233e-06
-9.9338e-06
1.27909e-06
-5.57428e-07
2.42385e-06
2.31019e-06
-4.73403e-06
-1.65725e-05
-2.10704e-05
4.33731e-06
3.33053e-05
-1.10995e-05
2.11956e-07
1.15008e-05
-6.12992e-07
2.07302e-05
-4.24625e-05
5.38443e-07
2.11939e-05
-2.23787e-05
-2.70404e-05
3.61629e-05
1.3256e-05
-1.31059e-05
1.79841e-05
2.79182e-05
5.39711e-06
2.90886e-05
-3.03521e-05
-4.13348e-06
1.83058e-06
1.38912e-06
-1.23181e-05
9.09841e-06
-3.38501e-05
1.4795e-05
1.21456e-05
6.90962e-06
1.30276e-05
3.42844e-06
-1.48554e-06
-1.49711e-05
-3.29482e-06
-2.54714e-05
2.64694e-06
2.61194e-05
6.90298e-06
-2.65585e-06
2.80915e-05
-3.23386e-05
-1.93227e-06
-8.07636e-08
-4.87146e-06
6.88455e-06
6.71262e-07
1.11644e-05
-4.17623e-05
2.99269e-05
-1.50127e-05
-3.0537e-05
-1.05841e-06
4.66077e-05
3.5214e-07
4.93398e-06
-5.28586e-06
7.91199e-08
-1.87497e-07
1.0807e-05
-1.06988e-05
2.76958e-06
1.76453e-05
1.50116e-05
-3.54266e-05
2.58867e-07
-1.42015e-05
1.52265e-07
1.37904e-05
4.44954e-06
-2.15274e-05
-1.65514e-05
3.36294e-05
1.59828e-05
2.00341e-05
-1.75228e-05
-1.84945e-05
3.57106e-05
2.14104e-05
-4.80389e-05
-9.08222e-06
1.31431e-07
-4.26274e-06
4.13124e-06
2.65519e-06
1.30094e-06
-5.88763e-09
-3.95025e-06
1.89003e-06
2.47063e-06
3.07026e-07
-4.66773e-06
2.42571e-06
-2.92217e-06
1.46531e-05
1.86267e-07
-2.79381e-05
1.0453e-05
1.72991e-05
5.94618e-05
6.02318e-06
-1.24784e-05
-5.30073e-05
-7.85585e-06
1.06809e-05
-2.67673e-06
-1.48405e-07
-1.82104e-05
1.72081e-05
-2.92394e-05
3.02419e-05
3.02911e-06
5.91386e-08
-3.08847e-06
1.15696e-06
8.33087e-06
-1.59299e-05
6.44233e-06
3.00685e-06
-4.53462e-06
1.5277e-06
3.00262e-05
-1.60908e-05
-7.9676e-06
-1.59054e-05
5.75366e-06
-1.47777e-05
2.49296e-05
3.33643e-05
-3.25388e-05
5.20956e-06
-6.03498e-06
1.40058e-05
4.66552e-06
-1.67801e-05
-1.89106e-06
3.44072e-06
-4.04349e-05
1.40259e-05
2.29683e-05
2.65398e-05
-5.44809e-06
4.48656e-06
5.16912e-05
-5.70815e-05
1.87986e-06
-3.2468e-05
2.51486e-06
3.34895e-05
-3.53647e-06
-3.24046e-05
-2.09267e-05
3.5121e-05
-1.19026e-05
-1.19782e-05
-1.66962e-05
4.05771e-05
-1.38604e-06
4.57705e-06
3.99281e-05
-4.31188e-05
1.43816e-06
2.96078e-05
-5.09184e-05
1.98725e-05
-8.78971e-08
3.93002e-08
1.76261e-05
-1.75777e-05
-4.26562e-05
7.21839e-06
3.11074e-06
3.23262e-05
1.17894e-05
-1.18755e-05
4.02235e-06
-3.93601e-06
7.1498e-07
1.08414e-05
-1.38112e-05
2.25472e-06
-2.28927e-05
3.49177e-05
-4.62059e-06
-7.40438e-06
-3.67459e-05
2.71806e-05
1.69162e-06
7.87307e-06
-2.70708e-05
2.74085e-05
3.57464e-05
-3.60841e-05
3.58259e-05
-2.92876e-05
1.13034e-06
-7.66863e-06
-1.29365e-05
1.66443e-05
-9.95774e-06
6.25005e-06
-7.3225e-06
1.6849e-05
1.40763e-06
-1.09338e-05
-3.80545e-05
3.15553e-06
4.15268e-05
-6.62787e-06
-4.34621e-06
-2.4271e-05
3.98492e-07
2.82193e-05
2.31516e-06
-7.98628e-06
6.3861e-06
9.2291e-06
7.52359e-07
-8.84639e-06
-1.1351e-06
9.78428e-06
1.83528e-05
-2.1357e-05
-6.77985e-06
-1.07577e-05
1.51699e-05
2.59901e-05
-3.04026e-05
8.5441e-07
4.21901e-06
-3.55287e-05
3.04554e-05
1.65126e-05
-2.51051e-05
8.41614e-06
1.76641e-07
-4.15137e-05
-6.62373e-06
1.13921e-05
-3.2157e-06
-8.46386e-07
-2.37973e-05
2.78591e-05
-3.13137e-06
4.40752e-08
3.08734e-06
-5.4069e-06
-6.73478e-06
4.42021e-05
-3.20605e-05
5.06365e-06
-4.82276e-06
-2.40609e-07
2.53576e-07
1.93262e-07
-9.31087e-06
8.86425e-06
-2.09613e-05
2.06628e-05
3.60091e-05
5.80384e-06
3.26419e-05
-2.33974e-05
-1.50481e-05
4.34633e-06
-4.42026e-06
7.38481e-08
-4.37945e-06
4.83594e-05
-2.65431e-05
-1.74364e-05
-2.5963e-05
2.75382e-05
1.91549e-05
-1.97289e-06
2.60868e-05
1.07648e-05
-3.48788e-05
-3.66414e-05
-1.35188e-05
4.88679e-05
1.2924e-06
-4.54888e-06
4.1247e-06
4.24081e-07
3.58108e-05
-3.81438e-05
-5.0095e-07
2.83449e-06
-2.36634e-05
-1.50504e-05
2.15709e-05
1.71429e-05
-4.17509e-06
1.95506e-06
-2.39035e-05
2.61236e-05
-2.8356e-05
-7.37122e-06
6.15202e-07
3.51121e-05
-1.80116e-05
-9.00784e-06
-6.70674e-06
1.54244e-05
-3.53253e-05
-3.02328e-06
2.29239e-05
8.52955e-06
-3.55914e-05
-1.07893e-05
3.78508e-05
7.20883e-06
-6.85814e-06
-3.50805e-07
-3.01766e-05
5.05733e-05
-7.12398e-06
-1.32724e-05
-6.40489e-06
-2.66414e-05
3.00136e-05
3.03271e-06
-5.02332e-05
5.15958e-05
-5.85312e-06
4.49033e-06
-2.88046e-05
-7.03028e-06
2.08095e-05
1.50253e-05
-2.60975e-05
-5.62559e-06
3.18885e-05
-1.64765e-07
-3.35189e-07
9.24132e-08
-1.2184e-05
1.24268e-05
3.31854e-06
1.67472e-07
-3.48612e-06
-6.04104e-06
6.10292e-06
-6.19374e-08
4.34618e-05
-3.76438e-05
-5.09643e-05
4.51453e-05
2.80627e-06
1.1614e-07
-2.9223e-06
-2.81998e-05
2.77503e-05
-3.42929e-07
7.92517e-07
-1.02449e-05
8.67039e-06
2.1555e-07
1.35925e-06
5.3628e-06
5.25816e-05
-2.84808e-05
-2.94636e-05
-3.03502e-05
-9.27254e-06
3.63781e-06
3.59842e-05
3.36346e-05
1.54962e-05
-1.53248e-05
-3.38061e-05
1.25285e-05
-4.66532e-06
1.52144e-06
-9.3848e-06
3.58452e-05
-3.53049e-06
-2.58829e-05
-6.43232e-06
-3.82692e-06
5.68769e-06
-6.33893e-06
4.47823e-06
-2.53887e-06
8.42807e-06
3.09157e-06
-8.98067e-06
-1.49437e-05
-7.814e-06
4.2134e-05
-1.93759e-05
6.11336e-06
2.40388e-05
-2.34638e-05
-6.68848e-06
-2.25508e-05
2.32365e-05
1.49956e-05
-1.56812e-05
2.26931e-05
-2.05348e-05
-2.72437e-06
5.66669e-07
-5.15809e-08
-1.06961e-05
-4.67166e-08
1.07949e-05
-6.86028e-06
1.29665e-05
-1.44773e-06
-4.65856e-06
-3.21097e-05
-1.1022e-05
1.57945e-05
2.7337e-05
2.56397e-05
-2.15557e-05
-4.39006e-06
3.06477e-07
1.02411e-05
-3.45579e-05
-4.01178e-05
6.44348e-05
2.24509e-05
-2.93383e-05
-1.41433e-05
2.10313e-05
-6.2878e-06
-5.59823e-05
1.48317e-05
4.74379e-05
1.76779e-05
-1.56973e-05
2.475e-06
-4.45562e-06
3.01631e-05
-1.06509e-05
-3.6372e-05
1.68593e-05
1.34641e-05
2.34295e-05
-5.34505e-05
1.65561e-05
-7.86056e-06
3.20901e-05
-2.83708e-05
4.14147e-06
-2.9909e-05
3.45903e-05
3.49372e-05
-3.96184e-05
-4.8015e-08
-1.36514e-05
1.187e-05
1.82955e-06
3.97885e-06
-3.74006e-06
-2.38385e-07
3.84523e-05
-4.77105e-05
1.3977e-06
-3.94856e-06
5.27009e-06
2.79877e-06
-4.1201e-06
-2.83763e-06
1.37345e-07
-1.39554e-06
4.09606e-06
1.933e-05
-2.52432e-06
1.78323e-05
-2.72506e-05
1.06297e-06
8.35532e-06
-9.167e-06
-2.29727e-06
8.62717e-06
2.68646e-05
-3.50275e-05
1.98385e-05
-1.16754e-05
-2.88377e-05
-4.12107e-06
3.47438e-05
-1.78518e-06
-6.13451e-05
-9.40283e-06
5.45022e-05
1.62451e-05
-4.38299e-05
1.21338e-05
1.00508e-06
3.06913e-05
-3.97546e-06
3.10953e-07
8.32787e-07
2.83152e-06
-2.70143e-05
-3.2633e-05
2.45978e-05
3.50497e-05
2.08082e-05
1.80957e-05
-3.13583e-05
-7.54525e-06
1.14912e-07
1.38184e-05
-1.17081e-05
-2.22526e-06
-5.06918e-07
-2.07504e-05
4.11141e-05
-1.9857e-05
4.2393e-05
-3.01962e-05
-1.62004e-05
2.7934e-05
-3.1383e-05
6.21906e-06
-2.7706e-06
-3.98893e-06
-2.55479e-05
2.78027e-05
1.73446e-06
4.11773e-05
-2.888e-06
-4.22778e-05
2.31837e-05
-2.60672e-05
6.50462e-06
-3.62135e-06
1.73526e-06
-1.15415e-05
-9.41052e-07
1.07475e-05
-2.44445e-06
2.35389e-06
-2.80654e-06
2.89708e-06
-1.74466e-06
4.30895e-06
1.41668e-06
-3.98133e-06
-6.95892e-06
-1.85445e-05
-1.46666e-06
2.69701e-05
1.0929e-05
8.75956e-06
-2.97801e-05
1.00916e-05
-1.87056e-05
5.98508e-07
6.69729e-06
1.14098e-05
-1.61658e-06
-1.74324e-05
1.69254e-05
-2.23472e-05
2.65193e-05
8.42178e-06
-1.25935e-05
-3.29991e-05
3.8456e-05
-1.23653e-05
6.90866e-06
-6.15318e-06
-1.98552e-05
2.05266e-06
2.39557e-05
1.50618e-06
3.48122e-05
-4.08991e-05
4.58046e-06
1.72778e-05
-5.42182e-05
1.14687e-05
2.54714e-05
4.95403e-06
-3.84279e-05
2.09724e-05
1.25014e-05
1.61651e-06
2.11998e-05
-7.30869e-06
-1.55077e-05
-3.773e-06
1.83065e-06
3.69507e-06
-1.75265e-06
-3.9679e-06
7.89624e-06
-2.92763e-05
2.5348e-05
-1.51344e-06
-1.05754e-05
2.73878e-07
1.18149e-05
1.65265e-07
1.08543e-05
-1.66676e-07
-1.08533e-05
1.73719e-07
2.40169e-07
1.10983e-05
-1.15116e-05
-9.60837e-06
-1.6239e-05
2.89498e-05
-3.10209e-06
3.17283e-06
-3.17709e-05
1.71472e-05
1.14511e-05
3.37702e-05
8.32311e-07
2.71442e-06
-3.73172e-05
2.54694e-06
-2.60827e-06
6.13603e-08
1.05271e-05
2.11736e-05
-2.67467e-05
-1.06836e-05
3.90204e-08
1.31275e-07
1.05136e-05
2.26476e-06
-2.86997e-05
1.0412e-05
1.60231e-05
8.3522e-07
7.00144e-06
-7.08544e-06
-7.51388e-07
-5.45771e-06
-1.15329e-05
2.21285e-05
-5.13782e-06
2.72164e-05
-3.02495e-05
2.60634e-05
-2.30302e-05
1.91019e-05
-8.78712e-06
-3.26667e-05
2.23519e-05
-1.83629e-06
-1.74569e-06
3.58196e-06
1.12545e-05
2.35692e-06
-3.24756e-06
-1.03637e-05
-2.43891e-05
3.65325e-05
2.72458e-06
2.30372e-06
-5.02825e-06
2.40927e-06
-3.1102e-05
-3.72182e-07
2.90649e-05
-1.42691e-07
5.35433e-07
2.07809e-05
-1.41282e-06
2.19837e-05
-4.40757e-05
2.35049e-05
-6.98493e-06
-1.99179e-05
-2.7953e-06
2.96982e-05
5.53937e-06
-8.96217e-06
9.3085e-06
-5.88588e-06
-7.28947e-06
-3.60825e-05
-4.5268e-06
4.7899e-05
1.97348e-05
3.74253e-06
-2.27409e-05
-7.36362e-07
7.16865e-06
3.36719e-05
-5.56516e-05
1.48111e-05
-2.44089e-06
-1.42234e-05
-8.31602e-06
2.49803e-05
-1.81893e-05
-5.82885e-06
9.65003e-06
1.43682e-05
-1.04923e-06
-1.16344e-06
-1.24005e-05
1.46131e-05
4.24613e-05
-1.75399e-05
-1.01633e-05
-1.47578e-05
-2.62532e-05
6.3368e-05
-3.44584e-05
-2.65604e-06
1.07009e-05
2.88376e-07
2.86167e-07
-1.12759e-05
2.92481e-05
-3.51364e-05
3.48263e-05
-2.89384e-05
-5.12186e-06
1.6085e-05
-1.29867e-05
2.02336e-06
1.59683e-05
-5.76863e-05
2.12803e-06
3.959e-05
1.05131e-05
5.12055e-05
-4.36763e-05
-1.80423e-05
6.03657e-06
-5.8908e-06
-9.78952e-06
9.64405e-06
-2.21309e-05
-1.37573e-05
3.96015e-05
-3.7135e-06
3.5431e-05
-2.90913e-05
-4.1766e-05
3.54258e-05
1.82687e-05
1.48507e-05
-9.48014e-06
-2.36387e-05
1.21076e-07
-1.57024e-05
8.03891e-08
3.69916e-06
-3.77928e-06
-3.23607e-06
3.12465e-06
1.11354e-07
2.59309e-05
-2.43776e-05
-2.2163e-05
2.06098e-05
-7.74511e-06
9.97304e-06
-2.81327e-05
2.59042e-05
4.23291e-05
-3.30174e-05
-6.87573e-06
-2.43577e-06
-4.49603e-06
1.11746e-06
2.9071e-06
-9.03484e-06
3.19245e-05
-8.56296e-06
-1.43266e-05
-4.074e-05
1.0326e-06
1.41394e-05
2.55674e-05
1.60998e-05
-7.14748e-06
-1.55807e-05
6.62827e-06
9.24959e-06
3.93392e-05
-3.72631e-05
-1.13255e-05
-2.37784e-05
-4.65452e-06
4.5236e-05
-1.68027e-05
2.2512e-06
2.53821e-05
5.72786e-06
-3.33611e-05
8.57122e-06
2.758e-05
-3.39001e-05
1.81853e-05
-1.33916e-05
-7.07015e-06
2.27632e-06
2.46202e-05
-3.13286e-05
1.38771e-05
-1.25752e-05
7.97299e-06
7.51092e-06
-2.90875e-06
1.0232e-05
1.17599e-05
2.34658e-05
-4.54575e-05
4.2395e-06
-2.64722e-05
-4.0982e-06
2.63301e-05
3.1125e-07
2.81525e-05
2.51427e-06
-3.09779e-05
1.38054e-05
2.56652e-05
-4.29782e-05
3.50749e-06
-5.65987e-05
4.71377e-05
-7.26296e-07
2.87664e-07
3.90822e-05
-3.00451e-06
-3.63659e-05
-3.13215e-06
7.07532e-06
-9.67729e-06
5.73427e-06
-7.76207e-07
-3.36166e-06
2.22883e-07
3.91503e-06
-3.21919e-06
3.10067e-06
1.18458e-07
-4.86079e-06
-8.34813e-06
3.81159e-05
-2.4907e-05
-3.32226e-05
4.99462e-06
-1.46635e-05
4.28915e-05
4.3938e-05
-1.05002e-05
-1.43995e-05
-1.90382e-05
3.32945e-06
-3.13735e-05
1.14195e-05
1.66248e-05
3.26119e-06
-2.9447e-06
-1.14762e-06
8.30862e-07
-3.7697e-06
3.63383e-06
1.36006e-07
1.84413e-06
2.63233e-05
-4.6619e-06
-2.35052e-05
-5.65298e-06
2.71302e-05
-3.5131e-05
1.3654e-05
1.27694e-05
2.12457e-05
-4.95317e-05
1.55165e-05
-1.94506e-06
2.5931e-05
1.92638e-05
-4.32497e-05
-4.0897e-05
2.21301e-05
2.36411e-05
-4.87422e-06
4.25314e-05
-4.37086e-05
8.84551e-06
-7.66797e-06
-3.1229e-05
-4.93286e-07
-9.17456e-06
2.27976e-07
5.02895e-06
-5.25698e-06
2.9291e-05
3.88912e-06
-2.42452e-05
-8.93506e-06
-1.80282e-06
-2.5552e-06
1.21889e-05
-7.83101e-06
3.03754e-06
5.32559e-07
9.97145e-06
-1.35415e-05
-3.45283e-05
1.55631e-05
1.66214e-05
2.34373e-06
1.30615e-05
-2.07489e-05
-2.98188e-06
1.0669e-05
-2.4982e-05
5.6068e-06
4.09552e-05
-2.15799e-05
-2.94164e-06
-1.84046e-07
3.12528e-06
-1.58007e-05
4.0025e-05
2.89332e-05
-5.31572e-05
3.62695e-05
9.67052e-07
-5.73139e-05
2.00775e-05
-2.36911e-06
3.69035e-05
-3.17961e-06
-3.13547e-05
1.7879e-05
-1.38591e-05
1.07724e-05
-1.47916e-05
-1.30687e-06
-2.48302e-05
2.77746e-05
-1.63745e-06
-2.32915e-05
-3.46254e-06
-1.5386e-05
4.21398e-05
-7.78175e-06
-8.35162e-06
-1.4409e-05
3.05423e-05
-1.3111e-06
3.88385e-05
-4.45692e-06
-3.30705e-05
2.28239e-05
-2.27988e-05
8.21209e-07
-8.46316e-07
3.91091e-05
1.08691e-07
-2.69905e-05
-1.2227e-05
-8.54278e-06
-4.51046e-06
-2.45821e-05
3.76352e-05
-2.83403e-07
-2.97623e-06
3.2595e-06
-3.44406e-05
5.09563e-05
-3.72261e-06
-1.2793e-05
2.75201e-06
1.86051e-05
5.96768e-06
-2.73253e-05
-4.17915e-06
9.67524e-06
3.36739e-06
-8.86363e-06
-1.53216e-05
-3.78162e-06
1.58555e-05
3.24813e-06
2.21144e-05
1.50326e-05
-5.4862e-05
1.77151e-05
1.21371e-05
-9.50738e-06
3.00627e-05
-3.26922e-05
-2.32774e-06
1.90123e-05
1.54182e-06
-1.82264e-05
2.87127e-06
-2.82857e-06
-4.27443e-08
2.80415e-06
3.37683e-05
1.46913e-06
-3.80416e-05
2.80036e-05
-4.36859e-06
-2.70251e-05
3.39031e-06
-5.56192e-06
6.69745e-06
-3.1653e-05
3.05181e-05
-2.80562e-05
-4.37879e-06
2.1684e-05
1.07515e-05
1.02209e-05
-9.68261e-06
-8.22488e-08
-4.56296e-07
-4.23792e-05
2.77617e-05
-1.63424e-06
1.62518e-05
-4.79031e-06
4.02848e-06
7.61856e-07
1.40398e-05
-1.19603e-05
1.87765e-05
-2.0856e-05
1.95606e-05
1.64085e-05
-8.55292e-06
1.50378e-05
-4.03557e-05
-1.8678e-05
4.39958e-05
1.47801e-07
-1.48304e-05
1.48768e-05
-1.94352e-07
8.5714e-06
-1.38173e-05
-1.59562e-05
2.12024e-05
1.36186e-05
5.9533e-06
-2.34971e-06
-1.72221e-05
-4.05145e-06
9.47168e-07
5.14599e-06
-2.04175e-06
-5.09967e-06
6.21883e-05
-2.12169e-05
-3.58714e-05
1.64706e-05
1.87151e-05
-1.069e-06
-3.41168e-05
1.33836e-07
2.85739e-06
-2.99108e-06
-7.66785e-07
5.35998e-06
3.35517e-05
-3.81448e-05
4.54608e-05
5.86612e-06
-2.23188e-05
-2.90078e-05
-1.04663e-06
5.35391e-06
-4.21571e-06
-9.16666e-08
1.29876e-05
-1.16631e-06
-1.41742e-05
2.35326e-06
-3.94005e-06
-1.24498e-05
6.42121e-06
9.96891e-06
-6.37582e-06
2.85527e-05
4.43888e-06
-2.6616e-05
3.28967e-05
-4.3476e-06
-3.58078e-05
7.25873e-06
-2.97084e-06
5.75214e-06
-2.78131e-06
2.41088e-06
-1.05974e-05
9.46734e-06
-1.28103e-06
6.52791e-07
1.02223e-05
-1.07686e-05
-1.06776e-07
1.05107e-05
1.23626e-05
-1.45477e-06
-2.14186e-05
2.29443e-05
3.16264e-05
-2.16742e-05
-1.29316e-07
3.80941e-06
-3.68013e-06
-4.10689e-05
2.00476e-05
3.86224e-05
-1.76016e-05
3.99133e-05
6.97878e-06
-4.2117e-05
-4.77513e-06
3.01369e-05
-2.02557e-05
-3.31725e-05
8.34102e-06
1.43275e-05
-3.59368e-05
-1.92226e-06
-7.82414e-06
4.56835e-05
-8.81751e-08
3.70561e-06
-3.61753e-06
3.95795e-05
-1.44851e-06
-4.59352e-06
-3.35376e-05
3.90641e-06
-3.90061e-06
-5.56876e-09
-1.22154e-05
3.00154e-06
-7.36543e-06
1.65793e-05
-2.16534e-05
-1.8592e-05
1.64894e-05
2.37561e-05
1.98431e-05
-1.5115e-05
-4.2274e-06
-5.00257e-07
-4.42574e-08
2.96451e-06
-2.92054e-06
-6.74298e-07
-3.88477e-06
1.75907e-08
4.54161e-06
7.30991e-06
2.94186e-06
-5.20153e-06
-5.05035e-06
-1.14348e-05
1.24041e-05
-1.64356e-06
-3.84671e-07
4.2437e-05
-1.15011e-06
-4.09021e-05
-7.11146e-06
-7.02382e-07
9.3391e-06
-1.52536e-06
3.43936e-06
-1.35287e-05
1.06106e-05
-5.21309e-07
1.07901e-05
-2.0182e-05
1.4448e-05
-5.05614e-06
9.18322e-06
2.14764e-05
3.57363e-06
-3.42332e-05
5.36328e-06
-5.50557e-06
1.42212e-07
1.55009e-05
-1.25997e-05
-3.15633e-05
2.86616e-05
1.11189e-06
1.18427e-06
1.59484e-05
-1.82446e-05
4.56308e-06
1.94951e-05
-2.51939e-05
1.13557e-06
1.1406e-05
-5.34926e-07
-1.7649e-06
-9.10613e-06
1.12332e-05
2.35506e-05
-3.45259e-05
-2.58071e-07
1.37469e-05
-1.03076e-07
-1.17103e-06
-1.24728e-05
-2.55188e-05
9.2814e-06
1.27225e-06
1.49647e-05
-1.29186e-05
-1.2323e-05
-1.73186e-06
9.53994e-06
-1.68278e-05
1.27065e-05
-5.41918e-06
-4.54196e-06
-1.9104e-05
-2.85925e-05
5.22384e-05
-6.09628e-06
7.53473e-06
-1.73919e-06
3.00742e-07
3.93628e-08
2.46905e-06
-2.50855e-06
-7.93636e-06
4.07653e-05
1.20391e-05
-4.48685e-05
3.28708e-05
1.38954e-05
-1.21396e-05
-3.46266e-05
2.7569e-05
-2.2934e-05
2.62205e-05
-3.08552e-05
3.46476e-05
-3.80988e-05
4.19901e-06
-7.47778e-07
-6.09268e-05
2.6644e-05
1.17307e-05
2.25522e-05
-1.13785e-05
-1.42849e-06
1.25631e-05
2.43826e-07
3.57026e-05
-4.75363e-05
1.66961e-05
-4.86242e-06
1.03615e-05
-1.13671e-05
3.60925e-06
-2.60368e-06
-1.81086e-05
1.64999e-05
-1.13099e-05
-1.39945e-05
4.78559e-05
5.22908e-06
-3.909e-05
-5.24681e-06
1.39873e-07
5.10683e-06
-4.77358e-06
1.09077e-05
-4.02092e-05
-1.94208e-05
-3.22995e-07
1.8984e-07
1.95538e-05
4.43341e-06
1.29154e-07
-4.56224e-06
8.58716e-06
-5.62561e-07
-3.02567e-05
2.22322e-05
-5.97185e-08
-1.97535e-07
1.03506e-05
-1.00937e-05
8.23799e-06
1.82323e-05
-3.02694e-05
3.79913e-06
2.92617e-05
1.94747e-06
1.94231e-06
-3.31512e-05
-2.57594e-06
6.59612e-06
3.87936e-05
-4.28138e-05
-8.59326e-06
-1.04456e-06
-3.61596e-07
9.99956e-06
-9.90534e-06
8.46788e-06
-3.42646e-05
3.57019e-05
-1.31877e-06
2.44243e-05
-2.13695e-05
-1.73565e-06
4.14971e-05
1.2768e-05
-1.88674e-05
-3.53974e-05
8.99132e-06
-4.85758e-05
3.15632e-05
-4.15278e-05
5.30356e-05
-2.25823e-06
2.30166e-05
-9.17661e-06
1.90308e-05
-1.31602e-05
-3.21631e-06
6.34591e-06
1.00306e-05
-6.94034e-06
7.15495e-07
6.31837e-06
-9.37065e-08
-1.29614e-05
3.31026e-05
-2.33448e-05
3.20339e-06
-3.40604e-05
3.06826e-05
3.26915e-05
-2.93137e-05
-3.16521e-06
2.91922e-06
1.81693e-07
6.44902e-08
3.50563e-05
-5.08823e-05
-1.90224e-05
3.48477e-05
-4.8103e-05
-1.94218e-05
3.20976e-05
3.54269e-05
4.39606e-05
4.50334e-06
1.94452e-06
-5.04082e-05
3.75982e-05
-2.54595e-05
3.18219e-05
-3.76055e-05
-3.67501e-06
1.45144e-05
2.67664e-05
3.1197e-06
2.66138e-07
-3.38581e-06
4.09745e-05
-3.77849e-05
-1.28619e-05
9.67233e-06
-2.01268e-05
-7.09163e-06
5.84754e-06
2.13707e-05
1.56772e-05
2.7704e-05
-1.60339e-05
-2.73472e-05
6.80584e-06
2.1409e-05
-2.08327e-05
-7.38178e-06
4.4241e-07
-6.17293e-06
5.73053e-06
-1.93833e-05
-1.74646e-05
1.68674e-05
1.99806e-05
1.51192e-06
1.987e-05
-4.56373e-06
-1.68183e-05
-3.41203e-05
3.41326e-05
-6.41754e-06
-3.01312e-06
4.25462e-05
-4.14963e-05
1.9635e-06
2.05477e-05
4.21311e-06
1.11377e-05
-3.58982e-05
-4.96317e-08
-2.15194e-06
2.20168e-06
-3.12679e-06
3.11698e-06
9.98366e-09
-2.78858e-05
-1.2986e-05
1.57304e-05
2.51414e-05
-3.46231e-05
-6.05141e-07
4.18364e-05
-6.60822e-06
-1.08035e-05
3.98198e-05
-4.10152e-05
1.19989e-05
-2.66397e-05
2.18774e-05
-9.90533e-06
1.46676e-05
3.50686e-07
2.04173e-05
-2.28396e-05
2.07143e-06
-3.63523e-05
7.99804e-06
2.38864e-05
4.46779e-06
2.54211e-06
5.05145e-05
-1.89289e-05
-3.41279e-05
2.13137e-06
-3.96764e-06
-2.53248e-05
-1.33185e-05
1.07574e-05
2.0505e-05
-1.29089e-06
3.36745e-06
-2.25816e-05
-1.91774e-06
-4.41739e-06
5.57455e-06
7.60641e-07
1.32595e-05
-4.02622e-06
-9.43343e-06
2.00162e-07
1.29745e-05
-4.39929e-05
4.20923e-05
-1.10736e-05
-1.67053e-05
2.94475e-05
4.40751e-06
-1.71494e-05
-3.52682e-06
4.30718e-06
2.78023e-05
-2.85828e-05
-3.71707e-05
2.78816e-06
3.63595e-07
3.40196e-05
-2.06309e-05
2.41156e-06
1.6651e-05
1.56853e-06
-2.83546e-05
1.762e-05
4.04395e-05
-2.97046e-05
-1.39744e-05
-2.59308e-05
6.99984e-06
3.29056e-05
5.71367e-06
-4.3896e-05
-5.56404e-06
4.37465e-05
-3.36721e-05
4.3884e-06
-1.30778e-06
3.05914e-05
-3.62078e-05
-2.68205e-06
-2.27327e-06
4.11632e-05
7.47343e-06
-4.2199e-06
3.89865e-05
-4.224e-05
6.76637e-06
-3.84798e-06
-3.94078e-09
-2.91439e-06
5.03564e-06
-5.19473e-05
-8.20602e-06
5.51181e-05
-3.87944e-06
2.45929e-06
1.9918e-06
-5.71759e-07
-2.87889e-05
-7.55623e-06
1.58109e-05
2.05342e-05
-1.37451e-06
1.35064e-05
2.53974e-06
-1.46715e-05
-1.31011e-05
-1.41982e-05
9.30817e-06
-6.08034e-06
2.44176e-06
3.1407e-05
-2.77681e-05