/*--------------------------------*- C++ -*----------------------------------*\
| =========                 |                                                 |
| \\      /  F ield         | OpenFOAM: The Open Source CFD Toolbox           |
|  \\    /   O peration     | Version:  2406                                  |
|   \\  /    A nd           | Website:  www.openfoam.com                      |
|    \\/     M anipulation  |                                                 |
\*---------------------------------------------------------------------------*/
FoamFile
{
    version     2.0;
    format      ascii;
    arch        "LSB;label=32;scalar=64";
    class       volVectorField;
    location    "56";
    object      U;
}
// * * * * * * * * * * * * * * * * * * * * * * * * * * * * * * * * * * * * * //

dimensions      [0 1 -1 0 0 0 0];

internalField   nonuniform List<vector> 
59516
(
(0.103359 -0.00104491 -0.000512932)
(0.0949973 -0.000114653 -0.000376798)
(0.110597 -0.000635289 -0.000452535)
(0.127491 0.00125723 0.00187103)
(0.113676 0.000208762 -0.00456277)
(0.101091 -0.00483066 -0.0107984)
(0.126995 -0.00199466 -0.00221224)
(0.0992892 0.00063382 -0.0001108)
(0.110053 0.000929821 -5.98244e-05)
(0.0516643 -0.001019 0.00203578)
(0.154074 -0.000339074 -0.00247799)
(0.0597521 0.00020427 -0.00373424)
(0.116598 0.00116814 1.16201e-05)
(0.0190163 -0.000116905 -0.000178186)
(0.0577815 0.0013878 0.00318607)
(0.0497568 0.00345623 -0.00155579)
(0.169877 -0.0026122 -0.00123218)
(0.0700245 0.00401075 -0.00438251)
(0.114351 0.00610067 0.000633675)
(0.166203 -0.00160568 -0.000299162)
(0.0537482 0.000925231 -0.00128112)
(0.148292 -0.000928942 0.000251328)
(0.154536 -0.00108424 -0.00261062)
(0.0318447 -0.000969988 -0.000262888)
(0.161248 -0.000580569 0.000408913)
(0.0628499 0.00142965 0.000611333)
(0.0397023 0.000802023 -0.00276646)
(0.0442356 0.00378464 0.000194645)
(0.0652838 0.00274795 -0.000604347)
(0.0163699 -0.00255365 0.000629259)
(0.108359 -0.0210412 -0.00463999)
(0.0455294 0.00366858 -0.00057281)
(0.131737 0.000162759 0.000807297)
(0.110191 -0.000961123 0.00206606)
(0.139475 0.00548119 0.00396873)
(0.145945 0.000305689 -0.000474687)
(0.0158131 -0.00154407 -0.0021994)
(0.069924 0.00268161 -0.0067651)
(0.0949902 -0.00387521 -0.000383292)
(0.160359 5.72124e-05 -0.000754289)
(0.0985558 -0.000579307 0.000223364)
(0.144048 -0.00857366 -0.007971)
(0.148436 -0.00415193 -0.00343838)
(0.104245 -0.000670739 0.000334045)
(0.142572 -0.00548261 -0.000453601)
(0.0526959 -0.000729084 -0.00121629)
(0.132267 -0.0030321 -0.00453988)
(0.163635 -0.00524301 -0.00104096)
(0.111886 -0.0090024 0.0123909)
(0.151185 0.00689522 0.0054027)
(0.104055 0.0104763 -0.0145215)
(0.0416157 -0.0036104 0.00247321)
(0.117645 0.00100882 -0.00230413)
(0.125032 -0.000561016 0.000135678)
(0.0471817 0.0030194 -1.50471e-05)
(0.12954 0.00307708 -0.000929783)
(0.144975 0.00832893 0.00856721)
(0.0441263 0.00383511 -0.00268515)
(0.176895 0.000204962 -0.000234577)
(0.135254 0.00646667 0.00813183)
(0.14938 -0.000525821 0.000121028)
(0.0179529 0.00225793 -0.00078114)
(0.169903 0.000497673 0.000748498)
(0.167143 0.00286446 0.00222445)
(0.119373 0.000225344 -0.000738414)
(0.147672 0.00391864 0.00562471)
(0.0242633 -0.0016499 0.00222746)
(0.0389858 0.000256726 -0.000223183)
(0.12153 -0.00505638 0.0222412)
(0.13554 0.00126273 -0.00351898)
(0.0346815 0.000955525 0.000287032)
(0.164267 0.00260847 -0.000254865)
(0.0216741 0.00135522 -0.00330258)
(0.142714 0.00164353 0.00075912)
(0.185775 -9.13053e-05 -0.000502538)
(0.158205 -0.00266157 -0.0032846)
(0.164377 -0.00280122 -0.00410866)
(0.148596 -0.000270187 0.000335261)
(0.0433294 -0.00144138 0.00136571)
(0.151846 0.0031365 0.00802616)
(0.0359236 0.00220374 0.00106062)
(0.146959 0.00421772 0.00635543)
(0.139763 0.00190642 0.00612253)
(0.0187497 -0.00070848 0.00262636)
(0.146772 0.00333721 0.00667391)
(0.178048 -0.00100995 0.000301093)
(0.0307695 -0.00112468 0.000488749)
(0.149721 -0.000446871 -0.000298702)
(0.0520959 0.000664584 0.0020615)
(0.107115 0.00847494 -0.0058262)
(0.131523 -0.000881758 -0.0115301)
(0.139258 0.00150101 -0.000370511)
(0.176091 0.000394544 -0.000258952)
(0.137126 0.00107052 -0.000348581)
(0.163806 0.000138253 -2.25416e-05)
(0.10993 -0.0105379 0.00393697)
(0.139802 -0.000316477 0.000439671)
(0.0507705 -0.00186701 -0.00403088)
(0.064345 0.00243804 -0.00105884)
(0.148329 -0.000813236 0.00173628)
(0.035668 0.000551983 0.00135467)
(0.0229079 0.00119125 -0.00259534)
(0.0216561 0.000768759 0.00297592)
(0.0516426 -0.000784555 -0.00283763)
(0.13417 0.000787353 -0.000218559)
(0.148042 -0.00046944 -0.000384707)
(0.0374587 0.00330126 -0.00135792)
(0.102455 0.000310895 -0.000811514)
(0.0984256 -0.000674685 0.000223674)
(0.0630677 0.000392722 -0.00254333)
(0.124956 0.0129326 -0.0135738)
(0.0289464 0.00293748 -0.000468821)
(0.0638492 0.000816315 -0.00400213)
(0.118043 0.017431 -0.00875007)
(0.161084 2.00788e-05 7.0898e-05)
(0.0975858 0.00108534 0.00114734)
(0.0516359 0.000585999 -0.00192602)
(0.132262 -0.000102161 0.00072868)
(0.020619 -0.000300701 0.00099584)
(0.147018 0.00114288 0.000329205)
(0.190011 -0.000134898 0.000231771)
(0.171453 -0.000368395 0.000668075)
(0.158828 -0.000162371 0.000889788)
(0.170035 -0.000404133 0.000458419)
(0.132401 -0.0178485 0.00273486)
(0.0898008 0.0013054 -0.00306005)
(0.0280084 -0.000534399 0.00183043)
(0.138356 -0.0137962 -0.00115861)
(0.0898397 -0.00275605 0.0131419)
(0.18377 0.00038346 -9.98467e-05)
(0.187433 0.000186628 -1.47799e-05)
(0.110495 0.00171007 0.00190438)
(0.0219118 0.00130547 -0.00150292)
(0.14778 -0.000264759 0.00051309)
(0.0993461 0.00116477 0.000282271)
(0.113557 -0.000604122 -0.00214295)
(0.107485 0.0128249 -0.00897427)
(0.128254 -0.000387816 0.000334765)
(0.0372797 0.00258859 0.00012313)
(0.0967908 0.000554323 -0.00127156)
(0.041514 -0.000820023 -0.00213021)
(0.188367 -0.000506704 0.0002553)
(0.0175487 0.000744795 0.00153076)
(0.123871 -0.000985627 -0.000617309)
(0.178996 0.00058363 0.00124327)
(0.141751 0.00214617 0.000492844)
(0.140292 -0.00556716 -0.00213029)
(0.117115 0.00188085 -0.00310299)
(0.0621278 -0.00100503 0.0017311)
(0.105 -0.000584205 -0.000931394)
(0.101625 -0.000415913 -0.000839473)
(0.0327434 -0.00126197 1.82333e-05)
(0.168535 -0.000916375 0.00111833)
(0.154471 -0.00017159 0.000132861)
(0.087169 -0.000131583 0.00216768)
(0.0174633 -0.000324542 0.00188007)
(0.111162 -0.000418338 -0.00022976)
(0.112092 0.00161185 -0.000108913)
(0.0806902 0.00131975 0.000271541)
(0.0179073 0.00213762 -0.00233644)
(0.0621293 0.00157338 -0.00313716)
(0.0640302 -0.00347036 -0.00213805)
(0.0326711 -0.00133478 0.000319497)
(0.0233964 -0.000200807 -0.000453533)
(0.0971367 0.00182249 0.00237963)
(0.176177 -0.000166931 0.00106289)
(0.0587142 -0.000776377 0.000388116)
(0.18168 0.00111885 -3.44366e-05)
(0.0185784 -0.00116802 0.00211819)
(0.136488 -0.000576882 -0.000209743)
(0.0815216 0.00139244 0.00116211)
(0.0492862 0.000772766 -0.000754485)
(0.0607503 0.00158928 0.000752062)
(0.135911 -0.000218923 0.000522856)
(0.0471656 -0.000705524 0.000217152)
(0.134876 -0.00168138 -0.00555213)
(0.172165 -0.000404675 -0.000907767)
(0.149525 -0.00587285 -0.00369316)
(0.0640598 -0.000763594 0.00297842)
(0.0381735 -0.000112428 -0.000527427)
(0.146008 0.00240488 0.000631298)
(0.0311831 -0.00277266 -0.00127746)
(0.0266914 -0.00031619 -0.00209316)
(0.0610666 -0.00151102 0.000182138)
(0.182639 0.000396702 0.000734584)
(0.0559707 0.000307011 0.00068039)
(0.0330697 -0.000520626 -0.00259223)
(0.021297 1.6713e-05 0.000289701)
(0.120038 0.000252468 -6.68043e-05)
(0.0974394 -0.00172703 -0.000132812)
(0.13527 -0.000501797 0.00271691)
(0.0487667 0.00299265 -4.93918e-05)
(0.165195 -0.00118291 1.22333e-05)
(0.0535415 0.00194277 7.88389e-05)
(0.1547 -0.000150745 -0.000641365)
(0.0276465 -0.000245257 0.000763899)
(0.0536011 0.000742915 -5.55374e-05)
(0.037846 -0.00107333 0.000270087)
(0.106956 0.00288818 0.00354023)
(0.154647 0.000675083 -0.000594949)
(0.0778751 -0.00274047 0.000276148)
(0.189514 -0.000509782 0.000297123)
(0.0997539 -0.000801726 0.000804716)
(0.0180562 0.00195416 -0.00134003)
(0.125917 -0.000916508 -0.000523712)
(0.145108 0.000439228 0.000300398)
(0.185177 0.00043739 -0.000175852)
(0.155181 -0.00155274 -0.000745341)
(0.0213828 -0.000694147 0.000203111)
(0.111561 -0.00205371 -0.000108887)
(0.0474865 0.00335475 0.00300339)
(0.0235707 -0.00388603 -0.000641961)
(0.143194 0.000164398 -0.00148684)
(0.0524344 -0.0011502 0.000723323)
(0.113591 0.00151587 8.0307e-05)
(0.172919 6.92873e-05 -0.000378019)
(0.139726 0.001514 0.000571584)
(0.157732 -0.00146519 0.000449939)
(0.0509411 0.00205909 -0.00273587)
(0.157278 -0.000131966 0.000804159)
(0.0518567 0.0019778 0.001863)
(0.102629 0.000392849 0.000157199)
(0.166688 0.000701146 0.000964983)
(0.036453 -0.000164656 0.000605393)
(0.171936 6.06242e-05 -0.000393029)
(0.174214 -0.000382123 -0.000508484)
(0.0263487 -0.000306243 0.00133647)
(0.0437958 0.00141024 -0.00207253)
(0.173034 0.000547701 0.000664367)
(0.0511549 0.000250684 -0.00390424)
(0.174566 -0.000610371 -1.74201e-05)
(0.175066 0.000251566 -0.000399033)
(0.187258 0.000575005 0.000689887)
(0.023175 -0.0018042 -0.00130977)
(0.0305148 0.000824137 -0.00145818)
(0.0317672 0.000866164 -0.00115227)
(0.0598363 0.000372696 3.71187e-05)
(0.0935822 -0.00112599 0.000641124)
(0.157773 0.00105363 0.00129427)
(0.0539925 -0.00120316 0.00149738)
(0.189219 -0.000242401 0.000538768)
(0.0189423 0.000335424 0.00280278)
(0.0513053 4.38875e-05 0.000878295)
(0.0229213 0.000130372 0.00254442)
(0.185299 0.000627352 0.000567594)
(0.0891846 -0.000549032 -0.000156977)
(0.146069 0.000272185 0.00110894)
(0.0619799 0.000997604 -0.00139785)
(0.171112 0.000163455 -0.000622549)
(0.101944 0.000365239 0.000508485)
(0.167003 8.04465e-05 0.000104248)
(0.140249 -7.26406e-05 0.000697187)
(0.190284 0.000406346 0.000717955)
(0.144791 0.000802924 -0.000937949)
(0.147279 0.0011878 0.00111168)
(0.159088 -7.15887e-06 0.000955546)
(0.0525073 3.43314e-05 -0.000253751)
(0.154457 0.0010289 0.00187402)
(0.0392013 -0.000406144 -0.00217803)
(0.0566815 0.00045759 0.001975)
(0.128731 0.000835346 -0.00106334)
(0.163588 -0.000311609 0.000317726)
(0.112654 0.00319343 0.00157909)
(0.179437 0.000285712 0.000343488)
(0.0956501 0.000162449 0.00208367)
(0.0546103 0.00209417 -0.00150983)
(0.161135 -0.000171232 -0.00139813)
(0.0896544 0.00196397 0.000484223)
(0.0434442 -0.000732622 -0.0007016)
(0.0489634 0.000273157 -0.00142097)
(0.0956747 0.00107997 -0.00334322)
(0.175365 -0.000227296 -0.000224902)
(0.095581 -0.00244126 3.37988e-05)
(0.0895918 -0.00149061 0.000912504)
(0.166718 -0.00103692 -0.000597268)
(0.0895349 -0.000596498 0.00231308)
(0.0196786 0.00236643 -0.00133088)
(0.162957 0.000343837 0.000770204)
(0.0238118 0.00153334 -0.00205882)
(0.0380728 -0.00155941 0.00106219)
(0.185788 0.000508724 0.000914566)
(0.138694 0.000221293 -0.000392587)
(0.0236369 0.00253586 0.00252328)
(0.118832 0.000844392 0.000492124)
(0.12225 0.00247467 -5.11112e-05)
(0.168477 -0.00154923 0.00206156)
(0.185038 -0.000511853 0.000194497)
(0.022544 0.00267612 0.000480163)
(0.184472 0.000590568 0.000340626)
(0.189725 6.7956e-05 6.82966e-05)
(0.17651 0.000180525 0.000696166)
(0.134457 0.000844464 0.00080812)
(0.13732 0.000893753 0.000643836)
(0.0927701 0.000519476 -0.000175184)
(0.173795 0.00073097 0.000260655)
(0.0265003 -0.00095654 -0.00122021)
(0.162327 -0.000209868 0.000497343)
(0.138931 -0.000359221 -0.000617863)
(0.188842 0.000246925 0.000232409)
(0.172213 0.000894921 0.00072659)
(0.115056 -0.000415877 0.0006253)
(0.056338 0.000888911 0.00125107)
(0.0216119 -0.00033162 0.00149676)
(0.0266982 -0.000651381 0.000438433)
(0.164697 -0.00103126 -0.000984435)
(0.0191738 -0.00111603 0.00276113)
(0.0609746 -0.000336024 -0.00107965)
(0.049715 0.00277355 0.00109277)
(0.17038 0.000833383 0.000848706)
(0.177238 -0.00046713 -0.000261525)
(0.155124 -3.48621e-05 -0.000901297)
(0.0564608 0.000120439 -0.00129045)
(0.101015 0.00163556 -0.00243355)
(0.037978 -0.0031794 0.0025605)
(0.0539217 0.0013054 0.00107359)
(0.15953 0.000938611 -2.40717e-06)
(0.0956088 0.000990013 -0.000923758)
(0.107733 0.0123479 0.00350308)
(0.0881029 -0.00190906 0.000908944)
(0.0406711 -0.000163093 -0.000379498)
(0.0614652 -0.000905358 0.00198845)
(0.106051 -0.000997933 -0.00163448)
(0.179612 -4.00258e-05 -0.000453365)
(0.18808 -0.000899317 0.000897798)
(0.189053 0.000276914 0.00105618)
(0.163105 -0.00132823 0.000397568)
(0.0969344 0.00384839 0.00463708)
(0.125576 0.000633872 0.000857525)
(0.169314 0.000773523 0.00102335)
(0.162464 -0.00082867 0.000116674)
(0.165334 -0.000875252 0.000757345)
(0.0546303 0.00112818 -0.00331102)
(0.0211039 -0.00141188 -0.00247389)
(0.150852 -0.00139935 0.000238954)
(0.0374571 -0.00183639 0.00206325)
(0.0298994 9.46906e-05 4.6172e-05)
(0.163193 0.000499678 0.00182142)
(0.145323 -0.000102969 0.000388944)
(0.0596158 -0.00126784 -0.00303156)
(0.176903 -0.000679106 0.000340551)
(0.168523 -0.000838399 0.000444631)
(0.187698 -0.000504679 -0.000432133)
(0.177515 -0.0012913 -0.000374611)
(0.0310127 0.00149607 5.99846e-05)
(0.160534 -0.000313949 7.51314e-05)
(0.181466 -0.00071747 0.000594992)
(0.0551561 0.000135551 0.000822306)
(0.186414 4.09453e-06 0.00103162)
(0.179385 -0.000208756 0.000345974)
(0.130282 -2.15512e-05 -0.000876216)
(0.121595 0.000241058 -0.00101972)
(0.152967 -0.0011875 0.00159703)
(0.142962 -0.00117945 0.000294214)
(0.0673583 -0.000350397 -0.000137307)
(0.0301338 0.00126942 -0.000974477)
(0.0331591 -0.00247102 -0.000166758)
(0.0921236 0.000456475 -0.000318604)
(0.0862525 -0.00679258 0.0106288)
(0.0746066 -0.00420324 -0.00608612)
(0.0805195 0.000391516 0.000398679)
(0.1127 8.21817e-05 0.0020254)
(0.130677 0.000136054 0.00100995)
(0.159614 -0.00163474 0.004211)
(0.15773 -0.000821828 0.000882006)
(0.130785 -0.000869218 -0.000485347)
(0.14929 -9.72044e-05 0.00058566)
(0.14997 0.000824334 0.000327642)
(0.0297133 -0.000928381 -0.000333212)
(0.113926 -0.0224696 0.0027616)
(0.0557945 0.00140466 0.000449763)
(0.0390698 -0.0017307 -0.000395135)
(0.0394495 0.000856386 0.000314314)
(0.163287 -0.000635028 -0.000449832)
(0.0916163 -0.000572171 -1.93707e-05)
(0.161985 0.000579285 -0.00123332)
(0.0187284 0.00100865 -0.00160792)
(0.124957 -0.000366739 0.000334381)
(0.0422106 0.000987686 -0.000828765)
(0.16767 -0.000195722 -7.38396e-05)
(0.0455755 -0.00062538 -0.000485837)
(0.0596836 -0.00139733 0.00110144)
(0.103153 -0.00278625 0.000776893)
(0.151973 -0.00122888 0.00108212)
(0.0183948 0.00144672 -0.0019927)
(0.0521212 -0.000581378 0.00213449)
(0.132182 -0.000216143 0.000549618)
(0.0219009 -0.00136177 -0.00177145)
(0.13086 0.00131198 0.00953842)
(0.113996 -0.000833936 0.00260812)
(0.130668 -0.000583412 -0.00209293)
(0.0920961 0.00203079 -0.00289021)
(0.0856591 -0.00124396 0.0020872)
(0.163539 0.000449966 0.000240157)
(0.0771901 -0.0079159 -0.00718727)
(0.188068 7.94488e-05 5.13817e-05)
(0.111388 0.00865209 0.00903059)
(0.0569989 -0.00263547 0.000352096)
(0.0602732 -0.000443132 -0.00138508)
(0.184042 -3.40967e-05 0.000295166)
(0.18317 0.000194006 0.000363503)
(0.0501387 -0.000504198 0.000608109)
(0.13187 0.000349997 -0.000611791)
(0.0949458 -0.000458869 -0.00222092)
(0.184972 0.000276864 0.00044736)
(0.184172 -0.00023144 0.00095192)
(0.0433052 0.00128001 -0.00330721)
(0.131398 -0.00112786 0.000211603)
(0.145414 -0.00181291 0.00166385)
(0.148007 0.000641653 -0.000660341)
(0.157514 0.000802118 0.000540359)
(0.0203266 -0.000705806 -0.00255419)
(0.019921 0.000985037 -0.00249642)
(0.125402 0.00115458 -0.00164501)
(0.179737 -6.09101e-05 -0.000130108)
(0.186361 -0.00132047 -0.000669327)
(0.0326175 0.000344104 -0.00244501)
(0.172177 -0.00166234 0.000251934)
(0.104258 -0.00102499 -0.000874144)
(0.180038 -0.000188212 -2.92691e-05)
(0.180473 -0.000244826 0.0010921)
(0.18635 -3.28936e-05 -0.00055497)
(0.176911 0.000639891 0.000719746)
(0.175523 0.00156001 0.000484517)
(0.0858559 0.000534856 0.000295915)
(0.183804 0.00058918 -0.000192282)
(0.0536912 -0.00101081 -0.00256888)
(0.169846 8.40199e-05 -0.000553814)
(0.106727 -0.00038782 -0.00105722)
(0.15443 0.000364289 0.00102421)
(0.179266 0.000144741 -0.000214111)
(0.149034 -0.000426442 0.000132556)
(0.145079 0.000111434 -0.00137444)
(0.0382041 0.00218951 0.00206029)
(0.0320499 0.000836536 0.000240922)
(0.019871 0.00172621 -0.00196268)
(0.153329 0.00425031 0.00758526)
(0.19236 -0.000128757 -0.000255172)
(0.139416 -0.000694563 0.00067478)
(0.124739 0.000884701 6.72234e-05)
(0.0290808 -0.000104442 0.00110732)
(0.0222835 -0.000351624 0.00255607)
(0.11186 -0.000622928 0.00165419)
(0.154018 2.26887e-05 0.00143524)
(0.179781 -0.000355618 0.000726869)
(0.155019 0.000495872 0.000290538)
(0.134021 -0.00116795 -0.000717868)
(0.191676 1.27327e-05 0.000342017)
(0.133196 0.000670033 0.00104372)
(0.0249185 -0.000491614 0.00233421)
(0.120777 -0.000189356 0.000889124)
(0.0546351 0.000514088 0.00285985)
(0.0704798 -0.00704482 0.0015103)
(0.155406 0.000360685 0.00056493)
(0.0903542 0.000567153 -0.000122946)
(0.146675 -0.000144281 0.000232063)
(0.0192762 -0.00364151 -0.00131445)
(0.183746 0.000239393 -0.000544434)
(0.184922 -0.00020559 -0.000135303)
(0.182236 4.53034e-05 0.000698077)
(0.0886177 0.000896588 7.04459e-05)
(0.154288 -0.000933913 0.00172717)
(0.177093 0.000100014 0.000509193)
(0.119507 0.000449688 0.000237865)
(0.187133 0.000465034 0.000201332)
(0.0976449 0.00407601 -0.00342127)
(0.174013 0.000252519 -0.00035221)
(0.148874 -0.00292012 -0.000397678)
(0.0193121 -0.00123091 0.00139279)
(0.183286 0.000288113 0.000134949)
(0.114878 0.00226819 9.77317e-05)
(0.0436146 -0.00127351 0.00363008)
(0.0882551 0.000862121 -0.00154159)
(0.170204 0.000191425 -9.73062e-05)
(0.126881 -0.000421079 0.00113882)
(0.081194 0.000224229 -0.0022888)
(0.0191225 -0.00174326 -0.00188827)
(0.178035 0.000117536 -0.000248918)
(0.122804 0.00168007 -0.00184756)
(0.162471 -0.000417101 -0.000659492)
(0.122235 -2.43105e-05 0.000789771)
(0.0346563 0.00159702 0.0015287)
(0.140642 2.33731e-05 -0.000264322)
(0.0257214 0.00207922 -0.00331956)
(0.164887 0.000194904 -0.000801874)
(0.102281 0.0113991 -0.00365095)
(0.171367 -0.00148845 -0.000729606)
(0.048697 3.57043e-05 0.00172454)
(0.10321 -0.00117707 -0.00160431)
(0.0921304 7.19899e-05 -0.00119632)
(0.0326972 0.00183776 0.0016945)
(0.189576 7.24042e-05 7.2528e-05)
(0.176566 -0.000397178 0.000563888)
(0.0204142 0.000700373 0.00199603)
(0.164321 0.000364448 0.000372092)
(0.188871 0.000528096 0.000576127)
(0.0348714 -8.45991e-05 -0.00212701)
(0.0584851 0.0025833 -9.53436e-05)
(0.0508438 0.0018974 0.00132054)
(0.155091 -0.000237247 0.000691316)
(0.184095 -0.000177309 0.000475336)
(0.0324151 -0.000868592 0.00148654)
(0.0506656 -0.00169317 -0.000547349)
(0.0534947 0.00106107 -8.53931e-05)
(0.112654 0.00156195 0.000439804)
(0.186101 7.9638e-05 0.000611788)
(0.0218286 0.00119236 -0.0028437)
(0.160516 -0.000536025 0.000761005)
(0.151952 0.00393945 -0.000774437)
(0.184272 -0.000482691 0.000944044)
(0.0900998 0.00386714 -0.00372742)
(0.170505 0.000296501 0.00030602)
(0.0212297 -0.000279944 -0.00231372)
(0.165601 -0.00116014 -0.000582966)
(0.0254661 -0.000372044 -4.79132e-05)
(0.0585036 -0.0015834 0.000851981)
(0.154989 -0.00126542 7.80003e-05)
(0.0572731 -0.00171395 -0.000581925)
(0.0190585 0.00222808 0.00197366)
(0.0344047 0.000687061 -0.0010888)
(0.0424256 -0.0023025 0.00158738)
(0.0555099 0.00112414 -0.0016052)
(0.145984 0.000134072 -0.000895843)
(0.0473727 -0.00109252 6.21732e-05)
(0.0560776 0.0018236 -0.000954384)
(0.128246 -0.0071447 -0.0138102)
(0.173616 4.04596e-05 0.000437715)
(0.0223255 0.00143452 0.000260546)
(0.104192 0.000354121 -0.00110969)
(0.0812682 0.00887094 -0.00350939)
(0.174775 -9.50035e-05 -0.000312779)
(0.0556482 -7.67711e-05 -0.0013845)
(0.16921 7.05059e-05 0.00113896)
(0.0541854 -0.00219381 -0.00163456)
(0.121132 0.000756429 0.000585636)
(0.181162 -0.000268816 -0.000933325)
(0.0477518 0.00208393 -0.00429037)
(0.179197 8.50847e-05 -0.000217243)
(0.0475023 0.00225385 0.00240503)
(0.0177491 0.00270146 0.001011)
(0.146164 0.000821104 -0.000494777)
(0.184237 -0.000341075 2.60506e-05)
(0.127882 0.00103844 -0.000485415)
(0.123069 0.0016306 -0.000845329)
(0.183511 -0.000784571 -1.81409e-05)
(0.0574609 0.00171041 -0.000259364)
(0.170349 -0.000711301 0.000333287)
(0.0539719 -0.00175286 0.00229377)
(0.178439 0.000137771 0.000130563)
(0.124104 -0.00136685 -0.00135882)
(0.0260718 0.00067225 -0.00361616)
(0.15438 0.000879871 -0.000984364)
(0.0489251 3.75936e-05 0.0015551)
(0.024211 -0.00171538 -0.00181985)
(0.147868 -0.00142775 -0.000474077)
(0.0404787 -0.0011657 0.00103168)
(0.137004 -1.7205e-05 4.60604e-06)
(0.184687 -0.000416185 0.000936599)
(0.129842 0.000243395 0.000162082)
(0.0507925 -0.00228687 -0.00249391)
(0.183683 0.000883434 0.000395247)
(0.0865313 -0.00133401 0.00126362)
(0.19093 0.000161141 7.10374e-05)
(0.185047 -0.00011693 0.000502564)
(0.185461 -0.000351309 0.00106626)
(0.183537 -0.000547947 -0.000451054)
(0.0412608 -0.00233037 -0.00198018)
(0.0485904 0.00030766 -0.000408082)
(0.181993 -0.000798877 -0.000256704)
(0.163561 0.000107665 0.0017027)
(0.0294229 -0.0021559 -0.000970238)
(0.163517 -0.00028405 0.000717341)
(0.184957 7.88496e-05 0.000376778)
(0.180348 -0.00030859 -0.000321024)
(0.186212 -0.00062489 -0.000224599)
(0.113138 0.000116046 -0.00184363)
(0.019863 0.00202413 0.0017223)
(0.181164 0.000480245 -0.000176579)
(0.0970376 -0.000891807 -0.0011267)
(0.152593 0.00110094 0.000728689)
(0.0924982 0.000357642 -0.000160588)
(0.0270009 0.00190962 -8.51637e-05)
(0.186511 -9.59571e-05 0.000520759)
(0.0880786 0.00234163 0.00240332)
(0.131226 0.000120672 0.000224703)
(0.189303 -0.000255374 -3.1953e-05)
(0.140482 -0.00161294 -4.76521e-05)
(0.0159966 0.00148688 -0.00187203)
(0.0203205 -0.00127176 -0.00197645)
(0.180623 0.00066555 0.000207317)
(0.171712 -0.00113313 -0.000942298)
(0.189795 5.55516e-05 0.00117451)
(0.15376 -0.000556009 0.00130052)
(0.0886117 -0.00137669 0.000582667)
(0.149443 -0.00102539 -0.000600229)
(0.179699 0.000251969 0.000958196)
(0.0186365 0.00165278 0.000401908)
(0.183119 0.000753005 0.000528058)
(0.135022 -0.0151528 -0.000452128)
(0.0345056 -0.000572617 0.0018572)
(0.051568 -0.00329857 0.000822003)
(0.143334 -3.42415e-07 -0.000947771)
(0.139682 -0.00153643 0.00103541)
(0.136466 0.000396581 -0.000214137)
(0.121147 -0.000642092 0.000665581)
(0.101134 -0.00345216 0.00115022)
(0.188592 -3.62724e-05 0.000334458)
(0.0943575 0.000889155 -0.00295903)
(0.179237 0.000388208 -0.000190733)
(0.174988 0.000991983 5.3895e-05)
(0.190809 -8.92127e-06 0.000221699)
(0.179182 -0.000104778 0.000173202)
(0.0371191 -0.000314141 0.00185548)
(0.16589 -2.90037e-05 -1.44939e-05)
(0.0300071 0.00093715 -0.00122254)
(0.0944312 -0.00919624 0.00542648)
(0.0563324 0.00186178 0.00149876)
(0.127248 -0.00253301 -0.013078)
(0.128524 -0.000632029 -0.000773799)
(0.117473 -0.0190753 -0.00424985)
(0.174199 0.000366039 -0.000520699)
(0.178818 -0.000604428 -0.000249483)
(0.154925 0.00157779 -5.99871e-06)
(0.174931 -0.000384574 0.000463108)
(0.0307783 0.000259918 -0.000567198)
(0.100941 -0.00378763 -0.00254133)
(0.112495 -0.00209798 -0.0160167)
(0.181196 0.000212958 0.000218279)
(0.108847 -0.00221228 -0.000626682)
(0.136948 -0.0135692 -0.00478223)
(0.157248 -0.00398353 0.0045438)
(0.107666 0.000842604 0.000935892)
(0.0323523 -0.000645272 0.00118288)
(0.0503124 -0.00247934 0.00136581)
(0.0223102 0.000101622 -0.000205204)
(0.0210967 0.000170059 -0.00161181)
(0.0316821 -6.26406e-05 0.000145736)
(0.133622 -0.00971421 0.00555556)
(0.137837 -0.000654409 0.00084247)
(0.0214215 -0.000764882 0.00297403)
(0.0203243 0.00145765 0.00223766)
(0.19088 0.000127139 -0.000240438)
(0.0961424 -0.0126304 0.00858094)
(0.0341267 0.00147494 0.000528636)
(0.147488 0.000185997 -0.000648046)
(0.102117 -0.0011643 -0.00138047)
(0.132641 0.000255023 0.00124827)
(0.0383101 0.00200177 -0.00107687)
(0.0507226 0.00157229 -0.000613797)
(0.108083 -0.00123519 2.95846e-05)
(0.173053 -9.5392e-06 -0.00092665)
(0.152619 -0.000176322 -0.000755948)
(0.032388 0.00269301 -0.000915756)
(0.0217936 -0.00170345 0.00102301)
(0.106234 -0.0151806 -0.0112675)
(0.0232896 -0.00303145 0.000158193)
(0.132968 -0.000735829 -0.0010196)
(0.0244453 0.0013658 -0.00302163)
(0.100661 -0.000489379 0.00210901)
(0.180651 -0.00122295 9.50309e-05)
(0.180023 -0.000336324 0.00115491)
(0.039865 0.000599385 -0.000743944)
(0.0946153 -0.000228967 -0.00103969)
(0.0321313 0.00117742 -0.0013621)
(0.0252751 0.00299023 -0.00107924)
(0.181777 -0.000665268 -0.000498218)
(0.0171465 -0.00145763 -0.00219831)
(0.16828 -0.000366801 -0.000562253)
(0.0437904 0.00102578 -0.00207234)
(0.156112 -0.00133968 -0.000240138)
(0.14063 -0.000796186 -0.000167369)
(0.019681 -0.000519517 0.00312875)
(0.052512 -0.00261806 0.000260144)
(0.148742 0.000514828 0.000643605)
(0.0310654 -0.0015168 4.05727e-05)
(0.161886 0.000245268 -0.000520861)
(0.0496097 -0.00199109 0.00308708)
(0.104495 0.000225782 4.17785e-06)
(0.185797 -0.000482015 4.95521e-05)
(0.0329179 0.000981734 0.000679401)
(0.0213551 0.000912297 -0.0027537)
(0.0460723 0.000920305 -0.000394753)
(0.110797 0.0173812 0.0037345)
(0.100469 0.00036246 0.000467433)
(0.0515461 -0.00242725 0.002487)
(0.080362 0.000349825 0.00110271)
(0.0275143 -0.00104608 0.000645762)
(0.187222 -0.000672976 -0.000253721)
(0.021257 -0.00034201 -0.00163538)
(0.171197 -0.00037317 -0.00074855)
(0.14393 0.000193606 8.68909e-05)
(0.169712 0.000274348 -0.000598979)
(0.0174989 0.00173143 5.09753e-05)
(0.151127 0.00031744 0.000433022)
(0.0792205 0.000961946 0.000306389)
(0.158388 -7.79166e-05 8.14243e-05)
(0.0501205 -0.000575279 -0.000218959)
(0.108167 -0.0130056 0.00668612)
(0.160384 -0.00119981 -0.000528343)
(0.0359688 0.000412768 -0.000435342)
(0.191537 0.00010543 0.000422053)
(0.10887 0.00201315 -0.0204986)
(0.115476 0.00033336 -0.000808541)
(0.0298024 0.000776044 -0.0016422)
(0.0460454 -0.000452785 -0.00252141)
(0.184901 -0.00034187 -0.000146604)
(0.130457 0.00127605 0.000662076)
(0.0289991 0.00147691 0.000595854)
(0.106963 0.00142658 -0.00167149)
(0.0562845 -0.000461948 -0.00172012)
(0.0220364 -0.00190994 0.00130615)
(0.181594 -7.18074e-05 -0.000446625)
(0.103344 -0.00128072 0.0100298)
(0.128757 0.00137692 -0.00188834)
(0.175322 -0.000587987 -7.24512e-05)
(0.179617 -0.000502437 0.000724818)
(0.17111 -0.000261725 4.87438e-05)
(0.130761 0.000785448 -0.000281246)
(0.0395364 0.00101946 0.000343037)
(0.0362986 -0.00175717 -0.00175473)
(0.184218 -0.000237692 0.000676494)
(0.107584 -0.0093824 0.00872098)
(0.118655 -0.00103221 0.000475021)
(0.125849 -0.00170287 0.000955375)
(0.0772023 0.0018862 0.000828148)
(0.147863 -0.000372978 0.0015461)
(0.164496 -0.000663209 -0.000951833)
(0.0954196 -0.000271746 -0.00129573)
(0.100451 0.00181626 0.000519579)
(0.0354246 0.000530771 -0.00228425)
(0.067433 0.000474432 -0.000315781)
(0.0391461 -0.00100562 -0.00292771)
(0.151641 -0.000953492 0.000954984)
(0.177046 -0.000430302 -0.00032587)
(0.0900837 0.00185625 -0.00208521)
(0.0949764 0.000765532 -0.000629068)
(0.0189973 0.00195382 -0.000393515)
(0.0750663 -0.000321901 -0.000695129)
(0.0537198 -0.00181244 -0.00229495)
(0.178166 -3.4865e-05 -0.00101537)
(0.180558 -0.000967275 -0.000389532)
(0.104824 -0.00956294 0.00605163)
(0.164126 -0.000276351 0.00114288)
(0.077678 -0.0022698 -0.00190704)
(0.101708 -0.00254906 0.0079393)
(0.131297 -0.00156596 0.00166324)
(0.0234217 -0.00179718 -0.000172914)
(0.180588 -0.00071299 0.000221212)
(0.0459823 0.00128996 -7.45443e-05)
(0.138658 -0.000224401 0.00135481)
(0.0256144 0.00365782 -0.000288588)
(0.176935 0.000115117 -0.000687425)
(0.101647 -0.00432683 0.00266222)
(0.158597 -0.000725277 -0.000238609)
(0.112235 0.00038476 0.000562689)
(0.146123 -0.000140278 0.000948749)
(0.149463 0.00131441 0.000368904)
(0.188046 0.000502639 0.000338565)
(0.0314595 -0.00192919 -1.64918e-05)
(0.0435166 0.00059548 -0.000929178)
(0.0262516 -0.000687815 -0.000213791)
(0.17936 -0.000408408 0.000738871)
(0.157869 0.000261829 -0.000428992)
(0.135087 0.00163528 -9.16406e-05)
(0.160119 0.000526477 -0.00142409)
(0.019085 0.00034999 0.000497473)
(0.0944872 -0.00025128 -0.000223904)
(0.0853071 0.000996897 -0.00187281)
(0.178635 -0.000314397 -0.000587807)
(0.124616 -0.000892421 -0.000243254)
(0.145189 -4.31226e-05 -0.000567423)
(0.102706 -0.000340559 0.00129618)
(0.183652 -0.00021201 -0.000245162)
(0.0188101 -0.00217314 -0.00228321)
(0.081356 -0.00333304 0.00043912)
(0.152646 -0.000446874 0.000554706)
(0.0235718 -0.0021583 0.00184018)
(0.0412746 -0.000773842 -0.00194638)
(0.0577991 -0.000937791 0.000625478)
(0.0195403 0.00120399 -0.00206752)
(0.0910477 0.000480308 -0.0012901)
(0.170642 0.000203841 -0.000299049)
(0.0564647 -0.00162742 -0.00159807)
(0.0173451 -0.00224935 -0.00165766)
(0.100589 0.000377805 -0.000807321)
(0.023576 0.000141837 0.000356053)
(0.0947246 0.00120176 -0.000664862)
(0.176177 0.000106022 0.000173833)
(0.190521 -6.67105e-05 -6.93194e-05)
(0.175478 -0.000279749 -9.01003e-06)
(0.165116 0.000839741 -2.2115e-05)
(0.17757 -0.000186869 0.0001814)
(0.127952 0.000468165 0.00218291)
(0.0430338 0.000823578 -0.0011027)
(0.178243 0.000537096 0.000333699)
(0.121355 -0.000310652 0.000989519)
(0.08427 0.000545579 -0.00166501)
(0.0926489 -0.000954052 0.00132487)
(0.164877 -0.000202497 0.000390063)
(0.112379 -0.00123904 -0.000702263)
(0.0613704 4.16235e-05 0.00161551)
(0.154902 0.000853283 0.00135018)
(0.0305657 0.00114035 0.000521111)
(0.0833748 2.4124e-05 0.000625522)
(0.0925537 -0.000286326 0.000178542)
(0.0570906 0.000353179 0.000948418)
(0.161298 6.06942e-05 -0.000195841)
(0.106007 -0.0125994 0.013434)
(0.127217 0.00812277 0.00528792)
(0.0297985 0.000569822 -0.00259938)
(0.0241581 -0.00152996 0.000780101)
(0.0524629 0.00197775 -0.00105094)
(0.0187032 -0.00120054 -0.00150502)
(0.124428 0.000570458 -0.000650843)
(0.154508 0.000665688 -0.001038)
(0.126591 0.00172075 0.000336319)
(0.110213 0.0101101 -0.0115961)
(0.13253 -0.000198247 0.000261319)
(0.14679 0.000351585 -0.000764568)
(0.0230788 -0.00194452 0.00441827)
(0.158092 0.000718853 -0.000255698)
(0.127574 -0.00406329 0.012518)
(0.0407362 0.000756711 -0.00105195)
(0.020133 -0.00340342 0.000650635)
(0.112184 0.000386495 0.000473469)
(0.105197 -0.00141051 -0.000642281)
(0.0236347 -0.00164205 0.00265299)