/*--------------------------------*- C++ -*----------------------------------*\
| =========                 |                                                 |
| \\      /  F ield         | OpenFOAM: The Open Source CFD Toolbox           |
|  \\    /   O peration     | Version:  2406                                  |
|   \\  /    A nd           | Website:  www.openfoam.com                      |
|    \\/     M anipulation  |                                                 |
\*---------------------------------------------------------------------------*/
FoamFile
{
    version     2.0;
    format      ascii;
    arch        "LSB;label=32;scalar=64";
    class       volScalarField;
    location    "32";
    object      epsilon;
}
// * * * * * * * * * * * * * * * * * * * * * * * * * * * * * * * * * * * * * //

dimensions      [0 2 -3 0 0 0 0];

internalField   nonuniform List<scalar> 
59516
(
0.0161622
0.0155891
0.0127333
0.0119275
0.00947236
0.345336
0.0112652
0.0149853
0.0136498
0.0320436
0.00857974
0.030919
0.0129221
0.0983173
0.0274118
0.031956
0.0081259
0.0406387
0.0160251
0.00793095
0.0383983
0.00930117
0.00865883
0.0440779
0.00827296
0.0246445
0.0434383
0.0480233
0.0275353
0.0756662
0.0459964
0.0432923
0.010722
0.0139413
0.0114161
0.00907917
0.0721318
0.0463223
0.0197296
0.00838259
0.0152177
0.010623
0.00960291
0.0171067
0.0098222
0.0325974
0.0116289
0.0083086
0.0127642
0.00993339
0.0271485
0.0359809
0.012036
0.0118086
0.032479
0.0122678
0.0105608
0.0380535
0.00818096
0.0129534
0.00927573
0.0579507
0.00856579
0.008378
0.0117668
0.0102143
0.0731989
0.0360427
0.0202207
0.0110617
0.0353143
0.00874338
0.0569067
0.0101473
0.00763243
0.00861295
0.00831294
0.00940163
0.0334082
0.0100276
0.0418957
0.0105355
0.0114242
0.0633053
0.0106397
0.00778505
0.0444515
0.00874158
0.0300692
0.0271682
0.0104656
0.0107459
0.00765609
0.0109838
0.0089857
0.0108017
0.0105681
0.0331969
0.0344208
0.00954617
0.0359506
0.0555198
0.055343
0.0296582
0.0108113
0.010114
0.0416469
0.0150121
0.0159
0.024014
0.0202757
0.0311151
0.0261695
0.0305503
0.00826476
0.0177389
0.0283065
0.0113965
0.0533882
0.00950837
0.00771681
0.00878641
0.00858714
0.00873043
0.0159684
0.0221018
0.0531203
0.0136498
0.0821342
0.00760116
0.00768675
0.0137215
0.0538426
0.00868498
0.0154761
0.01254
0.0373934
0.0101839
0.0380855
0.0174538
0.034345
0.00758922
0.0722271
0.0122427
0.00805457
0.00953985
0.0103618
0.0139393
0.253363
0.0140105
0.0164959
0.0412702
0.007745
0.00862463
0.0187317
0.0814947
0.0129908
0.0125776
0.0214773
0.0702954
0.0248651
0.023486
0.044958
0.0829968
0.016513
0.00778332
0.0254398
0.00765608
0.0636839
0.011202
0.0206616
0.0350614
0.0226434
0.0103942
0.0333193
0.0116341
0.00862625
0.00950098
0.0231703
0.0433978
0.00914274
0.0521691
0.0711519
0.0282648
0.00772124
0.0303379
0.0452532
0.0652946
0.0120073
0.0166981
0.0111086
0.0328363
0.00803315
0.0289793
0.00833564
0.0506953
0.0321939
0.0406956
0.014776
0.00836174
0.0226642
0.0078536
0.015062
0.0689078
0.0112693
0.00950342
0.00750486
0.00965858
0.0695425
0.0136404
0.0363395
0.0670181
0.0098505
0.0309026
0.0133375
0.00800966
0.00973764
0.00825301
0.0318426
0.00882925
0.0321367
0.0149773
0.00884323
0.0375518
0.00835234
0.00819561
0.0367282
0.0330903
0.00799824
0.0299582
0.00784415
0.00809652
0.00785659
0.044917
0.0459366
0.0421548
0.0292702
0.0154832
0.00892336
0.0344081
0.007617
0.0646287
0.0315381
0.0571899
0.00768066
0.0184397
0.00959105
0.0231099
0.00768504
0.0149764
0.00798133
0.00998538
0.00766192
0.00962634
0.00939156
0.00830093
0.0334124
0.00910512
0.0334077
0.0274783
0.0110733
0.0084093
0.0134284
0.00759501
0.0170404
0.0310833
0.008586
0.0184855
0.0298674
0.0341393
0.0181157
0.00830527
0.015298
0.0182986
0.00814256
0.0180927
0.0528621
0.00814342
0.0418278
0.0361224
0.00788976
0.0102887
0.0495656
0.012784
0.0118584
0.00816868
0.00774838
0.0517436
0.00786014
0.00789269
0.00825202
0.0110519
0.0109143
0.0173647
0.00778401
0.0318582
0.00863409
0.00933236
0.0077994
0.00825896
0.0123609
0.0285345
0.0541357
0.0318319
0.0078173
0.0672336
0.0221361
0.0341902
0.00792978
0.00726331
0.00821671
0.0287107
0.0155188
0.0385785
0.0362268
0.00906878
0.0168189
0.0118067
0.0193493
0.0390916
0.0254486
0.0153711
0.00802193
0.00775843
0.00785783
0.00832434
0.022424
0.0114953
0.00868741
0.00885107
0.00823872
0.028652
0.0555665
0.00942056
0.0332859
0.045586
0.00855272
0.0100076
0.0333411
0.00828677
0.00803307
0.00788269
0.00815477
0.0420029
0.0085163
0.00837808
0.0316493
0.00786173
0.0083433
0.0112747
0.0118027
0.00927915
0.00939825
0.0267492
0.051126
0.0377647
0.0168607
0.0533721
0.0976119
0.0234659
0.0140011
0.0104463
0.0085038
0.00827969
0.0106368
0.00947029
0.00977479
0.0439562
0.0361972
0.0316217
0.0375357
0.0390044
0.00903243
0.0170203
0.00860386
0.0608894
0.0116278
0.0385422
0.00857166
0.0378221
0.0265627
0.014303
0.00866056
0.0645187
0.0292043
0.010883
0.0497359
0.0143211
0.0139509
0.0103196
0.0181929
0.0184066
0.008298
0.0683835
0.00789685
0.0290515
0.0248334
0.0254529
0.00790166
0.00764092
0.0343861
0.0104722
0.0175647
0.00778729
0.00782127
0.0300585
0.011546
0.00935317
0.00931807
0.00876186
0.0535845
0.055653
0.010951
0.00788136
0.00776011
0.0418665
0.00867763
0.0136446
0.00825426
0.00776594
0.00759665
0.00818509
0.00817641
0.0187263
0.00811295
0.0259761
0.00845525
0.0150233
0.00939201
0.00811075
0.00938664
0.00997158
0.0368412
0.0452629
0.0588158
0.00956978
0.0073021
0.0105992
0.0113114
0.0456006
0.0597547
0.0136918
0.00961028
0.00808033
0.00863993
0.00981362
0.00742304
0.00989333
0.0418374
0.0119335
0.0307276
0.115721
0.00909446
0.0168618
0.00981329
0.0627449
0.00775199
0.00775075
0.00824172
0.0190561
0.00959973
0.00815879
0.0124993
0.0080882
0.0197858
0.00809892
0.00928641
0.0562705
0.00787302
0.013218
0.0314436
0.0177865
0.00811599
0.0112588
0.0221053
0.059087
0.00785189
0.0110889
0.00835215
0.011458
0.0403564
0.00988334
0.0643541
0.00865143
0.017007
0.00839067
0.0292383
0.0151475
0.0169354
0.0405201
0.00769674
0.00850809
0.0663527
0.00838293
0.00787029
0.0395844
0.0260745
0.0281172
0.00903175
0.00811409
0.092456
0.0327267
0.0307919
0.0140973
0.00799822
0.0507877
0.00833441
0.00918149
0.00788602
0.114235
0.00769672
0.0468319
0.00810037
0.0576768
0.0282005
0.0094741
0.0283049
0.061114
0.042224
0.0294061
0.0309169
0.00897543
0.0349118
0.0257797
0.0129101
0.00849109
0.0385797
0.0140215
0.0689514
0.00786441
0.0331683
0.00894949
0.03202
0.0123208
0.0081139
0.030891
0.00809805
0.0567852
0.0735099
0.00915063
0.00782897
0.011543
0.0118954
0.00756014
0.0284654
0.0078505
0.0279397
0.00827973
0.0115773
0.0404837
0.00841685
0.0299676
0.0402463
0.00903123
0.0383336
0.0104881
0.00793799
0.0109298
0.0291297
0.00754394
0.0201172
0.00742515
0.00753753
0.00771958
0.00790418
0.0356716
0.0328178
0.00785332
0.00856839
0.0492527
0.00862605
0.00726726
0.00745846
0.00745303
0.0129155
0.0632832
0.00755208
0.015998
0.00948366
0.0162711
0.036709
0.00803234
0.0193837
0.00993268
0.00749866
0.010034
0.0735082
0.0566601
0.00810757
0.00870185
0.00785007
0.00983834
0.0193792
0.0099194
0.00801192
0.0497985
0.00806902
0.0145572
0.0405709
0.0262501
0.00913658
0.00996332
0.0105408
0.0120272
0.0159182
0.0077001
0.0183278
0.00769171
0.00808669
0.0074545
0.00792398
0.0372369
0.00809994
0.0488836
0.095196
0.0276246
0.011343
0.0103965
0.030275
0.00842878
0.00742571
0.00868356
0.00805339
0.0439201
0.0104451
0.0144399
0.00796695
0.0139206
0.01347
0.00876586
0.0136124
0.0385644
0.0331522
0.0365416
0.0637183
0.0404751
0.0130101
0.0103513
0.070365
0.060902
0.00781151
0.0661814
0.0428341
0.00981528
0.0143887
0.0109772
0.0422127
0.0317464
0.0140218
0.00815851
0.00912099
0.0457515
0.0471387
0.0596656
0.0481078
0.010177
0.0460142
0.0160652
0.00812978
0.00739283
0.0365144
0.0163228
0.0443998
0.0500951
0.00809925
0.069616
0.00856658
0.0306502
0.00901574
0.0101582
0.0602314
0.0307429
0.00956207
0.0407329
0.00903872
0.0338251
0.0148329
0.00794925
0.0411934
0.0555027
0.0316017
0.0191362
0.0159052
0.0333522
0.0221387
0.0535899
0.00794339
0.040725
0.00766447
0.00924944
0.00851274
0.0707952
0.00870784
0.019781
0.00857797
0.0352292
0.0141681
0.00810976
0.0401277
0.00766109
0.0295709
0.011962
0.0473003
0.0294293
0.0079968
0.010724
0.0445587
0.0130242
0.0277504
0.0496033
0.00803456
0.0121635
0.0106312
0.00826611
0.00813765
0.00832231
0.0105022
0.0324234
0.0360565
0.00771667
0.0126497
0.0132767
0.0112592
0.0235533
0.00913866
0.00868385
0.0161252
0.0156553
0.043619
0.0198755
0.0440127
0.0092704
0.00768094
0.0188034
0.0162025
0.0625086
0.0233543
0.032667
0.00830492
0.00800418
0.0128153
0.00898315
0.0227653
0.0160224
0.0106706
0.0596411
0.00804224
0.0360184
0.0104028
0.0515234
0.00785107
0.0106555
0.00895264
0.0135311
0.0100153
0.00928618
0.00795245
0.0387181
0.0288923
0.0549098
0.00833748
0.00889726
0.0111259
0.00816323
0.0866842
0.0163184
0.0192528
0.00820115
0.0116909
0.0102588
0.0161648
0.00810683
0.0591551
0.021195
0.0098134
0.0389756
0.0345222
0.0264006
0.0604951
0.0191744
0.00863784
0.0270082
0.0666835
0.0149458
0.0350287
0.0156912
0.00808923
0.00781228
0.00826797
0.00815964
0.00815938
0.010726
0.0454885
0.00789948
0.0113239
0.0203611
0.0165561
0.00845067
0.0130164
0.0247121
0.00850006
0.0417751
0.0192741
0.0184997
0.0269636
0.00886406
0.042616
0.0166403
0.0456031
0.0525114
0.0288309
0.0607815
0.0115216
0.00971154
0.0116308
0.031111
0.0114927
0.0102629
0.0574581
0.00939513
0.0107779
0.0369655
0.0591001
0.0136735
0.0138487
0.0471303
0.00838047
0.0567581
0.00800638
0.00926596
0.0124714
0.00887482
0.0088323
0.0157642
0.00810927
0.0830744
0.0449063
0.0166555
0.0165418
0.0689048
0.0101657
0.0132847
0.00776799
0.00859237
0.0237906
0.00953973
0.00769715
0.0194729
0.0317936
0.00831585
0.0167448
0.0387626
0.00872068
0.00843645
0.00858282
0.0175183
0.0108859
0.0146014
0.0208915
0.0160634
0.0167939
0.0102409
0.02888
0.009313
0.00799779
0.00939816
0.00921955
0.0143738
0.0122302
0.0416555
0.0286431
0.0119526
0.00989837
0.0105379
0.00772675
0.00894201
0.0076966
0.00741233
0.22914
0.0134373
0.00768404
0.0538566
0.00952402
0.00963948
0.0534373
0.00873021
0.00805484
0.0159358
0.00793754
0.0079202
0.00782288
0.0272451
0.0106624
0.0358419
0.0136622
0.00830991
0.0478935
0.0381656
0.0301872
0.0124757
0.0366764
0.00948858
0.00816414
0.00829582
0.00831654
0.0202446
0.0276849
0.00906646
0.0081304
0.0132539
0.0208047
0.00907813
0.0080616
0.00755479
0.0439565
0.0077664
0.0178353
0.0228975
0.0431537
0.0306509
0.0192361
0.00813577
0.0339178
0.00840268
0.00811064
0.00848962
0.00801572
0.00838869
0.0073278
0.00794172
0.00795341
0.00972214
0.0102918
0.0126151
0.0420964
0.0352558
0.0088946
0.0110928
0.0437096
0.00835348
0.0156234
0.00795494
0.00788186
0.00795745
0.00988319
0.0195306
0.00792443
0.123214
0.0170894
0.00796375
0.070563
0.00837296
0.0416063
0.0206558
0.00909785
0.0229629
0.0385702
0.00897199
0.00943134
0.00899002
0.0409757
0.00850087
0.0414249
0.018786
0.0262734
0.0292706
0.0162245
0.00780934
0.0272495
0.0090726
0.00846043
0.0141414
0.00783465
0.00772712
0.0133455
0.00746387
0.00844042
0.0241676
0.00781229
0.0300984
0.043536
0.00898961
0.00977402
0.0317821
0.00793863
0.0147588
0.0217174
0.00919369
0.0659655
0.0079116
0.00829648
0.0137713
0.0488456
0.0325151
0.0166972
0.0313002
0.0104547
0.0109922
0.0158565
0.0648316
0.0134828
0.00808714
0.0103461
0.00802621
0.00812198
0.0296455
0.00887707
0.00776194
0.0134177
0.00987734
0.0439365
0.0136417
0.00908538
0.007545
0.0259541
0.00868346
0.0186936
0.0143678
0.0550481
0.0133358
0.0206175
0.03896
0.0128066
0.0377323
0.00887499
0.0147682
0.00797004
0.0676036
0.00742169
0.0180803
0.0323254
0.0166233
0.0104292
0.053843
0.00881737
0.00935608
0.033635
0.0769915
0.0340325
0.00767927
0.00945387
0.00833468
0.0160726
0.0352583
0.00977303
0.0516876
0.0152973
0.00803631
0.0104337
0.0327911
0.00920526
0.0560383
0.0205677
0.00880194
0.00779519
0.0470752
0.00908721
0.0118755
0.031288
0.0080286
0.00897504
0.00723284
0.0107564
0.0176624
0.03085
0.00819116
0.0090076
0.0554062
0.0390152
0.030023
0.00778792
0.0176713
0.00847882
0.0350127
0.0078488
0.0418595
0.0105246
0.0173559
0.00804131
0.00815718
0.00953034
0.0106608
0.0519628
0.0460342
0.00989333
0.0108214
0.053442
0.0439791
0.00850594
0.00852199
0.00866915
0.0156725
0.0106665
0.00744379
0.00837393
0.0286777
0.0210814
0.0261027
0.00946369
0.0201191
0.0447383
0.0423435
0.00774525
0.01422
0.0176625
0.00876969
0.00856033
0.0515719
0.00816168
0.00807978
0.0381883
0.0545507
0.0082872
0.007398
0.0541754
0.0731235
0.00790557
0.0161118
0.0577778
0.0254707
0.00780768
0.00752381
0.0081852
0.00989788
0.00828832
0.0516386
0.0440403
0.00804606
0.00836681
0.016632
0.0092082
0.0345139
0.0316172
0.0339986
0.00943809
0.0705205
0.00871698
0.00959607
0.0176895
0.0302038
0.0603783
0.00781433
0.0075027
0.012665
0.00775235
0.0151487
0.00831642
0.0354878
0.0304564
0.2116
0.0145574
0.0102181
0.0158995
0.0323953
0.0191214
0.0131435
0.00976592
0.0173338
0.00903072
0.00779301
0.0155876
0.0320212
0.0487977
0.00869079
0.0523477
0.0131552
0.0123209
0.0200405
0.0540923
0.00969993
0.0275607
0.0705561
0.0585918
0.0110611
0.00769541
0.0114225
0.011142
0.0210158
0.0145052
0.0585968
0.041871
0.037244
0.00770961
0.0158577
0.00968024
0.0149184
0.0153508
0.0111492
0.0573114
0.0126582
0.0562729
0.00854812
0.0143505
0.0507338
0.00783865
0.0182692
0.0110433
0.01968
0.0320323
0.0577619
0.00861027
0.0351308
0.0082004
0.00793468
0.0124843
0.0258198
0.0517643
0.010001
0.0383375
0.00860584
0.00859175
0.00813717
0.0343994
0.00856381
0.00870321
0.00887534
0.00872665
0.0598273
0.0356371
0.00838652
0.0144967
0.0269029
0.00793509
0.0121696
0.0118246
0.0162732
0.0420895
0.134396
0.0366071
0.00902829
0.00817063
0.0123173
0.0533913
0.0417681
0.00925182
0.0131882
0.0255494
0.00792097
0.00878233
0.00849105
0.00822098
0.00776417
0.00848258
0.00992091
0.0140597
0.0133206
0.0140774
0.0230879
0.0270661
0.00779385
0.0114984
0.0444075
0.031401
0.00769043
0.0400613
0.00926384
0.0171289
0.00816862
0.00955823
0.0137664
0.00760184
0.00792773
0.007962
0.0312285
0.0360942
0.00820585
0.00767802
0.0567549
0.0204068
0.0122608
0.00830439
0.0103848
0.0710276
0.0160176
0.0110123
0.0215289
0.00768701
0.0126927
0.061802
0.0118588
0.0517765
0.0182309
0.0693502
0.00865432
0.00879146
0.00787181
0.0602502
0.031852
0.0200688
0.00855997
0.0353154
0.0343409
0.0181012
0.00822919
0.0434114
0.00745937
0.00866631
0.02652
0.027598
0.0352048
0.00807042
0.00762252
0.00942858
0.0127358
0.0167748
0.0158594
0.0169801
0.0490799
0.0484767
0.0398969
0.018736
0.00794568
0.0445496
0.072514
0.0339702
0.0532345
0.00938826
0.0511689
0.00792165
0.00812077
0.00945395
0.0261954
0.00851962
0.0433095
0.0284811
0.00771063
0.00809853
0.012704
0.00992393
0.00823752
0.0578572
0.010966
0.00919205
0.00842145
0.0181555
0.00891337
0.00759829
0.0156018
0.0405073
0.0521213
0.0159468
0.00793799
0.0477506
0.0211958
0.00767056
0.0402131
0.0438454
0.0165815
0.0476195
0.0247062
0.0599395
0.0342437
0.0434986
0.0631627
0.0408793
0.0660781
0.0151033
0.0217243
0.00798888
0.0626358
0.00781033
0.0114276
0.00919098
0.0130424
0.00955223
0.0450764
0.00843814
0.0107553
0.0182077
0.00786033
0.0110332
0.0746168
0.0135412
0.0202533
0.0450081
0.0475141
0.0100905
0.0185505
0.0514048
0.00987594
0.0105625
0.00796681
0.00845174
0.0355002
0.0130124
0.0204714
0.012043
0.0101916
0.00985398
0.00832619
0.0183137
0.00890806
0.0109392
0.0113402
0.0152525
0.0148702
0.0125763
0.0194883
0.00803052
0.0112519
0.0468728
0.00994387
0.0509947
0.121695
0.0320262
0.0100187
0.0105647
0.00899083
0.00902944
0.0134865
0.0227224
0.0139059
0.066436
0.0558034
0.0584471
0.031335
0.0330737
0.00795467
0.0349481
0.0135506
0.0505982
0.047379
0.00773413
0.0315884
0.0091898
0.0115458
0.00859731
0.0413089
0.0358625
0.0119888
0.00948709
0.0635341
0.00998607
0.0296207
0.015394
0.00798248
0.00886094
0.00805245
0.0164556
0.0170168
0.020421
0.0258788
0.0416375
0.0355936
0.0489402
0.0145242
0.00827434
0.0234125
0.0293465
0.0160347
0.00881431
0.00938727
0.0313049
0.0104962
0.0513758
0.0267012
0.0095805
0.0345825
0.0212442
0.0176336
0.0126492
0.0151837
0.009578
0.0181526
0.016246
0.00853714
0.0143933
0.00863384
0.0564215
0.0574803
0.0118923
0.0154366
0.00933431
0.0147725
0.0169436
0.0625365
0.0110345
0.0111651
0.00994181
0.0186244
0.0390167
0.0305284
0.0372024
0.0121562
0.0273391
0.0154194
0.0575318
0.0130048
0.0374573
0.0219564
0.00827875
0.0314294
0.00896232
0.0089006
0.0408457
0.050359
0.0128279
0.0766399
0.00920285
0.00857979
0.0201999
0.00995349
0.0206056
0.0129111
0.045964
0.0149088
0.0120462
0.00762126
0.0713509
0.00874425
0.0116882
0.0217225
0.0105755
0.0430133
0.00888
0.046062
0.00958077
0.012066
0.00995351
0.0104568
0.0379815
0.0563946
0.00852872
0.00781374
0.0388858
0.0151223
0.0462071
0.0112036
0.0295593
0.0628491
0.0175026
0.00968325
0.0196516
0.00776817
0.0135078
0.00967809
0.0472039
0.00788984
0.04327
0.0223954
0.00800685
0.00798238
0.0122508
0.0580684
0.0349927
0.00808803
0.00801894
0.0104444
0.00921355
0.0095733
0.0808853
0.00986134
0.0105669
0.0111645
0.0333944
0.0110453
0.00809118
0.011627
0.00815968
0.00813289
0.0300523
0.00873923
0.0362011
0.00949068
0.0181655
0.0115162
0.00914413
0.00790889
0.00811273
0.042487
0.00769192
0.0314985
0.0503803
0.0118208
0.0333976
0.00906135
0.060825
0.0327677
0.0334411
0.0217117
0.0123866
0.0461789
0.0460281
0.0101543
0.0180815
0.00795665
0.0162616
0.0561383
0.0197565
0.039003
0.01424
0.00954487
0.0323304
0.00965333
0.00796859
0.00867606
0.00852244
0.00788861
0.00868153
0.00789049
0.009114
0.0307659
0.0656886
0.00962724
0.0669961
0.0119763
0.0122889
0.0207115
0.0078481
0.0114167
0.0402756
0.00761277
0.0372793
0.0169601
0.027732
0.0105438
0.0076305
0.0214189
0.0153003
0.0378385
0.012185
0.0123154
0.0194485
0.0103005
0.0723096
0.050592
0.00755181
0.0117694
0.00818946
0.016061
0.0823079
0.00790379
0.0271757
0.00745647
0.00903553
0.0444347
0.0087457
0.00804807
0.0435405
0.0311084
0.00780902
0.0169372
0.055448
0.00856865
0.0310338
0.0547614
0.0180105
0.0079378
0.00791575
0.0100296
0.00839682
0.00954995
0.00785508
0.0137344
0.0154336
0.00794867
0.00965678
0.0649947
0.0413493
0.012188
0.00827368
0.0128637
0.0574526
0.050751
0.00955577
0.0366877
0.00912355
0.00835348
0.0077373
0.0365143
0.0219392
0.00803638
0.014262
0.00962174
0.0100808
0.0300931
0.045425
0.00806696
0.0505022
0.0249648
0.0443179
0.0368684
0.00819716
0.00801075
0.00967922
0.0150982
0.0180385
0.0188377
0.00820047
0.00967958
0.0325207
0.00736229
0.00896375
0.00862267
0.0521705
0.0121769
0.0533159
0.0187144
0.0356599
0.00869349
0.00979259
0.0117583
0.046109
0.0205808
0.0276115
0.0689457
0.00910947
0.054367
0.0308336
0.00814109
0.00822448
0.00782551
0.0404196
0.0147345
0.0340258
0.00794052
0.00877624
0.0080051
0.00800605
0.0376996
0.00950955
0.0131215
0.00794774
0.00821372
0.00818885
0.00842687
0.00790159
0.0622168
0.0382347
0.0133139
0.00774767
0.00959926
0.038809
0.00797714
0.0293657
0.0119954
0.00983884
0.0202577
0.0265849
0.0296995
0.0695269
0.00876848
0.00927067
0.0310191
0.0127284
0.0647267
0.00922259
0.00736955
0.0581917
0.0123594
0.0111254
0.00832032
0.0922906
0.0680133
0.0473764
0.0258618
0.0282865
0.0547053
0.0469718
0.0659789
0.0206026
0.00838642
0.010941
0.00889907
0.0119247
0.058566
0.00838219
0.0135455
0.0715627
0.0698137
0.0458407
0.0195408
0.036984
0.00883789
0.0154028
0.0077545
0.0103004
0.0374016
0.0197825
0.00892631
0.00788111
0.0093604
0.00820029
0.00841447
0.0338971
0.0149165
0.0090047
0.00848755
0.0772564
0.0150996
0.0150329
0.0113896
0.01296
0.00769747
0.0302264
0.045196
0.060758
0.016501
0.00771749
0.00744455
0.00897285
0.0274471
0.0144067
0.0343728
0.0167237
0.00848367
0.0369622
0.0288208
0.00799546
0.00980048
0.00895197
0.00848867
0.0195149
0.0252665
0.00951992
0.0160736
0.0123059
0.0100345
0.0112336
0.00849821
0.0211753
0.00987368
0.0634026
0.0482434
0.0700508
0.0177582
0.013075
0.0161488
0.0362731
0.00874598
0.0362031
0.0298673
0.0618496
0.0127349
0.00751974
0.00822546
0.0613671
0.0292561
0.0362876
0.0527622
0.0303516
0.00759954
0.00753959
0.0468671
0.040579
0.0307155
0.00817078
0.00750299
0.00991715
0.0177564
0.00885033
0.00939782
0.017131
0.0416543
0.00737541
0.00986935
0.00976624
0.0122703
0.00944841
0.00801466
0.0238055
0.0124503
0.0254116
0.0104214
0.00786504
0.00785312
0.0721145
0.00831629
0.0540507
0.00819841
0.00909257
0.00816593
0.00844787
0.0322145
0.0566684
0.0323767
0.00824844
0.00772679
0.0117368
0.00799363
0.0510123
0.018662
0.00843323
0.00772122
0.0142406
0.038344
0.0159878
0.0139798
0.00780313
0.00845281
0.00849562
0.00746135
0.0089161
0.00941681
0.0196042
0.00824884
0.00805905
0.00959489
0.0195065
0.0427763
0.0579071
0.0234239
0.0150629
0.0078041
0.00790527
0.0492818
0.0144177
0.0102975
0.0105758
0.0175373
0.00838243
0.00968465
0.0113871
0.00741119
0.0161105
0.0105478
0.033406
0.0142979
0.00978811
0.0544866
0.0116296
0.00896653
0.0106514
0.00840351
0.00784706
0.055472
0.00829203
0.0208262
0.00750795
0.0230856
0.00816426
0.0110628
0.0184291
0.0121126
0.0564086
0.0114129
0.0361487
0.0405635
0.00951699
0.0513977
0.00811564
0.00843736
0.00770619
0.0345158
0.0162071
0.057147
0.01081
0.0414989
0.0172309
0.00876712
0.00785103
0.00779741
0.00951952
0.00905863
0.00812202
0.00961041
0.00892042
0.00923254
0.0360803
0.0170052
0.00765859
0.00756784
0.029682
0.00936742
0.00838429
0.00788091
0.0549916
0.0108142
0.0564036
0.00764415
0.0479775
0.0405084
0.0133
0.010651
0.0103429
0.0131292
0.0439685
0.00865167
0.0444908
0.0440973
0.00905443
0.0333153
0.0205411
0.0110163
0.00860496
0.0599793
0.0290502
0.0443172
0.0080778
0.00882716
0.0268993
0.00852692
0.0183774
0.027749
0.00810784
0.0399951
0.0106949
0.00942462
0.00840591
0.0079577
0.00797774
0.00753798
0.0123036
0.00731229
0.00887977
0.00821092
0.0152391
0.0172106
0.00747864
0.0226571
0.00928947
0.00957828
0.00900646
0.0102266
0.00767862
0.0105343
0.0405243
0.00887438
0.00766704
0.0290759
0.0123184
0.00766581
0.110232
0.00914295
0.00852568
0.0177963
0.011442
0.0329691
0.0134767
0.00754767
0.0093678
0.0176548
0.0296876
0.0285388
0.0114997
0.0378913
0.0404842
0.0489439
0.0099286
0.00766688
0.00753429
0.0109447
0.00924008
0.0104598
0.0283006
0.0145658
0.00770741
0.00756567
0.00762654
0.00778581
0.0512781
0.0745713
0.0644084
0.0250987
0.00948599
0.00810599
0.0076794
0.0194359
0.00908326
0.00843534
0.0601579
0.00796387
0.0087874
0.00760158
0.00825795
0.02413
0.0329956
0.0123755
0.0343039
0.00841361
0.00969719
0.0169565
0.00920234
0.0175675
0.0271031
0.016011
0.00768458
0.0198927
0.0115789
0.00808534
0.0201927
0.0384255
0.00812957
0.00777465
0.0311407
0.0403224
0.018532
0.0421041
0.00777133
0.0137245
0.0324426
0.00782475
0.0077507
0.00793522
0.011734
0.00876464
0.0088624
0.00900757
0.00983226
0.0200925
0.00980602
0.0246614
0.0220309
0.0325044
0.00795576
0.0134321
0.00907153
0.0102546
0.0180359
0.0158566
0.0598818
0.0159502
0.0603456
0.0181036
0.0100265
0.00844984
0.00789809
0.00871189
0.0435789
0.0346581
0.00825089
0.021747
0.0259644
0.0113316
0.0366602
0.00768428
0.00916311
0.00822835
0.0133333
0.00807603
0.0124431
0.00912804
0.0407483
0.00831987
0.0439313
0.0458869
0.0267005
0.0104489
0.0128968
0.00777771
0.0448641
0.0086662
0.00908594
0.016273
0.0213979
0.0191739
0.0389728
0.0288895
0.0389895
0.0266417
0.00741376
0.0327142
0.00929771
0.0287743
0.0641929
0.0176129
0.037211
0.0760571
0.0585199
0.0105766
0.0133109
0.00846045
0.0267513
0.00756409
0.0428602
0.0139392
0.0284936
0.00941862
0.0083672
0.0624203
0.0109799
0.00881638
0.00923026
0.0110578
0.0111062
0.00837621
0.00878519
0.00854819
0.00980868
0.0419559
0.0190287
0.0345039
0.00880237
0.0521056
0.0192042
0.0088267
0.0237777
0.0144013
0.0623561
0.0141997
0.0160457
0.0075944
0.0123778
0.00778427
0.0103747
0.00785599
0.0102978
0.00740667
0.0319254
0.032113
0.00843946
0.00871853
0.0104328
0.00904755
0.0083067
0.00977301
0.00904591
0.0438105
0.00859809
0.00791826
0.0459244
0.011675
0.0447591
0.011171
0.0256379
0.035669
0.00839605
0.0387008
0.0443095
0.0583966
0.0486502
0.0420934
0.00773557
0.0128219
0.00749359
0.0104922
0.0290386
0.00855504
0.00779547
0.00818153
0.0587781
0.00920856
0.0139135
0.0129958
0.00883641
0.0487895
0.0460443
0.00921207
0.0414634
0.0079522
0.034926
0.0123257
0.0250137
0.00762187
0.00777389
0.00878316
0.0379567
0.0570749
0.0419719
0.0082948
0.0289571
0.0747386
0.0132524
0.0176379
0.0478649
0.016861
0.02995
0.0111317
0.0091792
0.00806635
0.00952925
0.104524
0.0146381
0.0561258
0.00760705
0.00913656
0.0122245
0.00877737
0.0183714
0.014166
0.057612
0.00971914
0.0163428
0.00799763
0.00786268
0.0302253
0.0694224
0.0076773
0.00847234
0.0082653
0.0261267
0.0102357
0.0570518
0.0398067
0.0357363
0.00836546
0.0474819
0.0138302
0.0665254
0.0338666
0.00994752
0.0330583
0.0421974
0.044472
0.00913795
0.00945222
0.0081695
0.0318257
0.0116198
0.00776664
0.0123095
0.012591
0.00969207
0.00835047
0.00803758
0.0573039
0.00902921
0.0154399
0.0251511
0.0351863
0.00803851
0.0081292
0.0169523
0.0100441
0.068568
0.0133862
0.0116071
0.0628635
0.0083351
0.0081685
0.00953948
0.0298192
0.00776849
0.0326354
0.00752582
0.0291914
0.0593061
0.0075955
0.00820383
0.0267339
0.00932875
0.00813379
0.00788202
0.00769674
0.0302764
0.046063
0.0081249
0.00955615
0.00936834
0.00877914
0.0333119
0.0106029
0.030652
0.0264177
0.00807947
0.00808151
0.0160107
0.00951763
0.0129654
0.0406213
0.0668224
0.00750682
0.00871552
0.0331426
0.0481435
0.0198809
0.00944139
0.0098836
0.0597499
0.018235
0.00897703
0.00806775
0.00834147
0.00912934
0.0136732
0.00784556
0.00856542
0.00832231
0.0192705
0.0455697
0.0584106
0.0127072
0.0147066
0.00952679
0.00864164
0.00823349
0.00826413
0.00805105
0.0086613
0.00872346
0.00832296
0.0163141
0.00884452
0.00899322
0.0176528
0.00868637
0.016859
0.04607
0.0120726
0.0107831
0.0108308
0.0114827
0.010732
0.0186149
0.0328486
0.00934503
0.00910374
0.00995973
0.0126575
0.0516401
0.00953624
0.0155597
0.0552653
0.0101997
0.0448628
0.0122931
0.0089887
0.00970265
0.0103815
0.0136456
0.0397968
0.05334
0.0692907
0.00785083
0.0332648
0.00864084
0.00843087
0.0366725
0.00765411
0.0171048
0.0074951
0.0129281
0.0123903
0.0228597
0.0074796
0.00741992
0.0693423
0.00860769
0.0409883
0.0701331
0.0107114
0.0260976
0.00790706
0.00811559
0.00781372
0.0157669
0.0205134
0.00977105
0.00830737
0.00945519
0.0308221
0.0520284
0.012711
0.00873952
0.0139895
0.00799477
0.020038
0.0169668
0.00808867
0.00778713
0.00804701
0.0183426
0.0145481
0.019613
0.010605
0.00936568
0.0138395
0.0154133
0.0416793
0.00895918
0.00947034
0.00841854
0.00855508
0.00923771
0.0075834
0.038994
0.0116825
0.0220813
0.0308028
0.00860873
0.0210536
0.0077963
0.00815408
0.00924295
0.0569321
0.0161115
0.00978831
0.0078364
0.0279845
0.00876219
0.02147
0.010579
0.0204845
0.0137897
0.00856169
0.00790918
0.0712585
0.0100821
0.00777832
0.00884777
0.0179043
0.00879874
0.00847893
0.132622
0.00747947
0.0363129
0.00920602
0.00782936
0.00811125
0.013323
0.0174362
0.0228159
0.0289277
0.0416091
0.00787805
0.00764025
0.0902292
0.0383827
0.00935319
0.01024
0.0314534
0.0150402
0.00952146
0.00997237
0.00961638
0.0606144
0.00828602
0.0223283
0.0361744
0.00793406
0.0307094
0.0197113
0.052978
0.0353248
0.0199982
0.0313363
0.0122433
0.0301235
0.0137873
0.0424795
0.055373
0.0116456
0.0464942
0.0283731
0.00946249
0.0483721
0.00920675
0.0297051
0.0245991
0.0310039
0.00787287
0.0479381
0.0438953
0.0109153
0.00946906
0.011643
0.0338781
0.0112069
0.0192332
0.0117889
0.0261361
0.0163103
0.00754848
0.0167026
0.00781011
0.0108544
0.0104321
0.00803508
0.0717895
0.0114999
0.0128502
0.00883437
0.0500448
0.0123603
0.072329
0.0165275
0.0172444
0.00832555
0.00898907
0.0131994
0.00925933
0.0207272
0.00787506
0.00857597
0.020924
0.00754921
0.0258346
0.00864731
0.0110741
0.0277017
0.0152209
0.0257316
0.00791492
0.00993534
0.0271069
0.0108295
0.0122741
0.0628543
0.0083092
0.0587112
0.0348842
0.0136483
0.00927652
0.0100806
0.0311277
0.00796259
0.00844571
0.0155905
0.0293472
0.0194988
0.0446559
0.00975777
0.0184644
0.0108027
0.0182472
0.00795967
0.0101309
0.0413626
0.0108813
0.00792503
0.0180081
0.0722398
0.0256512
0.00961725
0.0305812
0.0186834
0.0291035
0.0101322
0.0187424
0.033705
0.0329154
0.0079876
0.0561538
0.00904214
0.0489851
0.00798705
0.0162586
0.00887017
0.0424941
0.00980681
0.0074535
0.00844544
0.00814424
0.0169085
0.0644228
0.0633046
0.0315355
0.0717982
0.00911639
0.0416672
0.00774131
0.0086766
0.0117211
0.00892675
0.0539495
0.0287399
0.0312179
0.00888897
0.0458747
0.00971175
0.0163079
0.0100454
0.027308
0.0411266
0.0483917
0.00869376
0.0314458
0.00798309
0.0116173
0.0118343
0.0314628
0.0310781
0.0117578
0.0163986
0.0358125
0.00819982
0.00907372
0.020579
0.0164403
0.00970439
0.00829557
0.00879986
0.00792527
0.00845116
0.0158679
0.0197185
0.00856749
0.0734226
0.0466783
0.0113774
0.0089462
0.00780887
0.0485603
0.0349481
0.00765046
0.016352
0.00749222
0.0393368
0.00769108
0.00771331
0.00946596
0.0286542
0.0199375
0.0510626
0.0564887
0.0125128
0.0610863
0.0114841
0.0221751
0.0114979
0.0108677
0.00839127
0.0524946
0.0796155
0.00795624
0.0113499
0.0431615
0.00826951
0.00892285
0.0434699
0.0599483
0.0643405
0.0365355
0.0221735
0.05776
0.0193814
0.0077268
0.0420134
0.0566941
0.0116009
0.00889527
0.00834614
0.00982087
0.0170505
0.0759307
0.00788039
0.0399289
0.00829256
0.0345395
0.0153519
0.0116999
0.0147892
0.0134653
0.0455885
0.0081877
0.0112778
0.00786148
0.0558418
0.0123748
0.0315903
0.0159672
0.0253756
0.0513841
0.0140688
0.0145912
0.0126007
0.0220732
0.00902643
0.0327929
0.0424334
0.0340453
0.0106505
0.0134055
0.0108716
0.0428158
0.013694
0.0523375
0.0778709
0.00960853
0.00749519
0.0321699
0.0408064
0.0176577
0.00837058
0.0124854
0.00873954
0.0118047
0.0103095
0.00819663
0.0100734
0.00766558
0.0308815
0.0597731
0.0114854
0.00791307
0.00794389
0.0183275
0.0707528
0.0167517
0.0080975
0.0298353
0.0155464
0.012207
0.0162361
0.00764213
0.00862226
0.00770694
0.0463954
0.0116005
0.00876564
0.00993705
0.00767768
0.0134819
0.0310023
0.00816265
0.0173752
0.0611993
0.00760283
0.00746633
0.0136808
0.0189069
0.00927329
0.00810469
0.00976881
0.00759296
0.0129494
0.017851
0.0400079
0.0324956
0.00842914
0.0119099
0.0081083
0.0100759
0.0372786
0.0418624
0.0351095
0.0559274
0.0272067
0.0518709
0.00860675
0.0541135
0.0115553
0.0208512
0.0079754
0.0436647
0.00867258
0.04037
0.00815524
0.0708859
0.0352719
0.0336561
0.00795433
0.00781658
0.0219341
0.0187291
0.0667347
0.0520845