/*--------------------------------*- C++ -*----------------------------------*\
| =========                 |                                                 |
| \\      /  F ield         | OpenFOAM: The Open Source CFD Toolbox           |
|  \\    /   O peration     | Version:  2406                                  |
|   \\  /    A nd           | Website:  www.openfoam.com                      |
|    \\/     M anipulation  |                                                 |
\*---------------------------------------------------------------------------*/
FoamFile
{
    version     2.0;
    format      ascii;
    arch        "LSB;label=32;scalar=64";
    class       volScalarField;
    location    "32";
    object      k;
}
// * * * * * * * * * * * * * * * * * * * * * * * * * * * * * * * * * * * * * //

dimensions      [0 2 -2 0 0 0 0];

internalField   nonuniform List<scalar> 
59516
(
0.0014151
0.00198933
0.00134596
0.00210932
0.00776567
0.0173781
0.00161306
0.00151108
0.00129319
0.00405482
0.00506331
0.00331498
0.00135673
0.00870927
0.00342239
0.00346756
0.00371682
0.00443839
0.00159895
0.00300944
0.00514918
0.00204723
0.00233936
0.00530125
0.00220234
0.00311666
0.00516773
0.00605679
0.00353981
0.00742735
0.00705223
0.00570134
0.00176021
0.00184501
0.00230745
0.00179245
0.0071541
0.00444557
0.00182431
0.00255068
0.00144708
0.00344937
0.00218704
0.00191346
0.00189099
0.00357035
0.00154573
0.00366802
0.00766738
0.00309685
0.00902358
0.00472187
0.00119505
0.00145108
0.00487697
0.00162165
0.00422433
0.00511883
0.00396915
0.00210243
0.00244614
0.00699921
0.00373148
0.00357014
0.00171129
0.00256418
0.00866092
0.00467006
0.00622766
0.00150375
0.00672729
0.00338344
0.00728121
0.00225724
0.00423764
0.00279211
0.00360606
0.00228996
0.00453076
0.00323486
0.00510194
0.00273393
0.00217256
0.00727556
0.00266126
0.00398755
0.00507679
0.0019866
0.00339668
0.00266587
0.00582806
0.00253028
0.00340306
0.00221503
0.00339005
0.0078949
0.00232776
0.00351058
0.00378877
0.00242619
0.00509947
0.00731147
0.00717748
0.00339034
0.00176528
0.00301826
0.00534838
0.00127953
0.00166771
0.0031947
0.00481152
0.00606842
0.00350654
0.0046454
0.00269119
0.00157277
0.00331472
0.00202157
0.00686703
0.00232297
0.00481714
0.00377978
0.00262171
0.00368903
0.00426299
0.00193839
0.00770943
0.00298384
0.0105523
0.00408709
0.00464794
0.00136388
0.006866
0.00184403
0.00170561
0.00122157
0.00457798
0.00118379
0.00494844
0.00203529
0.00461976
0.00435581
0.00724353
0.00182169
0.00430913
0.00199661
0.00172756
0.00157523
0.0198584
0.00142651
0.00184538
0.00492238
0.00277058
0.00234716
0.0016702
0.00778947
0.00167821
0.0012582
0.0019146
0.0073762
0.00334791
0.00317517
0.00529628
0.00871011
0.00154128
0.00351431
0.00316196
0.00395888
0.00709314
0.0026041
0.00182238
0.00352377
0.00257233
0.00180769
0.00416526
0.00162864
0.00381619
0.00232449
0.00310741
0.00478194
0.00198875
0.00565996
0.00867371
0.00286991
0.0041308
0.00331945
0.00473607
0.00734395
0.00132345
0.0016499
0.00227631
0.00352992
0.00304968
0.00275813
0.00210105
0.0051818
0.00333894
0.00463587
0.00198899
0.00210549
0.00255221
0.00485971
0.00141126
0.00727398
0.00152508
0.00203505
0.00416468
0.00321246
0.00757735
0.00170737
0.00401991
0.00807916
0.00211601
0.00360579
0.00149723
0.00336711
0.00191085
0.00221698
0.00367503
0.00263036
0.0037288
0.00201145
0.00359829
0.00515301
0.00365235
0.00381467
0.00626391
0.00444725
0.00362417
0.00351818
0.00350764
0.00383068
0.00481726
0.00650088
0.00522657
0.0046953
0.00298705
0.00136658
0.0029135
0.00389943
0.00461763
0.00748023
0.00328394
0.00761044
0.00435279
0.00155236
0.00246961
0.00322104
0.00317544
0.00135346
0.00292283
0.00221208
0.00480854
0.00239194
0.00215414
0.00260282
0.0036672
0.00269882
0.00457986
0.00339565
0.001529
0.00306739
0.00151502
0.00366276
0.00140854
0.00319287
0.0030361
0.00170933
0.00475799
0.0033792
0.00197604
0.00390925
0.00133555
0.00186739
0.00315145
0.0015802
0.00651562
0.00277597
0.00644454
0.00467649
0.00464119
0.00198851
0.00697733
0.00158218
0.00147412
0.00378138
0.00432966
0.00734536
0.00455933
0.00507993
0.00406721
0.00192022
0.00221304
0.00172175
0.00326369
0.00609234
0.00313592
0.00168186
0.00486394
0.00382146
0.00120044
0.00308058
0.00694665
0.00567565
0.00241452
0.00739028
0.00354104
0.00395179
0.00324712
0.0030909
0.00206431
0.00318374
0.00174878
0.00523175
0.00362624
0.00322641
0.00164384
0.00827198
0.00206798
0.00462533
0.00345856
0.00171325
0.00406681
0.00459784
0.00481219
0.00262407
0.00226278
0.00179119
0.00369983
0.00302057
0.00271939
0.00320826
0.00707773
0.00252469
0.00433534
0.00514843
0.00315147
0.00216667
0.00345445
0.00399199
0.00292051
0.004614
0.00391068
0.0047542
0.00274957
0.00453931
0.00344113
0.00463452
0.00422832
0.00187801
0.00183116
0.00275503
0.00194645
0.00228089
0.0054815
0.00495976
0.00183366
0.00611603
0.011174
0.00208173
0.00168032
0.00174796
0.00484599
0.00224454
0.00162385
0.00255116
0.00270806
0.00522693
0.00685165
0.00371464
0.00462475
0.0049527
0.00323895
0.001836
0.00293381
0.0068866
0.00176033
0.00491602
0.00347673
0.00341489
0.00317297
0.00126646
0.00530301
0.00749807
0.00337245
0.00197223
0.00681505
0.00207678
0.00169495
0.0015381
0.00198177
0.00190982
0.00287101
0.00657432
0.00465984
0.00368002
0.00323448
0.0032459
0.00430044
0.0039515
0.00334389
0.00136575
0.00154901
0.00437778
0.00427249
0.00440445
0.00189913
0.00209306
0.00220109
0.00261081
0.00709226
0.00683365
0.00143566
0.00398175
0.00458046
0.00511271
0.00394936
0.00122241
0.0044945
0.00403864
0.00436806
0.00404905
0.00389517
0.00153649
0.00456478
0.00312951
0.00347664
0.00162795
0.00285853
0.00419478
0.0019907
0.00235642
0.00450075
0.00530335
0.0069537
0.00406366
0.00426757
0.00227989
0.00140339
0.00498937
0.00736347
0.00164468
0.00290257
0.00419679
0.00250499
0.00164302
0.00457721
0.00163203
0.0065907
0.0015874
0.00332642
0.0118636
0.00288574
0.00169842
0.00226772
0.00739199
0.00424822
0.00424804
0.00453913
0.00153055
0.00292734
0.00400984
0.0020753
0.00483325
0.00192956
0.00366344
0.00222327
0.00683888
0.00427016
0.00168084
0.00438947
0.0013884
0.00345123
0.00163499
0.00201871
0.00686717
0.00376521
0.00144627
0.00273688
0.00162273
0.00465874
0.00207482
0.00780941
0.00329514
0.00951872
0.00368344
0.00445388
0.00156956
0.00148086
0.00435375
0.00489697
0.00436914
0.00772453
0.00323989
0.00494833
0.00520478
0.00320003
0.00314334
0.00278263
0.00461825
0.0102988
0.00337656
0.00323782
0.00150984
0.00470188
0.00675285
0.00244567
0.00260333
0.00436661
0.0136569
0.00300035
0.00641297
0.00308615
0.00735479
0.00297525
0.00264306
0.00320724
0.00715419
0.00529189
0.00415889
0.00351149
0.00172265
0.00359257
0.0029308
0.00515016
0.00402584
0.00637751
0.00132153
0.00633743
0.00362301
0.0035669
0.0038539
0.00376105
0.00198995
0.00439863
0.0039048
0.0037955
0.00648208
0.0075215
0.00215881
0.00450003
0.0017997
0.0016886
0.00407853
0.00371581
0.00310204
0.00314616
0.00420325
0.0016667
0.00638225
0.00216666
0.00452123
0.00643449
0.00190124
0.00450305
0.00202461
0.00457234
0.00184654
0.00320196
0.00393792
0.001837
0.00426959
0.00397263
0.00441381
0.00449812
0.00449816
0.00365196
0.00406368
0.00286273
0.00563953
0.00310462
0.00358642
0.00355269
0.00406439
0.00119314
0.00723759
0.00338682
0.00189272
0.00288108
0.00145859
0.00625674
0.0047478
0.0019278
0.00146641
0.00441382
0.00202986
0.00701173
0.00691043
0.0043628
0.00380361
0.00495877
0.00304249
0.00171319
0.00240272
0.00410646
0.00647712
0.00464349
0.00353037
0.00522121
0.00300992
0.00169879
0.0020721
0.00186587
0.00138294
0.00141028
0.0046279
0.00197445
0.00370762
0.00367413
0.00435314
0.00401958
0.00502764
0.00299664
0.00539909
0.0101979
0.00306428
0.00585321
0.00179476
0.00467517
0.00402434
0.00327285
0.0024163
0.00385383
0.0050545
0.00960707
0.00737159
0.00436474
0.00130279
0.0033865
0.0044083
0.00148798
0.0046582
0.00308717
0.00587844
0.00773915
0.00681845
0.00204531
0.00220161
0.00786769
0.00713335
0.00507428
0.00812643
0.00521691
0.00220438
0.00128129
0.00182277
0.00532722
0.00345823
0.00143215
0.00373735
0.00242085
0.00531142
0.00648277
0.0100891
0.00700611
0.00173644
0.00672653
0.00169793
0.00442229
0.00333846
0.00455085
0.00173532
0.00488236
0.00705013
0.00425645
0.0071591
0.00358257
0.00458358
0.00279596
0.00214686
0.00709326
0.0034059
0.00229204
0.00483753
0.00343983
0.00373897
0.00125638
0.00467909
0.00495845
0.00686638
0.00442033
0.00785558
0.00147651
0.00351646
0.00162185
0.00544841
0.00476492
0.00635141
0.00292058
0.00159661
0.00365112
0.00724411
0.00191119
0.00186879
0.00268163
0.00387848
0.00839587
0.00236227
0.00463835
0.00487934
0.00802934
0.00129949
0.00524437
0.00446017
0.00458856
0.00143723
0.0051287
0.00126691
0.00318296
0.00681612
0.00428727
0.00909829
0.00140135
0.00385162
0.00416226
0.00364891
0.0016104
0.00439584
0.00474597
0.00419043
0.00853229
0.00130092
0.00166311
0.00210091
0.00208797
0.0032879
0.00169608
0.0013356
0.00576961
0.00291813
0.00554084
0.00257424
0.00350911
0.00168325
0.00144217
0.00707304
0.00209224
0.00375369
0.00421759
0.00419792
0.00888619
0.00326802
0.0017883
0.00955419
0.00198159
0.00786522
0.0042426
0.00363432
0.0019812
0.00751864
0.00362965
0.0095064
0.00279729
0.00134818
0.00248665
0.00215042
0.00470524
0.00488921
0.0045596
0.00524467
0.00434262
0.00286551
0.00212711
0.002433
0.00798803
0.00200954
0.00196632
0.00415027
0.0016769
0.00257768
0.00198545
0.0047222
0.00694198
0.00174315
0.0030721
0.00644282
0.00422594
0.00310344
0.00704826
0.00227054
0.00359993
0.00313452
0.00715603
0.0013882
0.00589234
0.00135137
0.00398788
0.00499696
0.00392915
0.00281909
0.00417577
0.00156457
0.00493493
0.00389693
0.00158842
0.00174272
0.00215537
0.0033215
0.00133825
0.00277622
0.00236804
0.00504683
0.00175467
0.00179079
0.00326335
0.00272916
0.00731168
0.00233625
0.00521357
0.0073202
0.00315391
0.00720278
0.0015311
0.00296057
0.00169507
0.00367385
0.00224035
0.00277879
0.00744059
0.00313266
0.00599199
0.00442176
0.00727593
0.00144768
0.00133211
0.00668524
0.00283278
0.00711057
0.00397026
0.00289535
0.0018688
0.00243612
0.00257408
0.0017413
0.00448424
0.00784155
0.00512499
0.00161167
0.00154388
0.00729515
0.00222247
0.00462574
0.0038208
0.00373144
0.00216506
0.00294207
0.00480471
0.00196659
0.00460275
0.00368213
0.00143317
0.00522138
0.00303906
0.0044245
0.00231635
0.00165824
0.00149259
0.00134566
0.00195808
0.00146764
0.00183457
0.0013936
0.00297731
0.00342003
0.00406354
0.00887755
0.00153251
0.00162359
0.00182903
0.00526103
0.00397642
0.00165575
0.00189778
0.00170488
0.00479381
0.00218597
0.00460584
0.00415883
0.0173606
0.00171023
0.00401856
0.00701649
0.00176676
0.00264869
0.00559054
0.00268024
0.00432647
0.00162158
0.00415114
0.00493387
0.00385648
0.00318465
0.00924409
0.00497482
0.00129399
0.00406297
0.00686703
0.00401257
0.00327327
0.00170796
0.00438334
0.00271397
0.00384321
0.00375417
0.00242598
0.00199568
0.00436014
0.00284801
0.00301143
0.00162361
0.00207997
0.00268118
0.00465301
0.00423694
0.00542768
0.00414556
0.00174293
0.00226702
0.0054896
0.00334827
0.0015894
0.00412922
0.00407525
0.00367628
0.00343374
0.00357681
0.00456121
0.00368335
0.00361066
0.00372816
0.00475861
0.008738
0.00172326
0.00177342
0.00529885
0.00368036
0.00326074
0.0013254
0.00543882
0.00340631
0.00151005
0.00516185
0.0051293
0.00461301
0.00242596
0.00173409
0.00431971
0.0151477
0.00157907
0.00452353
0.00745772
0.00459764
0.00499322
0.00178143
0.00357622
0.0028046
0.00485398
0.00380038
0.00318608
0.00210367
0.00477163
0.00429815
0.00487795
0.0018217
0.0029112
0.00294805
0.00166059
0.00476999
0.00325612
0.00264263
0.00338641
0.00145429
0.00459614
0.00472577
0.00134153
0.00442622
0.00408473
0.00316266
0.0046528
0.00419394
0.00521568
0.00420557
0.00327167
0.00625313
0.00424251
0.0014384
0.00166835
0.00429817
0.00782439
0.00340639
0.0044024
0.00133983
0.00721227
0.00506885
0.00170333
0.00435331
0.0018388
0.00177597
0.00169117
0.00707336
0.00125276
0.00331768
0.00349649
0.00509594
0.00450617
0.00296475
0.00308609
0.00434868
0.00136635
0.00222694
0.00519472
0.00170819
0.00292743
0.0045178
0.00286056
0.00299397
0.00181598
0.0016014
0.00688372
0.00178901
0.00185401
0.00488836
0.00163592
0.00508477
0.00310889
0.00152788
0.00429657
0.00785897
0.00432504
0.00193203
0.00322076
0.00170869
0.00221854
0.00677842
0.00328803
0.0026125
0.00328852
0.00845966
0.00486064
0.00472269
0.0023074
0.0042259
0.00197408
0.00328107
0.00257872
0.00515263
0.00158628
0.00446141
0.00222373
0.00356782
0.00177852
0.0074496
0.00193241
0.00234601
0.00458007
0.00548835
0.00260188
0.00144562
0.00569915
0.00301842
0.00304788
0.00409983
0.00249142
0.00175991
0.00576674
0.00324752
0.00190597
0.00739679
0.00474161
0.00429997
0.00350347
0.00183051
0.00308399
0.00346316
0.00356153
0.00614602
0.00173479
0.0020625
0.00296161
0.00461446
0.00154346
0.00216176
0.00536656
0.00528513
0.00249454
0.00189417
0.00696568
0.00700168
0.00336635
0.00193319
0.0030792
0.00141547
0.00204817
0.00245143
0.00375664
0.00344341
0.00248605
0.00300576
0.0022063
0.00183023
0.00525443
0.00680477
0.00376462
0.00138065
0.00139449
0.0033208
0.00310681
0.00513379
0.00339437
0.00414479
0.00523403
0.0074748
0.00393446
0.0039558
0.00588469
0.0073613
0.00407947
0.00166124
0.00753653
0.0021723
0.00406871
0.0030124
0.00409941
0.00200873
0.00299587
0.00678469
0.00468961
0.00435049
0.00369589
0.00133638
0.00290321
0.00341358
0.00348239
0.00451713
0.00228885
0.00808687
0.00208696
0.00165159
0.00159202
0.00364095
0.0073896
0.00466433
0.00391799
0.00135032
0.0040685
0.00143704
0.00204383
0.0049299
0.00390305
0.0173626
0.00138265
0.00229896
0.00134407
0.00321669
0.00197253
0.00137369
0.00204225
0.00174852
0.0024372
0.00331794
0.00180228
0.00352876
0.00713834
0.00328595
0.00548158
0.00168296
0.00178577
0.00202548
0.00674847
0.00236854
0.00308635
0.00714461
0.00701485
0.00192442
0.00395627
0.00178257
0.00188462
0.00200596
0.00152909
0.00608589
0.0049129
0.00509486
0.00464474
0.00138923
0.0021566
0.00156116
0.00146885
0.00182457
0.00794556
0.0015988
0.00678009
0.00330537
0.00154834
0.00654413
0.00457987
0.00157313
0.0016636
0.00171704
0.00285546
0.0053646
0.00231369
0.00489606
0.00489845
0.00509561
0.00199019
0.00244954
0.00538903
0.00365409
0.0049882
0.00356488
0.00348497
0.00384509
0.00396386
0.00312467
0.00339161
0.00289996
0.00324208
0.00567931
0.00490177
0.00368008
0.00142781
0.00333556
0.00493247
0.00170703
0.00187923
0.00154794
0.00696939
0.0124814
0.0036883
0.00299004
0.00370558
0.00189826
0.0066342
0.00484458
0.00212604
0.00173127
0.00334228
0.0048675
0.00308462
0.00342395
0.00394723
0.00445723
0.00312347
0.00233825
0.00193908
0.00171521
0.00147891
0.0018272
0.00283266
0.00468055
0.00188997
0.00536806
0.00330321
0.0033013
0.00370605
0.00183511
0.00156203
0.00330479
0.00243723
0.00146705
0.00378251
0.0033807
0.00282353
0.00416411
0.00643487
0.00408939
0.00456955
0.0070938
0.00181612
0.0019182
0.00415531
0.00207826
0.0075182
0.00152725
0.00233772
0.00195995
0.00364357
0.00137744
0.00757558
0.00155772
0.00695687
0.00144179
0.00749863
0.00268235
0.00181363
0.0039204
0.00730154
0.00374581
0.00154935
0.0019606
0.00337704
0.00363395
0.00158494
0.00453851
0.0053194
0.00435726
0.00189486
0.00320598
0.00317983
0.00602574
0.00278569
0.00411353
0.00169041
0.00179788
0.00141524
0.00161764
0.00145621
0.00660332
0.00520486
0.00633745
0.00192303
0.00509209
0.00491487
0.00704112
0.00334536
0.00725787
0.00309962
0.00728874
0.00362459
0.00515068
0.00215972
0.00322558
0.00461027
0.00491794
0.003565
0.00456134
0.00329678
0.0016027
0.00927322
0.00336967
0.00712142
0.00170071
0.0027808
0.00452426
0.00185411
0.00272787
0.00388105
0.00201403
0.00399065
0.00540818
0.00178808
0.00477593
0.00538493
0.00188265
0.00250418
0.00503974
0.00677554
0.00152445
0.00439411
0.00328484
0.00728957
0.0032564
0.00519087
0.00695782
0.00502489
0.00775009
0.00148442
0.00178217
0.0045004
0.00706689
0.0036647
0.00144658
0.00205339
0.00148921
0.00301838
0.00507131
0.00296177
0.00913393
0.00195662
0.00504037
0.00158695
0.00725647
0.00198586
0.00169095
0.00715512
0.00510717
0.00168795
0.00158834
0.00647859
0.00264945
0.00219942
0.00458974
0.00324856
0.00470733
0.00120919
0.00199202
0.00365594
0.00189532
0.00192671
0.00386216
0.00162738
0.00255
0.00170611
0.00423181
0.00139336
0.00156976
0.00157378
0.00195953
0.00477536
0.0019341
0.00667036
0.00164381
0.00713921
0.0128854
0.0036776
0.00193242
0.00201698
0.00538084
0.00281017
0.00168601
0.00205741
0.00131651
0.00773211
0.0075123
0.00904537
0.0035202
0.00643498
0.0025464
0.00486629
0.00177988
0.00533193
0.00661288
0.00484452
0.00324421
0.00352435
0.00166247
0.00392066
0.00511712
0.00497757
0.00146367
0.00248681
0.00762971
0.00172081
0.0032708
0.00212318
0.00413463
0.00254823
0.00427051
0.0014667
0.0016083
0.00208798
0.00404926
0.00457328
0.00391498
0.00520552
0.00138754
0.00393067
0.00326534
0.00337674
0.00133627
0.00202006
0.00263215
0.00325765
0.00151884
0.00651591
0.00370935
0.00239363
0.00485982
0.00179984
0.00175291
0.00151359
0.00173724
0.00247955
0.00161888
0.00193823
0.003455
0.00147065
0.00331398
0.00701633
0.00646398
0.00187062
0.00131664
0.00243199
0.0020197
0.00147538
0.00688035
0.00206917
0.00152619
0.00251118
0.00170656
0.00514798
0.00332672
0.00418848
0.00152237
0.00304794
0.00162108
0.00705241
0.00119203
0.00495593
0.00191351
0.00435174
0.0035213
0.00216701
0.0029305
0.00494666
0.00674601
0.001529
0.00897797
0.00296195
0.00358068
0.00192159
0.00245302
0.00172711
0.0015878
0.00655877
0.00158741
0.00129166
0.00469311
0.00721126
0.00307663
0.0015718
0.00185457
0.00188752
0.00501714
0.00354508
0.00645335
0.00280025
0.00157857
0.00219787
0.00124943
0.00476986
0.00711727
0.00447501
0.00398299
0.00482199
0.0014416
0.00495924
0.00144127
0.00354068
0.00715658
0.00142445
0.00243769
0.00193621
0.00401258
0.00133727
0.00180066
0.0053908
0.0045551
0.00662279
0.00275893
0.00409113
0.00452423
0.00192431
0.00784522
0.00458343
0.00540893
0.00517563
0.00262372
0.00203744
0.00281091
0.00773874
0.00128542
0.00239844
0.00189308
0.00383351
0.00145829
0.00399506
0.00211202
0.00358329
0.0053432
0.00318533
0.00250978
0.00465096
0.00321427
0.00188443
0.00192873
0.00260458
0.00316287
0.00410293
0.00502434
0.00482286
0.00350621
0.00693
0.0016636
0.00474833
0.00272138
0.00707561
0.00469168
0.0034364
0.00238565
0.00185757
0.00472166
0.00664893
0.00225452
0.00216898
0.0038547
0.00159064
0.0067691
0.00188236
0.00503084
0.00140268
0.00286552
0.00320186
0.00288489
0.00390135
0.00288216
0.00329221
0.00390496
0.00271215
0.00383017
0.00180399
0.00600439
0.00755235
0.00184792
0.00800719
0.00114096
0.00141375
0.00182808
0.00472437
0.00143002
0.00511451
0.0046924
0.0034423
0.00172916
0.00427724
0.00132326
0.00453083
0.00209852
0.00148679
0.00475238
0.00174279
0.00127978
0.00177821
0.002105
0.00738725
0.00690789
0.00346949
0.0016249
0.00376967
0.00168188
0.00833823
0.00509789
0.00291456
0.00445455
0.00325889
0.00517109
0.00206277
0.00283372
0.00523509
0.00605191
0.00485718
0.00202361
0.00712105
0.00209095
0.00442879
0.00738141
0.00211306
0.00404031
0.00465726
0.00235719
0.00378177
0.00223274
0.00388609
0.00143014
0.00140136
0.00387379
0.0022937
0.0071775
0.00504356
0.00136104
0.00335539
0.00159052
0.00714811
0.00702233
0.0020363
0.00621621
0.00239893
0.00324414
0.00432825
0.00476511
0.00309056
0.00386381
0.00163103
0.00260903
0.0017639
0.00322118
0.00692103
0.00379045
0.00731357
0.00413799
0.00497291
0.00461017
0.00321266
0.0049424
0.00234986
0.00145948
0.00156017
0.00164508
0.00341727
0.00319874
0.00344497
0.00404062
0.00348035
0.00320078
0.00507969
0.00184371
0.00733249
0.00189096
0.00475184
0.00277521
0.00186331
0.00945931
0.0064809
0.00159909
0.00355361
0.00723418
0.00223362
0.00681126
0.003377
0.00370009
0.00311153
0.00474022
0.00474238
0.00150625
0.00335565
0.00458169
0.00305705
0.00310262
0.00386184
0.0047007
0.00173906
0.00135821
0.0048803
0.00329295
0.00338905
0.00305325
0.00485801
0.00709377
0.00461594
0.00144953
0.00471704
0.00197504
0.0044426
0.00394591
0.00311178
0.00128287
0.00187255
0.00178357
0.00324549
0.00313631
0.00715635
0.00268217
0.0014438
0.00329404
0.00153277
0.00697155
0.00271026
0.00383389
0.00752408
0.00152369
0.0016742
0.00300616
0.0100043
0.00793552
0.00572116
0.00331377
0.00301208
0.00739183
0.00687497
0.00802383
0.00181933
0.00333767
0.00235841
0.00310588
0.00187049
0.00712471
0.00262735
0.00148325
0.00722319
0.00730658
0.00691467
0.00214424
0.00648
0.00279955
0.00479745
0.00477049
0.00217034
0.00442063
0.00163412
0.0027017
0.00451465
0.00197228
0.00275773
0.00392146
0.0035702
0.00145352
0.00243908
0.00311385
0.00711958
0.0019465
0.00146728
0.00118772
0.0013891
0.00385749
0.00314851
0.00494385
0.00758696
0.00142195
0.00482206
0.00433313
0.00297415
0.0041742
0.00127836
0.00358761
0.001307
0.00345508
0.0044151
0.00433184
0.00377059
0.00239283
0.00289105
0.00304709
0.00216493
0.00276729
0.00201919
0.00157203
0.00146556
0.00230385
0.00171447
0.00430026
0.00166887
0.00174676
0.00711766
0.00470259
0.00803682
0.00142277
0.0015714
0.00172124
0.00335073
0.00212552
0.00420839
0.00309487
0.00690442
0.00128064
0.00387043
0.00356691
0.00689822
0.00413559
0.00390551
0.0068998
0.0045125
0.00379814
0.00434237
0.00654545
0.00501641
0.00320306
0.00480019
0.00418192
0.00209831
0.00156248
0.00268496
0.0015826
0.00165411
0.00490062
0.00440224
0.00193117
0.00170474
0.00156094
0.00179632
0.00331262
0.00248301
0.00162139
0.00349907
0.00468748
0.00279624
0.00345413
0.00740328
0.00386593
0.00696097
0.00218601
0.00242521
0.00322795
0.0031005
0.00336426
0.00745746
0.00349792
0.00487362
0.00394386
0.0019217
0.00304178
0.00559356
0.00206626
0.00292073
0.00365865
0.00147733
0.00693221
0.00280892
0.00130841
0.00339605
0.00405711
0.0034743
0.00353739
0.00229942
0.00206663
0.00150426
0.00354514
0.00390776
0.00219112
0.00200536
0.00660424
0.00686939
0.00197732
0.00134019
0.00374803
0.00377181
0.00690345
0.0016267
0.00165779
0.00198618
0.00179323
0.00295742
0.00172804
0.00190365
0.00428133
0.00131373
0.00150257
0.00438048
0.00144918
0.00190103
0.00699907
0.00130312
0.00227271
0.0018853
0.00245369
0.00382222
0.00558038
0.00318512
0.00203152
0.00343472
0.00194688
0.00337294
0.00126388
0.00191171
0.0012934
0.00704553
0.00126775
0.00465484
0.00510247
0.0018944
0.00666043
0.00401407
0.00284369
0.00364752
0.00331947
0.00169212
0.00698956
0.00162674
0.00475266
0.00162796
0.00242257
0.00255364
0.00366955
0.00237554
0.00270204
0.00453574
0.00295024
0.00284272
0.00271016
0.0049299
0.00212637
0.0046264
0.00418312
0.00334816
0.00195526
0.003102
0.00347618
0.00681775
0.00201748
0.00731204
0.00422658
0.0067481
0.00462387
0.00181253
0.00155724
0.00199383
0.00151609
0.00603901
0.00336243
0.00672358
0.00621926
0.00231479
0.0036776
0.00174245
0.00150306
0.00261964
0.00712082
0.00325643
0.00505829
0.00378691
0.00332303
0.00300213
0.00224696
0.00182274
0.00321286
0.00409726
0.00644315
0.00212728
0.00307397
0.00421943
0.00243444
0.00392597
0.00364015
0.00133501
0.00437122
0.00220799
0.00405277
0.00169661
0.0019626
0.00399378
0.00204051
0.00297898
0.00225196
0.00281069
0.00254623
0.00429625
0.00229025
0.00510967
0.00322243
0.00436838
0.00303621
0.00134863
0.00457773
0.0106274
0.00293845
0.00382446
0.00175633
0.00160013
0.0045824
0.00125965
0.00326057
0.00274441
0.00178649
0.00328481
0.00338078
0.00149951
0.00474241
0.00487076
0.00748453
0.00168275
0.00325883
0.00425683
0.0018776
0.00196736
0.00204014
0.00386401
0.00155819
0.00392332
0.00417484
0.00470983
0.00495763
0.00552872
0.00773864
0.00735405
0.00286218
0.00297578
0.00422373
0.00422669
0.00189789
0.00254973
0.0036257
0.00720166
0.00523336
0.00349928
0.00364825
0.00459833
0.00330358
0.00385023
0.00118432
0.00455771
0.00299749
0.00203616
0.00170004
0.00253364
0.00168663
0.00285075
0.00156756
0.00444876
0.00159709
0.00184821
0.00394311
0.00292765
0.00486017
0.00373481
0.00450708
0.00340868
0.00524243
0.00171785
0.00562614
0.00384092
0.0019185
0.00438106
0.00453482
0.00470147
0.00314004
0.0016084
0.00368216
0.00254853
0.00335192
0.00235448
0.0019641
0.00246413
0.00296819
0.00216972
0.00336072
0.00429309
0.00168958
0.00372544
0.00200168
0.0017364
0.00184341
0.00695587
0.00196662
0.00693154
0.00187751
0.0022693
0.00210611
0.00356931
0.00247707
0.00507733
0.00504829
0.00337927
0.00174962
0.0037598
0.00163089
0.0047499
0.00337321
0.00157968
0.00262678
0.00149447
0.0033114
0.00153427
0.00301916
0.00471834
0.00406668
0.0053623
0.00510717
0.00312644
0.00150189
0.00166148
0.00494951
0.00529861
0.00490418
0.0025592
0.00172845
0.00176324
0.00184042
0.0048068
0.00401735
0.00496417
0.00310754
0.00407814
0.00353811
0.00266444
0.00299718
0.00655759
0.0017176
0.00446825
0.00806897
0.0072075
0.00246351
0.00128694
0.0039085
0.00312908
0.00466318
0.00557618
0.00145567
0.00285785
0.00291057
0.00278469
0.00748115
0.00166612
0.00315121
0.00307987
0.00215341
0.00148852
0.00374837
0.00265247
0.00354032
0.00189816
0.00707166
0.00179961
0.00345616
0.00241882
0.00555449
0.00198476
0.00188999
0.00238484
0.00141953
0.00679642
0.00157352
0.00153368
0.00374907
0.00190399
0.00264361
0.00215465
0.00291353
0.00167907
0.00424122
0.00345383
0.00341258
0.00211052
0.00345875
0.00181765
0.00228072
0.00294087
0.00272911
0.00212786
0.00510869
0.00212705
0.00476787
0.00578316
0.00150494
0.00581967
0.00166066
0.00292051
0.00465033
0.00233352
0.00454251
0.00674781
0.00692659
0.00536745
0.00483557
0.00336114
0.00159466
0.00395804
0.00145699
0.00343397
0.00315428
0.00450897
0.00294434
0.00716567
0.00166138
0.00142767
0.00119343
0.00268693
0.00660074
0.00499957
0.00173434
0.00685194
0.00409107
0.00487246
0.00152815
0.00273211
0.00469856
0.00488747
0.00294591
0.00488278
0.00672589
0.00506743
0.00220028
0.00308347
0.00687606
0.00148731
0.00176876
0.0066567
0.00173819
0.00593641
0.00138788
0.00204022
0.00435095
0.00314594
0.00982369
0.00140616
0.00526235
0.00413823
0.00257136
0.00168609
0.00308175
0.00185077
0.00143775
0.0058552
0.00219317
0.00157388
0.00485719
0.00427171
0.00331576
0.00718152
0.00298792
0.00276418
0.00392853
0.00279912
0.00199103
0.00761912
0.00682931
0.00470787
0.00390049
0.00545308
0.00130446
0.0073711
0.00470482
0.00242464
0.0033182
0.00494132
0.00516117
0.00188422
0.00282256
0.00436395
0.00332579
0.00188462
0.0028256
0.0014494
0.00158474
0.00271954
0.00402796
0.0040843
0.00741731
0.00249139
0.00189266
0.00308887
0.00591652
0.00396881
0.00355826
0.00153445
0.002578
0.00775505
0.00136613
0.00160126
0.00742308
0.00244142
0.00295436
0.00233882
0.00422606
0.00368036
0.00434122
0.00421063
0.00308703
0.00688652
0.0036319
0.00302098
0.00300755
0.00182973
0.00309527
0.00321791
0.00370456
0.00352822
0.00671915
0.00353099
0.00227113
0.00186264
0.00296801
0.00348965
0.00174782
0.00363159
0.00299817
0.00217898
0.00527204
0.00128287
0.00269242
0.00180971
0.00493289
0.00604461
0.00362738
0.0029267
0.00429526
0.00554247
0.00175987
0.00236328
0.00225678
0.0072821
0.0017718
0.00316644
0.00344493
0.00258587
0.00200785
0.00136908
0.00470548
0.00182399
0.00320464
0.00187285
0.00683211
0.00751606
0.00163887
0.00161513
0.00240353
0.00265093
0.00366662
0.00289819
0.00409289
0.00311878
0.00255692
0.00369604
0.00157796
0.002918
0.00319805
0.00163147
0.00308256
0.00158193
0.00634145
0.00134055
0.00197374
0.00168332
0.00149572
0.00170585
0.0016693
0.00485681
0.00196445
0.00301562
0.00228866
0.00133002
0.004894
0.00319837
0.00135447
0.00767042
0.00224874
0.00522464
0.00149156
0.00221368
0.00172772
0.0016265
0.00111835
0.00475607
0.00711102
0.0101078
0.00449707
0.00475009
0.0025843
0.00320703
0.00462701
0.00483313
0.00136376
0.0039724
0.00159379
0.0014105
0.00221545
0.00452869
0.00298264
0.00745153
0.00336039
0.00494705
0.00752516
0.00235278
0.00286672
0.00301238
0.00275354
0.00387211
0.00175421
0.00190125
0.00218532
0.00265639
0.00198303
0.00394458
0.00593989
0.00163027
0.00264425
0.00174053
0.00446673
0.00171046
0.00163612
0.00240645
0.00264157
0.00276101
0.00189634
0.00159422
0.00215789
0.00139631
0.00192148
0.00157508
0.00165992
0.0052095
0.00199154
0.00178249
0.00235393
0.00377203
0.00176524
0.00371418
0.00490632
0.00134122
0.00299041
0.00405656
0.00244284
0.00173888
0.0043414
0.00351887
0.00187475
0.00685077
0.00166412
0.00256661
0.00336583
0.00303167
0.00324515
0.00202423
0.00143856
0.00216149
0.00145855
0.00193461
0.00237889
0.00759654
0.00170945
0.00241436
0.00305709
0.00161298
0.00217142
0.00245786
0.0124156
0.00437691
0.00462967
0.00176051
0.00336589
0.00281938
0.00196548
0.00167781
0.00201253
0.00435121
0.00664865
0.00307178
0.00271672
0.00900776
0.00466723
0.0019077
0.00211106
0.00376014
0.0012704
0.00157667
0.00147065
0.00193482
0.00722029
0.00203801
0.00216793
0.00489158
0.00275464
0.0031454
0.00162416
0.00674155
0.00513109
0.00165669
0.00336418
0.00156555
0.00375658
0.00168709
0.00511406
0.0056986
0.00142724
0.00657965
0.00370749
0.00172842
0.006659
0.0022326
0.00404129
0.00307417
0.00368637
0.0038373
0.00538725
0.00531817
0.00175809
0.00281667
0.00169859
0.00359957
0.00220349
0.00170867
0.00152213
0.00309896
0.00163385
0.00463633
0.00154016
0.0036179
0.00235254
0.00146896
0.00318456
0.00849739
0.00151487
0.00151559
0.00256478
0.00563133
0.00121248
0.00789331
0.00184966
0.00192027
0.00366686
0.00317265
0.00129403
0.00236038
0.00840587
0.00449881
0.00289764
0.00183819
0.00447043
0.00306081
0.0025122
0.00178615
0.00320705
0.0065291
0.00293699
0.00316861
0.00286027
0.00299824
0.00161889
0.00155531
0.00720819
0.00257037
0.00750902
0.00469036
0.00144788
0.00241651
0.00174723
0.00586882
0.00326115
0.00266973
0.00166205
0.00312647
0.00186682
0.00515474
0.00231002
0.00181096
0.00149977
0.00163691
0.00463966
0.00208957
0.00673702
0.00181639
0.00465805
0.0017656
0.00705107
0.0039585
0.00211697
0.00333472
0.00157487
0.00291916
0.00234016
0.00162111
0.00358645
0.00441156
0.00397653
0.00747202
0.00261146
0.00572119
0.00299484
0.00150188
0.00230036
0.00474384
0.00215857
0.00347279
0.00313188
0.00364099
0.00184752
0.00740676
0.00710054
0.00587447
0.00700656
0.00268012
0.00501698
0.00361111
0.00183055
0.00154877
0.00345452
0.00568177
0.00356578
0.00353324
0.0018407
0.0051795
0.0027303
0.00146248
0.00181029
0.00303685
0.00471336
0.00544582
0.00250163
0.00353195
0.00266143
0.00153988
0.00147274
0.00448574
0.00443101
0.0011086
0.00171525
0.00358159
0.00417193
0.00309169
0.0017609
0.00136339
0.00172225
0.00214088
0.00328465
0.00384735