/*--------------------------------*- C++ -*----------------------------------*\
| =========                 |                                                 |
| \\      /  F ield         | OpenFOAM: The Open Source CFD Toolbox           |
|  \\    /   O peration     | Version:  2406                                  |
|   \\  /    A nd           | Website:  www.openfoam.com                      |
|    \\/     M anipulation  |                                                 |
\*---------------------------------------------------------------------------*/
FoamFile
{
    version     2.0;
    format      ascii;
    arch        "LSB;label=32;scalar=64";
    class       volVectorField;
    location    "32";
    object      momentum:angularMomentum;
}
// * * * * * * * * * * * * * * * * * * * * * * * * * * * * * * * * * * * * * //

dimensions      [1 1 -1 0 0 0 0];

internalField   nonuniform List<vector> 
59516
(
(9.76981e-10 -1.01243e-09 2.35288e-07)
(6.17314e-10 -5.38435e-10 1.75568e-07)
(-4.9968e-10 2.28878e-09 2.124e-07)
(-3.59502e-09 1.33788e-10 1.75969e-07)
(-7.8574e-09 4.20394e-10 2.00398e-07)
(-5.20192e-09 2.77082e-09 5.03665e-08)
(-4.94668e-10 -2.53434e-09 2.16117e-07)
(-4.66417e-10 -2.01114e-09 2.07429e-07)
(-1.25506e-09 -2.47506e-10 1.63078e-07)
(3.33137e-09 1.46849e-09 8.71482e-08)
(-1.78886e-09 -8.05263e-10 2.03874e-07)
(-4.11491e-09 -4.09744e-09 1.06951e-07)
(-2.33573e-09 -1.23989e-09 3.36155e-07)
(1.07449e-10 -1.84525e-10 1.73221e-08)
(2.00276e-10 -9.06787e-09 1.66063e-07)
(-2.33289e-09 6.40761e-09 9.12379e-08)
(7.85288e-10 -5.06948e-10 2.55269e-07)
(-1.22426e-08 -3.69149e-09 1.6129e-07)
(-1.30089e-08 -4.28052e-09 3.34298e-07)
(-1.533e-10 1.41364e-09 3.56039e-07)
(-1.71577e-09 9.974e-10 1.03206e-07)
(1.04425e-09 -8.23435e-11 3.17388e-07)
(5.18626e-10 -1.6346e-09 3.47995e-07)
(1.05216e-09 5.99897e-10 3.82473e-08)
(1.29086e-09 2.37923e-09 3.04297e-07)
(-1.00237e-09 4.88747e-09 2.16174e-07)
(-7.50825e-10 3.73661e-09 5.71501e-08)
(-5.39909e-09 -2.62083e-09 7.58153e-08)
(-3.96189e-09 -2.26602e-09 1.49856e-07)
(1.91801e-09 1.47834e-09 1.51447e-08)
(-3.74776e-08 2.13451e-09 1.89443e-07)
(-4.98034e-09 3.91366e-09 8.55483e-08)
(-1.03349e-09 -8.04585e-10 1.76713e-07)
(-3.61013e-09 -1.17384e-09 1.80895e-07)
(-3.93359e-09 -3.36515e-10 1.32665e-07)
(5.31393e-10 7.62047e-10 3.99247e-07)
(-2.16585e-09 1.13233e-09 1.44871e-08)
(-1.26826e-08 -4.20031e-09 1.32743e-07)
(-7.93429e-09 1.34969e-09 2.74929e-07)
(2.99786e-09 -6.58847e-10 2.71673e-07)
(5.85543e-10 -1.96816e-09 2.70587e-07)
(-2.72129e-08 -7.47141e-11 4.05346e-07)
(-4.16408e-09 1.13969e-09 3.41686e-07)
(-8.31354e-10 3.87029e-10 1.16706e-07)
(-3.62576e-09 1.40574e-09 2.67089e-07)
(2.91639e-09 8.66626e-10 1.10133e-07)
(-7.19466e-09 -2.42372e-10 3.27899e-07)
(-2.82433e-09 6.25708e-10 2.46321e-07)
(-3.44002e-08 3.1909e-09 2.51775e-07)
(-9.77504e-09 -2.25606e-10 2.36516e-07)
(-2.81967e-08 8.23741e-10 1.63888e-07)
(-6.97644e-09 -3.48256e-09 8.36732e-08)
(1.11439e-09 -5.57646e-09 3.26873e-07)
(-7.64497e-10 1.87395e-10 3.09989e-07)
(-4.4513e-09 1.08123e-09 8.60984e-08)
(-1.78297e-09 4.80986e-10 2.48671e-07)
(-1.49424e-08 -2.27831e-10 2.01009e-07)
(-7.7796e-09 -3.02743e-09 8.64536e-08)
(4.11096e-10 4.44471e-10 1.92902e-07)
(-9.05708e-09 -3.72383e-10 1.45211e-07)
(3.03144e-10 5.1651e-10 2.05886e-07)
(-1.2531e-09 1.75554e-09 1.70619e-08)
(7.15984e-10 5.50139e-10 2.47855e-07)
(-1.29187e-09 1.09035e-09 3.23405e-07)
(-1.45341e-09 6.86632e-10 3.05844e-07)
(-5.13564e-09 4.4511e-10 2.1164e-07)
(1.44453e-10 2.29534e-09 2.0414e-08)
(-9.02151e-11 3.33919e-10 7.25565e-08)
(-3.70292e-08 6.75027e-10 1.98051e-07)
(-7.90959e-10 -1.44452e-09 1.707e-07)
(-9.86476e-10 -1.38172e-09 5.79506e-08)
(-4.9811e-10 -1.53093e-10 1.50306e-07)
(3.93194e-09 -1.59348e-09 2.56675e-08)
(5.99623e-10 -2.34754e-11 1.85475e-07)
(-1.14713e-09 8.28103e-10 3.42199e-07)
(-9.2345e-10 -2.74142e-10 3.53497e-07)
(-1.21566e-09 -3.76707e-10 2.07566e-07)
(-7.29005e-10 2.77851e-10 2.22429e-07)
(3.55867e-09 2.14396e-09 9.32651e-08)
(-7.18986e-09 1.12381e-09 1.88812e-07)
(-3.62291e-09 1.87666e-10 5.61611e-08)
(-5.45206e-09 6.45237e-10 1.68566e-07)
(-5.03812e-09 7.43519e-10 1.81605e-07)
(-2.55334e-09 1.32509e-09 2.0287e-08)
(-6.70035e-09 1.30232e-09 2.11916e-07)
(-3.63042e-10 1.01164e-09 3.50798e-07)
(6.93208e-10 1.14878e-09 3.46813e-08)
(2.35107e-09 8.89902e-10 5.00222e-07)
(-4.74253e-09 -3.01079e-09 1.18861e-07)
(-1.45938e-08 -3.87361e-09 1.67742e-07)
(-1.5019e-08 -1.99095e-10 1.8305e-07)
(-1.84471e-09 1.46944e-09 1.86371e-07)
(2.36488e-10 9.53597e-11 2.40822e-07)
(-2.61979e-10 1.34443e-09 1.81037e-07)
(-1.96942e-10 -1.08604e-11 1.72036e-07)
(-1.88355e-08 5.15658e-11 1.83488e-07)
(-8.60153e-10 -7.89053e-10 1.24148e-07)
(3.113e-09 6.74146e-09 9.22295e-08)
(-3.50636e-09 -1.80929e-09 1.18335e-07)
(1.71612e-09 1.32758e-09 2.0486e-07)
(-2.10455e-09 1.69715e-09 6.7543e-08)
(3.28317e-09 1.53211e-09 2.94238e-08)
(3.27219e-09 1.73155e-09 2.61257e-08)
(-3.27154e-09 3.66397e-09 9.28108e-08)
(1.18657e-09 -1.60662e-10 2.35937e-07)
(-4.30554e-10 5.15967e-10 1.58573e-07)
(2.68591e-09 -4.93062e-09 6.1429e-08)
(-7.72267e-10 -4.68415e-10 1.44673e-07)
(-7.50856e-10 1.03164e-09 1.84347e-07)
(-4.35268e-09 6.94314e-09 2.04597e-07)
(-4.10501e-08 -6.16319e-10 2.80102e-07)
(3.62832e-09 -3.2111e-09 4.7745e-08)
(-7.33223e-09 9.57555e-09 2.02573e-07)
(-3.55018e-08 -6.39561e-11 2.1932e-07)
(-2.05053e-10 -6.22142e-11 2.13428e-07)
(1.28991e-09 -1.64472e-09 1.4549e-07)
(-4.76815e-09 -2.66652e-09 1.36352e-07)
(-8.28159e-10 -5.11215e-10 1.45638e-07)
(-4.01909e-10 -9.55891e-10 2.04224e-08)
(-1.91818e-09 2.08851e-09 2.58661e-07)
(7.85154e-10 3.01236e-10 3.68868e-07)
(4.14152e-10 3.04915e-10 1.65337e-07)
(2.89867e-10 3.21508e-10 1.55594e-07)
(-2.38357e-10 4.41452e-10 1.71555e-07)
(-1.72021e-08 1.34242e-09 1.32825e-07)
(-3.90792e-09 4.83419e-11 1.46924e-07)
(-2.4296e-09 -1.03156e-09 3.98025e-08)
(-1.84515e-08 3.33692e-09 2.1183e-07)
(-2.36544e-08 5.55693e-09 1.63286e-07)
(5.90105e-10 -5.89247e-11 1.45377e-07)
(1.29153e-09 -1.11178e-09 2.55149e-07)
(4.21026e-09 5.37268e-09 3.38084e-07)
(-5.86687e-10 -2.16292e-09 2.52378e-08)
(6.79842e-10 9.28657e-10 2.54519e-07)
(2.80446e-09 1.17666e-09 3.32627e-07)
(-2.5492e-09 2.1634e-09 2.06144e-07)
(-2.15053e-08 2.01146e-09 1.52166e-07)
(1.27071e-09 1.21642e-09 3.2238e-07)
(-4.85732e-10 3.69372e-09 5.71629e-08)
(-1.73618e-09 1.46229e-09 1.67569e-07)
(-1.836e-09 4.02286e-09 8.34458e-08)
(-2.76375e-10 -9.81505e-11 2.97478e-07)
(-7.86017e-10 -1.31677e-09 1.53944e-08)
(-3.95217e-10 1.60812e-09 1.54206e-07)
(-2.28674e-10 4.30266e-10 1.98386e-07)
(-2.30347e-09 1.64409e-09 2.82372e-07)
(-3.72763e-09 1.6041e-09 2.04247e-07)
(-2.84624e-09 2.14271e-09 2.12195e-07)
(9.80369e-10 -1.82061e-09 6.40551e-08)
(-1.78155e-10 2.25054e-09 2.16204e-07)
(5.81293e-12 -2.61292e-09 3.36203e-07)
(3.07533e-10 2.00256e-09 5.829e-08)
(2.53764e-09 1.83039e-09 3.68499e-07)
(1.30382e-09 2.77004e-10 2.14035e-07)
(-6.20655e-10 -3.36615e-09 1.68998e-07)
(-1.56884e-09 8.90525e-10 1.64197e-08)
(5.53615e-10 -5.93446e-12 2.89764e-07)
(-2.45716e-09 1.91876e-09 3.44195e-07)
(-1.61123e-09 9.93993e-10 1.37342e-07)
(-2.54217e-09 -1.8304e-09 1.77708e-08)
(3.88447e-09 3.37232e-09 9.58584e-08)
(6.35146e-09 -3.45033e-09 1.20347e-07)
(-7.37232e-10 1.70435e-09 4.41219e-08)
(-2.37419e-10 -4.68108e-10 2.51599e-08)
(4.80286e-09 2.75393e-10 1.72382e-07)
(-1.79587e-09 1.06296e-09 3.07457e-07)
(1.7678e-09 2.20334e-11 1.65994e-07)
(-7.57983e-10 -1.22292e-10 2.57889e-07)
(1.15716e-09 2.18752e-09 1.91482e-08)
(-3.84361e-10 -5.67441e-10 2.12136e-07)
(-1.39676e-09 -1.24287e-09 9.24872e-08)
(-1.14555e-09 8.88914e-10 7.29733e-08)
(1.87953e-10 -3.14889e-09 1.14918e-07)
(7.17546e-10 -9.92141e-10 1.52474e-07)
(1.05239e-09 1.36053e-09 9.29858e-08)
(-1.07277e-08 -2.64544e-09 4.56117e-07)
(-1.37497e-09 1.15554e-11 2.32856e-07)
(-7.22306e-09 9.57635e-10 3.0883e-07)
(1.10641e-09 -7.60922e-09 1.59861e-07)
(8.53939e-10 4.90712e-10 6.88459e-08)
(-1.21734e-09 -3.74559e-09 3.05215e-07)
(1.21304e-09 4.15251e-09 4.6886e-08)
(-1.17873e-09 -2.39718e-09 3.3013e-08)
(1.11154e-09 2.9366e-09 1.13327e-07)
(5.19047e-10 -7.22743e-10 1.87757e-07)
(-5.83569e-10 1.16016e-09 1.03866e-07)
(-3.85375e-09 8.92104e-10 5.02734e-08)
(1.84304e-10 2.01701e-10 2.23434e-08)
(-1.34912e-10 -2.93837e-10 1.96728e-07)
(3.575e-09 1.82977e-09 2.37925e-07)
(-3.24197e-09 -6.25562e-10 1.58231e-07)
(-1.99805e-09 -7.17411e-09 1.24756e-07)
(-5.04598e-10 -4.42488e-10 2.06045e-07)
(3.27865e-09 -2.85022e-09 1.02681e-07)
(-6.20446e-10 8.23253e-10 3.34204e-07)
(4.52125e-10 7.48136e-10 3.11912e-08)
(1.35953e-09 1.11604e-10 1.05298e-07)
(3.7823e-10 -1.62236e-09 6.20914e-08)
(-7.75935e-09 -4.99584e-10 1.93803e-07)
(7.93334e-10 -2.91599e-10 2.59467e-07)
(-1.72764e-09 -2.14639e-09 8.20676e-08)
(-2.12782e-10 -2.64391e-10 1.74009e-07)
(1.2539e-09 3.21779e-09 3.29863e-07)
(1.49236e-09 -1.67982e-09 1.77312e-08)
(2.10384e-09 1.88406e-09 2.27169e-07)
(2.06278e-10 -2.04194e-10 2.37066e-07)
(5.55611e-11 3.25226e-10 3.18866e-07)
(2.91532e-10 -5.79063e-10 1.90992e-07)
(1.65707e-10 -5.64467e-10 1.98755e-08)
(4.2695e-09 2.36307e-09 3.14609e-07)
(-4.89795e-10 5.98789e-09 6.51674e-08)
(-4.11677e-09 8.71469e-10 2.60223e-08)
(-1.81017e-09 1.44645e-09 2.3295e-07)
(-3.68482e-10 2.16218e-09 1.03421e-07)
(-1.42614e-09 -2.54286e-09 3.05862e-07)
(-1.17336e-09 -4.11024e-10 2.72283e-07)
(-1.54798e-09 8.02165e-10 2.72629e-07)
(-1.05891e-09 9.68326e-10 2.0349e-07)
(-2.8523e-09 5.06431e-09 9.02054e-08)
(1.09043e-09 3.81456e-10 2.14777e-07)
(-2.80695e-09 -5.72512e-09 1.30089e-07)
(-5.07272e-10 1.16381e-09 2.02415e-07)
(-9.11444e-10 -1.14908e-09 1.7042e-07)
(8.96546e-10 -1.34568e-09 8.29151e-08)
(-2.07072e-09 -9.76924e-10 2.78231e-07)
(9.60713e-10 1.03681e-09 2.90651e-07)
(-1.28193e-09 -1.26479e-09 3.4637e-08)
(-3.86903e-09 8.79118e-10 7.14101e-08)
(-5.46115e-10 1.0777e-09 1.87278e-07)
(-4.38516e-09 7.88007e-09 1.27062e-07)
(7.90678e-10 9.92374e-10 2.28749e-07)
(-6.32411e-10 3.19535e-10 1.68237e-07)
(-1.50413e-09 -1.51461e-09 2.89063e-07)
(-1.45353e-09 -2.39413e-09 2.94335e-08)
(-1.36905e-09 -1.17495e-09 3.40261e-08)
(-1.73134e-09 7.09706e-11 4.31674e-08)
(9.3033e-10 -8.37647e-10 1.17929e-07)
(-2.71853e-09 -7.06008e-10 1.83491e-07)
(-3.71912e-09 4.3079e-10 4.05809e-07)
(2.83777e-09 -3.06142e-10 9.24352e-08)
(1.22123e-09 2.2012e-10 2.27251e-07)
(2.47355e-09 1.77957e-09 2.07367e-08)
(1.65928e-09 1.15075e-09 1.178e-07)
(2.80751e-09 1.66695e-09 2.98686e-08)
(6.99012e-10 2.44288e-10 1.50212e-07)
(-3.20698e-10 -1.13698e-09 1.62653e-07)
(-9.04416e-10 1.06777e-10 1.94335e-07)
(-1.12908e-09 4.3055e-09 2.00045e-07)
(8.73044e-10 4.83309e-10 2.64966e-07)
(-6.33748e-10 -3.38619e-10 2.08927e-07)
(3.93051e-09 -1.1083e-09 3.66782e-07)
(-9.52696e-10 4.24043e-10 2.12764e-07)
(8.61395e-10 4.45959e-10 1.7419e-07)
(2.47929e-10 6.68159e-10 2.7889e-07)
(-7.84309e-10 2.52012e-09 2.79372e-07)
(-3.05332e-10 1.05922e-09 2.91371e-07)
(-5.29528e-10 -1.79977e-10 1.1972e-07)
(-2.33063e-09 2.70482e-10 2.77204e-07)
(2.31862e-09 4.16269e-09 8.81231e-08)
(-6.86444e-10 3.67634e-09 1.05315e-07)
(-1.9897e-09 6.53326e-10 2.22827e-07)
(-8.42844e-10 1.86041e-09 2.51691e-07)
(5.66748e-09 1.86875e-09 2.48011e-07)
(7.55975e-11 1.67672e-09 2.65129e-07)
(1.69455e-09 3.33191e-10 7.84773e-08)
(3.19811e-10 -5.63755e-09 1.14841e-07)
(-3.56406e-10 -1.30932e-09 2.94753e-07)
(4.34766e-09 6.00752e-10 2.26174e-07)
(-8.61826e-10 -1.08205e-09 6.69862e-08)
(-3.40417e-10 2.04242e-09 8.01781e-08)
(-2.54584e-09 3.51234e-09 1.71805e-07)
(-7.33225e-10 -4.6753e-10 1.7412e-07)
(-4.19822e-09 5.58788e-09 3.23274e-07)
(-9.84816e-10 2.05952e-09 1.57981e-07)
(-2.61592e-09 1.00421e-09 3.19662e-07)
(3.94352e-10 5.91923e-09 2.01518e-07)
(-1.25035e-09 -2.57322e-09 2.15491e-08)
(9.7286e-10 2.11261e-09 2.88438e-07)
(2.58951e-09 -1.92449e-09 3.1727e-08)
(2.41649e-09 1.29833e-09 5.65202e-08)
(-1.63836e-09 -1.43265e-09 3.21029e-07)
(-3.13466e-10 1.00178e-09 2.51614e-07)
(-4.0663e-09 2.1883e-09 3.02281e-08)
(-6.90419e-10 -2.40045e-09 3.08205e-07)
(-2.03542e-09 -3.91767e-09 2.55225e-07)
(6.88625e-10 9.4325e-10 2.37436e-07)
(6.95791e-10 -6.749e-10 2.96174e-07)
(2.17947e-09 -2.1137e-09 2.55893e-08)
(-1.30087e-09 6.89763e-10 2.55235e-07)
(-6.45131e-10 -1.04316e-09 1.33619e-07)
(-3.05065e-10 -9.762e-10 1.48137e-07)
(-1.54426e-09 -9.64641e-10 2.54716e-07)
(-1.96896e-09 1.07499e-09 1.68957e-07)
(-1.09099e-09 -5.02978e-10 1.85078e-07)
(1.7599e-10 -1.73936e-09 2.52746e-07)
(-7.30873e-12 2.41004e-09 4.19688e-08)
(1.6018e-09 -2.7902e-09 2.69941e-07)
(1.36772e-09 1.06366e-09 1.92313e-07)
(-1.28309e-09 -2.32643e-09 3.27569e-07)
(-2.02411e-10 -1.9988e-09 2.48984e-07)
(2.23109e-09 -1.61726e-09 3.18261e-07)
(2.4151e-09 -3.38775e-09 1.45703e-07)
(-6.52594e-10 -1.38976e-09 2.14675e-08)
(9.4464e-10 5.57654e-10 3.90169e-08)
(-3.70635e-09 3.18776e-09 4.97389e-07)
(-2.85738e-09 1.22983e-09 2.00118e-08)
(-2.13733e-09 -2.18642e-09 1.83799e-07)
(-1.56528e-09 4.19045e-09 7.84563e-08)
(1.37156e-09 -1.34037e-09 2.98039e-07)
(-5.44869e-10 -1.17283e-09 3.49932e-07)
(7.43408e-11 7.05757e-10 3.08687e-07)
(2.62514e-09 8.15967e-10 1.31066e-07)
(6.72021e-09 1.38658e-10 3.05696e-07)
(2.73859e-10 7.72667e-09 7.32891e-08)
(1.30324e-09 -2.6973e-09 9.12474e-08)
(7.12423e-11 -5.7711e-10 1.90744e-07)
(1.13249e-09 -2.21451e-09 1.63995e-07)
(-3.20712e-08 -3.93636e-09 2.69453e-07)
(4.90236e-10 -4.7753e-09 1.99998e-07)
(-9.19494e-10 -8.56481e-11 6.9132e-08)
(3.40115e-09 -1.29186e-10 1.09276e-07)
(-5.47214e-10 -3.16415e-09 2.1444e-07)
(-8.55815e-11 1.25335e-12 1.99257e-07)
(-9.29664e-10 -6.48478e-10 3.83096e-07)
(-1.2333e-09 8.58394e-10 2.0325e-07)
(1.29779e-10 4.47421e-09 4.73229e-07)
(-8.91411e-09 -1.52037e-09 1.6847e-07)
(-3.37669e-09 9.68002e-10 3.42214e-07)
(-1.85484e-09 2.4794e-09 2.59556e-07)
(1.71051e-10 1.67793e-11 1.89781e-07)
(1.93774e-09 -5.17063e-10 3.23127e-07)
(-4.66694e-09 -4.28939e-09 1.10765e-07)
(3.17124e-09 -1.11966e-09 2.52268e-08)
(1.15157e-09 -4.65161e-10 2.8913e-07)
(1.85675e-09 4.02511e-09 6.33185e-08)
(9.90314e-11 -1.89815e-10 3.09889e-08)
(-3.40394e-09 -2.67025e-10 3.76042e-07)
(7.94212e-10 8.72105e-10 1.98997e-07)
(-2.73187e-09 4.68742e-09 1.09316e-07)
(-1.03412e-09 -1.37658e-09 2.35486e-07)
(6.60897e-10 2.91893e-09 3.12822e-07)
(-2.24935e-09 1.0604e-10 3.83409e-07)
(-5.15703e-10 -5.07152e-10 2.48906e-07)
(-1.50199e-10 -1.55653e-09 3.34211e-08)
(3.78145e-10 -6.86729e-10 3.0782e-07)
(-1.70471e-09 3.17993e-10 1.99691e-07)
(2.33579e-10 1.26715e-09 1.05175e-07)
(4.49202e-11 -2.36614e-09 2.66505e-07)
(-2.60955e-10 5.26084e-10 2.31404e-07)
(9.56686e-10 7.56838e-10 1.76037e-07)
(9.48392e-10 8.30775e-10 2.0304e-07)
(-5.42615e-10 -2.07374e-09 2.68129e-07)
(1.18474e-09 1.48575e-09 2.00254e-07)
(-3.66836e-10 1.62026e-10 8.19929e-08)
(-4.0851e-10 1.06556e-09 2.15762e-08)
(3.45688e-10 2.84278e-09 4.18442e-08)
(9.87858e-10 7.94259e-10 2.30477e-07)
(-3.85479e-08 -3.3058e-11 2.6848e-07)
(-1.13521e-08 1.20466e-09 1.15924e-07)
(4.30279e-10 -4.78486e-10 1.17811e-07)
(2.8882e-09 -2.54971e-09 2.54515e-07)
(-6.4189e-10 9.04257e-10 3.12057e-07)
(-4.00116e-09 1.25998e-09 2.23783e-07)
(1.74393e-09 1.10909e-10 3.53253e-07)
(-1.15748e-09 -5.77124e-10 3.42233e-07)
(-8.09963e-10 -7.65045e-10 2.19832e-07)
(-1.21288e-09 -8.37766e-11 1.35403e-07)
(-3.36567e-10 6.96003e-10 2.59247e-08)
(-4.76319e-08 1.82554e-09 2.40969e-07)
(7.52914e-10 2.63735e-09 9.31176e-08)
(-1.64495e-09 2.86523e-09 6.85906e-08)
(1.37419e-09 5.13268e-10 7.2532e-08)
(-1.48493e-10 -1.49298e-11 1.66257e-07)
(-4.13144e-10 4.62755e-10 1.81463e-07)
(-1.1703e-09 1.6362e-10 2.28502e-07)
(-1.22236e-09 1.38276e-09 1.85156e-08)
(4.8083e-10 -2.0989e-10 1.72748e-07)
(1.79855e-09 -1.09132e-09 6.98895e-08)
(-2.74434e-10 8.49112e-10 1.77224e-07)
(-5.76948e-10 6.46323e-10 5.96578e-08)
(4.35828e-09 1.72277e-09 1.5656e-07)
(1.56779e-09 5.0376e-09 2.29046e-07)
(-1.56796e-09 5.49623e-10 1.81769e-07)
(2.7989e-09 -1.32503e-10 2.0683e-08)
(-5.3941e-11 5.43398e-09 1.19775e-07)
(-4.09149e-10 -1.01496e-09 2.40576e-07)
(4.90207e-12 -2.68273e-09 2.73311e-08)
(-1.73429e-08 -1.53189e-10 2.89348e-07)
(5.74825e-10 -3.84553e-09 1.87346e-07)
(5.87037e-10 -4.3324e-09 3.06835e-07)
(5.01796e-09 -5.17691e-09 2.087e-07)
(2.03151e-09 4.3652e-10 9.79587e-08)
(2.74757e-09 -1.64083e-09 3.81631e-07)
(-1.83892e-08 -5.95829e-09 1.4242e-07)
(-2.52404e-09 -8.22146e-10 2.9904e-07)
(-1.6924e-08 9.50841e-10 1.55555e-07)
(-5.25496e-09 3.76558e-09 1.51186e-07)
(-1.12909e-09 3.57519e-09 1.51644e-07)
(-7.09775e-10 -1.50007e-09 2.50183e-07)
(2.02725e-09 -4.09952e-09 5.00932e-07)
(9.41887e-10 -7.84255e-10 8.62221e-08)
(-6.16165e-10 -2.16734e-09 3.45036e-07)
(-2.67184e-09 1.03826e-09 1.2565e-07)
(1.72117e-09 -1.40491e-09 3.9865e-07)
(1.05789e-09 -1.81515e-09 3.04251e-07)
(-1.71263e-09 -5.7248e-09 7.51785e-08)
(-7.3567e-10 1.09335e-09 2.20157e-07)
(5.42036e-09 -3.82592e-10 3.7998e-07)
(-2.58522e-10 -5.11171e-10 2.26699e-07)
(4.90343e-10 -6.20504e-10 2.17228e-07)
(3.00944e-09 -1.61606e-09 2.55571e-08)
(-2.78326e-09 -8.18181e-10 2.14172e-08)
(-2.74813e-09 2.97678e-09 2.9739e-07)
(8.69128e-11 -2.83944e-10 2.62446e-07)
(1.40932e-09 1.32995e-09 2.00946e-07)
(-2.4487e-09 1.28253e-09 3.9119e-08)
(4.00464e-10 -5.09808e-10 8.30811e-08)
(-2.78835e-09 6.57844e-10 3.15311e-07)
(-8.76899e-10 -4.40775e-10 1.52769e-07)
(2.00878e-09 1.30279e-09 2.87811e-07)
(9.9988e-10 6.92302e-10 2.59897e-07)
(-4.07572e-10 -1.71185e-09 2.04043e-07)
(-2.87522e-10 -2.5115e-09 2.18732e-07)
(5.25873e-10 -7.98227e-10 1.29494e-07)
(-1.88818e-09 4.70389e-10 1.94958e-07)
(-3.25342e-09 4.04755e-09 9.4666e-08)
(-3.08495e-10 4.1384e-10 2.72272e-07)
(-1.67926e-09 -1.42161e-09 1.9771e-07)
(-1.77049e-09 5.93751e-10 2.08167e-07)
(-5.16749e-10 -3.76532e-10 2.03643e-07)
(-8.57675e-11 1.25805e-10 3.47912e-07)
(1.9903e-09 2.81195e-10 2.63453e-07)
(3.16729e-09 4.75156e-09 7.40143e-08)
(1.11843e-09 -4.70005e-11 4.85985e-08)
(-2.0006e-09 -1.96875e-09 2.16211e-08)
(-1.00966e-08 1.94648e-10 2.26592e-07)
(-4.87982e-11 1.50814e-10 2.65667e-07)
(-1.7713e-09 2.75987e-10 2.69803e-07)
(2.10815e-10 -2.41992e-09 1.9762e-07)
(1.11071e-09 2.14557e-10 3.23555e-08)
(8.38612e-10 -2.76615e-09 2.47423e-08)
(-1.2895e-09 -2.54974e-09 1.87668e-07)
(-1.62951e-09 1.24532e-09 2.24808e-07)
(-9.69745e-10 -7.93031e-10 2.86535e-07)
(1.24512e-09 -1.15858e-09 3.14949e-07)
(-1.82035e-09 -5.87357e-10 2.02235e-07)
(-8.88889e-10 1.5739e-09 3.06936e-07)
(2.95596e-09 -9.76556e-10 3.81045e-07)
(-1.58269e-09 2.97233e-09 3.47577e-08)
(-3.91286e-10 7.02212e-10 1.87518e-07)
(3.43781e-09 -2.06693e-09 7.90546e-08)
(-9.85802e-09 -1.07804e-09 9.76778e-08)
(2.28094e-10 1.82086e-10 1.24198e-07)
(5.67512e-10 7.73202e-11 1.50741e-07)
(4.17355e-10 -3.09647e-10 2.50097e-07)
(-3.54303e-09 2.25111e-09 2.15451e-08)
(3.14879e-09 -1.45687e-09 3.27176e-07)
(-1.64871e-11 -4.0743e-11 2.43031e-07)
(-1.7139e-09 6.8761e-10 1.96373e-07)
(1.56712e-09 -1.43025e-09 2.13407e-07)
(-3.27294e-10 -1.05419e-09 1.66189e-07)
(-1.30417e-09 -1.09464e-09 2.40563e-07)
(2.25587e-10 7.78948e-10 2.51331e-07)
(-1.79463e-09 7.29154e-10 2.72586e-07)
(-7.04626e-09 -1.19342e-09 1.70727e-07)
(-4.04047e-10 -4.88235e-10 2.51261e-07)
(-4.03307e-09 9.87772e-10 2.87705e-07)
(1.50525e-09 -1.25535e-09 2.02585e-08)
(1.71856e-10 1.43987e-09 2.79066e-07)
(2.15118e-09 2.3578e-09 1.96381e-07)
(-4.28248e-09 -4.05414e-09 6.99232e-08)
(-1.37335e-09 2.86903e-09 1.82427e-07)
(1.07838e-09 9.21e-10 3.24163e-07)
(3.96468e-11 -1.15734e-09 2.30076e-07)
(1.40583e-09 3.32164e-09 1.27265e-07)
(-2.24699e-09 1.5844e-09 1.99156e-08)
(-5.64819e-10 1.46403e-09 2.37885e-07)
(9.69506e-10 6.43472e-09 3.44457e-07)
(-5.22508e-10 3.78876e-10 2.27209e-07)
(-9.71141e-10 -2.93852e-10 1.93239e-07)
(-3.88637e-09 9.31048e-10 6.25548e-08)
(1.09714e-09 -3.80715e-10 2.50902e-07)
(-4.06347e-09 2.61224e-10 2.74723e-08)
(-3.67701e-11 3.87256e-10 1.65821e-07)
(-2.43974e-08 1.23876e-09 2.08665e-07)
(6.136e-10 4.89239e-10 2.39638e-07)
(-6.04623e-10 3.318e-09 9.647e-08)
(-2.16005e-09 2.80635e-09 1.9141e-07)
(-4.91519e-10 1.66008e-09 1.21656e-07)
(2.79832e-09 -2.81469e-09 5.20572e-08)
(1.55636e-09 7.44697e-10 4.14122e-07)
(-1.07879e-09 3.17146e-10 1.93194e-07)
(-1.92432e-09 -7.16565e-10 1.97626e-08)
(1.27211e-09 -2.18843e-09 2.65304e-07)
(-1.04141e-09 -1.90122e-09 2.51928e-07)
(-6.03063e-10 2.28385e-09 4.25029e-08)
(2.95175e-09 4.9075e-09 1.37699e-07)
(-2.92131e-09 3.83898e-09 1.0648e-07)
(-7.0708e-10 1.3308e-09 1.84818e-07)
(4.18579e-10 -4.48145e-10 2.34478e-07)
(-1.25751e-09 1.35925e-09 3.57468e-08)
(3.12223e-09 -1.49583e-09 9.89055e-08)
(-5.7318e-10 1.99741e-09 1.09962e-07)
(1.75462e-09 1.18318e-09 1.81899e-07)
(4.83203e-10 -9.55848e-10 3.01988e-07)
(-3.02311e-09 -2.00054e-09 2.55824e-08)
(2.65771e-09 1.60615e-09 3.55485e-07)
(-1.89033e-09 -1.15825e-09 2.33318e-07)
(-8.751e-10 -1.48247e-09 2.47062e-07)
(-2.97352e-09 -6.11528e-09 1.14195e-07)
(2.14983e-09 8.99746e-10 3.16822e-07)
(1.34512e-09 -2.28914e-09 2.50675e-08)
(-1.38783e-09 -4.85869e-11 2.83429e-07)
(2.16942e-10 -5.12642e-10 3.04759e-08)
(8.69883e-10 -4.3729e-09 1.42602e-07)
(1.00248e-10 1.14697e-09 2.21814e-07)
(-2.4896e-09 3.6239e-09 1.48278e-07)
(-2.83002e-09 1.59951e-09 2.13732e-08)
(3.74405e-10 -1.90799e-09 5.59641e-08)
(6.35625e-10 4.83565e-09 8.30821e-08)
(1.66791e-09 -4.26473e-09 1.42921e-07)
(-1.53797e-09 5.37865e-10 3.24592e-07)
(-4.22675e-11 1.38694e-09 6.19405e-08)
(2.5949e-09 -4.94816e-09 1.46445e-07)
(-2.61766e-08 8.96812e-10 2.25383e-07)
(-1.20768e-09 -1.39752e-10 1.97428e-07)
(1.99983e-09 9.31736e-12 3.22162e-08)
(8.08814e-10 2.02974e-09 2.35979e-07)
(-1.50813e-08 -7.77006e-09 1.47719e-07)
(1.95838e-09 8.07303e-11 1.87783e-07)
(-1.81313e-09 1.68579e-09 1.07776e-07)
(-1.34687e-09 1.86321e-10 1.64201e-07)
(2.7691e-09 4.96074e-09 1.155e-07)
(-9.2334e-10 4.05385e-10 1.6407e-07)
(-8.18909e-10 -4.78546e-10 1.46967e-07)
(4.27704e-09 -6.58194e-09 7.91212e-08)
(1.90785e-10 3.7846e-10 2.73695e-07)
(-4.52573e-09 -1.41071e-09 7.18133e-08)
(2.37274e-09 -1.50608e-09 1.73169e-08)
(-1.14179e-09 2.22539e-10 3.11167e-07)
(1.19264e-10 -9.41674e-10 1.7147e-07)
(-1.86134e-09 9.15397e-10 2.99356e-07)
(1.46271e-09 -2.63478e-09 2.32671e-07)
(4.43827e-09 -5.72919e-10 4.23469e-07)
(3.71453e-09 -1.36066e-10 1.4828e-07)
(4.24972e-09 -5.48858e-10 3.85838e-07)
(2.40673e-09 4.99383e-09 1.05663e-07)
(-6.21283e-10 -4.83087e-10 1.40532e-07)
(4.38019e-09 1.35978e-09 3.12298e-07)
(-4.18734e-09 -2.68007e-09 3.56178e-08)
(-7.947e-10 1.15677e-09 2.9827e-07)
(2.45297e-09 -3.01972e-09 1.23441e-07)
(1.67878e-09 2.70197e-09 3.31305e-08)
(-7.83739e-10 3.44725e-10 2.77981e-07)
(-2.41436e-09 1.60451e-10 6.78197e-08)
(-2.68795e-10 8.94113e-10 2.0328e-07)
(6.61571e-10 8.6985e-10 1.99623e-07)
(-1.233e-09 3.17359e-09 3.77688e-07)
(1.38659e-10 6.55599e-09 1.02554e-07)
(2.4401e-09 -3.47527e-10 2.6721e-07)
(2.72889e-09 7.51232e-10 1.61168e-07)
(-6.96046e-10 1.04343e-09 2.8924e-07)
(3.64373e-10 3.62283e-10 2.94657e-07)
(1.58507e-09 1.13395e-09 2.60338e-07)
(2.64933e-10 -7.07738e-10 1.5305e-07)
(3.35276e-09 -1.31296e-09 5.26472e-08)
(6.92243e-10 4.45073e-10 7.54971e-08)
(-5.47465e-10 2.94813e-10 1.65551e-07)
(-1.11433e-09 -2.75102e-09 2.77148e-07)
(3.50624e-10 2.23062e-09 3.12639e-08)
(-7.19305e-11 -3.87566e-10 2.36325e-07)
(1.34295e-10 1.44875e-09 4.41882e-07)
(1.821e-09 2.48779e-09 3.27944e-07)
(2.14263e-09 2.75525e-09 3.47551e-07)
(-1.69442e-09 1.87657e-09 2.58345e-07)
(-1.74509e-09 2.35118e-09 2.23809e-08)
(7.44189e-10 4.8324e-10 2.1399e-07)
(1.59329e-09 -2.05841e-09 1.54182e-07)
(-7.52507e-10 -4.23412e-10 2.58025e-07)
(-1.30426e-10 -1.81814e-10 1.68142e-07)
(-2.4235e-09 -1.41968e-09 3.90665e-08)
(-9.87466e-10 4.9883e-10 1.91508e-07)
(-3.03481e-09 3.99655e-09 1.58987e-07)
(8.36005e-10 -3.76422e-10 2.49368e-07)
(1.49008e-09 2.04183e-09 2.48306e-07)
(-1.50621e-09 1.88011e-09 1.99148e-07)
(1.37896e-09 1.68456e-09 1.51617e-08)
(-2.31815e-09 9.96312e-10 2.22515e-08)
(-2.92995e-10 -1.28292e-09 1.7249e-07)
(2.32802e-10 -9.71297e-10 2.88283e-07)
(-4.24446e-10 2.07259e-09 2.10323e-07)
(-1.13004e-09 -1.68777e-10 1.77069e-07)
(-5.63632e-10 2.60727e-09 1.67949e-07)
(-4.74873e-10 2.04504e-09 2.52982e-07)
(2.09819e-10 5.32471e-10 2.69239e-07)
(7.8247e-10 1.71058e-09 2.151e-08)
(-2.4949e-10 -1.07673e-09 1.3646e-07)
(-1.77674e-08 1.43358e-09 1.73927e-07)
(-9.96115e-11 2.67449e-09 5.09502e-08)
(-5.72139e-10 5.84402e-09 9.08507e-08)
(2.00626e-11 2.47584e-09 3.08688e-07)
(2.63031e-09 -6.63895e-10 2.13712e-07)
(5.13953e-10 -1.01494e-09 1.98316e-07)
(1.49052e-09 -8.33202e-10 2.43908e-07)
(-4.19575e-09 2.88226e-09 1.46123e-07)
(-3.02951e-10 -4.30665e-10 3.06068e-07)
(1.91921e-09 -5.30496e-09 1.87698e-07)
(3.45939e-09 -1.43046e-09 4.04971e-07)
(2.11428e-10 -1.44529e-10 2.05977e-07)
(1.93732e-09 -9.17411e-10 2.20891e-07)
(2.11618e-09 -1.88296e-09 2.94233e-07)
(1.95964e-09 1.504e-09 5.23185e-08)
(4.36341e-09 -7.67661e-10 5.21035e-07)
(-3.78268e-10 -1.78436e-09 3.69363e-08)
(-1.66401e-08 -2.26403e-09 1.48974e-07)
(3.73798e-09 -2.875e-09 1.25511e-07)
(-1.61473e-08 -1.39283e-10 1.61431e-07)
(1.25093e-09 4.78852e-10 2.18268e-07)
(-4.75893e-08 1.30353e-09 2.9086e-07)
(2.20787e-10 1.78695e-10 1.30903e-07)
(-1.88939e-11 7.34911e-11 3.05379e-07)
(-6.88537e-10 5.43602e-10 3.31614e-07)
(1.18794e-09 9.08729e-10 2.00989e-07)
(-6.03092e-10 -1.10557e-10 3.87721e-08)
(-5.40531e-09 1.7553e-10 1.18484e-07)
(-3.00742e-08 2.10004e-09 2.10234e-07)
(-3.35003e-10 -4.73021e-11 2.00896e-07)
(-5.77532e-10 2.24602e-09 1.04982e-07)
(-2.06241e-08 1.53734e-09 2.17781e-07)
(-5.56758e-09 1.29858e-09 2.32459e-07)
(2.27072e-09 2.78594e-09 3.21729e-07)
(-1.74571e-09 -7.71538e-10 4.8263e-08)
(1.60273e-09 2.82334e-09 5.836e-08)
(-2.67619e-10 -2.37198e-10 2.97675e-08)
(1.27103e-09 1.13211e-09 2.19298e-08)
(-3.65616e-10 -1.7656e-12 4.82575e-08)
(-1.48299e-08 1.19528e-09 2.22383e-07)
(-9.71573e-10 -7.09708e-11 1.83453e-07)
(-1.98879e-09 -2.15868e-09 2.08396e-08)
(-2.9051e-09 7.17969e-10 2.29104e-08)
(6.74592e-10 1.04124e-09 3.23282e-07)
(-2.55705e-08 5.62574e-09 1.66255e-07)
(-2.3716e-09 6.8504e-11 5.12655e-08)
(-1.72338e-10 -3.19203e-10 2.26865e-07)
(-1.81131e-09 5.51004e-10 1.12308e-07)
(1.77169e-09 -3.41808e-10 2.06294e-07)
(1.56086e-09 2.29484e-09 4.85667e-08)
(-2.00972e-09 -2.66852e-09 9.99095e-08)
(5.26283e-10 1.85799e-09 2.00998e-07)
(3.65432e-10 4.20223e-10 2.555e-07)
(1.98473e-10 1.99755e-09 3.94447e-07)
(-2.33571e-09 3.15081e-09 4.74374e-08)
(-7.08303e-10 -2.39172e-09 2.68838e-08)
(-3.58606e-08 4.07274e-10 2.0163e-07)
(-3.25832e-09 2.28007e-09 3.06523e-08)
(-2.13867e-10 3.72776e-09 3.14709e-07)
(-4.12549e-09 -1.29196e-09 3.21073e-08)
(9.03125e-10 3.32004e-09 1.56038e-07)
(-9.95273e-10 -3.26588e-10 2.86147e-07)
(2.62109e-09 1.44452e-09 4.08106e-07)
(-6.59502e-10 -1.50943e-09 6.50233e-08)
(1.24486e-09 -8.57977e-10 1.46551e-07)
(-2.22755e-09 -4.48058e-10 4.24341e-08)
(-3.95563e-09 -1.99112e-10 3.16378e-08)
(6.36744e-10 -1.06633e-09 2.43714e-07)
(-2.25637e-09 1.09393e-09 1.6444e-08)
(1.65829e-09 -4.42342e-10 1.71468e-07)
(-6.99032e-10 -3.2134e-09 6.70782e-08)
(-3.12494e-10 1.56257e-09 3.19286e-07)
(-1.38141e-10 3.25309e-10 2.27937e-07)
(3.12538e-09 1.2917e-09 2.11983e-08)
(-2.1815e-09 -6.53534e-09 1.46283e-07)
(2.53808e-10 9.57556e-10 2.45229e-07)
(-4.4603e-11 1.54714e-09 3.42831e-08)
(8.48801e-10 -1.49605e-09 2.7676e-07)
(-1.9854e-09 5.85879e-09 8.6446e-08)
(5.74353e-10 1.31134e-10 2.2591e-07)
(7.97698e-10 1.11526e-09 2.1022e-07)
(2.27205e-09 1.74474e-10 6.07945e-08)
(-3.13283e-09 -6.49137e-10 2.32827e-08)
(-1.95423e-09 -5.46122e-10 1.01587e-07)
(-3.91801e-08 1.53841e-10 2.43598e-07)
(-1.18292e-09 1.30974e-10 2.38591e-07)
(3.68087e-10 5.36201e-09 8.38063e-08)
(3.32731e-09 -3.52315e-10 1.9679e-07)
(4.40632e-10 1.19388e-09 2.71279e-08)
(9.33876e-10 8.87284e-10 1.85976e-07)
(1.13014e-09 1.37407e-09 2.5284e-08)
(-7.86439e-10 2.79364e-09 3.21103e-07)
(1.16227e-09 1.14705e-09 3.03702e-07)
(5.15441e-10 4.11334e-10 2.09662e-07)
(-1.60544e-09 -2.19886e-10 1.58718e-08)
(2.35544e-09 1.30204e-09 3.4006e-07)
(-4.25553e-10 8.89922e-10 1.66275e-07)
(5.69754e-10 1.441e-09 3.49712e-07)
(6.2087e-11 4.38479e-10 6.82357e-08)
(-3.0173e-08 8.50934e-10 2.22489e-07)
(-2.06182e-09 1.78483e-09 2.57348e-07)
(1.29596e-09 2.70926e-10 7.26739e-08)
(2.46727e-11 8.50212e-10 2.31532e-07)
(-3.9458e-08 4.57926e-09 2.1003e-07)
(-8.4197e-10 -5.61076e-10 1.86906e-07)
(-7.66929e-10 -1.90644e-09 3.57803e-08)
(-2.40873e-09 4.87999e-09 1.1152e-07)
(1.33676e-11 1.00271e-10 1.76254e-07)
(5.90143e-10 -2.16286e-09 2.21577e-07)
(-1.07055e-09 1.23447e-09 3.53899e-08)
(-3.88094e-10 -3.53553e-09 2.26771e-07)
(4.89974e-09 3.39542e-09 1.69816e-07)
(-1.91566e-09 2.09211e-09 2.74724e-08)
(-2.21198e-10 -1.24396e-10 1.89115e-07)
(-1.55836e-08 7.25613e-10 1.583e-07)
(-2.45674e-09 -5.81623e-09 3.34338e-07)
(6.92093e-11 1.74884e-10 1.89242e-07)
(5.88938e-10 1.49233e-10 1.70216e-07)
(1.18226e-09 -4.36122e-10 2.93282e-07)
(1.41304e-09 8.59474e-10 2.60258e-07)
(2.07004e-09 6.34457e-10 7.73629e-08)
(-1.02374e-09 5.14761e-09 7.82839e-08)
(3.14391e-09 3.39399e-10 3.51615e-07)
(-2.6893e-08 -1.11597e-09 2.2474e-07)
(4.93262e-10 2.50811e-09 2.16146e-07)
(1.67524e-09 -1.0061e-09 1.94154e-07)
(2.95616e-09 -1.12691e-09 1.35228e-07)
(-2.32199e-10 1.24883e-09 3.19261e-07)
(-2.89146e-10 8.41642e-10 1.95056e-07)
(-2.08926e-09 -1.65275e-09 1.90241e-07)
(-2.83588e-09 3.21453e-09 2.37833e-07)
(-1.25951e-09 2.59796e-09 4.67839e-08)
(-1.8224e-09 -9.60216e-10 1.82068e-07)
(-2.78865e-09 -2.02273e-09 4.34272e-08)
(3.39408e-10 -2.01217e-09 3.07572e-07)
(-1.83289e-10 -7.23637e-10 3.04288e-07)
(-4.34265e-10 5.11139e-09 1.76728e-07)
(3.63856e-10 -1.61745e-09 1.68881e-07)
(1.15922e-09 -1.75203e-09 1.95047e-08)
(1.31652e-10 -8.87965e-10 1.11816e-07)
(-4.13155e-09 -1.90167e-09 8.20558e-08)
(-1.29947e-09 9.52801e-10 2.4564e-07)
(1.57755e-09 5.64855e-10 2.19786e-07)
(-2.38642e-08 -1.51536e-09 2.20535e-07)
(-2.44998e-09 6.46384e-10 2.98403e-07)
(-1.46411e-09 2.82903e-09 8.73818e-08)
(-1.12052e-08 5.05488e-10 1.36568e-07)
(-2.56488e-10 -4.15136e-09 2.49056e-07)
(2.15462e-09 9.37913e-10 3.0603e-08)
(1.14227e-09 5.32e-10 2.25601e-07)
(-2.64601e-10 1.67027e-09 5.81368e-08)
(-1.7318e-09 -6.6223e-10 2.05846e-07)
(4.46608e-09 -2.30114e-09 3.54735e-08)
(2.73731e-09 5.58251e-10 3.36693e-07)