/*--------------------------------*- C++ -*----------------------------------*\
| =========                 |                                                 |
| \\      /  F ield         | OpenFOAM: The Open Source CFD Toolbox           |
|  \\    /   O peration     | Version:  2406                                  |
|   \\  /    A nd           | Website:  www.openfoam.com                      |
|    \\/     M anipulation  |                                                 |
\*---------------------------------------------------------------------------*/
FoamFile
{
    version     2.0;
    format      ascii;
    arch        "LSB;label=32;scalar=64";
    class       volVectorField;
    location    "32";
    object      momentum:momentum;
}
// * * * * * * * * * * * * * * * * * * * * * * * * * * * * * * * * * * * * * //

dimensions      [1 1 -1 0 0 0 0];

internalField   nonuniform List<vector> 
59516
(
(2.35288e-07 8.34529e-10 -1.13273e-09)
(1.75568e-07 -3.16101e-10 -7.55691e-10)
(2.124e-07 -2.30898e-09 -3.95978e-10)
(1.75969e-07 2.67205e-09 2.40878e-09)
(2.00398e-07 4.59971e-10 -7.85518e-09)
(5.03665e-08 -2.40882e-09 -5.37912e-09)
(2.16117e-07 2.00978e-10 -2.57434e-09)
(2.07429e-07 2.05416e-09 2.06553e-10)
(1.63078e-07 1.21441e-09 4.02047e-10)
(8.71482e-08 -1.37905e-09 3.36938e-09)
(2.03874e-07 3.55944e-10 -1.92919e-09)
(1.06951e-07 1.15265e-09 -5.69148e-09)
(3.36155e-07 2.60369e-09 -4.62397e-10)
(1.73221e-08 -7.00341e-11 -2.01717e-10)
(1.66063e-07 3.9574e-09 8.16121e-09)
(9.12379e-08 6.11094e-09 -3.02592e-09)
(2.55269e-07 8.88647e-10 -2.89792e-10)
(1.6129e-07 8.84935e-09 -9.23023e-09)
(3.34298e-07 1.33592e-08 3.01425e-09)
(3.56039e-07 -8.62791e-10 1.13025e-09)
(1.03206e-07 1.00992e-09 -1.70843e-09)
(3.17388e-07 -8.31433e-11 1.04419e-09)
(3.47995e-07 1.62335e-09 -5.52828e-10)
(3.82473e-08 -1.18782e-09 -2.36663e-10)
(3.04297e-07 -1.2042e-09 2.42425e-09)
(2.16174e-07 4.37748e-09 2.3937e-09)
(5.71501e-08 1.14857e-09 -3.63411e-09)
(7.58153e-08 5.97006e-09 6.14275e-10)
(1.49856e-07 4.56371e-09 -6.28929e-11)
(1.51447e-08 -2.33305e-09 6.48965e-10)
(1.89443e-07 -3.66658e-08 -8.04647e-09)
(8.55483e-08 6.24582e-09 -1.05371e-09)
(1.76713e-07 -5.29163e-11 1.30869e-09)
(1.80895e-07 -8.75738e-10 3.69378e-09)
(1.32665e-07 3.00108e-09 2.56513e-09)
(3.99247e-07 -9.11428e-10 -1.79984e-10)
(1.44871e-08 -1.40082e-09 -2.00268e-09)
(1.32743e-07 5.07554e-09 -1.23584e-08)
(2.74929e-07 -8.04353e-09 -2.76205e-10)
(2.71673e-07 -3.06418e-09 1.79081e-10)
(2.70587e-07 -2.05332e-09 1.98663e-11)
(4.05346e-07 -1.99252e-08 -1.85347e-08)
(3.41686e-07 -3.53473e-09 -2.47874e-09)
(1.16706e-07 -8.50798e-10 3.42175e-10)
(2.67089e-07 -3.84255e-09 5.97557e-10)
(1.10133e-07 -1.50978e-09 -2.64139e-09)
(3.27899e-07 -3.62768e-09 -6.21786e-09)
(2.46321e-07 -2.87758e-09 -2.96433e-10)
(2.51775e-07 -2.02523e-08 2.79893e-08)
(2.36516e-07 7.33428e-09 6.46612e-09)
(1.63888e-07 1.64997e-08 -2.28799e-08)
(8.36732e-08 -6.51088e-09 4.29038e-09)
(3.26873e-07 2.56623e-09 -5.07477e-09)
(3.09989e-07 -6.82277e-10 -3.9252e-10)
(8.60984e-08 4.5806e-09 3.56941e-11)
(2.48671e-07 1.71062e-09 -6.95777e-10)
(2.01009e-07 1.02054e-08 1.09168e-08)
(8.64536e-08 6.89913e-09 -4.69995e-09)
(1.92902e-07 -5.96384e-10 1.04309e-10)
(1.45211e-07 5.58679e-09 7.13842e-09)
(2.05886e-07 -8.36805e-11 5.93023e-10)
(1.70619e-08 2.0318e-09 -7.23835e-10)
(2.47855e-07 1.34201e-10 -8.92903e-10)
(3.23405e-07 1.68784e-09 -9.48129e-11)
(3.05844e-07 9.18151e-10 -1.31941e-09)
(2.1164e-07 3.24136e-09 4.00831e-09)
(2.0414e-08 -1.37975e-09 1.84004e-09)
(7.25565e-08 2.23783e-10 -2.63746e-10)
(1.98051e-07 -8.15749e-09 3.61258e-08)
(1.707e-07 1.52825e-09 -6.1377e-10)
(5.79506e-08 1.62466e-09 4.927e-10)
(1.50306e-07 5.16889e-10 -6.6161e-11)
(2.56675e-08 1.60342e-09 -3.9279e-09)
(1.85475e-07 -5.93651e-10 -8.76157e-11)
(3.42199e-07 -1.30256e-09 5.5227e-10)
(3.53497e-07 -3.20481e-10 -9.08408e-10)
(2.07566e-07 -3.37925e-10 -1.22701e-09)
(2.22429e-07 1.304e-10 -7.69185e-10)
(9.32651e-08 -3.15668e-09 2.70112e-09)
(1.88812e-07 3.12008e-09 6.57435e-09)
(5.61611e-08 3.34442e-09 1.40553e-09)
(1.68566e-07 3.31723e-09 4.37462e-09)
(1.81605e-07 1.93402e-09 4.71116e-09)
(2.0287e-08 -8.04467e-10 2.76193e-09)
(2.11916e-07 3.57227e-09 5.81632e-09)
(3.50798e-07 -8.77382e-10 6.20813e-10)
(3.46813e-08 -1.21397e-09 5.71416e-10)
(5.00222e-07 9.84528e-10 2.31304e-09)
(1.18861e-07 1.27501e-09 5.4709e-09)
(1.67742e-07 1.25723e-08 -8.36178e-09)
(1.8305e-07 -9.80013e-10 -1.49883e-08)
(1.86371e-07 2.35753e-09 -6.53152e-11)
(2.40822e-07 -2.41984e-10 8.04006e-11)
(1.81037e-07 1.34845e-09 -2.40428e-10)
(1.72036e-07 1.1239e-10 1.62089e-10)
(1.83488e-07 -1.75843e-08 6.75068e-09)
(1.24148e-07 -7.30323e-10 9.10547e-10)
(9.22295e-08 -2.69449e-09 -6.91937e-09)
(1.18335e-07 3.75437e-09 -1.21358e-09)
(2.0486e-07 -1.03142e-09 1.90885e-09)
(6.7543e-08 1.17e-09 2.43732e-09)
(2.94238e-08 1.35109e-09 -3.36171e-09)
(2.61257e-08 9.11247e-10 3.5882e-09)
(9.28108e-08 -1.28861e-09 -4.73995e-09)
(2.35937e-07 1.12536e-09 -4.09069e-10)
(1.58573e-07 2.30652e-10 6.31188e-10)
(6.1429e-08 5.15523e-09 -2.22458e-09)
(1.44673e-07 3.90302e-10 -8.14539e-10)
(1.84347e-07 -1.27594e-09 -6.77656e-12)
(2.04597e-07 1.21308e-09 -8.10441e-09)
(2.80102e-07 2.83883e-08 -2.96579e-08)
(4.7745e-08 4.809e-09 -5.91091e-10)
(2.02573e-07 2.32152e-09 -1.18348e-08)
(2.1932e-07 3.17171e-08 -1.59502e-08)
(2.13428e-07 -2.14283e-10 -8.16577e-14)
(1.4549e-07 1.52783e-09 1.42644e-09)
(1.36352e-07 1.24628e-09 -5.31906e-09)
(1.45638e-07 3.60238e-10 9.04111e-10)
(2.04224e-08 -2.62393e-10 1.0032e-09)
(2.58661e-07 2.73533e-09 7.47841e-10)
(3.68868e-07 -7.01323e-10 4.64066e-10)
(1.65337e-07 4.5955e-10 2.30887e-10)
(1.55594e-07 -2.7156e-10 3.37113e-10)
(1.71555e-07 -1.1354e-10 4.88674e-10)
(1.32825e-07 -1.70168e-08 2.85349e-09)
(1.46924e-07 1.61052e-09 -3.56095e-09)
(3.98025e-08 -6.17666e-10 2.56624e-09)
(2.1183e-07 -1.87226e-08 -1.02801e-09)
(1.63286e-07 -5.00121e-09 2.37781e-08)
(1.45377e-07 5.47016e-10 2.29063e-10)
(2.55149e-07 8.02591e-10 1.50331e-09)
(3.38084e-07 4.36053e-09 5.25146e-09)
(2.52378e-08 1.4468e-09 -1.71149e-09)
(2.54519e-07 -4.34461e-11 1.15009e-09)
(3.32627e-07 2.86408e-09 1.023e-09)
(2.06144e-07 -1.67747e-09 -2.8922e-09)
(1.52166e-07 1.76553e-08 -1.24424e-08)
(3.2238e-07 -5.65135e-10 1.66584e-09)
(5.71629e-08 3.7228e-09 1.42421e-10)
(1.67569e-07 8.25292e-10 -2.11459e-09)
(8.34458e-08 -1.64621e-09 -4.10417e-09)
(2.97478e-07 -1.68007e-10 2.40396e-10)
(1.53944e-08 7.23358e-10 1.35221e-09)
(1.54206e-07 -1.59345e-09 -4.5074e-10)
(1.98386e-07 4.84191e-10 5.45866e-11)
(2.82372e-07 2.82136e-09 -2.21237e-10)
(2.04247e-07 -3.98644e-09 -7.5939e-10)
(2.12195e-07 9.22216e-10 -3.44119e-09)
(6.40551e-08 -1.04021e-09 1.78709e-09)
(2.16204e-07 -1.61453e-09 -1.57797e-09)
(3.36203e-07 -2.70418e-10 -2.5989e-09)
(5.829e-08 -2.02419e-09 8.64059e-11)
(3.68499e-07 -1.56993e-09 2.70652e-09)
(2.14035e-07 -6.60005e-10 1.15804e-09)
(1.68998e-07 -9.73779e-10 3.28146e-09)
(1.64197e-08 -3.62423e-10 1.76718e-09)
(2.89764e-07 5.37675e-10 -1.32026e-10)
(3.44195e-07 3.0329e-09 -7.21634e-10)
(1.37342e-07 1.89026e-09 1.04911e-10)
(1.77708e-08 2.1324e-09 -2.29474e-09)
(9.58584e-08 2.11587e-09 -4.68879e-09)
(1.20347e-07 -6.03349e-09 -3.9803e-09)
(4.41219e-08 -1.79492e-09 4.76003e-10)
(2.51599e-08 -2.15254e-10 -4.78705e-10)
(1.72382e-07 2.82084e-09 3.89695e-09)
(3.07457e-07 5.65037e-10 2.00892e-09)
(1.65994e-07 -1.62753e-09 6.90471e-10)
(2.57889e-07 7.4314e-10 -1.92968e-10)
(1.91482e-08 -1.13699e-09 2.19808e-09)
(2.12136e-07 -6.05693e-10 3.20717e-10)
(9.24872e-08 1.37335e-09 1.26868e-09)
(7.29733e-08 9.9568e-10 -1.05408e-09)
(1.14918e-07 2.67075e-09 1.67867e-09)
(1.52474e-07 -8.87125e-10 8.43934e-10)
(9.29858e-08 -1.60775e-09 6.11337e-10)
(4.56117e-07 -1.60574e-09 -1.09318e-08)
(2.32856e-07 8.81802e-11 -1.37219e-09)
(3.0883e-07 -6.35747e-09 -3.5598e-09)
(1.59861e-07 -2.09435e-09 7.39852e-09)
(6.88459e-08 -3.02285e-10 -9.37355e-10)
(3.05215e-07 3.33669e-09 2.09233e-09)
(4.6886e-08 -3.94331e-09 -1.77906e-09)
(3.3013e-08 -4.0022e-10 -2.64116e-09)
(1.13327e-07 -3.12097e-09 3.44524e-10)
(1.87757e-07 -2.30905e-10 8.59331e-10)
(1.03866e-07 5.77279e-10 1.1633e-09)
(5.02734e-08 -9.36381e-10 -3.84323e-09)
(2.23434e-08 7.90507e-11 2.61538e-10)
(1.96728e-07 1.27022e-10 2.97332e-10)
(2.37925e-07 -4.00967e-09 -2.26357e-10)
(1.58231e-07 -1.0023e-09 3.14597e-09)
(1.24756e-07 7.44324e-09 2.41516e-10)
(2.06045e-07 -6.33457e-10 -2.21689e-10)
(1.02681e-07 4.34416e-09 3.9412e-11)
(3.34204e-07 -9.71227e-10 -3.45569e-10)
(3.11912e-08 -2.46145e-10 8.38771e-10)
(1.05298e-07 1.28999e-09 -4.43507e-10)
(6.20914e-08 -1.59214e-09 4.90115e-10)
(1.93803e-07 4.63685e-09 6.24154e-09)
(2.59467e-07 8.44409e-10 -3.71838e-11)
(8.20676e-08 -2.72375e-09 4.15826e-10)
(1.74009e-07 -3.28314e-10 8.59597e-11)
(3.29863e-07 -1.7273e-09 2.99046e-09)
(1.77312e-08 1.88385e-09 -1.22476e-09)
(2.27169e-07 -2.67249e-09 -9.13037e-10)
(2.37066e-07 -1.67621e-10 2.36958e-10)
(3.18866e-07 -3.26872e-10 -4.48736e-11)
(1.90992e-07 -6.46323e-10 5.0701e-11)
(1.98755e-08 -5.60854e-10 1.77553e-10)
(3.14609e-07 -4.87641e-09 -1.82664e-10)
(6.51674e-08 4.60387e-09 3.85993e-09)
(2.60223e-08 -4.15602e-09 -6.59367e-10)
(2.3295e-07 7.38843e-10 -2.19614e-09)
(1.03421e-07 -1.77069e-09 1.2944e-09)
(3.05862e-07 2.87085e-09 5.08131e-10)
(2.72283e-07 -9.99202e-10 7.39799e-10)
(2.72629e-07 1.717e-09 3.02645e-10)
(2.0349e-07 -1.31684e-09 5.69989e-10)
(9.02054e-08 3.57927e-09 -4.57949e-09)
(2.14777e-07 -6.89028e-10 9.2725e-10)
(1.30089e-07 5.1537e-09 3.75438e-09)
(2.02415e-07 1.25787e-09 -1.71844e-10)
(1.7042e-07 8.21258e-10 1.21518e-09)
(8.29151e-08 -3.61273e-10 1.57611e-09)
(2.78231e-07 -2.13727e-09 8.21184e-10)
(2.90651e-07 1.10385e-10 -1.40917e-09)
(3.4637e-08 -3.27258e-10 1.77085e-09)
(7.14101e-08 2.23637e-09 -3.27733e-09)
(1.87278e-07 -4.4864e-11 1.20734e-09)
(1.27062e-07 2.64986e-10 -9.01415e-09)
(2.28749e-07 -1.09067e-09 6.48389e-10)
(1.68237e-07 5.1721e-10 -4.84293e-10)
(2.89063e-07 8.29526e-10 1.96681e-09)
(2.94335e-08 -2.29934e-09 -1.59927e-09)
(3.40261e-08 8.5452e-10 -1.5889e-09)
(4.31674e-08 9.6827e-10 -1.43702e-09)
(1.17929e-07 5.89367e-10 1.10445e-09)
(1.83491e-07 -2.55508e-09 1.16638e-09)
(4.05809e-07 1.95932e-09 3.19038e-09)
(9.24352e-08 -1.90643e-09 2.12419e-09)
(2.27251e-07 1.87226e-11 1.24077e-09)
(2.07367e-08 3.45039e-10 3.02758e-09)
(1.178e-07 1.54818e-10 2.01333e-09)
(2.98686e-08 2.31266e-10 3.25689e-09)
(1.50212e-07 6.61222e-10 3.33288e-10)
(1.62653e-07 -7.62787e-10 -9.02065e-10)
(1.94335e-07 1.10565e-10 9.03961e-10)
(2.00045e-07 1.6035e-09 -4.15222e-09)
(2.64966e-07 -2.44047e-10 9.67592e-10)
(2.08927e-07 4.03186e-10 5.94761e-10)
(3.66782e-07 -3.81687e-09 1.45216e-09)
(2.12764e-07 2.71653e-10 1.0068e-09)
(1.7419e-07 2.91014e-10 9.25307e-10)
(2.7889e-07 4.17218e-10 -5.77784e-10)
(2.79372e-07 2.37306e-09 1.15532e-09)
(2.91371e-07 6.41091e-10 8.96765e-10)
(1.1972e-07 3.76378e-10 -4.1368e-10)
(2.77204e-07 9.49318e-10 2.14564e-09)
(8.81231e-08 -5.90728e-10 -4.72811e-09)
(1.05315e-07 6.64586e-10 3.68036e-09)
(2.22827e-07 1.60243e-09 -1.34831e-09)
(2.51691e-07 -1.24479e-09 1.61926e-09)
(2.48011e-07 5.02741e-09 3.21523e-09)
(2.65129e-07 -6.89585e-10 1.53022e-09)
(7.84773e-08 -2.04813e-10 1.71481e-09)
(1.14841e-07 4.86797e-09 -2.86131e-09)
(2.94753e-07 1.58685e-10 -1.34765e-09)
(2.26174e-07 4.15566e-09 1.41194e-09)
(6.69862e-08 -1.11425e-09 -8.19767e-10)
(8.01781e-08 1.42779e-11 -2.07055e-09)
(1.71805e-07 4.13129e-10 -4.31824e-09)
(1.7412e-07 -8.18238e-10 -2.94433e-10)
(3.23274e-07 -6.98113e-09 3.36567e-10)
(1.57981e-07 -1.91615e-09 1.2409e-09)
(3.19662e-07 -2.73294e-09 6.18463e-10)
(2.01518e-07 -1.13563e-09 5.82264e-09)
(2.15491e-08 2.46808e-09 -1.44686e-09)
(2.88438e-07 -6.62623e-10 2.22946e-09)
(3.1727e-08 1.98085e-09 -2.54666e-09)
(5.65202e-08 -2.30694e-09 1.48428e-09)
(3.21029e-07 1.70827e-10 2.16968e-09)
(2.51614e-07 -1.01891e-09 -2.5227e-10)
(3.02281e-08 3.30705e-09 3.22287e-09)
(3.08205e-07 2.35941e-09 8.19776e-10)
(2.55225e-07 4.406e-09 2.79662e-10)
(2.37436e-07 1.15589e-09 1.66891e-10)
(2.96174e-07 -9.59667e-10 1.36589e-10)
(2.55893e-08 2.96921e-09 6.33738e-10)
(2.55235e-07 -4.79657e-10 1.39211e-09)
(1.33619e-07 -1.22264e-09 9.76913e-11)
(1.48137e-07 -1.1188e-10 1.01662e-09)
(2.54716e-07 -2.97524e-10 1.79632e-09)
(1.68957e-07 1.72606e-09 1.43288e-09)
(1.85078e-07 8.18877e-10 -8.79024e-10)
(2.52746e-07 1.71667e-09 3.30721e-10)
(4.19688e-08 -1.47596e-09 -1.90523e-09)
(2.69941e-07 -3.09137e-09 8.91279e-10)
(1.92313e-07 -1.52558e-09 -8.21357e-10)
(3.27569e-07 -2.24111e-09 1.42689e-09)
(2.48984e-07 -1.88756e-09 6.87949e-10)
(3.18261e-07 -2.32081e-09 1.48563e-09)
(1.45703e-07 2.64655e-09 3.21019e-09)
(2.14675e-08 -3.32169e-10 1.49899e-09)
(3.90169e-08 -8.94375e-10 6.3515e-10)
(4.97389e-07 -4.77986e-09 -1.02557e-09)
(2.00118e-08 -1.10431e-09 2.90819e-09)
(1.83799e-07 -8.14676e-10 -2.94701e-09)
(7.84563e-08 4.09423e-09 1.80203e-09)
(2.98039e-07 -1.3299e-09 1.38171e-09)
(3.49932e-07 1.44251e-10 -1.28515e-09)
(3.08687e-07 -5.06053e-10 -4.97524e-10)
(1.31066e-07 -6.94402e-10 -2.65988e-09)
(3.05696e-07 3.7967e-09 -5.54667e-09)
(7.32891e-08 -5.90138e-09 4.99501e-09)
(9.12474e-08 1.61397e-09 2.52369e-09)
(1.90744e-07 -5.70071e-10 1.14674e-10)
(1.63995e-07 2.10296e-09 -1.32822e-09)
(2.69453e-07 3.10625e-08 8.89801e-09)
(1.99998e-07 -4.29821e-09 2.13756e-09)
(6.9132e-08 -4.03144e-10 -8.30832e-10)
(1.09276e-07 -1.53013e-09 3.04026e-09)
(2.1444e-07 -1.02003e-09 -3.0448e-09)
(1.99257e-07 -2.86448e-11 -8.06551e-11)
(3.83096e-07 5.82922e-10 9.72112e-10)
(2.0325e-07 -2.17132e-10 1.48685e-09)
(4.73229e-07 -4.39152e-09 8.66001e-10)
(1.6847e-07 5.27929e-09 7.34179e-09)
(3.42214e-07 3.17333e-09 1.50633e-09)
(2.59556e-07 3.03321e-09 6.22515e-10)
(1.89781e-07 -1.62923e-10 5.47351e-11)
(3.23127e-07 -6.67336e-10 1.89126e-09)
(1.10765e-07 2.43221e-09 -5.8535e-09)
(2.52268e-08 -1.4746e-09 -3.02258e-09)
(2.8913e-07 -9.82483e-10 7.59751e-10)
(6.33185e-08 -2.84849e-09 3.39634e-09)
(3.09889e-08 1.76818e-10 1.20717e-10)
(3.76042e-07 8.57251e-10 3.30503e-09)
(1.98997e-07 -9.68202e-10 6.73739e-10)
(1.09316e-07 -2.82395e-09 -4.63253e-09)
(2.35486e-07 -1.46493e-09 9.04618e-10)
(3.12822e-07 -2.92839e-09 6.17616e-10)
(3.83409e-07 -1.70665e-09 -1.46906e-09)
(2.48906e-07 -3.11893e-10 -6.52591e-10)
(3.34211e-08 1.56376e-09 6.36906e-13)
(3.0782e-07 5.79121e-10 -5.28403e-10)
(1.99691e-07 -1.3892e-09 1.03792e-09)
(1.05175e-07 -5.64199e-11 1.28726e-09)
(2.66505e-07 -4.34758e-10 2.32629e-09)
(2.31404e-07 -1.81886e-10 5.58372e-10)
(1.76037e-07 3.09803e-11 -1.21946e-09)
(2.0304e-07 6.29709e-12 -1.26079e-09)
(2.68129e-07 -1.11532e-09 1.83055e-09)
(2.00254e-07 -1.736e-09 7.72885e-10)
(8.19929e-08 -3.59397e-10 -1.77917e-10)
(2.15762e-08 8.90764e-10 -7.13333e-10)
(4.18442e-08 -2.85392e-09 -2.36704e-10)
(2.30477e-07 1.0149e-09 7.59406e-10)
(2.6848e-07 -2.06109e-08 3.2575e-08)
(1.15924e-07 -6.50913e-09 -9.37833e-09)
(1.17811e-07 4.763e-10 4.32697e-10)
(2.54515e-07 2.21744e-10 3.84624e-09)
(3.12057e-07 4.35573e-10 1.01979e-09)
(2.23783e-07 -4.55439e-10 4.17007e-09)
(3.53253e-07 7.50084e-10 1.57828e-09)
(3.42233e-07 -1.29053e-09 8.58554e-11)
(2.19832e-07 7.88807e-10 7.8684e-10)
(1.35403e-07 1.14587e-09 4.06296e-10)
(2.59247e-08 -7.27771e-10 -2.60857e-10)
(2.40969e-07 -4.72979e-08 5.91964e-09)
(9.31176e-08 2.58997e-09 9.02519e-10)
(6.85906e-08 -3.23147e-09 -6.8773e-10)
(7.2532e-08 1.383e-09 4.8904e-10)
(1.66257e-07 1.29442e-10 -7.42811e-11)
(1.81463e-07 -5.98139e-10 1.64497e-10)
(2.28502e-07 7.38466e-10 -9.2252e-10)
(1.85156e-08 1.03513e-09 -1.52797e-09)
(1.72748e-07 -4.98544e-10 1.63419e-10)
(6.98895e-08 1.62546e-09 -1.33553e-09)
(1.77224e-07 -8.90365e-10 -5.9628e-11)
(5.96578e-08 -6.69847e-10 -5.49461e-10)
(1.5656e-07 -3.53768e-09 3.07365e-09)
(2.29046e-07 -5.00816e-09 1.65943e-09)
(1.81769e-07 -3.96752e-10 1.61344e-09)
(2.0683e-08 1.74295e-09 -2.19397e-09)
(1.19775e-07 -1.16303e-09 5.30833e-09)
(2.40576e-07 1.50829e-10 1.08388e-09)
(2.73311e-08 -1.71015e-09 -2.06699e-09)
(2.89348e-07 2.72733e-09 1.71278e-08)
(1.87346e-07 -9.64329e-10 3.76677e-09)
(3.06835e-07 2.72372e-10 -4.3635e-09)
(2.087e-07 4.58679e-09 -5.56253e-09)
(9.79587e-08 -8.46456e-10 1.89765e-09)
(3.81631e-07 3.17625e-09 -3.91039e-10)
(1.4242e-07 -1.4228e-08 -1.30854e-08)
(2.9904e-07 2.55705e-09 7.12897e-10)
(1.55555e-07 1.15869e-08 1.23722e-08)
(1.51186e-07 -6.41517e-09 7.99845e-10)
(1.51644e-07 -8.55842e-10 -3.65025e-09)
(2.50183e-07 1.62424e-09 3.40344e-10)
(5.00932e-07 4.39141e-09 1.27726e-09)
(8.62221e-08 -8.07403e-10 9.22122e-10)
(3.45036e-07 1.79136e-09 -1.36676e-09)
(1.2565e-07 -7.40137e-10 -2.76928e-09)
(3.9865e-07 -1.37363e-09 1.74623e-09)
(3.04251e-07 -6.85718e-10 1.98587e-09)
(7.51785e-08 2.16233e-09 -5.57053e-09)
(2.20157e-07 -1.31437e-09 -9.51819e-11)
(3.7998e-07 -4.09057e-09 3.57686e-09)
(2.26699e-07 5.72302e-10 -2.44884e-11)
(2.17228e-07 4.39376e-10 6.57579e-10)
(2.55571e-08 -9.16717e-10 -3.29059e-09)
(2.14172e-08 1.1506e-09 -2.66309e-09)
(2.9739e-07 2.08111e-09 -3.47597e-09)
(2.62446e-07 2.43306e-10 -1.70235e-10)
(2.00946e-07 -1.69454e-09 -9.39933e-10)
(3.9119e-08 4.16582e-10 -2.73267e-09)
(8.30811e-08 -5.68937e-10 3.10783e-10)
(3.15311e-07 -2.75739e-09 -7.77441e-10)
(1.52769e-07 3.34011e-10 9.2286e-10)
(2.87811e-07 2.35437e-09 4.35202e-10)
(2.59897e-07 1.19663e-09 -2.17072e-10)
(2.04043e-07 1.54208e-09 8.47664e-10)
(2.18732e-07 2.32902e-09 9.82828e-10)
(1.29494e-07 7.85744e-10 5.44349e-10)
(1.94958e-07 1.9391e-09 1.62501e-10)
(9.4666e-08 -1.95366e-09 -4.81151e-09)
(2.72272e-07 -7.85062e-11 -5.10166e-10)
(1.9771e-07 -4.83582e-10 -2.1464e-09)
(2.08167e-07 1.6847e-09 8.05583e-10)
(2.03643e-07 5.44788e-10 -3.34681e-10)
(3.47912e-07 -1.51294e-10 1.7116e-11)
(2.63453e-07 1.68561e-09 -1.09503e-09)
(7.40143e-08 4.174e-09 3.89702e-09)
(4.85985e-08 1.07961e-09 2.95835e-10)
(2.16211e-08 1.80635e-09 -2.14837e-09)
(2.26592e-07 5.04798e-09 8.7463e-09)
(2.65667e-07 1.52546e-10 4.30797e-11)
(2.69803e-07 -1.42531e-09 1.08727e-09)
(1.9762e-07 2.28531e-09 8.23295e-10)
(3.23555e-08 -8.4356e-11 1.1281e-09)
(2.47423e-08 -4.8964e-10 2.8487e-09)
(1.87668e-07 -4.80396e-10 2.8166e-09)
(2.24808e-07 -4.56876e-10 1.99935e-09)
(2.86535e-07 -1.77307e-10 1.24011e-09)
(3.14949e-07 1.67874e-09 -2.7287e-10)
(2.02235e-07 -9.84481e-10 -1.63996e-09)
(3.06936e-07 1.79274e-09 -2.30997e-10)
(3.81045e-07 2.7808e-09 1.39946e-09)
(3.47577e-08 -8.32776e-10 3.26284e-09)
(1.87518e-07 -6.8611e-10 4.18879e-10)
(7.90546e-08 8.26807e-10 3.92519e-09)
(9.76778e-08 -9.69522e-09 2.08457e-09)
(1.24198e-07 2.11099e-10 -2.01543e-10)
(1.50741e-07 4.68174e-10 3.29941e-10)
(2.50097e-07 4.85659e-10 -1.84938e-10)
(2.15451e-08 -3.9484e-09 -1.42502e-09)
(3.27176e-07 3.46907e-09 5.42098e-11)
(2.43031e-07 3.4329e-11 -2.7447e-11)
(1.96373e-07 1.78161e-09 4.85936e-10)
(2.13407e-07 2.09969e-09 3.04595e-10)
(1.66189e-07 1.77754e-10 1.08943e-09)
(2.40563e-07 8.48388e-10 1.47626e-09)
(2.51331e-07 8.06439e-10 -8.54765e-11)
(2.72586e-07 1.87788e-09 4.75311e-10)
(1.70727e-07 5.7849e-09 -4.1963e-09)
(2.51261e-07 6.11442e-10 -1.66629e-10)
(2.87705e-07 -3.92417e-09 -1.35731e-09)
(2.02585e-08 -1.3315e-09 1.43833e-09)
(2.79066e-07 -8.48993e-10 -1.17557e-09)
(1.96381e-07 3.18852e-09 -1.41938e-10)
(6.99232e-08 -2.00368e-09 5.54626e-09)
(1.82427e-07 1.03738e-09 -3.00687e-09)
(3.24163e-07 -1.78489e-10 -1.40687e-09)
(2.30076e-07 -4.84856e-10 1.05163e-09)
(1.27265e-07 3.41856e-10 -3.59066e-09)
(1.99156e-08 -1.86299e-09 -2.02203e-09)
(2.37885e-07 -1.23632e-09 -9.66391e-10)
(3.44457e-07 4.78515e-09 -4.40997e-09)
(2.27209e-07 -6.32394e-10 -1.28994e-10)
(1.93239e-07 -4.21745e-11 1.01375e-09)
(6.25548e-08 2.76957e-09 2.881e-09)
(2.50902e-07 -2.11609e-10 -1.14188e-09)
(2.74723e-08 2.21915e-09 -3.414e-09)
(1.65821e-07 1.65538e-10 -3.52018e-10)
(2.08665e-07 2.32611e-08 -7.46225e-09)
(2.39638e-07 -5.2261e-10 -5.85439e-10)
(9.647e-08 -1.6004e-10 3.36884e-09)
(1.9141e-07 -2.23514e-09 -2.74692e-09)
(1.21656e-07 5.01391e-10 -1.65712e-09)
(5.20572e-08 3.11907e-09 2.45448e-09)
(4.14122e-07 1.19833e-09 1.2413e-09)
(1.93194e-07 8.16635e-10 7.72969e-10)
(1.97626e-08 7.14437e-10 1.92511e-09)
(2.65304e-07 -2.50574e-09 3.58871e-10)
(2.51928e-07 -1.86609e-09 1.10312e-09)
(4.25029e-08 -1.10622e-10 -2.35954e-09)
(1.37699e-07 5.72591e-09 1.01912e-10)
(1.0648e-07 3.84539e-09 2.91286e-09)
(1.84818e-07 1.23303e-09 8.66382e-10)
(2.34478e-07 -4.29723e-10 4.3747e-10)
(3.57468e-08 -8.59158e-10 1.64035e-09)
(9.89055e-08 -3.3124e-09 -1.00689e-09)
(1.09962e-07 2.0775e-09 4.67109e-11)
(1.81899e-07 2.08377e-09 3.69465e-10)
(3.01988e-07 -7.28143e-10 7.85455e-10)
(2.55824e-08 1.32519e-09 -3.3742e-09)
(3.55485e-07 -2.40239e-09 1.96765e-09)
(2.33318e-07 2.19119e-09 3.3702e-10)
(2.47062e-07 5.01766e-10 1.64674e-09)
(1.14195e-07 4.89573e-09 -4.71914e-09)
(3.16822e-07 2.23831e-09 6.49057e-10)
(2.50675e-08 -1.81675e-10 -2.64886e-09)
(2.83429e-07 -1.33319e-09 -3.88657e-10)
(3.04759e-08 -5.52401e-10 -6.86918e-11)
(1.42602e-07 -4.4357e-09 4.5111e-10)
(2.21814e-07 -1.12705e-09 2.35305e-10)
(1.48278e-07 -4.18127e-09 -1.35929e-09)
(2.13732e-08 2.38231e-09 2.2118e-09)
(5.59641e-08 9.16648e-10 -1.71475e-09)
(8.30821e-08 -4.09948e-09 2.64231e-09)
(1.42921e-07 2.52977e-09 -3.81709e-09)
(3.24592e-07 -6.52705e-10 -1.49285e-09)
(6.19405e-08 -1.38738e-09 2.36666e-11)
(1.46445e-07 4.76429e-09 -2.91879e-09)
(2.25383e-07 -1.18911e-08 -2.33371e-08)
(1.97428e-07 8.91139e-10 8.26979e-10)
(3.22162e-08 1.96997e-09 3.44439e-10)
(2.35979e-07 1.47528e-10 -2.17997e-09)
(1.47719e-07 1.58189e-08 -6.13049e-09)
(1.87783e-07 -1.94707e-09 -2.25155e-10)
(1.07776e-07 -4.37991e-10 -2.4367e-09)
(1.64201e-07 1.01611e-09 9.03492e-10)
(1.155e-07 -4.7093e-09 -3.17794e-09)
(1.6407e-07 4.73622e-10 8.90268e-10)
(1.46967e-07 8.30441e-10 -4.58243e-10)
(7.91212e-08 3.64366e-09 -6.9526e-09)
(2.73695e-07 2.38381e-10 3.50436e-10)
(7.18133e-08 3.0375e-09 3.6395e-09)
(1.73169e-08 2.63422e-09 9.79291e-10)
(3.11167e-07 1.11258e-09 3.39649e-10)
(1.7147e-07 9.32762e-10 1.75864e-10)
(2.99356e-07 1.96199e-09 -6.73159e-10)
(2.32671e-07 2.84824e-09 -9.84452e-10)
(4.23469e-07 -4.33773e-09 1.10027e-09)
(1.4828e-07 3.70773e-09 -2.62675e-10)
(3.85838e-07 -4.16366e-09 1.01257e-09)
(1.05663e-07 -3.21381e-09 4.51687e-09)
(1.40532e-07 7.78696e-10 -1.14015e-10)
(3.12298e-07 -3.70053e-09 -2.70946e-09)
(3.56178e-08 8.02181e-10 -4.90644e-09)
(2.9827e-07 -9.25784e-11 -1.40039e-09)
(1.23441e-07 2.83356e-10 3.88014e-09)
(3.31305e-08 -2.34353e-09 -2.151e-09)
(2.77981e-07 -8.19138e-10 -2.49188e-10)
(6.78197e-08 -1.78597e-09 1.63254e-09)
(2.0328e-07 8.58904e-10 3.66021e-10)
(1.99623e-07 4.88477e-10 9.77602e-10)
(3.77688e-07 2.66484e-09 2.1191e-09)
(1.02554e-07 -4.41893e-09 -4.84492e-09)
(2.6721e-07 2.43231e-09 3.98451e-10)
(1.61168e-07 -2.16832e-09 1.81923e-09)
(2.8924e-07 5.3629e-10 1.13385e-09)
(2.94657e-07 5.13517e-10 -1.7797e-11)
(2.60338e-07 1.70701e-09 9.40415e-10)
(1.5305e-07 7.44732e-10 1.28282e-10)
(5.26472e-08 -2.74235e-09 -2.33333e-09)
(7.54971e-08 2.14836e-10 -7.9444e-10)
(1.65551e-07 6.09872e-10 -1.21196e-10)
(2.77148e-07 2.0178e-09 2.17677e-09)
(3.12639e-08 -2.00155e-09 -1.04518e-09)
(2.36325e-07 3.63289e-10 1.52979e-10)
(4.41882e-07 4.69193e-10 1.37723e-09)
(3.27944e-07 -2.98039e-09 -7.88953e-10)
(3.47551e-07 -3.41037e-09 -7.42732e-10)
(2.58345e-07 -1.02118e-09 -2.31296e-09)
(2.23809e-08 2.1807e-09 1.95395e-09)
(2.1399e-07 8.52752e-10 2.45262e-10)
(1.54182e-07 -1.31378e-09 -2.24714e-09)
(2.58025e-07 -5.11199e-10 6.95859e-10)
(1.68142e-07 -2.50584e-11 2.2235e-10)
(3.90665e-08 2.79629e-09 -2.63827e-10)
(1.91508e-07 1.0417e-09 3.72536e-10)
(1.58987e-07 3.59012e-09 3.50621e-09)
(2.49368e-07 -8.41215e-10 3.64631e-10)
(2.48306e-07 -2.52121e-09 -1.81506e-10)
(1.99148e-07 -2.27334e-09 -7.97123e-10)
(1.51617e-08 1.27512e-09 -1.76447e-09)
(2.22515e-08 -1.28268e-09 -2.17283e-09)
(1.7249e-07 -1.31227e-09 9.84678e-11)
(2.88283e-07 -9.64427e-10 2.59797e-10)
(2.10323e-07 1.79653e-09 1.11725e-09)
(1.77069e-07 3.42644e-10 1.08999e-09)
(1.67949e-07 -2.45009e-09 1.0548e-09)
(2.52982e-07 -1.97917e-09 -7.00413e-10)
(2.69239e-07 3.24102e-10 4.71707e-10)
(2.151e-08 1.83955e-09 3.92908e-10)
(1.3646e-07 -1.07271e-09 2.66263e-10)
(1.73927e-07 -1.78247e-08 -1.32662e-10)
(5.09502e-08 -8.13755e-10 2.54963e-09)
(9.08507e-08 -5.67549e-09 1.50625e-09)
(3.08688e-07 -1.49581e-09 -1.973e-09)
(2.13712e-07 -2.50051e-09 1.05201e-09)
(1.98316e-07 1.10876e-09 -2.54735e-10)
(2.43908e-07 -1.35981e-09 1.03285e-09)
(1.46123e-07 -4.87701e-09 1.45823e-09)
(3.06068e-07 4.44609e-10 -2.82089e-10)
(1.87698e-07 2.35107e-09 -5.1282e-09)
(4.04971e-07 3.74341e-09 2.27918e-11)
(2.05977e-07 -8.23133e-11 -2.42518e-10)
(2.20891e-07 -1.9883e-09 8.00944e-10)
(2.94233e-07 -2.81702e-09 2.96842e-10)
(5.23185e-08 -5.02308e-10 2.41866e-09)
(5.21035e-07 -4.17911e-09 1.47094e-09)
(3.69363e-08 1.06712e-09 -1.47928e-09)
(1.48974e-07 -1.44665e-08 8.52875e-09)
(1.25511e-07 3.80315e-09 2.78822e-09)
(1.61431e-07 -3.0187e-09 -1.58633e-08)
(2.18268e-07 -1.23667e-09 -5.14542e-10)
(2.9086e-07 -4.65084e-08 -1.01688e-08)
(1.30903e-07 -4.70101e-11 -2.80123e-10)
(3.05379e-07 -3.66124e-11 6.64639e-11)
(3.31614e-07 7.36216e-10 -4.77047e-10)
(2.00989e-07 -7.35676e-11 1.49385e-09)
(3.87721e-08 1.82519e-10 -5.85345e-10)
(1.18484e-07 -4.49582e-09 -3.00596e-09)
(2.10234e-07 -3.9032e-09 -2.98937e-08)
(2.00896e-07 3.3715e-10 2.81851e-11)
(1.04982e-07 -2.28098e-09 -4.18627e-10)
(2.17781e-07 -1.9573e-08 -6.67957e-09)
(2.32459e-07 -2.81265e-09 4.97728e-09)
(3.21729e-07 2.98961e-09 1.99496e-09)
(4.8263e-08 -9.8913e-10 1.6323e-09)
(5.836e-08 -2.80465e-09 1.63522e-09)
(2.97675e-08 2.16052e-10 -2.84964e-10)
(2.19298e-08 1.43425e-10 -1.69606e-09)
(4.82575e-08 -1.54568e-10 3.31341e-10)
(2.22383e-07 -1.2485e-08 8.09192e-09)
(1.83453e-07 -2.67794e-11 9.73793e-10)
(2.08396e-08 -6.8192e-10 2.85485e-09)
(2.29104e-08 1.57379e-09 2.54524e-09)
(3.23282e-07 1.23613e-09 1.06112e-10)
(1.66255e-07 -2.16525e-08 1.47197e-08)
(5.12655e-08 2.1783e-09 9.40293e-10)
(2.26865e-07 3.51645e-10 -8.90876e-11)
(1.12308e-07 -7.72195e-10 -1.72863e-09)
(2.06294e-07 1.08156e-10 1.80111e-09)
(4.85667e-08 2.41405e-09 -1.3693e-09)
(9.99095e-08 3.14145e-09 -1.13635e-09)
(2.00998e-07 -1.90794e-09 2.98142e-10)
(2.555e-07 3.06371e-10 -4.65042e-10)
(3.94447e-07 9.1073e-10 -1.7889e-09)
(4.74374e-08 3.71775e-09 -1.24959e-09)
(2.68838e-08 -2.12238e-09 1.31053e-09)
(2.0163e-07 -2.88139e-08 -2.13519e-08)
(3.06523e-08 -3.97591e-09 8.66346e-11)
(3.14709e-07 -2.39411e-09 -2.86534e-09)
(3.21073e-08 1.74478e-09 -3.95532e-09)
(1.56038e-07 -6.83887e-10 3.37204e-09)
(2.86147e-07 -1.03659e-09 -1.50707e-10)
(4.08106e-07 -1.7518e-09 2.42651e-09)
(6.50233e-08 9.67256e-10 -1.33332e-09)
(1.46551e-07 -4.94403e-10 -1.42876e-09)
(4.24341e-08 1.60857e-09 -1.60476e-09)
(3.16378e-08 3.7047e-09 -1.40066e-09)
(2.43714e-07 -1.2754e-11 -1.24191e-09)
(1.6444e-08 -1.36726e-09 -2.10202e-09)
(1.71468e-07 -1.67925e-09 -3.54548e-10)
(6.70782e-08 1.24724e-09 -3.04286e-09)
(3.19286e-07 -1.56769e-09 -2.85714e-10)
(2.27937e-07 -3.37875e-10 -1.0368e-10)
(2.11983e-08 -5.84174e-10 3.33095e-09)
(1.46283e-07 -6.88656e-09 2.12001e-10)
(2.45229e-07 7.45017e-10 6.52902e-10)
(3.42831e-08 -1.54205e-09 1.33055e-10)
(2.7676e-07 -1.51406e-09 -8.16247e-10)
(8.6446e-08 -3.25938e-09 5.25773e-09)
(2.2591e-07 5.65206e-10 -1.66194e-10)
(2.1022e-07 -6.71147e-10 -1.19569e-09)
(6.07945e-08 1.74482e-09 1.4657e-09)
(2.32827e-08 1.00713e-09 -3.03672e-09)
(1.01587e-07 1.80272e-09 -9.31386e-10)
(2.43598e-07 3.82943e-08 8.28529e-09)
(2.38591e-07 8.69275e-10 8.12907e-10)
(8.38063e-08 -3.52454e-09 4.05761e-09)
(1.9679e-07 6.89057e-10 3.27419e-09)
(2.71279e-08 -1.0707e-09 6.87833e-10)
(1.85976e-07 -4.83075e-10 -1.19417e-09)
(2.5284e-08 -4.47075e-10 -1.72204e-09)
(3.21103e-07 -2.90125e-09 -7.50362e-11)
(3.03702e-07 -1.35413e-09 9.12652e-10)
(2.09662e-07 -5.77155e-10 3.19008e-10)
(1.58718e-08 1.61767e-09 9.44499e-11)
(3.4006e-07 -2.41903e-09 1.1797e-09)
(1.66275e-07 9.27821e-10 -3.3497e-10)
(3.49712e-07 1.4106e-09 6.41333e-10)
(6.82357e-08 -3.80577e-10 -2.2645e-10)
(2.22489e-07 -2.68256e-08 1.38391e-08)
(2.57348e-07 -2.72351e-09 -1.38648e-10)
(7.26739e-08 1.17894e-09 -6.02512e-10)
(2.31532e-07 8.02739e-10 2.81213e-10)
(2.1003e-07 3.89184e-09 -3.95317e-08)
(1.86906e-07 4.60583e-10 -9.00879e-10)
(3.57803e-08 8.99582e-10 -1.84755e-09)
(1.1152e-07 -1.03288e-09 -5.34317e-09)
(1.76254e-07 -9.42654e-11 3.67011e-11)
(2.21577e-07 2.22163e-09 -3.01026e-10)
(3.53899e-08 1.50402e-09 6.38686e-10)
(2.26771e-07 2.27679e-09 -2.73256e-09)
(1.69816e-07 -2.03251e-09 -5.60403e-09)
(2.74724e-08 -2.4002e-09 1.51185e-09)
(1.89115e-07 1.37162e-10 -2.13517e-10)
(1.583e-07 -2.00165e-09 1.54715e-08)
(3.34338e-07 3.89347e-09 -4.97042e-09)
(1.89242e-07 -1.70017e-10 8.04263e-11)
(1.70216e-07 3.6346e-11 6.06463e-10)
(2.93282e-07 -8.37285e-10 -9.41754e-10)
(2.60258e-07 1.3252e-09 9.8956e-10)
(7.73629e-08 2.07356e-09 6.22872e-10)
(7.82839e-08 -3.67477e-09 -3.74727e-09)
(3.51615e-07 3.10542e-09 5.96424e-10)
(2.2474e-07 -1.96856e-08 1.83563e-08)
(2.16146e-07 -2.3031e-09 1.1089e-09)
(1.94154e-07 -1.83685e-09 6.66806e-10)
(1.35228e-07 2.7563e-09 1.55293e-09)
(3.19261e-07 -1.37948e-11 1.27016e-09)
(1.95056e-07 2.78207e-10 -8.45321e-10)
(1.90241e-07 -8.79913e-10 -2.51442e-09)
(2.37833e-07 4.28198e-09 2.00152e-10)
(4.67839e-08 1.56626e-10 -2.88292e-09)
(1.82068e-07 1.63769e-09 -1.24944e-09)
(4.34272e-08 -1.21018e-09 -3.22544e-09)
(3.07572e-07 -3.13212e-10 2.01642e-09)
(3.04288e-07 -6.15236e-10 4.22765e-10)
(1.76728e-07 2.58804e-09 -4.42911e-09)
(1.68881e-07 1.48159e-09 -7.43943e-10)
(1.95047e-08 2.06009e-09 -4.11632e-10)
(1.11816e-07 -4.90751e-10 -7.5165e-10)
(8.20558e-08 -2.85139e-09 -3.54339e-09)
(2.4564e-07 -2.50722e-10 -1.59172e-09)
(2.19786e-07 -1.43658e-09 -8.6253e-10)
(2.20535e-07 -2.01901e-08 1.28122e-08)
(2.98403e-07 -1.10866e-09 2.2784e-09)
(8.73818e-08 -2.4905e-09 -1.98606e-09)
(1.36568e-07 -3.43415e-09 1.0678e-08)
(2.49056e-07 -1.48908e-09 3.88358e-09)
(3.0603e-08 -2.3471e-09 -1.14888e-10)
(2.25601e-07 -9.63184e-10 -8.1246e-10)
(5.81368e-08 1.69028e-09 -5.27774e-11)
(2.05846e-07 -6.52998e-10 1.7353e-09)
(3.54735e-08 5.00979e-09 -3.78381e-10)
(3.36693e-07 1.99554e-09 -1.95508e-09)
(2.03956e-07 -8.75132e-09 5.4155e-09)
(2.54424e-07 2.39419e-10 -6.65015e-10)