/*--------------------------------*- C++ -*----------------------------------*\
| =========                 |                                                 |
| \\      /  F ield         | OpenFOAM: The Open Source CFD Toolbox           |
|  \\    /   O peration     | Version:  2406                                  |
|   \\  /    A nd           | Website:  www.openfoam.com                      |
|    \\/     M anipulation  |                                                 |
\*---------------------------------------------------------------------------*/
FoamFile
{
    version     2.0;
    format      ascii;
    arch        "LSB;label=32;scalar=64";
    class       volScalarField;
    location    "32";
    object      nut;
}
// * * * * * * * * * * * * * * * * * * * * * * * * * * * * * * * * * * * * * //

dimensions      [0 2 -1 0 0 0 0];

internalField   nonuniform List<scalar> 
59516
(
2.76159e-05
4.77882e-05
3.18255e-05
8.13399e-05
0.00111963
0.000186204
5.18734e-05
3.28201e-05
2.72333e-05
9.24652e-05
0.000637462
7.21249e-05
3.16307e-05
0.000160299
8.57791e-05
7.45394e-05
0.000386961
9.61932e-05
3.6505e-05
0.000262914
0.00014453
9.7411e-05
0.000135351
0.000138354
0.000125954
7.76231e-05
0.000132176
0.000162845
8.7174e-05
0.000141047
0.000242912
0.000155184
6.22517e-05
5.30423e-05
9.56953e-05
7.52813e-05
0.00013707
8.77004e-05
3.52501e-05
0.000160709
3.04982e-05
0.000246951
0.000109708
4.79318e-05
7.80139e-05
7.52927e-05
4.45278e-05
0.000368694
0.000873499
0.000208429
0.00062418
0.000128274
2.62068e-05
3.7005e-05
0.000153717
4.92199e-05
0.000355325
0.00014583
0.000452813
7.65882e-05
0.000137178
0.000151675
0.000336076
0.0003365
5.4331e-05
0.000141914
0.000197316
0.000127378
0.00042979
4.52894e-05
0.000216667
0.000286933
0.00017412
0.00010198
0.000569111
0.000199382
0.000357315
0.000120487
0.000124304
0.000226667
0.000128703
0.000155659
9.19611e-05
0.000159854
0.000148599
0.000480109
0.000126129
9.50294e-05
7.66412e-05
5.71057e-05
0.000597098
0.000111809
0.000357696
9.49283e-05
0.000273199
0.00110169
0.00011355
7.58867e-05
8.24396e-05
0.000132331
0.000147295
0.00017571
0.00017249
7.51808e-05
6.47204e-05
0.000175817
0.000139172
2.43204e-05
3.87977e-05
8.37883e-05
0.000256171
0.000190162
8.9135e-05
0.000159198
0.000189161
3.2725e-05
7.66843e-05
7.39501e-05
0.000160803
0.000114457
0.00072904
0.000347756
0.000179931
0.000347754
0.000258633
3.45018e-05
0.000193125
0.000146421
0.000281317
0.000535619
0.00068073
3.0162e-05
0.000153499
8.55051e-05
3.87524e-05
2.60028e-05
0.00011626
3.10164e-05
0.000136891
4.89494e-05
0.000129984
0.000602032
0.00013687
5.50267e-05
0.0005415
8.95464e-05
6.37269e-05
3.96139e-05
0.000251209
3.15568e-05
4.19138e-05
0.000124132
0.000218308
0.000135056
3.18608e-05
0.00015003
4.78335e-05
2.8059e-05
3.62645e-05
0.000152637
9.29295e-05
9.08177e-05
0.00013221
0.000181207
3.2839e-05
0.000353371
7.66238e-05
0.000469699
0.000143985
0.000124198
3.52076e-05
7.1635e-05
6.1583e-05
6.93992e-05
0.000110677
5.06971e-05
0.000373178
0.00013044
8.34323e-05
0.000111475
9.37016e-05
0.000127019
0.000203638
6.13391e-05
0.00051946
7.27535e-05
0.000107817
0.000148197
3.11086e-05
3.52546e-05
9.91698e-05
7.48482e-05
0.000261592
5.43936e-05
0.000118269
0.000108225
7.25976e-05
0.000111934
5.92261e-05
0.000113562
5.83995e-05
0.000706205
2.86158e-05
0.000140641
4.57808e-05
9.1902e-05
0.000560707
0.000229045
0.000154362
4.61587e-05
8.55309e-05
0.000183551
9.93855e-05
8.14754e-05
3.76007e-05
0.000319594
7.6599e-05
0.000127221
8.35523e-05
0.000168326
8.56901e-05
5.25017e-05
0.000329835
0.000149703
0.000381054
0.000400868
0.000183762
0.000126824
0.000389543
7.942e-05
0.000363596
0.000419728
0.00072983
0.000167158
0.000124985
0.000109607
6.29043e-05
2.76869e-05
0.000202945
9.09057e-05
0.000674775
0.000162913
7.04275e-05
0.000180872
0.000594068
2.86132e-05
0.000129982
8.38211e-05
0.000306864
2.72594e-05
0.000236008
9.90988e-05
0.000726402
0.00012649
0.000104439
0.000185521
8.54192e-05
0.000171791
0.000126198
8.35438e-05
4.6097e-05
0.000236607
3.86367e-05
0.000415829
2.67321e-05
6.59443e-05
0.000223777
3.3114e-05
0.000159874
6.89374e-05
4.33575e-05
0.000414084
2.54152e-05
3.77792e-05
0.000283993
3.0154e-05
0.000147626
0.000203388
0.000166122
0.000126455
0.000651879
7.85314e-05
0.000184666
4.19532e-05
4.123e-05
0.000396234
0.000578627
0.000187023
0.000623955
0.000790787
0.000448861
7.17879e-05
9.44349e-05
3.5107e-05
0.000318029
0.000198111
0.000247237
6.55801e-05
0.0007307
0.000393549
2.55917e-05
6.61599e-05
0.00015989
0.000170562
0.000171008
0.000159629
0.000117351
8.83703e-05
0.000287445
0.000280128
0.00011662
7.09543e-05
4.14677e-05
0.000141231
7.43209e-05
0.000241583
3.40836e-05
0.00108819
4.54912e-05
0.000118264
9.08764e-05
4.33855e-05
0.000492661
0.000638474
0.000720826
0.000178215
4.72527e-05
6.01913e-05
0.000343685
0.000225016
0.000194801
7.1911e-05
0.000168953
0.000141972
0.000120718
0.000128464
0.000263784
9.81951e-05
7.37944e-05
0.00042901
0.000234337
0.000647669
0.000436068
0.000114722
0.000186605
0.00056925
7.40473e-05
0.000643508
0.000485158
6.73719e-05
5.94098e-05
0.00016705
8.92405e-05
3.89861e-05
0.000133
0.000136074
4.1463e-05
0.000144819
0.000264288
3.79853e-05
4.45367e-05
6.18902e-05
0.000608183
0.000131472
5.27311e-05
0.000145643
0.000151256
0.000135071
0.000289211
8.67894e-05
0.000119902
0.000131575
0.000249725
4.00525e-05
0.000229405
0.000147014
5.87055e-05
0.000132365
0.000310884
6.42187e-05
7.15999e-05
2.54549e-05
0.000660496
0.00016956
7.64418e-05
7.82993e-05
0.000160644
6.89913e-05
4.25636e-05
5.09886e-05
4.42466e-05
4.16796e-05
0.000208468
0.00012942
0.000656901
0.000103453
8.33166e-05
8.18246e-05
0.000552181
0.000493341
6.71145e-05
4.05829e-05
3.10478e-05
0.000581114
0.00054004
0.000137788
6.66984e-05
0.000104807
0.000107341
0.000170388
0.000172022
0.000161633
4.12585e-05
0.000483795
0.000646635
0.000130291
0.000407462
2.47751e-05
0.00055997
0.000493534
0.000605215
0.000472062
0.000429521
2.8503e-05
0.000608501
7.72256e-05
0.00032044
3.99161e-05
0.000175969
0.000516937
9.26703e-05
0.000111166
0.000114977
0.000130176
0.000151297
0.000385895
0.000604837
0.000102044
3.76627e-05
0.000116163
0.000161885
4.35963e-05
0.000184689
0.000501133
0.000159318
6.21752e-05
0.000672553
6.01415e-05
0.000180596
4.47624e-05
7.33001e-05
0.000254979
0.00019699
3.45521e-05
0.000108535
0.00016218
0.000560498
0.000556481
0.000585087
2.68891e-05
0.000187104
0.0004461
7.54478e-05
0.000662018
3.87871e-05
0.000379003
0.000116185
0.000152165
0.000547848
4.58799e-05
0.000130616
2.43377e-05
0.000332321
5.42499e-05
4.02132e-05
0.000156553
0.00043006
4.18628e-05
0.000185374
5.16703e-05
0.000114291
9.46525e-05
0.000181028
0.000279873
0.00079224
0.000374056
0.000141938
3.55908e-05
2.90362e-05
9.67354e-05
0.000755615
0.000522674
0.000177248
0.000280608
0.000753348
0.000147682
8.1106e-05
7.10814e-05
0.000178029
0.000609127
0.000218265
7.13478e-05
6.86123e-05
3.49846e-05
0.000652495
0.000169769
0.000156142
0.000167529
0.000573506
0.000233266
0.00026462
0.000155726
0.000272275
0.00015852
6.40223e-05
0.00015961
7.13745e-05
0.0001619
0.00014224
0.000126429
7.93086e-05
7.22649e-05
7.46932e-05
6.78979e-05
0.000435502
0.000434047
0.000177211
2.87825e-05
0.000121076
0.000388386
7.661e-05
0.000380181
8.39174e-05
6.80656e-05
0.000562582
0.000102973
0.000396127
0.000153684
0.00014814
0.000105633
0.000629812
6.15202e-05
5.0462e-05
0.000521509
9.33491e-05
0.000279083
6.99363e-05
0.000499777
5.32884e-05
0.000176275
0.000121623
0.000138373
0.000176324
8.55808e-05
0.000115155
8.11571e-05
0.000631268
6.65071e-05
6.85554e-05
0.000488701
3.66299e-05
0.000596041
0.000499326
0.000599588
0.000619843
0.000122448
8.29567e-05
0.000491706
0.000214261
0.000137436
0.000254567
0.000422852
0.000402196
0.000542657
2.51722e-05
0.000152439
0.000340575
4.63347e-05
0.000193445
2.95836e-05
0.000181911
0.000645764
4.12768e-05
5.02061e-05
0.000630317
8.45803e-05
0.000124456
0.000161447
0.000551553
0.000360337
0.000747107
0.000194443
3.37859e-05
0.000126547
0.000492245
0.000148454
0.000638231
0.000188381
0.000141392
7.0916e-05
6.72687e-05
8.75516e-05
7.12897e-05
3.49894e-05
2.84686e-05
0.000677199
4.52184e-05
0.000406263
0.000369233
0.000619663
0.000481224
0.000147251
0.00024299
0.000127818
0.000207771
6.92e-05
0.000594699
6.66539e-05
0.000163584
0.000440497
0.000326359
0.000144975
0.000418113
0.000127013
0.0014815
0.000710646
0.000563987
2.65458e-05
0.000191354
0.000495578
3.71561e-05
0.000117046
6.09755e-05
0.00016715
0.00017613
0.000193682
7.14109e-05
9.80722e-05
0.00017006
0.000163514
0.000812153
0.000210381
0.000129197
0.000107006
2.63666e-05
6.13192e-05
0.000146887
7.39671e-05
3.2125e-05
0.000380052
0.000134565
0.000128947
0.000158016
0.000391316
0.000189117
6.48299e-05
0.000179051
3.9012e-05
0.000575687
0.000360209
0.000120969
4.03631e-05
0.000113569
0.00018562
0.000516203
0.000145217
0.000335659
0.000144339
0.000182007
9.79987e-05
0.000155706
7.52916e-05
0.000118116
0.000126767
0.000285114
8.07461e-05
2.43572e-05
0.000665677
0.000123387
0.000161013
0.00012901
0.000669445
3.0882e-05
7.6638e-05
2.59748e-05
0.000116676
0.000696827
0.000167254
0.000241201
5.91435e-05
0.000347837
0.000149188
8.70434e-05
3.72795e-05
0.000184321
8.48134e-05
0.000885361
0.000152415
0.000110117
0.000754798
0.000487968
3.19115e-05
0.000123043
0.000145446
0.000623442
4.17865e-05
0.000125833
2.78444e-05
7.41884e-05
0.000169366
0.000546367
0.00124486
4.12347e-05
0.000410349
0.000508822
0.000354619
5.44964e-05
0.000123707
0.00012866
0.00054321
0.000987438
2.7735e-05
5.64339e-05
3.77111e-05
9.76309e-05
0.000272425
3.73498e-05
2.58382e-05
0.000162503
8.48179e-05
0.000150681
0.000154143
0.000363896
3.27979e-05
2.88207e-05
0.000143489
3.97276e-05
8.40102e-05
0.000501863
0.000517665
0.00118237
0.000273467
3.18646e-05
0.00083924
8.02395e-05
0.000183461
0.000532483
7.45347e-05
7.64078e-05
0.000188533
0.000379939
0.00134668
0.000193893
3.00885e-05
0.000137428
0.000102776
0.000655926
0.000137138
0.000149092
0.000108827
0.000521942
0.000202719
8.37785e-05
0.000162726
0.000138813
5.02036e-05
4.24573e-05
0.00050537
5.20571e-05
0.000133962
4.85632e-05
0.000666385
0.000158668
3.12439e-05
0.000206473
0.000181454
0.000108731
7.46654e-05
0.000159063
5.4613e-05
0.000328681
7.3576e-05
0.000148504
2.90842e-05
0.000166251
2.69747e-05
0.0004406
0.000780145
0.00043146
0.000215746
0.000475734
4.89987e-05
0.000116048
0.000453932
5.12786e-05
3.173e-05
5.73944e-05
0.000295023
3.02881e-05
6.48626e-05
0.00013372
0.000131113
3.29118e-05
3.70556e-05
8.23986e-05
0.000168351
0.000265425
7.42542e-05
0.00012502
0.000189793
7.07342e-05
0.000152431
4.35632e-05
0.000192753
5.24134e-05
9.2127e-05
8.51127e-05
0.000160048
0.000167581
0.00021496
0.000638858
0.00011075
0.000166778
3.36375e-05
2.9177e-05
0.000167481
0.000216864
0.000161408
0.000455332
0.000198198
5.92319e-05
0.000134519
0.000167672
3.98124e-05
0.000577169
0.000146446
0.000130372
3.39165e-05
3.14918e-05
0.000145097
0.000105604
0.000347486
0.000428216
0.000352537
4.24077e-05
0.000196306
0.000732741
4.15222e-05
0.000142162
0.000369978
2.76153e-05
0.000146651
0.000237613
0.000532996
0.000136081
3.3897e-05
4.49046e-05
2.78712e-05
3.87269e-05
2.97935e-05
4.12671e-05
4.23062e-05
6.38613e-05
0.000264873
0.000468048
0.00156812
5.59814e-05
4.10107e-05
5.76989e-05
0.000145162
0.000117303
4.95629e-05
7.8962e-05
6.14239e-05
0.000710138
0.000113177
0.000661092
0.000560083
0.000224861
4.91569e-05
0.000483284
0.000159133
6.93252e-05
0.000156087
0.000125087
0.000171749
0.000542461
3.60707e-05
0.000528963
0.000760384
0.0004346
7.52069e-05
0.00143876
0.000141285
2.75991e-05
0.000459171
0.000174981
8.45735e-05
7.15742e-05
4.96114e-05
0.000110333
0.000171259
0.000413499
0.000402941
0.000148864
3.96504e-05
0.000147626
0.00018651
0.000255431
4.35945e-05
4.32461e-05
0.000164613
0.000648131
0.000573726
0.000147278
0.000520366
3.55836e-05
4.83063e-05
0.000146779
7.40922e-05
2.91624e-05
0.000494467
9.92642e-05
0.000368032
0.000329309
0.000319408
0.000627496
0.000377345
0.000425876
0.000397171
0.000693948
0.0014106
6.32633e-05
5.56789e-05
0.000138277
7.71267e-05
0.000271114
3.57693e-05
0.000138197
0.000326112
3.19181e-05
0.000804058
0.000804606
0.000632431
0.000128681
3.46282e-05
0.000550349
0.000295013
3.06003e-05
0.000611938
0.00016711
0.000560122
0.000124214
3.24646e-05
0.000307138
6.9437e-05
0.000130355
0.000317642
0.00023726
0.000107354
0.000117235
0.00049057
0.000119602
3.65389e-05
6.74058e-05
6.26789e-05
3.61537e-05
0.0007123
7.73297e-05
0.000165169
0.000310649
3.41229e-05
0.000652123
0.000713644
3.01304e-05
0.000635907
0.000468688
7.88322e-05
0.000675563
0.000125507
0.000127926
0.000423619
0.000248504
0.000204169
0.000517481
3.21934e-05
2.82115e-05
0.00043799
0.000170366
0.000337396
0.000518288
2.92147e-05
0.00018301
0.000163216
3.85266e-05
0.000125275
7.24072e-05
5.79561e-05
3.77442e-05
0.000146341
2.6867e-05
0.000306347
0.000277744
0.000790549
0.000602491
6.33268e-05
0.000235738
0.000572796
3.14185e-05
0.000106249
0.000126915
4.50107e-05
0.000203509
0.000661745
6.54917e-05
0.000227276
3.69168e-05
3.95316e-05
0.000154876
5.13631e-05
3.5606e-05
0.00012877
4.45511e-05
0.00014208
0.000232115
3.44026e-05
0.000540792
0.000187076
0.00059839
4.36984e-05
6.47803e-05
3.6332e-05
9.70072e-05
0.000157261
0.000263194
0.000159715
6.55367e-05
0.000184533
0.000145901
0.000699793
0.000114902
0.000482861
4.84869e-05
6.257e-05
0.000136903
0.000108342
3.76723e-05
0.000584814
0.000105391
7.74279e-05
7.28551e-05
0.000179208
3.76977e-05
0.000125289
0.000644224
0.000134804
0.000155532
3.93788e-05
0.00017712
0.000247721
0.000212275
0.000562899
0.000126741
3.75637e-05
0.000182055
0.000289918
8.32083e-05
0.000177795
0.000119907
0.000125572
0.000344785
3.82703e-05
0.000246629
7.00824e-05
0.000381916
0.000163779
6.3486e-05
5.69913e-05
0.000245876
0.000612419
5.37915e-05
9.00399e-05
0.000121531
0.000127381
0.000143727
6.67201e-05
0.000160805
0.000194262
0.000286585
9.42143e-05
0.000240832
2.8944e-05
8.78897e-05
0.000176904
0.00039282
8.39192e-05
5.86148e-05
6.68785e-05
0.000110665
3.44415e-05
0.000126652
0.00018194
0.000421117
3.01668e-05
2.50661e-05
0.00028506
0.000245999
0.000104708
0.000321428
0.000509299
0.00014879
0.000178923
0.000429876
0.000495785
0.000137877
0.000138571
0.000475015
3.77717e-05
0.000186222
3.81242e-05
0.000503837
0.000266888
0.000479708
8.72614e-05
0.00023067
0.00016036
0.000106125
0.000546746
0.000369204
2.40487e-05
0.0001954
7.0051e-05
7.53842e-05
0.000127419
0.000125508
0.000183722
0.0001081
6.40365e-05
3.04281e-05
8.59507e-05
0.000160723
0.000676979
0.000491799
3.19251e-05
0.000491113
3.08315e-05
0.000113457
0.000144496
9.46864e-05
0.000241225
2.96698e-05
0.000108338
2.59631e-05
6.63632e-05
4.02699e-05
3.08944e-05
9.31819e-05
3.74093e-05
0.000145339
0.000315153
4.53325e-05
7.81109e-05
0.000188627
0.000262546
0.000125589
4.78593e-05
5.44232e-05
4.42364e-05
0.000153933
0.000121465
6.95515e-05
0.000132424
0.000151338
6.7349e-05
0.000467312
6.24831e-05
6.61105e-05
4.16852e-05
3.63534e-05
0.000130758
0.000125187
0.000144156
0.000680119
2.71426e-05
0.000100171
3.69464e-05
3.03072e-05
6.3669e-05
0.000209249
4.27454e-05
0.000149643
0.000289023
3.76584e-05
0.000154861
0.000646022
2.92798e-05
5.32332e-05
3.12956e-05
5.57478e-05
0.000108829
0.000128021
0.000145276
0.0007114
0.000796286
6.73848e-05
5.02834e-05
0.000122697
0.000297344
0.000136364
0.000332728
0.000313993
0.000412719
9.08734e-05
0.000256506
0.000283385
0.000209121
0.000262507
0.000114725
0.000139834
0.000353506
3.21783e-05
8.02263e-05
0.00074867
5.29314e-05
6.64823e-05
3.1748e-05
0.000189572
0.000202229
7.44319e-05
0.000218733
0.000388108
6.35258e-05
0.000150622
0.000116109
0.000110649
4.90376e-05
8.47322e-05
0.000714003
0.000243314
0.000307892
0.000435996
0.000607996
0.000254231
0.000113612
5.57594e-05
4.75528e-05
3.40881e-05
3.10052e-05
6.05556e-05
0.000641313
6.22713e-05
0.000135999
7.09216e-05
0.000322394
7.057e-05
7.93122e-05
3.18868e-05
0.000289326
0.000136187
3.39654e-05
0.000442116
0.000318806
0.000221393
0.000118322
0.000193398
0.000468991
0.000631761
0.000156836
3.47599e-05
6.70411e-05
0.000487736
8.76251e-05
0.000147002
3.20729e-05
0.000100572
3.62364e-05
0.000404589
3.37507e-05
0.000170661
4.47193e-05
0.000162283
2.51224e-05
0.00015688
0.000182221
8.29002e-05
0.000457424
0.000167178
8.35736e-05
2.56958e-05
9.62941e-05
6.44404e-05
7.89466e-05
3.02122e-05
0.000590294
0.000137981
0.000606277
9.67959e-05
7.93583e-05
7.64594e-05
0.000181861
0.000208214
0.000535628
6.86762e-05
5.27098e-05
2.7021e-05
3.78296e-05
2.67965e-05
0.000152669
0.000118574
0.000179678
4.05772e-05
0.000794151
0.000116651
0.000124776
6.79724e-05
0.000179944
0.000213455
0.000180382
0.000380617
0.000787958
0.000103663
7.86878e-05
0.000557477
0.000120821
8.77502e-05
0.000662498
0.000304665
4.33107e-05
0.0017144
0.000316791
0.000162118
5.80995e-05
0.000186669
0.000532339
4.02296e-05
0.000187199
0.000470373
5.19183e-05
7.5284e-05
0.000121798
4.3811e-05
0.00070302
0.00013003
3.54771e-05
0.000175313
0.000129712
0.000195753
3.22307e-05
8.44491e-05
8.75123e-05
0.000166399
6.22302e-05
0.000136044
0.000141153
0.000131278
0.000164297
3.33811e-05
3.06523e-05
0.000607093
0.00015098
0.000382449
4.31166e-05
0.000104992
3.63194e-05
0.000208297
0.000124244
0.000225913
0.00140718
4.26267e-05
0.000795475
4.97019e-05
0.000142067
5.91466e-05
2.91048e-05
0.000203054
0.000118565
5.94419e-05
2.96747e-05
0.000149039
0.000150536
9.20876e-05
0.000635687
0.00028047
0.00012962
2.50047e-05
4.16612e-05
0.00024509
7.51317e-05
7.8106e-05
0.000404107
3.18806e-05
0.000160814
5.93169e-05
0.000338884
2.85908e-05
3.79609e-05
4.16148e-05
4.22609e-05
0.000679098
7.285e-05
0.000198001
6.05969e-05
0.000208865
0.000229077
8.35182e-05
7.68171e-05
8.53962e-05
0.000633274
0.000189025
4.6543e-05
3.69922e-05
2.83872e-05
0.000170872
0.000180917
0.000224463
7.91519e-05
0.000204596
0.000185412
0.000144764
5.15514e-05
0.000119393
0.000158587
0.000728528
7.03817e-05
0.000301882
5.27146e-05
0.000418132
0.000135781
0.000145427
3.83134e-05
0.000129576
0.00017518
6.47141e-05
7.35806e-05
5.77381e-05
0.000480307
0.000161663
0.000527178
2.9836e-05
3.38074e-05
4.51629e-05
0.000136254
0.000108288
8.455e-05
0.000116176
2.96628e-05
0.000418447
9.15374e-05
7.68211e-05
2.527e-05
9.9154e-05
0.000155687
7.01737e-05
4.91806e-05
0.000152325
9.90648e-05
0.000129996
0.000142535
3.29197e-05
3.74922e-05
3.83108e-05
4.11888e-05
0.000130875
3.00292e-05
4.45192e-05
0.000301568
3.3582e-05
0.00029187
0.000167755
0.000132125
6.26634e-05
2.39264e-05
0.000142063
5.42166e-05
2.83104e-05
0.000144262
8.29329e-05
4.65272e-05
0.000138337
3.42147e-05
0.000143723
7.19154e-05
9.86648e-05
4.2081e-05
6.98258e-05
3.71334e-05
0.000166994
2.42822e-05
0.000132917
3.69077e-05
0.000527879
8.25663e-05
0.000116544
0.000209339
0.000126416
0.00017296
4.10914e-05
0.0001939
0.00020422
0.000345416
3.80958e-05
0.000131988
3.30255e-05
4.28518e-05
0.000169816
3.8653e-05
2.93658e-05
0.000704962
0.000142669
0.00024412
4.64715e-05
3.48362e-05
7.20042e-05
0.000121655
0.000321478
0.000160779
0.000185743
4.68033e-05
0.000103091
3.31767e-05
0.000124657
0.000161822
0.000527466
0.000474675
0.000126383
3.03969e-05
0.000116067
4.12611e-05
8.54141e-05
0.0001455
2.60968e-05
0.000134141
3.97505e-05
0.000495656
2.90214e-05
7.09527e-05
0.000134264
0.000640258
0.000190627
6.8808e-05
0.000490104
0.000617377
6.57479e-05
0.000202148
0.000124804
0.000867259
0.000815936
0.000138102
9.70483e-05
0.000178389
0.000136814
3.77039e-05
0.000106906
6.75004e-05
8.77538e-05
4.25822e-05
0.000466332
8.28841e-05
0.00035793
0.000839377
6.83383e-05
0.000147723
0.000119407
0.000228836
4.22513e-05
6.96821e-05
0.000153211
0.000282886
0.00048945
0.000125516
0.000735495
7.9291e-05
0.000174506
5.04091e-05
0.000143417
0.000176847
0.000163504
0.000138168
6.91713e-05
5.31765e-05
5.98648e-05
0.000100197
0.000181376
0.00010117
4.90148e-05
0.000424437
3.55991e-05
0.000153268
3.79937e-05
0.000138072
3.161e-05
0.000189847
6.51376e-05
0.000177148
0.000446219
0.000205375
0.000284745
0.000444684
0.000182118
0.000411039
7.73259e-05
0.000194442
0.000169841
7.0065e-05
0.000186148
2.43675e-05
3.56765e-05
3.35838e-05
0.000695197
3.92512e-05
0.0001355
0.000706001
6.54058e-05
3.77938e-05
0.000136057
3.64949e-05
0.000635431
4.38839e-05
3.13793e-05
0.000129333
5.11432e-05
2.90892e-05
3.39735e-05
9.63562e-05
0.000145651
0.000162307
0.000368917
4.74447e-05
0.000387067
3.83775e-05
0.00016522
0.000798135
6.51821e-05
0.000654511
0.000241221
0.000125151
0.000105755
0.000218139
0.000135453
0.000201479
0.000737617
4.88345e-05
0.000165666
0.000115224
0.000137114
0.000180347
5.0113e-05
0.0004861
0.000651798
0.000118807
0.00036246
0.000109132
0.000449621
3.32409e-05
2.9772e-05
0.000436407
0.000115859
0.0001445
0.00012982
3.31498e-05
0.000299008
4.29085e-05
0.000158546
0.000172615
9.7064e-05
0.000187403
0.000132905
0.000291535
0.000571219
0.000128798
8.85417e-05
0.000427928
3.85461e-05
0.000158459
6.83996e-05
7.0614e-05
0.00019431
0.000422376
0.000187303
0.000144279
0.000118972
0.000124368
0.000285565
0.000736088
0.000118637
3.2382e-05
2.9378e-05
3.29201e-05
0.000326653
0.000216966
7.38198e-05
0.000527697
0.00028467
0.000249292
0.00010686
5.79132e-05
0.000187518
3.98658e-05
0.00013329
0.000190021
7.4295e-05
0.00116657
0.000154483
2.70827e-05
8.67351e-05
0.000151141
0.000122462
0.000153558
7.40624e-05
0.000386938
0.000257826
0.000704599
0.000118065
3.44704e-05
6.70546e-05
0.000646195
0.00023461
0.000270321
0.000436962
0.000126538
6.8101e-05
3.08232e-05
0.000738648
0.000284683
0.000317855
0.000245554
0.000729224
0.00015894
0.000115448
3.51852e-05
0.00070783
9.20636e-05
0.000107061
0.000465928
6.75512e-05
3.14424e-05
8.00228e-05
3.28852e-05
7.96794e-05
6.8182e-05
0.000142329
0.000163189
4.94416e-05
7.1054e-05
4.22028e-05
0.000145759
0.000172665
0.000470156
0.000183782
4.24964e-05
5.58796e-05
0.000236942
0.000224533
0.000171859
0.000144588
7.94672e-05
6.66896e-05
0.000184069
0.000173836
0.000178028
3.41097e-05
0.000287953
0.000101417
0.000223423
5.90422e-05
0.00015933
0.000182212
3.48373e-05
0.000136594
0.000146479
0.000194205
4.59333e-05
0.000199594
0.000191151
0.000327601
0.000695949
0.000103944
0.000110671
2.89765e-05
0.000168482
0.000622533
8.86701e-05
0.000209322
0.000414053
7.75683e-05
3.12628e-05
0.000146444
0.000259601
0.00012987
5.79333e-05
3.31815e-05
2.71144e-05
3.34028e-05
0.000451012
6.68397e-05
0.000113201
0.000177856
2.61481e-05
0.000717117
0.000614998
0.000220614
0.000127307
2.61582e-05
7.50729e-05
2.32871e-05
0.000325973
0.000112312
0.000137967
0.000405915
0.00012557
0.000191716
0.000230563
4.85228e-05
6.09562e-05
8.9349e-05
3.3795e-05
3.73426e-05
0.000107693
5.59521e-05
0.000510827
2.91821e-05
6.58807e-05
0.000150616
9.88579e-05
0.000181211
2.59023e-05
4.2763e-05
3.81405e-05
6.43771e-05
0.00010642
0.000102256
6.72636e-05
0.000151185
2.69755e-05
0.000464695
0.00034234
0.000142088
0.000124194
8.15686e-05
0.000165466
0.000141085
0.000433433
0.000610974
0.000162411
0.000133322
6.87685e-05
0.000657866
0.000563843
9.4525e-05
2.91423e-05
0.000180309
5.79248e-05
3.36537e-05
0.000125411
0.000635102
7.96322e-05
6.51397e-05
4.39377e-05
7.60668e-05
0.000312295
5.32925e-05
4.73813e-05
9.23759e-05
0.000433229
0.000222139
0.000335006
0.00013872
0.000406907
0.000169537
0.000134377
0.000143475
0.000281529
0.000249704
7.14721e-05
0.000180839
7.62489e-05
0.000707109
0.000473475
6.76367e-05
0.000253656
0.000134635
4.6517e-05
0.000213776
0.000408772
3.39453e-05
0.000217199
0.000109823
2.70068e-05
0.000350168
0.000429917
0.000307216
0.000389853
0.000125302
9.48318e-05
2.54341e-05
0.000345055
0.000435574
0.000109892
4.16432e-05
0.000173029
0.00015183
3.5158e-05
2.69381e-05
0.000430643
0.000427386
0.000177103
4.27742e-05
5.62446e-05
8.00164e-05
3.74175e-05
0.00021919
6.4365e-05
6.62048e-05
0.000603001
2.42184e-05
4.55105e-05
0.000121408
3.27907e-05
7.62365e-05
0.000157048
3.18754e-05
0.000122969
7.11058e-05
0.000149996
0.000434752
0.000123276
0.000276388
4.1944e-05
0.000362976
3.5042e-05
0.000313493
3.22302e-05
3.96054e-05
2.99835e-05
0.000159661
3.10704e-05
0.000128856
0.000134346
7.66916e-05
0.000152588
0.00047379
0.00021669
0.000407217
6.40014e-05
3.59416e-05
0.000160264
5.53398e-05
0.000114044
3.31017e-05
0.0001412
0.000181662
0.000396415
0.000124922
0.000167852
0.000600621
0.000185004
0.000189249
0.00016847
0.000140528
5.3513e-05
0.00067812
0.000569904
7.77323e-05
8.93048e-05
0.000262955
0.000354353
0.000149603
8.14652e-05
0.000169994
0.000563191
0.000177282
0.000112046
5.31906e-05
4.87459e-05
8.5105e-05
3.98186e-05
0.00015422
0.000292984
0.000183416
0.000157901
0.000125734
8.27734e-05
3.311e-05
4.51795e-05
0.000170288
0.000157257
7.41864e-05
0.000125738
0.000408013
0.000282154
6.78819e-05
0.000123175
3.74925e-05
7.55758e-05
0.000485004
0.000174398
9.01402e-05
0.000221964
0.000501273
0.000159034
0.000442039
0.000409397
3.22476e-05
0.000637897
0.000116339
0.000457819
3.99354e-05
4.52972e-05
0.000504072
3.85234e-05
0.000208004
0.000111432
0.000179953
0.000136613
0.000566515
0.000105011
0.000135576
0.00025367
0.000603684
6.67174e-05
3.20077e-05
0.000661763
0.000191927
0.000201354
0.000400769
3.78871e-05
4.82329e-05
0.000137642
2.70194e-05
0.000319736
0.000168706
3.75361e-05
7.38601e-05
7.87614e-05
4.21068e-05
0.000127801
0.00012409
0.000203723
6.32971e-05
0.000318566
0.00058314
7.20797e-05
9.66951e-05
8.76345e-05
0.000104089
3.72859e-05
0.000459835
0.000555421
0.000706713
0.000777331
0.000126652
0.000154526
0.000163201
6.89339e-05
0.000201139
0.000518994
0.000554938
3.88981e-05
0.000142392
0.000355316
0.000162975
0.000831036
0.000288445
0.000422542
0.000579723
8.9915e-05
8.90469e-05
2.51824e-05
0.000125136
0.000228664
9.18127e-05
3.83827e-05
0.000151757
3.43811e-05
6.34367e-05
3.27433e-05
0.000631759
2.87937e-05
6.24615e-05
0.000442796
9.27316e-05
0.000129039
0.000381771
0.000626186
7.61819e-05
0.000144349
3.44757e-05
0.00015617
0.00044401
5.66525e-05
0.000123548
0.000634322
0.000695529
0.00028051
4.74908e-05
0.000329141
0.000171137
0.000280264
0.000110526
4.08839e-05
0.000127545
7.31783e-05
4.49478e-05
6.98647e-05
0.000538736
4.4965e-05
0.0003361
8.63132e-05
3.60035e-05
4.49854e-05
0.000153608
5.04366e-05
0.000149333
4.08267e-05
0.000103273
0.000112435
0.000372109
0.00015321
0.000124239
0.000154876
0.000300152
3.10001e-05
0.000112556
4.8339e-05
0.000128989
0.000330376
5.89455e-05
0.000188321
3.6733e-05
0.000314
4.19566e-05
0.000201473
0.000116014
0.000441938
0.000134744
0.000122001
7.44466e-05
4.58807e-05
4.41154e-05
0.00076293
0.000132882
0.00058232
0.000145102
3.99805e-05
2.89864e-05
3.71472e-05
0.000126664
0.000116632
0.000133793
7.34697e-05
0.000534397
7.43509e-05
0.000165201
6.50224e-05
0.00013059
3.59151e-05
0.00011353
0.000161137
0.000157871
0.000114581
2.67211e-05
0.000400944
7.81808e-05
0.000687756
0.000164544
3.38278e-05
6.07042e-05
0.000182677
0.00021273
0.000161329
5.41804e-05
0.000244582
0.000211079
9.17614e-05
4.40893e-05
0.000386918
0.000177975
0.000325536
7.71655e-05
0.000195878
3.53468e-05
7.13286e-05
0.000150803
0.000124219
4.10161e-05
8.94335e-05
4.85736e-05
3.16675e-05
0.000144443
3.83973e-05
3.33021e-05
0.000435165
6.05406e-05
0.000202346
9.92944e-05
0.000246875
6.0716e-05
0.000578159
7.69248e-05
7.38465e-05
0.000109999
0.000300155
6.79308e-05
0.000120589
0.000229909
0.000168936
0.000103188
0.000128145
0.000118112
0.000699091
0.000159191
4.22248e-05
0.000167345
5.62276e-05
6.861e-05
0.000128324
0.000141099
0.000112346
0.000173928
0.000143011
0.000129
0.000122241
0.000322276
4.27525e-05
0.000504308
4.45445e-05
7.89397e-05
0.000258354
0.000612153
0.000229472
0.000163272
6.50049e-05
3.30937e-05
2.51481e-05
0.000181888
0.000157379
0.000115112
7.22281e-05
0.000196012
0.000479942
0.000145585
4.27935e-05
6.21576e-05
0.00069242
0.000741954
0.000206954
0.000129406
0.000143875
0.000130335
0.000133447
6.84614e-05
0.000122002
3.52159e-05
3.71414e-05
0.000161684
3.89399e-05
0.000181708
3.74729e-05
9.25816e-05
0.000555438
0.000221782
0.000185011
3.04855e-05
0.000105942
0.000542551
0.000153361
5.01769e-05
0.000232025
3.94007e-05
3.27609e-05
0.000123891
0.0001013
3.30882e-05
0.000706774
0.000546144
7.28028e-05
0.000143496
0.000266943
0.000194654
0.000435623
6.16165e-05
7.66693e-05
0.000188055
0.000214662
0.000126776
0.000409397
0.000133226
2.78815e-05
0.00016251
0.000137635
0.00011367
6.74091e-05
0.000120222
0.000123426
8.61317e-05
0.000177796
0.000552661
6.94968e-05
6.59526e-05
0.000235297
3.78194e-05
4.39767e-05
0.000169351
0.000455253
0.000484244
0.000178785
0.000148357
5.01356e-05
7.61717e-05
0.000174366
0.000453336
0.000349533
3.07284e-05
0.000143986
0.000174394
3.09667e-05
4.6346e-05
0.000154616
0.000164032
0.00023328
0.000124884
0.000128155
0.000399347
0.000119402
0.000581534
6.81114e-05
0.000154691
0.00039223
0.000247238
6.68069e-05
8.07114e-05
0.000253884
0.000292408
0.00041797
7.99271e-05
0.000173227
0.000358174
0.000110066
7.95134e-05
0.000208199
7.36679e-05
6.3541e-05
8.21893e-05
6.75249e-05
0.000129466
0.000834678
2.30331e-05
0.000170108
5.60287e-05
0.000124033
0.00011576
0.000387028
0.000210409
0.000118594
0.000136607
3.30875e-05
0.000125628
0.000110919
0.000165958
3.70798e-05
0.000256777
0.000340428
0.000168297
9.07338e-05
2.99695e-05
0.000663123
8.16724e-05
0.000264371
3.76506e-05
0.000179216
0.000177654
4.28596e-05
3.74654e-05
0.000133007
0.000181038
0.000356916
0.000212984
0.000477606
0.000246328
0.00015681
0.000361032
3.29055e-05
0.000204929
0.000251828
3.22216e-05
0.000231983
3.12801e-05
0.00015229
3.14052e-05
7.55688e-05
5.66408e-05
4.44521e-05
5.78315e-05
3.279e-05
0.000149013
8.77929e-05
0.00021463
0.000111539
3.08958e-05
9.94322e-05
0.000247011
2.69733e-05
0.000188974
0.000104533
0.000130516
3.98735e-05
0.000109596
6.40986e-05
5.56636e-05
2.07683e-05
0.000120353
0.000177555
0.000256414
0.000613225
0.000144599
0.000167807
0.000253741
0.000125876
0.000731962
2.48534e-05
0.000503364
4.2794e-05
3.4405e-05
4.63937e-05
0.000668348
0.000266105
0.000146719
0.000298764
0.000127254
0.000148896
0.000100489
6.53818e-05
0.000264435
0.00019199
0.00045065
3.95144e-05
3.85078e-05
9.86099e-05
0.000192779
8.44309e-05
0.000108135
0.000145272
4.80689e-05
0.00016539
4.93152e-05
0.000571082
3.02829e-05
3.23485e-05
0.000155744
0.000198497
0.000211743