/*--------------------------------*- C++ -*----------------------------------*\
| =========                 |                                                 |
| \\      /  F ield         | OpenFOAM: The Open Source CFD Toolbox           |
|  \\    /   O peration     | Version:  2406                                  |
|   \\  /    A nd           | Website:  www.openfoam.com                      |
|    \\/     M anipulation  |                                                 |
\*---------------------------------------------------------------------------*/
FoamFile
{
    version     2.0;
    format      ascii;
    arch        "LSB;label=32;scalar=64";
    class       volScalarField;
    location    "32";
    object      p;
}
// * * * * * * * * * * * * * * * * * * * * * * * * * * * * * * * * * * * * * //

dimensions      [0 2 -2 0 0 0 0];

internalField   nonuniform List<scalar> 
59516
(
0.299188
0.017437
0.016366
0.00223462
0.312792
0.333291
0.300101
0.267425
0.0873552
-0.000402443
0.307474
0.30145
0.210219
0.298463
0.280978
0.0884744
0.300678
0.308384
0.304769
0.297255
0.303919
0.266971
0.299978
0.193831
0.0777975
0.186771
0.109363
0.307254
0.302616
0.280163
0.316152
0.307441
0.139791
0.00183949
0.305019
0.252496
0.0749152
0.311266
0.303251
0.0150122
0.0179859
0.307621
0.304122
0.00163802
0.302664
0.047094
0.303479
0.304037
0.314452
0.305437
0.320412
0.00162875
0.142819
0.272817
0.303473
0.302421
0.308868
0.00200558
0.193609
0.306093
0.00195718
0.246737
0.19466
0.300932
0.00389341
0.302945
0.00955055
0.256984
0.314793
0.302513
0.26144
0.297478
0.0525091
0.298645
0.258563
0.302111
0.303452
0.0331265
0.214112
0.305232
0.00172877
0.305162
0.30417
0.124497
0.305124
0.296516
0.0874342
0.297338
0.141029
0.30836
0.311011
0.263175
0.291853
0.2599
0.260896
0.314168
0.280249
0.268289
0.30487
0.207615
0.0948172
0.172462
0.275356
0.0103481
0.0521382
0.00785611
0.00741482
0.0823251
0.149086
0.215875
0.313041
0.102657
0.263765
0.313549
0.2888
0.239773
0.0361727
0.273219
0.27342
0.0367162
0.275117
0.271206
0.0703851
0.273022
0.3116
0.30505
0.28923
0.309186
0.32021
0.290776
0.288009
0.0178699
0.258264
0.291381
0.292086
0.254849
0.311869
0.284267
0.173566
0.295538
0.103626
0.130369
0.267651
0.102891
0.296182
0.293737
0.303026
0.298393
0.31917
0.292552
0.296082
0.00366629
0.289046
0.00371001
0.290926
0.00624895
0.00502642
0.291811
0.2925
0.282181
0.296279
0.295992
0.281523
0.00522852
0.237766
0.0341282
0.0872843
0.293496
0.294189
0.00504095
0.291053
0.291078
0.28577
0.286861
0.286176
0.30399
0.241279
0.304802
0.0162214
0.238387
0.288854
0.153389
0.182142
0.288024
0.28881
0.09686
0.134241
0.0744234
0.290098
0.287096
0.000515151
0.152109
0.293514
0.287095
0.294728
0.0234655
0.174442
0.1737
0.0046392
0.285084
-0.000379282
0.0731619
0.269495
0.208989
0.246765
0.152945
0.294238
0.00404028
0.199248
0.27767
0.0492779
0.307051
0.27647
0.248194
0.277818
0.110155
0.292923
0.0233393
0.228224
0.278103
0.277909
0.293765
0.285553
0.00537929
0.281405
0.240578
0.19838
0.208788
0.285355
0.042639
0.280641
0.150815
0.285755
0.158731
0.167406
0.286029
0.28437
0.059248
0.284139
0.0632377
0.289401
0.153585
0.148606
0.0040862
0.29053
0.289898
0.287437
0.0145212
0.285769
0.289677
0.0149407
0.287253
0.289848
0.180953
0.288867
0.289514
0.0888986
0.283307
0.220295
0.279709
0.201606
0.281634
0.283412
0.283182
0.252016
0.0674778
0.229223
0.0803887
0.280534
0.19046
0.300735
0.246323
0.0855214
0.194272
0.281905
0.252773
0.190726
0.280526
0.281554
0.110866
0.285267
0.209713
0.195059
0.278787
0.277014
0.299864
0.289286
0.00893655
0.283577
0.253643
0.282568
0.2793
0.260402
0.0339524
0.264072
0.148126
0.25482
0.249834
0.280088
0.253326
0.253121
0.070829
0.115743
0.246116
0.257487
0.186427
0.0231403
0.252863
0.254696
0.0944134
0.0775577
0.25408
0.182186
0.171549
0.302828
0.256499
0.270145
0.314825
0.255615
0.0741515
0.150948
0.268931
0.160706
0.272433
0.209946
0.257193
0.306886
0.270083
0.198514
0.271699
0.0264706
0.296136
0.19534
0.271617
0.222977
0.279561
0.283608
0.245476
0.306249
0.277355
0.248204
0.245404
0.273076
0.0589718
0.122599
0.27716
0.11382
0.282501
0.273333
0.22091
0.285232
0.286869
0.0434311
0.142497
0.198456
0.0602745
0.00940395
0.312948
0.317506
0.239663
0.0387929
0.292057
0.306004
0.264569
0.0381191
0.271683
0.271076
0.292607
0.316583
0.275794
0.100354
0.0987374
0.270561
0.204089
0.234398
0.270077
0.272079
0.265874
0.216944
0.258974
0.293166
0.00180275
0.306679
0.0123941
0.0226024
0.271976
0.00897077
0.30626
0.271228
0.016737
0.0161032
0.0666264
0.266328
0.311548
0.26935
0.311982
0.0136966
0.0885125
0.266173
0.267269
0.279262
0.263698
0.218534
0.279647
0.281085
0.071445
0.17305
0.28129
0.279473
0.278398
0.0470059
0.0261427
0.0285284
0.157741
0.24744
0.0121302
0.0422342
0.0822725
0.00580522
0.265541
0.263066
0.269637
0.269233
0.282227
0.269076
0.207109
0.262347
0.179438
0.269819
0.225109
0.273694
0.268098
0.252553
0.159496
0.279961
0.306765
0.0271668
0.274396
0.203113
0.0977324
0.206644
0.228759
0.276236
0.273929
0.270264
0.268406
0.0942285
0.268171
0.208726
0.0335921
0.231289
0.317663
0.178555
0.0762217
0.270724
0.222565
0.267414
0.167676
0.267629
0.075078
0.268735
0.00497712
0.00937516
0.264344
0.304156
0.261683
0.242287
0.0447888
0.246264
0.244046
0.0501965
0.254452
0.243905
0.23822
0.237554
0.119061
0.247057
0.240285
0.163839
0.237831
0.104947
0.234953
0.307375
0.235155
0.319643
0.236367
0.284563
0.102145
0.117664
0.205481
0.00511812
0.00367371
0.222773
0.252004
0.257207
0.198025
0.241114
0.0596735
0.26392
0.261482
0.308495
0.174345
0.152814
0.209775
0.261142
0.024603
0.254944
0.2996
0.00574449
0.339359
0.262647
0.0789845
0.295816
0.220934
0.301564
0.245183
0.212756
0.235168
0.265167
0.216512
0.265423
0.292075
0.0904377
0.0908751
0.312246
0.00377607
0.263685
0.253372
0.311682
0.251409
0.29596
0.00126594
0.255699
0.102826
0.000618415
0.192782
0.0469376
0.309696
0.27253
0.0842262
0.00341955
0.279883
0.156066
0.254287
0.278906
0.253386
0.29278
0.00104876
0.126631
0.0827538
0.253447
0.0426797
0.18601
0.26382
0.162736
0.262097
0.0032609
0.267176
0.0787942
0.262954
0.206546
0.141087
0.131056
0.265297
0.0028634
0.0517737
0.251904
0.0974304
0.199459
0.228044
0.149551
0.143612
0.251666
0.251041
0.287533
0.249671
0.142305
0.251618
0.249219
0.136256
0.121288
0.00114659
0.250764
0.25035
0.252453
0.115937
0.242009
0.0124743
0.253447
0.00696663
0.265637
0.000963052
0.0291513
0.214529
0.152278
0.0134419
0.253994
0.310016
0.00433268
0.0206692
0.250047
0.24606
0.0400401
0.248479
0.249856
0.168361
0.0483989
0.265779
0.257144
0.0167727
0.252005
0.252273
0.184962
0.24775
0.318768
0.252699
0.312036
0.217203
0.314432
0.220203
0.0274927
0.295111
0.00687287
0.00734052
0.316123
0.314791
0.222347
0.251957
0.309461
0.306288
0.155602
0.124721
0.204797
0.0756319
0.218005
0.144365
0.306593
0.221337
0.223857
0.243706
0.230452
0.316634
0.208182
0.234816
0.0647019
0.235562
0.174835
0.0217039
0.235469
0.234263
0.23574
0.176292
0.106023
0.324865
0.148072
0.152141
0.180836
0.279624
0.236213
0.0768973
0.218223
0.180847
0.0159044
0.0797205
0.238751
0.274564
0.1897
0.176754
0.237972
0.237891
0.0951908
0.286758
0.249528
0.163606
0.24603
0.197865
0.25807
0.243115
0.0124221
0.0304996
0.22094
0.317218
0.173472
0.16208
0.00416393
0.185596
0.242635
0.139228
0.254627
0.249097
0.105703
0.145657
0.252378
0.295576
0.265833
0.201672
0.316636
0.25242
0.0403973
0.262794
0.319381
0.0257556
0.144846
0.279884
0.237241
0.0917102
0.230266
0.0275729
0.0209502
0.201153
0.237793
0.316687
0.267984
0.237156
0.236636
0.243758
0.107171
0.0130532
0.0776598
0.266081
0.316059
0.17935
0.240502
0.161286
0.0686553
0.236358
0.0731795
0.237438
0.300919
0.146681
0.0025075
0.271926
0.113399
0.244498
0.0210075
0.0910994
0.182894
0.275728
0.242264
0.244395
0.317349
0.275775
0.0457873
0.319331
0.00431933
-0.000478251
0.243665
0.0492226
0.132575
0.182685
0.127271
0.316873
0.239642
0.271627
0.234592
0.05376
0.196156
0.0614971
0.149837
0.269778
0.234076
0.236402
0.233713
0.0860536
0.290187
0.219679
0.076387
0.23539
0.233387
0.232439
0.216828
0.235241
0.0225964
0.0141819
0.23366
0.00440827
0.141742
0.162588
0.0123211
0.171004
0.200399
0.298154
0.222542
0.261965
0.205238
0.150499
0.236254
0.238443
0.238624
0.127978
0.237597
0.290679
0.02
0.00340816
0.158779
0.135915
0.00382565
0.237096
0.23386
0.235507
0.0215549
0.0355192
0.233076
0.278955
0.0336978
0.0453937
0.31686
0.308299
0.240228
0.0466187
0.251559
0.222187
0.257615
0.201868
0.230301
0.310734
0.202002
0.201412
0.102988
0.203465
0.311843
0.0382504
0.227774
0.202075
0.121126
0.248561
0.256718
0.104484
0.247594
0.276279
0.250619
0.201795
0.302119
0.0609759
0.201281
0.270069
0.0176245
0.216216
0.0826957
0.198094
0.108739
0.310907
0.206211
0.00392658
0.199342
0.19803
0.21076
0.200427
0.184885
0.00582347
0.0494946
0.247688
0.213793
0.176016
0.25071
0.127174
0.2773
0.0279237
0.212968
0.0944751
0.193
0.251276
0.0182357
0.216449
0.212167
0.313121
0.0291254
0.257843
0.282198
0.047194
0.208299
0.0493109
0.169145
0.23781
0.256428
0.207976
0.206795
0.20607
0.31674
0.0366081
0.255179
0.126241
0.0222203
0.209123
0.261077
0.221479
0.220526
0.0379939
0.223915
0.225893
0.118061
0.284981
0.315349
0.298286
0.168369
0.226091
0.00463236
0.305516
0.203957
0.222741
0.185358
0.225327
0.22364
0.229486
0.250095
0.229885
0.256445
0.224352
0.295082
0.296893
0.223285
0.245897
0.222104
0.256649
0.257333
0.0158566
0.147427
0.175587
0.0154662
0.237247
0.22617
0.239257
0.124477
0.00769395
0.12985
0.222047
0.243174
0.243377
0.143627
0.166471
0.24041
0.313716
0.227901
0.00990291
0.0220785
0.266483
0.229237
0.137036
0.183288
0.226327
0.14845
0.217191
0.217713
0.217354
0.185757
0.245872
0.216787
0.317871
0.0282116
0.216492
0.318113
0.217361
0.283841
0.0485394
0.215266
0.136073
0.103442
0.217473
0.216576
0.133879
0.136823
0.215382
0.114486
0.213057
0.213979
0.222166
0.126935
0.211475
0.0360468
0.214683
0.214093
0.144149
0.212016
0.212634
0.299317
0.206542
0.173931
0.208303
0.210476
0.145819
0.0696992
0.125315
0.306377
0.213123
0.214212
0.180517
0.0713657
0.306876
0.184005
0.187056
0.181803
0.180789
0.0133531
0.00724045
0.0585945
0.119614
0.214152
0.213669
0.00691837
0.266642
0.202057
0.0912725
0.306874
0.176251
0.174964
0.309204
0.178481
0.258457
0.0535674
0.175831
0.251542
0.232707
0.17646
0.13002
0.0464482
0.177144
0.266664
0.238918
0.135921
0.0642548
0.104202
0.185446
0.108003
0.266263
0.103145
0.182543
0.195346
0.313062
0.141118
0.0124812
0.0676523
0.105343
0.1791
0.264502
0.193774
0.193371
0.023858
0.152857
0.00999638
0.196659
0.196633
0.106611
0.0152242
0.235133
0.0460455
0.289058
0.218249
0.2145
0.305342
0.104736
0.252633
0.262995
0.17601
0.0188001
0.214521
0.303057
0.212362
0.209685
0.179093
0.0920162
0.213801
0.0201053
0.304318
0.268117
0.143366
0.213597
0.204176
0.265701
0.29769
0.254249
0.0343977
0.0931925
0.210603
0.220123
0.248296
0.139455
0.243947
0.308232
0.209154
0.246445
0.0833219
0.216688
0.163069
0.100113
0.216248
0.216727
0.215678
0.247025
0.211552
0.0482383
0.212582
0.0917496
0.242047
0.0237183
0.210535
0.245707
0.00478128
0.0267374
0.206663
0.0785033
0.0530233
0.0828861
0.0693684
0.126435
0.0450559
0.20956
0.20774
0.0361901
0.206548
0.208047
0.244482
0.0119476
0.209496
0.201371
0.00246356
0.0284622
0.197817
0.114052
0.00430112
0.0151944
0.198511
0.141969
0.204495
0.300936
0.0195358
0.244674
0.184105
0.203625
0.200077
0.181078
0.231179
0.21231
0.206182
0.188217
0.304003
0.269642
0.204303
0.207508
0.281782
0.0409453
0.267148
0.23138
0.140214
0.131729
0.207153
0.0938085
0.0231537
0.191568
0.197095
0.318801
0.165912
0.197385
0.195212
0.226806
0.092962
0.195385
0.196478
0.294174
0.197008
0.0878956
0.200303
0.200223
0.16062
0.145407
0.175961
0.200049
0.196939
0.19997
0.135245
0.169936
0.204092
0.178367
0.13345
0.142385
0.143063
0.143545
0.166391
0.198112
0.169882
0.307014
0.283451
0.049699
0.119964
0.125644
0.167742
0.165342
0.170252
0.218496
0.166402
0.165583
0.0989638
0.125264
0.232677
0.0984302
0.0391867
0.169335
0.167898
0.17137
0.287469
0.0163975
0.00821742
0.117527
0.181288
0.17774
0.267179
0.0403764
0.168621
0.307132
0.0475931
0.179075
0.179364
0.213508
0.00207092
0.17699
0.177636
0.176734
0.191568
0.00604194
0.00906963
0.19221
0.192014
0.188644
0.190352
0.197436
0.186515
0.0925922
0.0186235
0.311907
0.238589
0.192711
0.191147
0.144247
0.29957
0.292035
0.272112
0.00175463
0.272579
0.193767
0.194057
0.191975
0.192951
0.193907
0.192166
0.261586
0.161163
0.25503
0.169961
0.0920024
0.0164274
0.19514
0.14483
0.00532499
0.172012
0.20073
0.303689
0.202214
0.137264
0.132661
0.23524
0.150343
0.19829
0.20582
0.203221
0.165086
0.178391
0.29973
0.197725
0.252829
0.0884315
0.0727933
0.195199
0.0755199
0.0262678
0.200902
0.199871
0.148196
0.0993411
0.114241
0.284155
0.199685
0.0582702
0.00688172
0.179072
0.0324451
0.141357
0.19338
0.238172
0.178748
0.0296888
0.289555
0.0175712
0.281646
0.156519
0.268092
0.184212
0.0516686
0.195368
0.176066
0.110674
0.133573
0.195966
0.196341
0.290277
0.240183
0.2547
0.295632
0.247023
0.238067
0.238514
0.260007
0.191879
0.190561
0.150126
0.074635
0.0855001
0.0207323
0.269314
0.150842
0.187759
0.185454
0.186594
0.0516438
0.182916
0.256501
0.00577425
0.182587
0.188281
0.214988
0.314422
0.257609
0.2564
0.184025
0.0150602
0.268545
0.186318
0.225072
0.195703
0.229356
0.243712
0.171398
0.26528
0.190107
0.240328
0.1952
0.0234855
0.258214
0.265891
0.153679
0.310095
0.0856912
0.0989975
0.0861982
0.169275
0.25166
0.069235
0.224051
0.0710257
0.191139
0.190985
0.164314
0.198345
0.179673
0.279719
0.231435
0.177369
0.23763
0.185771
0.315475
0.263196
0.185454
0.18016
0.230909
0.275487
0.182157
0.0303589
0.223577
0.279518
0.178827
0.162775
0.183679
0.187071
0.1889
0.189941
0.00463827
0.0860065
0.19112
0.309421
0.189775
0.155207
0.247584
0.152271
0.131908
0.280328
0.309573
0.259003
0.259015
0.260882
0.0402482
0.177618
0.212843
0.308049
0.296156
0.310137
0.31376
0.295919
0.157632
0.153921
0.308569
0.0672176
0.158749
0.237169
0.155287
0.258419
0.243249
0.308285
0.288865
0.258043
0.0854785
0.157913
0.174613
0.167985
0.176644
0.261615
0.238232
0.175393
0.170277
0.172763
0.0186176
0.275733
0.0486247
0.177329
0.209001
0.183667
0.178774
0.172567
0.0488081
0.180684
0.159217
0.179816
0.17887
0.266101
0.162703
0.0923055
0.0553846
0.25037
0.127458
0.126443
0.244186
0.105366
0.0582309
0.0501862
0.0380003
0.240962
0.0793509
0.161771
0.202314
0.0372076
0.272185
0.273246
0.112846
0.109433
0.293075
0.16739
0.0179503
0.196063
0.0378375
0.23493
0.0359716
0.0561139
0.0224203
0.0121529
0.0945807
0.267655
0.0540575
0.0285446
0.0300134
0.175645
0.0342538
0.173223
0.273999
0.177949
0.174893
0.240078
0.0537196
0.18141
0.179982
0.0140906
0.0861288
0.268612
0.181379
0.18204
0.242567
0.274597
0.261966
0.273308
0.0642084
0.300366
0.308599
0.181271
0.182709
0.0155007
0.282532
0.307349
0.179339
0.13594
0.178686
0.0204846
0.262853
0.00784632
0.0533549
0.168282
0.216735
0.170147
0.138331
0.27023
0.126737
0.256814
0.168764
0.169773
0.0832831
0.160453
0.145594
0.303887
0.270199
0.232589
0.168908
0.275831
0.0927228
0.052176
0.0768256
0.0159788
0.16936
0.27251
0.168594
0.0161554
0.0135142
0.265881
0.171014
0.0804146
0.28374
0.17132
0.171926
0.266607
0.0232365
0.264475
0.17252
0.176009
0.177278
0.186558
0.177663
0.260006
0.25607
0.177621
0.291952
0.189969
0.255845
0.216214
0.175227
0.273328
0.171266
0.137215
0.294362
0.194045
0.174095
0.0137844
0.178457
0.177133
0.132593
0.170252
0.235864
0.0672631
0.270338
0.16232
0.247503
0.259818
0.174517
0.190579
0.0124431
0.0808971
0.0648117
0.172582
0.271231
0.0222138
0.168981
0.294614
0.0638378
0.244833
0.0602125
0.169716
0.208066
0.167994
0.00179786
0.22311
0.271276
0.132766
0.0414608
0.0653612
0.128476
0.130462
0.139337
0.268202
0.0129689
0.0418701
0.14588
0.147604
0.25497
0.236192
0.147819
0.154677
0.141456
0.216453
0.29575
0.277885
0.189171
0.0342947
0.25215
0.250845
0.112206
0.0572988
0.23027
0.106227
0.145738
0.239984
0.189415
0.193805
0.164975
0.141325
0.153561
0.153225
0.150919
0.244632
0.156513
0.210711
0.291626
0.271156
0.237501
0.262591
0.14236
0.103603
0.269439
0.157511
0.240557
0.186607
0.248519
0.301965
0.147628
0.00843205
0.159004
0.161412
0.169462
0.267665
0.158228
0.166446
0.192785
0.169327
0.1926
0.161233
0.00204121
0.191063
0.166494
0.165467
0.00604057
0.238797
0.29786
0.190611
0.198996
0.150125
0.168425
0.166925
0.0674752
0.295652
0.16895
0.168727
0.170747
0.0408445
0.268124
0.181384
0.151949
0.190751
0.0982312
0.128703
0.254059
0.156468
0.152206
0.12334
0.152787
0.165569
0.103179
0.156492
0.267728
0.177566
0.0893025
0.266804
0.267865
0.136747
0.137483
0.115756
0.156746
0.0684678
0.160934
0.0753602
0.317503
0.249635
0.206691
0.0983782
0.0242466
0.278366
0.022197
0.0253541
0.156077
0.00240647
0.156584
0.0354781
0.208164
0.108649
0.154952
0.233676
0.209383
0.156331
0.0308321
0.0251677
0.20398
0.153681
0.0448276
0.1572
0.155335
0.177591
0.16346
0.301081
0.241197
0.277992
0.205589
0.235064
0.156114
0.2407
0.207231
0.156396
0.28007
0.304948
0.23378
0.228121
0.156444
0.260516
0.152657
0.278772
0.201533
0.238297
0.0228121
0.0473468
0.225751
0.0123608
0.270481
0.317141
0.282014
0.0145718
0.0660089
0.0218062
0.265821
0.276743
0.00775913
0.209374
0.148102
0.259978
0.215025
0.147611
0.157806
0.0362628
0.229607
0.233796
0.0642876
0.300916
0.278011
0.167947
0.149802
0.312078
0.148623
0.30599
0.232036
0.229689
0.150159
0.288454
0.133087
0.286243
0.267349
0.290806
0.00833821
0.153491
0.298952
0.0806411
0.307803
0.154172
0.292516
0.115948
0.11498
0.122553
0.302018
0.250653
0.289684
0.24942
0.130958
0.298679
0.299148
0.116587
0.30049
0.136398
0.241213
0.12849
0.250434
0.165683
0.111466
0.157777
0.108442
0.158577
0.0241374
0.13798
0.126047
0.279319
0.122206
0.232869
0.175537
0.207952
0.134778
0.0448461
0.10016
0.234877
0.128608
0.278677
0.0863905
0.140724
0.28668
0.239355
0.143152
0.259816
0.141008
0.128427
0.125824
0.163856
0.13499
0.00247987
0.0450472
0.0496283
0.12918
0.130043
0.237332
0.0570122
0.0328716
0.122417
0.0814341
0.277026
0.253119
0.0397284
0.14406
0.210893
0.136079
0.145543
0.116562
0.142608
0.252196
0.1421
0.198873
0.000795286
0.273509
0.195471
0.309422
0.14671
0.142104
0.0254678
0.279549
0.108373
0.147373
0.241185
0.152672
0.148548
0.139478
0.137263
0.0372041
0.151764
0.145559
0.146613
0.14009
0.163503
0.142862
0.273558
0.117905
0.148918
0.276126
0.30913
0.204252
0.122164
0.226971
0.146085
0.133314
0.126715
0.0679996
0.118835
0.108767
0.296628
0.120462
0.163951
0.161692
0.0401281
0.118804
0.273104
0.135978
0.139377
0.193931
0.182791
0.133439
0.212229
0.164486
0.137338
0.13442
0.15288
0.134889
0.271614
0.262083
0.12216
0.117725
0.129954
0.0527704
0.138053
0.164331
0.236571
0.134208
0.139257
0.127297
0.141368
0.274311
0.117158
0.266096
0.13866
0.133907
0.124061
0.134627
0.104599
0.130694
0.106664
0.0931864
0.132625
0.29363
0.151287
0.291383
0.194928
0.0894458
0.0289763
0.115514
0.273235
0.135905
0.134057
0.098565
0.136138
0.0978838
0.275435
0.27377
0.102586
0.103278
0.108042
0.108589
0.219665
0.172844
0.105923
0.106529
0.0800155
0.132144
0.108313
0.108652
0.0623313
0.0600542
0.00267231
0.108957
0.221897
0.0373259
0.173059
0.112988
0.116028
0.121524
0.155769
0.270828
0.138427
0.0993988
0.0144991
0.0233862
0.175426
0.114206
0.108485
0.15007
0.0385796
0.025509
0.115792
0.27238
0.129046
0.131153
0.06124
0.121689
0.302936
0.124881
0.122569
0.171337
0.124909
0.12931
0.272458
0.130037
0.147518
0.0231466
0.00528295
0.214111
0.0451197
0.0259057
0.134227
0.110534
0.272804
0.13161
0.282457
0.282601
0.127911
0.271323
0.00908805
0.123567
0.131789
0.0421594
0.133308
0.282872
0.309533
0.0611704
0.278368
0.131095
0.235385
0.258958
0.132061
0.138015
0.280955
0.129268
0.301453
0.131476
0.159551
0.142739
0.302258
0.278274
0.16111
0.134796
0.130695
0.245143
0.159112
0.245416
0.278377
0.274228
0.135077
0.0154355
0.135756
0.126062
0.243624
0.102597
0.244325
0.0514464
0.258738
0.000476091
0.273764
0.160145
0.113399
0.124649
0.276864
0.121937
0.273201
0.26583
0.276396
0.0166191
0.00446301
0.247161
0.0047806
0.121713
0.157735
0.212879
0.119193
0.266423
0.181618
0.270927
0.116286
0.268794
0.223454
0.243208
0.310674
0.165254
0.295759
0.11581
0.0127702
0.181987
0.0122428
0.308019
0.0566307
0.175682
0.243502
0.127931
0.121441
0.0173352
0.0414927
0.123912
0.250361
0.276268
0.0083474
0.28327
0.160601
0.300957
0.0729496
0.252959
0.123681
0.223986
0.278127
0.221046
0.207452
0.233757
0.254865
0.27095
0.204717
0.0529532
0.239046
0.12621
0.126334
0.126066
0.0752264
0.294826
0.296007
0.241163
0.138008
0.266348
0.274183
0.138047
0.127084
0.125781
0.121407
0.294978
0.0601471
0.118843
0.188528
0.121724
0.238852
0.220737
0.146212
0.0715421
0.12267
0.120624
0.171766
0.306613
0.198462
0.120844
0.268104
0.0857054
0.0651017
0.290467
0.00628032
0.085226
0.017472
0.0856141
0.0855703
0.269275
0.119069
0.222698
0.267642
0.149453
0.127201
0.277819
0.0903825
0.27457
0.114071
0.117695
0.117927
0.243262
0.205121
0.274028
0.249189
0.263716
0.100934
0.176262
0.278542
0.260475
0.12693
0.259588
0.0879546
0.239484
0.0571665
0.242207
0.121246
0.217065
0.107405
0.164641
0.260094
0.0855191
0.260882
0.0653891
0.131063
0.105304
0.0377699
0.1107
0.103615
0.146913
0.274098
0.108492
0.0494597
0.0220462
0.244188
0.0243616
0.262753
0.00515605
0.113373
0.0614473
0.112323
0.260585
0.264779
0.0569708
0.29372
0.0397623
0.00257032
0.242631
0.219066
0.110891
0.260959
0.0834612
0.0240478
0.143149
0.00342299
0.18263
0.232352
0.169173
0.113432
0.305104
0.11488
0.186656
0.242696
0.152802
0.264028
0.110767
0.166888
0.109684
0.17243
0.293268
0.11779
0.101698
0.173216
0.110343
0.193593
0.109268
0.0712103
0.108984
0.293247
0.10859
0.104092
0.107428
0.286004
0.137909
0.275613
0.29713
0.29528
0.212001
0.0587321
0.0791295
0.221561
0.261209
0.0271057
0.0759715
0.107436
0.105727
0.262839
0.308065
0.00353515
0.0388527
0.0973091
0.27561
0.03908
0.154369
0.263342
0.104596
0.103074
0.104275
0.100915
0.104536
0.213479
0.129063
0.258716
0.027903
0.108613
0.104892
0.287947
0.164826
0.283335
0.299161
0.0566259
0.10534
0.0788043
0.286092
0.28906
0.282867
0.281325
0.145787
0.0777546
0.276694
0.057154
0.105118
0.254668
0.117494
0.104094
0.0825089
0.101953
0.252372
0.250665
0.104712
0.186475
0.117866
0.117176
0.305504
0.0299092
0.0644363
0.105138
0.105956
0.00980295
0.105743
0.0803309
0.11207
0.247102
0.106284
0.0200742
0.114101
0.00957201
0.288912
0.280635
0.147632
0.108857
0.111968
0.128811
0.0955346
0.0869492
0.131579
0.0919289
0.0904288
0.0793729
0.0922257
0.290654
0.259838
0.154889
0.243305
0.0971419
0.251164
0.0773863
0.243153
0.202008
0.232869
0.0938785
0.176123
0.0218944
0.2513
0.271002
0.107898
0.313106
0.097036
0.0995271
0.167375
0.0255111
0.129809
0.100427
0.250048
0.076414
0.107441
0.104476
0.072414
0.207836
0.0724509
0.0711701
0.0733041
0.0742188
0.0728066
0.245504
0.246649
0.253877
0.242519
0.0459606
0.0733568
0.284498
0.0806821
0.0445413
0.0798928
0.0791096
0.0476306
0.080335
0.0789684
0.0794829
0.100618
0.0969588
0.179214
0.11087
0.125309
0.161959
0.139201
0.128581
0.0471411
0.101475
0.100338
0.0761389
0.0821083
0.0985027
0.19574
0.0200858
0.231712
0.30523
0.181539
0.294466
0.0992176
0.0220107
0.0237615
0.0237594
0.135323
0.0248893
0.0954607
0.0982303
0.276785
0.312731
0.168262
0.0887793
0.280775
0.152407
0.18791
0.0972609
0.191137
0.0973006
0.196859
0.0819011
0.0431033
0.0525331
0.0926062
0.00176096
0.100189
0.279035
0.073903
0.228913
0.0293312
0.0896915
0.0922522
0.261701
0.125914
0.197272
0.141168
0.196106
0.0909935
0.0176086
0.282326
0.109733
0.182668
0.277847
0.277791
0.0936817
0.0796187
0.0946953
0.144187
0.093766
0.192195
0.260829
0.148064
0.0952271
0.0959496
0.153166
0.174992
0.21592
0.0951942
0.0973027
0.0977628
0.279242
0.0963624
0.0979257
0.0348754
0.0860424
0.0453196
0.0172768
0.0442075
0.0276156
0.0842445
0.0865552
0.0141617
0.0682437
0.0137628
0.276025
0.088328
0.0496903
0.276511
0.212334
0.13281
0.0760484
0.0920942
0.0144655
0.0896331
0.20344
0.142681
0.0881383
0.283055
0.0429928
0.00464866
0.0890674
0.32017
0.140482
0.185074
0.015965
0.0895706
0.0886897
0.215836
0.0158991
0.138943
0.179195
0.0825868
0.0891307
0.0918782
0.312373
0.291246
0.283714
0.134541
0.0450784
0.0179194
0.015888
0.285724
0.0159265
0.0559363
0.0929083
0.308632
0.109392
0.0947764
0.257726
0.284907
0.203712
0.193542
0.0939817
0.0914393
0.276765
0.237604
0.251702
0.0270908
0.232569
0.0604936
0.127192
0.049778
0.0904489
0.14469
0.290835
0.145509
0.14342
0.299938
0.085189
0.278572
0.064034
0.191047
0.224288
0.290438
0.14532
0.282129
0.0805347
0.0670811
0.0398296
0.0851734
0.282659
0.0645347
0.0582492
0.175135
0.0664345
0.0663763
0.0717414
0.0231933
0.13217
0.0870934
0.103266
0.0606853
0.0790313
0.0699423
0.0476878
0.285376
0.198941
0.0643419
0.089229
0.317336
0.168998
0.0854324
0.181895
0.0863234
0.161445
0.0841794
0.283518
0.0628115
0.314217
0.054145
0.0483366
0.176554
0.0655761
0.19345
0.16908
0.204386
0.0266426
-0.000957388
0.0361691
0.0302182
0.0542175
0.0194486
0.0597953
0.0557227
0.0550175
0.297979
0.0364226
0.286168
0.286234
0.0432331
0.272616
0.090334
0.27985
0.260566
0.0624888
0.274956
0.0628246
0.00250785
0.203567
0.130007
0.26584
0.259558
0.142876
0.0215767
0.0391503
0.206307
0.224562
0.0643132
0.0623172
0.0842159
0.228442
0.249684
0.18469
0.0226226
0.0164626
0.0835921
0.209968
0.231326
0.253458
0.298503
0.0859392
0.266708
0.244515
0.183132
0.315079
0.129857
0.167826
0.213179
0.080824
0.288399
0.0144969
0.125441
0.243894
0.21988
0.258698
0.28678
0.0254375
0.125088
0.0836629
0.149717
0.0846328
0.138707
0.153834
0.148642
0.107456
0.0842218
0.0831861
0.0806392
0.109368
0.296931
0.118335
0.10615
0.113325
0.2813
0.248094
0.0239898
0.288028
0.0839296
0.0805189
0.169011
0.0707971
0.0713309
0.0993026
0.0244938
0.070009
0.0752255
0.017449
0.0662334
0.0647545
0.0714157
0.0938137
0.0784464
0.0792154
0.285668
0.052203
0.0636999
0.0466532
0.0861196
0.0461808
0.0428861
0.0817335
0.0192241
0.0204947
0.116196
0.0470489
0.0418071
0.287237
0.0822143
0.0627624
0.0580374
0.0219441
0.0519183
0.0814289
0.083871
0.0745681
0.13172
0.180845
0.208209
0.155878
0.0209298
0.0741807
0.0725063
0.0748877
0.238193
0.114193
0.0833495
0.304543
0.0733891
0.113458
0.0728792
0.0753446
0.200323
0.207377
0.0724469
0.121388
0.261197
0.259711
0.114535
0.0733362
0.284728
0.0732528
0.158372
0.0739198
0.309235
0.074467
0.234807
0.0727458
0.199836
0.24279
0.279159
0.254481
0.0714727
0.245925
0.178044
0.199382
0.0733012
0.0301995
0.129148
0.181576
0.0732613
0.0726682
0.0737036
0.129102
0.0656595
0.299326
0.217342
0.0280334
0.285391
0.0690405
0.277637
0.0277663
0.063125
0.0673274
0.237447
0.0727613
0.204811
0.297084
0.064071
0.0687357
0.111386
0.29217
0.237729
0.236536
0.0698356
0.249707
0.212776
0.068197
0.114281
0.0965042
0.0670425
0.0670526
0.204542
0.252781
0.0745439
0.117244
0.0945913
0.282787
0.277216
0.28206
0.0729413
0.28434
0.0491703
0.223872
0.258943
0.147912
0.201712
0.0729589
0.289604
0.0350958
0.0394302
0.0424156
0.123155
0.042639
0.132488
0.129844
0.115108
0.143474
0.231333
0.117684
0.175221
0.0106404
0.0493437
0.0998366
0.167292
0.0697612
0.187425
0.262657
0.135317
0.226076
0.217907
0.0131868
0.0421883
0.198141
0.0498771
0.000591695
0.288187
0.239097
0.27648
0.0404362
0.287917
0.110131
0.274186
0.10501
0.278215
0.104263
0.283921
0.0461856
0.250236
0.0669611
0.212497
0.106551
0.219427
0.10996
0.32349
0.0678719
0.0916321
0.232105
0.213189
0.065332
0.143109
0.21344
0.0678878
0.191679
0.0268801
0.191158
0.0619525
0.0598872
0.0925242
0.287693
0.0680135
0.043041
0.067084
0.0691787
0.124561
0.240959
0.077541
0.0697564
0.124139
0.124301
0.00535773
0.279951
0.0673021
0.0889263
0.161538
0.221577
0.00233866
0.0693322
0.285634
0.0574614
0.0550324
0.176599
0.0328041
0.0488147
0.259056
0.069176
0.282517
0.129418
0.0439336
0.0543335
0.145668
0.051873
0.0670369
0.0984176
0.0634462
0.0652101
0.0638578
0.0269219
0.17018
0.0622244
0.088125
0.0594034
0.0803188
0.089759
0.0613964
0.0582002
0.279545
0.0632354
0.0545092
0.0580303
0.285463
0.0678239
0.0566336
0.0789672
0.211494
0.0846367
0.0615051
0.0689251
0.059848
0.003032
0.283066
0.0855365
0.0598999
0.04452
0.291779
0.114236
0.0303359
0.0579583
0.0124628
0.124533
0.281832
0.0570904
0.280215
0.0532977
0.035152
0.285043
0.280969
0.29045
0.0429138
0.286642
0.0173162
0.0205443
0.058667
0.0304792
0.0261911
0.0724947
0.213967
0.28603
0.274715
0.295448
0.271975
0.168435
0.122601
0.0449058
0.0548409
0.064424
0.159925
0.180407
0.10992
0.239497
0.0844101
0.0601246
0.194627
0.0761391
0.273018
0.27288
0.033438
0.274735
0.180894
0.249516
0.291808
0.0560709
0.227173
0.183558
0.194985
0.183034
0.0569533
0.140025
0.275999
0.293618
0.0684036
0.269838
0.291557
0.280979
0.233884
0.0477541
0.295173
0.0506005
0.262645
0.263168
0.0504545
0.0560226
0.045034
0.161975
0.287574
0.117619
0.182043
0.0459468
0.201963
0.287933
0.0601
0.236293
0.0578841
0.24072
0.272961
0.295582
0.271734
0.0980904
0.108546
0.129232
0.227811
0.0602639
0.255421
0.256375
0.0583297
0.242944
0.139905
0.0582639
0.182056
0.247258
0.0565797
0.276209
0.0477083
0.252059
0.299512
0.0532575
0.15343
0.054068
0.186772
0.0566896
0.0268651
0.288027
0.189785
0.0923498
0.125603
0.16001
0.151586
0.0230349
0.143938
0.141683
0.275267
0.193826
0.302813
0.263118
0.0763016
0.280723
0.0284525
0.0293991
0.204288
0.173887
0.243148
0.242482
0.0311475
0.0269721
0.139083
0.284241
0.230514
0.262759
0.30007
0.0306905
0.233219
0.19113
0.233993
0.241264
0.178483
0.28905
0.246175
0.251041
0.0703275
0.0758964
0.298888
0.0307836
0.0272004
0.051904
0.266161
0.285043
0.288873
0.050295
0.0477196
0.211872
0.0498526
0.0510701
0.218245
0.294152
0.241019
0.0795343
0.273978
0.139185
0.237859
0.240064
0.295529
0.048405
0.174868
0.175577
0.0509424
0.0478817
0.0461208
0.0489798
0.18731
0.0508593
0.294815
0.234397
0.215714
0.0507637
0.0449849
0.100594
0.227259
0.296404
0.136003
0.121692
0.29345
0.0222302
0.0392717
0.0801552
0.125982
0.038808
0.0500615
0.0515706
0.097121
0.052196
0.293298
0.294678
0.107119
0.293176
0.171645
0.0964
0.0469301
0.0769461
0.0718281
0.0857991
0.0497718
0.0425068
0.0541431
0.0625774
0.0449691
0.0745653
0.0798715
0.228541
0.0453035
0.049351
0.0872811
0.0296326
0.051532
0.0454459
0.0419882
0.0430019
0.0444366
0.292824
0.0469314
0.0509757
0.164301
0.165229
0.283129
0.17276
0.289987
0.258319
0.266303
0.284039
0.151756
0.043381