/*--------------------------------*- C++ -*----------------------------------*\
| =========                 |                                                 |
| \\      /  F ield         | OpenFOAM: The Open Source CFD Toolbox           |
|  \\    /   O peration     | Version:  2406                                  |
|   \\  /    A nd           | Website:  www.openfoam.com                      |
|    \\/     M anipulation  |                                                 |
\*---------------------------------------------------------------------------*/
FoamFile
{
    version     2.0;
    format      ascii;
    arch        "LSB;label=32;scalar=64";
    class       surfaceScalarField;
    location    "32";
    object      phi;
}
// * * * * * * * * * * * * * * * * * * * * * * * * * * * * * * * * * * * * * //

dimensions      [0 3 -1 0 0 0 0];

oriented        oriented;

internalField   nonuniform List<scalar> 
113358
(
-1.52705e-05
3.20887e-05
-2.22607e-05
5.44266e-06
2.30371e-05
3.27025e-07
-6.24921e-06
-1.71159e-05
-2.65285e-05
2.03126e-05
-3.2681e-06
9.48413e-06
-2.40685e-05
-6.55108e-06
2.39854e-05
6.63425e-06
-1.73047e-05
9.42808e-07
3.01792e-05
-1.38174e-05
1.36177e-05
-1.41967e-05
-7.96107e-06
8.54024e-06
-7.33899e-06
3.52524e-05
-2.54116e-05
-2.49746e-06
-8.34637e-07
-3.32223e-05
1.81618e-05
1.58966e-05
8.71749e-06
5.66197e-07
1.8542e-05
-2.78259e-05
7.98622e-06
3.96607e-06
-1.1637e-05
-3.15378e-07
-6.10471e-06
2.27488e-05
-2.10974e-05
4.45305e-06
-1.53616e-05
-6.85916e-08
-3.00213e-07
1.57307e-05
-4.64411e-05
3.65996e-06
1.26656e-05
3.01142e-05
1.31595e-06
-2.81473e-06
1.49966e-06
2.15364e-06
-1.50612e-06
2.09422e-05
-2.15952e-05
1.14436e-06
3.39427e-07
1.25481e-05
-1.40263e-05
1.00979e-05
3.31137e-05
-2.76386e-05
-1.55724e-05
-1.96025e-05
1.08987e-05
6.83624e-06
1.86744e-06
1.48163e-05
-3.83599e-05
3.26348e-05
-9.09153e-06
2.42077e-05
3.33256e-06
2.71846e-05
-5.4728e-05
1.94483e-05
4.38748e-07
-4.82147e-07
-1.94046e-05
-1.15387e-05
4.60285e-05
4.27568e-06
-3.87724e-05
-4.35593e-07
-4.47683e-05
4.7947e-05
-2.73988e-06
-9.93048e-07
4.78048e-06
3.43105e-07
-4.13093e-06
-4.65116e-05
2.04091e-05
-3.81012e-06
2.99175e-05
-2.3698e-05
5.53818e-06
1.95472e-05
-1.38606e-06
-1.01833e-05
9.88848e-06
-1.85447e-07
4.79158e-07
-2.00421e-06
-7.59156e-06
5.5082e-06
4.08746e-06
1.96366e-05
-3.19401e-07
1.32643e-07
-2.47691e-06
2.47174e-06
6.07416e-09
-5.42562e-06
-2.58611e-05
2.74411e-05
3.84548e-06
5.23324e-06
-3.02927e-07
-8.21977e-06
3.28942e-06
2.05984e-05
-1.15011e-06
1.11871e-06
-2.0567e-05
-2.84473e-05
1.28348e-05
-2.97843e-06
1.85913e-05
1.7594e-05
2.10216e-06
-1.98999e-05
2.04724e-07
-3.38743e-05
8.28135e-06
-1.18664e-05
3.74537e-05
-4.05224e-08
-2.40013e-06
2.44117e-06
9.31263e-06
1.09037e-05
1.81539e-06
-2.2033e-05
7.26718e-06
-3.7992e-05
3.1154e-05
-4.31229e-07
-3.42388e-06
4.69004e-06
3.54997e-05
-3.67639e-05
-1.98629e-05
1.6591e-05
-2.06817e-05
2.39513e-05
6.75935e-07
-2.37261e-05
-3.11013e-05
5.4153e-05
-7.0172e-07
4.31327e-05
-1.19488e-05
-3.04855e-05
5.45175e-06
-1.9149e-05
-7.74037e-06
-5.61676e-06
3.26463e-05
-4.81429e-07
-2.65481e-05
-2.42955e-06
1.68511e-05
-1.13e-05
-3.12166e-06
-3.05458e-05
-1.16105e-05
4.14546e-05
-1.04387e-05
3.45674e-05
1.09802e-06
-2.52273e-05
-3.40898e-05
4.2763e-06
-5.53396e-06
3.5348e-05
3.48069e-05
1.51864e-05
-4.61779e-05
-3.81551e-06
2.32206e-05
-1.61766e-05
1.555e-06
-8.59917e-06
-1.1347e-05
3.38191e-06
1.13576e-05
-3.39207e-06
3.02754e-05
-7.83362e-06
1.70934e-05
-3.95318e-05
-1.03941e-05
-3.8939e-05
4.20201e-05
7.3165e-06
-2.13447e-06
7.99918e-06
-9.15082e-06
3.28607e-06
2.86913e-05
-1.25435e-05
2.0348e-05
-3.64957e-05
-2.10282e-05
4.7426e-06
3.69275e-05
-2.0641e-05
1.29295e-05
-6.35456e-06
5.14587e-06
-1.17204e-05
3.57354e-05
-9.10697e-06
-2.76861e-05
1.05717e-06
-1.27382e-05
-1.47585e-05
7.89468e-06
1.9602e-05
-3.05349e-05
-4.87318e-06
1.45517e-05
2.08565e-05
-3.15417e-06
3.58985e-06
-4.35794e-07
3.33616e-05
-5.58124e-06
-3.27043e-05
4.92294e-06
-1.48156e-05
-4.10076e-05
1.56102e-05
4.02134e-05
-4.27327e-06
4.52257e-06
-3.60408e-05
3.57926e-05
1.97538e-06
2.15681e-05
2.25338e-06
-2.57965e-05
3.92297e-06
-3.24473e-06
-6.77693e-07
-4.15308e-09
6.1885e-08
1.24807e-05
-1.25406e-05
6.22015e-06
-3.01445e-05
3.26073e-05
-8.68338e-06
1.03086e-05
-2.4387e-05
2.30143e-05
-8.93594e-06
8.0697e-06
-8.35172e-06
2.85538e-07
-1.85726e-05
-6.22577e-06
3.23199e-05
-7.52264e-06
-2.67392e-07
4.47707e-06
-4.21061e-06
7.11338e-06
-2.92818e-05
9.4691e-06
1.27006e-05
4.29416e-05
-3.34953e-06
-2.886e-06
-3.67043e-05
-2.71432e-05
-3.18896e-05
3.48576e-05
2.41774e-05
3.1955e-06
-3.61718e-05
5.83244e-06
3.55929e-05
-2.83643e-05
-9.18245e-07
-6.31165e-06
1.10657e-07
1.96668e-07
-1.64886e-05
1.61847e-05
6.95076e-06
7.65061e-06
1.24455e-05
-2.7046e-05
8.59543e-06
-4.5198e-06
3.55456e-06
-7.63027e-06
-1.59125e-05
-1.07551e-05
2.72261e-05
-5.58653e-07
-2.12505e-05
2.60958e-05
-1.85086e-05
1.36628e-05
-3.39148e-06
1.00557e-08
3.38151e-06
-3.02123e-05
3.12476e-05
-3.18222e-05
2.47823e-05
-3.15532e-06
-1.04869e-06
-6.70049e-07
4.87325e-06
6.31338e-05
-6.11233e-05
1.88151e-06
-3.89898e-06
-1.25486e-05
3.91741e-06
1.2185e-05
-3.55251e-06
-4.58096e-06
2.57661e-05
-2.84127e-05
7.22592e-06
-1.78417e-05
-2.12399e-05
3.14158e-05
7.66628e-06
8.93063e-06
-1.26701e-05
1.83126e-05
-1.45719e-05
7.2736e-06
2.311e-05
-4.82333e-05
1.78495e-05
-3.3462e-05
1.1933e-05
1.44548e-05
7.0739e-06
8.27695e-07
-2.83318e-05
2.30361e-05
4.46618e-06
-2.71105e-05
2.50633e-06
9.66173e-06
1.49424e-05
2.34277e-05
-2.01995e-05
7.03987e-06
-1.02717e-05
1.44761e-06
1.284e-05
-1.40619e-05
-2.28444e-07
1.76368e-05
-2.41726e-06
-2.72532e-06
-1.24937e-05
1.57215e-05
1.8047e-05
-1.54308e-05
-1.83386e-05
2.57796e-06
-8.34588e-07
4.68398e-06
-6.42827e-06
5.13687e-06
-3.08158e-07
-4.82879e-06
4.25645e-08
4.26254e-06
-4.30525e-06
-5.14643e-07
3.1989e-06
-1.4086e-05
1.14029e-05
-2.0285e-05
4.16827e-05
4.26873e-07
-2.18323e-05
4.73947e-06
-2.13496e-05
1.65002e-05
1.11033e-07
-3.33348e-06
-4.47798e-06
1.24161e-06
6.57078e-06
-6.02764e-06
-1.46588e-05
3.77848e-06
1.69118e-05
-3.1257e-06
2.05627e-05
8.82452e-06
-2.62582e-05
4.40323e-06
3.97173e-06
-1.92804e-05
1.09057e-05
-2.75625e-06
2.82772e-05
-3.22397e-05
6.71928e-06
-8.1134e-06
8.35508e-06
-2.35637e-07
1.95039e-05
-2.41199e-05
3.79737e-06
8.14656e-07
1.84959e-05
1.07527e-05
-3.24299e-05
3.18163e-06
-2.60303e-05
-1.44367e-05
7.23864e-06
3.3229e-05
-2.3511e-06
-2.20333e-05
9.14094e-07
2.34701e-05
1.3721e-05
-1.42407e-05
9.13012e-08
4.28705e-07
1.63974e-05
-2.84908e-05
-5.56659e-06
1.76627e-05
-3.78576e-06
2.99979e-07
3.48492e-06
-4.26268e-06
-1.41972e-06
2.90979e-05
-2.34133e-05
-1.35846e-05
8.50399e-06
4.3505e-05
-3.84256e-05
-1.00721e-05
2.03582e-05
-3.02908e-05
2.00071e-05
1.6187e-06
-2.49861e-05
1.99485e-05
3.41295e-06
-3.64414e-06
-8.69104e-06
3.09755e-05
-1.864e-05
2.31403e-05
-9.93925e-06
-1.01631e-05
-3.03741e-06
-2.68354e-06
-1.26359e-05
1.82338e-05
-2.91162e-06
6.63743e-06
-3.24246e-06
-3.39449e-06
-1.067e-06
-2.52584e-05
-6.3599e-06
3.26866e-05
-1.4751e-05
2.06279e-05
5.87752e-06
-1.17543e-05
5.21381e-06
-1.29451e-05
2.21828e-05
-1.44516e-05
-4.24929e-05
9.96197e-06
-7.00376e-07
3.32334e-05
-2.62394e-06
-4.36785e-05
3.94353e-05
6.86972e-06
5.77912e-08
-4.32817e-06
4.27282e-06
2.11756e-05
-3.24878e-05
5.96302e-07
1.07165e-05
3.71632e-05
4.23577e-06
-3.99457e-05
-1.45294e-06
1.15317e-05
1.15995e-06
-2.6943e-05
1.42538e-05
-9.38181e-06
1.29669e-05
1.49108e-05
-2.70631e-05
-2.25208e-05
1.30769e-05
3.65035e-05
6.29803e-06
3.28281e-06
-4.44457e-06
7.15023e-06
-5.43954e-06
-2.73542e-05
2.56428e-05
4.9387e-06
1.538e-05
-6.99418e-06
-1.33257e-05
-6.93648e-06
1.5008e-05
3.10579e-05
-3.91278e-05
1.88593e-07
2.64464e-06
-2.83311e-06
-2.29072e-05
3.63369e-06
1.4038e-05
5.23116e-06
3.20186e-05
-1.71409e-05
-2.16639e-05
6.78694e-06
3.27303e-05
-8.12016e-06
-3.62421e-06
-2.09863e-05
-2.90647e-05
-5.66717e-07
-9.20597e-07
3.05529e-05
2.58946e-05
1.20814e-05
-3.62017e-05
-1.77611e-06
6.92658e-06
4.83466e-06
-1.17611e-05
1.81362e-06
-2.62869e-05
-1.93288e-07
2.46631e-05
4.18146e-05
-3.21666e-05
-3.04238e-06
-6.60201e-06
4.96688e-06
-6.9804e-07
-3.97716e-06
-2.91826e-07
-3.17214e-05
4.49166e-05
1.85454e-05
-3.17373e-05
1.81599e-05
-2.90287e-05
-2.89555e-06
1.37646e-05
-2.52007e-05
2.73463e-05
-8.91877e-07
-1.25048e-06
-3.33751e-06
1.65065e-06
1.68688e-06
3.64532e-05
-3.98989e-06
1.01018e-05
-4.25632e-05
-2.69122e-05
3.62429e-05
-3.45283e-05
9.0894e-08
2.61628e-06
1.98067e-05
-2.25119e-05
2.96829e-06
-2.86757e-06
-1.01822e-07
-1.2074e-05
-6.68589e-06
1.15589e-06
1.76056e-05
-9.07434e-06
2.28444e-05
-1.7517e-05
3.74819e-06
1.72642e-06
-5.32947e-06
3.3301e-06
2.72829e-07
-2.11072e-06
-1.96827e-06
4.07848e-06
-2.39735e-05
2.37532e-05
2.38159e-05
-2.35948e-05
4.92066e-05
-1.25291e-05
-1.06727e-05
-2.60053e-05
1.40247e-05
6.5651e-07
-4.73453e-07
-1.42094e-05
3.30349e-05
-4.03522e-05
5.57375e-06
1.74306e-06
3.41501e-06
-5.47831e-08
-3.35964e-06
-5.80702e-06
2.82699e-05
-2.72312e-05
4.76988e-06
-1.48567e-05
1.54956e-05
-1.72247e-06
1.08327e-06
-1.13917e-05
9.98215e-06
6.9113e-07
7.17559e-07
2.71566e-06
-2.13979e-05
7.6513e-06
1.10306e-05
-1.13887e-05
-1.08142e-05
2.63078e-05
-4.10484e-06
-1.60773e-05
1.57522e-05
2.92866e-07
3.29108e-08
-3.09533e-05
-3.5529e-05
3.59394e-05
-1.09931e-05
3.45281e-05
1.09206e-05
-3.44547e-05
5.78089e-06
3.0927e-05
6.36892e-06
-4.30784e-05
-1.44669e-05
6.31527e-06
1.96438e-05
-1.14917e-05
-1.58691e-08
7.73234e-08
1.16783e-05
-1.17383e-05
1.53074e-06
3.80397e-05
-5.62357e-06
-3.39457e-05
-4.29639e-06
-2.80593e-06
4.66767e-06
2.43467e-06
4.7214e-06
-4.46037e-06
-2.62044e-07
-3.87531e-06
-1.32607e-05
1.05911e-06
-2.75482e-05
3.89978e-07
-5.39353e-06
3.25521e-05
-1.61485e-05
1.45089e-05
4.40313e-07
1.19889e-06
-4.86637e-07
9.04925e-06
-1.38867e-07
-8.42296e-06
-3.21182e-06
3.14746e-06
6.02798e-08
3.28133e-06
-8.25269e-07
2.15995e-05
-2.40581e-05
3.0041e-05
3.32038e-06
-2.60504e-05
-7.3091e-06
-3.37337e-06
-1.5541e-05
-1.02184e-05
1.50268e-05
-1.65299e-05
1.08892e-06
4.16118e-07
7.24551e-06
-3.06072e-05
3.61371e-05
-1.27753e-05
1.2034e-05
2.52957e-06
-6.3692e-06
-8.19019e-06
-1.62856e-05
-3.8163e-05
9.48552e-06
4.49601e-05
4.8736e-08
2.87793e-06
-2.18285e-07
-2.71061e-06
1.07022e-05
-6.85567e-07
1.69645e-06
-1.17139e-05
-1.08962e-05
2.19462e-07
1.07718e-05
-9.57604e-08
2.31686e-05
3.97019e-06
-2.92487e-05
2.11026e-06
-3.04892e-05
-1.75684e-05
3.91961e-05
8.86099e-06
-7.40532e-06
3.13961e-06
-6.91899e-06
6.39e-06
2.67447e-05
-3.43567e-05
1.22242e-06
-2.36086e-05
-2.39752e-05
9.7906e-06
3.78001e-05
-3.05189e-06
3.3295e-06
-2.77743e-07
1.8361e-05
1.05496e-05
-2.19481e-06
-2.67109e-05
-7.35363e-07
-4.3952e-06
-2.90036e-05
3.41347e-05
-2.05697e-05
5.20738e-06
5.01186e-05
-3.47582e-05
2.66175e-05
-1.98886e-05
-1.02706e-05
3.54137e-06
2.88509e-06
-9.30045e-08
-2.79242e-06
4.43028e-05
-2.17671e-05
3.04864e-06
-2.55852e-05
1.02524e-05
-1.10205e-05
1.3523e-06
-5.87591e-07
2.51197e-06
2.39422e-06
-4.90603e-06
-1.64609e-05
-2.14323e-05
4.31765e-06
3.35708e-05
-1.24502e-05
2.35377e-07
1.28796e-05
-6.61287e-07
2.17183e-05
-4.49939e-05
5.73286e-07
2.27028e-05
-2.04641e-05
-2.54957e-05
3.36837e-05
1.22759e-05
-1.31676e-05
1.7477e-05
2.84203e-05
5.35962e-06
2.80233e-05
-2.93797e-05
-4.00166e-06
2.05261e-06
1.53816e-06
-1.3824e-05
1.02322e-05
-3.29758e-05
1.46268e-05
1.1742e-05
6.60851e-06
1.47031e-05
3.8533e-06
-1.66453e-06
-1.68988e-05
-3.4715e-06
-2.67033e-05
2.75957e-06
2.74161e-05
6.55037e-06
-2.51434e-06
2.58499e-05
-2.98856e-05
-2.29013e-06
-5.26877e-08
-5.71618e-06
8.05862e-06
7.14742e-07
1.02843e-05
-3.8362e-05
2.73638e-05
-1.35416e-05
-2.74155e-05
-1.10621e-06
4.20605e-05
3.83414e-07
5.51859e-06
-5.90122e-06
9.11929e-08
-2.04729e-07
1.20553e-05
-1.1943e-05
2.55696e-06
1.59804e-05
1.38167e-05
-3.23541e-05
3.14917e-07
-1.58239e-05
1.22971e-07
1.53855e-05
4.09084e-06
-1.99809e-05
-1.52097e-05
3.11009e-05
1.46789e-05
1.80723e-05
-1.56915e-05
-1.70586e-05
3.05947e-05
1.82861e-05
-4.11522e-05
-7.72851e-06
1.37464e-07
-4.85207e-06
4.71426e-06
3.02355e-06
1.46565e-06
-5.97996e-09
-4.48431e-06
2.19346e-06
2.76802e-06
3.58904e-07
-5.32148e-06
2.80263e-06
-3.27009e-06
1.62203e-05
1.80989e-07
-3.00609e-05
1.1239e-05
1.86366e-05
5.62467e-05
5.99367e-06
-1.17549e-05
-5.04901e-05
-8.79186e-06
1.1799e-05
-2.83995e-06
-1.63461e-07
-1.5599e-05
1.48683e-05
-2.51052e-05
2.58385e-05
3.47943e-06
6.52643e-08
-3.54404e-06
1.21317e-06
9.22105e-06
-1.75986e-05
7.16289e-06
3.4727e-06
-5.23725e-06
1.7644e-06
2.61593e-05
-1.39794e-05
-6.96605e-06
-1.73693e-05
6.34481e-06
-1.60864e-05
2.71112e-05
3.2676e-05
-3.17314e-05
5.01016e-06
-5.95381e-06
1.5567e-05
5.26636e-06
-1.85847e-05
-2.2469e-06
3.04162e-06
-3.77765e-05
1.28188e-05
2.19178e-05
2.83415e-05
-5.77065e-06
4.77744e-06
4.78947e-05
-5.3662e-05
2.34499e-06
-3.22021e-05
2.49007e-06
3.33057e-05
-3.5952e-06
-2.76377e-05
-1.78065e-05
2.98465e-05
-1.20257e-05
-1.17181e-05
-1.62795e-05
4.00234e-05
-1.28656e-06
4.58894e-06
3.87872e-05
-4.20868e-05
1.46755e-06
2.78775e-05
-4.87878e-05
1.94421e-05
-1.22894e-07
8.65983e-08
1.93444e-05
-1.93041e-05
-4.09025e-05
6.84801e-06
3.26745e-06
3.07824e-05
1.32228e-05
-1.32848e-05
4.58242e-06
-4.51888e-06
8.19213e-07
1.20927e-05
-1.54034e-05
2.4923e-06
-2.37017e-05
3.58666e-05
-4.54429e-06
-7.6207e-06
-3.4729e-05
2.56646e-05
1.63328e-06
7.42614e-06
-2.91136e-05
2.87489e-05
3.77261e-05
-3.73609e-05
3.19193e-05
-2.59942e-05
1.24844e-06
-7.174e-06
-1.38652e-05
1.79111e-05
-1.08402e-05
6.79606e-06
-8.02634e-06
1.86173e-05
1.61409e-06
-1.22108e-05
-3.63753e-05
2.906e-06
3.98085e-05
-6.34013e-06
-4.84035e-06
-2.60282e-05
3.76858e-07
3.04767e-05
2.61281e-06
-9.07478e-06
7.28234e-06
1.03219e-05
8.56762e-07
-9.84178e-06
-1.33585e-06
1.01731e-05
1.93281e-05
-2.2577e-05
-6.92212e-06
-9.96954e-06
1.36564e-05
2.3378e-05
-2.70651e-05
9.93538e-07
4.46841e-06
-3.7958e-05
3.24937e-05
1.79694e-05
-2.72143e-05
8.9518e-06
2.9272e-07
-3.90458e-05
-6.33333e-06
1.06539e-05
-3.42294e-06
-9.03699e-07
-2.57303e-05
3.00531e-05
-3.60703e-06
4.46678e-08
3.56243e-06
-5.03262e-06
-6.59992e-06
4.21191e-05
-3.04866e-05
5.80973e-06
-5.51711e-06
-2.88475e-07
2.67763e-07
2.27617e-07
-1.03314e-05
9.83308e-06
-1.83322e-05
1.76143e-05
3.13126e-05
5.96756e-06
3.27977e-05
-2.36213e-05
-1.51439e-05
4.88686e-06
-4.95969e-06
7.23128e-08
-4.56423e-06
5.09702e-05
-2.83924e-05
-1.80084e-05
-2.72364e-05
2.933e-05
1.96246e-05
-2.21996e-06
2.42089e-05
1.11961e-05
-3.31847e-05
-3.18019e-05
-1.18298e-05
4.24494e-05
1.18276e-06
-5.21647e-06
4.73425e-06
4.81718e-07
3.10828e-05
-3.31359e-05
-2.88527e-07
2.34413e-06
-2.01502e-05
-1.25678e-05
1.80841e-05
1.46347e-05
-3.75831e-06
1.70245e-06
-2.12518e-05
2.33086e-05
-2.85419e-05
-7.68532e-06
7.92141e-07
3.54357e-05
-1.77483e-05
-8.8252e-06
-6.88918e-06
1.64883e-05
-3.7707e-05
-3.28266e-06
2.45079e-05
7.952e-06
-3.33092e-05
-1.01272e-05
3.54833e-05
8.10956e-06
-7.72363e-06
-3.86468e-07
-2.81739e-05
4.73118e-05
-6.71749e-06
-1.24172e-05
-6.39052e-06
-2.69546e-05
3.05268e-05
2.81857e-06
-4.31899e-05
4.42205e-05
-5.16584e-06
4.13498e-06
-2.57034e-05
-6.45204e-06
1.82332e-05
1.39225e-05
-2.72264e-05
-5.79849e-06
3.30587e-05
-2.79225e-08
-3.75423e-07
1.18165e-07
-1.3654e-05
1.39105e-05
3.76509e-06
1.76073e-07
-3.94053e-06
-6.91782e-06
6.99088e-06
-7.44214e-08
4.27662e-05
-3.61125e-05
-4.94647e-05
4.27995e-05
3.22648e-06
1.2675e-07
-3.35353e-06
-3.07359e-05
3.02434e-05
-4.00727e-07
8.92297e-07
-1.13417e-05
9.61957e-06
2.13279e-07
1.51192e-06
4.58814e-06
4.85845e-05
-2.61636e-05
-2.70093e-05
-2.74764e-05
-8.63749e-06
3.50735e-06
3.26138e-05
3.33826e-05
1.48119e-05
-1.49159e-05
-3.32798e-05
1.38391e-05
-5.15475e-06
1.78007e-06
-1.04643e-05
3.78045e-05
-3.52226e-06
-2.72372e-05
-7.04314e-06
-4.34427e-06
6.46411e-06
-7.10788e-06
4.98615e-06
-2.83661e-06
8.89499e-06
3.31624e-06
-9.37271e-06
-1.40571e-05
-7.12645e-06
3.95887e-05
-1.84019e-05
6.69959e-06
2.56695e-05
-2.51859e-05
-7.18443e-06
-2.25392e-05
2.32447e-05
1.49971e-05
-1.57026e-05
2.40171e-05
-2.17608e-05
-2.92743e-06
6.76065e-07
-8.10725e-08
-1.19478e-05
-4.25665e-08
1.2067e-05
-7.63828e-06
1.43502e-05
-1.5087e-06
-5.20297e-06
-3.36857e-05
-1.16978e-05
1.69167e-05
2.84638e-05
2.3012e-05
-1.94679e-05
-3.91755e-06
3.72821e-07
8.85989e-06
-3.04294e-05
-3.45105e-05
5.60832e-05
1.93223e-05
-2.5182e-05
-1.23025e-05
1.81632e-05
-6.24638e-06
-5.33988e-05
1.46829e-05
4.49605e-05
1.8009e-05
-1.60514e-05
2.31414e-06
-4.27184e-06
3.12098e-05
-1.12511e-05
-3.68001e-05
1.68353e-05
1.26867e-05
2.1125e-05
-4.91286e-05
1.53155e-05
-7.71597e-06
3.03801e-05
-2.66529e-05
3.98856e-06
-2.8852e-05
3.25697e-05
3.32009e-05
-3.69185e-05
-1.70738e-07
-1.4967e-05
1.30967e-05
2.04242e-06
4.48479e-06
-4.21131e-06
-2.72122e-07
3.76552e-05
-4.67071e-05
1.33607e-06
-4.4168e-06
6.03938e-06
3.11296e-06
-4.73487e-06
-3.26595e-06
1.35759e-07
-1.57791e-06
4.71014e-06
1.77648e-05
-2.42005e-06
1.81417e-05
-2.74958e-05
1.15415e-06
8.19962e-06
-9.36928e-06
-2.28568e-06
8.97442e-06
2.41184e-05
-3.16769e-05
1.80601e-05
-1.05005e-05
-2.70203e-05
-3.93371e-06
3.24611e-05
-1.50644e-06
-5.30018e-05
-8.17419e-06
4.6894e-05
1.42787e-05
-3.98178e-05
1.07939e-05
9.22282e-07
2.81025e-05
-4.4964e-06
3.67988e-07
9.20893e-07
3.21095e-06
-2.61413e-05
-3.13593e-05
2.41985e-05
3.33009e-05
1.82799e-05
1.59309e-05
-2.73593e-05
-6.84871e-06
1.95544e-07
1.53712e-05
-1.30418e-05
-2.52323e-06
-2.69733e-07
-1.81552e-05
3.55848e-05
-1.71601e-05
3.7636e-05
-2.69546e-05
-1.4326e-05
2.83312e-05
-3.19839e-05
6.46233e-06
-2.81223e-06
-3.94403e-06
-2.64734e-05
2.86491e-05
1.77126e-06
3.95812e-05
-2.67408e-06
-4.08471e-05
2.3405e-05
-2.60993e-05
6.31813e-06
-3.62144e-06
1.89721e-06
-1.24971e-05
-1.0356e-06
1.16343e-05
-2.72508e-06
2.62053e-06
-3.16809e-06
3.27277e-06
-1.92176e-06
4.84051e-06
1.57478e-06
-4.48565e-06
-7.58251e-06
-1.9902e-05
-1.4396e-06
2.89233e-05
1.09831e-05
8.66516e-06
-2.97999e-05
1.01524e-05
-1.87164e-05
5.9038e-07
6.69408e-06
1.14316e-05
-1.82832e-06
-1.89335e-05
1.84129e-05
-2.37569e-05
2.79331e-05
8.79114e-06
-1.29713e-05
-3.40397e-05
3.92417e-05
-1.22905e-05
7.09002e-06
-5.68854e-06
-1.9413e-05
2.37244e-06
2.2729e-05
1.42079e-06
3.43322e-05
-4.00612e-05
4.30487e-06
1.74006e-05
-5.5474e-05
1.20345e-05
2.60429e-05
4.95483e-06
-3.76498e-05
2.05856e-05
1.21111e-05
1.52844e-06
2.04783e-05
-7.00671e-06
-1.49993e-05
-4.28035e-06
2.0403e-06
4.20095e-06
-1.95963e-06
-3.93171e-06
7.88353e-06
-2.9265e-05
2.5313e-05
-1.61172e-06
-1.18492e-05
3.22479e-07
1.31369e-05
1.65053e-07
1.21678e-05
-1.9907e-07
-1.21328e-05
1.80489e-07
2.63457e-07
1.23737e-05
-1.28252e-05
-9.13069e-06
-1.56467e-05
2.75726e-05
-2.7923e-06
3.51277e-06
-3.3969e-05
1.82731e-05
1.2183e-05
3.25842e-05
8.42202e-07
2.50434e-06
-3.59326e-05
2.91255e-06
-2.98137e-06
6.93461e-08
1.08245e-05
2.19295e-05
-2.77984e-05
-1.1973e-05
4.81077e-08
1.34704e-07
1.17964e-05
2.07128e-06
-2.66191e-05
9.64003e-06
1.49089e-05
9.54949e-07
7.87353e-06
-7.97938e-06
-8.51248e-07
-5.97774e-06
-1.27194e-05
2.42593e-05
-5.56104e-06
2.94234e-05
-3.20741e-05
2.76028e-05
-2.49516e-05
1.89315e-05
-8.62658e-06
-3.20915e-05
2.17861e-05
-2.11462e-06
-2.01007e-06
4.12363e-06
1.23999e-05
2.69099e-06
-3.58994e-06
-1.15009e-05
-2.49712e-05
3.73225e-05
3.12879e-06
2.63264e-06
-5.7605e-06
1.86955e-06
-3.0725e-05
-2.34515e-07
2.90898e-05
-2.71095e-07
6.39563e-07
2.15612e-05
-1.2228e-06
2.29404e-05
-4.50236e-05
2.33054e-05
-7.3936e-06
-2.13001e-05
-3.05574e-06
3.17509e-05
5.86064e-06
-9.78475e-06
1.00341e-05
-6.10944e-06
-7.10749e-06
-3.43905e-05
-4.29275e-06
4.57945e-05
1.98101e-05
3.6794e-06
-2.27678e-05
-7.21771e-07
6.09804e-06
2.92607e-05
-4.84656e-05
1.31042e-05
-2.3849e-06
-1.42786e-05
-8.30088e-06
2.4964e-05
-2.00968e-05
-6.41236e-06
1.04583e-05
1.60523e-05
-1.16797e-06
-1.18484e-06
-1.37169e-05
1.60707e-05
3.74108e-05
-1.56411e-05
-9.08506e-06
-1.26844e-05
-2.32245e-05
5.66418e-05
-3.14749e-05
-1.94164e-06
1.19582e-05
3.01817e-07
3.17278e-07
-1.25816e-05
3.02232e-05
-3.59521e-05
3.60796e-05
-3.03537e-05
-5.48451e-06
1.72131e-05
-1.39499e-05
2.22019e-06
1.37748e-05
-5.04995e-05
2.0964e-06
3.46298e-05
9.42852e-06
4.46949e-05
-3.83366e-05
-1.57858e-05
6.8649e-06
-6.67282e-06
-1.09133e-05
1.07191e-05
-2.28366e-05
-1.36779e-05
4.03591e-05
-3.8438e-06
3.53735e-05
-2.82497e-05
-4.25634e-05
3.54366e-05
1.78653e-05
1.51373e-05
-9.35784e-06
-2.36387e-05
1.73352e-07
-1.5283e-05
1.03355e-07
4.17843e-06
-4.28529e-06
-3.62516e-06
3.51467e-06
1.11336e-07
2.61967e-05
-2.47501e-05
-2.28645e-05
2.14217e-05
-6.95416e-06
8.78323e-06
-2.51528e-05
2.3326e-05
3.70371e-05
-2.89573e-05
-6.04141e-06
-2.03833e-06
-5.13422e-06
1.26157e-06
3.35861e-06
-8.24613e-06
2.90562e-05
-7.92899e-06
-1.28816e-05
-4.36646e-05
1.12671e-06
1.49539e-05
2.75924e-05
1.41684e-05
-5.99493e-06
-1.3975e-05
5.80166e-06
7.85829e-06
3.60251e-05
-3.36711e-05
-1.02098e-05
-2.07077e-05
-4.20942e-06
3.95315e-05
-1.46136e-05
2.16974e-06
2.31038e-05
5.04412e-06
-3.03182e-05
7.88298e-06
2.53843e-05
-3.10982e-05
1.99628e-05
-1.47394e-05
-7.69691e-06
2.47063e-06
2.16074e-05
-2.77654e-05
1.22561e-05
-1.3907e-05
8.9406e-06
8.20563e-06
-3.24019e-06
9.24109e-06
1.10592e-05
2.19096e-05
-4.22069e-05
4.55935e-06
-2.79276e-05
-4.36101e-06
2.77297e-05
5.09132e-07
2.6787e-05
2.45568e-06
-2.97494e-05
1.21676e-05
2.31551e-05
-3.85152e-05
3.19231e-06
-5.60024e-05
4.63932e-05
-7.8512e-07
1.02991e-07
3.8477e-05
-3.02212e-06
-3.55619e-05
-3.59132e-06
7.9133e-06
-1.08453e-05
6.52703e-06
-8.8018e-07
-3.85348e-06
2.76322e-07
4.45591e-06
-3.71029e-06
3.57608e-06
1.33336e-07
-5.05146e-06
-7.8556e-06
3.7069e-05
-2.41619e-05
-2.88472e-05
4.29852e-06
-1.26271e-05
3.71764e-05
4.34325e-05
-1.06311e-05
-1.39987e-05
-1.87983e-05
3.53674e-06
-3.23665e-05
1.15837e-05
1.72456e-05
3.71678e-06
-3.37267e-06
-1.28354e-06
9.41448e-07
-4.29884e-06
4.14181e-06
1.57299e-07
1.96828e-06
2.78503e-05
-5.01499e-06
-2.48031e-05
-5.28961e-06
2.5827e-05
-3.37439e-05
1.32092e-05
1.14089e-05
1.91966e-05
-4.43049e-05
1.37001e-05
-2.13574e-06
2.57872e-05
1.89669e-05
-4.26191e-05
-4.19948e-05
2.22523e-05
2.46052e-05
-4.8633e-06
3.66776e-05
-3.73771e-05
7.39342e-06
-6.69521e-06
-3.16347e-05
-6.81685e-07
-9.67755e-06
2.4505e-07
5.72403e-06
-5.96853e-06
3.04121e-05
4.11959e-06
-2.50736e-05
-9.45298e-06
-1.97806e-06
-2.89929e-06
1.37017e-05
-8.82489e-06
3.02815e-06
5.3354e-07
9.98672e-06
-1.35475e-05
-3.31329e-05
1.46657e-05
1.61181e-05
2.3494e-06
1.41828e-05
-2.24452e-05
-3.21675e-06
1.14866e-05
-2.45269e-05
5.71998e-06
4.01828e-05
-2.13757e-05
-3.40654e-06
-1.99572e-07
3.60291e-06
-1.42524e-05
3.64118e-05
2.53853e-05
-4.75445e-05
3.1745e-05
8.85626e-07
-5.0582e-05
1.79495e-05
-2.285e-06
3.25975e-05
-2.87148e-06
-2.74408e-05
1.94068e-05
-1.51243e-05
1.1612e-05
-1.59058e-05
-1.30999e-06
-2.36544e-05
2.66795e-05
-1.71472e-06
-2.04279e-05
-3.21657e-06
-1.41748e-05
3.78192e-05
-8.06298e-06
-8.46655e-06
-1.49474e-05
3.14751e-05
-1.23851e-06
3.35396e-05
-3.60857e-06
-2.86928e-05
2.35003e-05
-2.32495e-05
4.31741e-07
-6.8214e-07
3.62743e-05
6.59919e-08
-2.50981e-05
-1.12399e-05
-8.61927e-06
-4.25069e-06
-2.45433e-05
3.7412e-05
-3.15966e-07
-3.38436e-06
3.70159e-06
-3.00685e-05
4.49948e-05
-3.49197e-06
-1.14336e-05
2.7492e-06
1.92581e-05
6.22317e-06
-2.82351e-05
-4.62933e-06
1.07351e-05
3.83429e-06
-9.93632e-06
-1.66457e-05
-4.1485e-06
1.7326e-05
3.47352e-06
1.99921e-05
1.43799e-05
-5.07415e-05
1.63697e-05
1.24306e-05
-9.53853e-06
3.13625e-05
-3.42533e-05
-2.55755e-06
2.07295e-05
1.72927e-06
-1.98995e-05
3.26054e-06
-3.20318e-06
-5.70972e-08
2.47096e-06
3.08921e-05
1.37272e-06
-3.4737e-05
2.9007e-05
-4.63781e-06
-2.77569e-05
3.3895e-06
-5.30623e-06
6.58002e-06
-3.01375e-05
2.88604e-05
-2.90583e-05
-4.49149e-06
2.26819e-05
1.08707e-05
1.14107e-05
-1.08021e-05
-1.03592e-07
-5.02877e-07
-4.22326e-05
2.72762e-05
-1.65457e-06
1.6614e-05
-4.94349e-06
4.18198e-06
7.62064e-07
1.33397e-05
-1.14732e-05
1.74652e-05
-1.9334e-05
1.95604e-05
1.64079e-05
-8.55159e-06
1.39218e-05
-3.77088e-05
-1.66723e-05
4.04572e-05
1.38922e-07
-1.65584e-05
1.66373e-05
-2.20176e-07
9.01436e-06
-1.47971e-05
-1.70354e-05
2.28144e-05
1.46459e-05
6.3235e-06
-2.39386e-06
-1.85765e-05
-4.56585e-06
1.09041e-06
5.81631e-06
-2.34034e-06
-4.17089e-06
5.25428e-05
-1.78676e-05
-3.05034e-05
1.44357e-05
1.67199e-05
-7.13744e-07
-3.04418e-05
1.46759e-07
3.28031e-06
-3.4263e-06
-1.10788e-06
5.42888e-06
3.15304e-05
-3.585e-05
3.85987e-05
5.08003e-06
-1.86682e-05
-2.50103e-05
-1.13374e-06
6.06636e-06
-4.78877e-06
-1.44673e-07
1.44886e-05
-1.30693e-06
-1.57275e-05
2.54866e-06
-4.34431e-06
-1.3792e-05
7.02121e-06
1.11124e-05
-5.89118e-06
2.71684e-05
4.47805e-06
-2.57571e-05
2.84796e-05
-3.75383e-06
-3.10517e-05
6.32661e-06
-3.03728e-06
5.88064e-06
-2.84284e-06
2.74204e-06
-1.2006e-05
1.07104e-05
-1.4458e-06
7.27155e-07
1.14134e-05
-1.20614e-05
-7.87521e-08
1.11548e-05
1.29498e-05
-1.46122e-06
-2.26439e-05
2.0087e-05
2.70842e-05
-1.86939e-05
-1.43049e-07
4.26274e-06
-4.11895e-06
-3.96784e-05
1.98015e-05
3.67767e-05
-1.69037e-05
3.94746e-05
6.91197e-06
-4.12746e-05
-5.11405e-06
2.62867e-05
-1.75098e-05
-2.92044e-05
8.34041e-06
1.43281e-05
-3.36863e-05
-1.92992e-06
-7.30131e-06
4.29168e-05
-1.20452e-07
4.22439e-06
-4.10171e-06
3.77539e-05
-1.46327e-06
-4.29286e-06
-3.19993e-05
4.44587e-06
-4.44971e-06
5.46e-09
-1.27362e-05
3.23065e-06
-7.94156e-06
1.74483e-05
-2.14831e-05
-1.78218e-05
1.62228e-05
2.30829e-05
2.195e-05
-1.68482e-05
-4.55405e-06
-5.48426e-07
-4.15623e-08
3.40787e-06
-3.36898e-06
-7.55213e-07
-4.46367e-06
1.31329e-08
5.2078e-06
8.30433e-06
3.26345e-06
-5.7746e-06
-5.79433e-06
-1.28443e-05
1.38775e-05
-1.78796e-06
-2.18442e-07
4.17524e-05
-1.25089e-06
-4.02826e-05
-7.8958e-06
-7.8949e-07
1.03461e-05
-1.6595e-06
3.73471e-06
-1.49558e-05
1.18452e-05
-6.23136e-07
1.07851e-05
-2.02495e-05
1.43087e-05
-4.84404e-06
8.33798e-06
1.9293e-05
3.18787e-06
-3.08186e-05
6.10706e-06
-6.26014e-06
1.52201e-07
1.61805e-05
-1.31804e-05
-3.34975e-05
3.04925e-05
1.04949e-06
1.20115e-06
1.60131e-05
-1.82625e-05
4.01618e-06
1.81476e-05
-2.30056e-05
8.41695e-07
1.25791e-05
-5.61265e-07
-1.96865e-06
-1.00495e-05
1.02324e-05
2.12972e-05
-3.14478e-05
-8.1728e-08
1.53147e-05
-1.02109e-07
-1.32706e-06
-1.38847e-05
-2.62805e-05
9.54536e-06
1.31045e-06
1.54281e-05
-1.16726e-05
-1.08768e-05
-1.41881e-06
1.08438e-05
-1.88881e-05
1.42e-05
-6.15746e-06
-4.20598e-06
-1.71417e-05
-2.58508e-05
4.71993e-05
-6.13779e-06
7.63936e-06
-1.75358e-06
2.51239e-07
4.92721e-08
2.83747e-06
-2.88801e-06
-7.59861e-06
3.96785e-05
1.21453e-05
-4.42195e-05
2.87647e-05
1.20314e-05
-1.07132e-05
-3.00828e-05
2.7749e-05
-2.35575e-05
2.73799e-05
-3.15704e-05
3.57826e-05
-3.95478e-05
4.48237e-06
-7.17542e-07
-5.37577e-05
2.33244e-05
9.83493e-06
2.05976e-05
-1.27821e-05
-1.57611e-06
1.40032e-05
3.54686e-07
3.29189e-05
-4.40325e-05
1.54326e-05
-4.31889e-06
1.14943e-05
-1.26314e-05
3.99799e-06
-2.86062e-06
-1.65149e-05
1.49331e-05
-1.00909e-05
-1.48448e-05
4.93778e-05
5.46752e-06
-4.00057e-05
-5.97634e-06
1.62739e-07
5.81557e-06
-4.80008e-06
1.06183e-05
-3.96949e-05
-2.14895e-05
-3.73054e-07
2.08736e-07
2.16554e-05
5.12294e-06
1.11169e-07
-5.23499e-06
8.37161e-06
-5.17908e-07
-3.06279e-05
2.27754e-05
-5.87092e-08
-2.12667e-07
1.15202e-05
-1.12476e-05
8.50178e-06
1.80233e-05
-3.03568e-05
3.83444e-06
2.51101e-05
1.76648e-06
1.66704e-06
-2.85431e-05
-2.8758e-06
6.16412e-06
3.97814e-05
-4.30694e-05
-9.52061e-06
-1.15373e-06
-3.90346e-07
1.10631e-05
-8.93634e-06
7.6669e-06
-3.04714e-05
3.17373e-05
-1.51858e-06
2.63994e-05
-2.29724e-05
-1.90748e-06
3.61963e-05
1.10639e-05
-1.65774e-05
-3.06844e-05
7.87853e-06
-4.30722e-05
2.82578e-05
-3.64336e-05
4.65379e-05
-2.24672e-06
2.01338e-05
-7.83694e-06
1.64679e-05
-1.46259e-05
-3.65284e-06
7.13287e-06
1.1146e-05
-7.72199e-06
8.24153e-07
7.05425e-06
-1.56369e-07
-1.18354e-05
2.93932e-05
-2.05674e-05
3.01195e-06
-3.31544e-05
2.92723e-05
3.11353e-05
-2.72536e-05
-3.67717e-06
3.3718e-06
1.82418e-07
1.24198e-07
3.26e-05
-4.79932e-05
-1.78201e-05
3.32164e-05
-4.33947e-05
-1.71803e-05
2.91431e-05
3.14321e-05
3.89642e-05
4.13814e-06
2.11403e-06
-4.52168e-05
3.33591e-05
-2.22415e-05
2.78456e-05
-3.95627e-05
-3.73905e-06
1.56428e-05
2.76626e-05
3.56234e-06
2.94679e-07
-3.85592e-06
3.71306e-05
-3.43711e-05
-1.16881e-05
8.92838e-06
-2.1316e-05
-7.52564e-06
6.28221e-06
2.25551e-05
1.54225e-05
2.61671e-05
-1.49267e-05
-2.66635e-05
7.24538e-06
2.29557e-05
-2.22971e-05
-7.90641e-06
5.209e-07
-7.04061e-06
6.51913e-06
-1.69165e-05
-1.47211e-05
1.44929e-05
1.71446e-05
1.75944e-06
2.11053e-05
-4.98269e-06
-1.78856e-05
-3.52471e-05
3.54352e-05
-6.5839e-06
-2.94674e-06
3.65647e-05
-3.56484e-05
2.031e-06
2.03404e-05
4.19905e-06
1.12005e-05
-3.5743e-05
-6.64511e-08
-2.46473e-06
2.53238e-06
-3.59927e-06
3.57328e-06
2.64508e-08
-2.41257e-05
-1.17642e-05
1.41151e-05
2.17756e-05
-3.10575e-05
-8.12922e-07
3.77105e-05
-5.83988e-06
-9.28314e-06
3.39809e-05
-3.52428e-05
1.05447e-05
-2.56643e-05
2.08924e-05
-9.29183e-06
1.40638e-05
3.71907e-07
2.17466e-05
-2.43937e-05
2.27598e-06
-3.57395e-05
8.10581e-06
2.31867e-05
4.44628e-06
2.11292e-06
4.54839e-05
-1.72251e-05
-3.03699e-05
2.42528e-06
-4.53986e-06
-2.20611e-05
-1.12578e-05
9.19267e-06
2.02741e-05
-1.35109e-06
3.62639e-06
-2.25493e-05
-2.15464e-06
-5.10196e-06
6.40743e-06
8.48795e-07
1.45789e-05
-4.42482e-06
-1.03556e-05
2.01749e-07
1.30193e-05
-4.39487e-05
4.21918e-05
-1.12585e-05
-1.71748e-05
3.01081e-05
4.30248e-06
-1.72341e-05
-3.61946e-06
4.17105e-06
2.83865e-05
-2.89369e-05
-3.90211e-05
2.89771e-06
3.72571e-07
3.57561e-05
-2.20478e-05
2.6757e-06
1.76478e-05
1.7251e-06
-2.4735e-05
1.52856e-05
3.48919e-05
-2.54441e-05
-1.49191e-05
-2.75202e-05
7.65206e-06
3.4782e-05
4.9855e-06
-3.99864e-05
-4.60676e-06
3.96089e-05
-3.02509e-05
4.11345e-06
-1.48564e-06
2.76222e-05
-3.12501e-05
-2.14635e-06
-2.2282e-06
3.5625e-05
7.08291e-06
-3.76678e-06
3.39688e-05
-3.72828e-05
7.69006e-06
-4.41207e-06
-2.48567e-08
-3.25206e-06
4.60971e-06
-4.84637e-05
-7.38622e-06
5.12407e-05
-4.44517e-06
2.82069e-06
2.26387e-06
-6.4023e-07
-2.87927e-05
-7.55492e-06
1.5813e-05
2.05348e-05
-1.56341e-06
1.50623e-05
2.83176e-06
-1.63284e-05
-1.31063e-05
-1.41653e-05
9.43e-06
-6.20764e-06
2.48935e-06
3.22174e-05
-2.84989e-05
2.48587e-05