/*--------------------------------*- C++ -*----------------------------------*\
| =========                 |                                                 |
| \\      /  F ield         | OpenFOAM: The Open Source CFD Toolbox           |
|  \\    /   O peration     | Version:  2406                                  |
|   \\  /    A nd           | Website:  www.openfoam.com                      |
|    \\/     M anipulation  |                                                 |
\*---------------------------------------------------------------------------*/
FoamFile
{
    version     2.0;
    format      ascii;
    arch        "LSB;label=32;scalar=64";
    class       volVectorField;
    location    "32";
    object      U;
}
// * * * * * * * * * * * * * * * * * * * * * * * * * * * * * * * * * * * * * //

dimensions      [0 1 -1 0 0 0 0];

internalField   nonuniform List<vector> 
59516
(
(0.10899 0.00038657 -0.000524704)
(0.100864 -0.0001816 -0.000434144)
(0.116087 -0.00126197 -0.000216421)
(0.130046 0.00197471 0.00178014)
(0.113897 0.000261425 -0.0044645)
(0.101094 -0.00483492 -0.0107968)
(0.131067 0.000121886 -0.00156125)
(0.106529 0.00105495 0.000106079)
(0.115163 0.000857593 0.000283918)
(0.0580277 -0.000918244 0.0022435)
(0.150676 0.000263066 -0.0014258)
(0.062871 0.000677585 -0.00334573)
(0.122819 0.000951296 -0.000168944)
(0.0213457 -8.63016e-05 -0.000248572)
(0.0647628 0.00154334 0.00318278)
(0.0546437 0.00365993 -0.00181227)
(0.160621 0.000559159 -0.000182344)
(0.0707041 0.00387927 -0.00404624)
(0.115915 0.00463217 0.00104516)
(0.158344 -0.000383715 0.000502666)
(0.0557909 0.000545938 -0.000923534)
(0.148117 -3.8801e-05 0.000487298)
(0.153058 0.000713998 -0.00024315)
(0.0359386 -0.00111612 -0.000222377)
(0.156779 -0.000620424 0.00124901)
(0.0690333 0.00139791 0.000764408)
(0.0445163 0.000894665 -0.00283074)
(0.0452884 0.00356622 0.000366938)
(0.0677549 0.00206341 -2.8436e-05)
(0.0190494 -0.00293456 0.000816284)
(0.108349 -0.0209706 -0.00460208)
(0.046542 0.00339799 -0.000573263)
(0.133946 -4.01097e-05 0.000991965)
(0.11469 -0.000555229 0.00234191)
(0.138455 0.00313206 0.00267709)
(0.145935 -0.000333151 -6.5789e-05)
(0.0181441 -0.00175443 -0.00250822)
(0.070503 0.00269575 -0.00656384)
(0.0980073 -0.00286737 -9.8462e-05)
(0.153895 -0.00173577 0.000101444)
(0.105003 -0.000796809 7.70928e-06)
(0.143467 -0.00705226 -0.00656013)
(0.147726 -0.00152822 -0.00107167)
(0.111468 -0.000812611 0.000326817)
(0.143837 -0.00206936 0.000321808)
(0.0579301 -0.000794144 -0.00138937)
(0.133694 -0.0014791 -0.00253519)
(0.158109 -0.00184706 -0.000190275)
(0.111844 -0.00899652 0.0124335)
(0.148216 0.00459615 0.0040521)
(0.104038 0.0104742 -0.0145244)
(0.0468023 -0.00364183 0.00239981)
(0.12296 0.000965338 -0.00190898)
(0.130168 -0.000286496 -0.000164824)
(0.0494898 0.00263295 2.05172e-05)
(0.130921 0.000900613 -0.000366316)
(0.143219 0.00727139 0.00777826)
(0.0508431 0.00405735 -0.00276402)
(0.160301 -0.000495594 8.6681e-05)
(0.134664 0.00518101 0.00661995)
(0.147321 -5.98773e-05 0.000424336)
(0.0206572 0.00245996 -0.000876366)
(0.155144 8.40023e-05 -0.000558908)
(0.156982 0.000819284 -4.60225e-05)
(0.127117 0.000381608 -0.000548383)
(0.145032 0.00222124 0.00274681)
(0.028216 -0.00190707 0.00254329)
(0.0436721 0.000134696 -0.00015875)
(0.121355 -0.00499847 0.0221359)
(0.136926 0.00122588 -0.000492332)
(0.0396223 0.00111082 0.000336872)
(0.155745 0.000535591 -6.85549e-05)
(0.024567 0.00153467 -0.00375949)
(0.142154 -0.000454991 -6.71512e-05)
(0.163999 -0.000624251 0.000264675)
(0.15506 -0.000140577 -0.000398468)
(0.158573 -0.000258162 -0.000937392)
(0.145737 8.54391e-05 -0.000503977)
(0.0488043 -0.00165185 0.00141346)
(0.148322 0.00245099 0.0051645)
(0.0409842 0.00244063 0.0010257)
(0.144395 0.00284156 0.00374733)
(0.138776 0.00147791 0.00360011)
(0.0215955 -0.000856354 0.00294007)
(0.144493 0.00243573 0.00396582)
(0.161472 -0.000403859 0.00028576)
(0.0345993 -0.00121109 0.000570064)
(0.149188 0.000293628 0.000689847)
(0.0571816 0.000613383 0.00263194)
(0.107741 0.00807524 -0.0053708)
(0.131282 -0.000702857 -0.0107495)
(0.136894 0.00173166 -4.79755e-05)
(0.160264 -0.000161037 5.35055e-05)
(0.136094 0.00101369 -0.000180741)
(0.151784 9.91596e-05 0.000143008)
(0.10997 -0.0105388 0.00404589)
(0.139789 -0.000822337 0.00102527)
(0.0564753 -0.00164993 -0.00423697)
(0.0661595 0.00209902 -0.000678501)
(0.146204 -0.000736099 0.0013623)
(0.0396836 0.000687412 0.001432)
(0.0263551 0.00121018 -0.0030111)
(0.0250452 0.000873562 0.0034398)
(0.0577615 -0.000801973 -0.00294994)
(0.135977 0.000648572 -0.000235757)
(0.142688 0.000207546 0.000567958)
(0.0427597 0.00358847 -0.00154849)
(0.109152 0.000294472 -0.000614548)
(0.104807 -0.000725407 -3.85267e-06)
(0.0698048 0.000413881 -0.00276508)
(0.124858 0.0126544 -0.0132203)
(0.0329197 0.00331577 -0.000407552)
(0.0704146 0.00080696 -0.00411379)
(0.118091 0.0170779 -0.00858828)
(0.154513 -0.000155131 -5.91166e-08)
(0.105233 0.00110508 0.00103175)
(0.0568891 0.000519977 -0.00221924)
(0.134547 0.000332804 0.00083526)
(0.0236131 -0.000303388 0.00115993)
(0.144766 0.0015309 0.000418549)
(0.163989 -0.000311789 0.000206311)
(0.157549 0.000437904 0.000220012)
(0.154251 -0.000269217 0.000334204)
(0.156178 -0.000103364 0.000444875)
(0.132147 -0.0169299 0.00283892)
(0.0918408 0.00100672 -0.00222591)
(0.0320086 -0.000496719 0.00206374)
(0.138065 -0.0122029 -0.000670032)
(0.0898819 -0.00275295 0.0130888)
(0.161976 0.000609472 0.000255217)
(0.162263 0.000510411 0.000956037)
(0.116788 0.0015063 0.00181406)
(0.0251566 0.00144214 -0.00170598)
(0.14767 -2.52072e-05 0.000667273)
(0.106441 0.000916509 0.000327362)
(0.120482 -0.000980405 -0.00169036)
(0.107759 0.0125029 -0.00881126)
(0.13329 -0.000233658 0.000688751)
(0.0421433 0.00274463 0.000105)
(0.103121 0.000507877 -0.0013013)
(0.046583 -0.000918986 -0.00229112)
(0.163443 -9.23077e-05 0.000132081)
(0.02005 0.000942119 0.00176115)
(0.128075 -0.00132344 -0.000374362)
(0.160165 0.000390907 4.40699e-05)
(0.141083 0.00140966 -0.000110538)
(0.141325 -0.00275834 -0.000525446)
(0.121508 0.000528085 -0.00197051)
(0.0621494 -0.00100927 0.00173392)
(0.110922 -0.000828324 -0.000809568)
(0.108459 -8.72371e-05 -0.000838406)
(0.0376726 -0.00130823 5.58438e-05)
(0.158847 -0.000676744 0.00116669)
(0.151227 -0.000466327 0.000818217)
(0.094247 -0.000543059 0.00183001)
(0.0202787 -0.000447602 0.00218251)
(0.117546 0.000218114 -5.35576e-05)
(0.118113 0.00104076 -0.000247633)
(0.0872889 0.00120136 6.66769e-05)
(0.0209185 0.00251011 -0.00270119)
(0.0682901 0.00150736 -0.00334032)
(0.0703443 -0.00352665 -0.00232653)
(0.0373679 -0.00152016 0.000403139)
(0.0271939 -0.000232656 -0.000517405)
(0.104624 0.00171206 0.00236518)
(0.161254 0.000296349 0.00105363)
(0.0638427 -0.000625963 0.000265562)
(0.161228 0.000464598 -0.00012064)
(0.0211948 -0.00125851 0.00243301)
(0.134513 -0.000384063 0.000203363)
(0.0882039 0.00130975 0.00120993)
(0.0548709 0.000748682 -0.000792594)
(0.0675306 0.00156944 0.000986455)
(0.137571 -0.000800416 0.000761446)
(0.0529672 -0.000915814 0.000348234)
(0.135851 -0.000478258 -0.00325594)
(0.158319 5.99538e-05 -0.000932953)
(0.148933 -0.00306589 -0.00171671)
(0.0703035 -0.000921049 0.00325371)
(0.0435617 -0.000191268 -0.000593103)
(0.144715 0.00158206 0.000992059)
(0.0353149 -0.00297013 -0.00134)
(0.0306224 -0.000371238 -0.0024499)
(0.0676425 -0.00186284 0.000205639)
(0.161091 -0.00019811 0.000737284)
(0.0611114 0.000339654 0.000684451)
(0.0372012 -0.000692901 -0.0028439)
(0.0243426 8.61238e-05 0.00028494)
(0.124861 8.06194e-05 0.000188714)
(0.104453 -0.00176031 -9.93744e-05)
(0.13482 -0.000854002 0.00268051)
(0.0543944 0.0032453 0.000105302)
(0.156418 -0.000480887 -0.000168295)
(0.0600012 0.00253849 2.30303e-05)
(0.152097 -0.000442007 -0.000157269)
(0.0308591 -0.000243524 0.000829841)
(0.0597556 0.000732055 -0.000251686)
(0.0427932 -0.0010973 0.000337786)
(0.11353 0.00271627 0.00365629)
(0.150787 0.000490722 -2.16091e-05)
(0.0842426 -0.00279594 0.000426846)
(0.162379 -0.000306371 8.02144e-05)
(0.107226 -0.000561482 0.000972086)
(0.0207491 0.00220449 -0.00143322)
(0.1313 -0.00154466 -0.000527723)
(0.143937 -0.000101773 0.000143871)
(0.16273 -0.000166816 -2.29008e-05)
(0.146928 -0.000497208 3.90036e-05)
(0.0241354 -0.00068106 0.000215607)
(0.117701 -0.00182435 -6.83381e-05)
(0.0524396 0.00370469 0.00310605)
(0.0244669 -0.00390761 -0.000619956)
(0.144163 0.000457239 -0.0013591)
(0.0587058 -0.00100511 0.00073475)
(0.11997 0.00112605 0.000199307)
(0.159906 -0.000586812 0.00043447)
(0.139678 0.000879685 0.000155056)
(0.153729 -0.000994821 0.000430606)
(0.0569943 0.00226148 -0.00289345)
(0.153415 -0.000492172 0.000662334)
(0.0585002 0.00231759 0.00168832)
(0.107671 0.000669103 -9.14091e-05)
(0.154821 0.000746087 0.00110395)
(0.0425247 -0.000185287 0.000808343)
(0.156867 -0.00120499 0.000462984)
(0.158572 6.02236e-05 -0.000768811)
(0.0295216 -0.000278927 0.00150932)
(0.0494111 0.00154742 -0.0022677)
(0.158197 -3.78975e-05 0.00101986)
(0.0567999 0.000118455 -0.00402954)
(0.161159 -0.000768404 0.000456805)
(0.159014 0.000488854 -0.000457742)
(0.160528 0.000460668 0.00109224)
(0.0264483 -0.00206614 -0.00143707)
(0.0343701 0.000863159 -0.00160496)
(0.0363105 0.000814466 -0.00120876)
(0.0665067 0.000332377 0.000622862)
(0.100523 -0.00139977 0.000638985)
(0.150714 0.000727674 0.00118488)
(0.0592243 -0.00122147 0.00136099)
(0.162096 1.33546e-05 0.000885027)
(0.0218117 0.000362927 0.00318454)
(0.0564986 7.42529e-05 0.000965621)
(0.0265442 0.000205525 0.00289439)
(0.161364 0.000710315 0.000358033)
(0.0972882 -0.000456249 -0.000539557)
(0.143564 8.1679e-05 0.000667796)
(0.068317 0.000547608 -0.00141802)
(0.159805 -0.000147188 0.000583568)
(0.108465 0.000209316 0.000308773)
(0.158012 -0.00164432 0.000625596)
(0.140198 0.000179003 0.000663418)
(0.161855 0.000270406 0.000859781)
(0.143032 0.000213975 -0.000296323)
(0.145007 0.00123172 0.000599665)
(0.152512 0.000335566 0.000469393)
(0.0578343 0.00018182 -0.00019984)
(0.149565 0.000512204 0.00115768)
(0.044467 -0.000298081 -0.0023858)
(0.0629997 0.000397558 0.00220161)
(0.132537 0.000953124 -0.000801977)
(0.154587 -0.000764546 0.00099454)
(0.11873 0.00240678 0.00153923)
(0.161108 -0.000419033 0.000929856)
(0.103157 -0.000269222 0.00225408)
(0.0603634 0.00255872 -0.00150397)
(0.153877 8.28418e-05 -0.000703547)
(0.0965389 0.00177378 0.000602663)
(0.0491843 -0.000818135 -0.00060191)
(0.0544021 9.68778e-06 -0.0014049)
(0.100439 0.000241519 -0.00252449)
(0.158204 -0.000743443 -0.000267519)
(0.102443 -0.00221227 0.000106656)
(0.097396 -0.00118131 0.000765022)
(0.156416 -0.00133728 0.000302625)
(0.0972797 -0.000548211 0.0028108)
(0.022792 0.00261043 -0.00153031)
(0.155923 -0.0003582 0.0012052)
(0.0274249 0.00171225 -0.00220134)
(0.0426658 -0.00174146 0.00112045)
(0.159985 8.51321e-05 0.00108127)
(0.140165 -0.000567599 -0.000140531)
(0.0267232 0.0029236 0.00284918)
(0.124603 0.000953873 0.000331423)
(0.128701 0.00222179 0.000141024)
(0.158195 0.000770125 0.000111193)
(0.16083 -0.000521121 7.4171e-05)
(0.0259914 0.00301586 0.000643696)
(0.160009 -0.000300701 0.000872729)
(0.160329 -0.00146704 0.00011722)
(0.15824 -0.000119511 0.00108596)
(0.136083 -0.000158953 0.000959688)
(0.136195 0.00139137 0.00115504)
(0.0991962 0.000438893 -0.00047113)
(0.161825 0.00109913 0.00021175)
(0.0299631 -0.00105374 -0.00136021)
(0.151958 -0.00174023 0.000501728)
(0.140944 -0.00111808 -0.000601962)
(0.16164 -0.00110588 0.000704105)
(0.155261 -0.00117704 0.00042899)
(0.120178 -0.000876361 0.00056099)
(0.0623985 0.00113341 0.00137479)
(0.0244994 -0.000379083 0.0017107)
(0.0307526 -0.000704933 0.000500616)
(0.159374 -0.00153157 -0.000328616)
(0.0221143 -0.00122034 0.00321374)
(0.0667141 -0.000295705 -0.00106969)
(0.0549761 0.00286892 0.00126272)
(0.158059 -0.000705287 0.000732763)
(0.162129 6.68339e-05 -0.000595429)
(0.15176 -0.000248791 -0.000244599)
(0.0621834 -0.000329455 -0.00126196)
(0.106492 0.00132261 -0.00193223)
(0.0427903 -0.00344556 0.00291637)
(0.056927 0.00100691 0.00157447)
(0.149964 -0.000448194 9.01576e-05)
(0.102907 0.00131961 -0.000833462)
(0.107727 0.0124188 0.00355741)
(0.0936635 -0.00201295 0.00100107)
(0.0456642 -0.000266291 -0.000548795)
(0.0674911 -0.000945038 0.00187772)
(0.111871 -0.000532139 -0.00158843)
(0.161069 -2.31549e-05 -6.51971e-05)
(0.163516 0.000248807 0.000414924)
(0.162775 -0.000173893 0.00119076)
(0.156506 -0.00145236 0.000286404)
(0.0980356 0.00307212 0.00427232)
(0.128822 0.00119456 0.000567037)
(0.155072 0.00181219 0.000371922)
(0.154678 -0.000132788 4.4611e-05)
(0.156304 -0.000322807 0.000914847)
(0.0599337 0.00131604 -0.00316727)
(0.0239911 -0.00140237 -0.00287452)
(0.147898 -0.000502567 0.000388634)
(0.0426115 -0.00191695 0.00228564)
(0.0344196 0.000196393 0.000134081)
(0.153588 0.000350128 0.00134988)
(0.145367 -0.000707268 0.000492164)
(0.0613736 -0.00158546 -0.00260085)
(0.159192 -0.000990318 0.000611536)
(0.158543 -0.00148415 0.000313017)
(0.162364 -0.000722722 -0.000622111)
(0.160826 -0.000201524 -0.000421659)
(0.0346863 0.00162295 6.61016e-07)
(0.155223 0.00029203 -0.000266455)
(0.159655 -0.00111068 0.000829829)
(0.0609793 -3.27117e-05 0.000746342)
(0.16099 -0.000262629 0.00140526)
(0.159524 -0.000125387 0.000384927)
(0.133479 2.34905e-05 -0.000924647)
(0.125125 3.88061e-06 -0.00077697)
(0.14744 -0.0006133 0.00100659)
(0.142704 -0.0012371 0.000550769)
(0.0733045 -0.000321313 -0.000159064)
(0.0337856 0.00139482 -0.00111699)
(0.0368724 -0.00251482 -0.000208579)
(0.0995146 0.000438209 0.000327894)
(0.0864548 -0.00663705 0.0104897)
(0.0746925 -0.00419399 -0.0060427)
(0.0879657 0.000355637 0.00032308)
(0.118014 0.000102819 0.00178344)
(0.133313 0.00018608 0.000435664)
(0.153727 -0.000312863 0.00286461)
(0.15466 0.000328399 0.000690997)
(0.133886 -0.000504869 3.35876e-05)
(0.146601 0.000526037 0.000524725)
(0.146197 0.00123722 0.000438685)
(0.0337841 -0.000948405 -0.000339939)
(0.11387 -0.0223506 0.00279732)
(0.0618711 0.00172088 0.00059967)
(0.0439777 -0.0020719 -0.000440947)
(0.04427 0.000844114 0.000298486)
(0.155032 0.000120703 -6.92661e-05)
(0.0982793 -0.000323949 8.90907e-05)
(0.155604 0.000502876 -0.000628211)
(0.0215536 0.00120497 -0.00177867)
(0.129077 -0.000372512 0.000122107)
(0.0478239 0.00111227 -0.000913878)
(0.156527 -0.000786384 -5.26643e-05)
(0.0512055 -0.000574944 -0.000471614)
(0.0653568 -0.00147683 0.00128311)
(0.111235 -0.0024322 0.000805894)
(0.148894 -0.000324995 0.00132163)
(0.021328 0.0017973 -0.00226238)
(0.0575805 -0.000559113 0.00255192)
(0.134434 8.42829e-05 0.000605671)
(0.0251012 -0.00157062 -0.00189836)
(0.130704 0.00123199 0.00773694)
(0.119446 -0.000614826 0.00240158)
(0.133529 0.000118532 -0.00189892)
(0.0986204 0.00216747 -0.00262855)
(0.0922033 -0.000796724 0.00178616)
(0.156754 0.00130464 -0.000160618)
(0.0774146 -0.00773386 -0.00711274)
(0.163198 0.00139548 0.000389056)
(0.11141 0.00829865 0.00886109)
(0.0630526 -0.00267547 0.000333578)
(0.0656896 -0.000370735 -0.00158122)
(0.163162 0.00105928 0.000221963)
(0.164542 0.00144246 0.000419543)
(0.0560093 -0.000524483 0.000599004)
(0.136804 0.000710261 -0.000541909)
(0.102595 -0.000604332 -0.00226115)
(0.162185 -0.000558843 0.000710431)
(0.161764 -0.000364581 0.00105585)
(0.0486604 0.0013996 -0.00360561)
(0.134194 -0.000801155 -5.8017e-05)
(0.144975 -0.00156069 0.00136469)
(0.147336 0.000371951 -1.59155e-05)
(0.153501 0.000310478 0.000464668)
(0.0230146 -0.000825519 -0.00296323)
(0.0224634 0.00120681 -0.00279317)
(0.128345 0.000898151 -0.00150013)
(0.160847 0.000149116 -0.000104333)
(0.162461 -0.00137 -0.000759915)
(0.0372766 0.000396961 -0.00260397)
(0.156712 -0.00107316 0.000586216)
(0.111137 -0.000971889 -0.000274022)
(0.157485 0.000344322 0.000951348)
(0.162651 0.00133053 0.000245947)
(0.163172 0.000751285 -0.000136285)
(0.1607 0.00121451 0.000667603)
(0.1609 0.00171323 0.000722972)
(0.0939398 0.000570006 0.00039489)
(0.161429 0.00160562 0.000134554)
(0.0596139 -0.00123028 -0.00302995)
(0.157354 -4.5371e-05 -0.00029484)
(0.113385 -0.000277329 -0.00123094)
(0.148737 0.00120374 0.000575598)
(0.160099 0.000428299 -0.000263118)
(0.148407 -6.45371e-05 7.30113e-06)
(0.143464 0.000917906 -0.000596304)
(0.0434299 0.00244921 0.00228668)
(0.0362334 0.000804924 0.000220565)
(0.0230941 0.00192941 -0.00229473)
(0.149557 0.00333181 0.00577281)
(0.166594 9.56582e-05 2.70143e-05)
(0.138313 -0.000730677 0.000557382)
(0.12927 0.0014949 0.000538546)
(0.0328387 -8.56158e-05 0.00114494)
(0.0255404 -0.000505435 0.00294059)
(0.118122 -0.000302372 0.00177283)
(0.147559 -0.000299884 0.00131233)
(0.16069 -9.94348e-05 0.000695458)
(0.152187 0.000811187 -0.000131854)
(0.137636 -0.000670013 -0.00111612)
(0.164222 0.000959178 -0.000123591)
(0.136271 0.000994479 0.000500479)
(0.0284713 -0.000682157 0.00267271)
(0.125368 -0.000458711 0.000280049)
(0.061268 0.000640783 0.00304206)
(0.0705505 -0.00700264 0.00150564)
(0.148894 0.000253074 -0.000241618)
(0.0979922 0.000304345 0.000214484)
(0.144975 0.000281525 -0.000107204)
(0.0224347 -0.00411144 -0.00148386)
(0.164029 0.00173921 2.71779e-05)
(0.162659 2.29762e-05 -1.83701e-05)
(0.160614 0.00145718 0.000397448)
(0.0957651 0.000942224 0.000136685)
(0.148859 0.000159218 0.000975819)
(0.158634 0.000559452 0.000973488)
(0.123122 0.000395057 -4.18731e-05)
(0.161118 0.00110996 0.000280944)
(0.100143 0.00339324 -0.00246142)
(0.159938 0.00038921 -0.000106067)
(0.147534 -0.0020123 -0.000696027)
(0.0219823 -0.00144479 0.00156072)
(0.162109 -0.000493178 -0.000682886)
(0.119221 0.00193572 -8.61694e-05)
(0.0486845 -0.00139507 0.00386162)
(0.0955933 0.000543596 -0.00157563)
(0.157669 -8.6815e-05 -0.000684287)
(0.131751 -0.000277648 0.000602203)
(0.0893588 0.000240032 -0.00252116)
(0.0217539 -0.00203495 -0.00220867)
(0.161404 -0.000838839 -0.000655692)
(0.127178 0.00176674 -0.00162822)
(0.154893 -0.000431117 -8.79383e-05)
(0.126862 -2.76877e-05 0.000665528)
(0.039018 0.0017275 0.001797)
(0.140499 -0.000118496 -0.000639424)
(0.026729 0.00215911 -0.00332163)
(0.155077 0.000154813 -0.000329211)
(0.102281 0.0114019 -0.00365775)
(0.157668 -0.000343847 -0.000385185)
(0.0550089 -9.12579e-05 0.00192098)
(0.110044 -0.00128501 -0.00157924)
(0.0989127 0.000407657 -0.00134733)
(0.037022 0.00221822 0.00174558)
(0.160365 0.000464043 0.000480681)
(0.156154 0.000660068 0.000624774)
(0.0236959 0.000856628 0.00230826)
(0.153195 -0.00144689 0.000207224)
(0.160725 -0.00119053 0.00070377)
(0.0394333 -0.000102633 -0.00218913)
(0.0647638 0.00269306 4.79321e-05)
(0.0562266 0.00203055 0.00153813)
(0.149455 0.000997102 0.000700606)
(0.160095 -0.000293403 0.000298692)
(0.0331352 -0.000796389 0.00152051)
(0.0568961 -0.00190548 -0.000579223)
(0.0593629 0.00112154 2.52169e-05)
(0.117882 0.00135041 0.000239436)
(0.160518 -0.000387036 0.000417499)
(0.0245445 0.00127143 -0.00323731)
(0.155206 -0.00104889 0.000859085)
(0.149536 0.00140436 0.000216)
(0.160661 0.000326291 0.00107085)
(0.0901002 0.00386273 -0.0037234)
(0.160653 0.001135 0.000329121)
(0.0240562 -0.000174346 -0.002542)
(0.157233 -0.000739586 -0.000215608)
(0.0289818 -0.000525319 -6.53242e-05)
(0.0615 -0.00191299 0.00019455)
(0.151276 -0.00076864 0.000160477)
(0.0635222 -0.00179125 -0.00058232)
(0.0221381 0.00246758 0.00229096)
(0.0392877 0.000643503 -0.00120378)
(0.0480344 -0.00237014 0.00152767)
(0.0618148 0.00109415 -0.00165093)
(0.146022 -0.000293627 -0.000671577)
(0.0523317 -0.00117216 1.99952e-05)
(0.061828 0.00201145 -0.00123229)
(0.128018 -0.00675416 -0.0132555)
(0.156377 0.000705842 0.000655023)
(0.0256646 0.00156935 0.000274393)
(0.110281 6.89447e-05 -0.00101877)
(0.0815092 0.00872862 -0.00338272)
(0.159247 -0.00165119 -0.00019094)
(0.0611398 -0.000248467 -0.00138231)
(0.154322 0.000954971 0.000849131)
(0.0603381 -0.00246018 -0.00166018)
(0.12433 0.000358905 0.000674633)
(0.160826 0.000908753 -0.000501456)
(0.0539577 0.00248483 -0.00474141)
(0.161776 0.000140903 0.000207137)
(0.0480278 0.00203144 0.00243405)
(0.0205741 0.00312971 0.00116349)
(0.143426 0.000512822 0.000156554)
(0.160182 0.000871359 0.000164287)
(0.131454 0.000861553 -0.0002956)
(0.127181 0.00155688 -0.000538112)
(0.161768 -0.00165705 0.000420312)
(0.0636145 0.00159068 -0.000112692)
(0.158123 -0.00170634 0.000414967)
(0.0597137 -0.00181623 0.00255264)
(0.16031 0.000888286 -0.000130061)
(0.128084 -0.00151772 -0.00111124)
(0.0296818 0.000668492 -0.00408874)
(0.151637 -4.70658e-05 -0.000711943)
(0.0546569 0.000125463 0.00171803)
(0.0278449 -0.00196965 -0.00180783)
(0.149029 -0.00043915 -0.000133593)
(0.0453015 -0.00119297 0.00109049)
(0.137673 0.000581702 0.000247892)
(0.159056 0.00038921 0.000778935)
(0.13184 0.00093022 0.000739721)
(0.0556535 -0.00239805 -0.00262922)
(0.164117 0.00149389 0.000244724)
(0.0935297 -0.00125832 0.00105574)
(0.166234 0.000308219 0.000651652)
(0.163537 0.000285006 -9.87747e-06)
(0.163951 0.00107501 0.000592237)
(0.16018 0.000779427 0.000134258)
(0.0461668 -0.00240479 -0.00204612)
(0.0539799 0.000153606 -0.000568019)
(0.16182 0.000596131 -0.000118465)
(0.155718 0.00113372 0.00122304)
(0.0336608 -0.002155 -0.00112531)
(0.153764 0.000236373 9.95356e-05)
(0.165256 0.000175469 0.000515059)
(0.16265 -0.00147818 -0.000391296)
(0.163519 -0.00160454 -0.000349447)
(0.119528 -0.000472471 -0.00107014)
(0.0228682 0.00222817 0.00199649)
(0.164149 0.000654134 0.000188137)
(0.103138 -0.000878836 -0.00150319)
(0.146389 -0.000290025 0.000394791)
(0.0986362 -1.46999e-05 0.000130436)
(0.0308849 0.00221067 -0.000208575)
(0.159965 0.000870122 0.000311176)
(0.0946839 0.00213808 0.00208811)
(0.135053 -0.000455587 0.000197477)
(0.163178 -0.00165685 -0.000119279)
(0.140146 -0.00159981 -0.000560957)
(0.0184259 0.00154965 -0.00214434)
(0.0234489 -0.00135171 -0.00228976)
(0.158263 -0.00120403 9.0346e-05)
(0.155132 -0.000518982 0.000139803)
(0.162897 0.00139143 0.000865325)
(0.146648 0.000283776 0.000902724)
(0.0946023 -0.00138009 0.000594148)
(0.147208 -0.00115166 -0.000407566)
(0.160663 0.000193401 0.000281482)
(0.0214069 0.00183073 0.000391024)
(0.158686 -0.00124743 0.000309632)
(0.134832 -0.013818 -0.000102842)
(0.0395008 -0.00063089 0.00197669)
(0.0565931 -0.0035354 0.000938281)
(0.144762 -0.000701477 -0.000925262)
(0.141387 -0.00165429 0.000695984)
(0.137784 0.000770336 -0.000176983)
(0.126993 -0.000707999 0.000537761)
(0.108527 -0.0036222 0.00108304)
(0.162764 0.00023644 -0.000150013)
(0.10053 0.00125922 -0.00274664)
(0.163427 0.00151066 9.19768e-06)
(0.158424 -6.331e-05 -0.000186528)
(0.165097 -0.00148609 0.000598636)
(0.158914 -0.00152146 0.000160323)
(0.0421786 -0.000404955 0.00194989)
(0.156575 -0.00125586 0.000442029)
(0.0342603 0.000989808 -0.00137211)
(0.094452 -0.00917199 0.00540735)
(0.0626295 0.00189776 0.00139131)
(0.127075 -0.00237625 -0.0124872)
(0.132355 -0.0007499 -0.000312011)
(0.117509 -0.0187897 -0.00410826)
(0.157306 -5.6492e-05 -0.000336623)
(0.16375 -1.96323e-05 3.56392e-05)
(0.150115 0.000333269 -0.000215949)
(0.157617 -5.76921e-05 0.00117148)
(0.0355168 0.000167195 -0.0005362)
(0.100941 -0.00383016 -0.00256089)
(0.112456 -0.00208786 -0.0159905)
(0.15964 0.000267914 2.23971e-05)
(0.115666 -0.00251311 -0.000461228)
(0.136668 -0.012283 -0.00419175)
(0.152861 -0.00184954 0.00327296)
(0.114121 0.00106045 0.000707634)
(0.0366356 -0.00075083 0.00123905)
(0.0560006 -0.00269127 0.00156911)
(0.0253249 0.000183808 -0.000242435)
(0.0245305 0.000160434 -0.0018972)
(0.0357895 -0.000114633 0.000245735)
(0.134107 -0.00752899 0.00487978)
(0.138386 -2.02007e-05 0.000734569)
(0.0248678 -0.00081373 0.00340667)
(0.023522 0.0016158 0.00261319)
(0.162154 0.000620026 5.32246e-05)
(0.0962005 -0.0125288 0.00851726)
(0.0386386 0.00164178 0.000708697)
(0.146482 0.000227049 -5.75217e-05)
(0.108431 -0.000745539 -0.00166896)
(0.135774 7.11839e-05 0.00118542)
(0.043381 0.00215629 -0.00122309)
(0.0555564 0.00174686 -0.000631886)
(0.114573 -0.00108756 0.000169947)
(0.157971 0.000189424 -0.000287527)
(0.149185 0.000344451 -0.000676589)
(0.0371728 0.0029133 -0.000979198)
(0.0246933 -0.00194945 0.00120375)
(0.106243 -0.0151827 -0.0112508)
(0.0264401 -0.00342954 7.47293e-05)
(0.135219 -0.00102866 -0.00123113)
(0.0283479 0.00154049 -0.0034922)
(0.107966 -0.000473197 0.00233319)
(0.159816 -0.000578946 -8.41716e-05)
(0.164666 -0.000706831 0.000979069)
(0.0454082 0.000675472 -0.000931108)
(0.100972 -0.000340639 -0.000984405)
(0.0362657 0.00137474 -0.00137148)
(0.0286515 0.00335502 -0.00126846)
(0.160081 -8.37732e-06 -0.000815734)
(0.0199152 -0.00165587 -0.00254574)
(0.154831 -0.00151632 -0.000320146)
(0.0493328 0.000917282 -0.00223788)
(0.151149 -0.000742137 -0.000135256)
(0.141397 -0.000209595 -6.43159e-05)
(0.0224637 -0.000619045 0.00352979)
(0.0584367 -0.00275103 8.46897e-05)
(0.146125 0.000443935 0.000389046)
(0.0349726 -0.00157306 0.000135731)
(0.15139 -0.0008282 -0.000446493)
(0.0555286 -0.00209366 0.0033773)
(0.111971 0.000280141 -8.23728e-05)
(0.161648 -0.000516077 -0.000919427)
(0.0372906 0.00107025 0.00089904)
(0.0241075 0.0010428 -0.00314429)
(0.0520983 0.000924513 -0.000477656)
(0.110776 0.0174144 0.00376774)
(0.108116 0.000393907 0.000368364)
(0.0573263 -0.00241091 0.00277554)
(0.0883467 0.000309344 0.00146991)
(0.0315916 -0.00124688 0.000801011)
(0.161779 -0.000420222 -0.00103879)
(0.0237701 -0.000420306 -0.00161893)
(0.16073 -0.00145224 -3.75598e-05)
(0.145412 -0.000648357 0.000436977)
(0.157307 -0.000433031 0.000239348)
(0.0198741 0.00202559 0.000118267)
(0.149163 -0.00106108 0.00051746)
(0.0855447 0.000477343 -0.000172334)
(0.152994 0.000617115 0.000280574)
(0.0558014 -0.000311226 -0.000185185)
(0.108128 -0.013037 0.00672569)
(0.155766 -0.00164847 -8.392e-05)
(0.0411085 0.000666877 -0.000340815)
(0.16332 0.000566244 0.000198365)
(0.108852 0.00201702 -0.0204881)
(0.11985 0.000295341 -0.000577673)
(0.0334925 0.000842061 -0.00172942)
(0.0524352 -0.000485646 -0.00251228)
(0.160974 -8.60932e-05 3.35193e-05)
(0.133602 0.00133955 -0.000181506)
(0.0332372 0.00141253 0.000599835)
(0.112337 0.00112787 -0.00135364)
(0.0617555 -0.000739147 -0.00203797)
(0.0254469 -0.00222324 0.00140039)
(0.160912 0.000116707 -0.000181675)
(0.103331 -0.00130658 0.010099)
(0.13363 0.00155617 -0.00198661)
(0.159209 -0.000143035 6.76623e-05)
(0.160086 3.4183e-05 0.000570371)
(0.157064 -0.000448398 -0.000504345)
(0.13421 0.000683377 0.000510296)
(0.0447611 0.00119973 0.000360385)
(0.0405975 -0.00190571 -0.00194331)
(0.163923 0.00144775 0.000278053)
(0.107559 -0.0094214 0.00878516)
(0.124522 -0.00132682 0.000638842)
(0.13142 -0.00124334 0.00045135)
(0.0838802 0.0017097 0.000963268)
(0.145982 -6.30771e-06 0.000580781)
(0.155259 0.000221446 -0.000672855)
(0.102039 -0.000471957 -0.00134866)
(0.107901 0.00194267 9.0806e-05)
(0.0385249 0.000128976 -0.00237398)
(0.0737622 0.000663488 -0.000506192)
(0.0449057 -0.00125138 -0.00333525)
(0.148313 -0.000151032 0.000972325)
(0.160609 -0.000324733 0.000223144)
(0.0978918 0.00143355 -0.00245333)
(0.101169 0.000887555 -0.000445665)
(0.0215657 0.00227778 -0.000455129)
(0.081818 -0.000359091 -0.000549995)
(0.0600839 -0.00208788 -0.00259459)
(0.160285 -0.000163601 -0.00103863)
(0.160853 -0.00105138 -0.000631253)
(0.104807 -0.00959521 0.00608892)
(0.153285 -0.000569502 0.00117038)
(0.0844809 -0.00240782 -0.00192013)
(0.101704 -0.00255747 0.00795209)
(0.134649 -0.000805056 0.00209962)
(0.0274043 -0.00210178 -0.000102879)
(0.160813 -0.000686577 -0.000579138)
(0.0509579 0.00148156 -4.62602e-05)
(0.138399 -0.000439037 0.00116672)
(0.0294902 0.00416478 -0.00031456)
(0.16055 0.000951558 -0.000932265)
(0.101645 -0.00436137 0.00269891)
(0.152252 0.000143272 -0.000397956)
(0.119198 0.000594854 0.000319879)
(0.144464 3.62585e-05 6.7625e-05)
(0.147355 0.000666779 0.000278895)
(0.162273 0.000406579 -0.000445523)
(0.0352121 -0.00191678 -4.8836e-05)
(0.0490075 0.000668211 -0.00104824)
(0.0299397 -0.000718334 -0.000262676)
(0.159264 -0.000155024 0.000761052)
(0.150681 0.000305656 -0.000948889)
(0.136802 0.00176821 -0.00064514)
(0.154829 0.0006143 -0.000465527)
(0.0217773 0.000374418 0.000624427)
(0.101331 -7.21761e-05 -0.000142379)
(0.0918613 0.000946054 -0.00182706)
(0.159763 -0.000186751 0.000191443)
(0.128849 -0.00112988 -0.000108925)
(0.143366 -0.000303268 -0.000251634)
(0.108615 -0.000199924 0.00147621)
(0.160483 -7.58368e-05 0.00050854)
(0.0213458 -0.00243186 -0.00259743)
(0.0882759 -0.00333774 0.000473682)
(0.147793 -0.000102523 0.000407335)
(0.0272652 -0.00237892 0.0020273)
(0.045442 -0.000738211 -0.00207324)
(0.0637366 -0.000984317 0.000579388)
(0.0226658 0.00147733 -0.00238101)
(0.0978613 0.000503464 -0.00113373)
(0.157525 0.0010084 0.000120154)
(0.0618497 -0.00193657 -0.00154318)
(0.0200573 -0.0025601 -0.00177109)
(0.10853 0.000344794 -0.000768145)
(0.0265534 0.000237952 0.000384095)
(0.101731 0.00123751 -0.000639552)
(0.158749 0.000111265 8.48151e-06)
(0.16219 5.20097e-05 -0.000358073)
(0.158763 3.51494e-05 -0.000423642)
(0.15606 0.00119759 -0.000500776)
(0.158897 0.000155884 -0.000132382)
(0.131928 0.000535342 0.00149882)
(0.0483198 0.00109942 -0.0012175)
(0.159153 0.0006119 0.000836893)
(0.126863 -0.000269626 0.000846385)
(0.0906396 0.00038612 -0.00143603)
(0.0983458 -0.000996306 0.00118974)
(0.154343 -2.17901e-05 -0.000103477)
(0.11899 -0.00126373 -0.000336416)
(0.0684378 0.000197845 0.00201475)
(0.150394 5.21545e-05 0.000607992)
(0.0344121 0.00118508 0.000448921)
(0.0910167 6.68547e-05 0.000911863)
(0.0994884 -0.000247754 0.000218789)
(0.0631782 0.000214289 0.001106)
(0.153808 -1.19968e-05 0.000413092)
(0.106 -0.0125362 0.0134148)
(0.127209 0.0071199 0.00486983)
(0.0344219 0.000587012 -0.00278687)
(0.0275537 -0.00180601 0.000930795)
(0.0583103 0.00208357 -0.000881813)
(0.0214654 -0.00136663 -0.00162051)
(0.127596 0.000434907 -0.000424899)
(0.147747 0.00148844 -0.000419254)
(0.13084 0.00141998 0.000113704)
(0.110506 0.00983151 -0.0113019)
(0.132691 0.000467918 0.000348371)
(0.142754 0.00121542 -0.000139447)
(0.0260848 -0.00206654 0.00504264)
(0.149561 0.00112716 2.26373e-05)
(0.12727 -0.00380882 0.0123487)
(0.045669 0.000803271 -0.00120056)
(0.0233087 -0.00373592 0.000788391)
(0.117566 0.000181001 0.00113701)
(0.112972 -0.000939903 -0.000799892)
(0.0271837 -0.00180236 0.0030573)
(0.156264 -0.000918014 -0.000515966)
(0.0242409 -0.00266739 0.00205888)