/*--------------------------------*- C++ -*----------------------------------*\
| =========                 |                                                 |
| \\      /  F ield         | OpenFOAM: The Open Source CFD Toolbox           |
|  \\    /   O peration     | Version:  2406                                  |
|   \\  /    A nd           | Website:  www.openfoam.com                      |
|    \\/     M anipulation  |                                                 |
\*---------------------------------------------------------------------------*/
FoamFile
{
    version     2.0;
    format      ascii;
    arch        "LSB;label=32;scalar=64";
    class       volVectorField;
    location    "32";
    object      U:Transformed;
}
// * * * * * * * * * * * * * * * * * * * * * * * * * * * * * * * * * * * * * //

dimensions      [0 1 -1 0 0 0 0];

internalField   nonuniform List<vector> 
59516
(
(0.000452557 -0.00046898 0.10899)
(0.000354646 -0.000309331 0.100864)
(-0.000273099 0.00125093 0.116087)
(-0.0026568 9.88725e-05 0.130046)
(-0.00446576 0.000238932 0.113897)
(-0.0104411 0.0055615 0.101094)
(-0.0003 -0.00153699 0.131067)
(-0.000239536 -0.00103285 0.106529)
(-0.000886299 -0.000174784 0.115163)
(0.00221819 0.000977796 0.0580277)
(-0.00132208 -0.000595142 0.150676)
(-0.00241895 -0.00240868 0.062871)
(-0.000853396 -0.000453014 0.122819)
(0.000132407 -0.000227386 0.0213457)
(7.81056e-05 -0.00353637 0.0647628)
(-0.0013972 0.00383761 0.0546437)
(0.000494122 -0.000318984 0.160621)
(-0.00536676 -0.00161823 0.0707041)
(-0.0045107 -0.00148423 0.115915)
(-6.81784e-05 0.000628699 0.158344)
(-0.000927501 0.00053917 0.0557909)
(0.000487328 -3.84278e-05 0.148117)
(0.000228107 -0.000718946 0.153058)
(0.000988651 0.000563686 0.0359386)
(0.000665074 0.00122582 0.156779)
(-0.000320097 0.00156077 0.0690333)
(-0.000584844 0.00291058 0.0445163)
(-0.00322515 -0.00156556 0.0452884)
(-0.0017913 -0.00102455 0.0677549)
(0.00241252 0.0018595 0.0190494)
(-0.0214349 0.0012208 0.108349)
(-0.00270952 0.0021292 0.046542)
(-0.000783372 -0.000609862 0.133946)
(-0.00228887 -0.000744229 0.11469)
(-0.00410527 -0.000351202 0.138455)
(0.000194238 0.000278549 0.145935)
(-0.00271257 0.00141816 0.0181441)
(-0.00673603 -0.00223089 0.070503)
(-0.00282843 0.000481141 0.0980073)
(0.00169821 -0.000373219 0.153895)
(0.000227225 -0.000763762 0.105003)
(-0.00963167 -2.64441e-05 0.143467)
(-0.00180031 0.000492739 0.147726)
(-0.00079404 0.000369658 0.111468)
(-0.00195261 0.000757045 0.143837)
(0.00153402 0.000455846 0.0579301)
(-0.00293346 -9.88218e-05 0.133694)
(-0.00181288 0.00040163 0.158109)
(-0.0152813 0.00141747 0.111844)
(-0.00612569 -0.00014138 0.148216)
(-0.0178996 0.000522921 0.104038)
(-0.00390224 -0.00194796 0.0468023)
(0.0004192 -0.0020977 0.12296)
(-0.000321022 7.86895e-05 0.130168)
(-0.00255863 0.000621498 0.0494898)
(-0.000938704 0.000253232 0.130921)
(-0.0106465 -0.00016233 0.143219)
(-0.00457516 -0.00178042 0.0508431)
(0.000341621 0.000369355 0.160301)
(-0.00839924 -0.000345337 0.134664)
(0.000216914 0.000369587 0.147321)
(-0.00151716 0.00212547 0.0206572)
(0.000448167 0.000344356 0.155144)
(-0.000627079 0.000529261 0.156982)
(-0.000604074 0.000285382 0.127117)
(-0.00351934 0.000305024 0.145032)
(0.000199661 0.0031726 0.028216)
(-5.43008e-05 0.000200987 0.0436721)
(-0.0226895 0.000413621 0.121355)
(-0.000634463 -0.00115871 0.136926)
(-0.000674479 -0.000944718 0.0396223)
(-0.000516133 -0.000158633 0.155745)
(0.00376336 -0.00152516 0.024567)
(0.000459568 -1.79922e-05 0.142154)
(-0.000549762 0.000396868 0.163999)
(-0.000405066 -0.000120251 0.15506)
(-0.000928724 -0.00028779 0.158573)
(-0.000477651 0.00018205 0.145737)
(0.00186221 0.0011219 0.0488043)
(-0.00564802 0.000882815 0.148322)
(-0.00264386 0.000136952 0.0409842)
(-0.00467027 0.000552714 0.144395)
(-0.00384996 0.000568172 0.138776)
(-0.00271803 0.00141056 0.0215955)
(-0.00456859 0.000887979 0.144493)
(-0.000167108 0.000465656 0.161472)
(0.000691568 0.00114606 0.0345993)
(0.000701188 0.000265407 0.149188)
(-0.00228154 -0.00144843 0.0571816)
(-0.00937361 -0.00248803 0.107741)
(-0.0107715 -0.000142789 0.131282)
(-0.00135498 0.00107934 0.136894)
(0.00015738 6.34605e-05 0.160264)
(-0.000196942 0.00101067 0.136094)
(-0.000173759 -9.58195e-06 0.151784)
(-0.0112887 3.0905e-05 0.10997)
(-0.000968523 -0.000888466 0.139789)
(0.0019062 0.00412803 0.0564753)
(-0.00196036 -0.00101155 0.0661595)
(0.00122475 0.000947463 0.146204)
(-0.00123649 0.000997128 0.0396836)
(0.00294075 0.00137232 0.0263551)
(0.00313687 0.00165994 0.0250452)
(-0.00203607 0.00228029 0.0577615)
(0.000683852 -9.25937e-05 0.135977)
(-0.000387423 0.000464279 0.142688)
(0.00186962 -0.00343212 0.0427597)
(-0.000582655 -0.000353406 0.109152)
(-0.000426883 0.000586516 0.104807)
(-0.00148505 0.00236887 0.0698048)
(-0.0182985 -0.00027473 0.124858)
(0.0025017 -0.00221403 0.0329197)
(-0.00254869 0.00332847 0.0704146)
(-0.0191157 -3.44367e-05 0.118091)
(-0.000148449 -4.50403e-05 0.154513)
(0.000932997 -0.00118963 0.105233)
(-0.00198939 -0.00111254 0.0568891)
(-0.000765092 -0.000472284 0.134547)
(-0.000464702 -0.00110524 0.0236131)
(-0.00107356 0.00116889 0.144766)
(0.000349058 0.000133921 0.163989)
(0.000394645 0.000290553 0.157549)
(0.000287366 0.000318734 0.154251)
(-0.000216994 0.000401885 0.156178)
(-0.0171143 0.00133557 0.132147)
(-0.00244279 3.0218e-05 0.0918408)
(-0.00195386 -0.000829569 0.0320086)
(-0.0120262 0.00217491 0.138065)
(-0.0130207 0.00305885 0.0898819)
(0.000657481 -6.56526e-05 0.161976)
(0.000821351 -0.000707042 0.162263)
(0.00145439 0.00185594 0.116788)
(-0.000584799 -0.00215596 0.0251566)
(0.000394439 0.0005388 0.14767)
(0.000897429 0.000376532 0.106441)
(-0.00148989 0.00126441 0.120482)
(-0.0152293 0.00142445 0.107759)
(0.000525384 0.000502938 0.13329)
(-0.000358105 0.00272319 0.0421433)
(-0.00106843 0.000899877 0.103121)
(-0.00102493 0.00224573 0.046583)
(-0.000151848 -5.39267e-05 0.163443)
(-0.00102373 -0.001715 0.02005)
(-0.000328246 0.00133562 0.128075)
(-0.000184618 0.000347371 0.160165)
(-0.0011509 0.000821449 0.141083)
(-0.00257926 0.00110993 0.141325)
(-0.00162983 0.00122697 0.121508)
(0.000951201 -0.00176644 0.0621494)
(-9.14014e-05 0.00115463 0.110922)
(1.87526e-06 -0.00084293 0.108459)
(0.000198757 0.00129425 0.0376726)
(0.00109389 0.000789017 0.158847)
(0.000921214 0.000195717 0.151227)
(-0.000346128 -0.00187724 0.094247)
(-0.00193755 0.00109982 0.0202787)
(0.00022458 -2.40738e-06 0.117546)
(-0.00084319 0.000658433 0.118113)
(-0.00102403 0.000631738 0.0872889)
(-0.00299245 -0.00215461 0.0209185)
(0.00276732 0.00240246 0.0682901)
(0.0037125 -0.00201676 0.0703443)
(-0.00062438 0.00144345 0.0373679)
(-0.000256613 -0.000505951 0.0271939)
(0.00291501 0.000167144 0.104624)
(-0.00094189 0.000557499 0.161254)
(0.000679912 8.47423e-06 0.0638427)
(-0.000473878 -7.64548e-05 0.161228)
(0.00128084 0.00242133 0.0211948)
(-0.000243719 -0.000359808 0.134513)
(-0.00133207 -0.00118531 0.0882039)
(-0.000861376 0.000668401 0.0548709)
(0.000110449 -0.00185042 0.0675306)
(0.000647412 -0.000895167 0.137571)
(0.00059947 0.000774996 0.0529672)
(-0.00319516 -0.000787923 0.135851)
(-0.000934844 7.85655e-06 0.158319)
(-0.00348332 0.000461819 0.148933)
(0.000486574 -0.00334638 0.0703035)
(0.000540322 0.000310494 0.0435617)
(-0.000577192 -0.00177593 0.144715)
(0.000913671 0.0031277 0.0353149)
(-0.00109337 -0.00222359 0.0306224)
(0.000663452 0.0017528 0.0676425)
(0.000445329 -0.000620095 0.161091)
(-0.000343355 0.000682602 0.0611114)
(-0.00285169 0.000660137 0.0372012)
(0.000200794 0.000219749 0.0243426)
(-8.5627e-05 -0.000186495 0.124861)
(0.00156948 0.000803299 0.104453)
(-0.00276231 -0.000533007 0.13482)
(-0.000871161 -0.00312796 0.0543944)
(-0.000383064 -0.000335913 0.156418)
(0.00191586 -0.00166552 0.0600012)
(-0.000282366 0.000374664 0.152097)
(0.000447311 0.000740171 0.0308591)
(0.000771517 6.33342e-05 0.0597556)
(0.000260675 -0.00111813 0.0427932)
(-0.00454543 -0.000292656 0.11353)
(0.00046104 -0.00016946 0.150787)
(-0.00177342 -0.00220327 0.0842426)
(-0.000198561 -0.00024672 0.162379)
(0.000407597 0.00104598 0.107226)
(0.00174637 -0.00196573 0.0207491)
(0.00121599 0.00108896 0.1313)
(0.000125244 -0.000123978 0.143937)
(2.83551e-05 0.000165976 0.16273)
(0.000224271 -0.000445465 0.146928)
(0.000201223 -0.000685448 0.0241354)
(0.0015973 0.000884068 0.117701)
(-0.000394133 0.00481839 0.0524396)
(-0.00387071 0.000819381 0.0244669)
(-0.00112024 0.000895144 0.144163)
(-0.000209164 0.00122734 0.0587058)
(-0.000559382 -0.000997397 0.11997)
(-0.00068909 -0.000241386 0.159906)
(-0.000793086 0.000410979 0.139678)
(-0.000799967 0.000731536 0.153729)
(-0.00180216 0.00319978 0.0569943)
(0.000778895 0.000272473 0.153415)
(-0.00126227 -0.00257455 0.0585002)
(-0.000269834 0.000619067 0.107671)
(-0.000828018 -0.00104391 0.154821)
(0.000459812 -0.000690161 0.0425247)
(-0.00116747 -0.00055079 0.156867)
(0.000524142 0.000565661 0.158572)
(-0.0010926 -0.001078 0.0295216)
(-0.00267711 0.000608292 0.0494111)
(-0.000461313 0.000910351 0.158197)
(-0.00196027 0.00352258 0.0567999)
(0.00055705 0.00069915 0.161159)
(-0.000597739 0.000302017 0.159014)
(-0.000835303 -0.000841119 0.160528)
(-0.00130612 -0.00215132 0.0264483)
(-0.00138289 -0.00118683 0.0343701)
(-0.00145633 5.96973e-05 0.0363105)
(0.000524665 -0.000472396 0.0665067)
(-0.00148931 -0.000386777 0.100523)
(-0.00138125 0.000159992 0.150714)
(0.00181819 -0.000196149 0.0592243)
(0.000871091 0.000157009 0.162096)
(0.00260178 0.00187182 0.0218117)
(0.000795817 0.000551918 0.0564986)
(0.00249503 0.00148142 0.0265442)
(0.000750911 0.000262426 0.161364)
(-0.000191821 -0.000680066 0.0972882)
(-0.000668132 7.88807e-05 0.143564)
(-0.000385591 0.00147036 0.068317)
(0.000526544 0.00029149 0.159805)
(-0.000329013 -0.000175796 0.108465)
(0.00169328 -0.00047746 0.158012)
(-0.000627767 0.000279417 0.140198)
(0.000800395 0.000414379 0.161855)
(0.000127153 0.000342672 0.143032)
(-0.000407093 0.00130806 0.145007)
(-0.00015982 0.000554429 0.152512)
(-0.000255804 -8.69432e-05 0.0578343)
(-0.00125749 0.000145939 0.149565)
(0.00116997 0.00210049 0.044467)
(-0.000410635 0.00219921 0.0629997)
(-0.00118347 0.000388598 0.132537)
(-0.000517671 0.00114265 0.154587)
(0.0027132 0.000894627 0.11873)
(4.59376e-05 0.00101888 0.161108)
(0.00222745 0.000437972 0.103157)
(0.0001681 -0.00296323 0.0603634)
(-0.000186063 -0.000683537 0.153877)
(0.00185573 0.000256422 0.0965389)
(-0.000632791 -0.000794491 0.0491843)
(-0.000230978 0.00138581 0.0544021)
(-0.00148832 0.00205335 0.100439)
(-0.000666201 -0.000424793 0.158204)
(-0.00133038 0.00177076 0.102443)
(-0.000607143 0.0012697 0.097396)
(-0.00128001 0.000491376 0.156416)
(0.000190368 0.00285743 0.0972797)
(-0.00132246 -0.00272163 0.022792)
(0.000525907 0.00114203 0.155923)
(0.00223838 -0.00166354 0.0274249)
(0.00182415 0.000980079 0.0426658)
(-0.00081648 -0.000713963 0.159985)
(-0.000174621 0.000558055 0.140165)
(-0.00359481 0.00193457 0.0267232)
(-0.000279125 -0.000970466 0.124603)
(-0.00102639 -0.00197554 0.128701)
(0.000458806 0.000628454 0.158195)
(0.000377831 -0.000366487 0.16083)
(0.00221372 -0.00214691 0.0259914)
(-0.000815531 0.000432419 0.160009)
(-0.000774092 -0.00125169 0.160329)
(-0.000325872 -0.00104278 0.15824)
(-0.000825026 -0.000515362 0.136083)
(-0.00158717 0.000866543 0.136195)
(-0.000584736 -0.000269581 0.0991962)
(0.000112681 -0.00111366 0.161825)
(-5.21797e-06 0.00172062 0.0299631)
(0.000901702 -0.00157069 0.151958)
(0.00100238 0.00077954 0.140944)
(-0.000633144 -0.00114799 0.16164)
(-0.000126219 -0.00124641 0.155261)
(0.00084248 -0.000610693 0.120178)
(0.00103429 -0.00145083 0.0623985)
(-0.000744763 -0.00158604 0.0244994)
(0.000744551 0.000439534 0.0307526)
(-0.00118759 0.00102143 0.159374)
(-0.00315759 0.00135904 0.0221143)
(-0.000775792 -0.00079361 0.0667141)
(-0.00109683 0.00293635 0.0549761)
(0.000727379 -0.000710838 0.158059)
(-0.000252446 -0.000543391 0.162129)
(3.65483e-05 0.000346973 0.15176)
(0.00124548 0.000387131 0.0621834)
(0.00234104 4.83027e-05 0.106492)
(0.000159894 0.00451127 0.0427903)
(0.000813057 -0.00168278 0.056927)
(5.60112e-05 -0.000453728 0.149964)
(0.000710642 -0.00138961 0.102907)
(-0.012822 -0.00157375 0.107727)
(0.000229588 -0.00223638 0.0936635)
(-0.00060736 -5.65737e-05 0.0456642)
(0.00210061 -7.97875e-05 0.0674911)
(-0.000285475 -0.0016507 0.111871)
(-6.91794e-05 1.01314e-06 0.161069)
(-0.000396806 -0.000276788 0.163516)
(-0.000987704 0.000687456 0.162775)
(4.29204e-05 0.00147971 0.156506)
(-0.00518728 -0.000884734 0.0980356)
(-0.00127111 0.000364391 0.128822)
(-0.00110818 0.00148132 0.155072)
(0.000139412 1.36757e-05 0.154678)
(0.000937332 -0.000250116 0.156304)
(-0.00252523 -0.00232094 0.0599337)
(0.00301591 -0.00106481 0.0239911)
(0.000589061 -0.000237943 0.147898)
(0.00124954 0.00270878 0.0426115)
(0.000109995 -0.000210829 0.0344196)
(-0.00139028 -0.000109062 0.153588)
(0.000580169 0.00063707 0.145367)
(-0.00153376 0.00263167 0.0613736)
(-0.000699081 -0.000930587 0.159192)
(0.000334953 0.00147936 0.158543)
(-0.00095254 4.49053e-05 0.162364)
(-0.000333211 -0.000327687 0.160826)
(-0.000155885 -0.00161545 0.0346863)
(0.000190685 -0.000346294 0.155223)
(-0.00136294 0.000254239 0.159655)
(0.000135426 0.000734681 0.0609793)
(2.71354e-05 -0.00142934 0.16099)
(-0.000179896 0.000362669 0.159524)
(0.000725398 0.000573866 0.133479)
(0.000584452 0.00051197 0.125125)
(-0.000298376 -0.00114032 0.14744)
(0.000844261 0.00105876 0.142704)
(-0.000327963 0.000144857 0.0733045)
(-0.000639673 0.00166853 0.0337856)
(0.000304614 0.00250501 0.0368724)
(0.000426534 0.000342943 0.0995146)
(-0.0124131 -1.06452e-05 0.0864548)
(-0.00731446 0.000776191 0.0746925)
(0.000321274 -0.000357269 0.0879657)
(0.00133921 -0.00118226 0.118014)
(-0.00027422 0.000386306 0.133313)
(-0.00274859 0.000865543 0.153727)
(0.000763521 4.85577e-05 0.15466)
(-0.000452819 -0.000225778 0.133886)
(-0.000540145 -0.00051019 0.146601)
(-0.00130957 -9.0455e-05 0.146197)
(-0.000438602 0.000907005 0.0337841)
(-0.0225084 0.000862656 0.11387)
(0.000500267 0.00175236 0.0618711)
(-0.00105468 0.00183708 0.0439777)
(0.000838738 0.000313274 0.04427)
(-0.000138467 -1.39218e-05 0.155032)
(-0.000223756 0.000250625 0.0982793)
(-0.000796943 0.000111421 0.155604)
(-0.00142293 0.00160963 0.0215536)
(0.000359277 -0.00015683 0.129077)
(0.00123071 -0.000746768 0.0478239)
(-0.000242384 0.000749949 0.156527)
(-0.000495206 0.000554752 0.0512055)
(0.00181939 0.00071918 0.0653568)
(0.000761392 0.00244649 0.111235)
(-0.00128438 0.000450219 0.148894)
(0.00288617 -0.000136635 0.021328)
(-2.59315e-05 0.00261232 0.0575805)
(-0.000228632 -0.000567158 0.134434)
(4.50213e-06 -0.00246386 0.0251012)
(-0.00783411 -6.91983e-05 0.130704)
(0.000366491 -0.00245179 0.119446)
(0.000255468 -0.00188539 0.133529)
(0.00237122 -0.00244633 0.0986204)
(0.00191215 0.000410873 0.0922033)
(0.00112856 -0.000673967 0.156754)
(-0.00999572 -0.00323872 0.0774146)
(-0.00137747 -0.000448677 0.163198)
(-0.0121212 0.000681004 0.11141)
(-0.0021916 0.00157045 0.0630526)
(-0.000489101 0.00154871 0.0656896)
(-0.000462896 -0.000978303 0.163162)
(0.000665897 -0.00134658 0.164542)
(0.000611844 -0.000509447 0.0560093)
(-0.000244304 -0.000859332 0.136804)
(-0.00218159 0.00084775 0.102595)
(0.000700234 -0.000571567 0.162185)
(0.000562455 -0.000965078 0.161764)
(-0.00110852 -0.00370546 0.0486604)
(-0.000448418 0.000666436 0.134194)
(0.00206805 -0.000145972 0.144975)
(-0.000168019 -0.00033222 0.147336)
(0.000346493 -0.00043847 0.153501)
(0.00271005 -0.00145529 0.0230146)
(-0.00291921 -0.000858148 0.0224634)
(-0.00118602 0.0012847 0.128345)
(5.32668e-05 -0.000174022 0.160847)
(0.0011394 0.00107523 0.162461)
(-0.00233337 0.00122213 0.0372766)
(0.000755378 -0.000961628 0.156712)
(-0.000982799 0.000231868 0.111137)
(-0.000903969 -0.000454381 0.157485)
(0.00113523 0.000736249 0.162651)
(0.000627759 0.000434651 0.163172)
(-0.000320996 -0.00134822 0.1607)
(-0.000211502 -0.00184746 0.1609)
(0.000381487 -0.000579061 0.0939398)
(-0.00156346 0.000389492 0.161429)
(-0.00204877 0.00254886 0.0596139)
(-0.000178288 0.00023917 0.157354)
(-0.000963038 -0.000815276 0.113385)
(-0.00126504 0.000424242 0.148737)
(-0.000406255 -0.00029602 0.160099)
(-3.65855e-05 5.36642e-05 0.148407)
(0.00108383 0.000153126 0.143464)
(0.0018585 0.00278811 0.0434299)
(0.000833861 -3.5042e-05 0.0362334)
(-0.00213689 -0.00210287 0.0230941)
(-0.00666407 0.000128473 0.149557)
(-3.06002e-05 9.45721e-05 0.166594)
(-0.000908045 0.000141483 0.138313)
(0.000137902 -0.00158295 0.12927)
(0.0011273 0.000217761 0.0328387)
(0.000865663 -0.00285537 0.0255404)
(-0.000811641 -0.00160487 0.118122)
(-0.00106958 0.0008174 0.147559)
(-0.000543838 -0.000444736 0.16069)
(0.000601655 -0.000559839 0.152187)
(-0.00123889 -0.000399741 0.137636)
(-0.000475587 0.000842089 0.164222)
(0.00105712 -0.000349239 0.136271)
(-0.00129644 0.00243474 0.0284713)
(-0.000261601 0.000469477 0.125368)
(0.00266433 -0.00160189 0.061268)
(-0.00712023 -0.000778647 0.0705505)
(0.000273448 0.000218292 0.148894)
(0.000368922 5.02634e-05 0.0979922)
(0.000241931 -0.000179495 0.144975)
(-0.00368932 0.00234407 0.0224347)
(0.00157864 -0.000730397 0.164029)
(-1.10347e-05 -2.7269e-05 0.162659)
(-0.0014018 0.000562397 0.160614)
(0.000703237 -0.000641815 0.0957651)
(-0.000293163 -0.000944261 0.148859)
(-0.00086001 -0.000721837 0.158634)
(0.00011051 0.00038159 0.123122)
(-0.00106076 0.000430983 0.161118)
(-0.00413312 -0.000700023 0.100143)
(-0.000257194 -0.000310783 0.159938)
(-0.00206815 0.000506526 0.147534)
(0.00163333 -0.00136217 0.0219823)
(9.98306e-05 0.000836416 0.162109)
(0.00130596 0.0014314 0.119221)
(-0.00298171 -0.00282272 0.0486845)
(-0.000719648 0.0015034 0.0955933)
(0.000524512 0.000447965 0.157669)
(2.27034e-05 -0.000662738 0.131751)
(0.000987096 0.00233227 0.0893588)
(-0.0024544 0.00173065 0.0217539)
(-0.000383227 0.000993338 0.161404)
(0.000357955 0.00237578 0.127178)
(-0.000356206 0.000258288 0.154893)
(-0.000637556 -0.000192915 0.126862)
(-0.00242409 0.000580733 0.039018)
(0.000614373 -0.000213191 0.140499)
(-0.00395353 0.000254157 0.026729)
(-3.43877e-05 0.000362166 0.155077)
(-0.0119588 0.000607198 0.102281)
(0.000403713 0.000321891 0.157668)
(-0.000344767 0.00189199 0.0550089)
(-0.00124184 0.00161341 0.110044)
(-0.000399631 0.00134973 0.0989127)
(0.00199011 -0.00200175 0.037022)
(0.000602684 0.000288377 0.160365)
(-0.000871964 0.000256342 0.156154)
(-0.00230731 -0.000859179 0.0236959)
(0.000734556 -0.00126367 0.153195)
(-0.000664399 -0.00121294 0.160725)
(-0.00055951 0.00211891 0.0394333)
(0.0013883 0.00230814 0.0647638)
(-0.00154259 0.00202716 0.0562266)
(-0.000571786 0.00107616 0.149455)
(0.000285794 -0.00030598 0.160095)
(-0.00116564 0.00125994 0.0331352)
(0.00179608 -0.000860485 0.0568961)
(-0.000309432 0.0010783 0.0593629)
(0.0011371 0.000766773 0.117882)
(0.000256841 -0.00050807 0.160518)
(-0.00290046 -0.00191938 0.0245445)
(0.00116037 0.000701254 0.155206)
(-0.00121153 -0.000742335 0.149536)
(-0.000569064 -0.000964028 0.160661)
(-0.00234611 -0.00482496 0.0901002)
(0.00109013 0.000456239 0.160653)
(0.00129085 -0.00219679 0.0240562)
(-0.000769901 -2.69536e-05 0.157233)
(0.000206307 -0.000487509 0.0289818)
(0.000375155 -0.0018859 0.0615)
(6.83683e-05 0.000782231 0.151276)
(-0.00106654 0.00155247 0.0635222)
(-0.00293131 0.00165676 0.0221381)
(0.000262838 -0.00133944 0.0392877)
(0.000367491 0.00279576 0.0480344)
(0.000721389 -0.00184454 0.0618148)
(-0.000691871 0.000241965 0.146022)
(-3.57106e-05 0.00117178 0.0523317)
(0.00109555 -0.00208908 0.061828)
(-0.0148683 0.00050939 0.128018)
(-0.000956564 -0.000110693 0.156377)
(0.00159314 7.42255e-06 0.0256646)
(0.000377986 0.000948568 0.110281)
(-0.00832164 -0.0042874 0.0815092)
(0.00166078 6.84623e-05 0.159247)
(-0.00102857 0.000956331 0.0611398)
(-0.00126583 0.00017511 0.154322)
(0.0014466 0.00259153 0.0603381)
(-0.000699695 0.000307196 0.12433)
(-0.000896134 -0.000523674 0.160826)
(0.00291677 -0.00448863 0.0539577)
(0.00011277 0.000223701 0.161776)
(-0.00302675 -0.000943465 0.0480278)
(0.00281904 -0.00178936 0.0205741)
(-0.000526283 0.000102575 0.143426)
(0.000111413 -0.000879684 0.160182)
(-0.000817357 0.000401972 0.131454)
(0.000799533 -0.0014402 0.127181)
(0.00169545 -0.000218859 0.161768)
(0.0015936 -5.83746e-05 0.0636145)
(0.0017416 -0.000224931 0.158123)
(0.00136013 0.00282219 0.0597137)
(-0.000708721 -0.000551075 0.16031)
(0.00179647 0.000557693 0.128084)
(-0.00348949 -0.00223342 0.0296818)
(-0.000404016 0.00058809 0.151637)
(0.00108612 -0.00133706 0.0546569)
(0.00141095 0.0022709 0.0278449)
(-0.000420172 0.000184811 0.149029)
(-0.00161272 0.000107176 0.0453015)
(-0.000182044 0.000605547 0.137673)
(0.000527128 0.00069308 0.159056)
(-0.000430404 0.00110781 0.13184)
(7.52467e-05 0.00355778 0.0556535)
(0.00149868 -0.000213447 0.164117)
(0.00158364 0.000435957 0.0935297)
(-0.000400035 0.000599685 0.166234)
(0.00020223 0.00020107 0.163537)
(0.000998214 0.000714116 0.163951)
(0.000277275 -0.000740709 0.16018)
(0.00294007 -0.00115135 0.0461668)
(0.000494948 0.000318223 0.0539799)
(-0.00053513 0.00028817 0.16182)
(-0.000626096 -0.00154569 0.155718)
(0.000377505 0.00240163 0.0336608)
(-4.68014e-05 -0.000252169 0.153764)
(5.02241e-05 0.000541805 0.165256)
(0.00090316 0.00123387 0.16265)
(0.00100808 0.00129631 0.163519)
(-0.000783957 0.000868234 0.119528)
(-0.00178308 0.00240236 0.0228682)
(0.000570857 0.000370687 0.164149)
(0.00106581 -0.00137695 0.103138)
(-0.000426929 -0.00024022 0.146389)
(-7.65115e-05 -0.000106657 0.0986362)
(-0.00191596 -0.00112236 0.0308849)
(-0.000824821 0.000416668 0.159965)
(-0.00180737 0.00238013 0.0946839)
(0.000452765 -0.000203863 0.135053)
(0.000979233 0.00134183 0.163178)
(-0.00105996 0.00132309 0.140146)
(0.00167584 0.00204723 0.0184259)
(-0.0024429 0.00104993 0.0234489)
(-0.000268828 -0.00117711 0.158263)
(0.000125277 -0.000522679 0.155132)
(-0.000328738 0.00160524 0.162897)
(-0.000935895 -0.00013978 0.146648)
(-0.000317483 0.00146863 0.0946023)
(-0.000276325 0.00118999 0.147208)
(0.000125205 0.000317741 0.160663)
(0.000778718 0.00170238 0.0214069)
(-0.000290127 -0.00125211 0.158686)
(-0.0137737 0.00111134 0.134832)
(-7.7227e-05 0.00207349 0.0395008)
(-0.0003564 0.00364038 0.0565931)
(9.40858e-06 0.00116107 0.144762)
(0.00174016 -0.000439219 0.141387)
(0.00035708 -0.000705148 0.137784)
(0.000776051 -0.000433813 0.126993)
(-0.00311622 0.00214068 0.108527)
(-0.000161107 -0.000229024 0.162764)
(0.00102792 -0.00284131 0.10053)
(0.00139604 -0.000577266 0.163427)
(0.000162616 -0.000111162 0.158424)
(0.00144798 -0.000685686 0.165097)
(0.00114294 -0.00101698 0.158914)
(0.00157984 0.00121251 0.0421786)
(0.00131124 -0.000230688 0.156575)
(-0.000350863 -0.00165508 0.0342603)
(-0.0105501 -0.00143543 0.094452)
(0.00186524 -0.00143462 0.0626295)
(-0.0127108 -0.000109641 0.127075)
(0.000758543 0.000290369 0.132355)
(-0.0192264 0.000526635 0.117509)
(0.00026532 0.000214737 0.157306)
(-1.01313e-05 3.94073e-05 0.16375)
(-0.000311686 0.000246077 0.150115)
(0.000931591 0.00071263 0.157617)
(-0.000552457 -0.000101274 0.0355168)
(-0.00460499 0.000149541 0.100941)
(-0.016087 0.00112333 0.112456)
(-0.000266208 -3.75882e-05 0.15964)
(-0.000636305 0.00247458 0.115666)
(-0.0129426 0.000964754 0.136668)
(-0.00366113 0.000853918 0.152861)
(0.000805449 0.000988203 0.114121)
(-0.00132514 -0.00058566 0.0366356)
(0.00153794 0.0027092 0.0560006)
(-0.000227678 -0.000201798 0.0253249)
(0.00142176 0.00126637 0.0245305)
(-0.000271154 -1.30943e-06 0.0357895)
(-0.00894307 0.000720806 0.134107)
(-0.000732894 -5.35359e-05 0.138386)
(-0.0023732 -0.00257594 0.0248678)
(-0.00298265 0.000737136 0.023522)
(0.000338368 0.000522276 0.162154)
(-0.0147959 0.00325523 0.0962005)
(-0.00178747 5.16313e-05 0.0386386)
(-0.000111275 -0.000206102 0.146482)
(-0.00174879 0.000531984 0.108431)
(0.00116605 -0.000224963 0.135774)
(0.0013942 0.00204981 0.043381)
(-0.00111754 -0.00148388 0.0555564)
(0.000299991 0.00105909 0.114573)
(0.00022594 0.000259816 0.157971)
(7.50652e-05 0.000755503 0.149185)
(-0.00183031 0.00246903 0.0371728)
(-0.00065059 -0.00219684 0.0246933)
(-0.0188958 0.000214602 0.106243)
(-0.00281056 0.00196674 0.0264401)
(-9.18906e-05 0.00160168 0.135219)
(-0.00364244 -0.00114069 0.0283479)
(0.000624892 0.00229721 0.107966)
(-0.000555871 -0.000182403 0.159816)
(0.00105758 0.000582847 0.164666)
(-0.000460556 -0.00105409 0.0454082)
(0.000857697 -0.000591138 0.100972)
(-0.00190374 -0.000382927 0.0362657)
(-0.00358227 -0.000180318 0.0286515)
(0.000418237 -0.000700407 0.160081)
(-0.00273267 0.00132485 0.0199152)
(0.00149739 -0.000399422 0.154831)
(-0.000514104 -0.0023633 0.0493328)
(-0.000147933 0.000739714 0.151149)
(-8.56932e-05 0.0002018 0.141397)
(0.00331194 0.00136881 0.0224637)
(-0.00087146 -0.00261072 0.0584367)
(0.000151237 0.000570581 0.146125)
(-4.54999e-05 0.00157825 0.0349726)
(0.0004643 -0.00081835 0.15139)
(-0.00127532 0.0037634 0.0555286)
(0.000284675 6.49957e-05 0.111971)
(0.000613388 0.000857576 0.161648)
(0.00139365 0.00010702 0.0372906)
(-0.0032438 -0.000672131 0.0241075)
(-0.00100222 -0.000280076 0.0520983)
(-0.0178172 6.99595e-05 0.110776)
(-0.000536034 5.93503e-05 0.108116)
(0.000251784 0.00366779 0.0573263)
(0.00149376 -0.000158168 0.0883467)
(0.000513135 0.00139033 0.0315916)
(0.00081237 0.00077184 0.161779)
(0.00106247 0.0012918 0.0237701)
(-0.000393656 0.00139837 0.16073)
(0.000556494 0.000549208 0.145412)
(0.000386728 0.000308618 0.157307)
(-0.00201027 -0.000275333 0.0198741)
(0.00103318 0.000571122 0.149163)
(-0.000218937 0.000457844 0.0855447)
(0.000249259 0.000630415 0.152994)
(5.07732e-05 0.000358577 0.0558014)
(-0.0146638 0.000413545 0.108128)
(-0.00124797 0.00108031 0.155766)
(0.000733072 0.000153251 0.0411085)
(1.74039e-05 0.000599731 0.16332)
(-0.0204499 0.00237329 0.108852)
(-0.000539899 -0.000359781 0.11985)
(-0.000717891 -0.00178454 0.0334925)
(-0.00113255 0.00229451 0.0524352)
(1.22087e-05 9.1578e-05 0.160974)
(0.000355832 -0.00130412 0.133602)
(-0.00100543 0.00115938 0.0332372)
(-0.000192253 -0.00175142 0.112337)
(0.00178185 0.00123478 0.0617555)
(-0.00177442 0.00193786 0.0254469)
(-0.00018821 -0.000105844 0.160912)
(-0.0101722 0.000473644 0.103331)
(-0.000981926 -0.00232467 0.13363)
(5.82255e-05 0.000147129 0.159209)
(0.000553889 0.000140352 0.160086)
(0.000633146 -0.00023356 0.157064)
(0.000728676 0.000443214 0.13421)
(0.0011977 0.000367088 0.0447611)
(-0.000530904 0.00266952 0.0405975)
(0.00146569 0.000158228 0.163923)
(-0.0128708 -0.000534095 0.107559)
(0.00028417 0.00144493 0.124522)
(0.00113394 -0.000681012 0.13142)
(0.00183367 -0.000699008 0.0838802)
(-0.000106173 0.000571028 0.145982)
(-0.000230153 0.000669926 0.155259)
(-0.00112061 -0.000886481 0.102039)
(-0.00128659 0.00145838 0.107901)
(-0.00103716 0.00213933 0.0385249)
(-0.000738317 -0.000389017 0.0737622)
(-0.00288359 -0.0020916 0.0449057)
(0.000163664 -0.000970279 0.148313)
(-9.67435e-05 -0.00038195 0.160609)
(-0.000240545 0.00283126 0.0978918)
(0.000217971 -0.000968948 0.101169)
(0.00128171 -0.00193717 0.0215657)
(9.6332e-05 -0.000649739 0.081818)
(-0.00302525 -0.00139247 0.0600839)
(-0.000847927 0.000621721 0.160285)
(0.00115455 0.000413396 0.160853)
(-0.0113413 -0.000720165 0.104807)
(-0.00125852 0.000332037 0.153285)
(-0.00141551 0.00273511 0.0844809)
(-0.00834473 0.000376445 0.101704)
(-0.000138668 -0.00224439 0.134649)
(0.00192942 0.000839879 0.0274043)
(0.000814236 0.00037922 0.160813)
(-0.000231927 0.00146402 0.0509579)
(-0.00116436 -0.000445244 0.138399)
(0.00371279 -0.00191301 0.0294902)
(0.00130527 0.000266198 0.16055)
(-0.00512117 -0.000281506 0.101645)
(5.69063e-05 -0.000419115 0.152252)
(0.000264115 -0.000621625 0.119198)
(3.78496e-07 7.67312e-05 0.144464)
(3.49551e-05 0.00072191 0.147355)
(-0.000243618 0.000551767 0.162273)
(0.000160204 0.0019107 0.0352121)
(-7.89864e-05 -0.0012406 0.0490075)
(-0.000349268 0.000680452 0.0299397)
(2.89957e-05 0.000776139 0.159264)
(0.000941332 -0.000328192 0.150681)
(0.00184366 0.000379081 0.136802)
(0.000690031 -0.00034342 0.154829)
(0.000309474 -0.000659033 0.0217773)
(-1.36002e-05 0.000159048 0.101331)
(0.00150155 -0.0014066 0.0918613)
(-2.77053e-05 0.000266005 0.159763)
(-0.00113117 9.46751e-05 0.128849)
(-0.000236102 -0.00031551 0.143366)
(-0.00133631 0.000658358 0.108615)
(7.27525e-05 0.00050899 0.160483)
(-0.00289412 0.00206993 0.0213458)
(0.000373266 0.00335046 0.0882759)
(-0.000226049 0.000354026 0.147793)
(-0.000187788 0.00311992 0.0272652)
(0.000290901 0.00218144 0.045442)
(-0.00101832 -0.000517304 0.0637366)
(-0.00253694 -0.00118982 0.0226658)
(0.00123795 7.93397e-05 0.0978613)
(-0.00101549 -9.30426e-06 0.157525)
(-0.000413695 0.00244143 0.0618497)
(0.0024048 0.00197681 0.0200573)
(-0.000341438 -0.000769642 0.10853)
(0.000450958 2.80449e-05 0.0265534)
(1.37309e-06 0.001393 0.101731)
(1.63533e-05 0.000110383 0.158749)
(0.000259234 0.000252426 0.16219)
(0.000299995 0.000301182 0.158763)
(0.00108729 0.000709073 0.15606)
(0.000129199 0.000158531 0.158897)
(-0.000327284 0.00155754 0.131928)
(0.00119656 -0.00112218 0.0483198)
(0.00103517 5.69601e-05 0.159153)
(5.45887e-05 -0.000886615 0.126863)
(-0.000788785 -0.00126059 0.0906396)
(-0.00141652 -0.00063371 0.0983458)
(9.75743e-05 -4.0761e-05 0.154343)
(-0.000978132 0.000868015 0.11899)
(0.00123337 0.00160535 0.0684378)
(-0.000243734 -0.000559436 0.150394)
(0.000310089 -0.00122874 0.0344121)
(0.000777607 0.000480927 0.0910167)
(0.000245922 -0.000220846 0.0994884)
(-0.000947999 0.000608655 0.0631782)
(0.000339856 0.000235132 0.153808)
(-0.0183548 -0.000464095 0.106)
(-0.00862513 0.000124073 0.127209)
(-0.000566008 0.00279121 0.0344219)
(0.00200579 -0.000323812 0.0275537)
(-0.000343346 0.00223628 0.0583103)
(0.00205596 -0.000516494 0.0214654)
(-0.000479842 0.000373411 0.127596)
(-0.000237789 0.00152797 0.147747)
(-0.000788335 0.00118651 0.13084)
(-0.0149325 0.00118838 0.110506)
(-0.000478518 0.000333661 0.132691)
(-0.000195976 0.0012076 0.142754)
(0.004508 0.00306214 0.0260848)
(-0.000541644 0.000988744 0.149561)
(-0.0129216 -0.000173508 0.12727)
(-0.00140465 -0.000336992 0.045669)
(0.00286605 0.00252277 0.0233087)
(-0.000348422 -0.00109734 0.117566)
(-0.00104887 -0.000650471 0.112972)