/*--------------------------------*- C++ -*----------------------------------*\
| =========                 |                                                 |
| \\      /  F ield         | OpenFOAM: The Open Source CFD Toolbox           |
|  \\    /   O peration     | Version:  2406                                  |
|   \\  /    A nd           | Website:  www.openfoam.com                      |
|    \\/     M anipulation  |                                                 |
\*---------------------------------------------------------------------------*/
FoamFile
{
    version     2.0;
    format      ascii;
    arch        "LSB;label=32;scalar=64";
    class       volScalarField;
    location    "40";
    object      epsilon;
}
// * * * * * * * * * * * * * * * * * * * * * * * * * * * * * * * * * * * * * //

dimensions      [0 2 -3 0 0 0 0];

internalField   nonuniform List<scalar> 
59516
(
0.0129384
0.0122256
0.00977354
0.00906529
0.0093287
0.345215
0.00865159
0.0118496
0.0105677
0.0259391
0.00771157
0.0264313
0.0100849
0.0822368
0.0223578
0.0261317
0.00610495
0.0389197
0.0141096
0.00583409
0.0340658
0.00680731
0.0064617
0.0362171
0.00585833
0.0201327
0.0356324
0.0441639
0.0240301
0.0625072
0.0458462
0.0395526
0.00783798
0.0109328
0.00958705
0.00673462
0.0599102
0.0446175
0.0170697
0.00602048
0.0120949
0.00986663
0.00791124
0.0134206
0.0078035
0.0267531
0.00978029
0.00684238
0.0126743
0.00850608
0.0271228
0.0295634
0.00928323
0.00906665
0.028001
0.0101493
0.0098383
0.0310262
0.00595673
0.0114738
0.00682143
0.0474043
0.00630869
0.00639465
0.00899569
0.00808413
0.0597727
0.0296237
0.0200843
0.00881595
0.0289953
0.00644387
0.0472073
0.00769884
0.00563085
0.00679532
0.00667535
0.00692456
0.0272253
0.00848435
0.0343872
0.0087077
0.00944107
0.0524518
0.00889575
0.00583723
0.0367172
0.00647329
0.0245499
0.0259739
0.0101061
0.00810046
0.00555459
0.00823294
0.00665658
0.0106971
0.00784461
0.0273188
0.031047
0.00705406
0.0298925
0.0459165
0.0456153
0.0240797
0.00801682
0.0075503
0.0336787
0.0115852
0.012549
0.0195603
0.0199898
0.0252293
0.0213937
0.0302231
0.00606769
0.0141151
0.0234265
0.00853007
0.0439998
0.00701574
0.00578982
0.00654472
0.00610357
0.00647174
0.0156022
0.0196412
0.0439934
0.0128984
0.0818413
0.00552293
0.00561906
0.0106383
0.0445114
0.00638265
0.0124054
0.00963435
0.0367383
0.00763802
0.0313604
0.0138605
0.0279965
0.00551478
0.0600011
0.00923661
0.00606915
0.0071626
0.00846253
0.010895
0.252917
0.0110443
0.0131687
0.0339908
0.00550959
0.00627928
0.0150294
0.0674873
0.0100715
0.00980295
0.0174185
0.0579021
0.0201245
0.0190098
0.0370291
0.0685412
0.0131837
0.0057107
0.0208587
0.00570184
0.05258
0.00855759
0.0167454
0.0289681
0.0182737
0.00766285
0.0272171
0.00987914
0.00629467
0.00804254
0.0188031
0.035763
0.00669223
0.043439
0.059305
0.0230062
0.00558693
0.0250247
0.0374129
0.0538933
0.00924259
0.0131876
0.00846283
0.0272081
0.00592351
0.0238318
0.00607149
0.0422367
0.0264301
0.0334112
0.0114928
0.00612292
0.0183134
0.00583005
0.0119471
0.0570858
0.0084171
0.0070517
0.0055663
0.00720945
0.0579791
0.0105509
0.0298308
0.0607739
0.00727196
0.0252426
0.0102872
0.00570158
0.00731614
0.00581365
0.0260973
0.00636227
0.0263668
0.0117547
0.00639386
0.0306714
0.00604877
0.00605264
0.0301679
0.0270911
0.00584367
0.0245826
0.00564112
0.00602979
0.00585419
0.0369977
0.0379703
0.0345681
0.0238092
0.0122036
0.00652875
0.028465
0.00556552
0.0535159
0.0261228
0.0467603
0.00563152
0.0149731
0.00711024
0.0187374
0.00546347
0.011804
0.00569419
0.00746279
0.00564609
0.00723623
0.00697439
0.00605032
0.0276508
0.00666771
0.0272077
0.0223846
0.00827163
0.00603702
0.0104656
0.00549647
0.0133262
0.0256765
0.00636175
0.0148547
0.0243283
0.0281012
0.0146446
0.00601116
0.012192
0.0145342
0.00585289
0.0145759
0.0435442
0.00584442
0.034201
0.02953
0.00587773
0.00764796
0.0411643
0.00980089
0.00900087
0.00616342
0.00564815
0.0422531
0.00588219
0.00605168
0.00607643
0.00830138
0.00819176
0.0138529
0.00564608
0.0259771
0.00636497
0.00688147
0.00580793
0.00611944
0.00958497
0.0234363
0.0446719
0.0257811
0.00558457
0.0557508
0.0179665
0.0283237
0.0058367
0.0053034
0.0059151
0.0235953
0.0122682
0.0317397
0.03087
0.00669507
0.013449
0.0117477
0.0155742
0.032343
0.020677
0.0121351
0.00581907
0.00574808
0.00588588
0.00599169
0.020254
0.00871502
0.00636708
0.00642114
0.00584044
0.0234892
0.0462806
0.00689139
0.0273858
0.0374127
0.00624253
0.00717867
0.0298886
0.00604862
0.0056506
0.00576297
0.00601021
0.0347752
0.00617629
0.00619486
0.0260997
0.00588008
0.00622249
0.0085126
0.00899789
0.00675573
0.00683565
0.0217923
0.0422793
0.0311866
0.0133901
0.0526822
0.0970472
0.0190275
0.0107681
0.00804762
0.00738141
0.00603756
0.00801714
0.00692041
0.00718645
0.0360817
0.0360803
0.0260732
0.0310416
0.0321671
0.00657157
0.013611
0.0062936
0.0504021
0.00879782
0.0317675
0.00622482
0.0312848
0.0217216
0.011263
0.0078367
0.0530167
0.0239642
0.00813836
0.0406488
0.0129207
0.0107896
0.00760496
0.0143924
0.0146215
0.00609421
0.0674889
0.00585682
0.028444
0.0203966
0.020865
0.0058031
0.00557291
0.0283104
0.00790721
0.0139071
0.00573707
0.00574103
0.0245509
0.00867792
0.00685146
0.00677394
0.0063102
0.0443429
0.0461925
0.0082208
0.00569528
0.00569012
0.0341216
0.00633902
0.0107893
0.00617624
0.00576796
0.00566034
0.00598068
0.00594134
0.0149054
0.00597702
0.0212486
0.00624396
0.0118269
0.00688627
0.0060274
0.00687552
0.00748607
0.0304483
0.0373795
0.0483658
0.00845371
0.0051889
0.00797866
0.00847781
0.0377912
0.0492803
0.0105788
0.00708086
0.00594558
0.00632615
0.00733616
0.00554348
0.00743388
0.034229
0.00918122
0.0248933
0.115171
0.00680837
0.013441
0.00733495
0.0521416
0.00571443
0.00576611
0.00609033
0.0152946
0.00702131
0.00603769
0.00957459
0.00610094
0.0169166
0.00597333
0.00677025
0.0465314
0.0056934
0.0101654
0.0258193
0.0142196
0.00589754
0.00855051
0.0178275
0.0491894
0.00557092
0.00844603
0.00605646
0.00877784
0.0332298
0.00742735
0.0579182
0.00635397
0.0169962
0.00618553
0.0239418
0.0117959
0.0134652
0.0335815
0.00585224
0.00637433
0.0546284
0.00615435
0.00600118
0.0323281
0.0214335
0.0233048
0.00670691
0.00614725
0.0870029
0.0267202
0.0253992
0.0109014
0.00605341
0.0420503
0.00604906
0.00683119
0.00586402
0.114211
0.00561964
0.0386459
0.0059553
0.0478496
0.0240039
0.00672451
0.0231479
0.0506124
0.0348614
0.023961
0.0254831
0.00657847
0.0287228
0.0211577
0.0125284
0.00628836
0.0316841
0.0110708
0.0681227
0.00572218
0.0273874
0.00665068
0.0262076
0.00937684
0.00598737
0.0251945
0.00576318
0.054423
0.0609727
0.00661296
0.00581817
0.00862678
0.00902022
0.00558459
0.023275
0.00572848
0.0228971
0.00607024
0.00868931
0.0330452
0.00615025
0.0244213
0.0328825
0.00666859
0.0318709
0.00793115
0.00596136
0.00838212
0.0239219
0.00555534
0.0162115
0.0052689
0.00539559
0.00577538
0.00588642
0.0292112
0.0270895
0.00578657
0.00607753
0.040475
0.00633036
0.00519788
0.00537439
0.00543447
0.00994409
0.0523637
0.00534392
0.0126103
0.00693832
0.0128858
0.0299933
0.00603786
0.0156185
0.00741241
0.0055439
0.007413
0.0610165
0.0463389
0.00605532
0.00641685
0.00597887
0.00737952
0.0157607
0.00726265
0.00592049
0.0408891
0.00607862
0.0139973
0.033067
0.0215078
0.00673791
0.007285
0.0078517
0.0090641
0.0125799
0.00580938
0.0145572
0.00564933
0.00592653
0.00530657
0.00585534
0.0305683
0.00600081
0.0401555
0.0949719
0.0225296
0.0110196
0.00786364
0.0300386
0.0062279
0.00520806
0.00642204
0.00593785
0.0361292
0.010433
0.0143277
0.0060194
0.0106491
0.0128251
0.00764253
0.0105938
0.0318286
0.0273987
0.0299443
0.052258
0.0332975
0.0118865
0.00783351
0.0580505
0.0504592
0.00593384
0.0658051
0.0353616
0.00724667
0.0112393
0.00827152
0.0348624
0.0261493
0.0109069
0.00605431
0.00675542
0.0373345
0.0387782
0.0596235
0.0398828
0.00770247
0.0376784
0.0126081
0.00604347
0.00518436
0.029948
0.0130682
0.0366294
0.0413249
0.00603901
0.0576226
0.0063426
0.024901
0.00663506
0.00756877
0.0499193
0.0255064
0.00692338
0.0335935
0.00660741
0.0276759
0.0116881
0.00591151
0.0339875
0.0461606
0.0259367
0.0190784
0.0125336
0.0273719
0.0181012
0.0444352
0.00593976
0.0332196
0.00546079
0.00670579
0.00616762
0.0591602
0.00639068
0.0160719
0.00636417
0.0286783
0.0141179
0.005797
0.0331222
0.00576544
0.0295184
0.00913887
0.0392848
0.0239578
0.00600173
0.00805265
0.036694
0.0101638
0.0229715
0.0406725
0.00598445
0.0121358
0.00804077
0.00611488
0.00605785
0.00606149
0.00788891
0.0263382
0.02987
0.00570435
0.012604
0.0102381
0.00848074
0.0191541
0.00671394
0.00638954
0.0127064
0.012439
0.0365405
0.0159776
0.0358605
0.0067862
0.00558473
0.0150072
0.0128727
0.0519022
0.0189404
0.0266559
0.00605569
0.00586566
0.0127836
0.00656623
0.0183948
0.01601
0.0080419
0.048435
0.00591577
0.0299285
0.00768725
0.0424167
0.00559466
0.0106415
0.00654899
0.0105124
0.00738677
0.00675479
0.00588397
0.0319829
0.0234744
0.0454923
0.00623279
0.00658601
0.00833109
0.00578605
0.072127
0.0129698
0.0153431
0.00612199
0.00886584
0.00762153
0.0128588
0.00609497
0.0491554
0.0169344
0.00724618
0.0314673
0.0285191
0.021637
0.0495165
0.0153449
0.00617655
0.0221269
0.055435
0.0117506
0.0289277
0.0124841
0.00603488
0.00600476
0.0061489
0.00580778
0.00610677
0.00834606
0.0374594
0.00584951
0.00853066
0.0163686
0.0132493
0.00625092
0.0101704
0.0201285
0.00607242
0.0345902
0.0155931
0.0146337
0.0222399
0.00641171
0.0424572
0.0157355
0.0375139
0.0433939
0.0236962
0.0501864
0.00887393
0.00710595
0.0088146
0.0304597
0.00861575
0.00756117
0.0473088
0.00686067
0.0104873
0.0304774
0.0487055
0.0104845
0.0108649
0.0387716
0.00609178
0.0465332
0.00576252
0.00678926
0.00954021
0.00632819
0.00680868
0.0125341
0.00596996
0.068963
0.0369847
0.0131361
0.0128759
0.057304
0.00739777
0.0129407
0.00566856
0.00639822
0.019281
0.00703077
0.00576502
0.0155436
0.0259193
0.00618959
0.0132807
0.0315545
0.00636678
0.00631038
0.006094
0.0139315
0.00821112
0.0115602
0.0169088
0.012635
0.0132886
0.00775066
0.0238583
0.00690009
0.00592849
0.00934663
0.00679217
0.01129
0.00941582
0.0343446
0.023473
0.00911458
0.00738733
0.00794768
0.00582987
0.00651964
0.00570204
0.00541816
0.228421
0.0103566
0.00568265
0.0441922
0.00694203
0.00710321
0.0444614
0.00646157
0.00605758
0.0126097
0.00590239
0.00602883
0.00585142
0.022261
0.0106333
0.0294631
0.0108518
0.00619654
0.0394021
0.0350008
0.0251103
0.00969501
0.0300985
0.00703756
0.00607676
0.00602629
0.00600223
0.0162892
0.0224811
0.00673098
0.00594203
0.0103226
0.0166768
0.00652958
0.00611303
0.00557436
0.0361504
0.00542958
0.0143208
0.0184299
0.0351774
0.0252139
0.0154805
0.00605362
0.0276546
0.00624942
0.00581877
0.00627862
0.00586798
0.00602022
0.00526919
0.00586892
0.00595434
0.00966801
0.00773775
0.00962498
0.0347272
0.0291087
0.00657205
0.00822959
0.0357262
0.00616481
0.0122993
0.00613613
0.00603825
0.00599455
0.00719865
0.0156369
0.00588364
0.122788
0.0136256
0.00598183
0.0702069
0.00628159
0.0340001
0.0168096
0.00674721
0.0187421
0.031705
0.0066595
0.0069489
0.00643475
0.0338729
0.00635535
0.0343547
0.0149917
0.0214162
0.0238781
0.0129152
0.00587211
0.0222618
0.00665011
0.00618987
0.0110111
0.00585844
0.00581335
0.0103578
0.00550333
0.00620379
0.0197463
0.00585936
0.0247182
0.0359662
0.00660822
0.00863966
0.0258818
0.00591975
0.0115881
0.0177044
0.00827494
0.05422
0.00584161
0.00630985
0.0106838
0.0403149
0.0264877
0.0132973
0.0256141
0.00785915
0.00837136
0.0126079
0.05399
0.0106427
0.00577092
0.00926961
0.00613763
0.0061451
0.0283008
0.00665189
0.00582383
0.0104638
0.00741075
0.0360644
0.010534
0.00678352
0.00544063
0.0213959
0.00645726
0.015228
0.0111758
0.0456605
0.0102796
0.0165051
0.0318691
0.00969442
0.0313321
0.00643697
0.0116855
0.00586298
0.0665041
0.0053107
0.014187
0.0266636
0.0133051
0.00781867
0.0447656
0.0064874
0.00687914
0.0278067
0.0640147
0.0279515
0.00570453
0.00681634
0.00609681
0.0126553
0.0292199
0.00709333
0.0427537
0.0118631
0.00600382
0.00902439
0.0270555
0.00686711
0.0466599
0.0165713
0.00636004
0.00582638
0.0409825
0.00667066
0.00909959
0.0255692
0.00574905
0.00658058
0.00508073
0.00890079
0.0140677
0.0251798
0.00597071
0.00653452
0.0458067
0.0322039
0.0245192
0.00573031
0.0141271
0.00617582
0.0287206
0.005624
0.0346677
0.00780861
0.016087
0.00582677
0.00600173
0.00701148
0.00784684
0.0432899
0.0377365
0.00722067
0.00805036
0.0435132
0.0359145
0.00621425
0.00617735
0.00632
0.0123499
0.00799458
0.00518989
0.00613038
0.0234707
0.0168903
0.0214965
0.00695464
0.0163157
0.0368616
0.0348693
0.00554052
0.0110142
0.014018
0.00641714
0.0062378
0.0429739
0.005948
0.00596293
0.0313806
0.0447793
0.0060797
0.00536628
0.0447682
0.061314
0.00571082
0.0128372
0.0475882
0.0207287
0.0056
0.00534123
0.00604136
0.00756209
0.00588076
0.0424126
0.0364305
0.00595454
0.00597955
0.0131214
0.00677651
0.0283599
0.0259031
0.0278968
0.00790806
0.0587473
0.0062999
0.00715445
0.0140933
0.0244894
0.0503444
0.00587698
0.00528441
0.00970073
0.00569569
0.0118724
0.00591434
0.0291116
0.0247794
0.211061
0.0115406
0.00754251
0.0125756
0.0267888
0.015353
0.0101022
0.00708388
0.0140009
0.00644538
0.00549968
0.0122244
0.0264482
0.0404917
0.00632674
0.04327
0.0100223
0.00945524
0.0160326
0.0447179
0.00721633
0.0225272
0.0584197
0.0486515
0.00827894
0.00557907
0.00859521
0.00845994
0.0169273
0.0114536
0.0541064
0.0342846
0.0306074
0.00580095
0.0125536
0.00721045
0.0117612
0.012055
0.00835196
0.0477014
0.00981737
0.046705
0.00612449
0.0112965
0.0413333
0.00579174
0.0144982
0.00841454
0.0157424
0.02648
0.0477317
0.00634088
0.0288658
0.00629188
0.00604799
0.00954018
0.0211983
0.0428561
0.00921156
0.031404
0.00645855
0.00642968
0.00597968
0.0281051
0.00631091
0.00647849
0.0065414
0.00639889
0.049377
0.0292827
0.00617338
0.0114062
0.0219866
0.00604083
0.00917292
0.00893727
0.0129713
0.0343379
0.13263
0.0301913
0.00662413
0.00602908
0.0093832
0.0440288
0.034708
0.00675949
0.0101407
0.0209265
0.0058878
0.00635404
0.00621467
0.00601986
0.00572124
0.00620536
0.00749225
0.0109145
0.0103497
0.0109387
0.0188827
0.0222069
0.00577777
0.00862052
0.0363289
0.0260689
0.00543888
0.0345707
0.00675099
0.0135905
0.00586213
0.00707464
0.0106986
0.00549941
0.00578409
0.00573586
0.0256598
0.0295247
0.00615173
0.00568394
0.0468629
0.0163636
0.0094331
0.00603985
0.00768282
0.0590119
0.0125132
0.00821612
0.0174855
0.00557356
0.00982122
0.0510008
0.00905651
0.0426475
0.0146439
0.0573308
0.00634415
0.00633867
0.00566048
0.0495626
0.0262052
0.0163354
0.00614033
0.0290996
0.0282893
0.0145055
0.00608479
0.0357799
0.00538951
0.0063408
0.021599
0.0225757
0.02876
0.00583515
0.00557276
0.00683501
0.00972364
0.0132585
0.0127185
0.0134066
0.0400667
0.0402458
0.0328019
0.0149589
0.00607041
0.036952
0.0601226
0.0278604
0.0439429
0.00686286
0.0421332
0.00589406
0.00617784
0.00710252
0.0214219
0.00650645
0.0357142
0.0231893
0.00581829
0.00601353
0.0097191
0.00989835
0.00597492
0.047801
0.00836787
0.00654762
0.00623015
0.0145561
0.00650905
0.00547405
0.0123441
0.0332325
0.0433647
0.0125577
0.00600322
0.0393143
0.0169684
0.0053511
0.0331271
0.035966
0.0131059
0.0455627
0.0199612
0.0497928
0.0284145
0.0355819
0.0521437
0.0339289
0.0550163
0.0118914
0.0175462
0.00599976
0.0518824
0.00557743
0.00862166
0.00665871
0.0102089
0.00688813
0.0373451
0.00617917
0.0107244
0.0147028
0.00597535
0.00835927
0.0618253
0.010457
0.0163141
0.0376045
0.0395886
0.00743433
0.0147783
0.0425252
0.00724236
0.00777026
0.00593928
0.00611454
0.028863
0.00994946
0.016359
0.0114065
0.00753973
0.00736056
0.00608044
0.0146242
0.00642886
0.00816551
0.0108344
0.0120339
0.0117339
0.00980948
0.015642
0.00603393
0.00838659
0.0444383
0.00737428
0.0487301
0.120288
0.0263697
0.00743533
0.00784678
0.00836691
0.00662855
0.0103555
0.0185282
0.0108217
0.0551493
0.0461725
0.0559945
0.0257581
0.0270251
0.00559427
0.0285835
0.0103833
0.0419605
0.0389481
0.00580369
0.0260573
0.00669294
0.00882803
0.00635894
0.0342755
0.0295674
0.00910477
0.00701257
0.0526751
0.00759111
0.0241522
0.0120932
0.00579714
0.00661224
0.00589037
0.013101
0.0135914
0.0163815
0.0211028
0.0344864
0.02933
0.0399962
0.0113352
0.00594581
0.018976
0.0240539
0.012879
0.00637288
0.00672483
0.0257711
0.00775515
0.0423862
0.0215766
0.00690784
0.0285289
0.0171914
0.0140665
0.00967069
0.0121471
0.00713838
0.0145406
0.0129408
0.00617411
0.0112569
0.00620271
0.0466349
0.0478193
0.00896011
0.0123194
0.00695606
0.0115512
0.0134795
0.0521238
0.00827269
0.00848758
0.00737469
0.015054
0.0317483
0.0248931
0.0305017
0.00926097
0.0223669
0.0121913
0.0473807
0.00993838
0.0308904
0.0177467
0.00616913
0.0257031
0.0065405
0.00658967
0.0336084
0.0417548
0.00999935
0.0704912
0.00688337
0.00626156
0.0163135
0.00724619
0.018885
0.0100307
0.0380068
0.0117248
0.00922428
0.00570013
0.0589428
0.00626621
0.00893407
0.0174648
0.00803239
0.0354354
0.00647967
0.0376694
0.00706966
0.0093451
0.0074549
0.00781195
0.031187
0.046498
0.00704801
0.00571597
0.032082
0.0118606
0.0381492
0.00857646
0.0241755
0.0516079
0.0139268
0.00718996
0.0158813
0.00572895
0.010444
0.00719672
0.0390537
0.00592279
0.0356903
0.0182463
0.00594644
0.00600639
0.00927816
0.0481795
0.0287711
0.00631705
0.00613848
0.00758436
0.00680454
0.00690952
0.0674667
0.00732121
0.00774049
0.00847169
0.0272716
0.00838836
0.00593699
0.00868836
0.00591961
0.0064027
0.0247895
0.00647211
0.029609
0.00694488
0.0143193
0.0085336
0.006682
0.00567354
0.00602437
0.0350039
0.00568023
0.025937
0.04161
0.00885791
0.0274927
0.00662847
0.050213
0.026794
0.0275398
0.0174768
0.00930567
0.0383051
0.0379633
0.00765062
0.0144336
0.00572042
0.0127695
0.0468084
0.0159477
0.0323204
0.0111331
0.00705677
0.0264019
0.00719611
0.00572677
0.0062219
0.00625081
0.0056646
0.00622917
0.00562021
0.00669507
0.0247883
0.0542627
0.00717062
0.0559902
0.00925761
0.00951284
0.0168638
0.00587451
0.00860997
0.0332117
0.00575997
0.0309332
0.0135648
0.0228444
0.00789481
0.00564506
0.0173962
0.0119658
0.030958
0.00919357
0.00952168
0.0156685
0.00753972
0.0595457
0.0418123
0.00531559
0.00898872
0.00602388
0.0126283
0.0676679
0.00596942
0.022236
0.00549141
0.00671351
0.0368201
0.00639275
0.00567292
0.0356012
0.0255016
0.00579066
0.0133749
0.0458505
0.00615476
0.0260022
0.0454428
0.0142996
0.00576598
0.00586898
0.00745785
0.00619944
0.00702796
0.00583325
0.0106526
0.01212
0.00574387
0.00705524
0.053364
0.0340841
0.00937719
0.00605354
0.0100136
0.0476377
0.0416487
0.0070261
0.0302364
0.00674242
0.00609627
0.00576581
0.0300296
0.0177057
0.00592191
0.0110236
0.00710627
0.00744335
0.0249692
0.0372715
0.00596415
0.0415808
0.0204632
0.0363752
0.0305314
0.00593441
0.00607797
0.00710941
0.0118764
0.0144903
0.0149516
0.00592341
0.00711413
0.0267606
0.00526136
0.00654507
0.00637347
0.0432781
0.0092103
0.0439294
0.0149646
0.0293596
0.00628295
0.0072008
0.0117459
0.0377085
0.0166914
0.0222973
0.05722
0.00658557
0.0450277
0.0254248
0.00594045
0.00601555
0.00586813
0.0336619
0.0116189
0.0279308
0.00593794
0.00648485
0.00582734
0.00588337
0.0310992
0.00695234
0.0101841
0.0060035
0.00587243
0.00593555
0.00618668
0.00593791
0.0518613
0.032556
0.0103935
0.00575614
0.00711546
0.0318317
0.00584011
0.0240885
0.00923883
0.0073505
0.0162285
0.0228984
0.0243427
0.0570762
0.00642888
0.00683784
0.0254109
0.0097075
0.053638
0.00678195
0.00523647
0.0481046
0.00963218
0.00846144
0.00601228
0.0918748
0.0561767
0.0387301
0.021015
0.0232819
0.0453422
0.0383266
0.0534953
0.0165748
0.00617029
0.00819892
0.00660516
0.0091258
0.0485709
0.00612542
0.0103246
0.0591192
0.0577815
0.0385616
0.015498
0.0304509
0.00647262
0.015057
0.00591555
0.00886927
0.030744
0.0159943
0.00657947
0.00582029
0.00681306
0.00597945
0.00614149
0.028079
0.0116501
0.00659465
0.00622533
0.0641191
0.0139708
0.0118448
0.00870914
0.0101513
0.0056906
0.0248231
0.0385249
0.0498572
0.0131717
0.0057313
0.00533713
0.00660976
0.0225155
0.0114666
0.0286561
0.0132214
0.00617599
0.0306387
0.023405
0.00587242
0.007079
0.00654402
0.00603865
0.0155439
0.0206075
0.00679819
0.0126612
0.00937889
0.0074968
0.00841643
0.00623637
0.0172535
0.00726225
0.052442
0.0402364
0.0576973
0.0142379
0.0100667
0.0127043
0.0301858
0.00650038
0.0296241
0.0245844
0.0512557
0.00974127
0.00534528
0.00592635
0.0506995
0.0239105
0.0296789
0.0437624
0.0248909
0.00545004
0.00539846
0.0385484
0.0334967
0.025281
0.00615196
0.00533823
0.00728983
0.0142246
0.00642973
0.00696386
0.0135865
0.0345223
0.00544134
0.00742034
0.00715901
0.0094634
0.00684471
0.00566926
0.0191239
0.00953637
0.0206219
0.0098923
0.00572149
0.00550529
0.0603761
0.00608989
0.0444171
0.00597406
0.00669186
0.00597285
0.00619158
0.0264691
0.0469518
0.0264299
0.0062746
0.00565299
0.00887439
0.0056576
0.0423382
0.0149671
0.00610282
0.00567229
0.0111038
0.0311127
0.0153355
0.0109817
0.00565361
0.00630154
0.00620033
0.00530224
0.00640815
0.00685989
0.0156884
0.00588651
0.00600688
0.00707848
0.0155884
0.035204
0.0475628
0.0189957
0.0118592
0.00551186
0.00552677
0.0405169
0.0112301
0.00757526
0.00801073
0.0139975
0.00599639
0.00707264
0.0085817
0.00536923
0.0127145
0.0080016
0.0273993
0.0111174
0.0071574
0.0452804
0.00873577
0.00658848
0.00799876
0.00594424
0.0054844
0.0457554
0.00595573
0.0167457
0.00546209
0.0189745
0.00571182
0.00833996
0.0146543
0.00919895
0.0463943
0.0086781
0.0298343
0.0333932
0.0068857
0.0422251
0.00604386
0.00619953
0.0055538
0.0286222
0.0129071
0.0476832
0.00811577
0.0342308
0.0136778
0.00635811
0.0054833
0.00568519
0.00697669
0.00661342
0.0060264
0.00699313
0.00636846
0.00661369
0.0296112
0.0135275
0.00558329
0.0054562
0.0241118
0.00673081
0.0059681
0.00558204
0.0457703
0.00807547
0.0463212
0.00548409
0.0392714
0.0336819
0.0103823
0.00803204
0.00768241
0.0102098
0.0361688
0.00626864
0.0365881
0.0366235
0.00659304
0.0275909
0.0166195
0.0083383
0.00615591
0.049462
0.023861
0.036711
0.00597301
0.00643477
0.0219626
0.00617588
0.0147247
0.0227317
0.00646708
0.0327656
0.00801834
0.00696708
0.00615248
0.00569959
0.00581781
0.00535839
0.00944094
0.00519313
0.00654927
0.00610533
0.0118329
0.0135645
0.00538757
0.0181437
0.00686254
0.00697525
0.00653666
0.00746446
0.00553483
0.00785379
0.0331685
0.00643519
0.00556515
0.023926
0.00934645
0.00567264
0.107212
0.00661745
0.00618889
0.0142593
0.00873909
0.0272666
0.0104399
0.00527861
0.00678073
0.0140305
0.0251844
0.0234101
0.00865702
0.0311632
0.0347545
0.0403041
0.00732995
0.00542682
0.00539577
0.00808451
0.00673862
0.00754444
0.0230779
0.0115061
0.00556064
0.00541554
0.00556681
0.00568554
0.0424945
0.0619351
0.0536316
0.0205322
0.00702085
0.00601184
0.00564019
0.0156099
0.00663611
0.00611059
0.0496873
0.00611955
0.00650962
0.00553193
0.00613849
0.0195551
0.0268718
0.00947864
0.0282034
0.0061549
0.00708071
0.0134632
0.00677647
0.0140899
0.0222949
0.0127245
0.00572702
0.0159742
0.00894506
0.0059209
0.0195301
0.0317952
0.00604285
0.00581658
0.025392
0.0332403
0.0148101
0.0388282
0.00559505
0.010383
0.0264247
0.00562632
0.00585583
0.00559538
0.00879308
0.00639964
0.00637448
0.00654534
0.00735778
0.0160313
0.00716911
0.0201315
0.0180834
0.0267623
0.00584561
0.0104858
0.0065965
0.0077106
0.0144067
0.012531
0.0495588
0.0126557
0.0502669
0.0145533
0.00745701
0.00611026
0.00565594
0.00627409
0.0357243
0.0286214
0.00610538
0.0178375
0.0213384
0.00865637
0.0303743
0.00535593
0.00679029
0.00590929
0.0102964
0.00594957
0.00957862
0.00675078
0.0335394
0.00615948
0.0364054
0.0378052
0.021905
0.00775992
0.0098775
0.00593944
0.0372465
0.00779066
0.00671363
0.0127985
0.0172111
0.0153916
0.0324358
0.0237036
0.0320858
0.0217429
0.00525915
0.0269684
0.00665854
0.023569
0.0529906
0.0141896
0.030674
0.0630837
0.0480397
0.00784115
0.0102953
0.00624327
0.0218248
0.00571754
0.0351335
0.0108085
0.0236329
0.00697225
0.00595906
0.0523766
0.00819899
0.00653108
0.00668122
0.00832599
0.00828076
0.00622543
0.006262
0.00626068
0.00728338
0.0343527
0.0152765
0.0283608
0.00630138
0.0434178
0.0154649
0.00629784
0.0194358
0.0114521
0.0518619
0.0109116
0.0124945
0.00544323
0.00931506
0.00565318
0.00776043
0.00559027
0.00768851
0.00529016
0.0262768
0.0267024
0.00616836
0.00647854
0.00772019
0.00657114
0.00600165
0.00725656
0.00674567
0.0363273
0.00631972
0.00582673
0.0371736
0.00894117
0.0367834
0.00836463
0.0209195
0.029347
0.00601906
0.0319467
0.0360134
0.0482363
0.0402631
0.0349767
0.00557543
0.0110278
0.00546742
0.00797137
0.0237188
0.00626895
0.00579121
0.00588143
0.0489728
0.00669983
0.0109954
0.0101211
0.00655295
0.040097
0.03803
0.00670569
0.034166
0.00571739
0.0286079
0.00930536
0.0205766
0.00550864
0.00574666
0.00623428
0.0311403
0.0472304
0.0345749
0.0060421
0.0238586
0.0623669
0.0103332
0.0140801
0.0394469
0.013448
0.0240541
0.00835107
0.00665858
0.00582576
0.00709774
0.0984997
0.0114531
0.0466345
0.00559187
0.00669417
0.00931956
0.00644737
0.0148039
0.0110284
0.0477193
0.00709511
0.0129171
0.00594012
0.00584477
0.0246794
0.057134
0.00547279
0.00605134
0.00593894
0.0213775
0.0076729
0.0470722
0.0325171
0.0294222
0.00600002
0.0391855
0.0107161
0.0546787
0.0279149
0.00728527
0.0272233
0.0347952
0.0364179
0.0066552
0.00683198
0.00608017
0.026335
0.00862319
0.00542596
0.00948428
0.0097588
0.00711648
0.00602064
0.00595177
0.0472112
0.00669864
0.0141699
0.0205553
0.0291429
0.00577472
0.00579761
0.0134206
0.00730016
0.0568353
0.0104239
0.00875681
0.0521827
0.00587584
0.00596895
0.00706206
0.024361
0.00564323
0.0266272
0.00539459
0.0239512
0.0489134
0.00562398
0.00581938
0.0217967
0.00675963
0.0058509
0.00563576
0.00554028
0.0247869
0.0381119
0.00594927
0.00702707
0.0068984
0.00634587
0.0272709
0.00783332
0.0250837
0.0216015
0.00584129
0.00623743
0.0126381
0.00696373
0.00991096
0.0332584
0.0659357
0.00557475
0.00648782
0.0272331
0.0399261
0.0159161
0.00705069
0.00732706
0.0491496
0.0147052
0.00649224
0.00577104
0.00608024
0.00663814
0.0105862
0.00579493
0.00625
0.0059716
0.0153953
0.0369725
0.0480743
0.00977184
0.011613
0.00691172
0.0062984
0.00593189
0.00594376
0.00582731
0.00626884
0.00626355
0.00600332
0.0127015
0.00640426
0.00663393
0.0139872
0.00628822
0.0135517
0.0375346
0.00921986
0.00786155
0.00808422
0.00877581
0.00807756
0.014753
0.0269052
0.00683479
0.00677017
0.00730403
0.00974847
0.0426009
0.008
0.0123707
0.0460061
0.00766788
0.0371257
0.00938143
0.00643383
0.00701475
0.00769098
0.0108128
0.0328505
0.0438353
0.0670666
0.00591817
0.0274015
0.00623287
0.00619371
0.030055
0.00577481
0.0135949
0.00554871
0.00985946
0.00932434
0.018546
0.0054221
0.00531601
0.0571036
0.00639196
0.0337046
0.0580597
0.00801385
0.0215962
0.00561508
0.00577998
0.00578377
0.0123309
0.0165931
0.007045
0.00588756
0.00693223
0.0253245
0.0428302
0.00965313
0.00650211
0.0108099
0.00592775
0.0162136
0.0134345
0.00582322
0.00555952
0.00577963
0.0146442
0.011474
0.0157001
0.00802307
0.00694105
0.0107976
0.0122455
0.034119
0.00658732
0.00701276
0.00615161
0.00627465
0.00678295
0.00553767
0.0322317
0.0089376
0.0178912
0.0254524
0.00624094
0.0172483
0.00558459
0.00579463
0.00679684
0.04709
0.0128368
0.00719899
0.00552735
0.0231493
0.00641472
0.0173806
0.00807851
0.0166682
0.0107622
0.00620366
0.00560125
0.0588474
0.00748855
0.00544397
0.00637761
0.0141803
0.00647773
0.00612686
0.132372
0.0053202
0.0297639
0.00674523
0.00561298
0.00581708
0.0102922
0.0138705
0.0184199
0.0235888
0.0340961
0.00556541
0.00543659
0.0889061
0.0317206
0.00683707
0.00752807
0.0258433
0.0118914
0.00701672
0.00736533
0.00705945
0.0505704
0.00599357
0.0210066
0.0296856
0.00571575
0.0252515
0.0157409
0.0437356
0.0288917
0.0161259
0.0257511
0.00934159
0.024811
0.0106197
0.0354851
0.0459856
0.00902585
0.0380968
0.0231369
0.00693358
0.0400779
0.00683009
0.0244189
0.0200955
0.0256476
0.00557941
0.039318
0.0362759
0.00823559
0.00707098
0.00889801
0.0279886
0.00828695
0.0155096
0.00892381
0.0212492
0.0129099
0.00557235
0.0133508
0.00561403
0.00795311
0.00790102
0.0057035
0.0597806
0.00868962
0.00991554
0.00638158
0.0411593
0.00960694
0.0599709
0.013131
0.0136255
0.00606623
0.00662325
0.0103881
0.00670543
0.0206898
0.00592672
0.00609731
0.0169249
0.00539506
0.0209842
0.00620753
0.00818717
0.0228572
0.0150732
0.0208871
0.00564587
0.00723748
0.0223484
0.00811842
0.00953745
0.0519132
0.0059214
0.0480802
0.0290543
0.0106808
0.00670564
0.00744569
0.0254009
0.00572045
0.00608218
0.0124993
0.0242858
0.0156199
0.036969
0.00714784
0.0148469
0.00800042
0.0145433
0.00600878
0.00749544
0.0338479
0.00812957
0.00594588
0.0143852
0.0599686
0.0209425
0.00710869
0.0252843
0.0150488
0.0237355
0.00757797
0.0150503
0.027624
0.026951
0.00567272
0.0463922
0.00662425
0.0402224
0.00557972
0.012869
0.00635651
0.0350005
0.00727653
0.00536445
0.00617052
0.00579824
0.0133788
0.0530903
0.0524668
0.0313419
0.0596839
0.00675057
0.034456
0.00552898
0.00636252
0.00881847
0.00642284
0.0444108
0.0233398
0.0258202
0.00639735
0.0379809
0.00710511
0.0130928
0.00748287
0.0225149
0.0340979
0.0399394
0.0063959
0.0255523
0.00564395
0.00880149
0.00888827
0.0257568
0.0256824
0.00925011
0.0128888
0.0293226
0.00605871
0.00663343
0.0166339
0.0131745
0.00706013
0.0058426
0.00653435
0.00575437
0.00617413
0.0124556
0.0159461
0.00628958
0.0608929
0.0388515
0.0086552
0.00645646
0.00572532
0.0403422
0.0285652
0.00558685
0.0130233
0.00543969
0.0323269
0.00555362
0.00541046
0.00679034
0.0233479
0.0160833
0.0424738
0.0469849
0.00963519
0.0505573
0.00865999
0.0180259
0.00862593
0.00814088
0.00607511
0.043401
0.0665401
0.00564414
0.00841338
0.035322
0.00592008
0.00667291
0.0358575
0.049601
0.0532414
0.0298708
0.018063
0.0478909
0.0154688
0.00567119
0.0346305
0.0494459
0.00897411
0.00645278
0.00603352
0.00720772
0.0134401
0.0634482
0.00564303
0.0326871
0.00607502
0.0282357
0.0121045
0.00883807
0.0117247
0.0103451
0.0373266
0.00589407
0.0106097
0.00567995
0.046164
0.00947268
0.0261922
0.0125461
0.0204641
0.042428
0.0109478
0.0113752
0.00982525
0.0179747
0.00652487
0.0272251
0.0351091
0.0279566
0.00799596
0.0104313
0.00818128
0.0353831
0.0106311
0.043697
0.0644716
0.00717443
0.00538198
0.0262865
0.033681
0.0142382
0.00602594
0.00959837
0.00646604
0.00895508
0.00767911
0.00600311
0.00731126
0.00558839
0.0253776
0.0493351
0.00883808
0.00596699
0.00577273
0.0144206
0.0587388
0.0134537
0.00585124
0.0244543
0.0124058
0.00949706
0.0128572
0.00553789
0.00619238
0.00575483
0.0387286
0.00867551
0.0063996
0.00723225
0.00543252
0.0103285
0.0255424
0.00605773
0.0138661
0.0507542
0.00541749
0.00529038
0.0106102
0.0153879
0.00680315
0.00588931