/*--------------------------------*- C++ -*----------------------------------*\
| =========                 |                                                 |
| \\      /  F ield         | OpenFOAM: The Open Source CFD Toolbox           |
|  \\    /   O peration     | Version:  2406                                  |
|   \\  /    A nd           | Website:  www.openfoam.com                      |
|    \\/     M anipulation  |                                                 |
\*---------------------------------------------------------------------------*/
FoamFile
{
    version     2.0;
    format      ascii;
    arch        "LSB;label=32;scalar=64";
    class       volScalarField;
    location    "40";
    object      k;
}
// * * * * * * * * * * * * * * * * * * * * * * * * * * * * * * * * * * * * * //

dimensions      [0 2 -2 0 0 0 0];

internalField   nonuniform List<scalar> 
59516
(
0.000804108
0.0012577
0.000566693
0.00109027
0.00761094
0.0173749
0.00070423
0.000867862
0.000591953
0.00341437
0.00398854
0.00288601
0.000668927
0.00777928
0.00285793
0.00294627
0.00200127
0.00427442
0.00111507
0.00146645
0.00472383
0.000860569
0.00100903
0.00464007
0.000867014
0.0025353
0.00451188
0.00572657
0.00310731
0.00657099
0.00703304
0.00536176
0.000666648
0.00104206
0.00132811
0.000763357
0.00636729
0.00428605
0.00137636
0.00111916
0.000788304
0.00288723
0.00121102
0.00116515
0.00085784
0.00301766
0.000822323
0.00229378
0.00761316
0.0020331
0.00901754
0.00410497
0.000491407
0.000642958
0.00437749
0.000837022
0.00358853
0.00443053
0.00207179
0.00140177
0.00114354
0.00615491
0.00198874
0.00189122
0.000877988
0.00126788
0.00761739
0.00406787
0.0061737
0.000622009
0.00593191
0.00170024
0.0064766
0.00100181
0.00246695
0.00146334
0.00214332
0.00104586
0.00390908
0.00203895
0.00445912
0.00154583
0.00116481
0.0064587
0.00155752
0.00226336
0.00446089
0.000819932
0.00285647
0.00245948
0.00548049
0.00125169
0.00177856
0.00103534
0.00179321
0.00781691
0.00109935
0.00296317
0.00345613
0.0011205
0.00449168
0.00648185
0.0063416
0.0028558
0.000747745
0.00156306
0.00462779
0.000599223
0.0010016
0.00265095
0.00469014
0.00531711
0.00292184
0.00456036
0.00129171
0.000935323
0.00279869
0.000919404
0.00606653
0.00106646
0.00291875
0.00207685
0.00113166
0.00199421
0.00405056
0.0015641
0.00683331
0.00258355
0.0105304
0.00228808
0.00265892
0.000643042
0.00607946
0.000742346
0.00109492
0.000517801
0.00447251
0.00042217
0.00432739
0.00134963
0.0039975
0.00244827
0.00643132
0.000800999
0.00250521
0.000898564
0.000811174
0.000792761
0.0198383
0.000773635
0.00120564
0.00431086
0.00124167
0.00106016
0.00114588
0.00689967
0.000894933
0.000603057
0.00142417
0.00651148
0.00274814
0.00259778
0.00464537
0.00770679
0.000929285
0.00192365
0.00264462
0.00226914
0.00627563
0.00137184
0.00133359
0.00303057
0.00207525
0.000703969
0.00359602
0.000920266
0.00202878
0.00140513
0.00254136
0.004182
0.000808652
0.00500708
0.00772574
0.00236338
0.00223574
0.00281905
0.0041507
0.00650962
0.000585888
0.00101054
0.0011629
0.00303015
0.00157562
0.00231982
0.000873677
0.00458801
0.00281553
0.00404126
0.0011674
0.000936035
0.00192314
0.00286863
0.000835578
0.00644893
0.000621722
0.00089539
0.00246011
0.00170205
0.00674983
0.000915682
0.00344175
0.00761535
0.000912909
0.00304272
0.000739029
0.00165123
0.000849932
0.000851392
0.00311324
0.00117431
0.00316002
0.00128751
0.00183303
0.00448323
0.0019306
0.00209754
0.00552762
0.00386609
0.00198276
0.00298148
0.00178705
0.00211268
0.00286956
0.00574609
0.00459704
0.00409814
0.00247732
0.00074288
0.00141596
0.00330537
0.00265655
0.00663232
0.00279
0.0066933
0.0025041
0.00106532
0.00116734
0.00266463
0.00148683
0.000747076
0.00133727
0.00102999
0.00284683
0.00116907
0.000971618
0.00123995
0.00316661
0.00128088
0.00396709
0.00281148
0.000623402
0.00150728
0.000816486
0.00196924
0.000784082
0.00271515
0.00153776
0.00115775
0.00410149
0.0028969
0.00131946
0.00206627
0.000797974
0.00125294
0.00156169
0.00106795
0.00575777
0.00128199
0.00566712
0.00405997
0.002741
0.000848872
0.00619853
0.00076489
0.000661178
0.00203982
0.00244079
0.00646
0.00272488
0.00319118
0.0022357
0.000860418
0.0010465
0.00112342
0.00165731
0.00535492
0.0016081
0.000673355
0.0029504
0.00210573
0.000525394
0.00259688
0.00615353
0.00496062
0.00103618
0.00656394
0.00298746
0.00338493
0.00169365
0.00164536
0.000827293
0.00266551
0.00103206
0.00457188
0.00316886
0.00165184
0.00106056
0.00823292
0.00143328
0.00405499
0.00287324
0.00100024
0.00218692
0.00271172
0.0029149
0.00120648
0.00185652
0.000827761
0.00195842
0.00146772
0.00122181
0.00270198
0.00629705
0.00114774
0.00377539
0.00450445
0.00156655
0.000841523
0.00312627
0.00217514
0.00128971
0.00263824
0.00213361
0.0041754
0.00128433
0.00262109
0.0029225
0.00273294
0.0024135
0.000896844
0.000885973
0.00129987
0.00076988
0.00178218
0.00481897
0.00435757
0.00119393
0.00604881
0.0111331
0.00151495
0.0008733
0.000867386
0.00351396
0.00100166
0.000696387
0.00114791
0.0012784
0.00457841
0.00682773
0.00315255
0.00405455
0.00433321
0.00162256
0.00123189
0.00142531
0.00610066
0.000784048
0.00429683
0.00182614
0.00293853
0.00262281
0.000637375
0.00424153
0.00661862
0.0028634
0.000866915
0.00599571
0.00145314
0.000850752
0.00058301
0.00131268
0.00128787
0.0014184
0.00650604
0.00270424
0.00356055
0.00270479
0.00270704
0.00244749
0.00220938
0.00283539
0.000534843
0.000949534
0.00252729
0.00242472
0.00381236
0.00088122
0.000915164
0.000922487
0.00116569
0.00629989
0.00607481
0.000575663
0.00215078
0.00264409
0.00445436
0.00212749
0.000647603
0.00266047
0.00229361
0.0025826
0.00220384
0.00209913
0.000961843
0.00260617
0.00263018
0.00183985
0.000938696
0.00135951
0.00238491
0.000843277
0.00112569
0.00392871
0.00465194
0.00613279
0.00301154
0.00236249
0.00106784
0.000562941
0.00439812
0.00650924
0.000840751
0.00142751
0.00234843
0.00114709
0.000683346
0.00281364
0.000677979
0.00579899
0.000764742
0.00276328
0.0118264
0.00149524
0.00112766
0.00107581
0.00656456
0.00244429
0.0025493
0.00259438
0.000993385
0.00139666
0.00226714
0.00106245
0.00292495
0.00142066
0.00195496
0.000917666
0.00606415
0.00235275
0.000815623
0.00381193
0.000892062
0.00179689
0.000749761
0.00150294
0.00611731
0.00189657
0.000605795
0.00129531
0.000746511
0.00406136
0.00095095
0.00732324
0.00174431
0.00951664
0.00201849
0.00385813
0.000840792
0.000908611
0.00382187
0.00304039
0.00258099
0.0068212
0.00166532
0.00307128
0.00453075
0.00266857
0.00266989
0.00138491
0.0027685
0.00993156
0.00285208
0.00274487
0.000694855
0.00284589
0.00599102
0.00112141
0.00116058
0.00255685
0.0136553
0.00150162
0.00568292
0.00155982
0.00652387
0.00252196
0.00111838
0.00267569
0.0063388
0.00463652
0.00357514
0.00297231
0.000657915
0.00306016
0.00245103
0.00487247
0.00229284
0.00562235
0.000726405
0.0062693
0.00195934
0.00304561
0.0021581
0.00319089
0.000961025
0.0025107
0.00335102
0.0019431
0.00628526
0.00667182
0.000898026
0.00262363
0.000827667
0.000745455
0.00235941
0.00309263
0.00161038
0.00264546
0.00233511
0.000739848
0.00561329
0.000965354
0.00390244
0.00565885
0.000819767
0.00395213
0.000947465
0.00276555
0.000891811
0.00270712
0.00222698
0.00130695
0.00232348
0.00210994
0.00258748
0.00262727
0.00391129
0.0031101
0.00226732
0.00129586
0.00494611
0.00161643
0.00191911
0.00190483
0.0023177
0.000502202
0.00640606
0.00168363
0.00119622
0.00140143
0.000866055
0.00550623
0.00289415
0.00134353
0.00058505
0.00263387
0.000850312
0.00621917
0.00608016
0.00252163
0.00205179
0.00303785
0.00161581
0.00120389
0.00109454
0.00234049
0.0057129
0.00275981
0.00321239
0.00454032
0.00251938
0.000675973
0.000867121
0.000798298
0.000577139
0.000805323
0.00289239
0.00133367
0.00202651
0.00196048
0.00234661
0.0022659
0.0043881
0.00157439
0.00472466
0.0101817
0.00254868
0.00556712
0.000811548
0.00461233
0.00229596
0.00159342
0.00111106
0.00215351
0.00442552
0.00960023
0.00731338
0.00258358
0.000569431
0.00303728
0.00320037
0.000763808
0.00407881
0.00261058
0.00518493
0.00681734
0.00602861
0.00154646
0.00106892
0.00695634
0.00632167
0.00314786
0.00809103
0.00455718
0.000989278
0.000611765
0.000793737
0.00467155
0.00292578
0.00070125
0.00203811
0.00117804
0.00463617
0.00572872
0.0100853
0.00622491
0.000796555
0.00592203
0.00100897
0.00256134
0.00161926
0.00395432
0.00107454
0.00428024
0.00625133
0.00245727
0.00634164
0.00190603
0.00395245
0.00134809
0.000954706
0.00630259
0.00290435
0.000984531
0.00424291
0.00177045
0.00318286
0.000673467
0.0027453
0.00435133
0.00611316
0.0038332
0.00783612
0.00083236
0.00301299
0.00117564
0.00480967
0.00284222
0.00558742
0.00140506
0.000528599
0.00186899
0.00647169
0.000814334
0.00134126
0.0013135
0.0032934
0.00837551
0.00100223
0.00405321
0.00300185
0.00801659
0.000518972
0.00463168
0.00383927
0.00274332
0.000575006
0.00449601
0.000601475
0.0026874
0.0060073
0.00247661
0.00908853
0.000550249
0.00213143
0.00239694
0.00193305
0.000669777
0.00378604
0.00416752
0.00241303
0.0085106
0.000569866
0.000747583
0.0015912
0.000901105
0.00172537
0.00105047
0.000748403
0.00511688
0.00234704
0.00484193
0.00118363
0.00191307
0.00114292
0.000838933
0.00628981
0.00155149
0.00316668
0.00228768
0.00235271
0.00887342
0.00166234
0.00130419
0.00955262
0.000958737
0.00689351
0.00239977
0.00314294
0.000823629
0.0066418
0.00181889
0.0094997
0.00133821
0.00063236
0.0011428
0.000920158
0.00269366
0.00429873
0.00393035
0.00462479
0.00253403
0.00143323
0.000979405
0.0010148
0.00710505
0.00135679
0.00134023
0.00237192
0.000756458
0.00123533
0.00128483
0.00283325
0.00617315
0.00120622
0.00155241
0.00562092
0.00368235
0.00257455
0.00620164
0.00159813
0.00180043
0.00261181
0.00636322
0.000764423
0.00521725
0.000763807
0.00225204
0.0031069
0.00223613
0.00125451
0.00242907
0.000749343
0.00433665
0.0021809
0.00068851
0.00121686
0.00146654
0.00176001
0.000636405
0.00226689
0.000970344
0.00442691
0.00123396
0.00111454
0.00274825
0.00124581
0.00728785
0.00198151
0.00456602
0.0064887
0.00264635
0.00637237
0.000721905
0.0014138
0.000757346
0.00353794
0.00102379
0.00132117
0.00658334
0.00153553
0.0057225
0.00384549
0.00643198
0.000654275
0.000715629
0.00589589
0.00137203
0.0062707
0.00210602
0.00140432
0.000917456
0.00102179
0.00120518
0.00105661
0.00255216
0.00696253
0.0045005
0.000943009
0.000901567
0.00648922
0.00093346
0.00438619
0.00209231
0.00209103
0.00163853
0.00144095
0.00293787
0.00134504
0.00399007
0.00205352
0.000838077
0.00453787
0.00152591
0.00260816
0.000951311
0.00106009
0.000618376
0.000719553
0.00139938
0.000828032
0.00117281
0.000592808
0.00249603
0.00183222
0.00234097
0.00881749
0.000562657
0.000920179
0.000904479
0.00461782
0.00342984
0.000766796
0.000831298
0.000723762
0.00295764
0.000972802
0.00269655
0.00234162
0.0173295
0.00090782
0.0023253
0.00619306
0.000677302
0.00125696
0.00495176
0.00131491
0.00253392
0.000963641
0.00237707
0.0030162
0.0022508
0.00264975
0.00922758
0.00434119
0.000678719
0.00230618
0.00606334
0.00372504
0.00279678
0.000877677
0.00381453
0.00132985
0.00215089
0.00201322
0.00107593
0.00143891
0.0037436
0.00141723
0.00153091
0.000794023
0.00148359
0.00119408
0.00283671
0.00246106
0.00474982
0.0021217
0.00116816
0.00163142
0.00477007
0.0028402
0.00108066
0.0023879
0.00351714
0.00201951
0.00172494
0.00193959
0.00258182
0.00183085
0.00196993
0.00210791
0.00286414
0.00868585
0.000736506
0.000885234
0.00464376
0.00313026
0.00173079
0.000459445
0.0047482
0.00179355
0.000839929
0.0032732
0.00325167
0.00278379
0.00108957
0.00115281
0.00254424
0.0151176
0.00102241
0.00269255
0.00742611
0.00274043
0.00434965
0.00128145
0.00194808
0.00230315
0.00424117
0.00211827
0.00166563
0.000801455
0.00418178
0.00251902
0.00428731
0.00122478
0.00240282
0.00245244
0.00105686
0.00289701
0.00272987
0.00129032
0.00180114
0.000759452
0.00276838
0.00290522
0.000609023
0.00257467
0.00226737
0.00261162
0.00276964
0.00363862
0.00458792
0.00229958
0.00231805
0.00548853
0.0024991
0.000797889
0.00120689
0.00333821
0.00690852
0.00184162
0.00268285
0.000632493
0.00638295
0.00439268
0.00109528
0.00377155
0.000873014
0.000883005
0.00104691
0.00629181
0.000618066
0.00164267
0.00261933
0.00317606
0.00266021
0.00273875
0.00163976
0.00257416
0.000681019
0.00106604
0.00454045
0.000860966
0.00151904
0.00253074
0.00234762
0.00156445
0.00124469
0.000818622
0.00611247
0.000921375
0.0012761
0.0042573
0.000725377
0.0044523
0.00151662
0.000879149
0.00240628
0.00777446
0.00239812
0.00126392
0.00272231
0.00110425
0.00105513
0.00602396
0.00168891
0.00125637
0.00278723
0.00752586
0.00420444
0.00272984
0.000942432
0.0023093
0.0012627
0.002787
0.00116663
0.00454182
0.000863676
0.00267024
0.00139247
0.00303193
0.000761665
0.0066273
0.00135877
0.00100529
0.00274378
0.00498191
0.00126131
0.000627245
0.00501555
0.00145362
0.00157536
0.00217906
0.00138343
0.00105847
0.00507401
0.00170499
0.000761511
0.0065498
0.00414742
0.00372909
0.0018992
0.00124285
0.00157159
0.00294076
0.00181066
0.00545512
0.000722664
0.00166619
0.00146341
0.00265545
0.000545331
0.00094753
0.00475291
0.00462677
0.00115233
0.000813215
0.00610985
0.00615034
0.00174779
0.000754535
0.00154153
0.000790426
0.000918958
0.000993818
0.00201348
0.00286245
0.00182058
0.00252306
0.0009786
0.00133536
0.00461253
0.00601963
0.00195977
0.000673665
0.000841686
0.00170115
0.00152412
0.00454638
0.00176365
0.00231429
0.0045578
0.00658981
0.00215952
0.00215827
0.00519177
0.00658878
0.00214751
0.00102418
0.00665728
0.00164217
0.00214769
0.00147881
0.0022712
0.000833946
0.00134184
0.00598111
0.00409976
0.00249417
0.00188471
0.000725735
0.00142252
0.00290023
0.00295421
0.00391483
0.00130746
0.00719402
0.000862156
0.000675478
0.00103754
0.00302033
0.00657482
0.00279445
0.00200601
0.000561152
0.00230193
0.000788905
0.000782972
0.00430055
0.003287
0.0173369
0.000778206
0.00102813
0.000732391
0.00275786
0.00139002
0.000590972
0.000805702
0.00119949
0.001014
0.0016205
0.00100175
0.00298463
0.00634753
0.00170652
0.00481297
0.000780079
0.000849766
0.00138052
0.00598396
0.00110096
0.00253813
0.00633976
0.00623101
0.000863174
0.00221342
0.000837163
0.000923974
0.00140656
0.000884126
0.00576853
0.00428769
0.00444253
0.00285306
0.000798459
0.00101825
0.000877617
0.000785737
0.000816478
0.00707324
0.000788538
0.00602926
0.00162121
0.000846734
0.00574928
0.00263272
0.00096262
0.00074792
0.00114193
0.00243867
0.00471672
0.00107316
0.00427129
0.00306554
0.00321965
0.000997932
0.00198688
0.0047534
0.00298435
0.00434943
0.00196672
0.00190113
0.00213365
0.00338339
0.00161059
0.00182087
0.00144718
0.00162988
0.00499013
0.00426085
0.00193653
0.000759977
0.0027907
0.00301998
0.000740298
0.000872142
0.000998927
0.00612561
0.012386
0.00314017
0.001459
0.00198124
0.000982854
0.00586876
0.00425458
0.000899345
0.000887493
0.00277415
0.00283107
0.00144524
0.00175083
0.00208598
0.00254877
0.00151449
0.00113083
0.00106471
0.000882198
0.000753169
0.00137628
0.00234694
0.00271616
0.000859631
0.00467885
0.00281136
0.00157598
0.00327991
0.000711168
0.000922291
0.00163961
0.00113985
0.000708298
0.00200151
0.0017723
0.00136086
0.00361516
0.00566169
0.00222203
0.0026257
0.00627618
0.00128238
0.000954221
0.00223389
0.000878243
0.00669094
0.000827951
0.00107963
0.00141531
0.00194404
0.000653979
0.00670069
0.000709787
0.00615964
0.000936387
0.00664362
0.00130929
0.000665404
0.00204974
0.00644059
0.00317536
0.00107753
0.000735461
0.00287912
0.00308298
0.0010509
0.00259822
0.00465366
0.00245151
0.000751304
0.00265609
0.00264477
0.00530393
0.0012842
0.0022754
0.000612463
0.000828862
0.000857775
0.00100119
0.000873569
0.0057993
0.0045859
0.00559159
0.00133847
0.00312292
0.00432369
0.00625647
0.00283527
0.00642917
0.00151776
0.0064466
0.00200339
0.00318964
0.00105255
0.00266402
0.00279716
0.00430962
0.00298451
0.00281479
0.00174187
0.000755616
0.0092511
0.00176186
0.00630069
0.000835082
0.00122143
0.00259322
0.0013106
0.0012815
0.00202977
0.00126941
0.00342149
0.00477036
0.00101637
0.00288308
0.00471298
0.00130439
0.00101703
0.00442124
0.00596983
0.000905961
0.0041949
0.0027093
0.00648686
0.00276748
0.0045332
0.00615238
0.00442188
0.0068874
0.000829855
0.00127314
0.00261016
0.00627658
0.00183442
0.000596262
0.000834632
0.000768834
0.00144083
0.00445385
0.00149957
0.00911718
0.00134351
0.00313874
0.000695733
0.00643862
0.00103636
0.0011659
0.00638691
0.00450242
0.000643739
0.00100728
0.0057445
0.0012797
0.000947428
0.00266277
0.00158437
0.0040638
0.000491782
0.00138751
0.00322952
0.000767419
0.000823233
0.00210103
0.00108793
0.00112007
0.000713618
0.00381929
0.000800796
0.000904111
0.000798683
0.00135797
0.00291304
0.000840652
0.00643584
0.000626378
0.00693124
0.0127984
0.00313114
0.000806201
0.000866906
0.00463512
0.00138638
0.000881098
0.00154141
0.000640149
0.00686346
0.00665034
0.00881949
0.00298361
0.00565836
0.00106968
0.00422591
0.000886294
0.00470322
0.00583915
0.00294909
0.00274911
0.00185215
0.000748459
0.00217816
0.00450461
0.00433919
0.000624447
0.00119525
0.00676984
0.000795619
0.00274599
0.00134388
0.00224028
0.00127419
0.00236038
0.000883747
0.00103636
0.00142175
0.00346976
0.00401772
0.00334269
0.00455691
0.000741907
0.00204618
0.00264253
0.00282493
0.000827679
0.000806905
0.00115651
0.00275865
0.000583695
0.00576597
0.0031044
0.00101949
0.00423504
0.00129142
0.00115848
0.000697492
0.00111716
0.0012244
0.00106693
0.00126317
0.00175514
0.00077584
0.00163723
0.00622563
0.00575025
0.000872346
0.000779432
0.00114166
0.00122619
0.000905279
0.00613325
0.000970039
0.000654975
0.00122207
0.00112658
0.00447371
0.00278846
0.00361865
0.000679701
0.00255053
0.000925211
0.00623374
0.000469286
0.00433306
0.0013497
0.00254405
0.00296796
0.000935246
0.00147698
0.00431909
0.00599914
0.000744101
0.00853691
0.00153876
0.00188439
0.00133709
0.00113682
0.00136129
0.000804893
0.00581591
0.000913557
0.00052579
0.00283291
0.00638512
0.00145349
0.000721315
0.0013174
0.000884686
0.00439547
0.00182435
0.00568212
0.00136532
0.000795477
0.00104314
0.000422059
0.00416443
0.00630075
0.00285469
0.00219591
0.00420772
0.000791545
0.00434812
0.000685552
0.00295928
0.00631903
0.000844553
0.00117258
0.00132591
0.00233915
0.000578789
0.000774089
0.00473514
0.00279295
0.00587207
0.00228958
0.00240668
0.00275673
0.000887441
0.00697449
0.00399248
0.00350027
0.00325198
0.00120863
0.000865564
0.00130837
0.00688961
0.000439298
0.00108327
0.00091333
0.00325411
0.000618849
0.00223221
0.00099751
0.00188338
0.00350886
0.00270375
0.00119878
0.00404474
0.00163206
0.00123289
0.000833568
0.00121497
0.00151687
0.00237584
0.0043926
0.00285328
0.00297369
0.00613902
0.000729731
0.0041342
0.00129834
0.00626587
0.00404954
0.0029366
0.00175624
0.000849436
0.00414282
0.00588712
0.00111165
0.00150032
0.00207046
0.000875792
0.00603213
0.00131584
0.00440775
0.000749869
0.00146252
0.00269793
0.00145036
0.00204523
0.00131529
0.00172134
0.0020507
0.00121519
0.00197988
0.00071006
0.00523358
0.00669449
0.000784336
0.00714999
0.000476019
0.00065113
0.0013254
0.00281894
0.000592813
0.00447618
0.00287876
0.00292937
0.00116741
0.00371453
0.000475066
0.00270089
0.0016432
0.000826044
0.00413421
0.000817115
0.000563544
0.00125338
0.000906006
0.00652473
0.0061182
0.00170324
0.000764148
0.0020357
0.00100939
0.00735697
0.00311098
0.00241123
0.00263944
0.00170053
0.00454194
0.000857373
0.00128682
0.00456166
0.00532998
0.00288017
0.00130301
0.00631378
0.000837666
0.00389822
0.00656228
0.00144721
0.00218644
0.00268363
0.00111419
0.0020599
0.000958946
0.00225453
0.00069524
0.00077605
0.00203283
0.000989941
0.00633631
0.00441349
0.000613839
0.00180046
0.000865336
0.00633542
0.0061978
0.000830279
0.00549837
0.00113742
0.00171222
0.00260884
0.00416398
0.0025141
0.00220332
0.000802531
0.00124974
0.000741228
0.00273309
0.00610181
0.00206572
0.00646018
0.00358641
0.00435051
0.00403521
0.00160657
0.00304337
0.00103909
0.000793381
0.00103364
0.00103377
0.00174418
0.001608
0.00294394
0.00220028
0.00179574
0.00166043
0.00447859
0.000885339
0.00648831
0.00126403
0.00414988
0.00128278
0.000767624
0.00945476
0.00570283
0.00109688
0.0029681
0.00643318
0.000935579
0.00604578
0.00289301
0.00196982
0.00157868
0.00280493
0.00417755
0.000837194
0.00282976
0.00269394
0.0015388
0.00155359
0.00209589
0.00411623
0.000644952
0.000599229
0.00298137
0.00156037
0.00171285
0.00150137
0.002976
0.00632129
0.0041048
0.000721884
0.00279467
0.000838343
0.00385086
0.00213204
0.00262111
0.000548802
0.000790175
0.00125393
0.00279553
0.00262409
0.00630651
0.00126399
0.000514057
0.00276539
0.000704362
0.00618709
0.00128143
0.0019656
0.00667029
0.000785062
0.000785404
0.00144933
0.00997054
0.00702247
0.00498703
0.00275139
0.00253658
0.006555
0.00603391
0.0070256
0.00127821
0.00178732
0.00113822
0.00162343
0.00098178
0.00632733
0.00122803
0.000642261
0.00638727
0.00648751
0.0062011
0.00147678
0.00572773
0.00137869
0.00461253
0.00302624
0.00135436
0.00384103
0.00112802
0.00132631
0.00260306
0.000773006
0.00133416
0.00210533
0.00307793
0.000790984
0.00112884
0.00148888
0.00633788
0.00154896
0.000807264
0.000473564
0.00073953
0.00223181
0.0026453
0.0044185
0.00668862
0.000891887
0.00290063
0.00239851
0.00141949
0.00359813
0.000703704
0.00309673
0.000739037
0.00180309
0.00386279
0.00371782
0.00213713
0.00104452
0.001401
0.00140732
0.00152424
0.00231949
0.000732063
0.000891549
0.000651978
0.00106559
0.000743889
0.00243902
0.00118247
0.000662328
0.00631404
0.00414593
0.00709928
0.000868899
0.000797791
0.00107621
0.00287003
0.000978351
0.0036349
0.00260033
0.00612335
0.000524484
0.00199903
0.00176637
0.00611081
0.003567
0.003325
0.00613361
0.00391609
0.00198428
0.00238126
0.00577685
0.00439888
0.00270626
0.00286085
0.00222213
0.00088403
0.00102088
0.0012402
0.000610579
0.00101999
0.00430052
0.00270189
0.00090307
0.000668503
0.000730019
0.000689638
0.00158171
0.00189038
0.000783978
0.00287703
0.00423737
0.00137708
0.00172495
0.00661482
0.00209521
0.0061495
0.000950333
0.00109715
0.00164038
0.00162208
0.00285917
0.00661859
0.00294649
0.00299169
0.00226837
0.00095007
0.00141367
0.00493149
0.00142767
0.00141541
0.00204155
0.000762757
0.00606542
0.00253804
0.000687482
0.00173557
0.00231356
0.001869
0.00174726
0.000942547
0.000817256
0.00095143
0.00176703
0.00216067
0.000997161
0.00136386
0.00583648
0.00606735
0.00145352
0.000701337
0.00182853
0.0018415
0.00609418
0.000873914
0.000604696
0.000930055
0.00121426
0.00135279
0.000632466
0.000833453
0.00232967
0.000694412
0.000600753
0.00380615
0.000712263
0.000769551
0.00623184
0.000495904
0.00102426
0.000841918
0.000992928
0.00185993
0.00490882
0.00157914
0.00143355
0.00190533
0.00148068
0.00155995
0.00049163
0.00132016
0.000513469
0.00622673
0.000497488
0.00405852
0.00447111
0.00072604
0.00587584
0.00226404
0.00142864
0.00186331
0.00285581
0.00108271
0.00623568
0.000704804
0.00417898
0.00104303
0.0010878
0.00104805
0.00192878
0.00105397
0.00126713
0.00260727
0.00139981
0.00129698
0.00121998
0.00430072
0.00140614
0.00257586
0.00223338
0.00278487
0.000742362
0.00147557
0.00167463
0.00607373
0.000900877
0.00645316
0.00227352
0.0059412
0.00406905
0.000995222
0.000667482
0.000893424
0.000806089
0.00533371
0.0016985
0.00594581
0.00552875
0.00100669
0.0031388
0.00118919
0.000648082
0.00118803
0.00630269
0.0027319
0.00445465
0.00213906
0.00170106
0.00248706
0.000963105
0.00125943
0.00271479
0.00243611
0.00567656
0.000965852
0.00161356
0.00228938
0.00105549
0.00215205
0.00183008
0.000605358
0.00237506
0.000993851
0.0023167
0.000966665
0.00127717
0.00211916
0.00143813
0.00150257
0.000943181
0.00135784
0.00117475
0.00235704
0.00106385
0.00444713
0.00160013
0.0024324
0.00252739
0.000567949
0.0027205
0.010455
0.00141039
0.00199703
0.00115188
0.000709699
0.00399264
0.000608027
0.00149952
0.00130783
0.00116563
0.00282021
0.00288143
0.000642011
0.0041431
0.00436937
0.00660674
0.00063661
0.00154971
0.00233191
0.000781687
0.000776218
0.000781972
0.00321801
0.000844498
0.00204508
0.0022191
0.00266388
0.0028712
0.00486641
0.00688094
0.00653994
0.00235031
0.00149863
0.00243327
0.0024038
0.00130227
0.00122509
0.00186538
0.00636931
0.00328351
0.00187955
0.00199403
0.00268207
0.00274042
0.00325142
0.000471138
0.0039302
0.00149762
0.000875447
0.00103636
0.00124018
0.00114659
0.00237456
0.000977476
0.00268999
0.00107531
0.000924073
0.00217805
0.00267082
0.0042607
0.00204623
0.00273688
0.00286357
0.00458506
0.00117656
0.00531523
0.00201302
0.000929632
0.00378521
0.00251556
0.0028518
0.00143331
0.000684102
0.0019365
0.00114383
0.00167136
0.00114323
0.00136797
0.00110597
0.00242895
0.00161654
0.00284567
0.00242051
0.00091216
0.00195334
0.000926557
0.00113206
0.00115019
0.0061604
0.00127702
0.00616749
0.00129681
0.00104499
0.00084188
0.00178709
0.00106164
0.00445443
0.00441232
0.00176563
0.0012669
0.00323484
0.000769606
0.00415117
0.00155754
0.000636504
0.00115418
0.000715564
0.00175643
0.000772222
0.0015383
0.00413008
0.00228895
0.00471072
0.00447891
0.00258754
0.000558248
0.000828197
0.00310981
0.00465218
0.0038669
0.00122963
0.00107018
0.00123489
0.00125845
0.00423682
0.00348131
0.00433516
0.00257043
0.00216334
0.00301125
0.00116368
0.00251073
0.00580884
0.00113781
0.00389518
0.00716628
0.00636191
0.00117129
0.000558986
0.00213586
0.00261361
0.00292954
0.00490225
0.000729688
0.00239096
0.00144949
0.00123153
0.00668477
0.000693163
0.00165548
0.00150565
0.00103924
0.000568264
0.00208428
0.00116488
0.0018571
0.000837143
0.00621794
0.00125086
0.00292885
0.00101329
0.00491486
0.00141197
0.000669966
0.00185064
0.000781597
0.00605017
0.000748188
0.000823443
0.00197007
0.000848817
0.00127608
0.000997657
0.00134791
0.00069428
0.00228897
0.00290727
0.00289972
0.000909417
0.00189334
0.000776465
0.0010008
0.00145461
0.00135369
0.000970178
0.00448662
0.00093738
0.00276498
0.0050291
0.00067404
0.00510021
0.000726451
0.00243476
0.00405857
0.000961872
0.00397113
0.00590957
0.0061357
0.00471554
0.00424846
0.00176154
0.000956734
0.00228092
0.00061293
0.00285043
0.00159663
0.00264641
0.00142462
0.00638043
0.00063611
0.000796347
0.000554387
0.0013674
0.00582778
0.00438819
0.000653518
0.0060568
0.00219389
0.00425415
0.0006609
0.0022598
0.00266658
0.00284507
0.00134763
0.0042534
0.00596934
0.00441831
0.000917854
0.00260554
0.00612316
0.000771921
0.00120455
0.00588161
0.00111677
0.00516611
0.000540799
0.000787574
0.00234958
0.00163849
0.00947996
0.000757747
0.00465875
0.00234711
0.00117063
0.000806813
0.00153394
0.00125154
0.000760353
0.00516259
0.000917443
0.000900481
0.00280577
0.00248745
0.00278179
0.00634161
0.0013943
0.00122705
0.00198608
0.00231859
0.000908533
0.00673927
0.00600453
0.004109
0.0019942
0.0047911
0.00062616
0.00650569
0.00410434
0.00113165
0.00281111
0.00433109
0.00450959
0.0007214
0.00126881
0.00249382
0.00283656
0.000783903
0.00123585
0.000706261
0.000769114
0.0013046
0.00210066
0.00234233
0.00656164
0.00123406
0.00144884
0.00255145
0.00525352
0.00204123
0.00175481
0.000944264
0.00113996
0.00689196
0.000707281
0.000667651
0.00659363
0.000988613
0.00151575
0.00108604
0.00365789
0.00191764
0.00376003
0.00230417
0.00258301
0.00609777
0.00208073
0.00139878
0.00249005
0.000703222
0.00151955
0.00157731
0.00195219
0.00297702
0.00595382
0.00185625
0.000999329
0.000791528
0.0014417
0.00295856
0.000697905
0.00306201
0.00247766
0.00095723
0.00337373
0.000727295
0.00128554
0.000933139
0.00428526
0.00597104
0.00207262
0.00151365
0.00372618
0.00487043
0.00119744
0.00114941
0.00102471
0.00643841
0.00121495
0.00151796
0.00170537
0.00119711
0.000807291
0.000686397
0.00272249
0.000724553
0.00155877
0.0012985
0.00597762
0.00663481
0.000752819
0.000914982
0.00106147
0.00127349
0.00187101
0.00135521
0.00219055
0.00149444
0.00111561
0.0019009
0.000907953
0.00136273
0.00164986
0.00106091
0.00154965
0.00100944
0.00556645
0.000562966
0.000775469
0.000653077
0.000669106
0.000755622
0.00108069
0.00423599
0.000809605
0.0015496
0.000987321
0.000567708
0.00427749
0.00200756
0.000758464
0.00682158
0.00107291
0.00459687
0.000672406
0.000883515
0.000586406
0.000635195
0.000543199
0.00417089
0.00627056
0.00991567
0.00279844
0.00414696
0.00115736
0.00164468
0.00401628
0.00302778
0.00079857
0.00233627
0.000726013
0.000589619
0.00172372
0.00258232
0.00148354
0.00658703
0.00181441
0.00430879
0.00668023
0.00111653
0.00241512
0.00141958
0.00126513
0.00215071
0.00105718
0.0013279
0.000883233
0.00112904
0.000823509
0.00340892
0.00522259
0.000787878
0.00133684
0.000938736
0.00260518
0.00121693
0.00105502
0.0010445
0.00121493
0.00127616
0.00127431
0.000891143
0.00153765
0.000567631
0.000828774
0.000833889
0.00100817
0.00453592
0.00085041
0.000767741
0.00107839
0.00202949
0.000710775
0.00202547
0.00428977
0.000573407
0.00242345
0.00353215
0.00109759
0.00127366
0.00233728
0.0017417
0.000730074
0.00607666
0.00104538
0.00122525
0.00162226
0.00255111
0.00165769
0.00149065
0.000600897
0.00157429
0.000782283
0.000730603
0.00100427
0.00672327
0.000708192
0.000993969
0.00148337
0.00102065
0.000961837
0.00109513
0.0124003
0.00239957
0.00402414
0.000658506
0.00171988
0.00133001
0.00104714
0.00108449
0.00147558
0.00374907
0.0058636
0.00144427
0.0012752
0.0089206
0.00408523
0.000772591
0.000903007
0.00317808
0.000674655
0.000598854
0.000516764
0.000758842
0.006443
0.000846829
0.00190563
0.00426667
0.00133644
0.00265189
0.00108319
0.00596589
0.00446412
0.00115136
0.00285838
0.000715563
0.00319506
0.000887382
0.0045232
0.00503139
0.000662008
0.00580235
0.0031123
0.000639748
0.00591299
0.0010384
0.00349022
0.00255395
0.00314632
0.00195894
0.00471675
0.00467884
0.000784316
0.00143443
0.000805438
0.00308751
0.0010098
0.0011796
0.000673954
0.00256245
0.000967907
0.0027476
0.000964925
0.00183739
0.00106608
0.000597996
0.00150627
0.00757278
0.000673531
0.000734507
0.0011495
0.00494923
0.000506077
0.00701786
0.00123914
0.00123911
0.00193576
0.00160264
0.000676686
0.0010208
0.0083923
0.00275857
0.00131399
0.00127682
0.00245094
0.00250298
0.00108058
0.000745819
0.00271134
0.00644037
0.0023962
0.0014792
0.00139911
0.00252034
0.000683573
0.000768452
0.00638159
0.00114103
0.00661588
0.00412265
0.000755269
0.00107637
0.000664429
0.00516427
0.00165779
0.00124264
0.00102442
0.00262561
0.00127347
0.00454421
0.00102435
0.00120364
0.000556037
0.00102024
0.00277948
0.000934395
0.0059256
0.00079415
0.00282164
0.00112829
0.00626789
0.00338692
0.000942226
0.00280014
0.00101999
0.00240137
0.00108961
0.00109947