/*--------------------------------*- C++ -*----------------------------------*\
| =========                 |                                                 |
| \\      /  F ield         | OpenFOAM: The Open Source CFD Toolbox           |
|  \\    /   O peration     | Version:  2406                                  |
|   \\  /    A nd           | Website:  www.openfoam.com                      |
|    \\/     M anipulation  |                                                 |
\*---------------------------------------------------------------------------*/
FoamFile
{
    version     2.0;
    format      ascii;
    arch        "LSB;label=32;scalar=64";
    class       volVectorField;
    location    "40";
    object      momentum:momentum;
}
// * * * * * * * * * * * * * * * * * * * * * * * * * * * * * * * * * * * * * //

dimensions      [1 1 -1 0 0 0 0];

internalField   nonuniform List<vector> 
59516
(
(2.27995e-07 -2.75728e-10 -1.1092e-09)
(1.70859e-07 -1.9396e-10 -7.24727e-10)
(2.07867e-07 -1.85334e-09 -5.95117e-10)
(1.74959e-07 2.21146e-09 2.61712e-09)
(2.00205e-07 3.74172e-10 -7.99554e-09)
(5.03647e-08 -2.40867e-09 -5.3799e-09)
(2.12483e-07 -1.00579e-09 -2.83921e-09)
(2.00941e-07 1.55475e-09 -1.00957e-10)
(1.5996e-07 1.34838e-09 3.11986e-12)
(8.27094e-08 -1.48971e-09 3.26009e-09)
(2.07371e-07 -1.61417e-10 -2.7618e-09)
(1.03375e-07 6.72968e-10 -6.02727e-09)
(3.28278e-07 2.94599e-09 -1.9763e-10)
(1.6193e-08 -7.28275e-11 -1.71608e-10)
(1.57286e-07 3.84378e-09 8.26459e-09)
(8.7449e-08 5.9688e-09 -2.86907e-09)
(2.64503e-07 -8.24425e-10 -7.98937e-10)
(1.60087e-07 9.04431e-09 -9.75254e-09)
(3.30996e-07 1.61548e-08 2.35579e-09)
(3.66754e-07 -8.24743e-10 1.17468e-09)
(1.00504e-07 1.48458e-09 -2.10477e-09)
(3.18651e-07 -1.12216e-09 6.78702e-10)
(3.51009e-07 2.96383e-10 -2.39833e-09)
(3.61208e-08 -1.0923e-09 -2.63591e-10)
(3.09756e-07 -9.3644e-10 1.83656e-09)
(2.07675e-07 4.30495e-09 2.16721e-09)
(5.41779e-08 1.09614e-09 -3.59753e-09)
(7.45055e-08 6.24718e-09 4.37854e-10)
(1.45987e-07 5.57095e-09 -8.13396e-10)
(1.40816e-08 -2.19074e-09 5.72608e-10)
(1.89431e-07 -3.67711e-08 -8.10005e-09)
(8.41162e-08 6.59522e-09 -1.01148e-09)
(1.75979e-07 2.27231e-10 1.08639e-09)
(1.77824e-07 -1.25626e-09 3.6659e-09)
(1.33299e-07 4.41862e-09 3.39653e-09)
(3.99852e-07 -2.8024e-11 -5.6121e-10)
(1.36386e-08 -1.32565e-09 -1.87669e-09)
(1.31919e-07 5.02399e-09 -1.26244e-08)
(2.68967e-07 -9.78839e-09 -7.31069e-10)
(2.77857e-07 -1.87571e-09 -7.61273e-10)
(2.62733e-07 -1.80303e-09 1.86997e-10)
(4.06504e-07 -2.30195e-08 -2.1202e-08)
(3.42903e-07 -7.22358e-09 -5.74154e-09)
(1.13402e-07 -7.61281e-10 3.98471e-10)
(2.65796e-07 -7.21203e-09 -2.57479e-11)
(1.05533e-07 -1.45103e-09 -2.46748e-09)
(3.25678e-07 -6.08569e-09 -9.19183e-09)
(2.52087e-07 -5.92614e-09 -9.21674e-10)
(2.51852e-07 -2.03279e-08 2.79757e-08)
(2.39792e-07 9.65818e-09 7.97446e-09)
(1.63906e-07 1.64954e-08 -2.28817e-08)
(7.92295e-08 -6.4852e-09 4.38757e-09)
(3.20637e-07 2.48807e-09 -5.98036e-09)
(3.04838e-07 -1.23067e-09 3.02734e-11)
(8.33265e-08 4.99221e-09 5.99172e-11)
(2.46931e-07 4.10573e-09 -1.16856e-09)
(2.02857e-07 1.12675e-08 1.18128e-08)
(8.10606e-08 6.72137e-09 -4.70338e-09)
(2.02548e-07 2.48546e-10 -1.28576e-10)
(1.45588e-07 6.51179e-09 8.30643e-09)
(2.08026e-07 -4.07507e-10 5.18323e-10)
(1.59459e-08 1.94135e-09 -6.86628e-10)
(2.59236e-07 8.96657e-10 -1.17589e-10)
(3.36125e-07 3.66179e-09 2.06289e-09)
(2.97814e-07 7.52681e-10 -1.39229e-09)
(2.14264e-07 4.60591e-09 6.3781e-09)
(1.89932e-08 -1.28251e-09 1.72956e-09)
(6.8582e-08 3.4865e-10 -3.23875e-10)
(1.9824e-07 -8.26283e-09 3.62921e-08)
(1.69741e-07 1.53791e-09 -2.62054e-09)
(5.43429e-08 1.5249e-09 4.55345e-10)
(1.55187e-07 1.13926e-09 1.5998e-10)
(2.43066e-08 1.52282e-09 -3.6934e-09)
(1.86153e-07 4.15829e-10 4.2594e-10)
(3.62148e-07 -1.72261e-10 -8.98046e-11)
(3.58617e-07 -3.34492e-09 -4.09232e-09)
(2.12757e-07 -2.16527e-09 -3.30818e-09)
(2.25518e-07 -6.962e-11 -3.95426e-10)
(8.82428e-08 -2.97353e-09 2.7006e-09)
(1.91922e-07 3.66574e-09 8.8962e-09)
(5.29555e-08 3.17082e-09 1.44241e-09)
(1.70617e-07 4.30849e-09 6.23748e-09)
(1.82415e-07 2.29866e-09 6.71104e-09)
(1.8997e-08 -7.3197e-10 2.62857e-09)
(2.1424e-07 4.39196e-09 8.30859e-09)
(3.69359e-07 -4.48921e-10 1.41341e-09)
(3.2859e-08 -1.17179e-09 5.24672e-10)
(5.0294e-07 1.30609e-09 2.20506e-09)
(1.13938e-07 1.43409e-09 4.80562e-09)
(1.66986e-07 1.2995e-08 -8.86971e-09)
(1.83389e-07 -1.18531e-09 -1.57909e-08)
(1.88485e-07 2.41354e-09 -2.85571e-10)
(2.52242e-07 -1.61016e-11 -1.9238e-10)
(1.82293e-07 1.6385e-09 -3.70758e-10)
(1.78761e-07 4.68805e-10 5.46003e-11)
(1.83461e-07 -1.76491e-08 6.63658e-09)
(1.24552e-07 -4.63259e-10 6.8409e-10)
(8.77871e-08 -2.89283e-09 -6.80117e-09)
(1.15998e-07 4.17828e-09 -1.65707e-09)
(2.06982e-07 -1.24428e-09 2.11629e-09)
(6.43562e-08 1.0883e-09 2.37866e-09)
(2.76151e-08 1.36233e-09 -3.14846e-09)
(2.43887e-08 8.63845e-10 3.3653e-09)
(8.79187e-08 -1.33313e-09 -4.61411e-09)
(2.35521e-07 1.10958e-09 -3.51123e-10)
(1.62008e-07 -1.11499e-10 3.01708e-10)
(5.76793e-08 4.99079e-09 -2.06413e-09)
(1.40652e-07 4.73972e-10 -9.07634e-10)
(1.79445e-07 -1.25693e-09 1.02025e-10)
(1.94906e-07 1.21628e-09 -7.86631e-09)
(2.80251e-07 2.88199e-08 -3.02566e-08)
(4.5002e-08 4.53247e-09 -6.0579e-10)
(1.93551e-07 2.37841e-09 -1.17145e-08)
(2.19227e-07 3.21958e-08 -1.61698e-08)
(2.18434e-07 -1.48611e-11 -1.29961e-10)
(1.40813e-07 1.4872e-09 1.4178e-09)
(1.30656e-07 1.32739e-09 -5.02535e-09)
(1.44849e-07 3.46818e-11 8.89151e-10)
(1.91615e-08 -2.53913e-10 9.27749e-10)
(2.61647e-07 2.51022e-09 6.90292e-10)
(3.92914e-07 -1.0721e-09 8.33672e-10)
(1.72075e-07 -1.09802e-10 3.967e-10)
(1.58695e-07 -4.19533e-10 6.99257e-10)
(1.78605e-07 -5.60149e-10 5.99643e-10)
(1.32978e-07 -1.77151e-08 2.78854e-09)
(1.44574e-07 1.90922e-09 -4.41311e-09)
(3.73388e-08 -6.37038e-10 2.4478e-09)
(2.12069e-07 -2.04694e-08 -1.51824e-09)
(1.63206e-07 -5.0139e-09 2.38551e-08)
(1.54117e-07 4.76082e-10 5.8022e-11)
(2.72235e-07 6.34004e-10 7.43903e-10)
(3.29648e-07 4.68947e-09 5.54066e-09)
(2.36555e-08 1.36425e-09 -1.62448e-09)
(2.55582e-07 -1.72023e-10 1.13087e-09)
(3.21886e-07 3.58861e-09 8.93533e-10)
(2.00867e-07 -1.35826e-09 -3.23489e-09)
(1.51853e-07 1.79892e-08 -1.26118e-08)
(3.17058e-07 -8.75595e-10 1.13374e-09)
(5.41105e-08 3.65856e-09 1.46718e-10)
(1.62287e-07 6.62303e-10 -2.03127e-09)
(7.91089e-08 -1.60183e-09 -3.95329e-09)
(3.17542e-07 -7.81378e-10 5.718e-10)
(1.44588e-08 6.46192e-10 1.26959e-09)
(1.52415e-07 -1.45701e-09 -4.8305e-10)
(2.10005e-07 6.02715e-10 3.08299e-10)
(2.83496e-07 3.00661e-09 5.29879e-11)
(2.03343e-07 -6.35851e-09 -2.02287e-09)
(2.07829e-07 1.95235e-09 -4.19565e-09)
(6.40368e-08 -1.03714e-09 1.78659e-09)
(2.1065e-07 -1.51614e-09 -1.63952e-09)
(3.25225e-07 -9.91116e-11 -2.58681e-09)
(5.4673e-08 -2.03453e-09 3.72256e-11)
(3.80292e-07 -2.05183e-09 2.43927e-09)
(2.17264e-07 -6.10231e-10 8.13039e-10)
(1.62699e-07 -7.32744e-10 3.58182e-09)
(1.53023e-08 -3.17474e-10 1.65648e-09)
(2.82726e-07 -9.81702e-11 -3.847e-10)
(3.35885e-07 3.46879e-09 -6.80065e-10)
(1.31921e-07 1.84043e-09 1.90258e-10)
(1.6497e-08 1.97804e-09 -2.16044e-09)
(9.13604e-08 2.10463e-09 -4.70329e-09)
(1.1466e-07 -6.13476e-09 -3.99807e-09)
(4.13641e-08 -1.72584e-09 4.16709e-10)
(2.34406e-08 -2.01268e-10 -4.61487e-10)
(1.66664e-07 2.95227e-09 3.89187e-09)
(3.20673e-07 5.29062e-10 2.10628e-09)
(1.5983e-07 -1.78428e-09 8.71724e-10)
(2.72949e-07 9.64707e-10 -1.20271e-10)
(1.78805e-08 -1.08764e-09 2.07203e-09)
(2.14363e-07 -8.23618e-10 2.3094e-10)
(8.90776e-08 1.392e-09 1.20974e-09)
(6.92879e-08 9.9081e-10 -1.05079e-09)
(1.09248e-07 2.72825e-09 1.48081e-09)
(1.52122e-07 -6.64094e-10 6.9129e-10)
(8.79404e-08 -1.42794e-09 4.9557e-10)
(4.5387e-07 -4.30806e-09 -1.55558e-08)
(2.43031e-07 -2.94472e-10 -1.51738e-09)
(3.097e-07 -9.98315e-09 -5.9798e-09)
(1.52703e-07 -1.98385e-09 7.18256e-09)
(6.46722e-08 -2.44865e-10 -8.30843e-10)
(3.0731e-07 4.07681e-09 1.5979e-09)
(4.4279e-08 -3.82216e-09 -1.72481e-09)
(3.10257e-08 -3.70113e-10 -2.44266e-09)
(1.07924e-07 -2.82434e-09 2.96682e-10)
(1.99062e-07 -1.00283e-10 6.19861e-10)
(9.98598e-08 5.34154e-10 1.18305e-09)
(4.75609e-08 -8.41881e-10 -3.66542e-09)
(2.10371e-08 3.42598e-11 2.73325e-10)
(1.9337e-07 1.69704e-10 -3.51572e-11)
(2.30486e-07 -4.00259e-09 -3.74136e-10)
(1.58768e-07 -8.07632e-10 3.28758e-09)
(1.18686e-07 7.15065e-09 1.02809e-10)
(2.12196e-07 -6.90605e-10 -2.62842e-10)
(9.7268e-08 3.82981e-09 4.39176e-11)
(3.38626e-07 -2.95727e-10 -3.53187e-10)
(2.9576e-08 -2.60922e-10 8.09481e-10)
(1.00213e-07 1.32515e-09 -3.08565e-10)
(5.87825e-08 -1.55645e-09 4.25299e-10)
(1.89153e-07 4.79979e-09 6.29418e-09)
(2.6327e-07 1.09186e-09 -5.06507e-10)
(7.91668e-08 -2.67334e-09 3.50982e-10)
(1.86189e-07 -6.45894e-10 3.8279e-10)
(3.18891e-07 -2.21908e-09 2.7153e-09)
(1.66072e-08 1.79448e-09 -1.18529e-09)
(2.23198e-07 -2.33924e-09 -8.25879e-10)
(2.38851e-07 2.14767e-10 2.8889e-10)
(3.38928e-07 2.18081e-10 1.81504e-10)
(1.96703e-07 -1.37245e-09 -1.93965e-10)
(1.87902e-08 -5.65433e-10 1.74264e-10)
(3.07105e-07 -5.20046e-09 -1.52204e-11)
(6.24171e-08 4.36987e-09 3.80049e-09)
(2.53396e-08 -4.14258e-09 -6.69322e-10)
(2.32751e-07 5.52745e-10 -2.21882e-09)
(9.81009e-08 -1.9779e-09 1.36666e-09)
(2.98281e-07 3.33986e-09 3.70023e-10)
(2.83699e-07 -4.82839e-10 -9.33374e-11)
(2.73109e-07 1.89892e-09 3.87983e-10)
(2.06857e-07 -1.64173e-09 6.44038e-10)
(8.56841e-08 3.46571e-09 -4.4308e-09)
(2.18013e-07 -4.89631e-10 1.03399e-09)
(1.22824e-07 4.82145e-09 4.03816e-09)
(1.97767e-07 7.85637e-10 -1.22972e-10)
(1.77069e-07 8.09618e-10 1.06607e-09)
(7.70873e-08 -3.43942e-10 1.3991e-09)
(2.91078e-07 -1.11583e-09 2.49639e-10)
(3.0423e-07 -4.1118e-10 -1.39843e-09)
(3.28346e-08 -3.47003e-10 1.6866e-09)
(6.74274e-08 2.15465e-09 -3.15087e-09)
(1.95763e-07 3.96089e-10 9.25028e-10)
(1.21038e-07 4.28026e-10 -8.88331e-09)
(2.3794e-07 -9.45758e-10 4.23575e-10)
(1.7646e-07 4.14208e-10 -4.70741e-10)
(3.0956e-07 1.03334e-09 1.64873e-09)
(2.7707e-08 -2.16499e-09 -1.54607e-09)
(3.2257e-08 8.60038e-10 -1.53723e-09)
(4.04762e-08 1.02803e-09 -1.43009e-09)
(1.12104e-07 6.31877e-10 5.82006e-10)
(1.78047e-07 -2.32712e-09 1.17566e-09)
(4.16059e-07 2.56061e-09 3.36707e-09)
(8.88992e-08 -1.84728e-09 2.22034e-09)
(2.43286e-07 -1.90655e-10 9.12203e-10)
(1.94253e-08 3.52631e-10 2.85454e-09)
(1.12807e-07 9.22179e-11 1.85702e-09)
(2.78642e-08 2.05639e-10 3.06521e-09)
(1.59909e-07 6.33166e-10 3.09997e-10)
(1.56131e-07 -8.26714e-10 -6.08913e-10)
(1.96503e-07 2.4471e-10 1.11478e-09)
(1.90674e-07 2.11979e-09 -4.09889e-09)
(2.74634e-07 -8.5999e-11 4.88451e-11)
(2.0297e-07 4.58225e-10 8.05609e-10)
(3.77806e-07 -2.41895e-09 6.76003e-10)
(2.13412e-07 1.37618e-10 1.00949e-09)
(1.86944e-07 2.45079e-10 7.45398e-10)
(2.81578e-07 7.57532e-10 -8.95564e-10)
(2.82177e-07 2.38249e-09 1.51227e-09)
(2.97981e-07 5.05081e-10 1.13842e-09)
(1.14556e-07 2.35368e-10 -4.77523e-10)
(2.82619e-07 1.56305e-09 2.82338e-09)
(8.30729e-08 -7.07851e-10 -4.58143e-09)
(1.00297e-07 8.13069e-10 3.51178e-09)
(2.20415e-07 1.36544e-09 -1.55938e-09)
(2.59381e-07 -9.26463e-10 1.07289e-09)
(2.42155e-07 5.79189e-09 3.15775e-09)
(2.78907e-07 -8.34005e-11 1.11482e-09)
(7.5919e-08 -1.90073e-11 1.65591e-09)
(1.09879e-07 4.37728e-09 -2.82034e-09)
(3.02009e-07 -5.72057e-11 -1.95203e-09)
(2.18804e-07 4.45307e-09 1.22755e-09)
(6.31963e-08 -1.04179e-09 -9.37135e-10)
(7.61657e-08 2.0453e-10 -2.12125e-09)
(1.66745e-07 1.10873e-09 -4.95418e-09)
(1.83082e-07 -7.7354e-10 -2.84799e-10)
(3.13184e-07 -7.17857e-09 1.78014e-10)
(1.52065e-07 -2.01945e-09 1.48003e-09)
(3.3041e-07 -2.36102e-09 -2.92737e-10)
(1.9415e-07 -1.20111e-09 5.28299e-09)
(2.01293e-08 2.3807e-09 -1.36898e-09)
(2.95432e-07 4.10207e-12 1.90553e-09)
(2.96694e-08 1.90327e-09 -2.50069e-09)
(5.36479e-08 -2.17495e-09 1.41323e-09)
(3.43216e-07 5.86835e-10 2.0139e-09)
(2.5128e-07 -4.9747e-10 -5.47623e-10)
(2.85179e-08 3.06069e-09 3.06106e-09)
(3.01579e-07 2.30649e-09 9.80164e-10)
(2.49406e-07 4.60518e-09 1.34747e-10)
(2.46524e-07 8.39697e-11 1.30593e-09)
(3.15575e-07 -1.15728e-09 1.45616e-11)
(2.38957e-08 2.81886e-09 5.61507e-10)
(2.71964e-07 3.05458e-10 1.00416e-09)
(1.43773e-07 -7.76774e-10 1.67701e-10)
(1.56019e-07 6.27791e-11 9.01406e-10)
(2.53941e-07 6.08746e-10 1.65647e-09)
(1.70183e-07 1.67278e-09 1.1116e-09)
(1.79852e-07 9.02055e-10 -5.9691e-10)
(2.62088e-07 1.75529e-09 3.75712e-10)
(3.97101e-08 -1.42267e-09 -1.80442e-09)
(2.78905e-07 -1.8617e-09 8.64921e-10)
(1.91157e-07 -1.24726e-09 -7.56266e-10)
(3.50186e-07 -1.1533e-09 1.20189e-09)
(2.61738e-07 -6.11971e-10 9.30417e-10)
(3.11427e-07 -1.80467e-09 1.5468e-09)
(1.39427e-07 2.17305e-09 3.01442e-09)
(2.02788e-08 -2.98674e-10 1.41554e-09)
(3.64973e-08 -8.84412e-10 6.19232e-10)
(5.07388e-07 -3.70266e-09 -1.94532e-09)
(1.87986e-08 -1.08911e-09 2.70915e-09)
(1.75959e-07 -8.98544e-10 -2.96017e-09)
(7.48617e-08 4.07775e-09 1.66176e-09)
(3.09054e-07 -1.11551e-10 1.55369e-09)
(3.65556e-07 -5.52154e-10 -9.86803e-10)
(3.1293e-07 -4.04406e-10 -8.8095e-10)
(1.25081e-07 -1.69772e-10 -2.74146e-09)
(2.99414e-07 4.01099e-09 -6.25713e-09)
(6.93832e-08 -5.67464e-09 4.66108e-09)
(8.8062e-08 1.90225e-09 2.09806e-09)
(1.96999e-07 4.59998e-10 3.28403e-11)
(1.58424e-07 1.83009e-09 -1.46896e-09)
(2.69479e-07 3.09578e-08 8.81429e-09)
(1.94309e-07 -4.06412e-09 1.98254e-09)
(6.56633e-08 -3.15719e-10 -6.59796e-10)
(1.04819e-07 -1.50761e-09 3.15239e-09)
(2.0897e-07 -1.56651e-09 -3.17443e-09)
(2.10011e-07 5.97249e-12 -1.50866e-10)
(4.07241e-07 -1.07307e-09 1.35928e-09)
(2.16761e-07 -2.72119e-10 1.25351e-09)
(4.84416e-07 -3.79073e-09 9.593e-10)
(1.66963e-07 6.15338e-09 7.84653e-09)
(3.39214e-07 2.40237e-09 1.9691e-09)
(2.71173e-07 2.47463e-09 1.29155e-09)
(1.9484e-07 -7.73801e-10 3.76736e-11)
(3.32895e-07 -1.12299e-09 1.74858e-09)
(1.05384e-07 2.36557e-09 -5.91493e-09)
(2.37238e-08 -1.51321e-09 -2.82035e-09)
(2.92751e-07 -2.05185e-09 5.80823e-10)
(5.97036e-08 -2.80166e-09 3.23065e-09)
(2.89663e-08 1.56116e-10 5.80201e-11)
(3.88179e-07 1.24474e-09 3.84242e-09)
(2.00092e-07 -6.69788e-10 6.60247e-10)
(1.07058e-07 -2.46222e-09 -5.11131e-09)
(2.4752e-07 -1.51767e-09 8.27326e-10)
(3.23484e-07 -2.86503e-09 8.20706e-10)
(4.08817e-07 -2.14061e-09 -1.19065e-09)
(2.60826e-07 -1.37714e-09 -5.55385e-10)
(3.18082e-08 1.46981e-09 7.13336e-12)
(3.14257e-07 2.56145e-10 -2.58945e-10)
(2.11727e-07 -1.45245e-09 1.16557e-09)
(1.00582e-07 5.03233e-11 1.34882e-09)
(2.84114e-07 -3.71033e-11 2.18541e-09)
(2.43934e-07 -6.28398e-10 6.91254e-10)
(1.7453e-07 1.06954e-10 -1.15747e-09)
(2.00701e-07 1.99505e-10 -1.43503e-09)
(2.73857e-07 -1.57697e-09 2.29446e-09)
(2.01187e-07 -1.81067e-09 7.46479e-10)
(7.8889e-08 -3.76147e-10 -2.53054e-10)
(2.04749e-08 8.47522e-10 -6.64414e-10)
(3.99977e-08 -2.84804e-09 -2.71265e-10)
(2.22345e-07 1.15179e-09 2.30904e-11)
(2.67894e-07 -2.09893e-08 3.29139e-08)
(1.1581e-07 -6.52993e-09 -9.42416e-09)
(1.13281e-07 4.67534e-10 3.98653e-10)
(2.49802e-07 2.0606e-10 4.26097e-09)
(3.09254e-07 5.43514e-10 1.3473e-09)
(2.29818e-07 -1.5922e-09 5.50313e-09)
(3.57433e-07 -4.76925e-10 1.83461e-09)
(3.39167e-07 -1.73644e-09 -5.07697e-10)
(2.22581e-07 2.00905e-10 8.8047e-10)
(1.37608e-07 8.89182e-10 3.87543e-10)
(2.43461e-08 -7.23592e-10 -2.58201e-10)
(2.41033e-07 -4.75066e-08 5.85971e-09)
(8.86794e-08 2.31564e-09 8.11657e-10)
(6.51079e-08 -2.93695e-09 -6.89098e-10)
(6.88229e-08 1.34165e-09 5.1052e-10)
(1.71005e-07 -4.20042e-10 -3.22441e-10)
(1.75492e-07 -8.82819e-10 4.50438e-11)
(2.33699e-07 8.33215e-10 -1.46435e-09)
(1.73331e-08 9.62961e-10 -1.47558e-09)
(1.70607e-07 -5.56777e-10 3.26963e-10)
(6.57703e-08 1.569e-09 -1.24112e-09)
(1.83696e-07 -5.73402e-10 -1.48496e-10)
(5.64646e-08 -7.33427e-10 -5.4717e-10)
(1.4958e-07 -3.52915e-09 2.99966e-09)
(2.21528e-07 -5.47274e-09 1.73491e-09)
(1.84702e-07 -1.11016e-09 1.54228e-09)
(1.92842e-08 1.58408e-09 -2.06635e-09)
(1.14141e-07 -1.20865e-09 4.94864e-09)
(2.39473e-07 -2.06902e-10 1.08936e-09)
(2.56632e-08 -1.59424e-09 -1.98982e-09)
(2.89433e-07 2.79103e-09 1.99134e-08)
(1.83788e-07 -1.13486e-09 3.96668e-09)
(3.04606e-07 -4.12194e-10 -4.60174e-09)
(2.02218e-07 4.4436e-09 -5.82688e-09)
(9.49771e-08 -1.17658e-09 2.09298e-09)
(3.89797e-07 2.32658e-09 -4.87153e-11)
(1.4205e-07 -1.4487e-08 -1.31901e-08)
(3.18491e-07 1.30913e-09 3.37919e-10)
(1.55477e-07 1.19375e-08 1.25842e-08)
(1.4403e-07 -6.37392e-09 8.6588e-10)
(1.45815e-07 -8.55092e-10 -3.40688e-09)
(2.64361e-07 1.0754e-09 4.01098e-10)
(5.26444e-07 2.91425e-09 1.25768e-09)
(8.18268e-08 -8.04512e-10 9.58709e-10)
(3.39748e-07 1.40895e-09 -1.40677e-09)
(1.21477e-07 -6.30361e-10 -2.82312e-09)
(4.22432e-07 -4.21162e-10 1.68143e-09)
(3.22286e-07 -4.12942e-10 2.00731e-09)
(7.13622e-08 2.05566e-09 -5.31166e-09)
(2.18929e-07 -1.61561e-09 5.22211e-12)
(3.81196e-07 -4.37883e-09 3.90521e-09)
(2.27793e-07 8.7618e-10 -4.38992e-10)
(2.20526e-07 7.78958e-10 7.41233e-10)
(2.418e-08 -8.45063e-10 -3.04959e-09)
(2.02127e-08 1.03028e-09 -2.53254e-09)
(2.94807e-07 2.58186e-09 -3.71004e-09)
(2.76697e-07 1.858e-10 1.55542e-11)
(2.13713e-07 -1.93914e-09 -8.20332e-10)
(3.66795e-08 3.88859e-10 -2.64481e-09)
(8.70627e-08 -7.69035e-10 2.88808e-10)
(3.06205e-07 -2.74037e-09 -1.6167e-09)
(1.62604e-07 -2.76607e-11 7.69447e-10)
(3.01752e-07 1.57397e-09 9.11815e-10)
(2.75678e-07 1.38478e-09 -4.98802e-10)
(2.13766e-07 1.0466e-09 7.3465e-10)
(2.28314e-07 2.0947e-09 7.56104e-10)
(1.24128e-07 7.70108e-10 4.18917e-10)
(2.06868e-07 1.29956e-09 -6.32315e-11)
(9.01044e-08 -1.7799e-09 -4.46638e-09)
(2.82731e-07 3.62844e-10 -5.81716e-10)
(1.92804e-07 -7.18374e-10 -1.9457e-09)
(2.12759e-07 9.87254e-10 1.09703e-09)
(2.14833e-07 4.02058e-10 -1.99408e-10)
(3.50033e-07 -9.16419e-10 3.70387e-10)
(2.65028e-07 8.82056e-10 -1.90472e-09)
(6.96349e-08 3.96011e-09 3.66864e-09)
(4.59964e-08 1.10804e-09 3.73184e-10)
(2.01259e-08 1.73162e-09 -2.00746e-09)
(2.30681e-07 5.98863e-09 1.06864e-08)
(2.83645e-07 9.05875e-11 -1.87625e-10)
(2.71433e-07 -1.67039e-09 1.20267e-09)
(1.94799e-07 1.72452e-09 4.31871e-10)
(3.07019e-08 -9.53065e-11 1.10831e-09)
(2.31849e-08 -4.0827e-10 2.64935e-09)
(1.83483e-07 -6.32557e-10 2.73121e-09)
(2.30062e-07 -5.33878e-10 2.1651e-09)
(3.01709e-07 -9.22634e-10 1.37566e-09)
(3.18448e-07 1.04701e-09 -1.4367e-11)
(2.00059e-07 -1.47191e-09 -1.50419e-09)
(3.28451e-07 1.20257e-09 2.22425e-10)
(3.77426e-07 2.4226e-09 2.14302e-09)
(3.2618e-08 -7.08965e-10 3.07647e-09)
(1.84696e-07 -4.72123e-10 8.56078e-10)
(7.50617e-08 7.34995e-10 3.84989e-09)
(9.75873e-08 -9.74574e-09 2.08516e-09)
(1.27129e-07 1.80163e-10 2.07847e-10)
(1.45333e-07 7.02447e-10 6.77363e-11)
(2.51989e-07 -8.60205e-11 3.45449e-11)
(2.00615e-08 -3.72868e-09 -1.37472e-09)
(3.44347e-07 2.18961e-09 -4.30635e-10)
(2.57367e-07 4.4286e-11 -4.56931e-10)
(2.08226e-07 1.11462e-09 5.19848e-10)
(2.06297e-07 2.12715e-09 3.32881e-10)
(1.69789e-07 -4.08108e-10 1.45064e-09)
(2.53653e-07 3.89633e-10 1.49582e-09)
(2.48962e-07 8.13239e-10 1.97642e-10)
(2.91134e-07 1.92928e-09 3.93647e-10)
(1.67761e-07 6.54312e-09 -5.17797e-09)
(2.61792e-07 9.48879e-10 -3.08721e-10)
(2.89903e-07 -4.89483e-09 -1.05678e-09)
(1.90738e-08 -1.24524e-09 1.3566e-09)
(2.95337e-07 -7.70179e-10 -6.3067e-10)
(1.9335e-07 3.3811e-09 -5.26045e-11)
(6.65259e-08 -1.93076e-09 5.39306e-09)
(1.75334e-07 1.33442e-09 -2.92577e-09)
(3.36677e-07 -3.43909e-10 -8.75864e-10)
(2.26736e-07 -5.90237e-10 1.42661e-09)
(1.21815e-07 3.02137e-10 -3.44426e-09)
(1.88267e-08 -1.71358e-09 -1.88787e-09)
(2.49728e-07 -1.04524e-09 -5.02606e-10)
(3.39751e-07 4.55475e-09 -4.73423e-09)
(2.33227e-07 -6.13906e-10 -5.96293e-10)
(1.90346e-07 1.09986e-10 1.17495e-09)
(5.93001e-08 2.68231e-09 2.66523e-09)
(2.51793e-07 9.28015e-11 -8.02851e-10)
(2.67311e-08 2.16945e-09 -3.40338e-09)
(1.71147e-07 2.50553e-10 -6.59822e-10)
(2.08663e-07 2.32576e-08 -7.45278e-09)
(2.4961e-07 -1.15894e-09 -9.71458e-10)
(9.10319e-08 -5.46155e-11 3.16077e-09)
(1.8632e-07 -2.22702e-09 -2.68995e-09)
(1.17911e-07 3.46576e-10 -1.57907e-09)
(4.90897e-08 2.86131e-09 2.44928e-09)
(4.44898e-07 4.60131e-10 1.49337e-09)
(2.04636e-07 2.6468e-10 1.01777e-09)
(1.84289e-08 6.58112e-10 1.80071e-09)
(2.74763e-07 -1.31107e-09 5.66278e-10)
(2.70404e-07 -4.31e-10 1.07912e-09)
(4.01439e-08 -9.33333e-11 -2.32613e-09)
(1.31266e-07 5.74314e-09 -4.04947e-11)
(1.01718e-07 3.66057e-09 2.66072e-09)
(1.8867e-07 7.73625e-10 7.95265e-10)
(2.49549e-07 1.96739e-10 4.87717e-10)
(3.51595e-08 -9.11305e-10 1.6167e-09)
(9.39522e-08 -3.09821e-09 -1.02894e-09)
(1.04959e-07 2.11947e-09 -9.19702e-11)
(1.78514e-07 2.20988e-09 5.02807e-10)
(3.22233e-07 3.10727e-10 8.30129e-10)
(2.41749e-08 1.27768e-09 -3.17754e-09)
(3.62318e-07 -1.75491e-09 1.99796e-09)
(2.36097e-07 3.87724e-09 -8.94035e-12)
(2.63059e-07 -1.71799e-10 1.82532e-09)
(1.14194e-07 4.89937e-09 -4.72261e-09)
(3.26406e-07 2.15557e-09 5.82303e-10)
(2.37302e-08 -2.41649e-10 -2.55567e-09)
(2.91966e-07 -8.1576e-10 -3.73134e-10)
(2.86673e-08 -4.6567e-10 -5.81083e-11)
(1.37914e-07 -4.05668e-09 1.28467e-09)
(2.25711e-07 -1.58174e-09 2.39139e-10)
(1.41397e-07 -4.15342e-09 -1.39379e-09)
(1.9935e-08 2.31562e-09 2.07798e-09)
(5.24612e-08 9.837e-10 -1.67067e-09)
(7.84792e-08 -4.10725e-09 2.68744e-09)
(1.35591e-07 2.64922e-09 -3.75689e-09)
(3.25787e-07 -1.7719e-10 -1.71726e-09)
(5.92121e-08 -1.33492e-09 1.59276e-11)
(1.39868e-07 4.54625e-09 -2.62566e-09)
(2.25689e-07 -1.24385e-08 -2.40572e-08)
(2.07649e-07 4.02239e-10 1.03501e-09)
(3.00777e-08 1.91495e-09 3.36941e-10)
(2.29465e-07 2.97561e-10 -2.2099e-09)
(1.47373e-07 1.59916e-08 -6.3034e-09)
(1.96211e-07 -1.44067e-09 -1.43324e-10)
(1.02627e-07 -3.01542e-10 -2.33384e-09)
(1.71737e-07 5.61256e-10 1.23415e-09)
(1.09519e-07 -4.50371e-09 -3.08061e-09)
(1.62762e-07 6.2065e-10 9.01533e-10)
(1.55535e-07 3.73734e-10 -5.1327e-10)
(7.47596e-08 3.43123e-09 -6.66867e-09)
(2.87906e-07 -8.41804e-11 7.2169e-11)
(7.11818e-08 3.27303e-09 3.63062e-09)
(1.61541e-08 2.45733e-09 9.2576e-10)
(3.15119e-07 1.71872e-09 -5.64117e-10)
(1.82673e-07 3.79225e-10 2.51679e-10)
(2.9631e-07 2.1491e-09 -7.83868e-10)
(2.29759e-07 3.00994e-09 -1.19046e-09)
(4.47948e-07 -3.43098e-09 9.03642e-10)
(1.41328e-07 3.86273e-09 -4.87486e-10)
(3.99914e-07 -3.10907e-09 1.16579e-09)
(1.00587e-07 -3.09924e-09 4.3741e-09)
(1.48125e-07 4.65762e-10 6.02129e-11)
(3.08711e-07 -3.70231e-09 -3.1902e-09)
(3.35396e-08 8.244e-10 -4.64276e-09)
(3.00954e-07 7.97683e-10 -1.53704e-09)
(1.17316e-07 1.66815e-10 3.74635e-09)
(3.0946e-08 -2.22963e-09 -2.19991e-09)
(2.77621e-07 -1.55155e-09 -5.60207e-10)
(6.4455e-08 -1.79465e-09 1.58915e-09)
(2.03488e-07 6.48763e-10 1.37109e-10)
(2.13008e-07 6.04665e-11 1.1466e-09)
(3.75295e-07 1.8008e-09 1.24395e-09)
(9.83482e-08 -4.34917e-09 -4.74379e-09)
(2.81346e-07 2.6528e-09 4.81038e-10)
(1.55516e-07 -2.29431e-09 1.95943e-09)
(3.08288e-07 7.29577e-10 4.17499e-10)
(3.12684e-07 -1.24734e-11 5.21981e-10)
(2.75099e-07 1.18417e-09 1.19462e-09)
(1.62758e-07 2.62848e-10 2.63893e-11)
(4.99856e-08 -2.74799e-09 -2.2722e-09)
(7.18162e-08 3.52576e-10 -7.31762e-10)
(1.74977e-07 -2.42616e-11 2.29915e-11)
(2.8512e-07 1.20108e-09 2.71833e-09)
(2.94323e-08 -2.0389e-09 -9.77335e-10)
(2.4411e-07 5.44776e-12 6.16875e-10)
(4.65849e-07 2.88776e-10 6.45564e-10)
(3.4433e-07 -2.27397e-09 -5.20462e-10)
(3.68401e-07 -2.96305e-09 -4.15112e-10)
(2.51954e-07 -4.24017e-10 -3.23138e-09)
(2.08877e-08 2.08578e-09 1.82957e-09)
(2.24508e-07 8.34616e-10 -2.50429e-10)
(1.50033e-07 -1.46522e-09 -2.00555e-09)
(2.63988e-07 3.89036e-10 8.76913e-10)
(1.63323e-07 3.40989e-10 -7.72704e-11)
(3.67698e-08 2.63555e-09 -2.09281e-10)
(2.04877e-07 5.90491e-10 6.75398e-10)
(1.53835e-07 3.72887e-09 3.72869e-09)
(2.46129e-07 -6.13629e-10 4.21579e-10)
(2.64813e-07 -1.9225e-09 6.63957e-11)
(2.00333e-07 -2.24648e-09 -6.38032e-10)
(1.41653e-08 1.26672e-09 -1.67154e-09)
(2.07812e-08 -1.25841e-09 -2.03505e-09)
(1.83439e-07 -5.57755e-10 1.78061e-10)
(3.03226e-07 -1.76626e-09 -4.82882e-10)
(2.24626e-07 1.39428e-09 1.22e-09)
(1.81602e-07 -1.42169e-10 1.44064e-09)
(1.63045e-07 -2.4528e-09 9.69191e-10)
(2.55977e-07 -1.82261e-09 -9.14993e-10)
(2.83507e-07 2.07908e-10 8.89261e-10)
(2.01381e-08 1.75606e-09 4.06787e-10)
(1.45674e-07 -4.06996e-10 4.17585e-10)
(1.74053e-07 -1.90778e-08 -4.28356e-10)
(4.78193e-08 -7.92419e-10 2.47989e-09)
(8.68644e-08 -5.53585e-09 1.42501e-09)
(3.07614e-07 -9.52261e-10 -1.90536e-09)
(2.13083e-07 -2.6756e-09 1.35876e-09)
(1.98153e-07 8.69351e-10 -1.49364e-10)
(2.38938e-07 -1.50326e-09 1.14112e-09)
(1.41583e-07 -4.84655e-09 1.50992e-09)
(3.25955e-07 4.14075e-10 -4.80352e-10)
(1.82563e-07 1.87754e-09 -5.29978e-09)
(4.22766e-07 2.83474e-09 -7.60169e-11)
(2.16526e-07 9.01803e-10 -1.33339e-10)
(2.35907e-07 -1.41042e-09 4.01918e-10)
(3.109e-07 -2.06087e-09 4.00307e-10)
(4.93264e-08 -5.22008e-10 2.41503e-09)
(5.36247e-07 -3.26778e-09 7.56604e-10)
(3.47166e-08 1.02004e-09 -1.40218e-09)
(1.48938e-07 -1.45044e-08 8.54867e-09)
(1.19555e-07 3.71878e-09 2.97518e-09)
(1.6164e-07 -3.19585e-09 -1.6427e-08)
(2.15848e-07 -1.24076e-09 -9.41169e-10)
(2.90718e-07 -4.70703e-08 -1.04277e-08)
(1.37382e-07 1.22365e-10 -3.80528e-10)
(3.1905e-07 -5.33933e-10 -3.85785e-10)
(3.37642e-07 1.21349e-09 -3.96425e-10)
(2.11207e-07 -3.48421e-10 1.37992e-09)
(3.62678e-08 2.43319e-10 -6.12349e-10)
(1.18484e-07 -4.46609e-09 -2.99306e-09)
(2.10286e-07 -3.94251e-09 -2.99539e-08)
(2.12712e-07 4.20511e-10 1.00617e-10)
(1.0233e-07 -2.16226e-09 -4.79411e-10)
(2.18034e-07 -2.10513e-08 -7.30861e-09)
(2.3717e-07 -4.84824e-09 6.33226e-09)
(3.13751e-07 2.66009e-09 2.22635e-09)
(4.55986e-08 -9.25217e-10 1.58261e-09)
(5.55274e-08 -2.70145e-09 1.55452e-09)
(2.81768e-08 1.29206e-10 -2.50451e-10)
(2.04258e-08 1.41653e-10 -1.56981e-09)
(4.56395e-08 -1.44745e-10 2.45128e-10)
(2.21665e-07 -1.48978e-08 8.89081e-09)
(1.83597e-07 -4.06631e-10 1.08176e-09)
(1.94382e-08 -6.4822e-10 2.69447e-09)
(2.13781e-08 1.52643e-09 2.37555e-09)
(3.4609e-07 9.03476e-10 2.18615e-11)
(1.6615e-07 -2.17996e-08 1.4799e-08)
(4.84052e-08 2.07913e-09 8.25029e-10)
(2.28374e-07 4.01341e-10 -5.64598e-10)
(1.09612e-07 -1.04879e-09 -1.59963e-09)
(2.0477e-07 2.3201e-10 1.84064e-09)
(4.58508e-08 2.35091e-09 -1.2985e-09)
(9.56096e-08 2.9547e-09 -1.11382e-09)
(1.96016e-07 -2.07805e-09 1.74328e-10)
(2.67113e-07 3.45473e-10 -9.47704e-10)
(3.9993e-07 6.66284e-10 -2.0723e-09)
(4.46093e-08 3.66294e-09 -1.25206e-09)
(2.54328e-08 -1.9813e-09 1.23419e-09)
(2.01612e-07 -2.88166e-08 -2.13759e-08)
(2.89187e-08 -3.743e-09 1.04073e-10)
(3.13314e-07 -2.1131e-09 -2.59888e-09)
(3.00766e-08 1.64798e-09 -3.73429e-09)
(1.51114e-07 -6.28243e-10 3.16539e-09)
(3.028e-07 -1.25883e-09 -3.4923e-10)
(4.26499e-07 -1.29713e-09 2.86842e-09)
(6.12197e-08 8.83042e-10 -1.22874e-09)
(1.42609e-07 -5.27121e-10 -1.43366e-09)
(3.99762e-08 1.47214e-09 -1.61007e-09)
(2.98837e-08 3.51238e-09 -1.31304e-09)
(2.58088e-07 -3.01662e-10 -1.14777e-09)
(1.53313e-08 -1.28996e-09 -1.98241e-09)
(1.78553e-07 -1.04539e-09 -7.39532e-10)
(6.35362e-08 1.32709e-09 -2.96328e-09)
(3.25542e-07 -2.18142e-09 -4.4911e-10)
(2.28298e-07 -8.19895e-10 -2.75599e-10)
(1.9997e-08 -5.3527e-10 3.15539e-09)
(1.3889e-07 -6.72449e-09 4.76655e-10)
(2.48503e-07 5.10498e-10 8.26443e-10)
(3.2485e-08 -1.53224e-09 7.63847e-11)
(2.86268e-07 -1.109e-09 -1.02435e-09)
(8.18894e-08 -3.18246e-09 5.08806e-09)
(2.19125e-07 5.65008e-10 -9.05628e-11)
(2.2377e-07 -9.42635e-10 -8.24989e-10)
(5.72888e-08 1.67975e-09 1.28769e-09)
(2.19889e-08 9.38195e-10 -2.86059e-09)
(9.59216e-08 1.8347e-09 -7.71955e-10)
(2.43624e-07 3.82586e-08 8.24734e-09)
(2.31138e-07 8.85537e-10 9.13037e-10)
(7.98558e-08 -3.51165e-09 3.86977e-09)
(1.88537e-07 7.22108e-10 2.89585e-09)
(2.5475e-08 -9.73541e-10 6.20934e-10)
(1.98342e-07 -8.24758e-10 -9.7084e-10)
(2.40435e-08 -3.9082e-10 -1.73391e-09)
(3.32228e-07 -1.90248e-09 -6.15727e-10)
(3.03374e-07 -6.6803e-10 6.40169e-10)
(2.17824e-07 -2.20282e-10 -2.60622e-12)
(1.49859e-08 1.51074e-09 6.41483e-11)
(3.42785e-07 -1.11172e-09 1.25154e-09)
(1.59477e-07 1.17687e-09 -1.30911e-11)
(3.56012e-07 8.34203e-10 2.24873e-10)
(6.48967e-08 -5.84286e-10 -2.4918e-10)
(2.22545e-07 -2.68094e-08 1.37866e-08)
(2.62528e-07 -2.60267e-09 -4.76156e-10)
(6.82945e-08 8.46843e-10 -7.24598e-10)
(2.47674e-07 1.13428e-09 3.83187e-10)
(2.1005e-07 3.86963e-09 -3.95545e-08)
(1.83735e-07 4.57873e-10 -1.15266e-09)
(3.39217e-08 8.76213e-10 -1.83853e-09)
(1.04857e-07 -1.0082e-09 -5.40535e-09)
(1.87456e-07 -1.43574e-10 -1.62492e-10)
(2.19749e-07 2.19e-09 2.01832e-10)
(3.32425e-08 1.66297e-09 6.46559e-10)
(2.21851e-07 2.50895e-09 -3.17769e-09)
(1.62147e-07 -1.75738e-09 -5.01614e-09)
(2.56235e-08 -2.24035e-09 1.47739e-09)
(1.99997e-07 5.58336e-11 -4.71078e-10)
(1.58313e-07 -1.98261e-09 1.54114e-08)
(3.29065e-07 3.63174e-09 -4.9597e-09)
(1.98307e-07 -3.55279e-10 -5.71396e-11)
(1.79479e-07 -1.1223e-10 5.6815e-10)
(3.05789e-07 -1.06702e-09 -4.84695e-10)
(2.57887e-07 1.47507e-09 2.10448e-10)
(7.28799e-08 1.93311e-09 6.33526e-10)
(7.45162e-08 -3.67483e-09 -3.55075e-09)
(3.70389e-07 1.96124e-09 8.91814e-10)
(2.24777e-07 -1.96615e-08 1.828e-08)
(2.12235e-07 -2.11605e-09 9.68669e-10)
(1.90907e-07 -2.23e-09 9.51784e-10)
(1.30303e-07 2.96045e-09 1.46192e-09)
(3.22194e-07 -5.22935e-10 2.25542e-09)
(2.01043e-07 -1.01529e-10 -1.1389e-09)
(1.84898e-07 -7.70058e-10 -2.38168e-09)
(2.30336e-07 4.25223e-09 7.43797e-10)
(4.43798e-08 4.13418e-10 -2.78657e-09)
(1.74899e-07 1.41584e-09 -1.09142e-09)
(4.08175e-08 -1.06616e-09 -3.03665e-09)
(3.11748e-07 -1.29989e-09 2.0655e-09)
(3.1887e-07 -3.76377e-10 -1.77972e-10)
(1.69996e-07 2.81289e-09 -4.12529e-09)
(1.63871e-07 1.32716e-09 -8.57819e-10)
(1.8379e-08 1.9172e-09 -3.77207e-10)
(1.07838e-07 -5.64484e-10 -8.53225e-10)
(7.78365e-08 -2.68222e-09 -3.34911e-09)
(2.58654e-07 -3.75193e-10 -1.62286e-09)
(2.31805e-07 -1.75141e-09 -7.55134e-10)
(2.20559e-07 -2.01669e-08 1.27596e-08)
(3.08905e-07 -1.23845e-09 2.32868e-09)
(8.40685e-08 -2.44804e-09 -1.97791e-09)
(1.3657e-07 -3.42844e-09 1.06691e-08)
(2.47076e-07 -2.43185e-09 3.68887e-09)
(2.85203e-08 -2.22179e-09 -1.52504e-10)
(2.38028e-07 -1.35366e-09 -3.75226e-10)
(5.55119e-08 1.57956e-09 -6.25207e-11)
(2.06826e-07 -6.3232e-10 1.88484e-09)
(3.32917e-08 4.72584e-09 -3.29088e-10)
(3.53103e-07 9.94145e-10 -1.79774e-09)
(2.0396e-07 -8.71436e-09 5.36649e-09)