/*--------------------------------*- C++ -*----------------------------------*\
| =========                 |                                                 |
| \\      /  F ield         | OpenFOAM: The Open Source CFD Toolbox           |
|  \\    /   O peration     | Version:  2406                                  |
|   \\  /    A nd           | Website:  www.openfoam.com                      |
|    \\/     M anipulation  |                                                 |
\*---------------------------------------------------------------------------*/
FoamFile
{
    version     2.0;
    format      ascii;
    arch        "LSB;label=32;scalar=64";
    class       volVectorField;
    location    "40";
    object      momentum:angularMomentum;
}
// * * * * * * * * * * * * * * * * * * * * * * * * * * * * * * * * * * * * * //

dimensions      [1 1 -1 0 0 0 0];

internalField   nonuniform List<vector> 
59516
(
(-1.26638e-10 -1.13592e-09 2.27995e-07)
(6.26479e-10 -4.12764e-10 1.70859e-07)
(-6.78073e-10 1.82462e-09 2.07867e-07)
(-3.40978e-09 -3.36569e-10 1.74959e-07)
(-7.98729e-09 5.21336e-10 2.00205e-07)
(-5.20271e-09 2.77071e-09 5.03647e-08)
(-1.72832e-09 -2.46691e-09 2.12483e-07)
(-5.96589e-10 -1.43928e-09 2.00941e-07)
(-1.33825e-09 1.65012e-10 1.5996e-07)
(3.21916e-09 1.57619e-09 8.27094e-08)
(-2.72075e-09 -5.0114e-10 2.07371e-07)
(-4.65941e-09 -3.8821e-09 1.03375e-07)
(-2.44224e-09 -1.65934e-09 3.28278e-07)
(8.27827e-11 -1.67034e-10 1.6193e-08)
(3.48541e-10 -9.10805e-09 1.57286e-07)
(-2.33832e-09 6.196e-09 8.7449e-08)
(-1.00099e-09 -5.6213e-10 2.64503e-07)
(-1.27965e-08 -3.62795e-09 1.60087e-07)
(-1.58547e-08 -3.89298e-09 3.30996e-07)
(-9.77526e-11 1.43196e-09 3.66754e-07)
(-2.32355e-09 1.11137e-09 1.00504e-07)
(8.46961e-10 1.00126e-09 3.18651e-07)
(-1.75425e-09 -1.66206e-09 3.51009e-07)
(9.53029e-10 5.95261e-10 3.61208e-08)
(9.64037e-10 1.82222e-09 3.09756e-07)
(-8.07164e-10 4.75162e-09 2.07675e-07)
(-7.02627e-10 3.6946e-09 5.41779e-08)
(-5.71986e-09 -2.54993e-09 7.45055e-08)
(-5.21079e-09 -2.13182e-09 1.45987e-07)
(1.77159e-09 1.41022e-09 1.40816e-08)
(-3.75934e-08 2.11128e-09 1.89431e-07)
(-5.30736e-09 4.04376e-09 8.41162e-08)
(-1.01573e-09 -4.47395e-10 1.75979e-07)
(-3.55133e-09 -1.55082e-09 1.77824e-07)
(-5.57009e-09 -1.86426e-10 1.33299e-07)
(-3.69249e-10 4.23553e-10 3.99852e-07)
(-2.03124e-09 1.07393e-09 1.36386e-08)
(-1.29443e-08 -4.13031e-09 1.31919e-07)
(-9.73501e-09 1.25563e-09 2.68967e-07)
(1.97211e-09 4.56745e-10 2.77857e-07)
(3.52131e-10 -1.77817e-09 2.62733e-07)
(-3.12956e-08 6.85939e-11 4.06504e-07)
(-9.03018e-09 1.89771e-09 3.42903e-07)
(-7.38964e-10 4.38475e-10 1.13402e-07)
(-7.05058e-09 1.51768e-09 2.65796e-07)
(2.75376e-09 7.81478e-10 1.05533e-07)
(-1.10209e-08 2.53491e-10 3.25678e-07)
(-5.91456e-09 9.93264e-10 2.52087e-07)
(-3.44397e-08 3.12505e-09 2.51852e-07)
(-1.25243e-08 1.16464e-10 2.39792e-07)
(-2.81955e-08 8.28251e-10 1.63906e-07)
(-7.04766e-09 -3.41161e-09 7.92295e-08)
(7.9671e-10 -6.4281e-09 3.20637e-07)
(-8.69047e-10 8.71911e-10 3.04838e-07)
(-4.85641e-09 1.15801e-09 8.33265e-08)
(-4.21796e-09 6.56812e-10 2.46931e-07)
(-1.63245e-08 -8.49211e-11 2.02857e-07)
(-7.68182e-09 -2.87894e-09 8.10606e-08)
(-2.42826e-10 -1.39077e-10 2.02548e-07)
(-1.05461e-08 -4.25026e-10 1.45588e-07)
(3.06572e-12 6.59326e-10 2.08026e-07)
(-1.20016e-09 1.67329e-09 1.59459e-08)
(-3.31717e-10 8.413e-10 2.59236e-07)
(-4.1664e-09 5.52556e-10 3.36125e-07)
(-1.34623e-09 8.32252e-10 2.97814e-07)
(-7.86331e-09 2.50837e-10 2.14264e-07)
(1.46731e-10 2.14818e-09 1.89932e-08)
(-1.77606e-10 4.41484e-10 6.8582e-08)
(-3.72158e-08 6.12298e-10 1.9824e-07)
(-2.78467e-09 -1.21573e-09 1.69741e-07)
(-9.30235e-10 -1.29125e-09 5.43429e-08)
(-9.71645e-10 -6.15966e-10 1.55187e-07)
(3.70776e-09 -1.48752e-09 2.43066e-08)
(-4.87309e-10 -3.4186e-10 1.86153e-07)
(-1.87919e-10 -4.92486e-11 3.62148e-07)
(-5.27668e-09 3.0373e-10 3.58617e-07)
(-3.95358e-09 4.0765e-11 2.12757e-07)
(-3.05442e-10 2.60604e-10 2.25518e-07)
(3.50043e-09 1.97032e-09 8.82428e-08)
(-9.57105e-09 9.87372e-10 1.91922e-07)
(-3.48258e-09 7.90022e-11 5.29555e-08)
(-7.56038e-09 5.56682e-10 1.70617e-07)
(-7.06698e-09 6.162e-10 1.82415e-07)
(-2.40682e-09 1.28546e-09 1.8997e-08)
(-9.32174e-09 1.19462e-09 2.1424e-07)
(4.42384e-10 1.41547e-09 3.69359e-07)
(6.42375e-10 1.11163e-09 3.2859e-08)
(2.49564e-09 5.83052e-10 5.0294e-07)
(-4.38998e-09 -2.4246e-09 1.13938e-07)
(-1.52542e-08 -3.85351e-09 1.66986e-07)
(-1.58353e-08 -5.7408e-11 1.83389e-07)
(-1.75707e-09 1.67912e-09 1.88485e-07)
(-1.12259e-10 1.57057e-10 2.52242e-07)
(-2.45003e-10 1.66196e-09 1.82293e-07)
(-3.31025e-10 3.36425e-10 1.78761e-07)
(-1.88554e-08 -7.81059e-11 1.83461e-07)
(-6.51889e-10 -5.0757e-10 1.24552e-07)
(3.30373e-09 6.61134e-09 8.77871e-08)
(-4.11975e-09 -1.79766e-09 1.15998e-07)
(1.88625e-09 1.57129e-09 2.06982e-07)
(-2.06616e-09 1.60418e-09 6.43562e-08)
(3.06962e-09 1.53172e-09 2.76151e-08)
(3.0751e-09 1.61716e-09 2.43887e-08)
(-3.14178e-09 3.6327e-09 8.79187e-08)
(1.15884e-09 -1.07391e-10 2.35521e-07)
(-3.16958e-10 5.47509e-11 1.62008e-07)
(2.65544e-09 -4.7029e-09 5.76793e-08)
(-8.56694e-10 -5.60824e-10 1.40652e-07)
(-6.51447e-10 1.07977e-09 1.79445e-07)
(-4.26039e-09 6.72363e-09 1.94906e-07)
(-4.17824e-08 -5.25097e-10 2.80251e-07)
(3.3921e-09 -3.06658e-09 4.5002e-08)
(-7.32982e-09 9.44247e-09 1.93551e-07)
(-3.60281e-08 -8.37943e-11 2.19227e-07)
(2.34625e-11 -1.28687e-10 2.18434e-07)
(1.2848e-09 -1.6035e-09 1.40813e-07)
(-4.46346e-09 -2.66339e-09 1.30656e-07)
(-5.57842e-10 -6.93256e-10 1.44849e-07)
(-3.62748e-10 -8.90844e-10 1.91615e-08)
(-1.76387e-09 1.9148e-09 2.61647e-07)
(1.30139e-09 3.88305e-10 3.92914e-07)
(-1.74982e-10 3.72571e-10 1.72075e-07)
(6.24015e-10 5.2495e-10 1.58695e-07)
(-6.98422e-10 4.30751e-10 1.78605e-07)
(-1.7892e-08 1.21617e-09 1.32978e-07)
(-4.8064e-09 1.38476e-10 1.44574e-07)
(-2.30959e-09 -1.03118e-09 3.73388e-08)
(-2.02644e-08 3.26467e-09 2.12069e-07)
(-2.37295e-08 5.57809e-09 1.63206e-07)
(4.46308e-10 -1.75583e-10 1.54117e-07)
(5.87332e-10 -7.81277e-10 2.72235e-07)
(4.53089e-09 5.67108e-09 3.29648e-07)
(-5.61969e-10 -2.04556e-09 2.36555e-08)
(5.67105e-10 9.93401e-10 2.55582e-07)
(3.53493e-09 1.08663e-09 3.21886e-07)
(-2.94303e-09 1.90997e-09 2.00867e-07)
(-2.18792e-08 1.99235e-09 1.51853e-07)
(6.57251e-10 1.27281e-09 3.17058e-07)
(-4.84075e-10 3.62936e-09 5.41105e-08)
(-1.55319e-09 1.46707e-09 1.62287e-07)
(-1.75738e-09 3.88664e-09 7.91089e-08)
(-7.58737e-10 -6.01519e-10 3.17542e-07)
(-7.05059e-10 -1.23787e-09 1.44588e-08)
(-4.32238e-10 1.47289e-09 1.52415e-07)
(-5.08189e-10 4.47278e-10 2.10005e-07)
(-2.60358e-09 1.50462e-09 2.83496e-07)
(-6.40036e-09 1.88628e-09 2.03343e-07)
(-4.12247e-09 2.10247e-09 2.07829e-07)
(9.77311e-10 -1.82001e-09 6.40368e-08)
(-2.88432e-10 2.21439e-09 2.1065e-07)
(1.74882e-10 -2.5828e-09 3.25225e-07)
(2.5978e-10 2.01822e-09 5.4673e-08)
(2.22396e-09 2.28343e-09 3.80292e-07)
(9.59998e-10 3.34393e-10 2.17264e-07)
(-9.71713e-10 -3.5245e-09 1.62699e-07)
(-1.45591e-09 8.51483e-10 1.53023e-08)
(-7.85581e-12 -3.96951e-10 2.82726e-07)
(-2.87078e-09 2.06242e-09 3.35885e-07)
(-1.6191e-09 8.95477e-10 1.31921e-07)
(-2.38971e-09 -1.69393e-09 1.6497e-08)
(3.90159e-09 3.36571e-09 9.13604e-08)
(6.4148e-09 -3.53132e-09 1.1466e-07)
(-7.41044e-10 1.61339e-09 4.13641e-08)
(-2.22643e-10 -4.51563e-10 2.34406e-08)
(4.88196e-09 1.70301e-10 1.66664e-07)
(-1.8992e-09 1.05325e-09 3.20673e-07)
(1.98419e-09 -8.09161e-11 1.5983e-07)
(-9.31586e-10 -2.77981e-10 2.72949e-07)
(1.08176e-09 2.07511e-09 1.78805e-08)
(-3.18687e-10 -7.938e-10 2.14363e-07)
(-1.4143e-09 -1.1836e-09 8.90776e-08)
(-1.14024e-09 8.86413e-10 6.92879e-08)
(-1.31885e-11 -3.10419e-09 1.09248e-07)
(5.26245e-10 -8.01229e-10 1.52122e-07)
(8.89348e-10 1.22216e-09 8.79404e-08)
(-1.60301e-08 -1.89142e-09 4.5387e-07)
(-1.49203e-09 4.03729e-10 2.43031e-07)
(-1.15759e-08 1.19161e-09 3.097e-07)
(1.02517e-09 -7.38064e-09 1.52703e-07)
(7.39826e-10 4.50462e-10 6.46722e-08)
(-2.10229e-09 -3.8411e-09 3.0731e-07)
(1.17546e-09 4.02519e-09 4.4279e-08)
(-1.09011e-09 -2.21703e-09 3.10257e-08)
(9.91271e-10 2.66126e-09 1.07924e-07)
(3.12384e-10 -5.44702e-10 1.99062e-07)
(-6.2526e-10 1.13753e-09 9.98598e-08)
(-3.67486e-09 7.99656e-10 4.75609e-08)
(1.49003e-10 2.31685e-10 2.10371e-08)
(-1.68705e-10 3.96737e-11 1.9337e-07)
(3.50871e-09 1.96204e-09 2.30486e-07)
(-3.35972e-09 -4.15602e-10 1.58768e-07)
(-2.04279e-09 -6.85342e-09 1.18686e-07)
(-5.42211e-10 -5.02025e-10 2.12196e-07)
(2.89653e-09 -2.50589e-09 9.7268e-08)
(-4.25514e-10 1.76447e-10 3.38626e-07)
(4.20546e-10 7.39243e-10 2.9576e-08)
(1.33756e-09 2.49311e-10 1.00213e-07)
(4.16261e-10 -1.5589e-09 5.87825e-08)
(-7.90488e-09 -4.09346e-10 1.89153e-07)
(8.86744e-10 -8.13872e-10 2.6327e-07)
(-1.64625e-09 -2.13537e-09 7.91668e-08)
(-6.13579e-10 -4.32698e-10 1.86189e-07)
(7.31689e-10 3.42955e-09 3.18891e-07)
(1.41663e-09 -1.61809e-09 1.66072e-08)
(1.83107e-09 1.6737e-09 2.23198e-07)
(-1.6125e-10 -3.2184e-10 2.38851e-07)
(1.07473e-10 -2.62588e-10 3.38928e-07)
(8.7704e-10 -1.07334e-09 1.96703e-07)
(1.70992e-10 -5.66431e-10 1.87902e-08)
(4.63424e-09 2.35983e-09 3.07105e-07)
(-5.76503e-10 5.76256e-09 6.24171e-08)
(-4.10778e-09 8.57362e-10 2.53396e-08)
(-1.66598e-09 1.56626e-09 2.32751e-07)
(-4.66788e-10 2.35838e-09 9.81009e-08)
(-1.83018e-09 -2.81815e-09 2.98281e-07)
(-1.94032e-10 -4.51881e-10 2.83699e-07)
(-1.74433e-09 8.44827e-10 2.73109e-07)
(-1.34188e-09 1.1443e-09 2.06857e-07)
(-2.76231e-09 4.90028e-09 8.56841e-08)
(1.13292e-09 1.59311e-10 2.18013e-07)
(-2.38068e-09 -5.82112e-09 1.22824e-07)
(-3.03468e-10 7.3502e-10 1.97767e-07)
(-8.88479e-10 -1.0013e-09 1.77069e-07)
(8.17587e-10 -1.18631e-09 7.70873e-08)
(-9.51666e-10 -6.33819e-10 2.91078e-07)
(1.30654e-09 6.46238e-10 3.0423e-07)
(-1.20111e-09 -1.23384e-09 3.28346e-08)
(-3.72309e-09 8.42084e-10 6.74274e-08)
(-2.74818e-11 1.00589e-09 1.95763e-07)
(-4.46966e-09 7.68886e-09 1.21038e-07)
(5.48246e-10 8.79374e-10 2.3794e-07)
(-5.29749e-10 3.35457e-10 1.7646e-07)
(-1.57439e-09 -1.14341e-09 3.0956e-07)
(-1.35228e-09 -2.29104e-09 2.7707e-08)
(-1.3174e-09 -1.16928e-09 3.2257e-08)
(-1.76116e-09 1.87157e-11 4.04762e-08)
(4.12991e-10 -7.53285e-10 1.12104e-07)
(-2.54746e-09 -5.55051e-10 1.78047e-07)
(-4.13295e-09 9.01451e-10 4.16059e-07)
(2.85802e-09 -4.17195e-10 8.88992e-08)
(8.58546e-10 3.62438e-10 2.43286e-07)
(2.35053e-09 1.65764e-09 1.94253e-08)
(1.49854e-09 1.10065e-09 1.12807e-07)
(2.63543e-09 1.57872e-09 2.78642e-08)
(6.6816e-10 2.24852e-10 1.59909e-07)
(-5.00296e-10 -8.96625e-10 1.56131e-07)
(-1.1158e-09 2.40037e-10 1.96503e-07)
(-1.6481e-09 4.31024e-09 1.90674e-07)
(2.52355e-11 9.56287e-11 2.74634e-07)
(-7.80633e-10 -4.99588e-10 2.0297e-07)
(2.46932e-09 -4.59043e-10 3.77806e-07)
(-9.76081e-10 2.92035e-10 2.13412e-07)
(7.01419e-10 3.517e-10 1.86944e-07)
(3.22611e-10 1.12775e-09 2.81578e-07)
(-1.13575e-09 2.58326e-09 2.82177e-07)
(-5.79229e-10 1.10254e-09 2.97981e-07)
(-5.31781e-10 -2.52044e-11 1.14556e-07)
(-3.15986e-09 6.55676e-10 2.82619e-07)
(2.37228e-09 3.98282e-09 8.30729e-08)
(-4.87753e-10 3.57152e-09 1.00297e-07)
(-1.84853e-09 9.37552e-10 2.20415e-07)
(-6.57462e-10 1.25585e-09 2.59381e-07)
(6.39386e-09 1.62357e-09 2.42155e-07)
(4.28925e-10 1.03238e-09 2.78907e-07)
(1.64979e-09 1.43482e-10 7.5919e-08)
(8.1695e-11 -5.20655e-09 1.09879e-07)
(-7.82499e-10 -1.78924e-09 3.02009e-07)
(4.60485e-09 3.63459e-10 2.18804e-07)
(-7.61255e-10 -1.17645e-09 6.31963e-08)
(-5.36283e-10 2.06251e-09 7.61657e-08)
(-3.46785e-09 3.70772e-09 1.66745e-07)
(-6.9175e-10 -4.48282e-10 1.83082e-07)
(-4.44631e-09 5.63861e-09 3.13184e-07)
(-9.47878e-10 2.31737e-09 1.52065e-07)
(-2.37859e-09 4.90695e-11 3.3041e-07)
(1.92777e-10 5.41438e-09 1.9415e-07)
(-1.1795e-09 -2.48004e-09 2.01293e-08)
(1.26021e-09 1.42932e-09 2.95432e-07)
(2.50247e-09 -1.90093e-09 2.96694e-08)
(2.29036e-09 1.21732e-09 5.36479e-08)
(-1.82708e-09 -1.03051e-09 3.43216e-07)
(-5.76723e-10 4.6342e-10 2.5128e-07)
(-3.83805e-09 2.00181e-09 2.85179e-08)
(-5.28857e-10 -2.44968e-09 3.01579e-07)
(-2.26236e-09 -4.01342e-09 2.49406e-07)
(-8.75193e-10 9.72899e-10 2.46524e-07)
(9.27379e-10 -6.92437e-10 3.15575e-07)
(2.03576e-09 -2.02902e-09 2.38957e-08)
(-4.62334e-10 9.42277e-10 2.71964e-07)
(-5.03851e-10 -6.1452e-10 1.43773e-07)
(-4.18886e-10 -8.0063e-10 1.56019e-07)
(-1.76322e-09 -7.41697e-11 2.53941e-07)
(-1.65072e-09 1.1441e-09 1.70183e-07)
(-8.49025e-10 -6.70195e-10 1.79852e-07)
(2.1735e-10 -1.78184e-09 2.62088e-07)
(1.26356e-11 2.29778e-09 3.97101e-08)
(7.36439e-10 -1.91616e-09 2.78905e-07)
(1.1041e-09 9.53181e-10 1.91157e-07)
(-1.12696e-09 -1.22662e-09 3.50186e-07)
(-7.51257e-10 -8.22069e-10 2.61738e-07)
(1.71227e-09 -1.6485e-09 3.11427e-07)
(2.34866e-09 -2.8797e-09 1.39427e-07)
(-6.28143e-10 -1.30323e-09 2.02788e-08)
(9.26042e-10 5.55048e-10 3.64973e-08)
(-3.78788e-09 1.77368e-09 5.07388e-07)
(-2.70381e-09 1.10229e-09 1.87986e-08)
(-2.21711e-09 -2.15741e-09 1.75959e-07)
(-1.42618e-09 4.16599e-09 7.48617e-08)
(1.59041e-10 -1.54955e-09 3.09054e-07)
(-9.84677e-10 -5.55937e-10 3.65556e-07)
(-2.47875e-10 9.3711e-10 3.1293e-07)
(2.41718e-09 1.30448e-09 1.25081e-07)
(7.432e-09 -7.11712e-11 2.99414e-07)
(1.51758e-10 7.34195e-09 6.93832e-08)
(7.89659e-10 -2.71971e-09 8.8062e-08)
(-1.76441e-10 4.26081e-10 1.96999e-07)
(8.25987e-10 -2.19655e-09 1.58424e-07)
(-3.19546e-08 -3.87003e-09 2.69479e-07)
(4.96167e-10 -4.49459e-09 1.94309e-07)
(-7.2791e-10 -7.18082e-11 6.56633e-08)
(3.48844e-09 -2.03081e-10 1.04819e-07)
(-1.06776e-09 -3.37504e-09 2.0897e-07)
(-1.40974e-10 -5.40601e-11 2.10011e-07)
(4.22921e-10 -1.67937e-09 4.07241e-07)
(-1.10066e-09 6.58704e-10 2.16761e-07)
(3.20897e-10 3.89704e-09 4.84416e-07)
(-9.89087e-09 -1.26598e-09 1.66963e-07)
(-3.10425e-09 1.11082e-10 3.39214e-07)
(-2.22234e-09 1.68911e-09 2.71173e-07)
(7.21378e-10 2.82492e-10 1.9484e-07)
(2.07726e-09 -6.04317e-11 3.32895e-07)
(-4.74746e-09 -4.24781e-09 1.05384e-07)
(2.97475e-09 -1.18111e-09 2.37238e-08)
(2.13248e-09 -3.20806e-12 2.92751e-07)
(1.72687e-09 3.91208e-09 5.97036e-08)
(3.9212e-11 -1.61867e-10 2.89663e-08)
(-4.03829e-09 -7.58961e-11 3.88179e-07)
(7.41931e-10 5.77997e-10 2.00092e-07)
(-3.32508e-09 4.59694e-09 1.07058e-07)
(-9.61945e-10 -1.43612e-09 2.4752e-07)
(8.63027e-10 2.85257e-09 3.23484e-07)
(-2.37318e-09 6.06548e-10 4.08817e-07)
(-1.48399e-09 -5.25806e-11 2.60826e-07)
(-1.34671e-10 -1.46364e-09 3.18082e-08)
(1.59129e-10 -3.27629e-10 3.14257e-07)
(-1.81781e-09 4.04607e-10 2.11727e-07)
(3.51404e-10 1.30321e-09 1.00582e-07)
(-3.24036e-10 -2.16157e-09 2.84114e-07)
(-7.2202e-10 5.92792e-10 2.43934e-07)
(8.61494e-10 7.80382e-10 1.7453e-07)
(9.53445e-10 1.0909e-09 2.00701e-07)
(-5.55831e-10 -2.72809e-09 2.73857e-07)
(1.17796e-09 1.56466e-09 2.01187e-07)
(-4.35264e-10 1.2676e-10 7.8889e-08)
(-3.95896e-10 1.0015e-09 2.04749e-08)
(3.10651e-10 2.84401e-09 3.99977e-08)
(1.15029e-09 6.31526e-11 2.22345e-07)
(-3.90365e-08 -1.72055e-10 2.67894e-07)
(-1.14023e-08 1.20089e-09 1.1581e-07)
(3.9628e-10 -4.69547e-10 1.13281e-07)
(3.22408e-09 -2.79349e-09 2.49802e-07)
(-8.6472e-10 1.16742e-09 3.09254e-07)
(-5.67883e-09 7.55276e-10 2.29818e-07)
(1.37203e-09 1.30797e-09 3.57433e-07)
(-1.24292e-09 -1.31458e-09 3.39167e-07)
(-2.24831e-10 -8.74666e-10 2.22581e-07)
(-9.60579e-10 -1.34619e-10 1.37608e-07)
(-3.33483e-10 6.92129e-10 2.43461e-08)
(-4.78347e-08 1.74786e-09 2.41033e-07)
(6.69294e-10 2.36072e-09 8.86794e-08)
(-1.55599e-09 2.58445e-09 6.51079e-08)
(1.33247e-09 5.34018e-10 6.88229e-08)
(1.53917e-10 5.06669e-10 1.71005e-07)
(-7.17084e-10 5.16904e-10 1.75492e-07)
(-1.61122e-09 4.92477e-10 2.33699e-07)
(-1.14407e-09 1.34004e-09 1.73331e-08)
(5.23316e-10 -3.78213e-10 1.70607e-07)
(1.72926e-09 -1.00588e-09 6.57703e-08)
(-2.83526e-10 5.20052e-10 1.83696e-07)
(-5.77314e-10 7.09943e-10 5.64646e-08)
(4.28869e-09 1.7493e-09 1.4958e-07)
(1.63479e-09 5.50348e-09 2.21528e-07)
(-1.8983e-09 -8.66869e-11 1.84702e-07)
(2.59824e-09 -1.68065e-10 1.92842e-08)
(-1.72091e-10 5.0912e-09 1.14141e-07)
(-6.34232e-11 -1.10702e-09 2.39473e-07)
(4.47636e-11 -2.54931e-09 2.56632e-08)
(-2.01005e-08 -5.5271e-10 2.89433e-07)
(7.24061e-10 -4.0618e-09 1.83788e-07)
(-7.85199e-11 -4.6195e-09 3.04606e-07)
(4.89642e-09 -5.45189e-09 2.02218e-07)
(2.29077e-09 7.19219e-10 9.49771e-08)
(2.10861e-09 -9.84441e-10 3.89797e-07)
(-1.86682e-08 -5.94544e-09 1.4205e-07)
(-1.29339e-09 -3.93875e-10 3.18491e-07)
(-1.73116e-08 1.08377e-09 1.55477e-07)
(-5.18719e-09 3.80391e-09 1.4403e-07)
(-1.0054e-09 3.36559e-09 1.45815e-07)
(-3.29859e-10 -1.09934e-09 2.64361e-07)
(1.74904e-09 -2.64867e-09 5.26444e-07)
(9.44764e-10 -8.20843e-10 8.18268e-08)
(-7.93379e-10 -1.82611e-09 3.39748e-07)
(-2.73735e-09 9.35019e-10 1.21477e-07)
(7.77472e-10 -1.54923e-09 4.22432e-07)
(7.94448e-10 -1.88909e-09 3.22286e-07)
(-1.63792e-09 -5.45497e-09 7.13622e-08)
(-7.98214e-10 1.40466e-09 2.18929e-07)
(5.84838e-09 -4.70381e-10 3.81196e-07)
(-7.61496e-10 -6.1687e-10 2.27793e-07)
(4.65372e-10 -9.69346e-10 2.20526e-07)
(2.79002e-09 -1.49329e-09 2.418e-08)
(-2.63904e-09 -7.14625e-10 2.02127e-08)
(-3.28616e-09 3.10347e-09 2.94807e-07)
(1.55986e-10 -1.02138e-10 2.76697e-07)
(1.67591e-09 1.27458e-09 2.13713e-07)
(-2.36149e-09 1.25285e-09 3.66795e-08)
(5.93034e-10 -5.68451e-10 8.70627e-08)
(-3.18061e-09 -8.43013e-11 3.06205e-07)
(-5.08749e-10 -5.77917e-10 1.62604e-07)
(1.10541e-09 1.4446e-09 3.01752e-07)
(1.33211e-09 6.26016e-10 2.75678e-07)
(-1.5855e-10 -1.26884e-09 2.13766e-07)
(-3.69964e-10 -2.19604e-09 2.28314e-07)
(4.0084e-10 -7.7967e-10 1.24128e-07)
(-1.21003e-09 4.78224e-10 2.06868e-07)
(-3.03641e-09 3.72784e-09 9.01044e-08)
(-6.69102e-10 1.49506e-10 2.82731e-07)
(-1.74571e-09 -1.11996e-09 1.92804e-07)
(-1.4724e-09 -1.00881e-10 2.12759e-07)
(-3.37353e-10 -2.95986e-10 2.14833e-07)
(-3.17424e-10 9.36084e-10 3.50033e-07)
(1.91607e-09 -8.57128e-10 2.65028e-07)
(3.01158e-09 4.48015e-09 6.96349e-08)
(1.16906e-09 1.80179e-11 4.59964e-08)
(-1.86596e-09 -1.88323e-09 2.01259e-08)
(-1.22497e-08 8.10372e-11 2.30681e-07)
(1.84077e-10 9.75943e-11 2.83645e-07)
(-2.04175e-09 2.60547e-10 2.71433e-07)
(-2.40022e-11 -1.77762e-09 1.94799e-07)
(1.08979e-09 2.2314e-10 3.07019e-08)
(7.33184e-10 -2.57841e-09 2.31849e-08)
(-1.11639e-09 -2.57163e-09 1.83483e-07)
(-1.79469e-09 1.32355e-09 2.30062e-07)
(-7.00353e-10 -1.50107e-09 3.01709e-07)
(8.6303e-10 -5.92965e-10 3.18448e-07)
(-2.09811e-09 -1.64428e-10 2.00059e-07)
(-8.98451e-10 8.29719e-10 3.28451e-07)
(3.22839e-09 -1.97473e-10 3.77426e-07)
(-1.41822e-09 2.82063e-09 3.2618e-08)
(1.00924e-11 9.77583e-10 1.84696e-07)
(3.39674e-09 -1.95552e-09 7.50617e-08)
(-9.90615e-09 -1.0934e-09 9.75873e-08)
(-1.81738e-10 2.06471e-10 1.27129e-07)
(6.54745e-10 -2.63305e-10 1.45333e-07)
(-7.34377e-11 5.65667e-11 2.51989e-07)
(-3.3688e-09 2.1081e-09 2.00615e-08)
(1.78569e-09 -1.33833e-09 3.44347e-07)
(-4.25198e-10 -1.7307e-10 2.57367e-07)
(-1.2025e-09 2.58078e-10 2.08226e-07)
(1.60641e-09 -1.43354e-09 2.06297e-07)
(2.02742e-10 -1.49325e-09 1.69789e-07)
(-8.80102e-10 -1.27072e-09 2.53653e-07)
(-5.19501e-11 8.35297e-10 2.48962e-07)
(-1.78768e-09 8.25398e-10 2.91134e-07)
(-8.27805e-09 -1.04765e-09 1.67761e-07)
(-6.72697e-10 -7.36993e-10 2.61792e-07)
(-4.68561e-09 1.76668e-09 2.89903e-07)
(1.40921e-09 -1.18538e-09 1.90738e-08)
(3.67368e-10 9.25182e-10 2.95337e-07)
(2.20592e-09 2.56291e-09 1.9335e-07)
(-4.17122e-09 -3.92606e-09 6.65259e-08)
(-1.65921e-09 2.75461e-09 1.75334e-07)
(8.43617e-10 4.168e-10 3.36677e-07)
(-8.45382e-12 -1.54387e-09 2.26736e-07)
(1.3712e-09 3.17397e-09 1.21815e-07)
(-2.09456e-09 1.4537e-09 1.88267e-08)
(-1.76705e-10 1.14626e-09 2.49728e-07)
(1.36718e-09 6.42569e-09 3.39751e-07)
(-8.54404e-10 4.93985e-11 2.33227e-07)
(-1.16522e-09 -1.86741e-10 1.90346e-07)
(-3.6561e-09 9.64957e-10 5.93001e-08)
(8.07682e-10 -2.88365e-11 2.51793e-07)
(-4.02525e-09 2.94727e-10 2.67311e-08)
(-1.27087e-11 7.05678e-10 1.71147e-07)
(-2.43915e-08 1.23053e-09 2.08663e-07)
(1.30577e-09 7.62779e-10 2.4961e-07)
(-4.7258e-10 3.12572e-09 9.10319e-08)
(-2.10647e-09 2.78536e-09 1.8632e-07)
(-3.37172e-10 1.5811e-09 1.17911e-07)
(2.76338e-09 -2.55926e-09 4.90897e-08)
(9.5265e-10 1.23868e-09 4.44898e-07)
(-1.01281e-09 -2.83044e-10 2.04636e-07)
(-1.79334e-09 -6.77952e-10 1.84289e-08)
(3.68639e-10 -1.37974e-09 2.74763e-07)
(-1.06443e-09 -4.66113e-10 2.70404e-07)
(-6.09521e-10 2.24679e-09 4.01439e-08)
(3.08161e-09 4.84655e-09 1.31266e-07)
(-2.66876e-09 3.65472e-09 1.01718e-07)
(-6.93381e-10 8.66121e-10 1.8867e-07)
(-2.08949e-10 -4.82612e-10 2.49549e-07)
(-1.30168e-09 1.32281e-09 3.51595e-08)
(2.97923e-09 -1.33485e-09 9.39522e-08)
(-4.4972e-10 2.07325e-09 1.04959e-07)
(1.81578e-09 1.35622e-09 1.78514e-07)
(-5.27677e-10 -7.12195e-10 3.22233e-07)
(-2.8407e-09 -1.91301e-09 2.41749e-08)
(2.46977e-09 9.85807e-10 3.62318e-07)
(-3.57898e-09 -1.4913e-09 2.36097e-07)
(-2.62455e-10 -1.81451e-09 2.63059e-07)
(-2.9757e-09 -6.11981e-09 1.14194e-07)
(2.07523e-09 8.24003e-10 3.26406e-07)
(1.24301e-09 -2.24605e-09 2.37302e-08)
(-8.82501e-10 -1.60887e-10 2.91966e-07)
(1.83075e-10 -4.32098e-10 2.86673e-08)
(-3.8189e-11 -4.25507e-09 1.37914e-07)
(5.02342e-11 1.59893e-09 2.25711e-07)
(-2.51477e-09 3.5874e-09 1.41397e-07)
(-2.68228e-09 1.57653e-09 1.9935e-08)
(4.51423e-10 -1.88548e-09 5.24612e-08)
(6.731e-10 4.86198e-09 7.84792e-08)
(1.79737e-09 -4.23108e-09 1.35591e-07)
(-1.72574e-09 4.67331e-11 3.25787e-07)
(-4.75055e-11 1.33417e-09 5.92121e-08)
(2.55792e-09 -4.58471e-09 1.39868e-07)
(-2.70607e-08 1.08804e-09 2.25689e-07)
(-9.36505e-10 -5.96659e-10 2.07649e-07)
(1.94434e-09 1.11474e-11 3.00777e-08)
(6.86439e-10 2.12156e-09 2.29465e-07)
(-1.53253e-08 -7.78463e-09 1.47373e-07)
(1.44732e-09 3.65245e-11 1.96211e-07)
(-1.80036e-09 1.51539e-09 1.02627e-07)
(-1.30309e-09 -3.74312e-10 1.71737e-07)
(2.62953e-09 4.78113e-09 1.09519e-07)
(-9.45622e-10 5.51151e-10 1.62762e-07)
(-6.32255e-10 -5.81066e-11 1.55535e-07)
(4.03902e-09 -6.31909e-09 7.47596e-08)
(-9.28506e-11 6.06091e-11 2.87906e-07)
(-4.71881e-09 -1.27553e-09 7.11818e-08)
(2.22314e-09 -1.39754e-09 1.61541e-08)
(-1.25258e-09 1.30509e-09 3.15119e-07)
(2.2834e-10 -3.93719e-10 1.82673e-07)
(-2.03298e-09 1.04884e-09 2.9631e-07)
(1.4455e-09 -2.89611e-09 2.29759e-07)
(3.5145e-09 -4.86285e-10 4.47948e-07)
(3.87711e-09 -3.5546e-10 1.41328e-07)
(3.21836e-09 -8.17052e-10 3.99914e-07)
(2.33692e-09 4.8246e-09 1.00587e-07)
(-2.78933e-10 -3.77831e-10 1.48125e-07)
(4.5381e-09 1.81385e-09 3.08711e-07)
(-3.93643e-09 -2.59603e-09 3.35396e-08)
(-1.57827e-09 7.1264e-10 3.00954e-07)
(2.44614e-09 -2.84242e-09 1.17316e-07)
(1.55592e-09 2.71845e-09 3.0946e-08)
(-1.54198e-09 5.86038e-10 2.77621e-07)
(-2.39406e-09 1.21135e-10 6.4455e-08)
(-6.45242e-11 6.59946e-10 2.03488e-07)
(2.72403e-10 1.11541e-09 2.13008e-07)
(-6.53615e-10 2.08879e-09 3.75295e-07)
(1.5269e-10 6.43393e-09 9.83482e-08)
(2.67521e-09 -3.34694e-10 2.81346e-07)
(2.91584e-09 7.75301e-10 1.55516e-07)
(1.76063e-11 8.40404e-10 3.08288e-07)
(-3.89168e-10 3.48091e-10 3.12684e-07)
(1.03604e-09 1.32514e-09 2.75099e-07)
(7.49507e-11 -2.53314e-10 1.62758e-07)
(3.30157e-09 -1.34684e-09 4.99856e-08)
(5.90837e-10 5.57402e-10 7.18162e-08)
(1.64474e-11 -2.90984e-11 1.74977e-07)
(-1.58607e-10 -2.96761e-09 2.8512e-07)
(4.27374e-10 2.22028e-09 2.94323e-08)
(5.12299e-10 -3.43679e-10 2.4411e-07)
(1.29889e-10 6.95178e-10 4.65849e-07)
(1.44064e-09 1.83478e-09 3.4433e-07)
(2.00908e-09 2.21711e-09 3.68401e-07)
(-2.77662e-09 1.70645e-09 2.51954e-07)
(-1.62996e-09 2.24523e-09 2.08877e-08)
(8.71369e-10 3.79887e-12 2.24508e-07)
(1.31261e-09 -2.10859e-09 1.50033e-07)
(-8.23507e-10 4.92099e-10 2.63988e-07)
(-2.0128e-10 2.85885e-10 1.63323e-07)
(-2.26118e-09 -1.37003e-09 3.67698e-08)
(-8.9637e-10 -3.69083e-11 2.04877e-07)
(-3.2384e-09 4.16178e-09 1.53835e-07)
(6.07641e-10 -4.30165e-10 2.46129e-07)
(1.29257e-09 1.42467e-09 2.64813e-07)
(-1.34722e-09 1.90756e-09 2.00333e-07)
(1.29129e-09 1.65263e-09 1.41653e-08)
(-2.17841e-09 9.89733e-10 2.07812e-08)
(-2.59219e-10 -5.24978e-10 1.83439e-07)
(1.26842e-09 -1.3206e-09 3.03226e-07)
(-6.60393e-10 1.73098e-09 2.24626e-07)
(-1.23324e-09 -7.58139e-10 1.81602e-07)
(-6.34905e-10 2.55977e-09 1.63045e-07)
(-7.05602e-10 1.91344e-09 2.55977e-07)
(2.77066e-12 9.13238e-10 2.83507e-07)
(7.21508e-10 1.65186e-09 2.01381e-08)
(-4.11183e-10 -4.13464e-10 1.45674e-07)
(-1.90417e-08 1.2491e-09 1.74053e-07)
(-9.77767e-11 2.60158e-09 4.78193e-08)
(-5.99462e-10 5.68479e-09 8.68644e-08)
(-3.75298e-10 2.09675e-09 3.07614e-07)
(2.84954e-09 -9.4082e-10 2.13083e-07)
(4.41675e-10 -7.63547e-10 1.98153e-07)
(1.64766e-09 -9.20418e-10 2.38938e-07)
(-4.15092e-09 2.92212e-09 1.41583e-07)
(-4.99534e-10 -3.9072e-10 3.25955e-07)
(1.43312e-09 -5.43682e-09 1.82563e-07)
(2.5835e-09 -1.16921e-09 4.22766e-07)
(3.71056e-10 8.32673e-10 2.16526e-07)
(1.38411e-09 -4.84828e-10 2.35907e-07)
(1.44141e-09 -1.52635e-09 3.109e-07)
(1.94781e-09 1.52016e-09 4.93264e-08)
(3.34752e-09 -2.11985e-10 5.36247e-07)
(-3.52812e-10 -1.69768e-09 3.47166e-08)
(-1.66822e-08 -2.27185e-09 1.48938e-07)
(3.89401e-09 -2.74185e-09 1.19555e-07)
(-1.67348e-08 -7.57074e-11 1.6164e-07)
(1.26725e-09 9.05186e-10 2.15848e-07)
(-4.81969e-08 1.18719e-09 2.90718e-07)
(1.60425e-10 3.66113e-10 1.37382e-07)
(-6.13229e-10 -2.40552e-10 3.1905e-07)
(-1.17125e-09 5.07824e-10 3.37642e-07)
(9.38102e-10 1.0703e-09 2.11207e-07)
(-6.37234e-10 -1.67654e-10 3.62678e-08)
(-5.37363e-09 1.68698e-10 1.18484e-07)
(-3.01366e-08 2.13567e-09 2.10286e-07)
(-4.14113e-10 -1.24355e-10 2.12712e-07)
(-6.29842e-10 2.12332e-09 1.0233e-07)
(-2.22307e-08 1.5389e-09 2.18034e-07)
(-7.94282e-09 7.17313e-10 2.3717e-07)
(1.88772e-09 2.91019e-09 3.13751e-07)
(-1.68823e-09 -7.14529e-10 4.55986e-08)
(1.52323e-09 2.71922e-09 5.55274e-08)
(-2.39844e-10 -1.47968e-10 2.81768e-08)
(1.17108e-09 1.05496e-09 2.04258e-08)
(-2.83201e-10 -2.89129e-11 4.56395e-08)
(-1.73328e-08 7.53013e-10 2.21665e-07)
(-1.06218e-09 -4.55334e-10 1.83597e-07)
(-1.87449e-09 -2.04123e-09 1.94382e-08)
(-2.72905e-09 7.24899e-10 2.13781e-08)
(5.37037e-10 7.26869e-10 3.4609e-07)
(-2.57365e-08 5.64473e-09 1.6615e-07)
(-2.23299e-09 1.31048e-10 4.84052e-08)
(-6.45572e-10 -2.51161e-10 2.28374e-07)
(-1.71774e-09 8.41506e-10 1.09612e-07)
(1.79475e-09 -4.69755e-10 2.0477e-07)
(1.48518e-09 2.23766e-09 4.58508e-08)
(-1.93328e-09 -2.49665e-09 9.56096e-08)
(4.2391e-10 2.04181e-09 1.96016e-07)
(8.19763e-10 5.87779e-10 2.67113e-07)
(5.57194e-10 2.10426e-09 3.9993e-07)
(-2.28934e-09 3.1215e-09 4.46093e-08)
(-6.7161e-10 -2.23556e-09 2.54328e-08)
(-3.58772e-08 3.89722e-10 2.01612e-07)
(-3.05494e-09 2.16522e-09 2.89187e-08)
(-2.36552e-10 3.34117e-09 3.13314e-07)
(-3.89503e-09 -1.22046e-09 3.00766e-08)
(8.6005e-10 3.11041e-09 1.51114e-07)
(-1.18009e-09 -5.60346e-10 3.028e-07)
(3.00459e-09 9.39602e-10 4.26499e-07)
(-6.12001e-10 -1.38384e-09 6.12197e-08)
(1.24085e-09 -8.90816e-10 1.42609e-07)
(-2.15629e-09 -3.31605e-10 3.99762e-08)
(-3.74432e-09 -2.02441e-10 2.98837e-08)
(3.41135e-10 -1.13666e-09 2.58088e-07)
(-2.12804e-09 1.03218e-09 1.53313e-08)
(1.26673e-09 1.87477e-10 1.78553e-07)
(-5.88129e-10 -3.19317e-09 6.35362e-08)
(-4.86367e-10 2.17341e-09 3.25542e-07)
(-3.59093e-10 7.86915e-10 2.28298e-07)
(2.96457e-09 1.20594e-09 1.9997e-08)
(-2.38843e-09 -6.30408e-09 1.3889e-07)
(-3.76421e-11 9.70669e-10 2.48503e-07)
(-9.97754e-11 1.5309e-09 3.2485e-08)
(1.0481e-09 -1.08659e-09 2.86268e-07)
(-1.94886e-09 5.67612e-09 8.18894e-08)
(5.3723e-10 1.97027e-10 2.19125e-07)
(1.02708e-09 7.17124e-10 2.2377e-07)
(2.11544e-09 6.77245e-11 5.72888e-08)
(-2.94991e-09 -6.01038e-10 2.19889e-08)
(-1.86904e-09 -6.8463e-10 9.59216e-08)
(-3.9137e-08 1.83207e-10 2.43624e-07)
(-1.26953e-09 7.81575e-11 2.31138e-07)
(2.44617e-10 5.21986e-09 7.98558e-08)
(2.9543e-09 -4.23693e-10 1.88537e-07)
(3.96271e-10 1.08458e-09 2.5475e-08)
(1.15254e-09 5.42596e-10 1.98342e-07)
(1.0841e-09 1.40852e-09 2.40435e-08)
(-1.06482e-09 1.69254e-09 3.32228e-07)
(7.59567e-10 5.28336e-10 3.03374e-07)
(8.18147e-11 2.04542e-10 2.17824e-07)
(-1.50118e-09 -1.81366e-10 1.49859e-08)
(1.66309e-09 1.90786e-10 3.42785e-07)
(-8.28883e-10 8.35552e-10 1.59477e-07)
(4.44155e-10 7.41073e-10 3.56012e-07)
(1.72055e-10 6.11455e-10 6.48967e-08)
(-3.01356e-08 8.10583e-10 2.22545e-07)
(-2.20818e-09 1.45758e-09 2.62528e-07)
(1.11406e-09 -3.25616e-11 6.82945e-08)
(4.80944e-11 1.19629e-09 2.47674e-07)
(-3.94756e-08 4.6058e-09 2.1005e-07)
(-1.09239e-09 -5.87323e-10 1.83735e-07)
(-7.75915e-10 -1.88306e-09 3.39217e-08)
(-2.46598e-09 4.91459e-09 1.04857e-07)
(-1.91836e-10 1.01074e-10 1.87456e-07)
(1.04075e-09 -1.93743e-09 2.19749e-07)
(-1.12695e-09 1.38329e-09 3.32425e-08)
(-5.47561e-10 -4.01157e-09 2.21851e-07)
(4.33523e-09 3.07504e-09 1.62147e-07)
(-1.77059e-09 2.01664e-09 2.56235e-08)
(-4.73543e-10 -2.80927e-11 1.99997e-07)
(-1.55211e-08 7.33896e-10 1.58313e-07)
(-2.57437e-09 -5.58219e-09 3.29065e-07)
(-8.01035e-11 3.50815e-10 1.98307e-07)
(5.07383e-10 2.792e-10 1.79479e-07)
(8.40479e-10 -8.16731e-10 3.05789e-07)
(1.48837e-09 6.96639e-11 2.57887e-07)
(1.92953e-09 6.44326e-10 7.28799e-08)
(-8.61381e-10 5.03689e-09 7.45162e-08)
(2.02785e-09 7.27749e-10 3.70389e-07)
(-2.68217e-08 -1.15231e-09 2.24777e-07)
(4.04647e-10 2.29178e-09 2.12235e-07)
(2.00656e-09 -1.36107e-09 1.90907e-07)
(3.01666e-09 -1.34208e-09 1.30303e-07)
(-9.03318e-10 2.13176e-09 3.22194e-07)
(8.67499e-11 1.14012e-09 2.01043e-07)
(-1.92541e-09 -1.59943e-09 1.84898e-07)
(-3.24129e-09 2.8511e-09 2.30336e-07)
(-1.45905e-09 2.40978e-09 4.43798e-08)
(-1.58572e-09 -8.25408e-10 1.74899e-07)
(-2.56438e-09 -1.94471e-09 4.08175e-08)
(1.32664e-09 -2.04843e-09 3.11748e-07)
(2.97405e-10 -2.91349e-10 3.1887e-07)
(-7.67826e-10 4.93364e-09 1.69996e-07)
(1.77893e-10 -1.57021e-09 1.63871e-07)
(1.08298e-09 -1.62637e-09 1.8379e-08)
(1.43895e-10 -1.01288e-09 1.07838e-07)
(-3.89353e-09 -1.80312e-09 7.78365e-08)
(-1.27005e-09 1.07769e-09 2.58654e-07)
(1.86529e-09 3.97948e-10 2.31805e-07)
(-2.38144e-08 -1.54432e-09 2.20559e-07)
(-2.57277e-09 5.80831e-10 3.08905e-07)
(-1.46437e-09 2.7858e-09 8.40685e-08)
(-1.11949e-08 5.07741e-10 1.3657e-07)
(6.82086e-10 -4.36536e-09 2.47076e-07)
(2.02411e-09 9.28759e-10 2.85203e-08)
(1.40468e-09 7.79816e-12 2.38028e-07)
(-2.34302e-10 1.56334e-09 5.55119e-08)
(-1.88145e-09 -6.42349e-10 2.06826e-07)
(4.22381e-09 -2.14507e-09 3.32917e-08)