/*--------------------------------*- C++ -*----------------------------------*\
| =========                 |                                                 |
| \\      /  F ield         | OpenFOAM: The Open Source CFD Toolbox           |
|  \\    /   O peration     | Version:  2406                                  |
|   \\  /    A nd           | Website:  www.openfoam.com                      |
|    \\/     M anipulation  |                                                 |
\*---------------------------------------------------------------------------*/
FoamFile
{
    version     2.0;
    format      ascii;
    arch        "LSB;label=32;scalar=64";
    class       volScalarField;
    location    "40";
    object      nut;
}
// * * * * * * * * * * * * * * * * * * * * * * * * * * * * * * * * * * * * * //

dimensions      [0 2 -1 0 0 0 0];

internalField   nonuniform List<scalar> 
59516
(
1.14856e-05
2.54416e-05
7.67515e-06
2.94743e-05
0.00109338
0.000186198
1.3348e-05
1.41857e-05
7.69423e-06
8.05102e-05
0.000437292
6.39721e-05
1.0221e-05
0.000152938
7.32874e-05
6.54837e-05
0.000144555
9.30325e-05
2.04848e-05
8.36294e-05
0.000136785
2.45729e-05
3.50589e-05
0.000128491
2.88034e-05
6.2994e-05
0.000122406
0.000157714
7.69955e-05
0.000133648
0.000242304
0.000149685
1.29988e-05
2.21591e-05
3.93919e-05
1.93702e-05
0.00013034
8.46204e-05
2.37025e-05
4.48342e-05
1.17831e-05
0.000187189
4.1992e-05
2.31715e-05
2.13107e-05
6.5387e-05
1.56613e-05
0.000172741
0.000864415
0.000105959
0.000623764
0.000117589
6.03938e-06
1.00826e-05
0.000143201
1.62466e-05
0.000275325
0.000133677
0.000164469
3.92493e-05
4.16815e-05
0.000142834
0.000127579
0.000122809
1.93687e-05
4.50874e-05
0.00018675
0.000117231
0.000425378
1.02189e-05
0.000204552
9.60661e-05
0.00016531
2.79828e-05
0.000255974
7.03644e-05
0.000155483
3.52361e-05
0.000113127
0.000107221
0.000119377
6.1325e-05
3.29531e-05
0.000151793
6.19434e-05
0.000196764
0.000117616
2.31102e-05
6.62318e-05
5.10751e-05
0.00054771
3.82217e-05
0.00013169
2.88951e-05
0.000102961
0.00109002
3.50989e-05
6.56645e-05
7.59595e-05
3.93591e-05
0.000136562
0.000166481
0.000163207
6.55405e-05
1.62337e-05
6.44719e-05
0.000128215
7.18843e-06
1.81448e-05
7.06636e-05
0.000246736
0.000178589
7.5536e-05
0.000155054
5.95027e-05
1.47637e-05
6.60328e-05
2.16151e-05
0.000151848
3.43783e-05
0.000358288
0.00013919
4.79349e-05
0.000135401
0.000239844
2.56993e-05
0.000182608
0.000116746
0.000281066
0.000222876
0.000305763
9.00004e-06
0.000145115
1.95798e-05
2.06272e-05
6.42364e-06
0.000112911
5.50097e-06
0.00012665
2.78696e-05
0.000118952
0.000254541
0.000129632
1.51303e-05
0.000237379
2.50677e-05
1.79842e-05
1.32997e-05
0.000251095
1.22048e-05
2.31583e-05
0.000115265
6.14778e-05
3.88002e-05
1.90962e-05
0.000142199
1.80421e-05
8.59704e-06
2.50659e-05
0.000144485
7.72449e-05
7.50374e-05
0.000123107
0.000171787
1.52499e-05
0.000141381
6.52435e-05
0.000200268
0.000136258
4.67269e-05
2.35775e-05
6.39648e-05
4.97291e-05
1.49071e-05
0.000100789
1.96981e-05
0.000142055
5.70888e-05
6.86954e-05
0.00010327
2.21839e-05
0.000119005
0.000193673
5.11761e-05
0.000204933
6.34856e-05
9.99229e-05
0.000140457
8.41076e-06
1.72638e-05
3.52425e-05
6.63837e-05
9.27887e-05
4.68193e-05
2.87612e-05
0.000101496
6.28794e-05
0.000103316
2.68406e-05
3.17426e-05
4.14098e-05
0.000332003
1.30944e-05
0.000133131
1.0636e-05
2.52087e-05
0.000255927
8.61753e-05
0.000146424
1.78323e-05
7.60179e-05
0.000179074
2.60293e-05
7.08828e-05
1.2295e-05
0.000107252
2.13487e-05
2.78988e-05
7.28903e-05
4.7822e-05
7.48438e-05
2.83748e-05
0.000117034
0.000138387
0.000144735
0.000159081
0.000172998
0.000116755
0.000154686
6.92744e-05
0.000129361
0.000164243
0.000340467
0.0001579
0.000116481
0.000101619
5.3251e-05
1.06376e-05
6.65159e-05
7.86823e-05
0.000309321
0.000154417
6.12779e-05
0.000170685
0.000262126
1.6945e-05
4.07966e-05
7.05541e-05
9.42347e-05
1.08445e-05
6.96234e-05
3.03334e-05
0.000349764
4.13868e-05
2.99036e-05
5.7996e-05
7.68858e-05
5.39919e-05
0.000115823
7.01511e-05
1.07752e-05
7.93266e-05
1.47875e-05
0.000162159
1.08345e-05
5.76514e-05
7.74855e-05
1.94123e-05
0.000145297
6.14094e-05
2.46852e-05
0.000154833
1.17626e-05
2.21024e-05
9.55955e-05
1.74724e-05
0.000139733
6.04801e-05
0.000156505
0.000116039
0.000295889
2.05304e-05
0.000175033
1.34169e-05
1.13173e-05
0.000148259
0.000249698
0.000176561
0.000293181
0.000405934
0.000179283
2.01018e-05
2.94448e-05
1.9347e-05
0.000111848
0.000186311
8.81798e-05
1.49267e-05
0.000360859
0.000157435
6.65314e-06
5.72561e-05
0.000151167
0.000160284
4.44338e-05
0.000151594
0.000102739
7.79455e-05
0.000104362
0.000105722
2.68022e-05
6.04558e-05
1.90073e-05
0.000130386
6.64435e-05
8.533e-05
1.82684e-05
0.00108203
2.78462e-05
0.000109547
7.68987e-05
1.91442e-05
0.000190905
0.000297427
0.000352022
5.34167e-05
3.56956e-05
1.77224e-05
0.000131331
7.41613e-05
5.6781e-05
6.20698e-05
0.000160193
4.17285e-05
0.00011103
0.000119595
8.89204e-05
2.18651e-05
6.73578e-05
0.000171445
6.5153e-05
0.000282047
0.000174908
0.000106437
5.7288e-05
0.000251856
6.46726e-05
0.000299157
0.000208707
2.12471e-05
1.90682e-05
5.30836e-05
1.99844e-05
2.95269e-05
0.00012392
0.000126377
2.28129e-05
0.00014335
0.000263755
2.5321e-05
1.61819e-05
2.0562e-05
0.000361794
3.66891e-05
1.36299e-05
4.19923e-05
4.76183e-05
0.000125861
0.000288056
7.56476e-05
0.000111095
0.000121663
8.64845e-05
2.32611e-05
7.36525e-05
0.000139207
1.60169e-05
0.00012244
0.000116644
5.74494e-05
5.98665e-05
8.44579e-06
0.000459241
0.000160587
6.69425e-05
2.09725e-05
0.000151464
3.79619e-05
1.46886e-05
1.04186e-05
2.52938e-05
2.43883e-05
6.96188e-05
0.000128368
0.000295778
9.89386e-05
7.08101e-05
6.92466e-05
0.000238824
0.000205812
5.85798e-05
8.57658e-06
1.503e-05
0.00025643
0.000232535
0.000125941
2.00184e-05
2.80721e-05
2.73171e-05
4.80101e-05
0.000163173
0.000153414
9.31977e-06
0.000189147
0.00029372
0.000120813
0.00015932
9.05385e-06
0.000253955
0.000209399
0.000273057
0.000192254
0.000172985
1.43178e-05
0.000266011
6.65069e-05
0.000120526
1.72547e-05
5.60889e-05
0.000220524
2.35526e-05
3.55212e-05
0.000105827
0.000120904
0.000142985
0.000238789
0.000259869
3.10443e-05
8.58904e-06
0.000108534
0.000152965
1.52573e-05
6.21516e-05
0.000208056
4.65931e-05
1.49045e-05
0.000341443
1.43804e-05
0.00017014
1.41837e-05
6.23736e-05
0.000254482
7.10674e-05
1.97061e-05
3.43085e-05
0.000153897
0.00025143
0.000262954
0.000252431
1.44502e-05
5.97776e-05
0.000187454
2.6574e-05
0.000315649
2.51493e-05
0.000143186
2.8137e-05
0.000144134
0.000222057
1.47198e-05
0.000119598
1.28079e-05
0.000121632
1.54078e-05
2.7916e-05
0.000148837
0.000147281
1.01213e-05
5.80635e-05
1.47659e-05
0.000105133
2.745e-05
0.000176218
0.000105519
0.000792419
0.000148377
0.000129631
1.35939e-05
1.4051e-05
8.97305e-05
0.000376203
0.000239082
0.000167746
9.9581e-05
0.000375887
0.000136405
6.8436e-05
6.18216e-05
6.05144e-05
0.000281339
0.000215269
6.22215e-05
5.97347e-05
1.00627e-05
0.000311903
0.000160845
4.61019e-05
4.54112e-05
0.000261
0.000233248
8.88866e-05
0.000147234
9.25453e-05
0.000149747
5.4186e-05
4.12956e-05
6.07315e-05
0.000153385
0.00013191
0.000114448
6.88473e-05
1.50705e-05
6.574e-05
5.77626e-05
0.000401541
0.000185481
0.000167194
1.12417e-05
0.000119871
0.00015575
6.74748e-05
0.000159369
7.35736e-05
2.18054e-05
0.000236072
9.29187e-05
0.000143911
0.000150502
0.000140482
2.68246e-05
0.000276175
1.81018e-05
1.3709e-05
0.000227042
7.89136e-05
0.000101396
6.02529e-05
0.000200883
1.45925e-05
0.000166178
3.38565e-05
0.000125853
0.000166262
2.24734e-05
0.000106443
2.46756e-05
0.000300489
2.12595e-05
5.94808e-05
0.000203435
2.33946e-05
0.000245933
0.000194183
0.000262117
0.000276336
0.000112774
7.27329e-05
0.0002019
6.23689e-05
0.0001282
9.41754e-05
0.00016579
0.000155063
0.000234804
6.01062e-06
0.000144185
0.000116947
2.42456e-05
6.35404e-05
1.34706e-05
0.000171468
0.000306944
2.5371e-05
1.10273e-05
0.000298259
2.13319e-05
0.000117816
0.000152539
0.000239698
0.000141535
0.000363337
7.38005e-05
2.08436e-05
3.68335e-05
0.000206903
0.000140145
0.000291993
0.000162577
0.000130629
6.0519e-05
1.5307e-05
2.21428e-05
1.83609e-05
8.50539e-06
1.20056e-05
0.000345668
2.65517e-05
0.000158855
0.000141683
0.000251634
0.000201022
0.00013627
9.01469e-05
0.000118881
0.000207572
5.87093e-05
0.000553457
1.87505e-05
0.000160392
0.000188243
0.000109367
4.27058e-05
0.000170086
0.00011805
0.00148316
0.000703665
0.000252255
6.99126e-06
0.000162099
0.000295392
1.29246e-05
0.000108374
5.27721e-05
0.000157682
0.00016643
0.000182897
4.53958e-05
3.17274e-05
0.000161087
0.000155048
0.000412058
0.000209585
0.000118926
3.0454e-05
7.91101e-06
1.65359e-05
0.000136356
6.41751e-05
1.0307e-05
0.000149373
4.47087e-05
0.000119901
0.000149075
0.000391291
0.000179438
1.87041e-05
0.00016908
1.8092e-05
0.000253685
0.000118111
0.00011108
1.97824e-05
0.000105522
0.000176084
0.000225795
0.00013766
0.000127886
0.000131637
5.8553e-05
2.69633e-05
0.000147742
6.59068e-05
3.12768e-05
0.000117889
0.000102667
7.12633e-05
9.11957e-06
0.000296402
0.000114806
0.000152991
0.000117865
0.000667795
1.27845e-05
6.84112e-05
1.6962e-05
0.000109337
0.000323776
0.000157032
7.79815e-05
9.5735e-06
0.000124353
0.00014218
2.27281e-05
2.41042e-05
6.01009e-05
7.48533e-05
0.000882183
3.90174e-05
0.000101598
0.000383835
0.000487086
6.94681e-06
0.000115107
0.000132025
0.000284909
9.42427e-06
0.000117056
8.33258e-06
6.38605e-05
0.000160156
0.000238426
0.00124489
8.77529e-06
0.00016377
0.000220911
0.000135091
1.30876e-05
0.00011266
0.000119245
0.000237418
0.000984624
7.28173e-06
1.55249e-05
2.70069e-05
2.6259e-05
0.000100759
1.88376e-05
1.04752e-05
0.000152267
6.82291e-05
0.000140814
4.58138e-05
0.000145423
1.9322e-05
1.25998e-05
0.00013608
2.73363e-05
7.30392e-05
0.000194626
0.000214127
0.00118135
9.68062e-05
2.1204e-05
0.000839557
2.58536e-05
0.000172825
0.000223222
6.69468e-05
1.91714e-05
0.000177988
0.00013005
0.00134763
6.13708e-05
8.83923e-06
4.02984e-05
2.73193e-05
0.000289333
0.00012791
0.000135718
0.000101898
0.000231326
6.93879e-05
2.50542e-05
4.08849e-05
0.000131746
2.95689e-05
2.5355e-05
0.000214027
1.46122e-05
4.29513e-05
2.63709e-05
0.000313677
0.000150651
1.9081e-05
7.19282e-05
0.00017017
9.95866e-05
6.26864e-05
0.000150317
3.45418e-05
0.000114794
6.22787e-05
0.000141079
1.15178e-05
0.000156833
1.10465e-05
0.000183303
0.000387837
0.000184103
6.04577e-05
0.000207507
1.5082e-05
0.000108544
0.000186302
1.31458e-05
1.96257e-05
3.40131e-05
0.000110829
9.18077e-06
5.31874e-05
3.3262e-05
0.000121409
2.05742e-05
1.86474e-05
7.07558e-05
5.04749e-05
0.000264554
5.68753e-05
0.000116286
0.00017993
6.05436e-05
0.000143976
1.32224e-05
6.13961e-05
1.457e-05
8.74152e-05
2.5319e-05
5.07921e-05
0.000158369
7.22635e-05
0.000596987
0.000101324
0.000157823
9.38847e-06
1.10221e-05
0.000158032
7.02219e-05
0.000152533
0.000172433
6.45537e-05
1.94913e-05
3.48544e-05
4.84996e-05
1.91765e-05
0.000251392
0.000139011
0.000121678
1.51983e-05
1.4189e-05
0.000137555
2.65421e-05
0.000322397
0.000172545
0.000144101
3.03143e-05
6.47817e-05
0.000368814
2.49463e-05
0.000130728
0.000148909
1.22126e-05
0.000135519
8.14261e-05
0.00023816
3.35395e-05
1.79006e-05
1.07188e-05
1.03769e-05
2.49101e-05
1.24228e-05
2.20347e-05
1.05321e-05
5.43443e-05
0.0001029
0.000203547
0.00155994
1.08378e-05
1.71653e-05
1.91756e-05
0.000135163
0.000106295
1.4575e-05
2.12256e-05
1.53015e-05
0.000364977
3.21322e-05
0.00030697
0.000237729
0.000224702
1.84481e-05
0.000210731
0.000150213
1.48825e-05
4.90087e-05
0.000117579
5.66772e-05
0.000237782
1.65418e-05
0.00022403
0.000365394
0.000192668
6.36794e-05
0.00143788
0.000130389
9.86772e-06
0.000192977
0.000165541
7.94109e-05
6.26882e-05
1.76206e-05
0.000101573
5.62433e-05
0.000167871
0.000156548
4.15462e-05
2.61329e-05
0.000133774
6.35001e-05
8.97246e-05
1.39406e-05
2.79995e-05
4.6541e-05
0.000301893
0.000250368
0.000136751
0.000192688
2.04242e-05
3.15397e-05
0.000135465
6.47484e-05
1.70728e-05
0.000214146
9.03268e-05
0.000145036
0.000114915
0.000122487
0.000266468
0.000127717
0.00017447
0.000168285
0.000330061
0.00140126
1.60869e-05
1.87804e-05
0.000128024
6.7471e-05
0.0001034
6.0863e-06
0.000128064
0.000121388
1.29664e-05
0.000417987
0.000422794
0.000296587
3.6719e-05
1.93987e-05
0.000246396
0.000294793
1.65886e-05
0.000283142
0.00016646
0.000254731
0.000114966
2.1039e-05
0.000121648
5.73553e-05
0.000120653
0.000130083
8.85057e-05
2.27823e-05
0.000108587
0.000219148
0.000110984
2.12667e-05
5.63395e-05
5.31731e-05
1.89476e-05
0.000346123
6.63046e-05
5.49335e-05
0.000119236
1.22838e-05
0.000310668
0.000356884
8.33537e-06
0.000293843
0.000190087
6.57103e-05
0.000311621
0.000114706
0.000119206
0.000168386
0.000141441
0.000192133
0.000230787
1.28916e-05
1.83865e-05
0.000291762
0.000161311
0.000131279
0.000244925
8.69735e-06
0.000172952
0.000149705
2.04272e-05
0.00011447
2.23499e-05
1.97688e-05
1.88338e-05
0.000138741
8.50888e-06
0.000103876
0.000173937
0.000403936
0.000266997
5.68151e-05
8.84438e-05
0.000256792
1.03369e-05
3.37662e-05
0.000117607
1.55113e-05
7.40292e-05
0.000285604
5.35887e-05
8.30394e-05
2.18497e-05
1.37666e-05
0.000146579
1.84504e-05
2.15287e-05
0.000118981
1.22092e-05
0.000130801
7.74139e-05
1.4847e-05
0.000225487
0.000185906
0.000255622
2.447e-05
5.60312e-05
1.95877e-05
3.06923e-05
0.000148987
9.48004e-05
5.143e-05
5.69172e-05
0.000175501
0.000132478
0.000315049
2.80701e-05
0.00019005
2.60808e-05
5.44828e-05
4.05051e-05
0.000101468
1.47209e-05
0.000276535
4.87296e-05
6.75664e-05
1.87709e-05
0.000169899
2.36498e-05
3.3086e-05
0.000304283
0.000127099
5.14387e-05
1.00759e-05
0.000166831
8.01061e-05
7.86048e-05
0.000219796
4.86566e-05
1.76186e-05
0.00017107
0.000108529
1.95341e-05
0.000168393
0.00011086
0.000115305
0.000132564
2.27084e-05
8.80347e-05
6.15324e-05
0.000134131
0.000155082
1.54554e-05
4.03652e-05
8.26602e-05
0.00026934
9.7241e-06
2.48943e-05
0.000114091
0.000118568
4.26808e-05
1.77301e-05
0.000151229
0.000183008
0.000105462
2.06937e-05
8.30284e-05
1.17549e-05
2.44172e-05
4.23176e-05
0.000150823
7.07701e-05
3.98444e-05
5.72065e-05
3.07994e-05
2.30351e-05
0.000117802
0.000171846
0.000157014
9.60972e-06
1.17329e-05
0.000101842
8.10239e-05
9.8194e-05
0.000118527
0.000210489
0.000136765
0.000168735
0.000173355
0.000196836
0.000129478
0.000131934
0.000180758
1.84461e-05
0.000176407
2.71414e-05
0.000192619
8.93394e-05
0.00019638
2.06719e-05
6.61215e-05
0.000151471
9.77817e-05
0.000237155
0.000133333
9.27703e-06
6.45075e-05
6.15069e-05
6.60874e-05
0.000116358
4.98279e-05
0.000174608
2.65298e-05
1.48399e-05
1.66812e-05
7.27005e-05
0.000152249
0.000315198
0.000177744
7.54572e-06
0.000207538
1.21846e-05
2.41541e-05
0.000133496
8.22462e-05
0.000241089
1.21562e-05
3.07926e-05
9.99918e-06
5.89035e-05
2.55553e-05
7.86855e-06
2.08855e-05
2.22917e-05
3.61644e-05
0.000104759
1.85003e-05
6.75036e-05
0.000178918
9.78963e-05
0.00011681
1.40523e-05
1.68929e-05
2.6226e-05
0.00014578
3.66124e-05
5.76491e-05
0.000125426
0.000143223
1.9305e-05
0.000199895
1.8924e-05
2.19183e-05
2.58951e-05
1.57623e-05
0.000126738
0.000116177
0.00013268
0.000330766
1.16418e-05
3.11708e-05
1.5188e-05
1.14899e-05
1.79026e-05
0.000199
1.40316e-05
0.000141989
9.5751e-05
1.47056e-05
0.000145851
0.000279786
1.42287e-05
1.48555e-05
1.78009e-05
4.92195e-05
0.00010165
3.89131e-05
0.000134055
0.000355235
0.000417399
2.31018e-05
4.04126e-05
0.00011501
0.000216936
0.000125992
0.000133526
0.000122806
0.000168384
8.0669e-05
9.08266e-05
0.000109156
7.07649e-05
9.12284e-05
0.000106987
0.00012828
0.000131682
1.18964e-05
6.86082e-05
0.000362182
1.37857e-05
1.95446e-05
1.70387e-05
0.000178075
0.000201635
6.53279e-05
7.15958e-05
0.000146335
2.31623e-05
0.00014249
0.000107485
2.78478e-05
1.73726e-05
7.11706e-05
0.000326841
7.31006e-05
0.000108592
0.000161638
0.000262393
8.10877e-05
3.66485e-05
2.26061e-05
1.68013e-05
1.18297e-05
2.1801e-05
5.0792e-05
0.000288502
1.83473e-05
0.000125902
6.18058e-05
0.00010241
6.38971e-05
1.71124e-05
1.43823e-05
9.86874e-05
4.13244e-05
1.06634e-05
0.00016653
0.000118847
7.17369e-05
0.000108203
0.000182112
0.000179324
0.000278926
0.000148119
2.19979e-05
2.21929e-05
0.000189795
2.23574e-05
0.000139523
1.24793e-05
3.02569e-05
2.37317e-05
0.000153971
1.01478e-05
0.000161618
1.26905e-05
0.000153148
1.35124e-05
0.000148693
5.98064e-05
1.61831e-05
0.000166829
0.000158071
7.27331e-05
1.56024e-05
1.982e-05
5.67706e-05
6.89259e-05
1.69634e-05
0.000253723
0.000127664
0.00026075
2.12567e-05
6.67572e-05
6.45945e-05
0.000171374
6.13897e-05
0.00021931
1.29404e-05
1.55462e-05
1.28345e-05
1.83672e-05
1.26332e-05
0.000143645
0.000110595
0.000169842
2.51839e-05
0.000385427
0.00010854
0.000118342
5.9434e-05
0.000170567
7.15195e-05
0.000170571
0.000151819
0.000388258
3.40451e-05
6.5639e-05
0.000258101
0.000112285
7.54328e-05
0.000328723
0.000112731
1.3205e-05
0.00171328
0.000118188
0.000153423
1.90185e-05
5.14457e-05
0.000232089
2.55229e-05
5.74716e-05
0.000170263
2.70584e-05
6.71937e-05
0.000113539
1.85578e-05
0.00033032
0.000120606
2.176e-05
4.27179e-05
0.000120655
0.000184741
1.46681e-05
8.04482e-05
7.34517e-05
0.000157942
5.41315e-05
0.000126422
0.000133395
0.000122088
0.000155691
1.35572e-05
1.97501e-05
0.000262356
0.000143351
0.000129421
9.93003e-06
2.44999e-05
1.29331e-05
6.65096e-05
0.00011541
7.93536e-05
0.00140604
2.55486e-05
0.000405437
1.31808e-05
0.00013491
2.18267e-05
1.76021e-05
0.000192931
0.000110405
1.25376e-05
1.53408e-05
0.000141033
4.90075e-05
2.47249e-05
0.000281923
9.0381e-05
0.00011843
5.67884e-06
2.58034e-05
0.00020238
1.75942e-05
2.01789e-05
0.000159709
1.82017e-05
4.37725e-05
1.44555e-05
0.000289582
1.22807e-05
1.63123e-05
1.43799e-05
2.5818e-05
0.000328106
1.9321e-05
0.000193997
1.24011e-05
0.00020552
0.000228459
7.33353e-05
1.92326e-05
2.19617e-05
0.000499241
6.42793e-05
1.71766e-05
2.59294e-05
8.90386e-06
0.000162131
0.000170985
0.000222028
6.90601e-05
0.000192503
4.68167e-05
0.000133008
1.73406e-05
0.000111636
0.000149687
0.000366267
6.11588e-05
0.00011301
1.45189e-05
0.000169616
0.000126423
0.000133664
9.73295e-06
4.16654e-05
0.000166223
1.88425e-05
6.35179e-05
3.05533e-05
0.00018637
5.48752e-05
0.000213393
1.38825e-05
1.79086e-05
2.67334e-05
0.000122414
0.000100573
7.44803e-05
0.00010856
1.12099e-05
0.000153653
7.38238e-05
6.55354e-05
1.23289e-05
2.30444e-05
4.29037e-05
6.0989e-05
1.02879e-05
0.000144077
8.54022e-05
3.38075e-05
0.000130865
2.129e-05
2.10063e-05
1.12483e-05
2.20229e-05
4.43241e-05
1.67631e-05
2.46537e-05
0.000106476
1.23445e-05
9.86576e-05
0.000159194
0.000125201
1.90314e-05
1.09096e-05
4.28704e-05
2.66318e-05
1.37344e-05
0.000137057
2.53767e-05
1.17869e-05
4.50104e-05
1.88837e-05
0.000132713
6.18641e-05
8.9727e-05
1.14841e-05
5.96967e-05
1.58139e-05
0.000158197
5.18336e-06
0.000122787
2.30843e-05
0.000233347
7.14783e-05
3.04222e-05
7.22977e-05
0.000116792
0.000164283
1.28886e-05
0.000189773
7.45345e-05
0.000129521
2.34071e-05
3.99355e-05
2.26314e-05
1.465e-05
0.000160815
1.6624e-05
6.80243e-06
0.00034738
0.000135341
7.67342e-05
1.33481e-05
2.22145e-05
2.17372e-05
0.000112834
0.000115772
0.000151661
6.03862e-05
1.57475e-05
3.20474e-05
5.36083e-06
0.000115267
0.00015313
0.000255432
0.000190679
0.000116419
1.2064e-05
0.00010789
1.2645e-05
7.2755e-05
0.000137378
1.18022e-05
4.25502e-05
2.36722e-05
0.000223088
7.40383e-06
1.84812e-05
0.000124802
0.000307571
0.000180783
5.80542e-05
0.000220738
0.000301047
1.92529e-05
0.000191992
0.000114968
0.000471265
0.000411419
4.1748e-05
2.46154e-05
5.46002e-05
0.000129857
6.22834e-06
3.1198e-05
2.17506e-05
7.72564e-05
1.05361e-05
0.000193149
2.55833e-05
0.000134421
0.000452151
5.95857e-05
4.70155e-05
0.000110076
8.17371e-05
2.34982e-05
1.83818e-05
4.69271e-05
9.02019e-05
0.000212444
0.000116138
0.000350943
6.91511e-05
0.000165232
1.35806e-05
0.000131784
5.55459e-05
0.000155179
0.000125467
6.11119e-05
3.6396e-05
1.75221e-05
9.28281e-05
0.000171762
3.41627e-05
3.01915e-05
0.000166773
1.40633e-05
0.000145653
2.35085e-05
0.000127506
1.18306e-05
6.74444e-05
5.66039e-05
6.18413e-05
0.000166889
6.03968e-05
0.000105929
0.000167474
5.20795e-05
0.000150887
1.71245e-05
0.000182051
0.000161235
1.82694e-05
0.000177232
5.74737e-06
1.02243e-05
2.21045e-05
0.000322525
9.4022e-06
0.000125461
0.000348673
5.70712e-05
2.2054e-05
0.000124118
6.67631e-06
0.000303193
3.34284e-05
1.28303e-05
0.000119329
1.58005e-05
7.65481e-06
2.13921e-05
2.50775e-05
0.00013786
0.000153143
0.000123987
1.44269e-05
0.000147636
1.80888e-05
0.000156478
0.000397663
5.46565e-05
0.000312271
8.94068e-05
0.000116153
2.578e-05
6.35799e-05
0.000125377
0.000190096
0.000348536
2.65427e-05
0.000156902
2.64035e-05
0.00012643
0.000171079
3.0392e-05
0.00018995
0.000281792
3.68116e-05
0.000143134
2.87669e-05
0.000198855
1.05271e-05
1.18299e-05
0.000160418
3.08639e-05
0.000136688
0.000120306
9.1972e-06
0.000116593
1.68344e-05
0.000149987
0.000163384
2.26486e-05
0.000176757
4.18697e-05
0.000110311
0.000268006
0.000119081
7.25947e-05
0.000183267
1.27778e-05
4.99422e-05
1.70567e-05
6.12845e-05
0.000183674
0.000162924
0.000177066
0.000131638
0.000110508
0.000114848
9.72542e-05
0.000361265
3.27398e-05
1.2444e-05
1.64242e-05
1.66525e-05
0.000115579
7.58333e-05
6.53082e-05
0.00021335
0.000104284
9.02079e-05
9.98395e-05
1.86792e-05
0.000177648
2.28973e-05
0.000122975
5.70418e-05
1.81521e-05
0.00116687
0.000145781
1.60417e-05
7.44496e-05
0.000143646
3.05547e-05
0.000145323
6.56919e-05
0.000147768
9.07633e-05
0.000327845
0.00010978
1.39015e-05
5.80534e-05
0.000290169
7.98969e-05
9.31203e-05
0.000170229
0.000117234
1.36143e-05
8.12429e-06
0.000355321
8.94737e-05
0.00011161
8.05896e-05
0.000366101
0.000151113
0.000106936
1.15949e-05
0.000332128
2.30697e-05
9.79034e-05
0.000181628
5.83481e-05
7.72413e-06
1.96853e-05
2.07414e-05
6.867e-05
5.8335e-05
0.000134482
5.10664e-05
8.97351e-06
6.11429e-05
1.20697e-05
0.000138233
5.30834e-05
0.000169219
0.000174214
1.48757e-05
1.68015e-05
7.68494e-05
0.000223965
0.000162834
0.000133799
6.73172e-05
5.74309e-05
0.000174333
0.000163703
0.000167806
2.13583e-05
0.000110383
3.31321e-05
8.19942e-05
2.21714e-05
0.000151121
5.44951e-05
9.06934e-06
0.000129134
0.000139175
0.000185025
2.82313e-05
0.000188448
6.43093e-05
0.00030993
0.000365607
4.76777e-05
0.000101463
1.74382e-05
5.63401e-05
0.000275086
1.9737e-05
6.66566e-05
0.000160873
6.94811e-05
1.22559e-05
4.39741e-05
8.06352e-05
0.000123596
3.9921e-05
1.30186e-05
5.95608e-06
1.24394e-05
0.000199583
5.74479e-05
0.000105746
0.000168294
1.33069e-05
0.000350758
0.000262679
6.8706e-05
0.000114835
1.0186e-05
6.69425e-05
9.6453e-06
0.000121147
0.000103467
0.000124765
0.000172811
3.45502e-05
6.32028e-05
7.01035e-05
3.08943e-05
5.24083e-05
1.76649e-05
1.42388e-05
1.02237e-05
3.22494e-05
1.48255e-05
0.000214783
1.82755e-05
1.3699e-05
0.000142819
9.19127e-05
0.000171741
1.23022e-05
1.47521e-05
1.96207e-05
5.66678e-05
3.1722e-05
9.3105e-05
5.7619e-05
0.000143434
6.36377e-06
0.00016887
0.000112973
0.000134503
0.000112739
7.20558e-05
0.000157079
0.00012902
0.00015881
0.000253082
0.000153346
0.00012371
5.96146e-05
0.000297475
0.000220796
2.39337e-05
1.59698e-05
5.34544e-05
1.22296e-05
1.67243e-05
0.000116137
0.000326481
2.41833e-05
1.43642e-05
1.29843e-05
1.60933e-05
9.97895e-05
3.88729e-05
1.49205e-05
7.67508e-05
0.000372866
7.41256e-05
0.000117982
0.00013179
0.000160886
0.000160414
3.54771e-05
4.07271e-05
9.83285e-05
9.30222e-05
6.27345e-05
0.000171229
6.61538e-05
0.000342447
0.000213259
2.27835e-05
7.76064e-05
0.00012574
2.83548e-05
6.98491e-05
0.000168368
1.205e-05
0.000204224
9.38487e-05
9.83364e-06
0.000124241
0.000182437
0.000121121
0.000130576
3.07538e-05
2.15774e-05
1.3e-05
0.000117574
0.000171222
3.14998e-05
2.48158e-05
0.000163268
0.0001436
2.38298e-05
9.6694e-06
0.000142981
0.000142813
0.000167413
1.61452e-05
1.09515e-05
2.42788e-05
2.20838e-05
6.51863e-05
1.27055e-05
1.78312e-05
0.000243627
8.84211e-06
1.02209e-05
0.000111445
1.0569e-05
1.82958e-05
0.000148778
6.53915e-06
3.4961e-05
1.98535e-05
3.57657e-05
0.000144014
0.00011531
9.42161e-05
2.65098e-05
0.000148622
2.49959e-05
9.58617e-05
6.78253e-06
2.43139e-05
6.60653e-06
0.000151094
6.62167e-06
0.000118373
0.000124742
1.67531e-05
0.000144104
0.000197697
7.39397e-05
0.0001425
5.69937e-05
1.91196e-05
0.000152355
1.42727e-05
0.000106477
1.76068e-05
4.07146e-05
4.47527e-05
0.000146143
3.48759e-05
5.22058e-05
0.00026039
5.86778e-05
5.62639e-05
4.90837e-05
0.000129881
3.0299e-05
0.000287012
0.000221602
6.61415e-05
1.87237e-05
8.32722e-05
0.000113355
0.00014184
2.26526e-05
0.000160708
0.000224492
0.000167567
0.000104118
2.12564e-05
1.25305e-05
2.3819e-05
1.48372e-05
0.000145897
0.00010233
0.000173539
0.000149497
3.40649e-05
7.26545e-05
1.93511e-05
1.16059e-05
5.03257e-05
0.000148897
6.35419e-05
0.000117293
0.000172091
0.000101218
5.70706e-05
3.27985e-05
2.28792e-05
6.57846e-05
0.000207992
0.000164338
2.59653e-05
8.33561e-05
0.000196611
4.27021e-05
0.000176852
0.000140725
9.01325e-06
0.000268222
3.31207e-05
0.000198631
1.73146e-05
2.51266e-05
0.000191073
2.43951e-05
7.24166e-05
2.82223e-05
5.85829e-05
4.08983e-05
0.000231772
3.18983e-05
0.00012514
8.6717e-05
0.000252239
5.62001e-05
7.90909e-06
0.000313473
0.000190742
6.56976e-05
0.000148432
2.08192e-05
1.3067e-05
0.000125958
8.37204e-06
9.61303e-05
5.43425e-05
2.07126e-05
6.41771e-05
6.94545e-05
1.08236e-05
0.000118212
0.000116007
0.000192359
1.28829e-05
0.000101114
0.000239892
1.75831e-05
2.11968e-05
1.85891e-05
8.8196e-05
1.43043e-05
0.00016991
0.000213512
0.000311066
0.000356191
0.000118008
0.000146758
0.000154867
5.68644e-05
6.93366e-05
0.000225486
0.000236352
2.33525e-05
4.65047e-05
0.000127307
0.000154141
0.0004318
0.00011269
0.000170008
0.000259976
7.61299e-05
7.75915e-05
5.47692e-06
0.000112821
7.89951e-05
2.42888e-05
1.83642e-05
5.04208e-05
2.0295e-05
5.34812e-05
1.65328e-05
0.000304901
1.65517e-05
2.1082e-05
0.00017851
8.00565e-05
0.000119442
0.000151539
0.000305452
6.58206e-05
0.000133475
2.06625e-05
0.000150737
0.000165884
1.85093e-05
0.00011301
0.000265628
0.000334866
8.26081e-05
1.21089e-05
0.000122713
4.78025e-05
9.56019e-05
3.65515e-05
2.53268e-05
3.68034e-05
6.0036e-05
3.08579e-05
6.08295e-05
0.00022157
1.75535e-05
0.00012545
2.53708e-05
1.96678e-05
2.29159e-05
0.000145466
2.76137e-05
0.00014151
2.478e-05
3.09761e-05
2.58816e-05
0.000125588
4.03568e-05
0.000116167
0.000142853
0.000108848
2.01327e-05
0.000101115
1.49282e-05
0.000118606
9.95766e-05
1.36234e-05
5.07388e-05
1.13604e-05
0.000117239
1.43044e-05
7.13752e-05
0.000107678
0.000184591
0.000125013
0.000113632
6.21674e-05
9.15528e-06
1.51126e-05
0.000401998
0.000123093
0.000397755
4.72197e-05
1.9986e-05
1.81414e-05
2.21217e-05
0.000117844
0.000106555
0.00012376
6.14518e-05
0.0002076
6.51542e-05
4.53989e-05
5.5653e-05
0.000123858
2.00547e-05
0.000104435
0.000152893
0.00014905
3.67802e-05
6.90533e-06
0.000158049
6.68264e-05
0.00036679
0.000154781
1.1368e-05
5.12415e-05
6.27377e-05
5.86495e-05
0.000153249
1.32737e-05
8.99377e-05
7.08356e-05
2.93667e-05
9.06032e-06
0.000158881
4.90556e-05
0.000120294
2.13061e-05
0.00018412
2.18023e-05
6.22675e-05
3.78164e-05
0.000116285
2.63887e-05
1.6497e-05
3.61786e-05
1.2403e-05
0.00013722
1.17578e-05
1.26516e-05
0.000164199
1.70072e-05
6.44934e-05
2.92709e-05
7.37124e-05
1.45008e-05
0.000231068
6.61734e-05
6.40739e-05
2.90642e-05
0.000118828
1.75884e-05
3.33269e-05
7.75879e-05
5.64879e-05
3.02864e-05
0.000118809
3.17981e-05
0.000313811
0.000148307
1.15924e-05
0.000155775
1.48359e-05
5.84323e-05
0.000118312
3.43625e-05
0.000103696
0.000163337
0.000135022
0.000119998
0.000113316
0.000121164
1.85325e-05
0.000223513
1.08766e-05
6.64729e-05
8.91989e-05
0.000279344
7.50794e-05
0.000155117
1.38485e-05
1.33647e-05
7.19368e-06
6.37459e-05
0.000148447
0.000107093
1.48022e-05
0.000185009
0.000187816
0.000134943
1.09748e-05
5.16375e-05
0.00030843
0.000346095
6.25899e-05
0.000119283
0.000136273
0.000120012
3.25969e-05
5.92624e-05
0.000115841
1.27433e-05
2.21316e-05
0.000152775
2.06822e-05
0.000169313
8.04766e-06
2.04365e-05
0.000219702
8.21392e-05
0.000182522
1.16331e-05
9.96073e-05
0.00022991
4.44761e-05
1.5791e-05
7.79307e-05
2.29126e-05
1.21209e-05
0.000115683
2.58009e-05
1.41444e-05
0.000310239
0.000244408
6.26588e-05
0.000135789
8.14016e-05
5.45265e-05
0.00015441
5.17307e-05
2.26675e-05
0.000178291
0.000202818
0.000116843
0.000144827
0.000124109
8.57825e-06
0.000153913
0.000126752
3.57814e-05
5.87194e-05
0.000111669
0.000114648
1.80058e-05
5.10362e-05
0.000239001
6.09467e-05
1.62437e-05
6.50421e-05
1.20931e-05
1.39052e-05
5.4052e-05
0.000171629
0.000205401
0.00016934
4.99805e-05
3.26465e-05
6.3537e-05
0.000164949
0.000165296
0.000118028
1.50251e-05
3.99056e-05
0.000165924
1.10193e-05
1.13966e-05
0.00014622
3.86362e-05
8.35841e-05
3.74025e-05
0.000117178
0.000144315
0.00010934
0.000239359
5.80586e-05
0.000146645
0.00017085
7.57175e-05
5.62128e-05
1.70629e-05
8.54339e-05
9.71077e-05
0.000158911
6.94046e-05
0.000163659
0.000132026
3.04911e-05
2.05003e-05
6.86822e-05
6.45516e-05
1.43662e-05
7.12065e-05
5.64498e-05
3.55537e-05
0.000445301
9.63283e-06
5.37066e-05
2.00738e-05
0.000113898
0.000114421
0.000166178
7.60686e-05
0.00010831
0.000126816
1.959e-05
4.11362e-05
3.18707e-05
0.000157119
2.21105e-05
8.14348e-05
0.000116372
5.10186e-05
2.13945e-05
1.01566e-05
0.000296225
1.8707e-05
8.76476e-05
2.3189e-05
0.000168634
0.000168118
1.25748e-05
1.59113e-05
3.6885e-05
5.76521e-05
0.000127197
6.56594e-05
0.000187127
7.85492e-05
4.30319e-05
0.000131167
1.44857e-05
6.26573e-05
9.06123e-05
1.76603e-05
8.1051e-05
1.63767e-05
0.000143191
7.74671e-06
1.71525e-05
1.20873e-05
1.20181e-05
1.58449e-05
1.77647e-05
0.000137651
2.15157e-05
7.6616e-05
2.95458e-05
7.66383e-06
9.19549e-05
0.000116154
1.08947e-05
0.000179319
3.30185e-05
0.000121565
1.11263e-05
2.61255e-05
1.1072e-05
1.20532e-05
6.4029e-06
0.000111757
0.000167743
0.000254375
0.000309375
0.000133289
4.77888e-05
8.97219e-05
0.000115335
0.000379261
1.09571e-05
0.000231262
1.22195e-05
8.50156e-06
3.48455e-05
0.00029987
9.00059e-05
0.000138846
0.000114996
0.000117122
0.000141309
3.19849e-05
5.60078e-05
8.2119e-05
5.80242e-05
0.000185275
1.91151e-05
2.36253e-05
2.38733e-05
4.97974e-05
2.10797e-05
9.81829e-05
0.000136017
1.51702e-05
5.79743e-05
1.90255e-05
0.000252862
1.93602e-05
1.75442e-05
4.15651e-05
5.88927e-05