/*--------------------------------*- C++ -*----------------------------------*\
| =========                 |                                                 |
| \\      /  F ield         | OpenFOAM: The Open Source CFD Toolbox           |
|  \\    /   O peration     | Version:  2406                                  |
|   \\  /    A nd           | Website:  www.openfoam.com                      |
|    \\/     M anipulation  |                                                 |
\*---------------------------------------------------------------------------*/
FoamFile
{
    version     2.0;
    format      ascii;
    arch        "LSB;label=32;scalar=64";
    class       volScalarField;
    location    "40";
    object      p;
}
// * * * * * * * * * * * * * * * * * * * * * * * * * * * * * * * * * * * * * //

dimensions      [0 2 -2 0 0 0 0];

internalField   nonuniform List<scalar> 
59516
(
0.259351
0.0149592
0.0142055
0.00195799
0.272786
0.293324
0.260203
0.231197
0.0761757
-0.000535589
0.267484
0.261482
0.18219
0.25864
0.243086
0.0771998
0.260609
0.268434
0.264763
0.257511
0.263916
0.230634
0.260097
0.168112
0.0676445
0.162215
0.0955031
0.267212
0.262593
0.242092
0.276143
0.267364
0.12181
0.00153051
0.264972
0.218004
0.0655439
0.271282
0.263209
0.0129779
0.0154434
0.267556
0.26408
0.00153194
0.26262
0.0410107
0.263435
0.263947
0.274438
0.265282
0.280463
0.00127287
0.124196
0.235482
0.26339
0.262451
0.268747
0.00165499
0.167827
0.266052
0.00158686
0.213324
0.168905
0.261027
0.00325082
0.26291
0.00809345
0.221978
0.274768
0.262485
0.225842
0.257561
0.0457018
0.258777
0.223242
0.262066
0.263438
0.0289144
0.185621
0.265145
0.00150419
0.265137
0.264164
0.108726
0.265122
0.256903
0.0763615
0.257665
0.122878
0.268405
0.270948
0.227194
0.252443
0.224314
0.225241
0.274148
0.242087
0.231922
0.264888
0.180133
0.0828719
0.14977
0.237771
0.00872797
0.0456223
0.00666499
0.00621226
0.071759
0.129638
0.187189
0.273074
0.0894057
0.227725
0.273616
0.249834
0.207601
0.0317446
0.235917
0.236336
0.0319952
0.237768
0.234247
0.0615639
0.23582
0.271559
0.265052
0.250099
0.269165
0.280218
0.251511
0.249043
0.0153021
0.223145
0.252116
0.252809
0.219938
0.271949
0.245669
0.150875
0.25598
0.0905187
0.11358
0.231363
0.0897796
0.25662
0.25426
0.262971
0.258435
0.279247
0.253088
0.256483
0.00307274
0.249985
0.00303882
0.251629
0.00537718
0.00401188
0.25239
0.253046
0.243961
0.256754
0.256482
0.243329
0.00445957
0.205814
0.0299258
0.0761859
0.254038
0.254707
0.00419936
0.251701
0.251727
0.247025
0.247882
0.24742
0.263982
0.208679
0.264763
0.0138536
0.206271
0.249782
0.133273
0.158111
0.249146
0.249587
0.0845334
0.116815
0.0649392
0.25087
0.248291
0.000380947
0.132126
0.25393
0.248308
0.255213
0.0203316
0.151567
0.150986
0.00397225
0.246538
-0.000515991
0.0637642
0.232704
0.181061
0.21307
0.133222
0.254752
0.00338035
0.17286
0.239965
0.0427559
0.266989
0.238928
0.214191
0.24014
0.0961226
0.253441
0.0203058
0.197437
0.240485
0.240341
0.254395
0.246831
0.00447563
0.243217
0.208032
0.172168
0.181195
0.246564
0.0371517
0.242521
0.131181
0.247004
0.138177
0.145478
0.247272
0.245721
0.0518381
0.245509
0.0552078
0.250153
0.133529
0.129335
0.00331653
0.251306
0.25083
0.248356
0.0123627
0.247112
0.25045
0.0128564
0.248397
0.250603
0.157035
0.249608
0.250342
0.07765
0.24488
0.19099
0.241657
0.174711
0.243518
0.245121
0.244837
0.217803
0.0589404
0.198377
0.070323
0.242414
0.165242
0.260731
0.212611
0.0747238
0.16826
0.243564
0.218078
0.165524
0.242327
0.243222
0.0966733
0.246608
0.181809
0.169299
0.241032
0.239343
0.25995
0.250154
0.00746432
0.245141
0.218984
0.244233
0.241448
0.22475
0.0295149
0.228027
0.128877
0.219947
0.215519
0.242106
0.218775
0.218418
0.0617967
0.101049
0.212591
0.22221
0.161836
0.0201667
0.218268
0.21955
0.0824356
0.0675298
0.219494
0.158021
0.148942
0.262836
0.221318
0.233332
0.274857
0.220613
0.0647523
0.131327
0.232184
0.139629
0.235297
0.182011
0.221943
0.266864
0.233387
0.172135
0.234734
0.0230861
0.256449
0.169283
0.234679
0.193298
0.241614
0.245054
0.212144
0.266227
0.239716
0.214274
0.211975
0.235782
0.0514532
0.106929
0.239573
0.0993653
0.244233
0.236037
0.191497
0.246392
0.248098
0.0379904
0.123882
0.172186
0.0524817
0.00784045
0.272934
0.277512
0.207434
0.0339284
0.252774
0.265927
0.228348
0.0333845
0.234737
0.234154
0.253185
0.276568
0.238317
0.087685
0.0861265
0.233749
0.176848
0.202743
0.233477
0.235163
0.229594
0.188228
0.223609
0.253685
0.00126733
0.266697
0.0103868
0.0195833
0.235101
0.00759242
0.266231
0.234455
0.0143337
0.0139301
0.0582561
0.229884
0.271534
0.232659
0.272016
0.0115178
0.0772612
0.229821
0.230884
0.241533
0.227739
0.189437
0.241845
0.243016
0.0622917
0.150344
0.243179
0.241591
0.240577
0.0408322
0.0228369
0.0248939
0.137152
0.213729
0.0104062
0.0369051
0.0717976
0.00479376
0.229356
0.22702
0.233014
0.232641
0.244013
0.232393
0.179603
0.226572
0.155698
0.23298
0.195027
0.236361
0.231439
0.217973
0.138703
0.242047
0.266619
0.0237536
0.236993
0.176305
0.0852732
0.179161
0.198109
0.238798
0.236735
0.233491
0.231832
0.0823672
0.231536
0.181105
0.0293243
0.200348
0.277667
0.155225
0.0664451
0.233884
0.193073
0.231043
0.145817
0.231108
0.0654772
0.232013
0.00413888
0.00789167
0.228222
0.264121
0.225913
0.209322
0.0390802
0.212597
0.210751
0.0438894
0.219733
0.21081
0.206045
0.205392
0.103996
0.213167
0.207835
0.142299
0.20584
0.0916661
0.203309
0.267366
0.20355
0.279715
0.204589
0.246016
0.0891663
0.102822
0.1783
0.00411887
0.00308964
0.193096
0.217684
0.221928
0.171778
0.208522
0.0521436
0.227819
0.225691
0.268532
0.151565
0.132977
0.181839
0.225409
0.0215285
0.220024
0.259686
0.00482072
0.299368
0.226639
0.0689013
0.25622
0.191516
0.26162
0.211806
0.184418
0.2036
0.228983
0.187833
0.22923
0.252719
0.0790818
0.0793996
0.272218
0.00317691
0.227676
0.218829
0.271758
0.217126
0.256272
0.000973561
0.220628
0.0899022
0.000421547
0.16705
0.0410735
0.269711
0.23526
0.073502
0.0026189
0.241914
0.13586
0.219542
0.241038
0.218835
0.253426
0.000834479
0.110669
0.0723345
0.21872
0.0372921
0.161338
0.227702
0.141544
0.226242
0.00270508
0.230797
0.0685402
0.227036
0.179272
0.122653
0.114246
0.228944
0.0023397
0.0452284
0.217581
0.0850361
0.17293
0.197499
0.130043
0.124848
0.217277
0.216671
0.248498
0.215817
0.123771
0.217433
0.215274
0.118611
0.105915
0.00095467
0.216427
0.216192
0.217956
0.101167
0.209083
0.0108388
0.218775
0.00576529
0.229328
0.000856217
0.0253765
0.18598
0.132571
0.011366
0.21925
0.269986
0.00369564
0.0178944
0.215937
0.212484
0.0350406
0.214723
0.215512
0.146375
0.0422206
0.229388
0.22203
0.0143824
0.217546
0.217835
0.160509
0.214058
0.278771
0.218301
0.272003
0.188158
0.274423
0.190985
0.0241254
0.255471
0.00571479
0.00630652
0.276113
0.274784
0.192793
0.217593
0.269456
0.266245
0.135512
0.108771
0.177536
0.0661139
0.188852
0.125672
0.266521
0.191816
0.194137
0.210821
0.199591
0.276636
0.180568
0.203394
0.0565945
0.203714
0.15192
0.0186959
0.203671
0.202679
0.204076
0.15322
0.0926775
0.284869
0.128938
0.132411
0.157168
0.24151
0.204326
0.0669812
0.189283
0.156947
0.0137108
0.069637
0.206685
0.237277
0.164523
0.15363
0.205911
0.205828
0.082977
0.247769
0.21546
0.1423
0.212449
0.171401
0.22274
0.210127
0.010584
0.0267363
0.191514
0.277265
0.150732
0.140739
0.00341079
0.161011
0.209753
0.121254
0.219834
0.215065
0.0922083
0.126854
0.217991
0.256028
0.229522
0.174898
0.276622
0.217933
0.0352743
0.226848
0.279417
0.0224103
0.125949
0.241943
0.205336
0.0800526
0.199412
0.0240729
0.01812
0.174416
0.205761
0.276685
0.231263
0.205189
0.204773
0.210644
0.0935604
0.0111457
0.0677535
0.22973
0.276038
0.1555
0.20793
0.140199
0.0600594
0.2045
0.0641159
0.205442
0.260888
0.12759
0.00232394
0.23487
0.0988866
0.211221
0.018266
0.0794805
0.158614
0.238012
0.209328
0.211228
0.277333
0.238267
0.039941
0.279332
0.00346512
-0.00060174
0.21059
0.0429824
0.115381
0.158395
0.110843
0.276861
0.207196
0.234591
0.202972
0.0468526
0.170096
0.0536779
0.130313
0.233039
0.202806
0.204628
0.20233
0.0752265
0.250938
0.190515
0.0668073
0.203724
0.202
0.201335
0.187824
0.203676
0.0197507
0.0122706
0.202539
0.00365879
0.123371
0.141374
0.0106987
0.148603
0.173705
0.25831
0.192713
0.226233
0.177982
0.130978
0.204301
0.206196
0.206572
0.111529
0.205548
0.251367
0.0171343
0.00285821
0.138379
0.118053
0.00313137
0.205166
0.202469
0.203988
0.0187506
0.0310029
0.201713
0.241112
0.0297045
0.0395226
0.276846
0.268319
0.207712
0.0407398
0.21733
0.192294
0.222461
0.174997
0.199239
0.270814
0.175156
0.174599
0.0895857
0.176564
0.271807
0.0334283
0.197168
0.175107
0.105604
0.214993
0.221567
0.0910569
0.213686
0.238619
0.216576
0.175111
0.262074
0.0532136
0.174607
0.233416
0.0152842
0.187457
0.0721034
0.17179
0.0949143
0.270853
0.178819
0.00316539
0.17266
0.171781
0.182801
0.173843
0.160435
0.00482059
0.0432651
0.21412
0.185278
0.152949
0.216592
0.111046
0.239636
0.0243119
0.18475
0.0824255
0.167509
0.216927
0.0157684
0.187607
0.183948
0.273122
0.0255757
0.222641
0.243708
0.0413072
0.180729
0.0431293
0.146938
0.205784
0.221343
0.180431
0.179291
0.178662
0.276759
0.0319784
0.220237
0.109811
0.0192326
0.181287
0.225494
0.192123
0.191134
0.0331797
0.194004
0.195691
0.10306
0.246347
0.275346
0.258416
0.146342
0.195907
0.00407527
0.265554
0.176843
0.19299
0.160851
0.195262
0.19366
0.198626
0.215985
0.198758
0.221432
0.194172
0.255686
0.257061
0.19358
0.212269
0.192617
0.221453
0.222215
0.0135818
0.128241
0.152585
0.0133051
0.205411
0.19614
0.207019
0.108373
0.00654787
0.113102
0.19243
0.210204
0.21031
0.124991
0.144665
0.207758
0.273703
0.197445
0.00856966
0.0191247
0.230236
0.198714
0.119019
0.159106
0.196264
0.129182
0.188311
0.188783
0.188535
0.161084
0.212512
0.187962
0.27788
0.0244398
0.187695
0.278109
0.188297
0.245372
0.0423676
0.186467
0.118594
0.0902841
0.188617
0.187877
0.116597
0.118903
0.186697
0.0998677
0.184904
0.185692
0.192665
0.110705
0.183452
0.0314056
0.186132
0.185701
0.125319
0.183951
0.184449
0.259448
0.179076
0.151236
0.180506
0.182499
0.126957
0.0607327
0.109415
0.266295
0.184791
0.185779
0.156631
0.0622464
0.266782
0.15944
0.162289
0.157895
0.156878
0.0114774
0.00603631
0.0512299
0.104354
0.185901
0.185224
0.00587367
0.230149
0.175073
0.0797873
0.266844
0.15319
0.15197
0.269223
0.154914
0.223085
0.0468698
0.152886
0.217175
0.201634
0.153302
0.113162
0.0406961
0.153947
0.230152
0.206707
0.118267
0.0559965
0.0908973
0.161024
0.0942392
0.229875
0.0900444
0.158447
0.169413
0.273065
0.122622
0.0106971
0.0591232
0.0917938
0.155523
0.228264
0.168078
0.167791
0.0208072
0.133065
0.0084202
0.170484
0.170481
0.0931031
0.0129445
0.203498
0.0400991
0.250004
0.189421
0.185957
0.26531
0.0911827
0.218143
0.227166
0.152794
0.0160518
0.186022
0.262967
0.184193
0.181934
0.155453
0.0804021
0.185654
0.0172636
0.264334
0.231643
0.124665
0.185227
0.1772
0.229435
0.257963
0.219598
0.0300902
0.08133
0.182694
0.190854
0.214329
0.121347
0.210792
0.268286
0.181426
0.212926
0.0728164
0.188107
0.141726
0.0875
0.187695
0.187844
0.186839
0.213157
0.183548
0.0420216
0.184428
0.0800009
0.209198
0.0205602
0.182567
0.212445
0.00391985
0.0233305
0.17925
0.0683064
0.0462343
0.0723429
0.0605025
0.110181
0.0394248
0.181989
0.180135
0.0316287
0.179203
0.180437
0.211249
0.01012
0.181752
0.174532
0.00226647
0.0248293
0.171552
0.0995709
0.00378114
0.0128916
0.172072
0.123385
0.177351
0.260992
0.0167581
0.211636
0.159712
0.176527
0.173519
0.157059
0.200113
0.184301
0.178566
0.163358
0.263937
0.232874
0.177171
0.179935
0.243607
0.0357593
0.230601
0.20047
0.121811
0.114866
0.179691
0.0819743
0.0201884
0.166117
0.171023
0.278796
0.144165
0.17124
0.16918
0.196506
0.0813004
0.16937
0.170427
0.254622
0.170891
0.0768676
0.173869
0.173654
0.139429
0.126326
0.152896
0.173664
0.170734
0.173545
0.117455
0.147754
0.177208
0.154622
0.116152
0.12364
0.124339
0.124802
0.144787
0.171784
0.14778
0.267007
0.244974
0.0436852
0.104691
0.109263
0.145905
0.143699
0.148076
0.189601
0.144774
0.143988
0.0864849
0.109182
0.201423
0.0859903
0.034372
0.14725
0.146119
0.14902
0.248668
0.0141019
0.00692525
0.102445
0.157405
0.154404
0.23072
0.0351134
0.146595
0.267102
0.0414645
0.155723
0.155631
0.185179
0.0018615
0.153807
0.154264
0.153432
0.166173
0.00510776
0.0075775
0.16668
0.166689
0.163454
0.165094
0.171212
0.161855
0.0808751
0.0160586
0.271946
0.206322
0.167067
0.165861
0.125383
0.259667
0.25264
0.235111
0.00140955
0.235355
0.167971
0.168103
0.16655
0.167389
0.168102
0.166628
0.225959
0.140082
0.220014
0.147808
0.0804732
0.0141179
0.169173
0.12589
0.00451767
0.149581
0.174043
0.263715
0.175306
0.119435
0.11563
0.203552
0.130798
0.171892
0.178546
0.176308
0.143398
0.154713
0.259733
0.171393
0.21834
0.0771272
0.0635613
0.169213
0.0658986
0.0228772
0.174167
0.173522
0.128871
0.0867179
0.0996169
0.245577
0.173049
0.0509827
0.0058448
0.155682
0.0283731
0.122716
0.167573
0.206243
0.154968
0.0259138
0.25025
0.0152057
0.243574
0.136103
0.231581
0.159833
0.0451518
0.169259
0.152834
0.0966576
0.1163
0.169864
0.170214
0.251095
0.207862
0.219949
0.256065
0.213427
0.205931
0.206321
0.22461
0.166251
0.165373
0.130583
0.064925
0.0746249
0.0180041
0.232738
0.131212
0.162917
0.160839
0.162046
0.0453547
0.158714
0.221374
0.00510123
0.158563
0.163344
0.186472
0.274455
0.222421
0.221234
0.159576
0.0127845
0.232084
0.161771
0.194869
0.169629
0.198739
0.210405
0.148935
0.229248
0.164912
0.207738
0.169449
0.020388
0.222887
0.229726
0.133756
0.270095
0.0748348
0.0863406
0.0751979
0.147247
0.217106
0.0604812
0.194249
0.0619733
0.165628
0.165594
0.142617
0.171881
0.155906
0.241757
0.200342
0.154033
0.205568
0.161265
0.275472
0.227327
0.160942
0.156465
0.200031
0.237905
0.158206
0.0265859
0.193776
0.241538
0.155104
0.141408
0.159504
0.162414
0.163856
0.164758
0.00386192
0.0751017
0.165927
0.269383
0.164496
0.134927
0.213982
0.132376
0.114889
0.242603
0.269562
0.223525
0.223576
0.225234
0.0354017
0.154329
0.184516
0.268056
0.256474
0.270123
0.273754
0.256273
0.137077
0.133785
0.268503
0.0587735
0.138205
0.205034
0.134995
0.223005
0.210478
0.268285
0.249665
0.222666
0.0746376
0.13726
0.151939
0.146004
0.153267
0.225708
0.206181
0.152564
0.148048
0.150228
0.015981
0.238185
0.042321
0.153958
0.181426
0.159641
0.155415
0.149988
0.0425684
0.156948
0.138415
0.15619
0.155261
0.229992
0.141512
0.0806093
0.0483733
0.216138
0.11107
0.110231
0.211137
0.0920022
0.051006
0.0439319
0.0330327
0.20819
0.0692311
0.140852
0.175323
0.0325803
0.23512
0.235939
0.0983846
0.0954051
0.253742
0.145636
0.0155445
0.169894
0.0330607
0.203489
0.0314601
0.0492067
0.0195879
0.0102159
0.0825336
0.231166
0.047296
0.0248816
0.0260605
0.152843
0.0300341
0.150647
0.236823
0.154543
0.151881
0.207603
0.0467714
0.157635
0.156183
0.0122275
0.075186
0.232013
0.157454
0.157961
0.209582
0.23721
0.226133
0.2362
0.0561528
0.26046
0.268508
0.157474
0.158505
0.0131529
0.24419
0.267382
0.155681
0.118121
0.155041
0.0177669
0.226923
0.00680119
0.0465653
0.146318
0.188001
0.148033
0.120496
0.233357
0.110609
0.221932
0.146692
0.14774
0.0726124
0.139465
0.126525
0.263737
0.233426
0.201316
0.146823
0.238315
0.0809658
0.0458798
0.0668983
0.0137344
0.147095
0.235401
0.146512
0.0139238
0.0115994
0.229685
0.14879
0.0701112
0.245148
0.148956
0.149446
0.230086
0.0201712
0.228374
0.149983
0.152923
0.154107
0.161722
0.154219
0.224408
0.221085
0.154292
0.252613
0.164729
0.22084
0.187486
0.152129
0.236322
0.148925
0.119376
0.254831
0.168141
0.151333
0.0119315
0.154956
0.153675
0.115551
0.14796
0.204155
0.0586863
0.233685
0.141086
0.2137
0.224239
0.151593
0.165435
0.0106306
0.0704093
0.0566705
0.149853
0.234193
0.0193727
0.146953
0.255084
0.055817
0.211824
0.052692
0.147766
0.180345
0.145992
0.0014109
0.193471
0.234208
0.115686
0.0361402
0.057042
0.111905
0.113653
0.121198
0.231764
0.0111134
0.0366036
0.126935
0.12837
0.220129
0.204366
0.128839
0.134594
0.123091
0.187533
0.256192
0.240167
0.164136
0.0300157
0.217614
0.216523
0.0980431
0.050187
0.199396
0.0928457
0.126791
0.207653
0.164282
0.168205
0.143438
0.122838
0.133615
0.13334
0.131446
0.211369
0.136182
0.183006
0.252253
0.234058
0.205451
0.226607
0.12388
0.0904507
0.232758
0.137028
0.208273
0.162216
0.214432
0.26199
0.128606
0.00707256
0.138361
0.140396
0.147295
0.231133
0.137635
0.144734
0.167218
0.147169
0.166991
0.140328
0.00188443
0.165705
0.144693
0.143987
0.00515353
0.206452
0.258062
0.16533
0.172742
0.130596
0.146447
0.145043
0.0589199
0.25604
0.146858
0.146505
0.148502
0.0356191
0.231617
0.157764
0.132059
0.165408
0.0858998
0.112228
0.219415
0.136128
0.132415
0.107321
0.132909
0.143996
0.0898794
0.136248
0.231429
0.154349
0.0780748
0.230472
0.231467
0.118882
0.119791
0.100917
0.136353
0.0596244
0.139913
0.0657024
0.277497
0.215725
0.179274
0.0859004
0.0211809
0.240455
0.0191268
0.0220848
0.135687
0.0020979
0.136217
0.0310033
0.180518
0.0949261
0.134789
0.202159
0.181589
0.13596
0.0268504
0.0218667
0.17677
0.133723
0.0392306
0.136793
0.135186
0.15431
0.14215
0.261138
0.208408
0.240288
0.178346
0.203577
0.135749
0.207903
0.179797
0.136088
0.241966
0.26483
0.202497
0.197757
0.13615
0.224877
0.132916
0.241122
0.174996
0.206005
0.0197571
0.0415169
0.19548
0.0105345
0.233531
0.27714
0.243612
0.0124336
0.0574614
0.0190355
0.22978
0.239123
0.00643625
0.181599
0.128773
0.224503
0.186152
0.128251
0.137112
0.0316913
0.198874
0.202561
0.0559063
0.261038
0.240074
0.146184
0.130314
0.272118
0.129362
0.265993
0.200887
0.198854
0.130652
0.249258
0.115902
0.247216
0.230921
0.251701
0.00707827
0.133822
0.259122
0.0702061
0.267805
0.134271
0.253214
0.101154
0.100336
0.106842
0.26205
0.216426
0.250662
0.215266
0.114012
0.25888
0.259327
0.101747
0.260565
0.118485
0.208604
0.112003
0.216246
0.144261
0.0974834
0.137233
0.0945693
0.138029
0.0209116
0.119941
0.109794
0.241446
0.106532
0.201737
0.152581
0.18047
0.117427
0.0393419
0.0874701
0.203331
0.112092
0.241028
0.0755124
0.122292
0.247887
0.206936
0.124514
0.224456
0.122659
0.111782
0.10947
0.142667
0.117261
0.00216111
0.0393841
0.0434423
0.112419
0.113168
0.205524
0.0499254
0.028742
0.10682
0.07107
0.239481
0.218456
0.0348797
0.125289
0.183113
0.11857
0.126634
0.101814
0.124112
0.217895
0.123632
0.172348
0.000688463
0.236326
0.169444
0.269434
0.127573
0.123682
0.0221839
0.241697
0.0946611
0.128268
0.208418
0.132681
0.129274
0.121396
0.119354
0.0325487
0.132139
0.126618
0.127482
0.121837
0.142331
0.124172
0.23646
0.102876
0.129619
0.238554
0.269133
0.177018
0.106617
0.19667
0.127035
0.116076
0.110517
0.0594717
0.103543
0.0947388
0.256992
0.104901
0.142819
0.140508
0.0349137
0.103687
0.235997
0.118316
0.121358
0.168042
0.158687
0.115945
0.183831
0.143105
0.119565
0.11696
0.132886
0.117363
0.234618
0.226196
0.106403
0.102822
0.113305
0.0459897
0.120016
0.142891
0.204769
0.11678
0.12111
0.110758
0.122969
0.237133
0.102233
0.229835
0.120766
0.116708
0.107984
0.117198
0.0911882
0.113659
0.0930067
0.0812572
0.115677
0.254189
0.131691
0.252093
0.168965
0.0780658
0.0250701
0.100704
0.236136
0.118166
0.116713
0.0859783
0.11854
0.0855304
0.238097
0.236607
0.0895757
0.0902761
0.0942517
0.0947712
0.190469
0.150279
0.0923404
0.0929035
0.069848
0.114964
0.0944232
0.094801
0.0543843
0.052552
0.0024767
0.0950571
0.19253
0.0325493
0.150416
0.0984921
0.101375
0.105978
0.135463
0.233881
0.120306
0.0869026
0.0124861
0.0202938
0.152391
0.099739
0.0946301
0.13035
0.0338608
0.0221892
0.101065
0.235402
0.112355
0.114249
0.0533588
0.10609
0.262838
0.108705
0.10675
0.14917
0.108936
0.11266
0.235389
0.113301
0.128133
0.0201007
0.00438655
0.185505
0.0394505
0.0227173
0.116861
0.0964377
0.235781
0.114714
0.24405
0.244465
0.111542
0.234574
0.007708
0.107803
0.114747
0.0369471
0.115957
0.244459
0.269573
0.0533807
0.240453
0.114239
0.203825
0.223618
0.11494
0.119883
0.242826
0.112501
0.261478
0.114317
0.138729
0.124201
0.26226
0.240345
0.140148
0.11727
0.113847
0.212007
0.138375
0.211885
0.24045
0.236966
0.117555
0.0131987
0.118115
0.109936
0.210658
0.0895111
0.211363
0.0450861
0.223179
0.000348944
0.236612
0.13921
0.0990509
0.108916
0.239154
0.106437
0.236207
0.229598
0.238801
0.0144225
0.00380381
0.213465
0.00397522
0.106242
0.137097
0.184414
0.103927
0.22998
0.157818
0.234085
0.101471
0.232308
0.193574
0.210241
0.270656
0.143608
0.256161
0.101057
0.0108759
0.157867
0.0105877
0.268001
0.0494808
0.152747
0.210503
0.111386
0.10596
0.0149498
0.0362777
0.108105
0.216068
0.238752
0.00718259
0.24475
0.139478
0.260984
0.0635796
0.218511
0.107913
0.194243
0.240466
0.191574
0.17995
0.202515
0.220142
0.234126
0.177677
0.0463101
0.206767
0.109846
0.110096
0.109703
0.0655978
0.255367
0.256374
0.208539
0.120081
0.229941
0.236819
0.119901
0.110725
0.109534
0.105832
0.255444
0.0525581
0.103558
0.163503
0.106191
0.206495
0.191421
0.127346
0.0624808
0.107175
0.105243
0.149286
0.266546
0.172244
0.105345
0.231448
0.0748254
0.0569337
0.251285
0.00521643
0.0744324
0.0150733
0.0746627
0.0748329
0.232571
0.103936
0.192989
0.231111
0.129934
0.110736
0.240066
0.0788709
0.237175
0.0995443
0.102667
0.102893
0.210393
0.177947
0.236713
0.215007
0.227688
0.0882437
0.153204
0.240738
0.225015
0.11066
0.224196
0.0767952
0.207101
0.0500128
0.209222
0.10586
0.188356
0.0937716
0.143157
0.224593
0.0746333
0.225293
0.0570995
0.114433
0.0917167
0.0328833
0.0966027
0.0904354
0.127747
0.236809
0.0945836
0.0433752
0.019138
0.211233
0.021251
0.226923
0.00439819
0.0990797
0.0535816
0.0979773
0.224973
0.228733
0.0498235
0.254334
0.0347968
0.00240281
0.209734
0.189929
0.0966974
0.225357
0.0728388
0.020828
0.12455
0.00276773
0.158268
0.201348
0.147118
0.0989404
0.265037
0.100334
0.161966
0.209744
0.132899
0.227915
0.0965952
0.144997
0.0956951
0.149875
0.25386
0.102764
0.0885957
0.150421
0.0963836
0.167714
0.095163
0.0621166
0.0949873
0.253728
0.0946866
0.0909139
0.0938231
0.247235
0.119806
0.238212
0.257439
0.255793
0.183901
0.0512842
0.0689022
0.192114
0.225734
0.0237231
0.0662637
0.0938145
0.092286
0.227059
0.268137
0.00316631
0.0339687
0.0848927
0.238183
0.0343405
0.134374
0.227313
0.0913156
0.0900053
0.090858
0.0881063
0.0911663
0.184926
0.11264
0.223553
0.0241998
0.0946305
0.0913793
0.249091
0.143379
0.244946
0.259308
0.0495126
0.0918822
0.0686841
0.247299
0.249929
0.24444
0.243364
0.127027
0.0677867
0.239052
0.04985
0.0916828
0.219688
0.10236
0.0907458
0.0720333
0.0890729
0.217914
0.216591
0.0915434
0.161772
0.102741
0.102121
0.26549
0.0260641
0.0562451
0.0916478
0.0924037
0.00826447
0.0922991
0.0701634
0.0978203
0.213336
0.092602
0.0173898
0.099532
0.00812543
0.249851
0.242503
0.128417
0.094948
0.0977653
0.112384
0.0834961
0.0759219
0.114702
0.0803089
0.0790409
0.0691539
0.0806078
0.251316
0.224486
0.134841
0.2103
0.0850336
0.216931
0.0674771
0.209986
0.174936
0.201546
0.0819807
0.153072
0.0189477
0.217176
0.234095
0.0940915
0.273164
0.0846904
0.0868436
0.145672
0.0222701
0.113129
0.0876518
0.216103
0.0665573
0.093822
0.0910238
0.0631616
0.180181
0.0632436
0.0621814
0.0638844
0.0646981
0.063436
0.212381
0.212961
0.219423
0.209516
0.0403289
0.063997
0.245852
0.070329
0.0389028
0.0696427
0.0690405
0.0415723
0.0700448
0.0687303
0.0692984
0.0880082
0.0845853
0.15553
0.0967513
0.109188
0.140924
0.121503
0.112037
0.04138
0.0886467
0.0878213
0.0664071
0.0716665
0.0858849
0.169817
0.0174284
0.200606
0.265164
0.157819
0.255013
0.0867986
0.0191382
0.0207973
0.0206033
0.117614
0.0218243
0.0833091
0.0856868
0.239271
0.272728
0.146303
0.0775317
0.242821
0.132525
0.163122
0.0849893
0.165716
0.0850663
0.170744
0.0714171
0.0377886
0.0458915
0.0808121
0.0015684
0.0874153
0.241221
0.0645
0.198197
0.0256209
0.0782471
0.0805526
0.225867
0.109799
0.171024
0.122975
0.16993
0.0795272
0.0153025
0.243932
0.0957502
0.158529
0.240127
0.240171
0.0817431
0.0693438
0.0826309
0.125464
0.0819728
0.166651
0.225334
0.128795
0.0832297
0.0838931
0.133335
0.152123
0.187224
0.0831342
0.0850491
0.0854857
0.241278
0.0841727
0.0855862
0.0305079
0.0750917
0.0394775
0.0149548
0.0387463
0.0240374
0.0735782
0.0755284
0.0122207
0.0596242
0.0117625
0.238595
0.0770823
0.0434247
0.238907
0.184111
0.115464
0.0665037
0.0804421
0.0123761
0.0784384
0.176469
0.124038
0.0769582
0.244731
0.0376339
0.00371228
0.0778369
0.280245
0.122157
0.160704
0.0137867
0.0782743
0.077521
0.187138
0.0138591
0.120974
0.155564
0.0720317
0.0778015
0.080194
0.272404
0.25188
0.245268
0.117295
0.0394567
0.0153864
0.0137768
0.246819
0.0138375
0.0489808
0.0812596
0.268606
0.0954786
0.082827
0.222544
0.246346
0.17686
0.167951
0.082009
0.079812
0.239012
0.205296
0.217355
0.023705
0.201295
0.0528865
0.111066
0.0435538
0.0790466
0.12575
0.251598
0.126514
0.124535
0.259954
0.0743932
0.240681
0.0558712
0.165704
0.194212
0.251298
0.12643
0.244136
0.070212
0.0585764
0.0349125
0.074504
0.244387
0.0564178
0.050869
0.152134
0.0580312
0.0580855
0.0626664
0.0200392
0.115288
0.076058
0.0900195
0.0528644
0.0690501
0.0609973
0.0416259
0.246644
0.172378
0.056235
0.0780542
0.277376
0.146935
0.0746686
0.157908
0.0753993
0.140473
0.0733647
0.244973
0.054711
0.274242
0.047494
0.0420896
0.153441
0.0573826
0.167772
0.14693
0.177173
0.0232129
-0.00101222
0.0317891
0.0264198
0.0473927
0.0169186
0.0523667
0.0486961
0.0480653
0.258265
0.0319812
0.247215
0.247454
0.0376637
0.235553
0.0788786
0.24175
0.224873
0.0545818
0.237787
0.0548452
0.00191646
0.176642
0.113479
0.22966
0.224047
0.124287
0.0187854
0.0341969
0.17881
0.1946
0.056266
0.0545089
0.0736019
0.198082
0.215632
0.160134
0.0196378
0.0142076
0.072841
0.182111
0.200198
0.218728
0.25866
0.0750136
0.23027
0.211148
0.158786
0.275126
0.113352
0.145938
0.184729
0.0705073
0.249454
0.0121754
0.109363
0.210848
0.19067
0.22326
0.248054
0.0221675
0.109108
0.0730838
0.130266
0.0739775
0.120667
0.133823
0.129331
0.0936837
0.0736563
0.0727251
0.0703301
0.0954443
0.257219
0.103147
0.0925893
0.0989893
0.243087
0.214187
0.0209658
0.24909
0.0733097
0.0702377
0.14692
0.0617744
0.0623507
0.086597
0.0214418
0.0609018
0.0658239
0.015062
0.057807
0.0565822
0.0622636
0.0820346
0.0684211
0.0690459
0.247084
0.045596
0.0555311
0.04067
0.0752204
0.0402728
0.037721
0.0712508
0.0166061
0.0178568
0.101489
0.0413895
0.0366022
0.248433
0.0717815
0.0549801
0.0507418
0.019024
0.0452901
0.0710595
0.0733607
0.0651024
0.114612
0.15689
0.180628
0.135488
0.0180355
0.0648074
0.0631772
0.0651542
0.206011
0.0996806
0.0727889
0.264428
0.0639154
0.0989941
0.0634471
0.0658202
0.173574
0.179878
0.0632269
0.105927
0.225557
0.224411
0.0999008
0.0639915
0.246199
0.0639413
0.137778
0.0645735
0.269176
0.0650265
0.203477
0.0635713
0.173313
0.209626
0.241189
0.219566
0.0622031
0.212547
0.15476
0.172913
0.0640657
0.0263127
0.112627
0.157668
0.063938
0.0634507
0.0643564
0.112571
0.0573208
0.259422
0.18857
0.0243176
0.246826
0.060268
0.240033
0.0244115
0.0552506
0.0588372
0.205428
0.0636367
0.177589
0.257389
0.0559995
0.0599592
0.0971042
0.252919
0.20554
0.204601
0.0610917
0.21557
0.184644
0.0594845
0.0997697
0.0843521
0.058483
0.0586166
0.177267
0.218225
0.0648955
0.102302
0.0827847
0.244374
0.239404
0.243731
0.0637488
0.245763
0.0430594
0.194082
0.223426
0.128881
0.174803
0.0636111
0.250629
0.0306675
0.0345664
0.0371037
0.107434
0.0371824
0.115232
0.11303
0.100437
0.124871
0.200371
0.102651
0.152179
0.00881445
0.0429971
0.0872325
0.145292
0.0608314
0.162497
0.226796
0.117867
0.195877
0.188943
0.0113067
0.0369981
0.17174
0.0435683
0.000415905
0.249129
0.206959
0.238901
0.0352129
0.248919
0.0960385
0.236804
0.09163
0.240305
0.0908104
0.245448
0.0403365
0.216079
0.0585391
0.184355
0.0928678
0.190134
0.0958716
0.283495
0.0591237
0.0799987
0.201068
0.184845
0.0570588
0.124639
0.184998
0.0591992
0.166357
0.0235131
0.165894
0.0541491
0.0524015
0.0808222
0.248754
0.0593046
0.0377241
0.0583819
0.0603828
0.108632
0.208343
0.0676581
0.0608641
0.108157
0.108212
0.00466807
0.242049
0.0586598
0.0776069
0.140361
0.191912
0.00183797
0.0604006
0.246963
0.0501857
0.0482248
0.153227
0.0285738
0.042665
0.223615
0.0606005
0.244302
0.11276
0.038363
0.0474269
0.126651
0.0449729
0.0584185
0.0862208
0.0553525
0.0569369
0.0560395
0.0233659
0.147834
0.0544055
0.0769951
0.0519008
0.0703282
0.07838
0.0537339
0.0506767
0.24159
0.0551171
0.0476717
0.0505706
0.24678
0.0592941
0.049442
0.068851
0.183316
0.0740289
0.053763
0.0601616
0.0523457
0.00289308
0.244704
0.0747552
0.0524199
0.0388647
0.252411
0.0996568
0.0265698
0.0507938
0.010656
0.108534
0.243445
0.0498795
0.242034
0.0465093
0.0306357
0.246376
0.242865
0.251327
0.03749
0.247791
0.0148406
0.017914
0.0512174
0.0266858
0.0228976
0.0631591
0.185609
0.247292
0.237355
0.255875
0.235116
0.146496
0.106778
0.0391946
0.0479341
0.0563492
0.139168
0.156438
0.096007
0.207238
0.0736905
0.0525513
0.168728
0.0663675
0.235978
0.235604
0.0292447
0.237422
0.157044
0.215468
0.252394
0.0490759
0.196832
0.159371
0.169036
0.158762
0.0496935
0.121647
0.238534
0.254229
0.0597116
0.233086
0.252198
0.242862
0.202485
0.0416755
0.255669
0.0442848
0.226579
0.22726
0.0440881
0.0489592
0.0393583
0.140716
0.248594
0.102502
0.157965
0.0400689
0.175046
0.248974
0.052531
0.204266
0.0506646
0.208239
0.235748
0.255852
0.234809
0.0857375
0.0946772
0.112418
0.197676
0.0526751
0.220759
0.221253
0.050936
0.210004
0.121653
0.0509873
0.158021
0.213443
0.0494788
0.238744
0.0415789
0.217797
0.259632
0.0464793
0.133336
0.0472152
0.162067
0.0495524
0.0235305
0.249024
0.164567
0.0806758
0.109402
0.139135
0.131789
0.0199792
0.125314
0.123134
0.237684
0.168225
0.262791
0.227141
0.0666336
0.242618
0.0249201
0.0258591
0.177182
0.151079
0.210195
0.20948
0.0273661
0.0235402
0.121092
0.245714
0.199498
0.226834
0.260196
0.0267685
0.201896
0.165711
0.202489
0.208605
0.155031
0.250075
0.212883
0.216734
0.0615238
0.0661466
0.259055
0.026848
0.0238111
0.0453107
0.229708
0.246277
0.249669
0.0439178
0.0416421
0.183574
0.0433227
0.0445663
0.189052
0.254591
0.208386
0.0694162
0.236848
0.121167
0.205635
0.207566
0.255865
0.0421989
0.152093
0.152741
0.0444853
0.0422032
0.0404242
0.0429795
0.162429
0.0445686
0.25516
0.202906
0.187144
0.0444352
0.0393439
0.0879977
0.19683
0.256591
0.118263
0.10626
0.253962
0.0192606
0.0343823
0.0701082
0.109894
0.0339175
0.0437003
0.0451613
0.084868
0.0455723
0.253873
0.255088
0.093557
0.253897
0.149379
0.0841898
0.040777
0.067085
0.0627844
0.075021
0.0435226
0.037088
0.0473518
0.0547165
0.0394931
0.0650987
0.0696225
0.197808
0.0396829
0.0431538
0.0761704
0.0257409
0.0451238