/*--------------------------------*- C++ -*----------------------------------*\
| =========                 |                                                 |
| \\      /  F ield         | OpenFOAM: The Open Source CFD Toolbox           |
|  \\    /   O peration     | Version:  2406                                  |
|   \\  /    A nd           | Website:  www.openfoam.com                      |
|    \\/     M anipulation  |                                                 |
\*---------------------------------------------------------------------------*/
FoamFile
{
    version     2.0;
    format      ascii;
    arch        "LSB;label=32;scalar=64";
    class       surfaceScalarField;
    location    "40";
    object      phi;
}
// * * * * * * * * * * * * * * * * * * * * * * * * * * * * * * * * * * * * * //

dimensions      [0 3 -1 0 0 0 0];

oriented        oriented;

internalField   nonuniform List<scalar> 
113358
(
-1.48345e-05
3.10653e-05
-2.16857e-05
5.45543e-06
2.23833e-05
2.89226e-07
-6.03089e-06
-1.66415e-05
-2.59957e-05
1.97305e-05
-3.12557e-06
9.38991e-06
-2.40137e-05
-6.38953e-06
2.37339e-05
6.67255e-06
-1.73033e-05
9.24778e-07
3.01615e-05
-1.37829e-05
1.36161e-05
-1.41963e-05
-7.96053e-06
8.54075e-06
-7.20962e-06
3.4481e-05
-2.49817e-05
-2.28859e-06
-7.71064e-07
-3.21612e-05
1.75634e-05
1.53692e-05
8.43847e-06
6.02057e-07
1.82662e-05
-2.73068e-05
7.52941e-06
3.78572e-06
-1.10026e-05
-3.06873e-07
-6.12213e-06
2.30438e-05
-2.15977e-05
4.67611e-06
-1.48948e-05
3.35206e-08
-3.27383e-07
1.51889e-05
-4.54494e-05
3.54996e-06
1.22565e-05
2.96418e-05
1.2379e-06
-2.64388e-06
1.40617e-06
2.02432e-06
-1.45254e-06
1.98658e-05
-2.04401e-05
1.07031e-06
3.3474e-07
1.19829e-05
-1.33885e-05
1.01383e-05
3.46465e-05
-2.86598e-05
-1.61246e-05
-1.95288e-05
1.08163e-05
6.74558e-06
1.9671e-06
1.4986e-05
-3.80735e-05
3.20377e-05
-8.95e-06
2.51633e-05
3.41477e-06
2.78467e-05
-5.64254e-05
1.90651e-05
3.94359e-07
-4.79527e-07
-1.89796e-05
-1.16304e-05
4.64514e-05
4.32202e-06
-3.91461e-05
-6.03597e-07
-4.53532e-05
4.8905e-05
-2.94699e-06
-9.37846e-07
4.49508e-06
3.30317e-07
-3.88689e-06
-4.73577e-05
2.07506e-05
-3.94983e-06
3.05563e-05
-2.26741e-05
5.29907e-06
1.86833e-05
-1.31146e-06
-9.67853e-06
9.38876e-06
-1.80832e-07
4.7075e-07
-1.92538e-06
-7.49143e-06
5.38521e-06
4.03175e-06
1.91135e-05
-3.69115e-07
3.21039e-07
-2.31025e-06
2.3039e-06
6.6148e-09
-5.43936e-06
-2.58599e-05
2.74586e-05
3.84072e-06
5.11559e-06
-2.63656e-07
-8.11855e-06
3.26684e-06
2.0463e-05
-1.12133e-06
1.17811e-06
-2.052e-05
-2.79691e-05
1.27665e-05
-2.98036e-06
1.81886e-05
1.75411e-05
2.40437e-06
-1.98658e-05
-7.93716e-08
-3.40141e-05
8.46306e-06
-1.18931e-05
3.74418e-05
-3.83479e-08
-2.24696e-06
2.2853e-06
9.33812e-06
1.08084e-05
1.77414e-06
-2.19205e-05
7.28345e-06
-3.72924e-05
3.06049e-05
-5.95842e-07
-3.53592e-06
4.59418e-06
3.63602e-05
-3.74172e-05
-1.92087e-05
1.6175e-05
-2.01644e-05
2.31979e-05
2.70254e-07
-2.39747e-05
-3.10592e-05
5.47641e-05
-1.07741e-06
4.33446e-05
-1.22169e-05
-3.00503e-05
5.30973e-06
-1.8661e-05
-7.48606e-06
-6.01029e-06
3.25574e-05
-4.18536e-07
-2.61284e-05
-2.32356e-06
1.60962e-05
-1.07681e-05
-3.00458e-06
-3.04667e-05
-1.1921e-05
4.13106e-05
-1.12107e-05
3.5405e-05
1.39103e-06
-2.55853e-05
-3.40989e-05
4.27224e-06
-5.53274e-06
3.53596e-05
3.53682e-05
1.56327e-05
-4.68218e-05
-4.17874e-06
2.32254e-05
-1.61787e-05
1.55196e-06
-8.59858e-06
-1.0745e-05
3.15469e-06
1.08218e-05
-3.22845e-06
2.95814e-05
-7.74386e-06
1.6733e-05
-3.85718e-05
-1.03162e-05
-3.82969e-05
4.14641e-05
7.14982e-06
-2.07325e-06
7.69517e-06
-8.88478e-06
3.26297e-06
2.82665e-05
-1.226e-05
2.01884e-05
-3.61948e-05
-2.13119e-05
4.92499e-06
3.73e-05
-2.09131e-05
1.21622e-05
-5.96096e-06
4.76552e-06
-1.09661e-05
3.74505e-05
-9.6309e-06
-2.90334e-05
1.21251e-06
-1.2929e-05
-1.4781e-05
8.08603e-06
1.9624e-05
-3.07772e-05
-4.9673e-06
1.46012e-05
2.11408e-05
-2.95285e-06
3.36942e-06
-4.16739e-07
3.46111e-05
-5.84991e-06
-3.41218e-05
5.36076e-06
-1.54681e-05
-4.24607e-05
1.65426e-05
4.13867e-05
-4.18719e-06
4.43775e-06
-3.50314e-05
3.47823e-05
1.77137e-06
2.17068e-05
2.73076e-06
-2.62088e-05
3.65145e-06
-3.02209e-06
-6.28762e-07
-1.52164e-08
6.48639e-08
1.18544e-05
-1.1905e-05
6.24424e-06
-3.01856e-05
3.26404e-05
-8.69897e-06
9.98498e-06
-2.43225e-05
2.32611e-05
-8.92345e-06
7.59348e-06
-7.84715e-06
2.54907e-07
-1.92281e-05
-6.43908e-06
3.34369e-05
-7.76962e-06
-2.50874e-07
4.22599e-06
-3.97538e-06
7.32064e-06
-2.94082e-05
9.24531e-06
1.28427e-05
4.54641e-05
-3.43907e-06
-2.96779e-06
-3.90559e-05
-2.73929e-05
-3.26656e-05
3.55481e-05
2.4511e-05
3.58746e-06
-3.70624e-05
6.08226e-06
3.62415e-05
-2.9007e-05
-8.89666e-07
-6.3449e-06
1.09178e-07
1.81653e-07
-1.567e-05
1.53811e-05
6.62774e-06
8.18237e-06
1.27944e-05
-2.76041e-05
8.11896e-06
-4.26454e-06
3.3274e-06
-7.17533e-06
-1.60638e-05
-1.10446e-05
2.73346e-05
-2.26017e-07
-2.12089e-05
2.61089e-05
-1.87384e-05
1.38385e-05
-3.17068e-06
3.93258e-09
3.16655e-06
-3.06449e-05
3.28818e-05
-3.37645e-05
2.60459e-05
-2.96627e-06
-9.8546e-07
-6.40003e-07
4.59171e-06
6.38421e-05
-6.18392e-05
1.91751e-06
-3.92226e-06
-1.20417e-05
3.75484e-06
1.16266e-05
-3.34034e-06
-4.62144e-06
2.57581e-05
-2.83215e-05
7.18493e-06
-1.796e-05
-2.12905e-05
3.14754e-05
7.77516e-06
9.06647e-06
-1.28608e-05
1.84321e-05
-1.46368e-05
7.52246e-06
2.43893e-05
-5.05327e-05
1.8621e-05
-3.37016e-05
1.20137e-05
1.46547e-05
7.03369e-06
8.80789e-07
-2.94996e-05
2.40568e-05
4.56155e-06
-2.71053e-05
2.49489e-06
9.67762e-06
1.49329e-05
2.34905e-05
-2.03052e-05
7.02325e-06
-1.02106e-05
1.36239e-06
1.22296e-05
-1.33787e-05
-2.14605e-07
1.72849e-05
-2.42336e-06
-2.58711e-06
-1.22743e-05
1.58617e-05
1.82837e-05
-1.57555e-05
-1.83902e-05
2.45524e-06
-7.76337e-07
4.41639e-06
-6.09536e-06
4.81985e-06
-2.89638e-07
-4.5295e-06
3.88856e-08
3.99705e-06
-4.03586e-06
-4.88844e-07
3.05886e-06
-1.33469e-05
1.07767e-05
-2.03869e-05
4.15796e-05
4.31434e-07
-2.16242e-05
4.81745e-06
-2.18334e-05
1.68743e-05
1.44443e-07
-3.13782e-06
-4.18165e-06
1.16849e-06
6.15082e-06
-5.8374e-06
-1.42344e-05
3.71103e-06
1.63604e-05
-3.07382e-06
1.99769e-05
8.61693e-06
-2.55217e-05
4.21629e-06
3.78072e-06
-1.83225e-05
1.0326e-05
-2.72797e-06
2.83573e-05
-3.22705e-05
6.64138e-06
-7.63993e-06
7.85166e-06
-2.12557e-07
1.85975e-05
-2.30441e-05
3.66437e-06
7.80931e-07
1.84267e-05
1.08272e-05
-3.24421e-05
3.1883e-06
-2.63996e-05
-1.48629e-05
7.41248e-06
3.38503e-05
-2.25494e-06
-2.13861e-05
9.02831e-07
2.27374e-05
1.31052e-05
-1.36063e-05
1.00068e-07
4.01224e-07
1.62914e-05
-2.84372e-05
-5.47958e-06
1.76266e-05
-3.56999e-06
2.78976e-07
3.29056e-06
-4.34977e-06
-1.39361e-06
2.94149e-05
-2.36717e-05
-1.44234e-05
9.02692e-06
4.63319e-05
-4.09361e-05
-1.05264e-05
2.1391e-05
-3.14765e-05
2.06131e-05
1.63219e-06
-2.53773e-05
2.0312e-05
3.43405e-06
-3.75365e-06
-9.0479e-06
3.21426e-05
-1.93407e-05
2.31691e-05
-9.84722e-06
-1.02638e-05
-3.05797e-06
-2.77706e-06
-1.23681e-05
1.81337e-05
-2.98831e-06
6.2373e-06
-3.04589e-06
-3.19119e-06
-1.08501e-06
-2.50772e-05
-6.5382e-06
3.27007e-05
-1.47465e-05
2.06274e-05
5.87159e-06
-1.17524e-05
5.56364e-06
-1.37431e-05
2.34857e-05
-1.53062e-05
-4.53371e-05
1.0752e-05
-7.52257e-07
3.53383e-05
-2.58243e-06
-4.28478e-05
3.87695e-05
6.66185e-06
5.74754e-08
-4.06974e-06
4.01371e-06
2.10969e-05
-3.2576e-05
6.22781e-07
1.08564e-05
3.61008e-05
4.1363e-06
-3.89035e-05
-1.33365e-06
1.11403e-05
1.19059e-06
-2.62232e-05
1.38934e-05
-9.40923e-06
1.29833e-05
1.48528e-05
-2.65911e-05
-2.21616e-05
1.3061e-05
3.56896e-05
5.91959e-06
3.11377e-06
-4.2123e-06
6.95906e-06
-5.20715e-06
-2.66192e-05
2.48677e-05
4.64877e-06
1.45967e-05
-6.58762e-06
-1.26577e-05
-7.45109e-06
1.61289e-05
3.2979e-05
-4.16573e-05
1.82259e-07
2.49015e-06
-2.67258e-06
-2.26257e-05
3.59176e-06
1.39136e-05
5.12086e-06
3.37789e-05
-1.81625e-05
-2.28578e-05
7.24154e-06
3.28506e-05
-8.18823e-06
-3.61709e-06
-2.10451e-05
-2.88335e-05
-9.06156e-07
-8.402e-07
3.05799e-05
2.56557e-05
1.17334e-05
-3.55387e-05
-1.85016e-06
6.92793e-06
4.8309e-06
-1.17588e-05
1.78389e-06
-2.55681e-05
-2.0457e-07
2.3988e-05
4.04192e-05
-3.10646e-05
-2.89502e-06
-6.45786e-06
4.63606e-06
-6.5881e-07
-3.70893e-06
-2.6732e-07
-3.24385e-05
4.60225e-05
1.932e-05
-3.2903e-05
1.82514e-05
-2.94293e-05
-2.96258e-06
1.41414e-05
-2.43842e-05
2.64855e-05
-8.81321e-07
-1.21824e-06
-3.13087e-06
1.54837e-06
1.5833e-06
3.54917e-05
-3.92221e-06
9.97323e-06
-4.15422e-05
-2.63913e-05
3.56753e-05
-3.36669e-05
7.69377e-08
2.48153e-06
1.91157e-05
-2.16736e-05
2.77239e-06
-2.67796e-06
-9.47335e-08
-1.14667e-05
-6.4341e-06
1.10054e-06
1.68008e-05
-8.7355e-06
2.18004e-05
-1.66291e-05
3.56459e-06
1.62776e-06
-4.98828e-06
3.11967e-06
2.41467e-07
-1.97392e-06
-1.84079e-06
3.81563e-06
-2.30595e-05
2.29737e-05
2.30428e-05
-2.29575e-05
5.13605e-05
-1.29572e-05
-1.11784e-05
-2.7225e-05
1.34216e-05
5.76549e-07
-4.36891e-07
-1.3561e-05
3.50136e-05
-4.2743e-05
5.91169e-06
1.81782e-06
3.20462e-06
-5.61261e-08
-3.14837e-06
-5.92269e-06
2.86873e-05
-2.75427e-05
4.78119e-06
-1.43419e-05
1.49652e-05
-1.65529e-06
1.03208e-06
-1.07997e-05
9.45226e-06
6.51784e-07
6.95672e-07
2.56966e-06
-2.03857e-05
7.37059e-06
1.04453e-05
-1.1445e-05
-1.07839e-05
2.63051e-05
-4.07604e-06
-1.527e-05
1.49645e-05
2.72217e-07
3.34201e-08
-3.04872e-05
-3.58454e-05
3.58665e-05
-1.13442e-05
3.59642e-05
1.14515e-05
-3.60711e-05
5.9083e-06
3.06049e-05
6.81472e-06
-4.3328e-05
-1.38163e-05
6.12438e-06
1.86524e-05
-1.0961e-05
-1.87305e-08
7.6876e-08
1.10421e-05
-1.10988e-05
1.42539e-06
3.83762e-05
-5.64708e-06
-3.41536e-05
-4.0624e-06
-2.63359e-06
4.38848e-06
2.30777e-06
4.43891e-06
-4.19121e-06
-2.47406e-07
-3.65678e-06
-1.26406e-05
1.0277e-06
-2.92484e-05
4.54839e-07
-5.7306e-06
3.45244e-05
-1.54704e-05
1.38964e-05
4.35969e-07
1.13713e-06
-4.58423e-07
8.56759e-06
-1.35093e-07
-7.97429e-06
-3.00785e-06
2.93721e-06
7.04959e-08
3.18124e-06
-8.17166e-07
2.13269e-05
-2.36914e-05
2.91049e-05
3.27258e-06
-2.53632e-05
-7.01375e-06
-3.37423e-06
-1.56809e-05
-1.01791e-05
1.4261e-05
-1.56925e-05
1.04839e-06
3.81651e-07
7.52717e-06
-3.15216e-05
3.71843e-05
-1.31898e-05
1.14268e-05
2.37085e-06
-6.00325e-06
-7.79276e-06
-1.65924e-05
-3.84708e-05
9.71439e-06
4.53487e-05
5.33902e-08
2.71612e-06
-2.08558e-07
-2.56103e-06
1.01598e-05
-6.61453e-07
1.59909e-06
-1.10959e-05
-1.03324e-05
2.1995e-07
1.02104e-05
-9.69949e-08
2.27984e-05
3.84766e-06
-2.86951e-05
2.04881e-06
-3.11383e-05
-1.7728e-05
3.98889e-05
8.97738e-06
-7.18559e-06
3.06304e-06
-6.65909e-06
6.8299e-06
2.85666e-05
-3.67734e-05
1.37655e-06
-2.29111e-05
-2.31823e-05
9.35969e-06
3.67363e-05
-2.86548e-06
3.12742e-06
-2.62132e-07
1.79884e-05
1.03272e-05
-2.11262e-06
-2.62006e-05
-7.22867e-07
-4.41323e-06
-2.93047e-05
3.44396e-05
-2.18766e-05
5.57631e-06
5.32573e-05
-3.69574e-05
2.74122e-05
-2.04127e-05
-1.07292e-05
3.72718e-06
2.72946e-06
-9.95999e-08
-2.63042e-06
4.32537e-05
-2.1459e-05
2.98526e-06
-2.47803e-05
9.76365e-06
-1.05054e-05
1.32695e-06
-5.84571e-07
2.45078e-06
2.33567e-06
-4.78636e-06
-1.65448e-05
-2.13082e-05
4.31484e-06
3.35365e-05
-1.17967e-05
2.26096e-07
1.22082e-05
-6.36103e-07
2.12824e-05
-4.38004e-05
5.25693e-07
2.19922e-05
-2.14352e-05
-2.63063e-05
3.4983e-05
1.27582e-05
-1.31072e-05
1.76874e-05
2.82705e-05
5.39984e-06
2.86396e-05
-2.99527e-05
-4.08646e-06
1.94604e-06
1.46918e-06
-1.31057e-05
9.69073e-06
-3.35e-05
1.47662e-05
1.19786e-05
6.75577e-06
1.38835e-05
3.64499e-06
-1.58029e-06
-1.59509e-05
-3.359e-06
-2.61407e-05
2.67205e-06
2.68282e-05
6.73498e-06
-2.56884e-06
2.69449e-05
-3.11109e-05
-2.11791e-06
-6.79791e-08
-5.3063e-06
7.49545e-06
6.94593e-07
1.0697e-05
-4.00154e-05
2.86242e-05
-1.42034e-05
-2.88764e-05
-1.06263e-06
4.41408e-05
3.70711e-07
5.22936e-06
-5.59926e-06
8.65471e-08
-1.98611e-07
1.14475e-05
-1.1336e-05
2.67006e-06
1.67224e-05
1.44282e-05
-3.38204e-05
2.87294e-07
-1.50322e-05
1.36872e-07
1.46078e-05
4.23442e-06
-2.07322e-05
-1.58382e-05
3.23363e-05
1.53261e-05
1.89956e-05
-1.65497e-05
-1.77725e-05
3.27843e-05
1.96086e-05
-4.40622e-05
-8.33092e-06
1.30352e-07
-4.56202e-06
4.43161e-06
2.84394e-06
1.38946e-06
-7.70136e-09
-4.22597e-06
2.04094e-06
2.61869e-06
3.36014e-07
-4.99598e-06
2.61769e-06
-3.10096e-06
1.54479e-05
1.79652e-07
-2.91101e-05
1.08848e-05
1.80462e-05
5.79524e-05
6.01762e-06
-1.2159e-05
-5.18136e-05
-8.36495e-06
1.12921e-05
-2.76368e-06
-1.63213e-07
-1.66708e-05
1.58545e-05
-2.68805e-05
2.7698e-05
3.26005e-06
6.16752e-08
-3.32234e-06
1.19622e-06
8.79822e-06
-1.6812e-05
6.81802e-06
3.24394e-06
-4.89295e-06
1.64846e-06
2.78478e-05
-1.48939e-05
-7.39029e-06
-1.66735e-05
6.05734e-06
-1.54537e-05
2.60702e-05
3.30996e-05
-3.22093e-05
5.10905e-06
-5.99877e-06
1.47777e-05
4.97051e-06
-1.76685e-05
-2.08001e-06
3.24693e-06
-3.91361e-05
1.34001e-05
2.24893e-05
2.74904e-05
-5.64212e-06
4.63855e-06
4.9799e-05
-5.54742e-05
2.14045e-06
-3.24387e-05
2.52162e-06
3.34895e-05
-3.57282e-06
-2.96381e-05
-1.9058e-05
3.20259e-05
-1.20192e-05
-1.19183e-05
-1.64812e-05
4.0419e-05
-1.32699e-06
4.59879e-06
3.94213e-05
-4.26918e-05
1.47786e-06
2.872e-05
-4.99042e-05
1.97065e-05
-1.05519e-07
6.1813e-08
1.85151e-05
-1.8472e-05
-4.18802e-05
7.08195e-06
3.18481e-06
3.16104e-05
1.25293e-05
-1.26043e-05
4.30754e-06
-4.23129e-06
7.7402e-07
1.14974e-05
-1.46459e-05
2.37435e-06
-2.33637e-05
3.55141e-05
-4.61278e-06
-7.53746e-06
-3.57874e-05
2.64731e-05
1.67408e-06
7.63824e-06
-2.81583e-05
2.81467e-05
3.68246e-05
-3.68125e-05
3.36817e-05
-2.74851e-05
1.18673e-06
-7.38357e-06
-1.34569e-05
1.73481e-05
-1.04401e-05
6.54915e-06
-7.70524e-06
1.78014e-05
1.50936e-06
-1.16052e-05
-3.72516e-05
3.03782e-06
4.07251e-05
-6.51186e-06
-4.59678e-06
-2.52101e-05
3.86956e-07
2.94204e-05
2.4735e-06
-8.54889e-06
6.84947e-06
9.76314e-06
8.0491e-07
-9.33963e-06
-1.22838e-06
9.93577e-06
1.87358e-05
-2.18687e-05
-6.80185e-06
-1.03859e-05
1.43745e-05
2.45998e-05
-2.85894e-05
9.22834e-07
4.37041e-06
-3.67954e-05
3.15027e-05
1.72636e-05
-2.61984e-05
8.68469e-06
2.51254e-07
-4.02989e-05
-6.46954e-06
1.09823e-05
-3.32887e-06
-8.79767e-07
-2.48615e-05
2.90691e-05
-3.37294e-06
4.13911e-08
3.33175e-06
-5.22871e-06
-6.65423e-06
4.32133e-05
-3.13303e-05
5.44177e-06
-5.17657e-06
-2.63716e-07
2.60363e-07
2.06132e-07
-9.83442e-06
9.36844e-06
-1.94708e-05
1.89094e-05
3.33455e-05
5.88848e-06
3.28608e-05
-2.35919e-05
-1.51568e-05
4.61632e-06
-4.68905e-06
7.23684e-08
-4.46592e-06
4.97593e-05
-2.75093e-05
-1.77819e-05
-2.66613e-05
2.85181e-05
1.94253e-05
-2.16289e-06
2.52507e-05
1.12145e-05
-3.43023e-05
-3.39247e-05
-1.25904e-05
4.5242e-05
1.27355e-06
-4.88333e-06
4.43075e-06
4.52201e-07
3.3132e-05
-3.52881e-05
-4.18684e-07
2.57659e-06
-2.16255e-05
-1.35689e-05
1.95237e-05
1.56711e-05
-3.96156e-06
1.81533e-06
-2.2444e-05
2.45909e-05
-2.85401e-05
-7.54761e-06
7.12451e-07
3.53757e-05
-1.78947e-05
-8.97451e-06
-6.8325e-06
1.6031e-05
-3.66674e-05
-3.16925e-06
2.38053e-05
8.27705e-06
-3.44562e-05
-1.05038e-05
3.66821e-05
7.67658e-06
-7.30857e-06
-3.68413e-07
-2.9151e-05
4.88879e-05
-6.92346e-06
-1.28115e-05
-6.40354e-06
-2.6806e-05
3.03197e-05
2.89011e-06
-4.60962e-05
4.7257e-05
-5.43434e-06
4.2733e-06
-2.71164e-05
-6.74987e-06
1.93933e-05
1.44734e-05
-2.66524e-05
-5.70487e-06
3.24472e-05
-8.69463e-08
-3.70132e-07
9.52003e-08
-1.29509e-05
1.32258e-05
3.5459e-06
1.75759e-07
-3.72186e-06
-6.48988e-06
6.55673e-06
-6.74591e-08
4.33139e-05
-3.7015e-05
-5.03557e-05
4.40519e-05
3.02694e-06
1.23506e-07
-3.15011e-06
-2.94741e-05
2.9002e-05
-3.73415e-07
8.45474e-07
-1.08112e-05
9.15467e-06
2.13723e-07
1.44435e-06
4.93968e-06
5.04583e-05
-2.72379e-05
-2.81599e-05
-2.87752e-05
-8.95537e-06
3.54451e-06
3.41844e-05
3.35961e-05
1.51303e-05
-1.51303e-05
-3.35963e-05
1.318e-05
-4.9067e-06
1.6483e-06
-9.92235e-06
3.69797e-05
-3.51111e-06
-2.66932e-05
-6.77671e-06
-4.09425e-06
6.08645e-06
-6.73416e-06
4.74156e-06
-2.66184e-06
8.59425e-06
3.17305e-06
-9.10512e-06
-1.4546e-05
-7.45044e-06
4.08894e-05
-1.88911e-05
6.41236e-06
2.49047e-05
-2.43679e-05
-6.94942e-06
-2.25475e-05
2.32401e-05
1.49997e-05
-1.56923e-05
2.33858e-05
-2.11655e-05
-2.83217e-06
6.14398e-07
-6.32103e-08
-1.13529e-05
-4.5859e-08
1.14629e-05
-7.27106e-06
1.37017e-05
-1.48442e-06
-4.94642e-06
-3.2938e-05
-1.13556e-05
1.63609e-05
2.79318e-05
2.42311e-05
-2.04421e-05
-4.14976e-06
3.6155e-07
9.4154e-06
-3.2139e-05
-3.68688e-05
5.95938e-05
2.06581e-05
-2.68553e-05
-1.31081e-05
1.93064e-05
-6.22558e-06
-5.48609e-05
1.4829e-05
4.62561e-05
1.7777e-05
-1.57924e-05
2.41227e-06
-4.39683e-06
3.08045e-05
-1.09889e-05
-3.67376e-05
1.69196e-05
1.30599e-05
2.22373e-05
-5.12621e-05
1.59632e-05
-7.77601e-06
3.12562e-05
-2.75494e-05
4.06943e-06
-2.94352e-05
3.35985e-05
3.4115e-05
-3.82779e-05
-1.42753e-07
-1.42362e-05
1.24396e-05
1.93977e-06
4.23271e-06
-3.97531e-06
-2.56025e-07
3.81699e-05
-4.7322e-05
1.37623e-06
-4.19539e-06
5.67013e-06
2.96341e-06
-4.43736e-06
-3.05462e-06
1.34877e-07
-1.48798e-06
4.40864e-06
1.8512e-05
-2.43956e-06
1.80891e-05
-2.75321e-05
1.13839e-06
8.30459e-06
-9.22633e-06
-2.28924e-06
8.73871e-06
2.54014e-05
-3.32219e-05
1.88822e-05
-1.1061e-05
-2.80088e-05
-4.0222e-06
3.36126e-05
-1.58123e-06
-5.66069e-05
-8.61587e-06
5.01069e-05
1.51135e-05
-4.17149e-05
1.14658e-05
9.52997e-07
2.92967e-05
-4.24468e-06
3.43597e-07
8.77478e-07
3.02353e-06
-2.66247e-05
-3.20965e-05
2.45153e-05
3.42064e-05
1.94055e-05
1.68881e-05
-2.90831e-05
-7.20952e-06
1.61762e-07
1.4633e-05
-1.24124e-05
-2.38272e-06
-3.56774e-07
-1.92958e-05
3.79033e-05
-1.82507e-05
3.97566e-05
-2.83976e-05
-1.51124e-05
2.82378e-05
-3.17801e-05
6.34944e-06
-2.8088e-06
-3.98182e-06
-2.60718e-05
2.82975e-05
1.75745e-06
4.04819e-05
-2.78157e-06
-4.16806e-05
2.3392e-05
-2.61501e-05
6.39648e-06
-3.63893e-06
1.80852e-06
-1.20408e-05
-9.9109e-07
1.12237e-05
-2.58889e-06
2.49127e-06
-2.9912e-06
3.08874e-06
-1.84095e-06
4.58435e-06
1.50695e-06
-4.2503e-06
-7.2735e-06
-1.92695e-05
-1.45614e-06
2.79996e-05
1.09379e-05
8.73937e-06
-2.9779e-05
1.01019e-05
-1.87073e-05
5.9529e-07
6.69757e-06
1.14145e-05
-1.72845e-06
-1.82518e-05
1.77263e-05
-2.31159e-05
2.73234e-05
8.63448e-06
-1.28413e-05
-3.35128e-05
3.88855e-05
-1.23918e-05
7.01993e-06
-5.9732e-06
-1.97637e-05
2.16874e-06
2.35682e-05
1.46484e-06
3.46648e-05
-4.05561e-05
4.4252e-06
1.73808e-05
-5.49671e-05
1.179e-05
2.57959e-05
4.97868e-06
-3.81525e-05
2.08509e-05
1.23233e-05
1.5903e-06
2.08998e-05
-7.17948e-06
-1.53105e-05
-4.02929e-06
1.93808e-06
3.95093e-06
-1.85923e-06
-3.96192e-06
7.8952e-06
-2.92712e-05
2.5338e-05
-1.5621e-06
-1.1229e-05
2.95451e-07
1.24953e-05
1.72172e-07
1.15466e-05
-1.85708e-07
-1.1534e-05
1.7566e-07
2.50994e-07
1.176e-05
-1.21852e-05
-9.37481e-06
-1.59789e-05
2.8325e-05
-2.97017e-06
3.33826e-06
-3.29106e-05
1.77353e-05
1.18379e-05
3.32576e-05
8.4123e-07
2.62546e-06
-3.67252e-05
2.73752e-06
-2.80288e-06
6.54396e-08
1.07102e-05
2.16456e-05
-2.7377e-05
-1.13282e-05
4.53466e-08
1.3285e-07
1.11516e-05
2.15689e-06
-2.76501e-05
1.00388e-05
1.54548e-05
8.96587e-07
7.4511e-06
-7.54385e-06
-8.0451e-07
-5.70369e-06
-1.20937e-05
2.31731e-05
-5.37542e-06
2.84351e-05
-3.12987e-05
2.69399e-05
-2.40748e-05
1.90906e-05
-8.7411e-06
-3.25495e-05
2.21999e-05
-1.97721e-06
-1.87809e-06
3.85479e-06
1.18265e-05
2.5284e-06
-3.41727e-06
-1.09376e-05
-2.47832e-05
3.70831e-05
2.93301e-06
2.47156e-06
-5.40395e-06
2.24396e-06
-3.0976e-05
-3.38577e-07
2.90708e-05
-2.00604e-07
5.84623e-07
2.12619e-05
-1.32593e-06
2.25363e-05
-4.46972e-05
2.34865e-05
-7.20503e-06
-2.06476e-05
-2.93073e-06
3.07843e-05
5.72846e-06
-9.40128e-06
9.70999e-06
-6.03785e-06
-7.20828e-06
-3.52121e-05
-4.42003e-06
4.68418e-05
1.97482e-05
3.7267e-06
-2.27425e-05
-7.32318e-07
6.58256e-06
3.11531e-05
-5.15358e-05
1.37995e-05
-2.42269e-06
-1.42299e-05
-8.31414e-06
2.49669e-05
-1.91495e-05
-6.1254e-06
1.00631e-05
1.52134e-05
-1.11057e-06
-1.16288e-06
-1.3083e-05
1.53564e-05
3.96168e-05
-1.64967e-05
-9.58221e-06
-1.35372e-05
-2.45183e-05
5.96462e-05
-3.28732e-05
-2.25413e-06
1.1354e-05
2.92781e-07
3.01213e-07
-1.195e-05
2.98065e-05
-3.56502e-05
3.55659e-05
-2.97231e-05
-5.3314e-06
1.67246e-05
-1.35196e-05
2.12585e-06
1.46806e-05
-5.3531e-05
2.09328e-06
3.67574e-05
9.89888e-06
4.74725e-05
-4.06199e-05
-1.67512e-05
6.46747e-06
-6.30306e-06
-1.03759e-05
1.02122e-05
-2.25969e-05
-1.37586e-05
4.01516e-05
-3.7967e-06
3.54693e-05
-2.87121e-05
-4.22606e-05
3.55012e-05
1.81121e-05
1.50429e-05
-9.46723e-06
-2.36856e-05
1.31554e-07
-1.55192e-05
9.05503e-08
3.95112e-06
-4.04122e-06
-3.42779e-06
3.31641e-06
1.1136e-07
2.61299e-05
-2.46106e-05
-2.25625e-05
2.10437e-05
-7.28788e-06
9.29688e-06
-2.65128e-05
2.45027e-05
3.93644e-05
-3.07111e-05
-6.42215e-06
-2.23095e-06
-4.81532e-06
1.19134e-06
3.13463e-06
-8.61442e-06
3.04385e-05
-8.25078e-06
-1.35731e-05
-4.22537e-05
1.05793e-06
1.45769e-05
2.66175e-05
1.5065e-05
-6.4449e-06
-1.4745e-05
6.1253e-06
8.40495e-06
3.75705e-05
-3.52682e-05
-1.07063e-05
-2.20719e-05
-4.39368e-06
4.19519e-05
-1.54855e-05
2.16858e-06
2.4217e-05
5.37618e-06
-3.17618e-05
8.19317e-06
2.64589e-05
-3.24838e-05
1.91042e-05
-1.40887e-05
-7.40148e-06
2.38501e-06
2.29514e-05
-2.93386e-05
1.29699e-05
-1.32624e-05
8.46871e-06
7.87982e-06
-3.08628e-06
9.71731e-06
1.13538e-05
2.27243e-05
-4.37945e-05
4.41901e-06
-2.72931e-05
-4.26351e-06
2.71354e-05
3.97974e-07
2.7547e-05
2.50113e-06
-3.04453e-05
1.28759e-05
2.43332e-05
-4.05541e-05
3.34467e-06
-5.64943e-05
4.69058e-05
-7.27875e-07
2.07853e-07
3.87975e-05
-3.01187e-06
-3.59954e-05
-3.36694e-06
7.50849e-06
-1.02806e-05
6.14008e-06
-8.25893e-07
-3.6084e-06
2.44566e-07
4.18997e-06
-3.47028e-06
3.34547e-06
1.24629e-07
-4.9162e-06
-8.20569e-06
3.78096e-05
-2.46874e-05
-3.07438e-05
4.58906e-06
-1.35228e-05
3.96775e-05
4.37726e-05
-1.06158e-05
-1.41834e-05
-1.89717e-05
3.4365e-06
-3.19704e-05
1.15552e-05
1.69793e-05
3.50002e-06
-3.16722e-06
-1.22108e-06
8.87667e-07
-4.03937e-06
3.8929e-06
1.46868e-07
1.92135e-06
2.71841e-05
-4.85444e-06
-2.42497e-05
-5.43313e-06
2.65142e-05
-3.44936e-05
1.34136e-05
1.19402e-05
2.01984e-05
-4.66382e-05
1.44997e-05
-1.99452e-06
2.58865e-05
1.91305e-05
-4.30226e-05
-4.15383e-05
2.22531e-05
2.41645e-05
-4.87952e-06
3.91209e-05
-4.00061e-05
7.98049e-06
-7.09501e-06
-3.14919e-05
-6.03034e-07
-9.44295e-06
2.38228e-07
5.38012e-06
-5.61852e-06
2.99391e-05
4.02542e-06
-2.47522e-05
-9.21277e-06
-1.90074e-06
-2.73436e-06
1.29878e-05
-8.35292e-06
3.03639e-06
5.32183e-07
9.97343e-06
-1.35419e-05
-3.3864e-05
1.51266e-05
1.63913e-05
2.34598e-06
1.36489e-05
-2.16308e-05
-3.11153e-06
1.10935e-05
-2.47826e-05
5.64886e-06
4.06358e-05
-2.15016e-05
-3.17909e-06
-1.93632e-07
3.37084e-06
-1.49315e-05
3.80268e-05
2.69137e-05
-5.00089e-05
3.36757e-05
9.41865e-07
-5.34739e-05
1.88566e-05
-2.34883e-06
3.45311e-05
-3.00417e-06
-2.91779e-05
1.86921e-05
-1.4528e-05
1.12297e-05
-1.53929e-05
-1.3198e-06
-2.43149e-05
2.73211e-05
-1.68613e-06
-2.17125e-05
-3.40466e-06
-1.47487e-05
3.98641e-05
-7.96106e-06
-8.46062e-06
-1.47427e-05
3.11625e-05
-1.27904e-06
3.57536e-05
-3.8781e-06
-3.05963e-05
2.30486e-05
-2.29291e-05
6.65635e-07
-7.85025e-07
3.76571e-05
9.26353e-08
-2.60816e-05
-1.16669e-05
-8.61774e-06
-4.38412e-06
-2.46421e-05
3.76434e-05
-3.03785e-07
-3.18204e-06
3.4855e-06
-3.19745e-05
4.76245e-05
-3.63978e-06
-1.20096e-05
2.7529e-06
1.89845e-05
6.10292e-06
-2.78423e-05
-4.41066e-06
1.02245e-05
3.60492e-06
-9.41905e-06
-1.59716e-05
-3.96484e-06
1.65864e-05
3.35221e-06
2.09794e-05
1.47721e-05
-5.27191e-05
1.69679e-05
1.23193e-05
-9.557e-06
3.08415e-05
-3.3603e-05
-2.44466e-06
1.99318e-05
1.64068e-06
-1.91277e-05
3.07633e-06
-3.0281e-06
-4.82837e-08
2.58064e-06
3.23469e-05
1.3741e-06
-3.63019e-05
2.86015e-05
-4.51117e-06
-2.74715e-05
3.382e-06
-5.42871e-06
6.65296e-06
-3.09435e-05
2.97208e-05
-2.86334e-05
-4.44239e-06
2.22353e-05
1.08432e-05
1.08385e-05
-1.02665e-05
-9.30422e-08
-4.79579e-07
-4.24008e-05
2.75635e-05
-1.63622e-06
1.64743e-05
-4.83688e-06
4.0762e-06
7.60756e-07
1.36998e-05
-1.17159e-05
1.81097e-05
-2.00945e-05
1.95602e-05
1.64094e-05
-8.55328e-06
1.44399e-05
-3.90098e-05
-1.7585e-05
4.21535e-05
1.40375e-07
-1.57213e-05
1.57866e-05
-2.06548e-07
8.8033e-06
-1.43486e-05
-1.65635e-05
2.21097e-05
1.41712e-05
6.1554e-06
-2.37426e-06
-1.79523e-05
-4.31173e-06
1.01815e-06
5.48571e-06
-2.19217e-06
-4.59179e-06
5.64534e-05
-1.91664e-05
-3.26922e-05
1.53896e-05
1.76078e-05
-8.57453e-07
-3.21399e-05
1.41722e-07
3.07189e-06
-3.21325e-06
-9.80947e-07
5.45271e-06
3.25392e-05
-3.70098e-05
4.14565e-05
5.40828e-06
-2.02256e-05
-2.66386e-05
-1.09345e-06
5.71839e-06
-4.50984e-06
-1.15677e-07
1.37588e-05
-1.2448e-06
-1.49681e-05
2.45631e-06
-4.15191e-06
-1.31397e-05
6.72889e-06
1.05632e-05
-6.11195e-06
2.78626e-05
4.50344e-06
-2.62547e-05
3.04491e-05
-4.10505e-06
-3.30683e-05
6.72457e-06
-2.989e-06
5.78692e-06
-2.79788e-06
2.58455e-06
-1.13408e-05
1.01234e-05
-1.36759e-06
6.88082e-07
1.08536e-05
-1.14408e-05
-1.01271e-07
1.08833e-05
1.2678e-05
-1.44437e-06
-2.21173e-05
2.12723e-05
2.9038e-05
-1.98614e-05
-1.36361e-07
4.03396e-06
-3.89754e-06
-4.04674e-05
1.99954e-05
3.77254e-05
-1.72556e-05
3.98604e-05
7.01769e-06
-4.18099e-05
-5.06823e-06
2.79973e-05
-1.87465e-05
-3.0962e-05
8.34075e-06
1.43278e-05
-3.47691e-05
-2.02049e-06
-7.50433e-06
4.42945e-05
-9.65997e-08
3.97069e-06
-3.87443e-06
3.88276e-05
-1.51019e-06
-4.55756e-06
-3.27605e-05
4.18362e-06
-4.18205e-06
-7.29925e-10
-1.23713e-05
3.0908e-06
-7.59267e-06
1.68734e-05
-2.16762e-05
-1.82981e-05
1.64256e-05
2.35493e-05
2.09523e-05
-1.60238e-05
-4.39959e-06
-5.2795e-07
-4.59448e-08
3.19292e-06
-3.14828e-06
-7.1636e-07
-4.17203e-06
1.47252e-08
4.87443e-06
7.82605e-06
3.10988e-06
-5.50164e-06
-5.43479e-06
-1.21347e-05
1.31338e-05
-1.71537e-06
-2.86867e-07
4.22417e-05
-1.19791e-06
-4.07566e-05
-7.52261e-06
-7.45738e-07
9.86238e-06
-1.59438e-06
3.5907e-06
-1.42424e-05
1.1223e-05
-5.71293e-07
1.07836e-05
-2.02016e-05
1.44175e-05
-4.9993e-06
8.74094e-06
2.02739e-05
3.4362e-06
-3.24499e-05
5.7296e-06
-5.88162e-06
1.5172e-07
1.58313e-05
-1.2888e-05
-3.25148e-05
2.95687e-05
1.09408e-06
1.18824e-06
1.59654e-05
-1.82477e-05
4.29492e-06
1.88121e-05
-2.40247e-05
9.17383e-07
1.19668e-05
-5.38989e-07
-1.8905e-06
-9.53709e-06
1.07271e-05
2.23814e-05
-3.29119e-05
-1.97324e-07
1.45213e-05
-1.03052e-07
-1.24689e-06
-1.31714e-05
-2.60182e-05
9.43975e-06
1.30004e-06
1.52774e-05
-1.22568e-05
-1.15289e-05
-1.56995e-06
1.0217e-05
-1.79068e-05
1.34854e-05
-5.79734e-06
-4.39754e-06
-1.80605e-05
-2.71449e-05
4.96027e-05
-6.10741e-06
7.56334e-06
-1.73996e-06
2.8428e-07
4.40341e-08
2.65718e-06
-2.70175e-06
-7.80935e-06
4.03627e-05
1.2098e-05
-4.46521e-05
3.0553e-05
1.28018e-05
-1.1326e-05
-3.20302e-05
2.77524e-05
-2.33284e-05
2.69012e-05
-3.13248e-05
3.53301e-05
-3.897e-05
4.37458e-06
-7.348e-07
-5.68273e-05
2.47657e-05
1.0599e-05
2.14627e-05
-1.21003e-05
-1.50251e-06
1.33047e-05
2.97906e-07
3.42378e-05
-4.56813e-05
1.59961e-05
-4.5522e-06
1.09391e-05
-1.19889e-05
3.80872e-06
-2.75871e-06
-1.72829e-05
1.57055e-05
-1.06782e-05
-1.44536e-05
4.87942e-05
5.36937e-06
-3.97086e-05
-5.60505e-06
1.47503e-07
5.45719e-06
-4.79114e-06
1.07557e-05
-3.99798e-05
-2.04993e-05
-3.51582e-07
2.03115e-07
2.06477e-05
4.76973e-06
1.20691e-07
-4.88948e-06
8.4604e-06
-5.3745e-07
-3.05136e-05
2.25908e-05
-5.98006e-08
-2.05541e-07
1.09663e-05
-1.07017e-05
8.43971e-06
1.81634e-05
-3.04277e-05
3.82542e-06
2.68473e-05
1.86931e-06
1.75136e-06
-3.04659e-05
-2.72654e-06
6.38147e-06
3.93522e-05
-4.30065e-05
-9.05809e-06
-1.10283e-06
-3.75536e-07
1.05368e-05
-9.32524e-06
8.06156e-06
-3.22054e-05
3.34683e-05
-1.42354e-06
2.54629e-05
-2.22281e-05
-1.81041e-06
3.85285e-05
1.18261e-05
-1.75639e-05
-3.27901e-05
8.39679e-06
-4.56132e-05
2.97651e-05
-3.8584e-05
4.92948e-05
-2.30595e-06
2.14001e-05
-8.39231e-06
1.75445e-05
-1.39232e-05
-3.43935e-06
6.75233e-06
1.06101e-05
-7.33502e-06
7.66062e-07
6.692e-06
-1.24231e-07
-1.23541e-05
3.10752e-05
-2.17809e-05
3.05908e-06
-3.37376e-05
3.00626e-05
3.20357e-05
-2.83609e-05
-3.42826e-06
3.15187e-06
1.81952e-07
9.49884e-08
3.3829e-05
-4.94848e-05
-1.84441e-05
3.40988e-05
-4.55181e-05
-1.82326e-05
3.04852e-05
3.32652e-05
4.11463e-05
4.32817e-06
2.07175e-06
-4.75464e-05
3.52113e-05
-2.36379e-05
2.95729e-05
-3.86654e-05
-3.72594e-06
1.51175e-05
2.72756e-05
3.3431e-06
2.80417e-07
-3.62321e-06
3.89446e-05
-3.6005e-05
-1.22415e-05
9.30198e-06
-2.0773e-05
-7.32686e-06
6.07183e-06
2.20265e-05
1.5614e-05
2.69461e-05
-1.54594e-05
-2.71012e-05
7.03928e-06
2.2208e-05
-2.15933e-05
-7.65281e-06
4.81697e-07
-6.62329e-06
6.14176e-06
-1.7978e-05
-1.58562e-05
1.54723e-05
1.8363e-05
1.63665e-06
2.05355e-05
-4.78481e-06
-1.73884e-05
-3.46979e-05
3.48349e-05
-6.54231e-06
-3.00266e-06
3.90227e-05
-3.80757e-05
2.05636e-06
2.05602e-05
4.21851e-06
1.11917e-05
-3.59699e-05
-5.80274e-08
-2.30976e-06
2.36827e-06
-3.36475e-06
3.34786e-06
1.7703e-08
-2.57774e-05
-1.23501e-05
1.4857e-05
2.32711e-05
-3.27926e-05
-7.70535e-07
3.97014e-05
-6.13704e-06
-9.90133e-06
3.63563e-05
-3.763e-05
1.11751e-05
-2.62214e-05
2.14094e-05
-9.57377e-06
1.43853e-05
3.69634e-07
2.11233e-05
-2.36636e-05
2.17025e-06
-3.61911e-05
8.07821e-06
2.36291e-05
4.48355e-06
2.31778e-06
4.7755e-05
-1.80391e-05
-3.20343e-05
2.27878e-06
-4.25589e-06
-2.349e-05
-1.21617e-05
9.87396e-06
2.04449e-05
-1.31311e-06
3.43751e-06
-2.25692e-05
-2.03997e-06
-4.76742e-06
6.00341e-06
8.06173e-07
1.39229e-05
-4.22637e-06
-9.89451e-06
1.98571e-07
1.30153e-05
-4.40776e-05
4.22224e-05
-1.11586e-05
-1.69534e-05
2.98839e-05
4.32425e-06
-1.72535e-05
-3.5634e-06
4.2358e-06
2.81837e-05
-2.88564e-05
-3.81904e-05
2.8329e-06
3.89485e-07
3.49711e-05
-2.14166e-05
2.53977e-06
1.72246e-05
1.65304e-06
-2.62654e-05
1.62301e-05
3.71566e-05
-2.71206e-05
-1.44911e-05
-2.67909e-05
7.33327e-06
3.3949e-05
5.27719e-06
-4.17632e-05
-5.00542e-06
4.14921e-05
-3.19308e-05
4.23697e-06
-1.36365e-06
2.90571e-05
-3.3379e-05
-2.40212e-06
-2.27071e-06
3.80526e-05
7.32468e-06
-3.99245e-06
3.61247e-05
-3.94562e-05
7.23993e-06
-4.13729e-06
-1.51528e-08
-3.08712e-06
4.79924e-06
-5.01347e-05
-7.6645e-06
5.30006e-05
-4.16578e-06
2.64156e-06
2.12937e-06
-6.05819e-07
-2.87878e-05
-7.55527e-06
1.58093e-05
2.05338e-05
-1.47259e-06
1.43151e-05
2.69865e-06
-1.55406e-05
-1.3103e-05
-1.41969e-05
9.34006e-06
-6.16839e-06
2.47288e-06
3.1911e-05
-2.82142e-05
2.47955e-05