/*--------------------------------*- C++ -*----------------------------------*\
| =========                 |                                                 |
| \\      /  F ield         | OpenFOAM: The Open Source CFD Toolbox           |
|  \\    /   O peration     | Version:  2406                                  |
|   \\  /    A nd           | Website:  www.openfoam.com                      |
|    \\/     M anipulation  |                                                 |
\*---------------------------------------------------------------------------*/
FoamFile
{
    version     2.0;
    format      ascii;
    arch        "LSB;label=32;scalar=64";
    class       volVectorField;
    location    "40";
    object      U;
}
// * * * * * * * * * * * * * * * * * * * * * * * * * * * * * * * * * * * * * //

dimensions      [0 1 -1 0 0 0 0];

internalField   nonuniform List<vector> 
59516
(
(0.105612 -0.000127723 -0.000513802)
(0.0981586 -0.00011143 -0.000416355)
(0.113609 -0.00101294 -0.00032526)
(0.129299 0.00163432 0.00193411)
(0.113787 0.000212661 -0.00454428)
(0.101091 -0.0048346 -0.0107984)
(0.128864 -0.000609976 -0.00172189)
(0.103196 0.000798468 -5.18482e-05)
(0.112961 0.000952205 2.20319e-06)
(0.0550722 -0.000991925 0.00217073)
(0.153261 -0.000119298 -0.00204116)
(0.060769 0.000395604 -0.00354312)
(0.119941 0.00107636 -7.22072e-05)
(0.0199543 -8.97439e-05 -0.000211469)
(0.0613396 0.00149903 0.0032231)
(0.0523744 0.0035748 -0.00171833)
(0.166432 -0.000518748 -0.000502711)
(0.0701769 0.00396473 -0.0042752)
(0.11477 0.00560152 0.000816847)
(0.163109 -0.000366794 0.000522424)
(0.0543302 0.00080253 -0.00113779)
(0.148707 -0.000523684 0.000316734)
(0.154384 0.000130358 -0.00105486)
(0.0339405 -0.00102637 -0.000247681)
(0.159591 -0.000482469 0.000946224)
(0.0663193 0.00137475 0.000692079)
(0.0422011 0.00085382 -0.00280225)
(0.0445059 0.00373176 0.000261552)
(0.0660058 0.00251882 -0.000367764)
(0.0177121 -0.00275557 0.000720241)
(0.108343 -0.0210308 -0.00463272)
(0.0457628 0.00358808 -0.000550288)
(0.133389 0.000172237 0.000823465)
(0.112743 -0.000796485 0.00232422)
(0.139117 0.00461147 0.00354477)
(0.146156 -1.02435e-05 -0.000205137)
(0.0170814 -0.00166028 -0.00235041)
(0.0700653 0.00266837 -0.00670513)
(0.0958817 -0.00348938 -0.000260613)
(0.157398 -0.00106254 -0.00043124)
(0.101956 -0.000699682 7.25657e-05)
(0.143877 -0.00814744 -0.00750419)
(0.148252 -0.00312307 -0.00248232)
(0.108312 -0.000727112 0.000380586)
(0.143141 -0.00388395 -1.38662e-05)
(0.0555107 -0.000763241 -0.0012979)
(0.132788 -0.0024813 -0.00374776)
(0.16181 -0.00380387 -0.000591604)
(0.111878 -0.00903008 0.0124274)
(0.150269 0.00605246 0.00499733)
(0.10405 0.0104715 -0.0145256)
(0.0443167 -0.00362747 0.00245417)
(0.120614 0.000935938 -0.00224963)
(0.128005 -0.000516774 1.27121e-05)
(0.0478965 0.00286954 3.44407e-05)
(0.130005 0.0021616 -0.000615231)
(0.144536 0.00802808 0.00841663)
(0.0476715 0.00395281 -0.00276604)
(0.168317 0.000206541 -0.000106847)
(0.135013 0.00603883 0.00770311)
(0.148852 -0.00029159 0.000370884)
(0.0193061 0.00235045 -0.000831319)
(0.162268 0.000561258 -7.36042e-05)
(0.163156 0.00177745 0.00100133)
(0.12378 0.000312834 -0.000578672)
(0.14683 0.00315633 0.00437077)
(0.0262522 -0.00177268 0.00239059)
(0.0412798 0.000209854 -0.000194942)
(0.121471 -0.00506302 0.0222379)
(0.136157 0.00123362 -0.00210205)
(0.0371557 0.00104262 0.000311331)
(0.160802 0.00118048 0.000165769)
(0.0232644 0.00145753 -0.00353504)
(0.142673 0.000318703 0.000326452)
(0.17356 -8.25562e-05 -4.30389e-05)
(0.157306 -0.00146723 -0.00179508)
(0.162539 -0.00165419 -0.00252733)
(0.147762 -4.56156e-05 -0.000259087)
(0.0461762 -0.00155601 0.00141319)
(0.150765 0.00287963 0.00698844)
(0.0386449 0.00231394 0.00105261)
(0.146151 0.00369068 0.00534307)
(0.139395 0.00175656 0.00512835)
(0.0202223 -0.000779181 0.00279811)
(0.146078 0.00299463 0.00566516)
(0.170016 -0.000206638 0.000650593)
(0.0327813 -0.00116902 0.00052343)
(0.149998 0.000389531 0.000657644)
(0.0548135 0.000689913 0.00231189)
(0.107256 0.00834671 -0.00569704)
(0.131525 -0.000850097 -0.0113251)
(0.138447 0.0017728 -0.000209758)
(0.167863 -1.07154e-05 -0.000128026)
(0.137038 0.00123173 -0.000278716)
(0.157717 0.000413618 4.81728e-05)
(0.109954 -0.0105776 0.00397751)
(0.140245 -0.000521625 0.000770278)
(0.0537551 -0.00177138 -0.00416459)
(0.0648529 0.00233603 -0.00092645)
(0.147718 -0.000888014 0.00151035)
(0.0378113 0.000639413 0.00139754)
(0.0247351 0.00122025 -0.0028201)
(0.0233801 0.00082812 0.00322612)
(0.0547168 -0.000829681 -0.00287163)
(0.135737 0.000639478 -0.000202361)
(0.145779 -0.00010033 0.000271484)
(0.0401496 0.00347401 -0.0014368)
(0.106118 0.0003576 -0.000684786)
(0.10202 -0.000714602 5.8004e-05)
(0.0664984 0.000414971 -0.00268384)
(0.124925 0.0128468 -0.0134872)
(0.0310285 0.0031251 -0.000417687)
(0.0672783 0.000826736 -0.00407197)
(0.118041 0.0173356 -0.00870651)
(0.158137 -1.07588e-05 -9.40861e-05)
(0.101851 0.0010757 0.0010255)
(0.0545127 0.000553821 -0.0020967)
(0.133818 3.20406e-05 0.000821438)
(0.0221553 -0.000293583 0.0010727)
(0.146437 0.00140491 0.00038634)
(0.174679 -0.000476626 0.000370628)
(0.16397 -0.00010463 0.000378015)
(0.157325 -0.000415913 0.000693223)
(0.162597 -0.000509944 0.000545898)
(0.132299 -0.0176247 0.0027743)
(0.0903718 0.00119343 -0.00275858)
(0.0300274 -0.000512298 0.00196849)
(0.138221 -0.0133414 -0.000989544)
(0.0898379 -0.00275994 0.0131312)
(0.171713 0.000530439 6.46468e-05)
(0.173129 0.000403197 0.000473088)
(0.113873 0.00161993 0.00191396)
(0.0235794 0.00135986 -0.00161925)
(0.148287 -9.98064e-05 0.000656122)
(0.103004 0.00114836 0.000285931)
(0.117398 -0.00079384 -0.00189065)
(0.107537 0.0127393 -0.00893124)
(0.131089 -0.00036202 0.000468752)
(0.0398929 0.00269727 0.000108168)
(0.0998697 0.000407575 -0.00125003)
(0.0441619 -0.000894207 -0.00220689)
(0.174467 -0.000429312 0.000314163)
(0.0188315 0.000841617 0.00165354)
(0.126588 -0.00121012 -0.000401196)
(0.169545 0.000486596 0.000248902)
(0.141645 0.00150222 2.64747e-05)
(0.1407 -0.00439965 -0.00139969)
(0.119008 0.00111797 -0.00240254)
(0.0621316 -0.00100628 0.00173344)
(0.108073 -0.000777849 -0.000841146)
(0.104918 -3.19735e-05 -0.000834508)
(0.035335 -0.00131491 2.40587e-05)
(0.16393 -0.000884471 0.00105149)
(0.153508 -0.00043116 0.000574454)
(0.0907341 -0.000408638 0.00199751)
(0.0188987 -0.000392088 0.00204579)
(0.114691 -3.98238e-05 -0.000156058)
(0.115261 0.00119034 -0.000233368)
(0.083843 0.00116969 0.00012092)
(0.019419 0.0023284 -0.00254311)
(0.0650857 0.00149935 -0.00335065)
(0.0670201 -0.00358584 -0.00233692)
(0.0350323 -0.00146166 0.000352921)
(0.0253356 -0.000217539 -0.000498794)
(0.101154 0.00179183 0.0023621)
(0.168185 0.000277481 0.00110469)
(0.0614719 -0.000686251 0.000335273)
(0.170643 0.000603119 -7.51915e-05)
(0.0197916 -0.00120389 0.0022935)
(0.135925 -0.000522248 0.000146436)
(0.0849522 0.00132753 0.00115372)
(0.0520997 0.00074502 -0.000790123)
(0.0641985 0.00160324 0.000870184)
(0.137254 -0.000599184 0.000623722)
(0.0500932 -0.000813395 0.00028229)
(0.135182 -0.00128312 -0.00463317)
(0.165237 -0.000200212 -0.00103167)
(0.149353 -0.00481437 -0.00288375)
(0.0671554 -0.000872455 0.00315874)
(0.0409208 -0.000154936 -0.000525709)
(0.145708 0.00193298 0.000757628)
(0.0333512 -0.00287888 -0.00129914)
(0.028779 -0.000343311 -0.00226578)
(0.0644174 -0.00168579 0.000177083)
(0.17079 -8.60405e-05 0.000531824)
(0.0587545 0.00031428 0.000696073)
(0.035194 -0.000622973 -0.00271233)
(0.0229194 3.73252e-05 0.000297781)
(0.12273 0.000107709 -2.23139e-05)
(0.101187 -0.0017572 -0.000164252)
(0.135278 -0.000688139 0.00280117)
(0.0517477 0.00311773 4.48253e-05)
(0.161088 -0.000524271 -0.000199536)
(0.0568382 0.00223793 2.56631e-05)
(0.154109 -0.000134586 -0.000160736)
(0.0292611 -0.000258144 0.000800862)
(0.0568696 0.000752008 -0.000175108)
(0.0405127 -0.0010727 0.000293115)
(0.110806 0.00281172 0.00368713)
(0.152997 0.000634525 -0.000294353)
(0.0812649 -0.00274419 0.000360284)
(0.173745 -0.000602724 0.000357206)
(0.10366 -0.00072134 0.000882644)
(0.0194338 0.00209991 -0.00138703)
(0.129006 -0.00135205 -0.000477348)
(0.145021 0.000130398 0.000175403)
(0.172969 0.000111295 9.2629e-05)
(0.151321 -0.00105581 -0.000149215)
(0.0228175 -0.000686621 0.000211614)
(0.114894 -0.00194559 -5.69423e-06)
(0.0502264 0.00351639 0.00305822)
(0.023825 -0.00389497 -0.000629316)
(0.14404 0.000342071 -0.00137313)
(0.0556858 -0.00112273 0.00077577)
(0.116996 0.00131001 0.000145136)
(0.166611 -0.000283562 -5.48152e-05)
(0.139924 0.000972887 0.000198778)
(0.156273 -0.00124027 0.000486548)
(0.0541377 0.00218973 -0.0027995)
(0.155726 -0.000349743 0.000738579)
(0.0552334 0.00216818 0.00181594)
(0.105198 0.000417905 -6.54125e-05)
(0.160862 0.000735512 0.000968491)
(0.0395359 -0.000176398 0.000717556)
(0.16411 -0.000629105 0.000140746)
(0.165981 -0.00022433 -0.000762948)
(0.0279854 -0.000295756 0.00143751)
(0.0466553 0.00149088 -0.00218019)
(0.165365 0.000334584 0.000781388)
(0.0541071 0.000191338 -0.00397105)
(0.167634 -0.000666308 0.000298418)
(0.166786 0.000391499 -0.000444932)
(0.171911 0.000573856 0.000915601)
(0.024897 -0.00194542 -0.00138927)
(0.0325832 0.000868734 -0.00155277)
(0.0340468 0.000864737 -0.00120293)
(0.0632219 0.000356351 0.000328225)
(0.0975408 -0.00127488 0.000644068)
(0.154521 0.000950989 0.0012505)
(0.0569587 -0.00118357 0.0014226)
(0.173534 -0.000135993 0.000650665)
(0.0204324 0.000370913 0.00300253)
(0.0541037 4.4229e-05 0.000890655)
(0.0247628 0.000182751 0.00272405)
(0.171781 0.000680176 0.000333013)
(0.0933876 -0.000494487 -0.000364212)
(0.145165 0.000180778 0.000823538)
(0.0651168 0.000723923 -0.0013998)
(0.165635 -5.18672e-05 2.94592e-05)
(0.105373 0.000237889 0.000418235)
(0.162761 -0.00104209 0.000291226)
(0.140625 9.06817e-05 0.000665194)
(0.173706 0.000227724 0.000692613)
(0.14441 0.000388508 -0.000459299)
(0.146463 0.00123662 0.000784935)
(0.155972 0.000264374 0.000595883)
(0.0553394 0.000113701 -0.000230681)
(0.152487 0.000843341 0.00152335)
(0.0419186 -0.000357182 -0.00231179)
(0.0599983 0.000486382 0.00210076)
(0.131103 0.000812163 -0.000927517)
(0.159311 -0.00056903 0.000658963)
(0.115927 0.00277276 0.00151171)
(0.169481 -5.06791e-05 0.000677432)
(0.0997939 -2.49847e-05 0.00217665)
(0.0577548 0.0023008 -0.00148244)
(0.157665 -2.98644e-05 -0.00101906)
(0.0933932 0.00190073 0.00052396)
(0.0464016 -0.00076493 -0.000688087)
(0.0516795 0.000138777 -0.0014393)
(0.0974807 0.000648175 -0.00289626)
(0.166346 -0.00070283 -0.000258765)
(0.0992457 -0.00227484 5.64114e-05)
(0.0937485 -0.001245 0.000912442)
(0.161676 -0.00115529 -0.000143241)
(0.0937231 -0.000579818 0.00255029)
(0.0212903 0.00251801 -0.00144794)
(0.159704 2.21749e-06 0.00103009)
(0.0256463 0.00164519 -0.00216161)
(0.0404976 -0.00164182 0.00106681)
(0.171042 0.00029245 0.00100363)
(0.139979 -0.000277123 -0.000305061)
(0.0252113 0.0027058 0.00270613)
(0.121923 0.000932477 0.000396265)
(0.125767 0.00232222 6.79481e-05)
(0.16425 5.5946e-05 0.000870092)
(0.171364 -0.000628428 7.90729e-06)
(0.0242712 0.00286315 0.00057033)
(0.170497 0.000191495 0.000629516)
(0.172512 -0.00093205 0.000201224)
(0.16666 6.70608e-05 0.000962885)
(0.135669 0.000325224 0.000884973)
(0.137184 0.00134842 0.000896056)
(0.096395 0.000483474 -0.000319925)
(0.167806 0.00112385 0.000240556)
(0.0283505 -0.00101569 -0.00128824)
(0.157004 -0.00104801 0.00048689)
(0.140096 -0.000914101 -0.000554258)
(0.1728 -0.000569099 0.000593077)
(0.163214 -0.000381612 0.000580188)
(0.117598 -0.00068146 0.000584087)
(0.0597109 0.00093063 0.00129095)
(0.0231429 -0.000340858 0.00161547)
(0.0287666 -0.000697081 0.000488069)
(0.162578 -0.00118641 -0.000623322)
(0.0207737 -0.00120353 0.00299379)
(0.0638683 -0.000326147 -0.00107446)
(0.0524573 0.00285737 0.00116443)
(0.163901 -5.91589e-05 0.000823971)
(0.169368 -0.000255821 -0.000457202)
(0.153846 -0.000198819 -0.000433103)
(0.059344 -8.05474e-05 -0.00130067)
(0.104303 0.00139726 -0.00217972)
(0.0405098 -0.00331318 0.0027214)
(0.0549397 0.00118677 0.00130893)
(0.154882 0.000361654 2.58193e-05)
(0.0994116 0.00114838 -0.000921779)
(0.107737 0.0123769 0.00352394)
(0.0909994 -0.00190332 0.000928466)
(0.043373 -0.000208544 -0.000435819)
(0.0647379 -0.000931127 0.00194698)
(0.109017 -0.000817228 -0.00165606)
(0.169762 4.82783e-06 -0.000121952)
(0.173822 -0.000458017 0.00058018)
(0.173596 -0.00021793 0.00100389)
(0.160206 -0.00125367 0.00031726)
(0.0971589 0.00358076 0.00456604)
(0.127692 0.000904338 0.000741238)
(0.162013 0.00147847 0.00077164)
(0.158801 -0.000630675 3.07053e-05)
(0.161029 -0.000543219 0.000845834)
(0.057022 0.00127999 -0.0032005)
(0.0225617 -0.00143909 -0.0026822)
(0.14975 -0.00104958 0.000297107)
(0.0401788 -0.00188544 0.00217413)
(0.0321731 0.000173399 6.44434e-05)
(0.158545 0.00050839 0.00156937)
(0.146167 -0.000489278 0.000482308)
(0.0601057 -0.00138237 -0.00286966)
(0.167327 -0.00102597 0.000559285)
(0.163947 -0.00145204 0.000415946)
(0.173123 -0.000906494 -0.000504208)
(0.168527 -0.000889815 -0.000358851)
(0.0330123 0.00152545 7.40339e-06)
(0.158469 0.000129165 -0.000130577)
(0.169278 -0.00116125 0.000931885)
(0.0583163 2.9177e-05 0.00078203)
(0.171628 -2.24134e-05 0.00132016)
(0.168162 -0.000433201 0.000476533)
(0.132336 8.10973e-05 -0.000877638)
(0.123683 0.000122946 -0.000884345)
(0.15059 -0.000867154 0.00126169)
(0.143369 -0.00129031 0.000531952)
(0.0705295 -0.000336288 -0.000226239)
(0.032061 0.00132711 -0.00104039)
(0.0352452 -0.00250964 -0.000239034)
(0.0960035 0.000497316 9.96991e-06)
(0.0862663 -0.00675891 0.0105988)
(0.0746191 -0.0042074 -0.00607223)
(0.0845827 0.000349092 0.000297661)
(0.115829 9.55468e-05 0.00197574)
(0.132116 0.000232194 0.000575575)
(0.157873 -0.00109376 0.00378036)
(0.15649 -0.000208805 0.000803221)
(0.132686 -0.000679315 -0.000198617)
(0.148434 0.000133979 0.000587165)
(0.148577 0.000960064 0.000418436)
(0.031727 -0.000942959 -0.000336478)
(0.1139 -0.0224492 0.002769)
(0.0589222 0.0015386 0.000539298)
(0.0417447 -0.00188306 -0.000441823)
(0.0420062 0.000818877 0.000311597)
(0.159459 -0.000391683 -0.000300672)
(0.0950457 -0.00047813 2.43954e-05)
(0.159143 0.000567397 -0.000997184)
(0.020177 0.00112096 -0.00171768)
(0.127478 -0.000416024 0.000244307)
(0.0450052 0.00107363 -0.000849273)
(0.162243 -0.000506437 -0.000131154)
(0.0484647 -0.000629515 -0.000469647)
(0.0624429 -0.00147327 0.00125223)
(0.107584 -0.00265782 0.000842555)
(0.151297 -0.000909377 0.00126334)
(0.0198855 0.00163348 -0.00213078)
(0.0548718 -0.000581046 0.002379)
(0.133817 -0.000115617 0.000608735)
(0.0235695 -0.00146418 -0.00182748)
(0.130743 0.00126076 0.00899528)
(0.117177 -0.000723551 0.00252903)
(0.132559 -0.00017938 -0.0020026)
(0.0955573 0.00209981 -0.00275347)
(0.0893969 -0.00110745 0.00197001)
(0.160108 0.000955637 -2.00097e-05)
(0.0772135 -0.00787464 -0.00716966)
(0.173813 0.000714442 0.000184415)
(0.111354 0.00854976 0.00901294)
(0.0600684 -0.00265827 0.000361118)
(0.0631644 -0.000370411 -0.0014758)
(0.172409 0.000701344 0.000261585)
(0.172922 0.000957252 0.000413111)
(0.0531542 -0.000522606 0.000622771)
(0.134707 0.000558636 -0.000557772)
(0.0991877 -0.000514698 -0.00230512)
(0.171861 -0.000171344 0.000684067)
(0.171353 -0.000219552 0.00106724)
(0.0461902 0.00133055 -0.00343805)
(0.133446 -0.000984772 3.18307e-06)
(0.145439 -0.00167067 0.00148997)
(0.148047 0.000569447 -0.00028531)
(0.155831 0.000550438 0.000523781)
(0.0217745 -0.000760993 -0.00274621)
(0.0212 0.0010806 -0.00265625)
(0.127231 0.00111426 -0.00160115)
(0.169581 0.000113873 9.53277e-06)
(0.172782 -0.00156775 -0.00066322)
(0.0349519 0.000370545 -0.00252025)
(0.164223 -0.0014506 0.000544765)
(0.107927 -0.00096589 -0.000569834)
(0.167623 -2.85146e-05 0.0007932)
(0.17053 0.000889502 0.000515296)
(0.17308 0.000869412 -0.000313165)
(0.168358 0.000824281 0.000578596)
(0.167948 0.00154087 0.000556193)
(0.0900469 0.000558663 0.000303897)
(0.171291 0.00107607 -5.23572e-05)
(0.0567414 -0.00112085 -0.00281261)
(0.163398 0.000209698 -0.000336191)
(0.110571 -0.00041198 -0.00111584)
(0.152019 0.000705404 0.000783839)
(0.168896 0.000316088 -0.000156769)
(0.149312 -0.000390913 0.000157995)
(0.144322 0.000480327 -0.00103722)
(0.0408602 0.0023237 0.00215267)
(0.0342934 0.000826119 0.000278234)
(0.021497 0.00184958 -0.00214422)
(0.152256 0.00395267 0.00705331)
(0.177867 5.68053e-05 -0.000117655)
(0.139148 -0.000856316 0.000616541)
(0.127425 0.00112807 0.000282502)
(0.0311605 -9.67299e-05 0.00112486)
(0.0239328 -0.00042144 0.00273481)
(0.115488 -0.000398146 0.00171908)
(0.151008 -0.000350426 0.00142113)
(0.1692 -0.000517418 0.000771478)
(0.153878 0.000505926 -6.94232e-06)
(0.136155 -0.00100174 -0.00102371)
(0.175733 0.000643418 0.000119005)
(0.134976 0.000866377 0.000766392)
(0.0267186 -0.000580739 0.00252005)
(0.123482 -0.000315647 0.000572347)
(0.0581735 0.000569628 0.0029837)
(0.0704851 -0.00703913 0.00150607)
(0.152407 0.000215986 0.000249175)
(0.0944766 0.000456639 4.40333e-05)
(0.146072 -4.98641e-05 2.00249e-05)
(0.0208898 -0.00388265 -0.00143148)
(0.172637 0.00109775 -0.000215898)
(0.172254 2.96403e-05 -0.000305821)
(0.170308 0.000911648 0.000425185)
(0.0925744 0.000954546 0.000149378)
(0.152083 -0.00036555 0.00129936)
(0.167266 0.000256935 0.00098639)
(0.121961 0.000398388 9.68205e-05)
(0.172082 0.00114035 0.000232674)
(0.0984033 0.00383799 -0.00303723)
(0.166642 0.000604003 -0.000196514)
(0.148661 -0.00251005 -0.000541913)
(0.0206968 -0.0013512 0.00147203)
(0.17156 -0.000447396 -0.000366355)
(0.117381 0.00205263 -3.19357e-05)
(0.0463191 -0.00134431 0.00375496)
(0.0918769 0.000699251 -0.00153313)
(0.163756 -0.000167274 -0.000426011)
(0.129838 -0.000337993 0.000816936)
(0.0855315 0.000212144 -0.00241837)
(0.0205645 -0.00187175 -0.00206213)
(0.169439 -0.000709193 -0.000341016)
(0.125441 0.00168167 -0.00174794)
(0.158996 -0.000418514 -0.000406507)
(0.124962 7.2206e-05 0.00077136)
(0.0369879 0.00167307 0.00166241)
(0.140998 5.19666e-05 -0.000449577)
(0.0260079 0.00211075 -0.00331131)
(0.160058 0.00023432 -0.000617073)
(0.10228 0.0114001 -0.00365311)
(0.164229 -0.000762514 -0.000639164)
(0.0519081 -3.11428e-05 0.00180233)
(0.107118 -0.00128035 -0.00154649)
(0.095868 0.000281785 -0.00128387)
(0.0349117 0.00203491 0.00174188)
(0.172283 0.000178181 0.000578294)
(0.165403 0.000213935 0.000822639)
(0.0220968 0.000789093 0.0021591)
(0.158657 -0.000757054 0.000326987)
(0.172513 -0.00027497 0.000688459)
(0.0372447 -8.65929e-05 -0.00215814)
(0.0617382 0.00270117 -1.90458e-05)
(0.0537116 0.00193295 0.00140498)
(0.152569 0.000625598 0.000643097)
(0.170384 0.000134328 0.000332999)
(0.0325908 -0.000844726 0.00149859)
(0.0540467 -0.00178227 -0.000591907)
(0.0566623 0.0011442 -4.96502e-05)
(0.115688 0.00143214 0.00032585)
(0.171279 0.000165164 0.000441245)
(0.0231942 0.00122584 -0.00304863)
(0.158189 -0.000766201 0.00087232)
(0.151317 0.00248497 -5.72998e-06)
(0.171063 -0.000111718 0.00118698)
(0.0900994 0.0038656 -0.00372614)
(0.165513 0.00109304 0.000295272)
(0.0227729 -0.0002319 -0.00245256)
(0.161968 -0.000452543 -0.000206997)
(0.0272619 -0.000442841 -5.52595e-05)
(0.0594781 -0.00174953 0.00055404)
(0.153934 -0.00107874 0.000163092)
(0.0605741 -0.00177932 -0.000597096)
(0.0206485 0.00239849 0.00215235)
(0.0368287 0.000690575 -0.00117284)
(0.0453732 -0.00237463 0.00155376)
(0.0586446 0.00114582 -0.0016249)
(0.146559 -7.97111e-05 -0.000772528)
(0.0500266 -0.00112783 1.34568e-05)
(0.0590516 0.0019194 -0.00110854)
(0.128192 -0.00706509 -0.0136645)
(0.164472 0.000318601 0.000819798)
(0.023961 0.00152552 0.000268419)
(0.107237 0.000139061 -0.00103276)
(0.0813182 0.00882395 -0.00347813)
(0.166395 -0.00122174 -0.000121544)
(0.0582189 -0.000171061 -0.00132396)
(0.161404 0.000527487 0.0011599)
(0.0572139 -0.00235278 -0.00160934)
(0.123339 0.00047032 0.00068317)
(0.170203 0.000408978 -0.000561672)
(0.0509832 0.00233997 -0.00454778)
(0.170176 -4.97575e-05 4.26578e-05)
(0.0476055 0.00218896 0.00242811)
(0.0191927 0.00291954 0.00109989)
(0.145248 0.000792211 -0.000260018)
(0.170648 0.000354261 0.000235111)
(0.130117 0.000943718 -0.000344215)
(0.125589 0.00164526 -0.000650718)
(0.17112 -0.00131066 0.000345198)
(0.0606322 0.00165717 -0.00020914)
(0.163891 -0.00127415 0.000477762)
(0.0568453 -0.00175149 0.00247195)
(0.168972 0.000531312 6.8687e-05)
(0.126613 -0.00151845 -0.00130841)
(0.02795 0.000687007 -0.00386901)
(0.153002 0.000405533 -0.000781415)
(0.0519445 7.38615e-05 0.00165879)
(0.026009 -0.00187392 -0.00184894)
(0.148836 -0.000831805 -0.000300333)
(0.043054 -0.00119877 0.00106151)
(0.137814 0.000439382 9.28583e-05)
(0.169721 4.81786e-05 0.000913591)
(0.131005 0.000628608 0.000434227)
(0.0533712 -0.00236019 -0.00257434)
(0.1728 0.00162932 0.000295448)
(0.0902497 -0.00133144 0.0011371)
(0.177181 0.000419307 0.000239947)
(0.173542 -6.92286e-06 0.000289704)
(0.173247 0.000745747 0.000752323)
(0.17034 0.000275094 2.76188e-05)
(0.0438328 -0.00240974 -0.00199252)
(0.0513481 0.000252089 -0.000523204)
(0.171035 -2.37149e-05 2.24735e-05)
(0.160197 0.000674835 0.00152732)
(0.0316887 -0.00219521 -0.00105226)
(0.15883 3.54457e-06 0.000401369)
(0.174219 0.000107997 0.000241429)
(0.170777 -0.00112782 -0.000258133)
(0.173329 -0.00139408 -0.000195306)
(0.116572 -0.00019618 -0.00149506)
(0.0213425 0.0021312 0.0018694)
(0.172217 0.000640222 -0.0001921)
(0.100363 -0.000980144 -0.00134159)
(0.149772 0.000220717 0.00049751)
(0.0958097 0.000200033 -4.53288e-05)
(0.0290693 0.00208359 -0.000165452)
(0.171132 0.000493232 0.000564153)
(0.0916156 0.00222071 0.00222061)
(0.133299 -0.00033233 0.000228319)
(0.174027 -0.0012634 4.3633e-05)
(0.14098 -0.00158091 -0.000449001)
(0.0172149 0.00153943 -0.00203141)
(0.0218995 -0.00132612 -0.00214456)
(0.168309 -0.00051175 0.000163374)
(0.163173 -0.00095047 -0.000259851)
(0.173975 0.00107988 0.000944907)
(0.150401 -0.000117744 0.00119313)
(0.0918401 -0.00138162 0.000545927)
(0.148951 -0.00106057 -0.000532428)
(0.169177 0.000124065 0.000530649)
(0.0200416 0.00174764 0.000404837)
(0.169401 -0.000473289 0.000485602)
(0.134929 -0.0147895 -0.00033207)
(0.0370735 -0.000614349 0.00192262)
(0.0541099 -0.00344841 0.000887671)
(0.144259 -0.000446573 -0.000893539)
(0.140971 -0.00177012 0.000898925)
(0.137671 0.000604001 -0.000103774)
(0.124405 -0.000782686 0.000594132)
(0.105155 -0.00359958 0.00112143)
(0.17334 0.000220202 -0.000255447)
(0.0977797 0.0010056 -0.00283854)
(0.170608 0.00114396 -3.06767e-05)
(0.166537 0.000693607 -0.000102555)
(0.176321 -0.00105417 0.000300399)
(0.167916 -0.00111307 0.000216204)
(0.0397664 -0.000420837 0.00194697)
(0.161146 -0.000981994 0.000227365)
(0.0322014 0.000946139 -0.00130059)
(0.0944286 -0.00919601 0.00541998)
(0.0596578 0.00185566 0.00148461)
(0.127239 -0.0025157 -0.0129309)
(0.130887 -0.000752377 -0.000570711)
(0.117452 -0.0190167 -0.00421286)
(0.165092 0.000147046 -0.000457281)
(0.17108 -0.000286305 -0.000206865)
(0.152844 0.000549322 -0.000179453)
(0.165629 -0.000273234 0.00108214)
(0.0332228 0.00022289 -0.000560937)
(0.100941 -0.00380483 -0.0025499)
(0.112484 -0.00210889 -0.0160226)
(0.16903 0.000334156 7.99547e-05)
(0.112744 -0.0023823 -0.000528199)
(0.136827 -0.0132107 -0.0045865)
(0.155958 -0.00318811 0.00416397)
(0.111291 0.000943562 0.000789711)
(0.034613 -0.000702315 0.00120133)
(0.0532825 -0.00259224 0.00149167)
(0.0239716 0.000109923 -0.000213073)
(0.0228481 0.000158452 -0.00175597)
(0.0338479 -0.000107348 0.000181796)
(0.133674 -0.00898405 0.00536155)
(0.138494 -0.000306737 0.000816013)
(0.0231955 -0.000773517 0.00321529)
(0.0219488 0.00156718 0.00243897)
(0.173594 0.000453173 1.09655e-05)
(0.0961398 -0.0126139 0.00856314)
(0.0364828 0.00156703 0.000621822)
(0.147455 0.000259136 -0.000364548)
(0.105828 -0.00101259 -0.00154441)
(0.134771 0.000152699 0.00121143)
(0.0409551 0.00209989 -0.00115986)
(0.0531654 0.00164301 -0.000619359)
(0.111733 -0.00118453 9.93705e-05)
(0.165151 0.000213599 -0.000585948)
(0.151259 0.000251998 -0.000783773)
(0.0349566 0.00287035 -0.000981133)
(0.0233605 -0.00181986 0.00113362)
(0.106234 -0.0151841 -0.0112635)
(0.0249447 -0.00322863 8.97715e-05)
(0.134619 -0.000907923 -0.00111664)
(0.026555 0.00145502 -0.00329705)
(0.104559 -0.000434695 0.0021902)
(0.169117 -0.000703068 -0.000195049)
(0.172088 -0.000523376 0.00115738)
(0.0427521 0.000616662 -0.000858074)
(0.0982561 -0.000363182 -0.000987782)
(0.0341651 0.00125815 -0.00137603)
(0.027063 0.00318085 -0.0011891)
(0.169522 -0.000198143 -0.000753896)
(0.0185676 -0.00156226 -0.00240088)
(0.161228 -0.00094396 -0.000667776)
(0.0467278 0.00097601 -0.00217935)
(0.154111 -0.00103267 -0.000212607)
(0.141621 -0.000508607 -0.000170963)
(0.0211907 -0.000567222 0.00334374)
(0.0554836 -0.00268629 0.000190413)
(0.148076 0.000304192 0.000492454)
(0.0331383 -0.00156305 7.79207e-05)
(0.156591 -0.00060663 -0.000560329)
(0.0526017 -0.00204425 0.00326832)
(0.108608 0.000280043 -4.48869e-05)
(0.172068 -0.000724837 -0.000634373)
(0.0351402 0.00103034 0.000789851)
(0.0227678 0.000971428 -0.00296192)
(0.0491929 0.000940916 -0.000395893)
(0.110788 0.0173981 0.00375049)
(0.104739 0.000401276 0.000413738)
(0.054624 -0.00240208 0.00264705)
(0.0846415 0.000324182 0.00130006)
(0.0296667 -0.00113373 0.000723104)
(0.172536 -0.000717449 -0.000844524)
(0.0226039 -0.000367419 -0.00163009)
(0.166299 -0.000952295 -0.000308205)
(0.145255 -0.000319852 0.000306512)
(0.16343 -0.000165275 -1.95541e-06)
(0.0187648 0.00189169 8.03242e-05)
(0.150358 -0.000487639 0.000548971)
(0.0820474 0.000605473 -6.73508e-06)
(0.15575 0.000364951 9.83785e-05)
(0.0530708 -0.000477814 -0.000203773)
(0.108155 -0.0130291 0.00670013)
(0.158901 -0.00157532 -0.000288204)
(0.0386313 0.000479023 -0.000409874)
(0.174707 0.000800109 0.000270296)
(0.108862 0.00200551 -0.0204999)
(0.117817 0.000293603 -0.000739124)
(0.0317527 0.000820187 -0.00172098)
(0.0493023 -0.000474043 -0.00254152)
(0.171205 -0.000131127 -0.000148405)
(0.1325 0.00132048 0.000121697)
(0.0312204 0.00156182 0.000607229)
(0.1099 0.00124288 -0.00157415)
(0.0589668 -0.00063909 -0.00182418)
(0.0237344 -0.00207517 0.00136846)
(0.170171 4.7507e-05 -0.000400825)
(0.103339 -0.00129415 0.0100598)
(0.131523 0.00145156 -0.00198233)
(0.166835 -0.000298894 -4.80713e-05)
(0.168798 -0.000105551 0.000534338)
(0.163762 -0.000571428 -0.000259573)
(0.132987 0.000760663 0.000108524)
(0.0421673 0.00111847 0.00036655)
(0.0386436 -0.00190574 -0.0018414)
(0.172675 0.000914333 0.000415764)
(0.107577 -0.00940984 0.00874869)
(0.122269 -0.00121906 0.000558053)
(0.129222 -0.00150945 0.000644248)
(0.0808254 0.00183633 0.000906811)
(0.147324 -0.000239112 0.0010313)
(0.160025 -8.08146e-05 -0.000906538)
(0.0991734 -0.000413034 -0.00127745)
(0.1045 0.00192917 0.000337449)
(0.0365452 0.000340436 -0.00229464)
(0.0708578 0.000573606 -0.000442174)
(0.0422072 -0.00110246 -0.00314004)
(0.150326 -0.000626812 0.000995995)
(0.168306 -0.000198659 -9.39372e-05)
(0.0941628 0.00155809 -0.00228505)
(0.098168 0.000795048 -0.000513883)
(0.0203211 0.00211979 -0.000417067)
(0.0789072 -0.000413043 -0.000624319)
(0.0569944 -0.00196401 -0.00245232)
(0.168777 -0.00024482 -0.00105895)
(0.169649 -0.00128179 -0.000552654)
(0.104819 -0.00958417 0.00606388)
(0.15868 -0.000636175 0.00119621)
(0.0812776 -0.00236677 -0.00191225)
(0.101706 -0.00255322 0.00794547)
(0.133579 -0.00131475 0.00199435)
(0.0255393 -0.00198956 -0.000136564)
(0.169671 -0.000964916 -0.000267469)
(0.048657 0.00138451 -5.48004e-05)
(0.139057 -0.000425135 0.00126726)
(0.0276763 0.00392873 -0.00027358)
(0.168374 0.00047405 -0.00085724)
(0.101647 -0.00434295 0.00267448)
(0.155744 -0.000177127 -0.000406573)
(0.116118 0.000407371 0.000380489)
(0.145902 4.55183e-05 0.000412482)
(0.148979 0.000842032 0.000315042)
(0.17343 0.000853383 -0.00011674)
(0.0335683 -0.00195148 -5.19824e-05)
(0.0464171 0.000631417 -0.00101645)
(0.0281817 -0.00073227 -0.000244289)
(0.168125 -0.000167022 0.000655155)
(0.154488 0.000354234 -0.000832078)
(0.136647 0.00176101 -0.000461246)
(0.15787 0.000731492 -0.00105161)
(0.0204223 0.000367162 0.000543967)
(0.0981989 -0.000135302 -0.000209225)
(0.0889641 0.00088882 -0.00183219)
(0.168233 -0.000104384 -0.000159115)
(0.127225 -0.000936657 -0.000305454)
(0.14484 -0.000116782 -0.00047305)
(0.105926 -0.000262803 0.00137831)
(0.170487 -7.95329e-05 0.000130842)
(0.0200903 -0.00231526 -0.00244801)
(0.0849774 -0.00339575 0.000460167)
(0.15072 -0.000192061 0.000382929)
(0.0254389 -0.00225218 0.00195028)
(0.0434823 -0.000731991 -0.0020228)
(0.060999 -0.00104138 0.000609262)
(0.0211135 0.0013181 -0.00224009)
(0.0948469 0.000472687 -0.00128344)
(0.164405 0.000605276 6.53046e-05)
(0.0588529 -0.00181596 -0.00148685)
(0.0187628 -0.00242299 -0.00171298)
(0.104857 0.000433105 -0.000780621)
(0.025069 0.000183238 0.000373556)
(0.0986948 0.00126353 -0.000705896)
(0.166722 0.000198033 -1.6617e-06)
(0.173741 -1.8099e-05 -0.000410438)
(0.166421 -5.36676e-05 -0.000322574)
(0.160885 0.000981395 -0.000308798)
(0.167273 6.4627e-05 -6.83147e-05)
(0.130109 0.000619747 0.00175203)
(0.0456881 0.000953388 -0.00113275)
(0.167745 0.000576612 0.000787851)
(0.124593 -0.00028177 0.000859577)
(0.0876926 0.000506696 -0.00156107)
(0.095783 -0.000946667 0.00131773)
(0.159581 -4.49537e-05 8.84286e-05)
(0.116028 -0.00125973 -0.000558562)
(0.0649947 0.000110223 0.00175594)
(0.152961 0.000514376 0.00104815)
(0.0326553 0.00115699 0.000479272)
(0.087403 4.35724e-05 0.000757768)
(0.0963134 -0.000292991 0.000267909)
(0.0602464 0.000285618 0.00103912)
(0.157885 -6.53546e-05 0.000241385)
(0.105993 -0.0125958 0.0134364)
(0.127159 0.00783291 0.00521537)
(0.0322241 0.000579813 -0.00274311)
(0.0259246 -0.00168679 0.000861277)
(0.0553728 0.00203889 -0.00103189)
(0.0201422 -0.00128161 -0.00159334)
(0.12603 0.000547775 -0.000517961)
(0.151602 0.00103243 -0.000641611)
(0.129263 0.00163501 0.000157842)
(0.110273 0.0100233 -0.0115203)
(0.133137 7.79535e-05 0.000357197)
(0.14529 0.000733093 -0.000382122)
(0.0246706 -0.00200338 0.00472034)
(0.154229 0.000820484 -2.28124e-06)
(0.127536 -0.00403202 0.0125515)
(0.043391 0.000771963 -0.00111945)
(0.0218069 -0.0035961 0.000743341)
(0.115351 0.000264994 0.000784751)
(0.109495 -0.0011448 -0.00074418)
(0.0253973 -0.00172716 0.00286755)
(0.160137 -0.000594278 -0.000581255)