/*--------------------------------*- C++ -*----------------------------------*\
| =========                 |                                                 |
| \\      /  F ield         | OpenFOAM: The Open Source CFD Toolbox           |
|  \\    /   O peration     | Version:  2406                                  |
|   \\  /    A nd           | Website:  www.openfoam.com                      |
|    \\/     M anipulation  |                                                 |
\*---------------------------------------------------------------------------*/
FoamFile
{
    version     2.0;
    format      ascii;
    arch        "LSB;label=32;scalar=64";
    class       volVectorField;
    location    "40";
    object      U:Transformed;
}
// * * * * * * * * * * * * * * * * * * * * * * * * * * * * * * * * * * * * * //

dimensions      [0 1 -1 0 0 0 0];

internalField   nonuniform List<vector> 
59516
(
(-5.86612e-05 -0.000526179 0.105612)
(0.000359912 -0.000237133 0.0981586)
(-0.000370599 0.000997242 0.113609)
(-0.00251991 -0.000248732 0.129299)
(-0.00453959 0.000296302 0.113787)
(-0.0104427 0.00556129 0.101091)
(-0.00104817 -0.0014961 0.128864)
(-0.000306388 -0.000739165 0.103196)
(-0.00094505 0.000116529 0.112961)
(0.00214348 0.00104951 0.0550722)
(-0.00201081 -0.000370375 0.153261)
(-0.00273903 -0.00228209 0.060769)
(-0.00089231 -0.000606264 0.119941)
(0.000102012 -0.000205832 0.0199543)
(0.000135927 -0.00355204 0.0613396)
(-0.00140045 0.00371088 0.0523744)
(-0.00062985 -0.000353706 0.166432)
(-0.00560955 -0.00159037 0.0701769)
(-0.00549747 -0.00134985 0.11477)
(-4.34743e-05 0.000636847 0.163109)
(-0.00125606 0.000600781 0.0543302)
(0.000395257 0.000467266 0.148707)
(-0.000771571 -0.000731022 0.154384)
(0.000895503 0.00055933 0.0339405)
(0.000496687 0.000938838 0.159591)
(-0.000257761 0.00151739 0.0663193)
(-0.000547302 0.00287786 0.0422011)
(-0.00341676 -0.0015232 0.0445059)
(-0.00235598 -0.00096387 0.0660058)
(0.00222835 0.0017738 0.0177121)
(-0.0215011 0.00120752 0.108343)
(-0.00288743 0.00219998 0.0457628)
(-0.000769908 -0.000339118 0.133389)
(-0.00225159 -0.000983242 0.112743)
(-0.00581319 -0.000194562 0.139117)
(-0.00013497 0.00015482 0.146156)
(-0.00254399 0.00134503 0.0170814)
(-0.00687507 -0.00219371 0.0700653)
(-0.00347035 0.000447608 0.0958817)
(0.00111715 0.000258733 0.157398)
(0.000136647 -0.000690035 0.101956)
(-0.0110767 2.42779e-05 0.143877)
(-0.00390414 0.000820464 0.148252)
(-0.000705796 0.000418795 0.108312)
(-0.00379701 0.000817328 0.143141)
(0.00144848 0.000411058 0.0555107)
(-0.00449354 0.000103355 0.132788)
(-0.00379644 0.000637557 0.16181)
(-0.0152989 0.00138822 0.111878)
(-0.00784858 7.29838e-05 0.150269)
(-0.0178988 0.000525783 0.10405)
(-0.00394208 -0.00190827 0.0443167)
(0.000299698 -0.00241806 0.120614)
(-0.000364923 0.000366126 0.128005)
(-0.00279149 0.000665629 0.0478965)
(-0.00222069 0.000345801 0.130005)
(-0.0116313 -6.05064e-05 0.144536)
(-0.00451765 -0.00169309 0.0476715)
(-0.000201788 -0.000115573 0.168317)
(-0.00978008 -0.000394155 0.135013)
(2.19367e-06 0.000471779 0.148852)
(-0.00145307 0.0020259 0.0193061)
(-0.000207636 0.000526607 0.162268)
(-0.00202239 0.000268213 0.163156)
(-0.000559531 0.000345906 0.12378)
(-0.00538856 0.000171893 0.14683)
(0.00020281 0.0029692 0.0262522)
(-0.000106902 0.000265731 0.0412798)
(-0.0228038 0.000375183 0.121471)
(-0.0022337 -0.000975193 0.136157)
(-0.000636026 -0.000882861 0.0371557)
(-0.0010068 -0.000638254 0.160802)
(0.00354878 -0.00142374 0.0232644)
(-0.000373488 -0.000262011 0.142673)
(-9.006e-05 -2.36024e-05 0.17356)
(-0.00231459 0.00013323 0.157306)
(-0.00302039 3.11429e-05 0.162539)
(-0.000200128 0.00017075 0.147762)
(0.00183173 0.00103104 0.0461762)
(-0.00751857 0.000775633 0.150765)
(-0.00254145 5.76527e-05 0.0386449)
(-0.00647627 0.000476858 0.146151)
(-0.00540034 0.000470879 0.139395)
(-0.00256205 0.00136837 0.0202223)
(-0.00635597 0.000814547 0.146078)
(0.000203629 0.000651541 0.170016)
(0.000640856 0.001109 0.0327813)
(0.000744307 0.000173891 0.149998)
(-0.00211193 -0.00116643 0.0548135)
(-0.00979783 -0.00247512 0.107256)
(-0.0113569 -4.11725e-05 0.131525)
(-0.00129061 0.00123335 0.138447)
(-7.47071e-05 0.000104519 0.167863)
(-0.00018418 0.00124937 0.137038)
(-0.000292057 0.000296821 0.157717)
(-0.0113006 -4.68113e-05 0.109954)
(-0.000734021 -0.000571519 0.140245)
(0.00202299 0.00404835 0.0537551)
(-0.0023033 -0.00100505 0.0648529)
(0.00134618 0.00112139 0.147718)
(-0.00121393 0.000942509 0.0378113)
(0.00274948 0.00137197 0.0247351)
(0.00294793 0.00155028 0.0233801)
(-0.00195531 0.00226084 0.0547168)
(0.000667871 -6.18923e-05 0.135737)
(-0.000285206 4.92661e-05 0.145779)
(0.00184841 -0.00327361 0.0401496)
(-0.000646353 -0.000423127 0.106118)
(-0.000370366 0.00061388 0.10202)
(-0.00145357 0.00229398 0.0664984)
(-0.0186249 -0.000234067 0.124925)
(0.00233882 -0.00211438 0.0310285)
(-0.00254785 0.00328221 0.0672783)
(-0.0193991 -4.51184e-05 0.118041)
(1.69858e-05 -9.31634e-05 0.158137)
(0.0009293 -0.00115982 0.101851)
(-0.00186226 -0.00111123 0.0545127)
(-0.00051536 -0.000640462 0.133818)
(-0.000419422 -0.00103003 0.0221553)
(-0.000987196 0.00107167 0.146437)
(0.000578564 0.00017263 0.174679)
(-0.00016674 0.000355022 0.16397)
(0.000618631 0.000520421 0.157325)
(-0.000635823 0.000392143 0.162597)
(-0.0178006 0.00120996 0.132299)
(-0.00300443 8.65596e-05 0.0903718)
(-0.00185735 -0.000829261 0.0300274)
(-0.0132078 0.00212782 0.138221)
(-0.0130621 0.0030705 0.0898379)
(0.000497266 -0.00019563 0.171713)
(0.000373516 -0.000496856 0.173129)
(0.00156515 0.00195902 0.113873)
(-0.000560161 -0.00203898 0.0235794)
(0.00032903 0.000576364 0.148287)
(0.00113118 0.000347723 0.103004)
(-0.00172007 0.00111629 0.117398)
(-0.0154941 0.00141091 0.107537)
(0.000271744 0.000526252 0.131089)
(-0.000356884 0.00267574 0.0398929)
(-0.00095582 0.000902823 0.0998697)
(-0.000981041 0.00216969 0.0441619)
(-0.000416872 -0.000330492 0.174467)
(-0.000918286 -0.00161223 0.0188315)
(-0.000358994 0.0012233 0.126588)
(-0.000410281 0.000361106 0.169545)
(-0.00130085 0.000751766 0.141645)
(-0.00442861 0.00130518 0.1407)
(-0.00236063 0.00120393 0.119008)
(0.000948234 -0.00176586 0.0621316)
(-0.000147979 0.00113608 0.108073)
(5.64172e-05 -0.000833213 0.104918)
(0.000167895 0.00130437 0.035335)
(0.000958672 0.000984306 0.16393)
(0.000678288 0.000236266 0.153508)
(-0.000541906 -0.00196555 0.0907341)
(-0.00179809 0.0010516 0.0188987)
(-3.18679e-06 -0.000161027 0.114691)
(-0.000985127 0.000707733 0.115261)
(-0.00102903 0.000569126 0.083843)
(-0.00281299 -0.00199397 0.019419)
(0.00277952 0.00239775 0.0650857)
(0.00374953 -0.0020641 0.0670201)
(-0.000627608 0.00136642 0.0350323)
(-0.000240642 -0.000488068 0.0253356)
(0.00296302 0.000103361 0.101154)
(-0.000996088 0.000552406 0.168185)
(0.000763138 -3.11211e-05 0.0614719)
(-0.000582412 -0.000173789 0.170643)
(0.00119738 0.0022969 0.0197916)
(-0.000202076 -0.00050334 0.135925)
(-0.0013488 -0.00112878 0.0849522)
(-0.000857379 0.000666521 0.0520997)
(-7.75011e-06 -0.00182415 0.0641985)
(0.000474809 -0.000722916 0.137254)
(0.000506596 0.000696175 0.0500932)
(-0.00477444 -0.000563345 0.135182)
(-0.00101444 0.000274496 0.165237)
(-0.00558247 0.000574652 0.149353)
(0.000450849 -0.00324585 0.0671554)
(0.000468119 0.000285026 0.0409208)
(-0.000996779 -0.00182122 0.145708)
(0.000885367 0.0030318 0.0333512)
(-0.00101118 -0.00205649 0.028779)
(0.000591669 0.00158845 0.0644174)
(0.000268018 -0.00046734 0.17079)
(-0.000367884 0.000669291 0.0587545)
(-0.00271932 0.000591727 0.035194)
(0.000162336 0.000252416 0.0229194)
(-0.000107075 2.51805e-05 0.12273)
(0.00154038 0.000861366 0.101187)
(-0.00286264 -0.000354112 0.135278)
(-0.00089067 -0.00298814 0.0517477)
(-0.000411617 -0.000381111 0.161088)
(0.00169258 -0.00146431 0.0568382)
(-0.000193652 8.03012e-05 0.154109)
(0.000416069 0.000731372 0.0292611)
(0.000759053 0.000141481 0.0568696)
(0.000286886 -0.00107439 0.0405127)
(-0.00463068 -0.000239795 0.110806)
(0.000515325 -0.000472976 0.152997)
(-0.00168988 -0.00219196 0.0812649)
(-0.00057257 -0.000403778 0.173745)
(0.000237845 0.00111482 0.10366)
(0.00165775 -0.0018935 0.0194338)
(0.00105834 0.000967378 0.129006)
(-9.79045e-05 -0.000195409 0.145021)
(5.48477e-05 -0.000134009 0.172969)
(0.000674695 -0.000825704 0.151321)
(0.00020764 -0.000687833 0.0228175)
(0.00173375 0.000882858 0.114894)
(-0.000463906 0.00463708 0.0502264)
(-0.00386226 0.000806117 0.023825)
(-0.001031 0.000969295 0.14404)
(-0.000264967 0.00133871 0.0556858)
(-0.00071786 -0.00110538 0.116996)
(-0.000113951 -0.000265381 0.166611)
(-0.000893685 0.000432836 0.139924)
(-0.00101374 0.000864475 0.156273)
(-0.0017453 0.00309613 0.0541377)
(0.00080924 0.000113796 0.155726)
(-0.00107058 -0.00261772 0.0552334)
(-0.000161425 0.00039098 0.105198)
(-0.000807155 -0.000909645 0.160862)
(0.000419317 -0.000608422 0.0395359)
(-0.00053655 -0.000357347 0.16411)
(0.000712816 0.000352572 0.165981)
(-0.00102372 -0.00105162 0.0279854)
(-0.00257613 0.000582666 0.0466553)
(-2.32144e-05 0.000849691 0.165365)
(-0.00199804 0.0034371 0.0541071)
(0.000386252 0.000619539 0.167634)
(-0.000500705 0.000317066 0.166786)
(-0.000874319 -0.000634982 0.171911)
(-0.00121513 -0.00205868 0.024897)
(-0.00133071 -0.0011811 0.0325832)
(-0.00148141 1.57429e-05 0.0340468)
(0.000232909 -0.000424819 0.0632219)
(-0.00139559 -0.000304078 0.0975408)
(-0.00153494 0.000334791 0.154521)
(0.00183117 -0.000267301 0.0569587)
(0.000612393 0.000258524 0.173534)
(0.00247239 0.00174357 0.0204324)
(0.00071872 0.000527886 0.0541037)
(0.0023421 0.001403 0.0247628)
(0.000717769 0.000241547 0.171781)
(-0.000299244 -0.000536302 0.0933876)
(-0.000824288 0.000177326 0.145165)
(-0.000562837 0.00147198 0.0651168)
(1.52199e-05 5.76749e-05 0.165635)
(-0.000405269 -0.000259363 0.105373)
(0.0010638 -0.000197758 0.162761)
(-0.000643176 0.000192433 0.140625)
(0.000651748 0.000326794 0.173706)
(0.000165455 0.000578377 0.14441)
(-0.000589507 0.00134083 0.146463)
(-0.000303186 0.000577104 0.155972)
(-0.000256892 -1.21757e-05 0.0553394)
(-0.0017049 0.000353769 0.152487)
(0.00119705 0.00200973 0.0419186)
(-0.000291776 0.0021365 0.0599983)
(-0.00109951 0.000557656 0.131103)
(-0.00040381 0.000771339 0.159311)
(0.00306094 0.000777254 0.115927)
(0.000260641 0.000627335 0.169481)
(0.00216861 0.000188604 0.0997939)
(4.29408e-05 -0.00273669 0.0577548)
(-0.000408506 -0.000934078 0.157665)
(0.00196551 0.000155137 0.0933932)
(-0.000558948 -0.000863805 0.0464016)
(-0.000363876 0.00139944 0.0516795)
(-0.00202734 0.00216757 0.0974807)
(-0.000628517 -0.000407304 0.166346)
(-0.001409 0.00178683 0.0992457)
(-0.00058437 0.00142867 0.0937485)
(-0.00116389 2.40105e-05 0.161676)
(9.30601e-05 0.00261371 0.0937231)
(-0.00124753 -0.00262309 0.0212903)
(0.00068124 0.00077266 0.159704)
(0.00216314 -0.00164317 0.0256463)
(0.00172894 0.000918924 0.0404976)
(-0.000910528 -0.000513555 0.171042)
(-0.000321272 0.000258155 0.139979)
(-0.00339303 0.0017697 0.0252113)
(-0.000213808 -0.000990366 0.121923)
(-0.00114083 -0.00202382 0.125767)
(-0.00058311 0.000648208 0.16425)
(0.000503588 -0.000376009 0.171364)
(0.00206775 -0.0020609 0.0242712)
(-0.000289841 0.000590722 0.170497)
(-0.000604571 -0.000737362 0.172512)
(-0.000447455 -0.000855236 0.16666)
(-0.000942007 -3.96254e-05 0.135669)
(-0.00133063 0.000922255 0.137184)
(-0.000455052 -0.000359204 0.096395)
(0.000139162 -0.00114086 0.167806)
(9.02098e-06 0.00164047 0.0283505)
(0.000414564 -0.00107867 0.157004)
(0.000809183 0.000698575 0.140096)
(-0.000556103 -0.00060528 0.1728)
(-0.000468467 -0.000512625 0.163214)
(0.000646571 -0.000622489 0.117598)
(0.00100583 -0.00123326 0.0597109)
(-0.000716859 -0.00148729 0.0231429)
(0.000729893 0.000437481 0.0287666)
(-0.00121372 0.000568324 0.162578)
(-0.00298789 0.0012181 0.0207737)
(-0.000804751 -0.00078308 0.0638683)
(-0.000999354 0.00291921 0.0524573)
(8.43444e-05 -0.000821775 0.163901)
(-0.000456216 -0.000257574 0.169368)
(-0.000121863 0.000460713 0.153846)
(0.00114682 0.000618903 0.059344)
(0.002589 -2.47931e-05 0.104303)
(8.86051e-05 0.00428665 0.0405098)
(0.000492649 -0.00169676 0.0549397)
(-0.00013872 0.000334988 0.154882)
(0.000518309 -0.00137834 0.0994116)
(-0.0127754 -0.00154723 0.107737)
(0.000232366 -0.00210492 0.0909994)
(-0.000480811 -4.74319e-05 0.043373)
(0.00215453 -0.000125426 0.0647379)
(-0.000557036 -0.00176072 0.109017)
(-0.000113956 -4.36992e-05 0.169762)
(0.000180515 -0.0007168 0.173822)
(-0.000881479 0.000527531 0.173596)
(0.000106127 0.00128883 0.160206)
(-0.00575568 -0.000736696 0.0971589)
(-0.00116855 4.18153e-05 0.127692)
(-0.00132774 0.00100916 0.162013)
(0.000587948 0.000230241 0.158801)
(0.00100482 -2.92323e-05 0.161029)
(-0.0025688 -0.00229845 0.057022)
(0.00282904 -0.00112326 0.0225617)
(0.00109082 -1.64101e-06 0.14975)
(0.00116213 0.00263271 0.0401788)
(4.35531e-05 -0.000179787 0.0321731)
(-0.00164937 -3.09984e-05 0.158545)
(0.000541978 0.000422225 0.146167)
(-0.00186681 0.00258087 0.0601057)
(-0.00065029 -0.00097084 0.167327)
(0.000437396 0.00144573 0.163947)
(-0.00100498 0.000256857 0.173123)
(-0.000958849 -3.39739e-05 0.168527)
(-0.000139769 -0.00151905 0.0330123)
(8.0243e-05 -0.000165212 0.158469)
(-0.00145336 0.000323488 0.169278)
(0.00020374 0.000755587 0.0583163)
(-0.000195744 -0.00130576 0.171628)
(-0.000497742 0.000408656 0.168162)
(0.00065322 0.000591717 0.132336)
(0.000587566 0.00067227 0.123683)
(-0.000305644 -0.00150014 0.15059)
(0.000839434 0.001115 0.143369)
(-0.000389141 0.000113328 0.0705295)
(-0.000619922 0.00156822 0.032061)
(0.00027374 0.00250609 0.0352452)
(0.000496668 2.72678e-05 0.0960035)
(-0.0125704 -5.54047e-05 0.0862663)
(-0.0073468 0.000773762 0.0746191)
(0.000295889 -0.000350595 0.0845827)
(0.00149495 -0.0012953 0.115829)
(-0.000369415 0.000498731 0.132116)
(-0.00390105 0.000518835 0.157873)
(0.000600698 0.000572648 0.15649)
(-0.000486245 -0.000514279 0.132686)
(-0.000149935 -0.000583294 0.148434)
(-0.00103715 -0.000145351 0.148577)
(-0.000434583 0.000901957 0.031727)
(-0.0226042 0.00082595 0.1139)
(0.000444706 0.00156856 0.0589222)
(-0.000997642 0.00165705 0.0417447)
(0.000813274 0.000325939 0.0420062)
(0.000143525 0.000472461 0.159459)
(-0.000388368 0.000279952 0.0950457)
(-0.0010972 0.000335363 0.159143)
(-0.00133179 0.00155991 0.020177)
(0.000391022 -0.000282601 0.127478)
(0.0011833 -0.0006883 0.0450052)
(-0.000250414 0.000459318 0.162243)
(-0.00049552 0.000609358 0.0484647)
(0.00179034 0.000730256 0.0624429)
(0.000793931 0.00267275 0.107584)
(-0.00155498 -7.10087e-05 0.151297)
(0.00267926 -0.000173306 0.0198855)
(-8.27308e-05 0.00244753 0.0548718)
(-3.54408e-05 -0.000618603 0.133817)
(4.11115e-05 -0.00234132 0.0235695)
(-0.00907977 -0.00024967 0.130743)
(0.000461639 -0.00258968 0.117177)
(-3.41705e-05 -0.00201032 0.132559)
(0.00231379 -0.00257627 0.0955573)
(0.00215618 0.000676962 0.0893969)
(0.000866105 -0.000404356 0.160108)
(-0.0101474 -0.00323173 0.0772135)
(-0.000705855 -0.000214953 0.173813)
(-0.0123988 0.000776207 0.111354)
(-0.00216333 0.00158643 0.0600684)
(-0.000435523 0.00145792 0.0631644)
(-0.000215125 -0.00071696 0.172409)
(0.000574512 -0.000870016 0.172922)
(0.000613713 -0.000533214 0.0531542)
(-0.000314568 -0.000724038 0.134707)
(-0.00223509 0.000763456 0.0991877)
(0.000316304 -0.000630284 0.171861)
(0.00042239 -0.00100439 0.171353)
(-0.00106017 -0.00353081 0.0461902)
(-0.000486541 0.000856192 0.133446)
(0.00223135 -0.000179466 0.145439)
(-0.000494912 -0.000400916 0.148047)
(0.000328848 -0.000684973 0.155831)
(0.00251246 -0.00134473 0.0217745)
(-0.00276795 -0.000749533 0.0212)
(-0.00141822 0.00133937 0.127231)
(9.56002e-05 -6.25977e-05 0.169581)
(0.00135493 0.00103047 0.172782)
(-0.00225027 0.00119384 0.0349519)
(0.00111861 -0.00107224 0.164223)
(-0.00112106 -2.97134e-05 0.107927)
(-0.000524454 -0.000595757 0.167623)
(0.000624704 0.000816388 0.17053)
(0.000836346 0.000393034 0.17308)
(-0.000124871 -0.00099931 0.168358)
(-0.000272147 -0.00161542 0.167948)
(0.000290783 -0.0005656 0.0900469)
(-0.00100193 0.00039598 0.171291)
(-0.00191212 0.00234753 0.0567414)
(-0.000386693 8.64041e-05 0.163398)
(-0.00100115 -0.000642284 0.110571)
(-0.00105205 -7.20803e-05 0.152019)
(-0.000265218 -0.000232697 0.168896)
(-0.000135402 0.000399302 0.149312)
(0.0010434 -0.000466752 0.144322)
(0.00176713 0.00262885 0.0408602)
(0.000871611 1.34336e-05 0.0342934)
(-0.00199308 -0.00201153 0.021497)
(-0.00808517 5.34869e-05 0.152256)
(0.000115431 6.11991e-05 0.177867)
(-0.00104669 0.000133568 0.139148)
(-1.57007e-05 -0.0011628 0.127425)
(0.00110606 0.000226472 0.0311605)
(0.000756834 -0.00266158 0.0239328)
(-0.000702684 -0.00161864 0.115488)
(-0.001178 0.000868749 0.151008)
(-0.000392761 -0.000841806 0.1692)
(0.000417026 -0.000286528 0.153878)
(-0.00142792 -0.000111906 0.136155)
(-0.000480703 0.000443929 0.175733)
(0.00115455 -7.06208e-05 0.134976)
(-0.00116172 0.00231048 0.0267186)
(6.74744e-06 0.000653581 0.123482)
(0.0026325 -0.00151554 0.0581735)
(-0.00715499 -0.000789742 0.0704851)
(-0.000217875 0.000247525 0.152407)
(0.000425629 -0.000171166 0.0944766)
(-4.25701e-05 3.27904e-05 0.146072)
(-0.00350791 0.00219515 0.0208898)
(0.000895252 -0.000670967 0.172637)
(-0.000284583 -0.000115835 0.172254)
(-0.000983528 0.000211082 0.170308)
(0.000720865 -0.000643292 0.0925744)
(0.0001816 -0.00133753 0.152083)
(-0.000580365 -0.000837948 0.167266)
(-2.54492e-05 0.000409194 0.121961)
(-0.00105665 0.00048787 0.172082)
(-0.00485565 -0.000614521 0.0984033)
(-0.000428201 -0.000469129 0.166642)
(-0.00240277 0.000905949 0.148661)
(0.00152912 -0.00128624 0.0206968)
(0.000213404 0.000537437 0.17156)
(0.00133919 0.00155592 0.117381)
(-0.00290424 -0.00273355 0.0463191)
(-0.000869445 0.00144344 0.0918769)
(0.000410326 0.000202727 0.163756)
(-4.84099e-06 -0.000884082 0.129838)
(0.000962779 0.00222858 0.0855315)
(-0.00228789 0.00158788 0.0205645)
(-0.000119893 0.000777735 0.169439)
(0.000504782 0.00237245 0.125441)
(-0.000582466 3.36761e-05 0.158996)
(-0.000764971 -0.000122596 0.124962)
(-0.00228046 0.000601884 0.0369879)
(0.000452282 -1.61477e-05 0.140998)
(-0.00391635 0.000286753 0.0260079)
(-1.18853e-05 0.000659957 0.160058)
(-0.0119559 0.000603166 0.10228)
(0.000859122 0.000501864 0.164229)
(-0.000269474 0.00178234 0.0519081)
(-0.00121104 0.00160134 0.107118)
(-0.000274139 0.00128552 0.095868)
(0.00196526 -0.00182009 0.0349117)
(0.000368905 0.000479668 0.172283)
(-0.000818635 -0.000228778 0.165403)
(-0.00215026 -0.000812881 0.0220968)
(0.000212864 -0.000796706 0.158657)
(-0.000679084 -0.000297372 0.172513)
(-0.000565502 0.00208453 0.0372447)
(0.00144937 0.00227947 0.0617382)
(-0.00140923 0.00192986 0.0537116)
(-0.000560708 0.000700395 0.152569)
(-0.000142665 -0.000329514 0.170384)
(-0.00120658 0.00122617 0.0325908)
(0.00171382 -0.000767883 0.0540467)
(-0.000242782 0.00111925 0.0566623)
(0.00117674 0.000878916 0.115688)
(-0.000280481 -0.000378559 0.171279)
(-0.00272546 -0.0018354 0.0231942)
(0.00107831 0.000430408 0.158189)
(-0.00229381 -0.000955793 0.151317)
(-0.000170671 -0.00117995 0.171063)
(-0.00234783 -0.00482853 0.0900994)
(0.0010523 0.000417832 0.165513)
(0.00119286 -0.00215544 0.0227729)
(-0.000489568 -8.92524e-05 0.161968)
(0.000174099 -0.000410915 0.0272619)
(-1.64698e-05 -0.00183508 0.0594781)
(3.42595e-05 0.00109046 0.153934)
(-0.00107732 0.00153684 0.0605741)
(-0.00277827 0.00163296 0.0206485)
(0.000316907 -0.00132364 0.0368287)
(0.000389157 0.00281098 0.0453732)
(0.000777382 -0.00182999 0.0586446)
(-0.000776345 2.10234e-05 0.146559)
(-4.0136e-05 0.0011272 0.0500266)
(0.00107994 -0.00193563 0.0590516)
(-0.0153705 0.000618008 0.128192)
(-0.000741775 -0.000472594 0.164472)
(0.00154893 8.88043e-06 0.023961)
(0.000320797 0.000991478 0.107237)
(-0.00845628 -0.00429544 0.0813182)
(0.00122738 3.09742e-05 0.166395)
(-0.00102132 0.000859665 0.0582189)
(-0.00122468 -0.000351791 0.161404)
(0.00137369 0.00249771 0.0572139)
(-0.00071658 0.000417655 0.123339)
(-0.000691878 -6.35861e-05 0.170203)
(0.00275446 -0.00430938 0.0509832)
(-5.48823e-05 3.58249e-05 0.170176)
(-0.00315588 -0.000853055 0.0476055)
(0.00264131 -0.00166042 0.0191927)
(-0.000577354 0.000601557 0.145248)
(0.000213308 -0.000367801 0.170648)
(-0.000892728 0.000460568 0.130117)
(0.000790128 -0.00158304 0.125589)
(0.00134257 -0.000185764 0.17112)
(0.00166334 -0.000152498 0.0606322)
(0.00131894 -0.000334842 0.163891)
(0.00132068 0.00272655 0.0568453)
(-0.000318189 -0.000431006 0.168972)
(0.00186124 0.000743922 0.126613)
(-0.0032804 -0.00216338 0.02795)
(-0.000802375 0.000362298 0.153002)
(0.00108309 -0.00125855 0.0519445)
(0.00130769 0.00228475 0.026009)
(-0.000826674 0.000314182 0.148836)
(-0.00159916 8.09143e-05 0.043054)
(-4.36997e-05 0.000446956 0.137814)
(0.000217045 0.000888741 0.169721)
(-0.000228159 0.00072914 0.131005)
(8.28609e-05 0.00349154 0.0533712)
(0.00164308 -0.000205565 0.1728)
(0.00169213 0.000449925 0.0902497)
(1.01188e-05 0.000483001 0.177181)
(-0.000215992 0.000193194 0.173542)
(0.000652461 0.00083452 0.173247)
(7.84424e-05 -0.000265116 0.17034)
(0.00289518 -0.00118105 0.0438328)
(0.000422444 0.000398538 0.0513481)
(1.60768e-05 -2.84428e-05 0.171035)
(-8.91147e-05 -0.00166738 0.160197)
(0.000460139 0.0023905 0.0316887)
(0.000333326 -0.000223614 0.15883)
(4.85761e-05 0.000259984 0.174219)
(0.000714511 0.00090999 0.170777)
(0.000945248 0.00104313 0.173329)
(-0.00128466 0.000789521 0.116572)
(-0.00166545 0.00229411 0.0213425)
(0.000668415 2.91406e-06 0.172217)
(0.000878055 -0.00141052 0.100363)
(-0.000467211 0.000279189 0.149772)
(-0.000118076 0.000167708 0.0958097)
(-0.00178763 -0.00108311 0.0290693)
(-0.000748729 -3.08291e-05 0.171132)
(-0.00192861 0.00247853 0.0916156)
(0.000329087 -0.000232969 0.133299)
(0.000849434 0.000936243 0.174027)
(-0.000948073 0.0013424 0.14098)
(0.00156929 0.00200843 0.0172149)
(-0.00229563 0.00104299 0.0218995)
(-0.000237838 -0.000481677 0.168309)
(0.000682568 -0.000710645 0.163173)
(-0.000511481 0.00134066 0.173975)
(-0.00102136 -0.000627886 0.150401)
(-0.00035763 0.00144187 0.0918401)
(-0.000410585 0.00111342 0.148951)
(1.65334e-06 0.000544956 0.169177)
(0.000718049 0.00164394 0.0200416)
(-0.000478157 -0.000480809 0.169401)
(-0.0147615 0.00096833 0.134929)
(-7.58046e-05 0.00201696 0.0370735)
(-0.000373419 0.0035412 0.0541099)
(-0.000176 0.000983292 0.144259)
(0.0018852 -0.000622427 0.140971)
(0.000306864 -0.000530491 0.137671)
(0.000857867 -0.000479223 0.124405)
(-0.00308293 0.00217029 0.105155)
(-0.000265648 -0.000207782 0.17334)
(0.000767571 -0.00291193 0.0977797)
(0.00104258 -0.000471839 0.170608)
(0.000285392 0.000640437 0.166537)
(0.00103451 -0.000362367 0.176321)
(0.000778502 -0.000824378 0.167916)
(0.0015703 0.00122554 0.0397664)
(0.00100596 -6.37031e-05 0.161146)
(-0.000327251 -0.00157468 0.0322014)
(-0.0105768 -0.00144039 0.0944286)
(0.0019431 -0.00136817 0.0596578)
(-0.0131732 -5.95951e-05 0.127239)
(0.00076844 0.000548892 0.130887)
(-0.0194718 0.000479632 0.117452)
(0.000192783 0.000439958 0.165092)
(-0.000328825 -0.000128989 0.17108)
(-0.0005302 0.000229881 0.152844)
(0.000735664 0.000839332 0.165629)
(-0.000583733 -0.000153578 0.0332228)
(-0.004578 0.00014372 0.100941)
(-0.0161204 0.00114239 0.112484)
(-0.000329071 -9.88178e-05 0.16903)
(-0.000693938 0.0023394 0.112744)
(-0.0139508 0.000965731 0.136827)
(-0.00522304 0.000471691 0.155958)
(0.000669596 0.00103228 0.111291)
(-0.00128151 -0.000542386 0.034613)
(0.00146165 0.00260929 0.0532825)
(-0.000204049 -0.000125885 0.0239716)
(0.00130996 0.00118007 0.0228481)
(-0.000210033 -2.14429e-05 0.0338479)
(-0.0104524 0.0004541 0.133674)
(-0.000801243 -0.000343475 0.138494)
(-0.00223681 -0.00243579 0.0231955)
(-0.00280191 0.000744251 0.0219488)
(0.000269371 0.000364589 0.173594)
(-0.0148919 0.00326621 0.0961398)
(-0.001683 9.87707e-05 0.0364828)
(-0.000416831 -0.000162169 0.147455)
(-0.00165845 0.000812458 0.105828)
(0.00118123 -0.000309172 0.134771)
(0.0013266 0.00199874 0.0409551)
(-0.00107503 -0.0013883 0.0531654)
(0.000241637 0.00116387 0.111733)
(0.000506844 0.000363413 0.165151)
(0.000210739 0.00079586 0.151259)
(-0.00179396 0.00244606 0.0349566)
(-0.000616887 -0.0020534 0.0233605)
(-0.0189045 0.000205354 0.106234)
(-0.00263513 0.00186768 0.0249447)
(-0.000101637 0.00143558 0.134619)
(-0.00343896 -0.00107756 0.026555)
(0.000595088 0.00215216 0.104559)
(-0.000659094 -0.000312959 0.169117)
(0.00121232 0.000379119 0.172088)
(-0.000427384 -0.000966388 0.0427521)
(0.000854931 -0.000613764 0.0982561)
(-0.00184284 -0.000283402 0.0341651)
(-0.0033909 -0.000183333 0.027063)
(0.00022407 -0.000746601 0.169522)
(-0.00257724 0.00125006 0.0185676)
(0.00114382 0.000169286 0.161228)
(-0.000432541 -0.00234842 0.0467278)
(-0.000230245 0.00102889 0.154111)
(-0.000222757 0.000488148 0.141621)
(0.00314154 0.00127792 0.0211907)
(-0.000954126 -0.00251834 0.0554836)
(-2.24299e-05 0.000578395 0.148076)
(-0.000101782 0.00156168 0.0331383)
(0.000573318 -0.00059437 0.156591)
(-0.00125185 0.00364606 0.0526017)
(0.000266275 9.76553e-05 0.108608)
(0.000789774 0.000551431 0.172068)
(0.00129759 4.15414e-05 0.0351402)
(-0.0030544 -0.000622328 0.0227678)
(-0.000958529 -0.000351109 0.0491929)
(-0.0177976 8.33137e-05 0.110788)
(-0.00057528 3.54166e-05 0.104739)
(0.000167326 0.00357056 0.054624)
(0.0013263 -0.000190212 0.0846415)
(0.000461474 0.00126304 0.0296667)
(0.00100258 0.000471999 0.172536)
(0.00101919 0.00132418 0.0226039)
(-0.000532999 0.000847212 0.166299)
(0.00036368 0.000252967 0.145255)
(6.13844e-05 0.000153465 0.16343)
(-0.00187973 -0.000227099 0.0187648)
(0.000729491 8.36856e-05 0.150358)
(-0.000426441 0.000429872 0.0820474)
(0.000194311 0.000324208 0.15575)
(0.000140702 0.000500032 0.0530708)
(-0.0146456 0.000393935 0.108155)
(-0.00133655 0.000882231 0.158901)
(0.000630175 -1.84187e-05 0.0386313)
(3.39253e-05 0.00084385 0.174707)
(-0.020459 0.00238705 0.108862)
(-0.000700479 -0.000376611 0.117817)
(-0.000726302 -0.00176265 0.0317527)
(-0.00115947 0.00231077 0.0493023)
(-0.000175205 9.23113e-05 0.171205)
(0.000627531 -0.00116819 0.1325)
(-0.0010584 0.00129914 0.0312204)
(-0.000271248 -0.00198724 0.1099)
(0.00157656 0.00111827 0.0589668)
(-0.00164005 0.00186796 0.0237344)
(-0.000402922 -2.39032e-05 0.170171)
(-0.0101314 0.000479051 0.103339)
(-0.00102894 -0.00223113 0.131523)
(-6.73907e-05 0.000295139 0.166835)
(0.000477188 0.000262584 0.168798)
(0.000450108 -0.000437391 0.163762)
(0.000767525 3.59243e-05 0.132987)
(0.0011164 0.000372798 0.0421673)
(-0.000446707 0.0026121 0.0386436)
(0.000945387 0.000339277 0.172675)
(-0.0128367 -0.000551487 0.107577)
(0.000233118 0.0013203 0.122269)
(0.00135821 -0.000921284 0.129222)
(0.0018712 -0.000832477 0.0808254)
(-0.000413043 0.000974751 0.147324)
(6.90508e-05 0.00090751 0.160025)
(-0.00103273 -0.000857883 0.0991734)
(-0.00147052 0.0012935 0.1045)
(-0.00120148 0.00198437 0.0365452)
(-0.00064243 -0.000334402 0.0708578)
(-0.00265169 -0.00201092 0.0422072)
(0.000639711 -0.00098776 0.150326)
(0.000156976 -0.00015378 0.168306)
(-0.000425308 0.0027328 0.0941628)
(0.000106568 -0.000940649 0.098168)
(0.00119742 -0.00179823 0.0203211)
(0.00010529 -0.000741143 0.0789072)
(-0.00285097 -0.0013203 0.0569944)
(-0.000828732 0.000703213 0.168777)
(0.00136514 0.000291243 0.169649)
(-0.0113176 -0.000733924 0.104819)
(-0.00132159 0.000298364 0.15868)
(-0.00141576 0.00269331 0.0812776)
(-0.00833706 0.000378123 0.101706)
(0.000368763 -0.00236009 0.133579)
(0.00181255 0.000831682 0.0255393)
(0.00100129 5.55869e-06 0.169671)
(-0.000205369 0.00137029 0.048657)
(-0.00126498 -0.000431877 0.139057)
(0.00351138 -0.00178326 0.0276763)
(0.000975679 -8.73765e-05 0.168374)
(-0.00509209 -0.000291001 0.101647)
(-0.000258214 -0.000360557 0.155744)
(0.000341623 -0.000440473 0.116118)
(-0.000152894 0.000385793 0.145902)
(7.76881e-05 0.000895675 0.148979)
(-0.000771837 0.000382307 0.17343)
(0.000160855 0.00194553 0.0335683)
(-8.99325e-05 -0.00119321 0.0464171)
(-0.00033274 0.000696549 0.0281817)
(-7.65925e-06 0.000676067 0.168125)
(0.000877422 -0.000219012 0.154488)
(0.001741 0.000531822 0.136647)
(0.000913967 -0.000897563 0.15787)
(0.000246736 -0.000608136 0.0204223)
(4.87404e-06 0.000249114 0.0981989)
(0.00144931 -0.00143054 0.0889641)
(-0.00018058 -6.00392e-05 0.168233)
(-0.000976157 -0.000133211 0.127225)
(-3.05715e-06 -0.000487243 0.14484)
(-0.0012902 0.000551531 0.105926)
(-3.8796e-05 0.000148122 0.170487)
(-0.0027307 0.00197395 0.0200903)
(0.000358016 0.00340804 0.0849774)
(-0.000303278 0.000302564 0.15072)
(-0.000155444 0.00297519 0.0254389)
(0.000295307 0.0021308 0.0434823)
(-0.00107422 -0.000549291 0.060999)
(-0.00237842 -0.0010481 0.0211135)
(0.00136772 -1.41712e-06 0.0948469)
(-0.000608788 1.19005e-06 0.164405)
(-0.000422741 0.00230862 0.0588529)
(0.00227297 0.00190756 0.0187628)
(-0.000291744 -0.000843703 0.104857)
(0.000410715 6.65833e-05 0.025069)
(4.84175e-05 0.00144653 0.0986948)
(4.54478e-05 0.000192754 0.166722)
(0.000342795 0.000226447 0.173741)
(0.000280523 0.000168051 0.166421)
(0.000806998 0.00063816 0.160885)
(6.69926e-05 6.59966e-05 0.167273)
(-0.000387719 0.00181752 0.130109)
(0.001044 -0.00104982 0.0456881)
(0.000974865 5.31812e-05 0.167745)
(6.31404e-05 -0.000902374 0.124593)
(-0.000798255 -0.00143404 0.0876926)
(-0.0015261 -0.00055102 0.095783)
(-9.52765e-05 -2.76195e-05 0.159581)
(-0.00116115 0.000742046 0.116028)
(0.00102214 0.00143203 0.0649947)
(-0.000822388 -0.000828782 0.152961)
(0.000343461 -0.00120431 0.0326553)
(0.000639168 0.00040936 0.087403)
(0.000290748 -0.000270342 0.0963134)
(-0.000859458 0.000650142 0.0602464)
(0.000166801 0.00018632 0.157885)
(-0.0184105 -0.00049431 0.105993)
(-0.00940695 0.000252658 0.127159)
(-0.000559138 0.0027474 0.0322241)
(0.00187087 -0.000294763 0.0259246)
(-0.000192158 0.00227705 0.0553728)
(0.00199422 -0.00045203 0.0201422)
(-0.00060244 0.000453219 0.12603)
(0.000154083 0.00120575 0.151602)
(-0.000931255 0.00135313 0.129263)
(-0.0152224 0.00121006 0.110273)
(-0.000363511 -3.90634e-05 0.133137)
(0.000168602 0.000809331 0.14529)
(0.00420566 0.00293387 0.0246706)
(-0.000377646 0.000728412 0.154229)
(-0.0131791 -0.000330487 0.127536)
(-0.00131771 -0.000335761 0.043391)
(0.00274633 0.00243766 0.0218069)
(-0.000378982 -0.000736498 0.115351)