/*--------------------------------*- C++ -*----------------------------------*\
| =========                 |                                                 |
| \\      /  F ield         | OpenFOAM: The Open Source CFD Toolbox           |
|  \\    /   O peration     | Version:  2406                                  |
|   \\  /    A nd           | Website:  www.openfoam.com                      |
|    \\/     M anipulation  |                                                 |
\*---------------------------------------------------------------------------*/
FoamFile
{
    version     2.0;
    format      ascii;
    arch        "LSB;label=32;scalar=64";
    class       volScalarField;
    location    "20";
    object      epsilon;
}
// * * * * * * * * * * * * * * * * * * * * * * * * * * * * * * * * * * * * * //

dimensions      [0 2 -3 0 0 0 0];

internalField   nonuniform List<scalar> 
59516
(
0.0261234
0.0251656
0.0206977
0.0184183
0.00963559
0.346479
0.0181582
0.0239069
0.0226121
0.0509642
0.00941274
0.0471476
0.0209456
0.153158
0.0426621
0.0505209
0.0108144
0.0497889
0.0234048
0.0114022
0.0559428
0.0144676
0.0131188
0.0695877
0.0129493
0.0380758
0.0678327
0.0652654
0.0408797
0.115733
0.0471896
0.0600416
0.0171864
0.0218067
0.0160892
0.0144587
0.106291
0.0553571
0.0296214
0.0126689
0.0242167
0.0129514
0.0138489
0.0272842
0.0150251
0.051224
0.0172923
0.010624
0.0131761
0.012804
0.0273499
0.0557341
0.0196862
0.0187632
0.0492084
0.0186372
0.012147
0.0599695
0.010664
0.0175742
0.0141685
0.0915172
0.0113328
0.0111561
0.0191113
0.0144212
0.116571
0.0573994
0.0211099
0.0173105
0.0561004
0.0119926
0.0851685
0.0151416
0.00981996
0.0120978
0.0108316
0.0143066
0.0523739
0.0129368
0.0656395
0.0143195
0.0162817
0.0963103
0.0144708
0.0102541
0.068128
0.0135823
0.0475608
0.0335176
0.0111464
0.0158175
0.0105587
0.0167468
0.0122984
0.0110985
0.016141
0.0516289
0.048966
0.0142165
0.0548069
0.0845785
0.0859544
0.047007
0.0173463
0.0144214
0.0678934
0.0248692
0.0254851
0.0382369
0.0219034
0.0499517
0.0408411
0.0326281
0.0123505
0.0280904
0.0432923
0.01756
0.0833388
0.0144828
0.00918862
0.0115463
0.0128679
0.0115743
0.0177604
0.0321936
0.0812617
0.0167565
0.0845138
0.0098934
0.00940903
0.0223505
0.0829968
0.013815
0.0245145
0.0206188
0.0413041
0.0166886
0.0590616
0.0278304
0.0547481
0.00952317
0.110901
0.0192578
0.0101857
0.014712
0.0156376
0.0225311
0.256649
0.0224312
0.0261336
0.0631534
0.0114606
0.0131907
0.0302473
0.122794
0.0206158
0.0205264
0.0340315
0.107021
0.0390923
0.037108
0.0705246
0.124978
0.0261791
0.0107689
0.0405096
0.00992553
0.0991066
0.016344
0.0329903
0.0544666
0.0362826
0.0164394
0.052154
0.0170588
0.011407
0.0133138
0.0366574
0.0675797
0.0144532
0.0792706
0.106307
0.0443925
0.00992463
0.0471295
0.0688361
0.0994258
0.0196879
0.0271639
0.0168952
0.0503381
0.0115814
0.0454505
0.0129027
0.0766317
0.049603
0.0636138
0.0234131
0.0131193
0.0354841
0.00930735
0.0243545
0.105651
0.0185395
0.0150011
0.00960984
0.0134827
0.105144
0.0217669
0.0565285
0.0946431
0.0151557
0.0484008
0.0214468
0.0111681
0.0150858
0.0129316
0.0496423
0.0130644
0.0496083
0.0238304
0.0118215
0.058734
0.0112041
0.0108898
0.0575292
0.0525558
0.011019
0.0470411
0.0107812
0.0108386
0.00941042
0.0685099
0.0704568
0.0660896
0.0458062
0.0249807
0.0128384
0.052842
0.00929923
0.098022
0.048184
0.0890255
0.00972863
0.0294509
0.0143896
0.036504
0.0109973
0.0243216
0.0116697
0.015385
0.00914556
0.0144255
0.0143966
0.0124349
0.0517054
0.0134398
0.0534206
0.042878
0.0179941
0.0122959
0.0220185
0.0103656
0.0278953
0.0480803
0.0122581
0.0296221
0.0472196
0.0535113
0.0288165
0.01088
0.0247859
0.0293472
0.0117263
0.0287688
0.0822781
0.0121158
0.0666451
0.0569912
0.00964228
0.0157907
0.0747512
0.0204129
0.0191235
0.0109136
0.00979645
0.0822246
0.00978139
0.00925596
0.0106331
0.0172732
0.0166312
0.0273991
0.0109729
0.0508403
0.0121285
0.0150704
0.00922966
0.0109867
0.0203051
0.0444745
0.0846241
0.0513658
0.0120102
0.101194
0.0354284
0.0523168
0.0111254
0.0105052
0.0129194
0.0446655
0.0244146
0.0600836
0.0554034
0.0125841
0.0268933
0.0120348
0.0303375
0.0594214
0.0403042
0.0245197
0.0103641
0.00938507
0.00927536
0.0124708
0.0311538
0.0179951
0.0114421
0.0126274
0.0121721
0.0446604
0.0842577
0.0140167
0.0514918
0.0701251
0.0120304
0.0153669
0.0476818
0.0107103
0.0116077
0.00959278
0.0105502
0.0647837
0.0126079
0.0102346
0.0489653
0.00955236
0.0104377
0.0177987
0.0184842
0.0135542
0.0149949
0.0425201
0.0801972
0.0583239
0.0268342
0.0580146
0.101507
0.0364816
0.0226502
0.0164293
0.00956693
0.0127638
0.0169646
0.0139814
0.0141717
0.0691597
0.0371207
0.0488332
0.057455
0.0605259
0.0125834
0.0272322
0.0123789
0.0944245
0.0183142
0.0601664
0.0118308
0.0580142
0.0414345
0.0229489
0.00936341
0.0995374
0.0459348
0.0168545
0.0772988
0.0191857
0.0221681
0.0167302
0.0293511
0.0298831
0.0120031
0.0741059
0.00950253
0.032824
0.0386861
0.0406972
0.00990842
0.0100104
0.052662
0.0171047
0.0283412
0.00969992
0.00985999
0.0474209
0.0182464
0.01456
0.014294
0.0129654
0.080603
0.0840216
0.0180916
0.0103561
0.00954371
0.0660948
0.0113526
0.0220742
0.0101988
0.0100928
0.00954917
0.0105293
0.0107333
0.0298098
0.00986324
0.0408965
0.0115152
0.0240767
0.0133809
0.0104266
0.0145602
0.0148917
0.0566161
0.0687418
0.0908
0.0113169
0.00914452
0.01568
0.0187795
0.0693677
0.0918761
0.0219287
0.0136316
0.0102047
0.0129106
0.0159131
0.00911155
0.0159075
0.0658535
0.0192005
0.048394
0.119832
0.0131852
0.0274647
0.0148165
0.095764
0.00985849
0.00980659
0.010058
0.0304506
0.0136654
0.0106826
0.0191771
0.0095972
0.0301811
0.0108705
0.0140774
0.0868005
0.00997816
0.0208823
0.0496297
0.028922
0.0112551
0.0180064
0.0353694
0.0884594
0.0104453
0.0178323
0.0123546
0.018272
0.0619051
0.0153153
0.0924276
0.0120707
0.0170856
0.0113159
0.0464812
0.0243755
0.0276627
0.062228
0.00916538
0.0106015
0.102929
0.011814
0.00933917
0.0620073
0.0402886
0.0434181
0.0131687
0.00982948
0.119318
0.0517965
0.0477761
0.0223511
0.00963197
0.0770081
0.0125765
0.0134733
0.00993374
0.114465
0.0111062
0.0711902
0.0116281
0.0879299
0.0428424
0.0139114
0.0437726
0.0934452
0.0650759
0.0463381
0.047754
0.0143556
0.0540236
0.0406837
0.0141878
0.0110707
0.0607393
0.0227361
0.0742097
0.0107485
0.0509688
0.0117156
0.0506443
0.018945
0.010231
0.0488495
0.0107555
0.0695227
0.1122
0.0142547
0.00972759
0.0181569
0.0190572
0.00985857
0.0440726
0.0112999
0.0438381
0.0106077
0.0187631
0.0632422
0.0130683
0.0476502
0.0644349
0.0143589
0.0582045
0.0162762
0.00978382
0.0168366
0.0462811
0.0099996
0.0322233
0.00924723
0.00986973
0.00963246
0.00984969
0.0567697
0.0505952
0.0101249
0.0123602
0.0763634
0.0123703
0.00981529
0.0102473
0.00967177
0.0212877
0.0969031
0.0103868
0.0256859
0.0137069
0.0262668
0.0580228
0.00963156
0.0306796
0.0162948
0.00937902
0.0155174
0.1118
0.0884206
0.0102291
0.0114747
0.00924861
0.0139438
0.0307104
0.0148499
0.0103522
0.0769613
0.00987302
0.0170508
0.0635942
0.0410384
0.0148152
0.0156733
0.0166634
0.0199566
0.0258206
0.00935075
0.0296108
0.0103438
0.0110197
0.00930403
0.0103526
0.057982
0.0117466
0.0754972
0.0970436
0.0431857
0.0121326
0.0164622
0.0319603
0.0110042
0.0104542
0.0129573
0.0107955
0.0672635
0.0104907
0.0149619
0.0100749
0.0230012
0.0161008
0.0102813
0.0217205
0.0592658
0.0510254
0.0560901
0.0999063
0.0624865
0.0174419
0.0157132
0.108399
0.0935669
0.00909523
0.0690433
0.0657164
0.0151065
0.0235878
0.0171915
0.0650933
0.0489158
0.0224966
0.0109478
0.0137517
0.0731734
0.0717952
0.0600155
0.0734493
0.0162087
0.0710667
0.0261184
0.0101124
0.010326
0.0569699
0.0255636
0.0681698
0.0771682
0.01031
0.106222
0.0115764
0.0491571
0.0130947
0.0154679
0.0904222
0.0471635
0.014563
0.0631534
0.012257
0.0525926
0.0243303
0.00967327
0.064467
0.0841663
0.049637
0.019508
0.0258852
0.0525695
0.0342122
0.0814265
0.00956663
0.0649099
0.0112347
0.0150188
0.0114162
0.105937
0.0137954
0.0310063
0.01255
0.0559471
0.0144472
0.0125322
0.0612645
0.00912862
0.0300225
0.0196769
0.0724035
0.0465073
0.00984441
0.0177208
0.0694011
0.0212706
0.0431139
0.0771762
0.010196
0.0123081
0.0172661
0.0109511
0.0104573
0.0112144
0.0168289
0.051651
0.0552164
0.00986479
0.0128867
0.0217203
0.0179911
0.0370941
0.014294
0.0121136
0.0263405
0.0252189
0.0676546
0.0320054
0.06989
0.013587
0.0105657
0.0304328
0.0257651
0.0954632
0.0365357
0.0513189
0.0105605
0.0103172
0.0129903
0.0123014
0.0363922
0.0161231
0.0165699
0.0937808
0.0102922
0.0552484
0.0162136
0.0790032
0.0107307
0.0107198
0.0130733
0.0217839
0.0149186
0.0144865
0.00953012
0.0600026
0.0460364
0.0839188
0.0104663
0.0129917
0.0171671
0.0125053
0.133409
0.0263195
0.031106
0.0105207
0.018486
0.0150915
0.0255052
0.00976367
0.0890652
0.0340383
0.0138366
0.0628749
0.0538127
0.0411143
0.0935646
0.0300703
0.0114378
0.0420882
0.102477
0.0243603
0.0551218
0.0249526
0.0105612
0.00914538
0.010885
0.0120475
0.010435
0.0170403
0.0714144
0.0104662
0.0182263
0.0326961
0.025676
0.0118166
0.0209381
0.0392418
0.0130436
0.0631186
0.0304985
0.0291899
0.041652
0.0130615
0.0438102
0.0207733
0.070571
0.08036
0.0448565
0.0931988
0.0185064
0.0136829
0.0186254
0.035002
0.0172873
0.0147202
0.0869893
0.0131173
0.0115024
0.056006
0.0906864
0.0221137
0.0225847
0.0725876
0.0122334
0.088358
0.010466
0.0131581
0.019622
0.0133914
0.012878
0.0249507
0.0098501
0.12685
0.0694814
0.0266427
0.0273368
0.104668
0.0156162
0.0146911
0.0102102
0.0115275
0.0374498
0.0134804
0.00915115
0.0309643
0.0509638
0.0112828
0.0267354
0.0619096
0.0122864
0.0105419
0.0132751
0.0282315
0.0174902
0.0235907
0.0326632
0.0262014
0.0271416
0.0167853
0.0446484
0.0127668
0.0102921
0.00944093
0.0149336
0.023112
0.0190978
0.0647951
0.045007
0.0188986
0.0155602
0.0166692
0.00935364
0.013858
0.00928098
0.00945022
0.234724
0.0216602
0.0100696
0.0844043
0.0153522
0.0141038
0.0827879
0.0130217
0.010225
0.0254292
0.0102886
0.00941029
0.0104868
0.0431554
0.0107641
0.0563367
0.0217413
0.0108045
0.073025
0.0523308
0.046114
0.019753
0.057651
0.0139376
0.010806
0.011054
0.0127787
0.032245
0.0446053
0.0130226
0.0118392
0.0210326
0.033246
0.0133693
0.0098853
0.00968791
0.0689081
0.00989016
0.02837
0.0356561
0.0683899
0.0474468
0.030952
0.0104973
0.053286
0.0114124
0.0111699
0.0115917
0.00984415
0.0113058
0.00988818
0.0105773
0.00957429
0.0098204
0.0164533
0.0202385
0.0647031
0.0544345
0.0124305
0.0185223
0.0696473
0.0114989
0.0250477
0.00923079
0.00917718
0.00976065
0.0150209
0.0310298
0.00999524
0.126379
0.0277655
0.00982842
0.0731875
0.0102018
0.0645853
0.0327136
0.0122818
0.036511
0.060292
0.0118794
0.0133168
0.013986
0.062779
0.0107146
0.0640014
0.0297068
0.0408868
0.0458477
0.0261621
0.00931123
0.0428216
0.0134165
0.0116348
0.0231235
0.00951586
0.00926865
0.0215705
0.00921414
0.010806
0.0377113
0.0094116
0.0469317
0.0672588
0.0114054
0.0124852
0.0511769
0.0101257
0.0239415
0.0338741
0.0107828
0.103702
0.0111339
0.0104074
0.0224329
0.0735448
0.0509006
0.027427
0.0494477
0.0166154
0.0175236
0.0251768
0.0984532
0.0217623
0.011282
0.0128305
0.00938608
0.0101149
0.036478
0.0126179
0.00983121
0.0221452
0.015165
0.0680616
0.0215598
0.0131359
0.00927914
0.0402459
0.0125116
0.0288818
0.0227608
0.083164
0.0213524
0.03292
0.0614291
0.0204772
0.0576825
0.0125377
0.0236561
0.00996525
0.0748146
0.00917959
0.0294133
0.0505889
0.0266595
0.0159747
0.0822445
0.0121697
0.0138222
0.0513468
0.115344
0.0520068
0.00915879
0.0142648
0.0105665
0.0256654
0.054138
0.0145859
0.0803367
0.0248667
0.0099564
0.0144779
0.0505727
0.0145859
0.086236
0.0324647
0.0133966
0.00951825
0.0697034
0.0133903
0.0188224
0.0490882
0.0116086
0.0127459
0.00929996
0.0152029
0.0277585
0.0493106
0.0114672
0.0143394
0.0855816
0.0607907
0.0475603
0.0107381
0.0283623
0.0120761
0.0543384
0.0107573
0.0642177
0.0168455
0.0226862
0.0115673
0.00986756
0.0154105
0.0164283
0.0788248
0.0720262
0.0148276
0.0170289
0.0844239
0.0692722
0.0116577
0.0135148
0.0121625
0.0254219
0.0163329
0.0112189
0.011074
0.0441132
0.0331885
0.0407119
0.0143036
0.0321183
0.0690118
0.0660713
0.0103439
0.0232598
0.0286412
0.012121
0.0120675
0.0782835
0.0112688
0.0102934
0.0587155
0.0828107
0.0107941
0.00961723
0.0828125
0.108517
0.010109
0.0258427
0.0881586
0.0398818
0.0100528
0.0107627
0.0104748
0.0149574
0.011731
0.0800174
0.067063
0.0100111
0.011024
0.0270592
0.0133834
0.0532112
0.0492596
0.0529785
0.0133155
0.108032
0.0136595
0.015233
0.0284026
0.0479964
0.0919134
0.00950037
0.00969916
0.0206903
0.00994344
0.0248393
0.0130762
0.0562342
0.048124
0.215982
0.0234339
0.0153493
0.0253234
0.0503564
0.0305696
0.0210648
0.0151384
0.0271634
0.0135629
0.0109425
0.0245617
0.0493739
0.0745111
0.0121183
0.07906
0.0209923
0.0190916
0.031997
0.0823194
0.0142643
0.043201
0.106703
0.0881859
0.0172298
0.00999741
0.0181892
0.0177183
0.0334352
0.0231561
0.0788131
0.0646969
0.0578068
0.0095455
0.0256486
0.0149028
0.0240766
0.0247437
0.017892
0.087092
0.0202783
0.0844846
0.012042
0.0230812
0.0800767
0.00961061
0.029616
0.0175307
0.0316127
0.0496317
0.088642
0.0131799
0.0553722
0.00978502
0.00929563
0.0193401
0.0400191
0.079955
0.0121346
0.060487
0.0117666
0.0118233
0.0106709
0.054644
0.0122217
0.0120843
0.0128876
0.0121616
0.0912951
0.0549016
0.0111688
0.0231878
0.0427284
0.00939506
0.0193853
0.0184033
0.0265423
0.0662
0.145857
0.0557693
0.0127569
0.0110044
0.0197544
0.0835487
0.0642132
0.0142673
0.021188
0.0398633
0.00938659
0.0123774
0.0116873
0.0107949
0.00960699
0.0120261
0.0148361
0.0224845
0.0209844
0.0227334
0.0367632
0.042187
0.00935664
0.0180156
0.0690241
0.048375
0.0107753
0.0597996
0.0147813
0.027203
0.0114718
0.0144562
0.0220965
0.0100956
0.0108653
0.0117432
0.0489146
0.0569445
0.0105361
0.00929109
0.0883979
0.0329972
0.0191437
0.0105073
0.0160197
0.1066
0.0258588
0.0164582
0.0336171
0.0103856
0.0207998
0.096201
0.0189684
0.0796088
0.0288829
0.103748
0.0127582
0.0140517
0.0103399
0.0938463
0.0492182
0.0317204
0.0134854
0.0545461
0.0524652
0.0291475
0.0100413
0.0664484
0.00927521
0.0136097
0.0418343
0.0430416
0.0562093
0.0117509
0.00975905
0.0152378
0.0198945
0.0273174
0.024855
0.0276482
0.0778237
0.0738705
0.0626243
0.0299337
0.00928425
0.0676564
0.109359
0.0526476
0.0821234
0.0131683
0.0794572
0.0108899
0.00937978
0.0148374
0.0411203
0.010426
0.0669258
0.0445226
0.00960425
0.0114464
0.0203217
0.0099748
0.0115058
0.0893893
0.0178119
0.013507
0.0102831
0.0294131
0.0130615
0.00998746
0.0247102
0.0627569
0.0783949
0.0250423
0.00959732
0.0729882
0.0339844
0.0115454
0.0626186
0.0694439
0.026908
0.0581518
0.0397875
0.0897776
0.0528423
0.068743
0.0961222
0.0621794
0.0993518
0.0243686
0.0345935
0.00987469
0.0957871
0.0104419
0.0185701
0.0142993
0.020929
0.0135919
0.0684441
0.0121915
0.0108653
0.0284022
0.00928033
0.0177793
0.115459
0.0208551
0.0322802
0.0678927
0.0717997
0.0160427
0.0297901
0.078756
0.0147202
0.0160859
0.00976903
0.011908
0.0562181
0.0215845
0.0329172
0.0141996
0.0160233
0.0152794
0.0110082
0.0296252
0.0132931
0.0174307
0.0128934
0.0248294
0.0238504
0.0198419
0.0309929
0.00974085
0.0174686
0.0592403
0.0157952
0.0629218
0.130866
0.0494456
0.0154423
0.0163825
0.00964256
0.0133502
0.0218242
0.0355054
0.0225429
0.102355
0.0846713
0.0716652
0.0484199
0.0533227
0.0120791
0.0545449
0.0212402
0.0780036
0.0730737
0.00928011
0.0490191
0.0125588
0.017809
0.0111845
0.0635464
0.0556307
0.0192503
0.0143643
0.097989
0.0158528
0.0471572
0.0242266
0.0101537
0.013261
0.0101395
0.026613
0.0274425
0.0321787
0.0410148
0.0641545
0.0553612
0.0781818
0.0238221
0.0108898
0.0365307
0.0457267
0.0261636
0.0139074
0.0137422
0.0483761
0.0172663
0.0783433
0.0423944
0.014251
0.0539447
0.0335436
0.0287856
0.0204665
0.0240198
0.014301
0.0291131
0.0257064
0.0116702
0.0233205
0.0118449
0.0856506
0.0867601
0.0189638
0.0250164
0.0139024
0.023771
0.027541
0.0941008
0.0172039
0.0178275
0.0149484
0.0292571
0.0628037
0.0484724
0.0576988
0.0198931
0.042655
0.0244422
0.08827
0.0214494
0.0582773
0.034565
0.0104673
0.0489251
0.0138271
0.0127373
0.0632063
0.0761326
0.0209074
0.10444
0.0132057
0.0116959
0.0317993
0.0151245
0.0280533
0.0204923
0.0707748
0.0238785
0.0195236
0.00924907
0.107551
0.0124454
0.0187923
0.0343452
0.0164542
0.0671197
0.011855
0.0715392
0.0138085
0.0191472
0.0152477
0.0171824
0.0589187
0.0862209
0.0100936
0.010216
0.0599656
0.0246486
0.0713144
0.0182011
0.0462347
0.0952702
0.0280586
0.0144722
0.0307858
0.0100732
0.0218326
0.0153621
0.072979
0.00976248
0.0669953
0.035577
0.0103584
0.00988455
0.019057
0.0874692
0.0549139
0.00917488
0.00929608
0.0153982
0.0142957
0.0139718
0.1239
0.0163824
0.0158803
0.0174521
0.0526507
0.0179325
0.0105651
0.0179597
0.0111334
0.00929438
0.0466032
0.0129946
0.0567721
0.0132453
0.029351
0.0180429
0.0135735
0.0112716
0.0103895
0.0661327
0.00916
0.0485295
0.0774102
0.0190479
0.052299
0.0133435
0.0945013
0.0505413
0.0530768
0.034424
0.0194577
0.0702408
0.0708417
0.0155356
0.0285558
0.0105026
0.02592
0.0836311
0.0314339
0.060224
0.023396
0.0137875
0.0505514
0.0138844
0.0104587
0.0126518
0.0119603
0.0103453
0.0128687
0.0103571
0.0144854
0.0493849
0.0985719
0.0153178
0.0997878
0.019684
0.0197337
0.0328394
0.00950697
0.0189375
0.0620884
0.00928892
0.056198
0.027361
0.0429858
0.0173923
0.0094227
0.0345877
0.0253137
0.05919
0.019521
0.0201992
0.0309986
0.0159857
0.110148
0.077494
0.0102674
0.0187471
0.0109819
0.0258565
0.128185
0.00916736
0.0424269
0.00918515
0.012527
0.067405
0.0135622
0.011754
0.0686052
0.0493946
0.009254
0.0269174
0.0843138
0.0136201
0.0482581
0.0830805
0.0286022
0.0102627
0.00956243
0.0150703
0.0110941
0.0144054
0.0103139
0.022355
0.0252859
0.0105314
0.0145961
0.0972999
0.0639327
0.0197894
0.0114453
0.0207855
0.0874896
0.0813705
0.014874
0.0573987
0.0139216
0.0115736
0.00965375
0.0568939
0.0349268
0.0105382
0.0224466
0.0139033
0.0162565
0.0459134
0.0714127
0.0107231
0.0780307
0.0394839
0.0688666
0.0568073
0.0115824
0.00952251
0.0147115
0.024312
0.0289656
0.0302238
0.0113519
0.0134901
0.0511158
0.00956704
0.0122253
0.0120985
0.0792376
0.0193656
0.0842986
0.0295392
0.0552579
0.0129582
0.0156731
0.0118326
0.073507
0.0324178
0.0443456
0.103292
0.0138749
0.0826691
0.048458
0.010956
0.0117889
0.00943132
0.0610186
0.0234474
0.0523499
0.00976777
0.0125173
0.011286
0.0105936
0.0585387
0.0153165
0.0210711
0.00949407
0.0116406
0.0112667
0.0120299
0.00946701
0.0936251
0.0580879
0.0213435
0.00932278
0.0148996
0.0603507
0.0104043
0.0456713
0.0194259
0.0153394
0.0324106
0.0399772
0.0460928
0.106516
0.0128567
0.0151776
0.0484413
0.0205156
0.0985778
0.0134332
0.00974287
0.0890152
0.0198023
0.017944
0.0119284
0.0953721
0.106101
0.0746522
0.0410806
0.0439124
0.0843081
0.0739318
0.107028
0.0326631
0.0117633
0.0164399
0.0125661
0.0190387
0.088201
0.0124596
0.0217999
0.108788
0.104079
0.0703196
0.0313276
0.056882
0.012923
0.0169384
0.00940463
0.0143697
0.0578055
0.0316336
0.0132127
0.00983806
0.014736
0.0122461
0.0109992
0.0526154
0.0242305
0.0137025
0.0119585
0.116993
0.0199593
0.0241934
0.0187606
0.0211963
0.0102662
0.0471743
0.0681258
0.0955415
0.0266845
0.0091985
0.00932026
0.0128033
0.0436325
0.0235037
0.0531724
0.0273505
0.0117085
0.0565559
0.0457757
0.0106374
0.0148762
0.0129885
0.0121848
0.0311848
0.0407186
0.014822
0.0260118
0.0197529
0.0152019
0.0179505
0.0107421
0.0330418
0.0157201
0.0956121
0.0718791
0.109364
0.0283281
0.0210048
0.0264883
0.0549609
0.0136036
0.0565701
0.0464127
0.0942419
0.0210366
0.00993425
0.0112022
0.0940193
0.0460051
0.0563987
0.0786642
0.0475908
0.010205
0.00945165
0.0727617
0.0621079
0.0479548
0.0098765
0.0095317
0.0152746
0.0283872
0.0130969
0.0152174
0.0275276
0.0640808
0.00922331
0.0155986
0.0158673
0.0195643
0.0152079
0.0111644
0.0383786
0.0198888
0.0401711
0.0116831
0.0115788
0.0107487
0.106628
0.0108784
0.0822292
0.0126507
0.0135645
0.0114819
0.0121394
0.0503826
0.0850921
0.0517347
0.00988173
0.0101686
0.0188286
0.0113978
0.0773927
0.0293478
0.0122527
0.0105327
0.0229838
0.0613112
0.0192443
0.0227768
0.0108952
0.0109224
0.011694
0.0101863
0.0137431
0.0146664
0.031173
0.0110945
0.0107383
0.0148855
0.0310889
0.0662549
0.0878707
0.036882
0.024229
0.0102926
0.0103437
0.0761141
0.0230576
0.0164232
0.0163442
0.0282736
0.0119907
0.015708
0.0176605
0.00939483
0.025932
0.0170855
0.0521547
0.0230484
0.0157469
0.0830199
0.0194825
0.0136275
0.0166239
0.0127076
0.010219
0.0843696
0.0115947
0.0330352
0.0105894
0.0357586
0.0111397
0.0182736
0.0296488
0.019807
0.0877195
0.0187422
0.0553875
0.0625925
0.0151746
0.0812782
0.01057
0.0122976
0.0103946
0.0540195
0.0261525
0.0861681
0.0171218
0.0640599
0.0279742
0.0132449
0.0119323
0.0104908
0.0143713
0.0132938
0.0100341
0.0136432
0.0129712
0.0135963
0.0569531
0.0267077
0.009253
0.00957361
0.0464305
0.0148795
0.0118895
0.0109404
0.0816772
0.0169656
0.0840622
0.00973453
0.0759372
0.0615896
0.0209872
0.0173381
0.0163023
0.0212798
0.0694232
0.0118878
0.0690216
0.0660301
0.0138152
0.0507555
0.0320058
0.0180468
0.0127659
0.0921399
0.0448153
0.067647
0.0107763
0.0120713
0.0422086
0.0131918
0.0293267
0.0433938
0.0101019
0.0622034
0.0164078
0.013497
0.0107663
0.0121564
0.0104874
0.0102263
0.0202992
0.00913037
0.0137174
0.010565
0.0251195
0.0275048
0.00978064
0.0358677
0.0132394
0.0146701
0.0132708
0.0151864
0.00974443
0.0159393
0.0628376
0.0125931
0.0095859
0.0450983
0.0204233
0.00946561
0.128028
0.0129716
0.0111088
0.0283699
0.0182907
0.0506212
0.0222542
0.0106164
0.0139218
0.0284998
0.0453268
0.0454819
0.0186808
0.0587633
0.0616484
0.0757705
0.0159516
0.0108566
0.00952728
0.0171776
0.0144885
0.0162392
0.0439742
0.0229935
0.0100676
0.00966805
0.00914866
0.00919
0.0782757
0.1131
0.0969562
0.039145
0.0134572
0.0103296
0.00974265
0.0306604
0.0138403
0.0116236
0.0928254
0.00925079
0.0119799
0.0103065
0.00999318
0.0380653
0.051617
0.0205805
0.0525088
0.012185
0.0151585
0.0268503
0.0139227
0.0280383
0.0421686
0.0258468
0.00956595
0.0317509
0.017816
0.0106871
0.0235395
0.0592117
0.01096
0.00958584
0.0490812
0.0624181
0.0297376
0.0569857
0.0102892
0.0215275
0.0518136
0.00960421
0.00954305
0.0111918
0.0189562
0.0118748
0.0134158
0.0124343
0.0150244
0.0319485
0.0148187
0.039124
0.0340368
0.0505419
0.0101881
0.0213532
0.0120388
0.016016
0.0289727
0.0254792
0.091934
0.0253617
0.0907959
0.0291277
0.0152133
0.0131573
0.0108415
0.0132199
0.0685431
0.0541243
0.0113658
0.0335019
0.0407849
0.0181788
0.0563955
0.0106009
0.0148258
0.0123466
0.0215105
0.0113737
0.0201872
0.0130456
0.0640804
0.0108623
0.0670121
0.0703343
0.0417768
0.0169936
0.0209794
0.00932328
0.0680776
0.0096502
0.0134691
0.026412
0.0340239
0.0306659
0.0596539
0.0457709
0.0600352
0.0419485
0.00954203
0.0507483
0.0138558
0.0448129
0.0993026
0.0277523
0.0573855
0.116017
0.089927
0.0158333
0.0216287
0.0109188
0.0427518
0.00928256
0.069109
0.0223475
0.0435012
0.0133389
0.0123291
0.0929289
0.017576
0.0125427
0.0131846
0.0168683
0.0180908
0.0111084
0.0130051
0.0116231
0.0156504
0.0649284
0.0304986
0.0526789
0.0133042
0.0781893
0.0304297
0.0140676
0.0371181
0.0228194
0.0938131
0.0227973
0.0258557
0.010204
0.01943
0.0115308
0.0156676
0.0112612
0.0166516
0.00937749
0.0491966
0.0487979
0.0131964
0.0120546
0.0166874
0.0139998
0.0120839
0.014193
0.0139255
0.0670902
0.0134039
0.00951548
0.0740809
0.0186135
0.0697426
0.0181083
0.0403814
0.0568549
0.0127876
0.0594609
0.0691175
0.0886216
0.0740256
0.0639516
0.0108788
0.0189043
0.00987397
0.0169894
0.045208
0.0121157
0.00958096
0.0117254
0.0903948
0.0148431
0.0222808
0.0213141
0.013152
0.0742759
0.0699751
0.01479
0.0639144
0.0100965
0.055256
0.0199452
0.0389263
0.00914518
0.00920358
0.0127237
0.0595916
0.0867312
0.0648606
0.0127081
0.0447855
0.112768
0.0218802
0.0285924
0.0746829
0.0271051
0.0488806
0.0182609
0.0142766
0.0102021
0.0133147
0.133389
0.0238098
0.0848867
0.00970272
0.0135065
0.0196201
0.0124096
0.028888
0.0230359
0.0885244
0.0149819
0.0260574
0.00957143
0.00989271
0.0476389
0.109981
0.0110574
0.0123131
0.0105444
0.0413495
0.0159946
0.0895156
0.0638345
0.0554193
0.0111186
0.0735291
0.0226863
0.104723
0.052796
0.0153126
0.0509008
0.0655528
0.0695709
0.0145848
0.0135352
0.0102508
0.049025
0.0181248
0.01143
0.0202061
0.0199587
0.0142636
0.0105937
0.0105038
0.0911352
0.0136872
0.0207764
0.0397653
0.0541922
0.0102848
0.0109144
0.0273408
0.014755
0.103742
0.0219146
0.0183519
0.0941535
0.0126556
0.0119101
0.0145522
0.047472
0.0104836
0.0522195
0.00949728
0.0463566
0.0902596
0.0102964
0.0118836
0.0422307
0.0149611
0.0115712
0.0111862
0.0103425
0.0474639
0.07082
0.0111243
0.0144737
0.0150338
0.0127362
0.051127
0.0166288
0.0479033
0.0412689
0.0126557
0.0092845
0.0262117
0.0140892
0.0206465
0.0637737
0.0724748
0.0101824
0.0125913
0.051983
0.0732303
0.0320535
0.0144113
0.0151521
0.0897056
0.0291128
0.0127375
0.0111309
0.0123037
0.0144609
0.0226815
0.00944855
0.0137532
0.0117159
0.030967
0.0728588
0.0911729
0.0199118
0.023615
0.0145275
0.0130052
0.0109796
0.0119973
0.0102911
0.0121952
0.0131154
0.0110492
0.0268017
0.0126551
0.0124486
0.0286664
0.0124169
0.0268527
0.0725215
0.0197978
0.0169794
0.0172488
0.0185613
0.0171759
0.0301422
0.0517968
0.0147398
0.0128121
0.0149786
0.0203021
0.0784594
0.0123816
0.0250324
0.0853886
0.0153346
0.0686973
0.0200091
0.0138761
0.0154893
0.0168052
0.0220939
0.0618332
0.0827933
0.0817442
0.00973143
0.0528489
0.0129535
0.0119361
0.0566458
0.0091128
0.0275544
0.00981699
0.0206414
0.0206616
0.0359353
0.00914546
0.0107868
0.10312
0.012002
0.0628866
0.105414
0.0162494
0.0405307
0.0113977
0.0119708
0.0102338
0.025592
0.0323099
0.0150917
0.0122652
0.0148973
0.0482172
0.0814998
0.0207507
0.0129292
0.0221775
0.00986151
0.0318184
0.0278136
0.0123643
0.0117663
0.0119349
0.0294094
0.0231915
0.0313038
0.017346
0.0148504
0.0222873
0.0246176
0.0646723
0.0141143
0.0153003
0.0128742
0.0112858
0.0148468
0.0101768
0.0594415
0.019122
0.034969
0.0479118
0.0131261
0.0330411
0.00969414
0.0111296
0.014538
0.0857714
0.0255245
0.0144167
0.0109152
0.043679
0.0121076
0.0341016
0.0170207
0.032012
0.0226511
0.0133615
0.0121975
0.109659
0.0162326
0.0118221
0.0126176
0.0289817
0.0136799
0.0129032
0.134523
0.00917532
0.0572041
0.0145512
0.0109227
0.011912
0.0208487
0.0279572
0.0365975
0.0458624
0.0645447
0.0112902
0.011395
0.0988419
0.0595728
0.0147621
0.0158795
0.0488664
0.024355
0.0153175
0.0161982
0.0150355
0.0904426
0.0132306
0.028718
0.0563039
0.0117713
0.0476202
0.0314163
0.0815254
0.0563205
0.0318664
0.0490881
0.0195316
0.046327
0.0223331
0.0641836
0.0843462
0.0190605
0.0730918
0.0448327
0.0150922
0.0741871
0.0140322
0.046539
0.0389391
0.0486047
0.0104714
0.0745619
0.0682476
0.017298
0.0136269
0.0183713
0.0525183
0.0171945
0.0305829
0.0194395
0.0418974
0.0262196
0.00924913
0.0268349
0.010532
0.016383
0.0167785
0.0115214
0.107283
0.0186834
0.0207307
0.0133486
0.0784577
0.020132
0.109448
0.0270053
0.0277315
0.0112014
0.0125028
0.0213762
0.0141484
0.0209846
0.00968552
0.012408
0.0327892
0.00928662
0.0406753
0.0129792
0.0174807
0.0430828
0.0158896
0.0411526
0.0112156
0.0144887
0.0419928
0.0174564
0.0194636
0.096421
0.0123402
0.0910378
0.0529818
0.0221524
0.0141098
0.0158611
0.049019
0.0112229
0.0125895
0.0245976
0.0446161
0.0310751
0.0696263
0.0148033
0.0289699
0.0176377
0.0291655
0.00967211
0.0157073
0.0649323
0.0171847
0.00963988
0.0283799
0.108214
0.0405813
0.0149115
0.0475219
0.0295133
0.0453059
0.0152587
0.0302464
0.0535194
0.0520224
0.0103757
0.085729
0.0134542
0.077512
0.0115427
0.0260434
0.0135692
0.0655528
0.015132
0.0103958
0.0118892
0.0109312
0.0267351
0.0973485
0.0958105
0.0329388
0.107542
0.0132763
0.0638303
0.0105695
0.0139
0.0189442
0.0121484
0.0834886
0.0458052
0.0477369
0.0141972
0.0700541
0.0142164
0.0261108
0.0158855
0.0424125
0.0622999
0.0742587
0.0131625
0.0500076
0.0119859
0.0187765
0.0196409
0.0490609
0.0487656
0.0191882
0.0259321
0.0555103
0.0104785
0.01289
0.0324656
0.0265475
0.015689
0.0131085
0.0122389
0.0105144
0.0109671
0.0255652
0.0314841
0.0110588
0.108681
0.0713054
0.0181287
0.0137502
0.00958162
0.0748542
0.054214
0.00942
0.0265735
0.00926708
0.060776
0.00963989
0.0106412
0.0134475
0.0456119
0.0313239
0.0779712
0.0860579
0.0203263
0.0918095
0.0188066
0.0363309
0.019134
0.0173403
0.0120342
0.0800511
0.116766
0.0117765
0.0189198
0.0682008
0.0124035
0.012407
0.0676793
0.0918565
0.0972355
0.0578227
0.0352531
0.0880298
0.0308484
0.00988771
0.0653762
0.0849617
0.0191017
0.0132445
0.0113545
0.0150821
0.0274132
0.115543
0.0107032
0.0630613
0.0114761
0.0562758
0.0248821
0.0191416
0.0238911
0.0220407
0.0707651
0.0112258
0.0129962
0.010224
0.0861772
0.0203577
0.048129
0.0259147
0.040048
0.0796892
0.0229798
0.0232351
0.0200936
0.0343588
0.0144289
0.0502476
0.0650084
0.0533498
0.0174436
0.0218744
0.0177423
0.0656781
0.0222571
0.0822304
0.118678
0.0154983
0.0107095
0.0505664
0.0626012
0.0278812
0.0114874
0.0201509
0.0125269
0.0196799
0.0161648
0.0124612
0.0154104
0.00992469
0.0475074
0.0940231
0.0182157
0.00962744
0.0106578
0.0298191
0.106264
0.0268746
0.0115689
0.0469914
0.0250304
0.0198718
0.0261699
0.0109566
0.0136447
0.00979806
0.0705416
0.0187127
0.0119816
0.0150579
0.0111382
0.0222412
0.0483699
0.0110116
0.0275629
0.0929278
0.0103511
0.010368
0.0222588
0.0295059
0.0136179
0.0112565
0.0148845
0.00964479
0.0206918
0.0286136
0.0629456
0.0505547
0.0118361
0.0190213
0.00950165
0.0159342
0.0565273
0.0646357
0.0550432
0.0857688
0.0433814
0.0805076
0.0125206
0.0836559
0.0186693
0.032821
0.0103313
0.0672723
0.0130875
0.0624275
0.0125511
0.107332
0.054911
0.0524605
0.00921071
0.0106008
0.0346731
0.0299115
0.102827
0.081046
0.0106434
0.0184575
0.0199032
0.0104939
0.0105586
0.0146501
0.0145047
0.0118205
0.039203
0.0200908
0.0406239
0.0486094
0.0913799
0.0101546
0.0421002
0.0873931
0.0107594
0.0465985
0.0126632
0.0774549
0.0145754
0.0111144
0.0218427
0.0263804
0.012483
0.0172684
0.0843896
0.0127705
0.0102952
0.057734
0.0597987
0.0140457
0.0212901
0.0967482
0.0384471
0.0125341
0.00990335
0.0209886
0.0129174
0.0202571
0.0226447
0.0094344
0.00932069
0.0289192
0.0159933
0.0249375
0.0293931
0.0136668
0.0202448
0.0944159
0.00947808
0.0201259
0.102914
0.0137588
0.0378699
0.0160424
0.102119
0.0143991
0.0246483
0.019005
0.0149496
0.0156275
0.0534181
0.0136722
0.0230861
0.0207954
0.0801861
0.0137618
0.0297177
0.0107293
0.0179209
0.0542829
0.0667455
0.0170188
0.0657533
0.0393515
0.0225145
0.0694487
0.0933918
0.0289151
0.0105303
0.0166603
0.0109754
0.0845887
0.0697956
0.0876402
0.0114245
0.056011
0.0222937
0.00967028
0.0302344