/*--------------------------------*- C++ -*----------------------------------*\
| =========                 |                                                 |
| \\      /  F ield         | OpenFOAM: The Open Source CFD Toolbox           |
|  \\    /   O peration     | Version:  2406                                  |
|   \\  /    A nd           | Website:  www.openfoam.com                      |
|    \\/     M anipulation  |                                                 |
\*---------------------------------------------------------------------------*/
FoamFile
{
    version     2.0;
    format      ascii;
    arch        "LSB;label=32;scalar=64";
    class       volScalarField;
    location    "20";
    object      k;
}
// * * * * * * * * * * * * * * * * * * * * * * * * * * * * * * * * * * * * * //

dimensions      [0 2 -2 0 0 0 0];

internalField   nonuniform List<scalar> 
59516
(
0.00345307
0.00425564
0.00376021
0.0049774
0.00846667
0.0174099
0.00430207
0.00357204
0.0035694
0.00598767
0.00774519
0.00487308
0.0034782
0.0116663
0.00513456
0.00512355
0.00698395
0.00539448
0.00366601
0.00612935
0.00683809
0.00509862
0.00549404
0.00726229
0.00556952
0.00482688
0.00707387
0.00754543
0.00521368
0.00989009
0.00725017
0.00721676
0.00482395
0.00417676
0.00543033
0.00466597
0.00921273
0.00536091
0.00362726
0.00574816
0.00352421
0.00593995
0.0052207
0.00428036
0.00495125
0.00527468
0.00414299
0.00690145
0.00804735
0.00644043
0.00907856
0.00648544
0.00355457
0.00388396
0.00665743
0.00418569
0.00676917
0.00704239
0.00714859
0.00497727
0.0056343
0.00947319
0.0069361
0.00677656
0.00428122
0.00585219
0.0117104
0.00652692
0.00669968
0.00457526
0.00912743
0.00664786
0.00944191
0.00518794
0.0073608
0.00611082
0.00692045
0.00529962
0.00636352
0.00658815
0.00692166
0.00609399
0.00529917
0.00956407
0.00596769
0.00698272
0.00687637
0.00490686
0.00509847
0.00392727
0.00740004
0.00550554
0.00672087
0.00530035
0.00665113
0.00836197
0.00548618
0.00516581
0.00525487
0.00549285
0.00685807
0.0096649
0.00963285
0.00502578
0.00466086
0.00606072
0.00750865
0.0036742
0.00377853
0.00489786
0.00569427
0.00823972
0.00525864
0.00536592
0.00578395
0.00357648
0.00485421
0.00505838
0.00921323
0.00533705
0.00775907
0.00702835
0.00599912
0.0069099
0.00566521
0.00366259
0.0102276
0.00511974
0.0107472
0.00732644
0.00774468
0.00363441
0.0091684
0.00489485
0.00356882
0.00356754
0.00537514
0.00371681
0.00676299
0.00413875
0.00648364
0.0075299
0.00965885
0.0046593
0.00736306
0.00486174
0.00467836
0.00397296
0.0200307
0.00358188
0.00380239
0.0066534
0.00618179
0.00551843
0.00356404
0.010315
0.00405212
0.00342808
0.00356259
0.00979627
0.00518753
0.00494072
0.00726612
0.0114594
0.00347028
0.00657556
0.00481495
0.00711225
0.00951779
0.00546596
0.00356006
0.00508226
0.00418939
0.00506765
0.00589029
0.00427778
0.00700567
0.00540573
0.00485273
0.00659644
0.00512845
0.00754769
0.0113135
0.00453395
0.00741569
0.00485107
0.00645813
0.00968947
0.00373961
0.00377064
0.00506539
0.00506756
0.00613082
0.00420769
0.00520211
0.00690757
0.00497565
0.00639359
0.00441619
0.00506497
0.00450146
0.00786081
0.00338599
0.00970871
0.00429458
0.00494352
0.00724797
0.00641154
0.00994291
0.00409283
0.00576368
0.0101036
0.00521447
0.00536033
0.00395288
0.00683305
0.00480142
0.0056398
0.00533985
0.00597462
0.00543582
0.00426106
0.00702619
0.00709202
0.00708136
0.00694862
0.00839526
0.00622934
0.00683543
0.00510794
0.00682649
0.00700778
0.00781802
0.00861809
0.00704972
0.0064928
0.00461978
0.00345634
0.00614256
0.00561209
0.00775074
0.00988456
0.00483535
0.0102235
0.00751069
0.00320328
0.0056185
0.00492974
0.00647102
0.00347983
0.00619782
0.005178
0.00788772
0.00531504
0.005249
0.00572674
0.00521403
0.00588479
0.00642112
0.00519413
0.00440046
0.00646469
0.00386366
0.00688072
0.00368387
0.00466094
0.0061839
0.00356449
0.00671881
0.00485982
0.00414973
0.0071725
0.00316714
0.00383697
0.00657785
0.00328195
0.00875274
0.00611066
0.0087796
0.00651002
0.0076595
0.00504125
0.00919308
0.00406691
0.00409964
0.00694608
0.00753495
0.00991969
0.00761434
0.00796053
0.00729958
0.0047595
0.00524669
0.00365308
0.0065253
0.00827282
0.00633796
0.00472918
0.00783851
0.00695094
0.00346618
0.00460967
0.00929771
0.0077962
0.00570258
0.00966345
0.00526425
0.00562768
0.00647118
0.00625973
0.00515234
0.00478828
0.00382468
0.00715966
0.00528076
0.00659196
0.0035357
0.00853414
0.00402703
0.00624987
0.00527735
0.0038229
0.00733856
0.00765104
0.00785129
0.00593839
0.00414881
0.00456998
0.00696556
0.00637272
0.00624444
0.00482447
0.00936507
0.00574637
0.00602509
0.00699757
0.00641273
0.00551985
0.00489941
0.00718297
0.00651691
0.00772564
0.00712324
0.00649601
0.00581795
0.0076211
0.00510565
0.00767117
0.00736308
0.00479151
0.00453621
0.0060642
0.00509544
0.00399737
0.00744674
0.00670574
0.00373195
0.00662599
0.0114872
0.00390188
0.00418124
0.00417436
0.00775953
0.00535408
0.00428394
0.0058067
0.00600421
0.00720244
0.00709615
0.00533847
0.0062773
0.0067685
0.00662971
0.0037363
0.00616606
0.00923316
0.00456141
0.00676543
0.006857
0.0049263
0.00491019
0.0032431
0.00786549
0.00999265
0.00502976
0.00494298
0.00909285
0.00460508
0.00422221
0.00448488
0.0041451
0.00394377
0.00603514
0.00707311
0.00775598
0.00462458
0.00481496
0.00494442
0.00741164
0.0071103
0.00488612
0.00394059
0.00370082
0.00748688
0.00740284
0.00614752
0.00470296
0.00507103
0.00539587
0.00596768
0.00923605
0.00898457
0.00419709
0.00718982
0.0077125
0.00702455
0.00726091
0.00303857
0.00756963
0.00708908
0.00736707
0.0073147
0.00715911
0.00345252
0.00771171
0.00471978
0.00668006
0.00381529
0.00617906
0.00730606
0.00496993
0.00535326
0.00621137
0.0071423
0.0093002
0.00714576
0.00756512
0.00514868
0.00425058
0.00666834
0.00983464
0.00409132
0.00600367
0.00738004
0.0056529
0.00433198
0.00761184
0.00428518
0.0088936
0.00408335
0.00513055
0.0121735
0.0060317
0.00363113
0.00524614
0.00983692
0.00733002
0.00729663
0.00767673
0.00333963
0.00631003
0.00715979
0.00467631
0.00780163
0.00390427
0.00694055
0.00531031
0.0090867
0.00750684
0.00411518
0.00614324
0.00318633
0.00661626
0.00421298
0.00370397
0.00895605
0.00720259
0.00392955
0.00607583
0.00413523
0.00635287
0.00496404
0.00988134
0.0065344
0.00953873
0.0068893
0.00632061
0.00382068
0.0034733
0.00595221
0.00778617
0.00748413
0.010365
0.00643595
0.00788289
0.00716405
0.00475887
0.00465009
0.0059204
0.00761592
0.0121376
0.00501751
0.00473029
0.00396684
0.00768265
0.00889076
0.00561373
0.00590653
0.00744342
0.0136726
0.00620066
0.00843774
0.00619855
0.00976215
0.0044518
0.00614329
0.00485031
0.00953064
0.0072282
0.00592282
0.00519507
0.00480305
0.0052808
0.00449541
0.00664027
0.00720778
0.00864231
0.00325011
0.00681923
0.00691436
0.00517613
0.00711904
0.00553499
0.00473538
0.0075887
0.00563373
0.0071866
0.00758901
0.00999509
0.00530612
0.00760021
0.00472822
0.00430593
0.00715417
0.00557135
0.00630566
0.00476844
0.00748863
0.00430742
0.00859693
0.00523418
0.00638021
0.00877068
0.00494045
0.00614116
0.0048896
0.0076124
0.00433984
0.00473384
0.00706397
0.00366367
0.0076436
0.00723885
0.0074355
0.00759743
0.006284
0.00529843
0.00729793
0.00637993
0.00762864
0.00635684
0.00703529
0.0068165
0.00725554
0.00352039
0.00967485
0.00696302
0.00419433
0.00624405
0.0034065
0.00844691
0.00776812
0.00386888
0.00437866
0.0074753
0.00523138
0.00930742
0.00929199
0.00745201
0.00701748
0.00785643
0.00617421
0.00336773
0.00568158
0.00716013
0.00866698
0.00768213
0.00535522
0.00716865
0.00451976
0.00463985
0.00521131
0.00475755
0.00402816
0.00349969
0.00753944
0.00406814
0.00683927
0.00694319
0.00757951
0.00718731
0.00693818
0.0060235
0.00733589
0.0103479
0.00476657
0.00725848
0.0045553
0.00523382
0.00723289
0.00671365
0.00545307
0.00696926
0.00683299
0.00965333
0.00780231
0.00738164
0.00387129
0.00535366
0.00736827
0.00361883
0.00631356
0.00461799
0.00778332
0.0104385
0.00905737
0.00432133
0.00516056
0.0105061
0.00950204
0.00795073
0.00844629
0.00711847
0.00535399
0.00347239
0.00469033
0.00723105
0.0050643
0.00378858
0.00695872
0.00547721
0.00732582
0.00855006
0.0101282
0.00925335
0.004465
0.00898577
0.00396395
0.00756359
0.00673161
0.00634416
0.00362445
0.00661699
0.00935607
0.00738765
0.00949805
0.00677328
0.00650416
0.00595426
0.00513005
0.00926243
0.00494501
0.00565115
0.00659866
0.00678378
0.00541662
0.00337555
0.0076928
0.0067426
0.00904031
0.00617257
0.00803799
0.00358686
0.00508341
0.00314971
0.00730095
0.00772603
0.00859186
0.0061969
0.00480624
0.00693926
0.0094531
0.00488426
0.00356039
0.00566376
0.00578939
0.00856771
0.00569987
0.00629335
0.0077908
0.00815498
0.00380322
0.00706543
0.00630111
0.00757995
0.00419951
0.00698307
0.0034177
0.00473404
0.00913051
0.00735399
0.00917949
0.0039777
0.00700218
0.00725742
0.00683296
0.00433173
0.00619091
0.00642392
0.00724661
0.00870431
0.00373131
0.0043099
0.00376357
0.00506161
0.00652511
0.00372639
0.00331483
0.00785998
0.00472204
0.00748477
0.00579811
0.00685399
0.00346665
0.00333829
0.00938155
0.00381334
0.00550756
0.00740822
0.00733094
0.00899363
0.00645413
0.00348438
0.00957231
0.00475342
0.0105069
0.00735696
0.00516126
0.00501428
0.0100064
0.00696789
0.00955576
0.00603519
0.00365062
0.00575718
0.0053774
0.00778283
0.00662233
0.0064285
0.00705951
0.00743653
0.00596043
0.00515899
0.00572353
0.0106353
0.00401109
0.00392748
0.00727087
0.00440208
0.00574832
0.00424199
0.00774566
0.00909636
0.0036579
0.00637815
0.0088448
0.0059008
0.00476199
0.00945546
0.00433573
0.00707699
0.00475365
0.00949419
0.00351879
0.00791673
0.00322846
0.00711335
0.00786558
0.00705673
0.00618711
0.00725991
0.00384106
0.00677317
0.00704483
0.00419862
0.00354215
0.00416161
0.00646474
0.00348901
0.00442488
0.00559605
0.00677764
0.00349116
0.0038994
0.00490679
0.005983
0.00753105
0.00433877
0.00708664
0.00966683
0.00468373
0.00957563
0.00399663
0.00637269
0.00447256
0.00462937
0.00535289
0.00615498
0.00973544
0.00651203
0.00730894
0.00602369
0.00965027
0.00395981
0.0033267
0.00895227
0.00607492
0.00950749
0.0073096
0.00611828
0.00462566
0.00592884
0.00592996
0.00379016
0.00767547
0.0103555
0.00694089
0.00377487
0.00379656
0.00960194
0.0055161
0.00609956
0.00696818
0.00694493
0.00384364
0.0061606
0.0077955
0.00398831
0.00648532
0.00678157
0.00342711
0.00726401
0.00636081
0.00757011
0.00588878
0.00351774
0.00411406
0.00337017
0.00379137
0.00370416
0.00381741
0.00403571
0.00442203
0.00665667
0.00725431
0.00914534
0.00446322
0.00379759
0.00438141
0.0071309
0.00565183
0.00421977
0.00480628
0.00441654
0.00771248
0.00533337
0.00769006
0.0073058
0.0176114
0.00410777
0.00708966
0.00940544
0.00486201
0.00597525
0.00753697
0.0057613
0.00740885
0.00365699
0.00721107
0.00781897
0.00691547
0.00492567
0.00935179
0.00691272
0.00325306
0.00712937
0.00906577
0.00536102
0.00472884
0.00408956
0.00609796
0.00583267
0.00694322
0.00709099
0.0057793
0.00389444
0.00625325
0.00596045
0.00613803
0.0040184
0.00407048
0.00600157
0.00762709
0.00733222
0.00745334
0.00751862
0.00365107
0.00427885
0.00758753
0.00493112
0.00328338
0.00722325
0.00574174
0.00677677
0.00681679
0.00676787
0.00766302
0.0070197
0.00695323
0.00691855
0.00770479
0.00901176
0.00439089
0.00425177
0.00717973
0.00534612
0.00645469
0.00404674
0.00749579
0.00655773
0.00374126
0.00799294
0.00797383
0.00765579
0.00573297
0.00359395
0.00736803
0.0153891
0.00355891
0.00758489
0.00773616
0.00766789
0.00685616
0.00343273
0.00680961
0.00438418
0.0066546
0.00698224
0.00643482
0.00531216
0.00647882
0.00739011
0.00665641
0.0037439
0.00449642
0.0045755
0.00356682
0.00777614
0.0048622
0.00583952
0.00663163
0.00387123
0.00763489
0.00772211
0.00370675
0.00749128
0.00726499
0.00480916
0.00769621
0.00587352
0.00703739
0.00746802
0.00623392
0.00854269
0.00731379
0.00367274
0.00326142
0.00707502
0.0105296
0.00641706
0.00734386
0.00371555
0.00943364
0.006976
0.00378968
0.00610377
0.00456618
0.00435618
0.00373745
0.00930894
0.0032952
0.00672472
0.00641367
0.00797055
0.00756467
0.00427672
0.0061881
0.00734925
0.00355087
0.00526101
0.00713342
0.00422572
0.00613809
0.00771789
0.0044276
0.00618793
0.003504
0.00390119
0.00906113
0.00437336
0.00380591
0.00675351
0.00440266
0.00695167
0.0064473
0.00351685
0.00744534
0.0084582
0.00764086
0.00395881
0.0047812
0.00358628
0.0051871
0.00896221
0.00649937
0.0057532
0.00478992
0.0110824
0.00666267
0.00777398
0.00562962
0.0074378
0.00411421
0.00482257
0.00585759
0.00699561
0.00398787
0.00750559
0.00518473
0.00514984
0.00467045
0.00990531
0.00378307
0.00571505
0.00761067
0.00726135
0.00577873
0.00384633
0.00764959
0.00638758
0.00625826
0.00736335
0.0056467
0.00390884
0.00782573
0.0064511
0.00511518
0.00986999
0.00658371
0.00606391
0.00656302
0.00382383
0.00642008
0.00514858
0.00696854
0.00815953
0.00459801
0.00408473
0.00625938
0.00770937
0.00432655
0.00540201
0.00714469
0.0071799
0.00581615
0.00497843
0.00941877
0.00949092
0.0066674
0.00505018
0.00639105
0.00355135
0.00492567
0.00590424
0.00705301
0.00514664
0.00447114
0.00457149
0.00516979
0.00348726
0.00708917
0.0090885
0.00709132
0.00363338
0.00331245
0.00660932
0.00638918
0.00677913
0.00658437
0.00731224
0.00714216
0.00991108
0.00716323
0.00720555
0.00772249
0.00956183
0.00740342
0.00382132
0.00996777
0.00383708
0.00741031
0.00653636
0.00728618
0.00488554
0.00638194
0.00910436
0.00639206
0.00749429
0.00712081
0.00347677
0.00616338
0.00498097
0.00508829
0.00632671
0.00543867
0.0107601
0.00535868
0.00442377
0.00352526
0.0056115
0.0097827
0.00765074
0.00738714
0.00382488
0.0071631
0.00374102
0.0052595
0.00681711
0.00577318
0.0175968
0.00340346
0.0053327
0.00330616
0.00466211
0.00395506
0.00378954
0.0052499
0.00352398
0.00584242
0.006754
0.00410139
0.00513623
0.00940256
0.00670374
0.00734089
0.00423667
0.00433959
0.00396764
0.0089203
0.00532477
0.00478613
0.00939301
0.00924742
0.00491719
0.00726538
0.00462185
0.00466967
0.00379082
0.00356537
0.00752161
0.00673209
0.00697256
0.00751775
0.00335655
0.00514535
0.00375762
0.00361354
0.00475694
0.0104637
0.00404113
0.00885122
0.00657388
0.00371929
0.00881533
0.00760488
0.00360459
0.00435357
0.00362165
0.00423859
0.00722262
0.00526963
0.00678044
0.00775491
0.00797368
0.00476841
0.00387457
0.00726046
0.00625336
0.00686959
0.006699
0.00661158
0.00709598
0.00569828
0.00628784
0.00659988
0.00611706
0.00645976
0.00765262
0.00671096
0.00688694
0.00343887
0.00500838
0.00780578
0.00444181
0.00468732
0.0035095
0.00937541
0.0131484
0.00534002
0.0062732
0.00676897
0.00461384
0.00891959
0.0066527
0.00529839
0.00433187
0.00502265
0.00785628
0.00635805
0.00656239
0.0070561
0.0075663
0.00622169
0.00515248
0.00450149
0.00418021
0.00376794
0.00340719
0.00430841
0.00772626
0.00492107
0.00733759
0.00481665
0.00682116
0.0052662
0.00508197
0.00354897
0.00663637
0.00554571
0.00374423
0.00706991
0.00658229
0.00615776
0.005819
0.0087158
0.00730312
0.00766079
0.00952201
0.00367137
0.00450556
0.00737932
0.00505574
0.00983724
0.00386227
0.0053821
0.00375141
0.00687476
0.00372626
0.0101706
0.00405707
0.009177
0.00316997
0.00980517
0.00579446
0.00515814
0.00719217
0.00983891
0.00542703
0.00319364
0.00532662
0.00493999
0.00529514
0.00343358
0.00767552
0.00718172
0.00751761
0.00494786
0.00490267
0.00485229
0.00817079
0.00610629
0.0072603
0.00484402
0.00442435
0.00342567
0.00351663
0.00348608
0.00896471
0.0070002
0.00855241
0.00387185
0.0079179
0.00662554
0.00925915
0.0049846
0.00966263
0.00644374
0.00972142
0.00658858
0.00801493
0.00495431
0.00492817
0.00759331
0.00671897
0.00532679
0.00750446
0.00626079
0.00413061
0.00939083
0.00666144
0.00954181
0.00429491
0.006291
0.00768243
0.00374989
0.00597898
0.00716045
0.00417558
0.00565152
0.00720204
0.00400813
0.00766112
0.00726674
0.00380895
0.00593831
0.00692496
0.00917528
0.00362703
0.00549436
0.00510902
0.00945211
0.00476494
0.00715299
0.00924962
0.00673741
0.0102062
0.00353735
0.00345455
0.00752361
0.00932723
0.00710948
0.00420236
0.0052734
0.00361085
0.00657478
0.00684931
0.00609678
0.00924677
0.00383932
0.0078864
0.00429178
0.0096479
0.00450183
0.00358998
0.00938958
0.00688006
0.00471316
0.00363179
0.00861326
0.00587511
0.00536347
0.00768477
0.00665712
0.00663275
0.00368432
0.00397569
0.00586496
0.00488802
0.00471572
0.00708453
0.00349789
0.00588342
0.00453744
0.00623979
0.00343206
0.00369503
0.00392927
0.00385202
0.0078011
0.00502118
0.0078895
0.00453888
0.00827621
0.0135018
0.00535194
0.00489343
0.0051358
0.00769288
0.00602999
0.00417445
0.00372126
0.00347332
0.010324
0.00994223
0.0102792
0.00515929
0.0087919
0.00592141
0.00673299
0.00434251
0.00717422
0.00880474
0.00784291
0.00478316
0.00684588
0.0041469
0.00706096
0.00690382
0.00685892
0.00408461
0.00573302
0.0101939
0.00428201
0.00494953
0.00437455
0.00738389
0.00548568
0.00744177
0.00341034
0.00349034
0.00408405
0.00581472
0.0062295
0.00565064
0.00717773
0.0035553
0.00726233
0.005156
0.00503672
0.00302808
0.0051433
0.00616068
0.00477423
0.0043008
0.00864243
0.00553356
0.00571588
0.00671558
0.00347762
0.00380856
0.00399198
0.00363189
0.00559738
0.00348102
0.00400448
0.00679318
0.00367121
0.00665828
0.00923351
0.00850247
0.00449664
0.00324342
0.0054611
0.00439973
0.00353936
0.00900556
0.00500342
0.0040407
0.0055558
0.0034708
0.0071858
0.00503238
0.00585518
0.00413726
0.00463974
0.00374437
0.00936589
0.00371095
0.00681406
0.00372002
0.00740058
0.00518773
0.00524113
0.00613903
0.00677763
0.00880462
0.0039509
0.0109514
0.00595072
0.0068027
0.00379799
0.00591093
0.00356548
0.00391834
0.00873498
0.00368757
0.00369455
0.00769044
0.00942983
0.00652585
0.00409943
0.00375857
0.00450537
0.00683187
0.00695265
0.008621
0.00608053
0.00396006
0.00509501
0.0038998
0.00652424
0.00943279
0.0076223
0.00720291
0.00663093
0.00360215
0.00677187
0.00382662
0.00530954
0.0094272
0.00339653
0.00554116
0.00379224
0.00708054
0.00370661
0.00453466
0.00731635
0.00744625
0.00879586
0.00432037
0.00708052
0.00743533
0.00482157
0.0102547
0.00639774
0.00808822
0.00801759
0.00611882
0.00495836
0.00636263
0.0102935
0.00404909
0.0058169
0.00461125
0.00560263
0.00406339
0.00723995
0.00513595
0.00686267
0.00802502
0.0047168
0.00557087
0.00648796
0.00648382
0.00389376
0.005162
0.00589511
0.0064855
0.00716018
0.00692573
0.00783297
0.00512295
0.00920625
0.00446815
0.00660371
0.0059047
0.00945246
0.00649911
0.00502368
0.0044017
0.00472963
0.00642065
0.0087864
0.00508634
0.00420118
0.00720106
0.00368947
0.0088866
0.00371666
0.00689291
0.00360117
0.00616723
0.00483316
0.00608337
0.00720289
0.00625523
0.00654483
0.00726326
0.00606428
0.00717359
0.00476131
0.00817857
0.00990238
0.00477305
0.010405
0.00339122
0.00375437
0.00352201
0.00766961
0.00405308
0.00698596
0.0075926
0.00495427
0.00352954
0.00595252
0.00399274
0.00761278
0.00375621
0.00371841
0.00657572
0.00452353
0.003609
0.00359806
0.00531215
0.00983186
0.00919017
0.00706557
0.00417493
0.00693322
0.00390891
0.0111841
0.0079706
0.00452071
0.00759288
0.0064605
0.00696832
0.00524009
0.00647483
0.00722403
0.0082217
0.00781097
0.0040932
0.009322
0.00541169
0.00620645
0.00970727
0.00411367
0.00721492
0.00777465
0.00543618
0.00700089
0.00524409
0.00703677
0.00372813
0.00352222
0.00714883
0.00556908
0.00929038
0.00689991
0.00380043
0.00667723
0.00391557
0.00951326
0.0095887
0.00502191
0.00830296
0.00545583
0.00642855
0.0073951
0.00653719
0.00485863
0.0069775
0.00419578
0.00572933
0.00468583
0.00473805
0.00935128
0.00698129
0.00976996
0.00578726
0.00676827
0.0063535
0.00649786
0.00784673
0.0054743
0.00363453
0.0034473
0.00371218
0.00666372
0.006521
0.00501648
0.00737848
0.00676172
0.00632879
0.00681298
0.00446846
0.00986453
0.00376663
0.00650232
0.00612392
0.00492131
0.00949888
0.00878698
0.00334602
0.0054008
0.00945029
0.00554584
0.00900214
0.0049532
0.00688536
0.00633873
0.00769705
0.00636585
0.00353753
0.00497999
0.00759082
0.00627016
0.00633713
0.0069717
0.00644662
0.0048877
0.00369489
0.00780469
0.00674565
0.00655209
0.00619416
0.00785548
0.00930228
0.00628756
0.00361365
0.00773016
0.00499029
0.00624004
0.00708164
0.00463089
0.00363949
0.0045808
0.00362181
0.00490632
0.00473467
0.00953681
0.00571184
0.00436829
0.00496475
0.0040877
0.00920191
0.00586347
0.00717038
0.00993562
0.00372764
0.00414229
0.00637064
0.0102834
0.0106641
0.00785916
0.00507992
0.00450766
0.00985418
0.00931421
0.0109588
0.00360458
0.00658342
0.00550432
0.0063018
0.00454457
0.00939617
0.00567131
0.00415345
0.00959606
0.00951308
0.00915288
0.0042802
0.00859917
0.00597617
0.0060114
0.00766674
0.00520365
0.00613921
0.00325034
0.00579804
0.00762023
0.00509364
0.00594154
0.00717119
0.00514255
0.00361275
0.00544804
0.00640243
0.00927994
0.00398075
0.0035967
0.00361242
0.00347148
0.00703919
0.0046423
0.00663067
0.010225
0.00330726
0.00786169
0.00754168
0.00621665
0.00593864
0.00320652
0.00520284
0.00332224
0.00667491
0.00601114
0.00622971
0.0070235
0.00581483
0.00600454
0.00653731
0.00425947
0.00433069
0.00536134
0.00371279
0.00402721
0.00516441
0.00462337
0.00750915
0.00333591
0.00466759
0.00935713
0.00628575
0.0107873
0.00323071
0.00399278
0.00386647
0.00478799
0.00495347
0.0059107
0.00467415
0.00914858
0.00382034
0.00718515
0.00691115
0.00916498
0.00583651
0.00564439
0.00896013
0.0062603
0.00712906
0.0075918
0.00877892
0.00678754
0.00481777
0.00773187
0.0074431
0.00521459
0.00347674
0.00578529
0.00453185
0.00367212
0.00665707
0.00746278
0.00476176
0.00486785
0.00397503
0.00513735
0.00684521
0.00441303
0.00416734
0.0053609
0.00676629
0.00604647
0.00708329
0.00965537
0.00713199
0.00916928
0.00533058
0.00554787
0.00644846
0.00630473
0.00494442
0.00976673
0.00521582
0.00782718
0.00718125
0.00470025
0.00650515
0.00750621
0.00406083
0.00620464
0.00684544
0.00371076
0.00944667
0.00443967
0.00336937
0.00644015
0.00716901
0.00685574
0.00684256
0.00546875
0.00515366
0.00335332
0.00696522
0.0069855
0.00522604
0.00413256
0.00882887
0.00907505
0.00372405
0.00347281
0.00708357
0.00727501
0.00920546
0.00388497
0.00459735
0.00474291
0.00380605
0.00621004
0.00484824
0.00483982
0.00743285
0.00340446
0.00420227
0.00606635
0.00386431
0.00499199
0.00922045
0.00395497
0.00551846
0.00473205
0.0058029
0.00734373
0.00745061
0.00657717
0.00397401
0.00653382
0.0035173
0.00687835
0.00376148
0.00384879
0.00374509
0.00940167
0.00364048
0.00637022
0.00693887
0.00502305
0.00901963
0.00715892
0.00602958
0.00696688
0.00481469
0.00380662
0.00912478
0.00442575
0.00642035
0.00357481
0.00569794
0.00589356
0.00695922
0.00556573
0.00593528
0.00756991
0.00626845
0.00628545
0.00616421
0.00681815
0.00430628
0.00769998
0.00737164
0.00508799
0.00523535
0.00654818
0.00692956
0.00885981
0.00501131
0.00946502
0.00751245
0.00914103
0.00620807
0.00417934
0.00438016
0.00504729
0.00366353
0.00815986
0.00676384
0.0089406
0.0081686
0.00542048
0.00532533
0.00356476
0.00423056
0.00596912
0.00946554
0.00483947
0.00681968
0.00702325
0.00668505
0.00463212
0.0054491
0.00369211
0.0047456
0.00733707
0.00866051
0.00492778
0.00623097
0.00743954
0.0056416
0.00716118
0.0070084
0.00374664
0.00760994
0.00525155
0.00719066
0.00410036
0.00417715
0.00722892
0.00399903
0.00618692
0.0054525
0.0062628
0.00581529
0.00752022
0.00532597
0.00698462
0.00644233
0.0075328
0.00453284
0.00389964
0.00762314
0.0117292
0.00633595
0.00717285
0.00362213
0.00413508
0.00634333
0.00344459
0.00669707
0.00620261
0.00378388
0.00482233
0.00497332
0.0041811
0.00651948
0.00659043
0.0100412
0.00458871
0.006619
0.0075105
0.00478523
0.00505159
0.00539878
0.00571835
0.00365221
0.0071259
0.00742045
0.00775444
0.00797748
0.00740612
0.0101887
0.00964815
0.00439634
0.00633412
0.00739225
0.00733812
0.00384945
0.00583784
0.00688032
0.00962776
0.00799633
0.00662874
0.0068143
0.00764006
0.00503001
0.00566066
0.003546
0.00631597
0.00598692
0.00515406
0.00390022
0.00562412
0.00349739
0.00430326
0.00352702
0.00756817
0.00345151
0.00434175
0.00707117
0.00450947
0.00663806
0.00686063
0.00762641
0.00502522
0.00716117
0.00349796
0.00704897
0.00718503
0.00477493
0.00617425
0.00774182
0.00755638
0.00652944
0.00438226
0.00693318
0.00593502
0.00660451
0.00527352
0.00393033
0.00576777
0.00470985
0.00382241
0.0050454
0.00733943
0.00399053
0.00704624
0.00488896
0.003675
0.00393918
0.00929503
0.00411442
0.00912711
0.00386919
0.00533828
0.00522379
0.00686051
0.00575854
0.00689938
0.00695112
0.00647697
0.00324292
0.00536308
0.00417222
0.00651534
0.00686834
0.00428282
0.00589358
0.00382547
0.00640757
0.00390588
0.00624187
0.00648597
0.00714935
0.00721189
0.00694282
0.00490815
0.00433742
0.00419242
0.00774927
0.00712681
0.00761495
0.00558264
0.00390431
0.00360694
0.00370735
0.00644444
0.00570072
0.0067701
0.00476024
0.00734594
0.00515544
0.00609355
0.00457411
0.00876619
0.00353245
0.00619678
0.0106602
0.00955516
0.00560613
0.00364238
0.00711326
0.00482433
0.00759437
0.0076488
0.00371491
0.00432796
0.00607325
0.00635562
0.00977778
0.00454207
0.00640879
0.0064634
0.00515242
0.00426128
0.00687133
0.00607299
0.00670965
0.00479971
0.00948665
0.00364685
0.00508069
0.00565953
0.00737301
0.0038391
0.00516474
0.00407194
0.00326597
0.00885582
0.0041019
0.00389503
0.00710764
0.00481773
0.00584745
0.00507184
0.00624811
0.00438681
0.00746653
0.00504432
0.00500337
0.00527953
0.00664152
0.00490432
0.00553489
0.00636011
0.00595751
0.00499906
0.00690601
0.00513207
0.00784612
0.00785642
0.0039075
0.00792896
0.00458901
0.00449342
0.00644315
0.00559915
0.00622663
0.00906831
0.00911906
0.0072104
0.00654357
0.00675181
0.00406976
0.00720542
0.00401057
0.00514084
0.00641241
0.00755411
0.00631306
0.00952291
0.004656
0.0034052
0.0033875
0.00579935
0.00875648
0.00673899
0.00473336
0.00912217
0.00747332
0.0067396
0.00418886
0.00421297
0.00782955
0.00783722
0.00640816
0.00676794
0.00886861
0.0069621
0.00526168
0.00460743
0.0091016
0.00380175
0.00361392
0.00896292
0.00361767
0.00820558
0.00402872
0.0051093
0.00752831
0.00627886
0.0115194
0.00355528
0.00692811
0.00730117
0.00580247
0.00418749
0.00632883
0.00375321
0.00361286
0.00785354
0.00532757
0.00363017
0.00784192
0.00737953
0.00496029
0.0097667
0.00652974
0.00619359
0.00729349
0.00441043
0.00502741
0.0102673
0.00933072
0.00646937
0.00718307
0.00738331
0.00356887
0.00995257
0.00654571
0.00569677
0.00490628
0.00672695
0.0070838
0.00500564
0.00620941
0.00749187
0.00479905
0.0048974
0.00620027
0.00370876
0.00389344
0.00603678
0.00734101
0.00714519
0.010022
0.00565401
0.00388071
0.0048634
0.00785235
0.00728281
0.00694011
0.00355364
0.00591151
0.0101687
0.00365426
0.00434408
0.00974998
0.0058408
0.00622926
0.00531156
0.00601947
0.00693435
0.00613643
0.00743701
0.0047189
0.0090945
0.00670622
0.00641587
0.00466293
0.00510642
0.00649157
0.00649438
0.00706391
0.00523155
0.0089448
0.00669016
0.00526376
0.0048117
0.00633187
0.00512177
0.00461849
0.00534981
0.00461799
0.00549429
0.00806739
0.00329016
0.00599833
0.00451615
0.00684908
0.00656502
0.00661528
0.00588396
0.00604953
0.00746409
0.00365725
0.00518058
0.00534124
0.00951808
0.00356813
0.00646707
0.00683859
0.00576234
0.00516215
0.0036978
0.00777404
0.00479862
0.00660872
0.00373108
0.00933335
0.0101316
0.00417063
0.00368881
0.00570628
0.00593366
0.00698086
0.00621219
0.0073611
0.00644531
0.00584711
0.00701975
0.00391574
0.00622812
0.00633977
0.00361837
0.0065467
0.00346175
0.00856927
0.00384942
0.00507164
0.0046032
0.00387882
0.00438007
0.00365348
0.00666069
0.0049278
0.00614751
0.00543282
0.00363269
0.00668915
0.00657323
0.00327887
0.0102302
0.00509286
0.00702756
0.00399356
0.00556683
0.00483489
0.00451938
0.00309631
0.00649896
0.00951185
0.0112193
0.00744133
0.00658935
0.00579123
0.00641844
0.00638979
0.00773387
0.00323896
0.00696993
0.0041428
0.00405068
0.00383283
0.00767744
0.00644942
0.00961127
0.00638311
0.00677172
0.00987444
0.00538484
0.0043019
0.00641109
0.00629471
0.00704151
0.00391244
0.00360609
0.00556744
0.00611597
0.00508281
0.00557294
0.00811021
0.0042887
0.00561755
0.004103
0.00752746
0.00339974
0.0035769
0.00566457
0.00614425
0.00607213
0.00381461
0.00364572
0.00418449
0.0039356
0.00491337
0.0038419
0.00370629
0.00716808
0.00507201
0.00465383
0.00541191
0.00703338
0.00472062
0.00688448
0.00663834
0.00383128
0.00469108
0.00563798
0.00556371
0.00334837
0.00758964
0.00694915
0.00474592
0.00901441
0.0035316
0.00582968
0.00681882
0.0045197
0.00653752
0.00383865
0.003849
0.00398112
0.00373223
0.00503452
0.00584165
0.0101248
0.00471925
0.00591741
0.00641782
0.00367046
0.00528917
0.00582157
0.0125513
0.00771397
0.00643675
0.00465323
0.00678084
0.00623049
0.00444973
0.00364405
0.00381175
0.00620368
0.00884909
0.00662831
0.00622632
0.00962656
0.00645907
0.00486663
0.0051422
0.00544791
0.00324509
0.00437424
0.0043642
0.00497223
0.00936002
0.00532885
0.00367936
0.00669201
0.00608219
0.00472316
0.00348673
0.00900063
0.00712469
0.00339381
0.00492678
0.00410193
0.00536597
0.00425045
0.00685568
0.0076224
0.00371049
0.00877887
0.00551483
0.00473617
0.00884649
0.00526303
0.00573736
0.00475646
0.0054327
0.00717518
0.00733185
0.00718564
0.00444333
0.00592205
0.00436883
0.00521394
0.00526367
0.00342293
0.00408161
0.00474219
0.00376197
0.00764659
0.00340598
0.0069712
0.00562403
0.00399167
0.0065494
0.0110625
0.00414772
0.00391444
0.00578792
0.00760255
0.0034328
0.010304
0.003895
0.00402228
0.00691481
0.00643904
0.00322512
0.0056256
0.00852486
0.00744482
0.00628956
0.0036393
0.0076923
0.00476917
0.00579765
0.00474408
0.00470758
0.00713335
0.00466933
0.00657877
0.00622937
0.00448737
0.00443465
0.00391522
0.00954495
0.00599643
0.00996315
0.00633542
0.00375087
0.00577099
0.00462526
0.00787345
0.00664918
0.00606436
0.00365865
0.00462423
0.0038276
0.00701384
0.00540821
0.00367112
0.00442908
0.00359361
0.00766043
0.00513662
0.00906875
0.00471221
0.00770388
0.00375116
0.00922712
0.00566281
0.00522323
0.00497105
0.00335433
0.00457395
0.00537995
0.00335438
0.00531183
0.00616812
0.00733684
0.00990215
0.0058505
0.00784206
0.00652774
0.00356391
0.0055899
0.0064781
0.00518568
0.00673612
0.00642633
0.00704862
0.00404264
0.00981404
0.00934525
0.00627823
0.00915571
0.00587937
0.00681988
0.00683887
0.00477265
0.0042616
0.00685014
0.00770207
0.00533501
0.00519717
0.0050039
0.00697757
0.00590823
0.00311637
0.00474307
0.00448211
0.00640391
0.00735884
0.00558922
0.00525506
0.00598364
0.00402069
0.00417888
0.00627517
0.00618979
0.00298892
0.00399515
0.00528578
0.00733463
0.00643535
0.00354675
0.00317275
0.00483378
0.0054813
0.00642657
0.00697994
0.00725109
0.00355704
0.00427888
0.00726087
0.00933645
0.00687642