/*--------------------------------*- C++ -*----------------------------------*\
| =========                 |                                                 |
| \\      /  F ield         | OpenFOAM: The Open Source CFD Toolbox           |
|  \\    /   O peration     | Version:  2406                                  |
|   \\  /    A nd           | Website:  www.openfoam.com                      |
|    \\/     M anipulation  |                                                 |
\*---------------------------------------------------------------------------*/
FoamFile
{
    version     2.0;
    format      ascii;
    arch        "LSB;label=32;scalar=64";
    class       volVectorField;
    location    "20";
    object      momentum:momentum;
}
// * * * * * * * * * * * * * * * * * * * * * * * * * * * * * * * * * * * * * //

dimensions      [1 1 -1 0 0 0 0];

internalField   nonuniform List<vector> 
59516
(
(2.55438e-07 -6.42501e-10 -8.54762e-10)
(1.8476e-07 -9.6935e-10 -2.36728e-09)
(2.19858e-07 -2.01448e-09 -2.26455e-10)
(1.73964e-07 3.07497e-09 1.70471e-09)
(2.00036e-07 1.23917e-09 -6.77566e-09)
(5.03872e-08 -2.40023e-09 -5.3867e-09)
(2.23836e-07 7.72944e-10 -2.76113e-09)
(2.24401e-07 4.02597e-09 1.04709e-09)
(1.68155e-07 9.44089e-10 1.09501e-09)
(9.69138e-08 2.27846e-10 2.35628e-09)
(1.89936e-07 1.26239e-09 -6.40829e-10)
(1.21615e-07 2.98333e-09 -5.85555e-09)
(3.56803e-07 9.50779e-10 -1.95633e-10)
(2.11844e-08 -1.7255e-10 -2.9583e-10)
(1.93447e-07 2.58893e-09 6.60239e-09)
(1.01981e-07 4.67805e-09 -2.55105e-09)
(2.33522e-07 5.924e-10 -3.62118e-10)
(1.73028e-07 7.46e-09 -7.97061e-09)
(3.51661e-07 3.73305e-09 4.13189e-09)
(3.32749e-07 -1.86754e-09 -1.56234e-10)
(1.1768e-07 -1.07914e-09 -7.66646e-10)
(3.11748e-07 1.37136e-09 1.82188e-09)
(3.33819e-07 1.55339e-09 -2.55732e-10)
(4.51961e-08 -1.34718e-09 -5.55116e-10)
(2.88818e-07 -2.35754e-09 2.88999e-09)
(2.38591e-07 5.42718e-09 -5.22486e-10)
(6.58579e-08 1.79095e-09 -4.2892e-09)
(8.47233e-08 3.91346e-09 1.30551e-09)
(1.6901e-07 5.68211e-10 1.68899e-09)
(1.85192e-08 -2.61938e-09 9.69598e-10)
(1.90401e-07 -3.58871e-08 -7.91053e-09)
(9.60016e-08 3.70182e-09 -1.83436e-09)
(1.74745e-07 -1.32993e-09 2.00798e-09)
(1.84522e-07 1.78095e-09 1.41284e-09)
(1.3001e-07 -2.21329e-10 6.74332e-10)
(3.9763e-07 -2.60399e-09 -6.85239e-10)
(1.66813e-08 -1.73065e-09 -1.74026e-09)
(1.39853e-07 5.72626e-09 -1.10654e-08)
(3.02353e-07 -2.98238e-09 1.67307e-09)
(2.57016e-07 -3.96155e-09 2.79854e-09)
(2.87086e-07 -3.02451e-09 -1.04259e-09)
(4.00971e-07 -8.22654e-09 -1.09134e-08)
(3.34627e-07 2.02636e-09 1.52002e-09)
(1.20928e-07 -5.19504e-10 -1.35462e-09)
(2.67015e-07 1.24293e-10 6.97968e-10)
(1.21625e-07 3.55482e-10 -1.07807e-09)
(3.34208e-07 1.64198e-09 -2.76904e-09)
(2.28822e-07 6.31293e-10 1.19902e-10)
(2.51638e-07 -1.87344e-08 2.70699e-08)
(2.23855e-07 2.07504e-09 2.8099e-09)
(1.63756e-07 1.66252e-08 -2.27086e-08)
(9.47011e-08 -5.97907e-09 2.6979e-09)
(3.41332e-07 2.50776e-09 -5.47703e-10)
(3.22081e-07 9.44771e-10 -1.47e-09)
(9.88237e-08 2.47105e-09 -5.71984e-10)
(2.5456e-07 -3.30663e-09 -1.02963e-10)
(1.92508e-07 6.14244e-09 7.24116e-09)
(1.00619e-07 7.39538e-09 -2.18335e-09)
(1.74524e-07 -2.67362e-09 8.93162e-10)
(1.44061e-07 2.69422e-09 3.59109e-09)
(1.96925e-07 8.42769e-10 4.78275e-11)
(2.09566e-08 2.18105e-09 -9.10827e-10)
(2.2471e-07 -2.25281e-09 -1.62477e-09)
(2.94733e-07 1.94452e-11 -2.53068e-09)
(3.19025e-07 -1.25661e-09 -1.43202e-09)
(2.01646e-07 1.16146e-09 5.73774e-10)
(2.45965e-08 -1.76425e-09 2.02851e-09)
(8.61728e-08 -9.80012e-10 1.76297e-10)
(1.97637e-07 -6.94871e-09 3.41971e-08)
(1.70922e-07 1.34455e-09 1.70989e-09)
(7.00107e-08 1.66854e-09 6.4157e-10)
(1.38977e-07 1.00363e-12 -4.47262e-10)
(2.90934e-08 1.53733e-09 -3.92868e-09)
(1.8255e-07 -1.09274e-09 -7.15098e-10)
(3.06548e-07 -2.61784e-09 1.41107e-09)
(3.34613e-07 1.92734e-09 7.54988e-10)
(1.91558e-07 1.34704e-09 1.92004e-10)
(2.12375e-07 4.47066e-10 -1.26746e-09)
(1.08509e-07 -3.08246e-09 9.99191e-10)
(1.76657e-07 1.55182e-09 2.11658e-09)
(6.31391e-08 2.51449e-09 8.10905e-11)
(1.60474e-07 1.12839e-09 1.12099e-09)
(1.77624e-07 6.98322e-10 1.2272e-09)
(2.4079e-08 -9.92468e-10 2.41555e-09)
(2.0217e-07 1.06653e-09 1.34767e-09)
(3.17868e-07 -1.76042e-09 -8.04267e-10)
(3.95027e-08 -6.03529e-10 8.77785e-10)
(4.89066e-07 -7.00979e-10 2.76308e-10)
(1.32314e-07 -1.17012e-09 5.62552e-09)
(1.75089e-07 1.03041e-08 -6.41134e-09)
(1.80214e-07 3.20861e-10 -1.10795e-08)
(1.80127e-07 1.42255e-09 8.87385e-10)
(2.19334e-07 -5.23284e-10 1.20912e-09)
(1.75871e-07 8.99322e-11 9.64142e-11)
(1.57629e-07 -1.23692e-09 7.36535e-10)
(1.83495e-07 -1.60092e-08 6.98886e-09)
(1.22086e-07 -1.01406e-09 1.32008e-09)
(1.06878e-07 -1.45605e-09 -6.37535e-09)
(1.31313e-07 1.42757e-09 -1.39673e-10)
(1.97598e-07 -1.18386e-10 1.36532e-09)
(7.70147e-08 1.10213e-09 2.01395e-09)
(3.48973e-08 1.00556e-09 -3.73418e-09)
(3.18342e-08 1.01995e-09 3.86038e-09)
(1.06318e-07 -6.42028e-10 -5.6769e-09)
(2.31767e-07 2.0154e-09 -2.59128e-10)
(1.48277e-07 7.15577e-10 7.7911e-10)
(7.20339e-08 4.44911e-09 -2.9808e-09)
(1.52e-07 -2.79027e-10 -8.48097e-10)
(1.95543e-07 -1.04625e-09 1.49896e-09)
(2.36963e-07 9.80245e-10 -6.98321e-09)
(2.80659e-07 2.5596e-08 -2.64334e-08)
(5.6201e-08 4.6614e-09 -2.75778e-10)
(2.30762e-07 9.98156e-10 -1.26264e-08)
(2.22099e-07 2.83997e-08 -1.49461e-08)
(2.01316e-07 -1.02704e-09 1.07209e-09)
(1.56161e-07 1.81454e-09 2.45141e-09)
(1.50706e-07 -3.72082e-10 -3.52467e-09)
(1.45249e-07 1.19019e-09 7.57389e-10)
(2.46314e-08 -3.71659e-10 1.44589e-09)
(2.46806e-07 2.27275e-09 1.43075e-09)
(3.30276e-07 8.42786e-10 5.78936e-10)
(1.52072e-07 1.49948e-09 2.41629e-10)
(1.46551e-07 6.16345e-10 -4.93728e-10)
(1.57728e-07 1.1071e-09 8.13845e-10)
(1.32974e-07 -1.31886e-08 2.96086e-09)
(1.59148e-07 2.11976e-10 -1.67004e-09)
(4.78848e-08 -5.63019e-10 2.24477e-09)
(2.12133e-07 -1.11574e-08 4.77127e-10)
(1.64766e-07 -5.00761e-09 2.29865e-08)
(1.2943e-07 7.53324e-10 6.32486e-10)
(2.26716e-07 1.13761e-09 2.6609e-09)
(3.56932e-07 5.17523e-09 5.16294e-09)
(3.03134e-08 1.6955e-09 -1.72591e-09)
(2.48972e-07 1.81773e-10 1.8283e-09)
(3.62217e-07 6.44492e-10 1.41558e-09)
(2.17172e-07 -2.13652e-09 -2.83845e-09)
(1.56099e-07 1.5235e-08 -1.15648e-08)
(3.33856e-07 6.09061e-10 3.82985e-09)
(6.58843e-08 3.3778e-09 1.28583e-10)
(1.81028e-07 1.00827e-09 -7.33236e-10)
(9.64841e-08 -1.16175e-09 -3.78183e-09)
(2.63052e-07 1.13233e-09 2.75476e-10)
(1.87284e-08 1.06626e-09 1.60329e-09)
(1.53551e-07 -1.68492e-09 9.20218e-11)
(1.76864e-07 8.44618e-10 1.46041e-11)
(2.77512e-07 3.27738e-09 -4.92508e-10)
(2.05417e-07 5.55026e-11 9.41896e-10)
(2.22921e-07 -1.35035e-09 -2.10214e-09)
(6.43809e-08 -1.01347e-09 1.77204e-09)
(2.30793e-07 -2.55304e-09 1.37347e-10)
(3.64649e-07 -2.0137e-09 -2.55378e-09)
(6.69112e-08 -6.11196e-10 7.23674e-10)
(3.42971e-07 3.91178e-11 4.0478e-09)
(2.01909e-07 -2.86224e-10 1.8315e-09)
(1.86646e-07 -1.36317e-09 2.03371e-09)
(2.00503e-08 -2.94071e-10 1.92904e-09)
(3.02352e-07 2.39645e-09 2.97229e-09)
(3.63772e-07 2.07409e-09 -9.74781e-10)
(1.53465e-07 2.22435e-09 -3.80851e-10)
(2.16205e-08 2.46481e-09 -2.33687e-09)
(1.08962e-07 2.08372e-09 -3.90726e-09)
(1.37351e-07 -4.71017e-09 -3.0242e-09)
(5.26938e-08 -1.32739e-09 7.8452e-10)
(3.01425e-08 2.34973e-11 -4.12685e-10)
(1.87477e-07 2.6942e-09 4.12184e-09)
(2.82563e-07 -1.34925e-11 1.92068e-09)
(1.83504e-07 1.13747e-10 7.1544e-12)
(2.31512e-07 5.93779e-10 3.07771e-10)
(2.33187e-08 -1.23423e-09 2.39057e-09)
(2.04043e-07 3.43618e-10 -8.28118e-10)
(1.01522e-07 8.26554e-10 1.9131e-09)
(8.40287e-08 8.38701e-10 -7.26417e-10)
(1.31991e-07 1.65326e-09 1.86256e-09)
(1.50302e-07 -9.5537e-10 1.14697e-09)
(1.08646e-07 -2.23012e-09 9.94736e-10)
(4.62346e-07 4.56739e-09 -4.30913e-09)
(2.12597e-07 9.40965e-10 -3.83454e-10)
(3.03825e-07 9.21894e-10 8.6958e-10)
(1.81135e-07 -1.2352e-10 8.20823e-09)
(8.24229e-08 -4.71814e-10 -1.63773e-09)
(2.99002e-07 1.17238e-09 3.99203e-09)
(5.53606e-08 -3.71799e-09 -2.38649e-09)
(3.88649e-08 -1.93647e-11 -3.23835e-09)
(1.29443e-07 -4.27988e-09 1.12795e-09)
(1.68209e-07 -8.50094e-11 1.44543e-09)
(1.14091e-07 9.09472e-10 1.30062e-09)
(5.87592e-08 -1.1788e-09 -3.99771e-09)
(2.63037e-08 8.90852e-10 -1.30783e-10)
(2.03036e-07 -1.67278e-10 1.56335e-09)
(2.56468e-07 -4.97041e-09 6.671e-10)
(1.55004e-07 -1.38376e-09 2.21058e-09)
(1.43685e-07 8.31484e-09 -3.76558e-10)
(1.92688e-07 -7.33846e-10 -1.298e-10)
(1.18815e-07 5.30421e-09 4.98366e-10)
(3.20509e-07 -1.69193e-09 1.4682e-09)
(3.63085e-08 -3.78428e-10 4.65186e-10)
(1.19437e-07 1.03235e-09 -2.05775e-10)
(7.13103e-08 -1.34118e-09 1.39986e-09)
(2.0061e-07 3.04368e-09 5.85913e-09)
(2.50274e-07 1.02712e-10 1.50948e-09)
(8.7623e-08 -3.49335e-09 9.02545e-10)
(1.52815e-07 6.02596e-10 -6.5588e-10)
(3.60024e-07 -1.12264e-10 3.81785e-09)
(2.17715e-08 1.75445e-09 -1.18698e-09)
(2.32982e-07 -1.81338e-09 -8.37807e-10)
(2.30684e-07 -1.56562e-09 3.27748e-10)
(2.84618e-07 -8.84057e-10 3.0067e-10)
(1.76097e-07 8.71017e-10 -1.27786e-10)
(2.32715e-08 -7.23626e-10 1.94314e-10)
(3.33706e-07 -4.21874e-09 -1.50512e-09)
(7.17254e-08 4.42979e-09 4.24736e-09)
(3.01552e-08 -3.98284e-09 -7.27282e-10)
(2.31666e-07 1.0007e-09 -1.99953e-09)
(1.20156e-07 -6.33814e-10 4.93655e-10)
(3.25833e-07 1.8606e-09 2.18561e-09)
(2.47219e-07 -1.36939e-09 2.24055e-09)
(2.69465e-07 1.88643e-09 1.09493e-10)
(1.92679e-07 -9.78615e-10 -3.25949e-10)
(1.04133e-07 3.12598e-09 -5.67141e-09)
(2.05595e-07 -7.2718e-10 1.14989e-09)
(1.52739e-07 5.17299e-09 1.95402e-09)
(2.14437e-07 2.37626e-09 -6.20922e-10)
(1.55865e-07 5.0472e-10 1.34048e-09)
(1.00844e-07 -1.12882e-09 2.20221e-09)
(2.52123e-07 -3.21482e-09 7.94705e-10)
(2.63968e-07 6.32014e-10 -9.169e-10)
(4.06191e-08 -1.7568e-10 2.23238e-09)
(8.39654e-08 1.86147e-09 -2.9889e-09)
(1.69987e-07 -1.17095e-09 1.97379e-09)
(1.45537e-07 -1.55364e-09 -8.9659e-09)
(2.1074e-07 -1.38396e-09 6.09862e-10)
(1.5153e-07 8.9928e-10 -5.94925e-10)
(2.55674e-07 7.13644e-10 2.14332e-09)
(3.52343e-08 -2.06628e-09 -1.53356e-09)
(3.89602e-08 3.75783e-10 -1.04642e-09)
(5.1988e-08 2.97385e-10 -1.19297e-09)
(1.35478e-07 2.58318e-10 2.36339e-09)
(1.95333e-07 -1.12625e-09 3.08499e-10)
(3.83445e-07 4.69349e-10 1.91584e-09)
(1.00163e-07 -1.58929e-09 1.58068e-09)
(2.00423e-07 1.12341e-10 1.88877e-09)
(2.49311e-08 3.02849e-11 3.15407e-09)
(1.33473e-07 1.25571e-09 4.28183e-09)
(3.61064e-08 4.52911e-12 3.922e-09)
(1.3287e-07 7.20318e-10 5.36933e-10)
(1.80408e-07 -3.23372e-10 -1.1205e-09)
(1.88022e-07 -5.19989e-10 1.5542e-10)
(2.28963e-07 1.97584e-09 -2.14804e-09)
(2.45562e-07 -2.38037e-10 2.61099e-09)
(2.24128e-07 1.30113e-10 -6.87034e-10)
(3.4219e-07 -5.30219e-09 2.15919e-09)
(2.09065e-07 -1.3139e-11 1.04804e-10)
(1.5283e-07 3.42209e-10 1.34665e-09)
(2.69488e-07 -4.11354e-10 -1.34036e-09)
(2.70435e-07 1.29115e-09 -2.03775e-10)
(2.75329e-07 -2.40352e-10 6.03826e-10)
(1.35353e-07 5.67889e-10 6.17113e-10)
(2.63945e-07 -3.16316e-11 5.46475e-10)
(1.04052e-07 3.7643e-10 -4.03918e-09)
(1.20145e-07 -6.97837e-10 4.16121e-09)
(2.26083e-07 3.07861e-09 -1.46859e-09)
(2.33632e-07 -9.81443e-10 2.25855e-09)
(2.62798e-07 3.59386e-09 3.71479e-09)
(2.40171e-07 -1.29451e-09 2.27787e-09)
(8.3928e-08 -8.69624e-10 1.98732e-09)
(1.28724e-07 6.57242e-09 -2.56533e-09)
(2.78427e-07 4.15184e-10 -1.31882e-09)
(2.42661e-07 6.73117e-09 1.23874e-09)
(7.88697e-08 -1.43371e-09 3.36648e-10)
(9.27147e-08 -2.92216e-11 -2.10198e-09)
(1.87497e-07 -1.61682e-09 -2.93898e-09)
(1.57508e-07 -6.43651e-10 -3.40936e-10)
(3.48568e-07 -7.49981e-09 1.45088e-10)
(1.72063e-07 -2.57592e-09 -3.78582e-10)
(2.9517e-07 -2.66446e-09 1.72748e-09)
(2.22292e-07 -6.47798e-10 7.73584e-09)
(2.6151e-08 2.08213e-09 -1.42602e-09)
(2.71627e-07 -1.30506e-09 2.36274e-09)
(3.84561e-08 1.84083e-09 -1.99438e-09)
(6.54806e-08 -2.53861e-09 1.12944e-09)
(2.84375e-07 -5.38893e-10 2.21074e-09)
(2.48259e-07 -7.03393e-10 5.74251e-10)
(3.59686e-08 4.30618e-09 3.24655e-09)
(3.24429e-07 2.47023e-09 2.16526e-09)
(2.67946e-07 4.31133e-09 1.67728e-09)
(2.16726e-07 1.38002e-09 -4.18198e-10)
(2.62446e-07 -7.96783e-10 -2.16711e-11)
(3.08466e-08 2.88297e-09 7.00577e-10)
(2.26054e-07 -1.60983e-09 1.86658e-09)
(1.16376e-07 -1.51573e-09 1.56251e-10)
(1.33573e-07 -4.10198e-10 1.02694e-09)
(2.55659e-07 -1.52101e-09 2.41946e-09)
(1.64191e-07 1.06841e-09 2.30768e-09)
(1.97765e-07 1.25623e-09 -2.13343e-09)
(2.3366e-07 4.26269e-10 1.73186e-10)
(4.98448e-08 -1.4936e-09 -1.43116e-09)
(2.50613e-07 -4.44105e-09 1.01166e-09)
(1.93366e-07 -1.10043e-09 -8.59164e-10)
(2.9084e-07 -3.02082e-09 1.07205e-09)
(2.24081e-07 -3.10674e-09 6.9137e-10)
(3.36093e-07 -3.15921e-09 2.47314e-09)
(1.6017e-07 7.63667e-09 3.85407e-09)
(2.54608e-08 -6.8116e-10 1.86326e-09)
(4.74116e-08 -4.36023e-10 4.40511e-10)
(4.72191e-07 -6.07341e-09 6.49176e-10)
(2.34765e-08 -8.13862e-10 3.07318e-09)
(2.08462e-07 -7.27868e-10 -9.99556e-10)
(8.99939e-08 3.0459e-09 2.70794e-09)
(2.75921e-07 -1.8296e-09 1.00875e-09)
(3.18483e-07 4.57694e-10 -1.66624e-09)
(2.95297e-07 1.1464e-09 -4.51854e-10)
(1.50157e-07 -2.73102e-09 -1.58281e-09)
(3.20462e-07 2.8907e-09 -4.05871e-09)
(8.64839e-08 -5.5994e-09 6.63592e-09)
(1.04349e-07 1.08828e-10 2.24031e-09)
(1.75941e-07 -2.29564e-09 6.92128e-10)
(1.79532e-07 2.15163e-09 -6.78952e-10)
(2.69098e-07 3.07613e-08 8.81019e-09)
(2.15729e-07 -5.7451e-09 2.59575e-09)
(7.89494e-08 -4.2603e-10 -1.48167e-09)
(1.22481e-07 -1.12382e-09 2.24291e-09)
(2.29548e-07 1.95146e-10 -2.59797e-09)
(1.79151e-07 -4.74534e-11 2.75729e-11)
(3.43573e-07 3.22868e-09 1.54088e-09)
(1.81121e-07 5.99476e-10 2.34079e-09)
(4.46569e-07 -4.41311e-09 5.35117e-10)
(1.78228e-07 1.61792e-09 5.43732e-09)
(3.4569e-07 3.87605e-09 8.41127e-11)
(2.36516e-07 2.90289e-09 -5.76101e-10)
(1.77859e-07 1.20501e-09 6.71786e-10)
(3.00293e-07 -2.64183e-10 1.2829e-09)
(1.27233e-07 1.64892e-09 -4.92311e-09)
(3.0362e-08 -8.43201e-10 -3.62982e-09)
(2.78447e-07 1.0566e-09 1.83251e-09)
(7.48664e-08 -2.86263e-09 3.95564e-09)
(3.72867e-08 -1.37037e-10 7.56752e-10)
(3.51001e-07 -9.48503e-11 1.69539e-09)
(1.92489e-07 -1.65735e-09 4.04812e-10)
(1.21953e-07 -4.83813e-09 -3.96988e-09)
(2.13969e-07 -2.73247e-10 9.81831e-10)
(2.8855e-07 -2.04901e-09 8.10514e-10)
(3.40832e-07 -1.10929e-09 -1.36842e-09)
(2.27233e-07 1.64558e-09 -5.70758e-10)
(3.86278e-08 1.99862e-09 -4.86207e-10)
(2.91073e-07 3.508e-10 -8.96216e-10)
(1.78706e-07 -3.28698e-10 4.39819e-10)
(1.19544e-07 2.18299e-10 1.14882e-09)
(2.37274e-07 -1.17747e-09 2.21654e-09)
(2.09261e-07 1.10878e-09 1.11856e-09)
(1.77388e-07 -4.25169e-10 -1.16972e-09)
(2.07734e-07 -1.28431e-09 -1.38973e-09)
(2.53551e-07 -1.43821e-09 1.96097e-10)
(1.93794e-07 -4.29147e-10 6.10444e-10)
(8.94856e-08 2.5491e-10 3.38713e-10)
(2.51691e-08 1.30295e-09 -1.1463e-09)
(4.65508e-08 -1.44191e-09 -3.45281e-10)
(2.50724e-07 -9.93607e-10 2.07913e-09)
(2.77104e-07 -1.89409e-08 2.95794e-08)
(1.17532e-07 -6.23472e-09 -9.30622e-09)
(1.29255e-07 9.88819e-10 1.29313e-09)
(2.62553e-07 -2.71083e-10 2.48362e-09)
(3.19007e-07 -3.88218e-10 8.62183e-10)
(2.0405e-07 1.0743e-09 1.3807e-09)
(3.41995e-07 7.962e-10 9.69519e-10)
(3.47461e-07 -1.14183e-09 2.84373e-09)
(2.11069e-07 1.63665e-09 1.01482e-09)
(1.28867e-07 1.29002e-09 4.90632e-10)
(3.10627e-08 -7.06837e-10 -1.62411e-10)
(2.41429e-07 -4.59694e-08 6.25787e-09)
(1.0719e-07 3.86708e-09 9.80295e-10)
(7.82036e-08 -4.22637e-09 5.53268e-10)
(8.45562e-08 -4.71292e-11 7.48636e-10)
(1.5492e-07 1.08018e-09 5.69545e-10)
(1.98784e-07 -1.25125e-10 3.15356e-10)
(2.15965e-07 4.09621e-10 -3.81301e-10)
(2.26408e-08 1.07066e-09 -1.25534e-09)
(1.75856e-07 -1.02959e-09 -7.80347e-11)
(8.21744e-08 1.15092e-09 -2.15933e-09)
(1.63001e-07 -1.56111e-09 2.20114e-10)
(6.91714e-08 1.22829e-10 -6.42141e-10)
(1.77962e-07 -3.77582e-09 3.08396e-09)
(2.44566e-07 -2.46771e-09 1.00847e-09)
(1.69402e-07 1.03647e-09 1.13657e-09)
(2.50833e-08 1.88711e-09 -2.46175e-09)
(1.37337e-07 -5.79638e-10 4.8539e-09)
(2.40138e-07 -2.55195e-10 1.02111e-09)
(3.2351e-08 -1.90881e-09 -2.51121e-09)
(2.90271e-07 2.2695e-09 8.46108e-09)
(1.9403e-07 -1.36355e-09 3.45302e-09)
(3.07657e-07 2.31269e-09 -4.19259e-09)
(2.23837e-07 4.89537e-09 -6.45366e-09)
(1.03321e-07 9.57607e-10 9.3463e-10)
(3.63244e-07 2.60075e-09 -1.13543e-09)
(1.4726e-07 -1.24191e-08 -1.2247e-08)
(2.66564e-07 3.81779e-09 1.49733e-09)
(1.58127e-07 9.76406e-09 1.06843e-08)
(1.72851e-07 -9.43235e-09 -6.99261e-10)
(1.67463e-07 1.0324e-10 -3.9773e-09)
(2.25274e-07 1.30907e-09 9.89697e-11)
(4.57068e-07 4.81495e-09 1.18568e-09)
(9.97068e-08 -9.21203e-10 1.33524e-09)
(3.54256e-07 1.05022e-09 -1.21405e-09)
(1.35049e-07 -1.14729e-09 -2.57834e-09)
(3.5973e-07 -2.41668e-09 1.07473e-09)
(2.74517e-07 -1.31127e-09 1.13654e-09)
(8.73374e-08 2.85823e-09 -7.10407e-09)
(2.21093e-07 -4.23057e-10 6.9067e-10)
(3.76962e-07 -4.83446e-09 2.79216e-09)
(2.22163e-07 -5.37862e-10 9.98071e-10)
(2.08218e-07 -2.48788e-10 7.25934e-10)
(2.93259e-08 -1.6134e-09 -3.35173e-09)
(2.51446e-08 1.61771e-09 -2.48452e-09)
(3.00879e-07 1.37174e-09 -3.81082e-09)
(2.365e-07 4.79259e-10 -7.14353e-10)
(1.79322e-07 -1.10065e-09 -8.52634e-10)
(4.61496e-08 1.58072e-10 -3.06156e-09)
(7.45953e-08 -3.40537e-10 2.66506e-10)
(3.39276e-07 -3.04734e-10 -1.67712e-09)
(1.34016e-07 1.05957e-09 8.36313e-10)
(2.62254e-07 2.34154e-09 -1.14214e-10)
(2.32766e-07 -2.68862e-10 -3.38138e-10)
(1.85431e-07 1.89024e-09 1.23752e-09)
(1.99933e-07 2.35124e-09 1.43686e-09)
(1.43303e-07 8.67124e-10 1.74731e-09)
(1.73948e-07 2.5859e-09 5.22824e-10)
(1.08639e-07 -2.83713e-09 -5.64993e-09)
(2.51432e-07 -1.54757e-09 -7.27015e-10)
(2.10031e-07 -1.81214e-11 -2.93617e-09)
(1.96153e-07 2.59543e-09 4.28652e-10)
(1.83317e-07 3.42266e-10 -1.89243e-10)
(3.41489e-07 2.35884e-09 -7.13545e-10)
(2.58473e-07 2.84729e-09 8.24144e-10)
(8.88868e-08 4.55682e-09 5.21746e-09)
(5.64864e-08 6.96099e-10 -1.43389e-09)
(2.63307e-08 1.58256e-09 -2.3761e-09)
(2.10962e-07 2.84929e-09 3.8476e-09)
(2.35486e-07 1.38147e-10 -5.13765e-10)
(2.65483e-07 1.34539e-10 1.8774e-09)
(2.01477e-07 3.58278e-09 1.93847e-09)
(3.6312e-08 -5.84102e-10 9.46112e-10)
(2.99087e-08 -1.12749e-09 3.63797e-09)
(1.96134e-07 -9.80072e-10 2.47493e-09)
(2.13268e-07 1.02475e-09 1.63121e-09)
(2.59174e-07 1.47633e-09 1.33424e-09)
(3.06301e-07 2.8277e-09 -2.9606e-10)
(2.06661e-07 -2.9507e-10 -1.57155e-09)
(2.69852e-07 2.30821e-09 -4.47251e-10)
(3.88935e-07 2.90064e-09 2.02764e-10)
(4.19539e-08 -1.66625e-09 3.61941e-09)
(1.91664e-07 -1.60098e-09 -1.08182e-09)
(8.96418e-08 1.20406e-09 3.72502e-09)
(9.90256e-08 -9.22306e-09 2.18814e-09)
(1.172e-07 7.43232e-11 -5.39621e-10)
(1.63618e-07 1.98352e-09 -2.15183e-10)
(2.45452e-07 1.76634e-09 1.10069e-11)
(2.67346e-08 -4.42978e-09 -9.46182e-10)
(2.9852e-07 4.43185e-09 6.50595e-10)
(2.17891e-07 -3.9227e-10 6.96269e-10)
(1.74942e-07 2.09589e-09 6.77131e-10)
(2.28999e-07 1.08595e-09 -9.80006e-10)
(1.56472e-07 6.04051e-10 8.47062e-10)
(2.14535e-07 1.81266e-09 1.33802e-09)
(2.5064e-07 1.41383e-09 -3.08922e-09)
(2.4086e-07 5.40251e-10 6.30044e-10)
(1.83674e-07 2.45004e-09 -2.54602e-09)
(2.2997e-07 -8.84585e-10 1.11462e-10)
(2.80936e-07 -2.20383e-09 -1.57073e-09)
(2.39664e-08 -1.7235e-09 2.1366e-09)
(2.50789e-07 4.63836e-13 -1.49522e-09)
(2.02395e-07 3.18248e-09 -2.37185e-10)
(7.96249e-08 -2.75896e-09 5.13053e-09)
(2.02416e-07 3.90939e-11 -4.30467e-09)
(2.99735e-07 6.13516e-10 -2.36454e-09)
(2.36314e-07 -3.51014e-10 9.00669e-10)
(1.42485e-07 7.27535e-10 -3.5877e-09)
(2.28816e-08 -2.62587e-09 -2.09484e-09)
(2.15595e-07 -1.21437e-09 -1.7465e-09)
(3.52179e-07 4.84971e-09 -4.35552e-09)
(2.12771e-07 -1.11038e-09 3.77572e-11)
(1.98792e-07 -2.1863e-09 4.85581e-10)
(7.29134e-08 2.26892e-09 2.64687e-09)
(2.47063e-07 -1.76833e-09 -1.59685e-09)
(3.18107e-08 1.98432e-09 -3.92419e-09)
(1.54047e-07 -9.08888e-12 3.24028e-10)
(2.08762e-07 2.32172e-08 -7.64673e-09)
(2.196e-07 1.22409e-10 6.36971e-10)
(1.13471e-07 -4.03241e-10 4.6755e-09)
(1.98983e-07 -2.1978e-09 -1.23052e-09)
(1.30425e-07 -1.95606e-10 -1.23634e-09)
(6.12175e-08 3.70572e-09 1.57087e-09)
(3.61163e-07 2.54835e-09 1.0204e-10)
(1.7075e-07 1.69879e-09 3.59296e-10)
(2.41521e-08 1.05273e-09 2.4046e-09)
(2.45198e-07 -3.94725e-09 3.70448e-10)
(2.20163e-07 -3.54512e-09 9.98185e-10)
(5.01757e-08 -4.80776e-10 -2.55966e-09)
(1.56986e-07 4.02454e-09 6.1377e-10)
(1.20961e-07 4.49182e-09 3.58358e-09)
(1.74479e-07 8.37289e-10 1.15937e-09)
(2.08252e-07 -1.94041e-09 3.83645e-10)
(3.96645e-08 -5.6934e-10 1.80345e-09)
(1.12567e-07 -3.77496e-09 1.01912e-09)
(1.23402e-07 2.18673e-09 1.29231e-09)
(1.88568e-07 1.33676e-09 6.27511e-10)
(2.67092e-07 -2.97068e-09 8.21561e-10)
(2.98809e-08 1.29519e-09 -3.27151e-09)
(3.38718e-07 -2.31276e-09 9.96636e-10)
(2.24195e-07 4.24577e-10 -2.37306e-10)
(2.18336e-07 1.62104e-09 1.36271e-09)
(1.14225e-07 4.81782e-09 -4.69151e-09)
(2.95932e-07 1.06255e-09 7.49085e-10)
(2.90163e-08 4.5586e-10 -2.03359e-09)
(2.6466e-07 -2.49304e-09 -7.73726e-10)
(3.63352e-08 -7.72748e-10 -8.77452e-11)
(1.62181e-07 -3.86216e-09 -4.28719e-10)
(2.09781e-07 -1.282e-10 3.00647e-10)
(1.6886e-07 -3.19274e-09 -9.3103e-10)
(2.61614e-08 2.11188e-09 2.48153e-09)
(6.72308e-08 -2.36015e-10 -1.50367e-09)
(9.68847e-08 -2.91682e-09 3.15356e-09)
(1.65612e-07 -6.92893e-11 -3.93134e-09)
(3.18562e-07 -1.26092e-09 6.50096e-10)
(6.86001e-08 -1.11244e-09 1.05548e-09)
(1.65879e-07 4.08162e-09 -3.864e-09)
(2.23627e-07 -8.70787e-09 -1.92737e-08)
(1.76425e-07 1.89254e-09 3.38643e-10)
(3.99933e-08 1.43719e-09 4.72868e-10)
(2.55247e-07 1.12894e-09 -2.43464e-09)
(1.52005e-07 1.45945e-08 -5.46291e-09)
(1.71588e-07 -1.96567e-09 -4.68585e-11)
(1.22965e-07 -1.24996e-09 -2.65779e-09)
(1.47365e-07 1.60462e-09 5.98244e-10)
(1.34869e-07 -4.01102e-09 -4.54498e-09)
(1.64056e-07 -9.96425e-11 2.32319e-10)
(1.3029e-07 1.55298e-09 -9.27922e-10)
(9.28121e-08 3.19977e-09 -6.78986e-09)
(2.45976e-07 2.20677e-09 1.90272e-10)
(7.82126e-08 1.6324e-09 3.58211e-09)
(2.09804e-08 3.06988e-09 1.06645e-09)
(2.98605e-07 -1.98037e-09 1.41223e-09)
(1.51323e-07 1.85819e-09 -6.34064e-10)
(3.03427e-07 1.77473e-09 -9.01321e-10)
(2.38149e-07 1.14993e-09 1.79852e-10)
(3.81251e-07 -4.64326e-09 1.0109e-09)
(1.70622e-07 3.33948e-09 1.24193e-09)
(3.5826e-07 -4.68657e-09 6.67862e-10)
(1.21817e-07 -3.71997e-09 4.43761e-09)
(1.24775e-07 1.26339e-09 -6.33058e-10)
(3.17121e-07 -4.537e-09 1.04641e-10)
(4.29039e-08 3.30965e-11 -4.56805e-09)
(2.91855e-07 -1.47395e-09 -1.55812e-09)
(1.41e-07 -1.09805e-09 3.50781e-09)
(4.06121e-08 -1.89743e-09 -1.41226e-09)
(2.74769e-07 -5.90384e-10 8.03898e-10)
(7.83798e-08 -1.57803e-09 1.16895e-09)
(1.9983e-07 3.42899e-10 8.60938e-10)
(1.75699e-07 9.83795e-10 6.21547e-10)
(3.83381e-07 3.04356e-09 4.33739e-09)
(1.12281e-07 -1.71565e-09 -5.69353e-09)
(2.42704e-07 1.09101e-09 1.81113e-10)
(1.75774e-07 -1.63366e-09 1.95946e-09)
(2.57561e-07 -3.786e-11 2.43877e-09)
(2.63853e-07 1.94154e-09 -6.60412e-10)
(2.34731e-07 1.12457e-09 7.91636e-10)
(1.35534e-07 1.31295e-09 -1.26991e-10)
(6.12421e-08 -2.09719e-09 -1.9022e-09)
(8.70827e-08 -2.08892e-10 -3.91048e-10)
(1.47648e-07 1.60055e-09 -2.76439e-10)
(2.58217e-07 2.55445e-09 1.41091e-09)
(3.64034e-08 -1.13679e-09 -1.22221e-09)
(2.18167e-07 9.87485e-10 -6.08281e-10)
(3.99409e-07 -3.33317e-10 3.96641e-09)
(2.98984e-07 -3.2532e-09 -1.67128e-09)
(3.12403e-07 -3.37944e-09 -1.33367e-09)
(2.74001e-07 -3.30784e-09 7.43082e-10)
(2.76855e-08 2.36071e-09 2.32622e-09)
(1.94655e-07 5.41787e-10 1.52876e-09)
(1.65049e-07 -4.40641e-12 -2.37644e-09)
(2.43056e-07 -1.75016e-09 7.0022e-10)
(1.7982e-07 -1.19518e-09 1.70581e-09)
(4.65936e-08 3.13235e-09 -7.6442e-10)
(1.67226e-07 1.61009e-09 -1.40609e-10)
(1.72992e-07 2.99036e-09 3.69854e-09)
(2.55047e-07 -9.31902e-11 9.573e-10)
(2.20919e-07 -2.59704e-09 -3.51782e-10)
(1.92424e-07 -3.3867e-09 -2.17036e-10)
(1.84829e-08 1.08797e-09 -1.78698e-09)
(2.66212e-08 -1.06964e-09 -2.28044e-09)
(1.52608e-07 -1.88694e-09 4.27945e-10)
(2.57389e-07 1.33134e-10 6.82569e-10)
(1.86622e-07 1.4304e-09 1.08234e-09)
(1.65088e-07 1.22434e-09 8.96896e-10)
(1.80121e-07 -3.39642e-09 6.16752e-10)
(2.42715e-07 -1.88728e-09 -8.18579e-10)
(2.4362e-07 9.34505e-10 4.78113e-10)
(2.63359e-08 1.94014e-09 2.37812e-10)
(1.19921e-07 -1.61037e-09 2.96195e-10)
(1.74529e-07 -1.19662e-08 8.94545e-10)
(5.96487e-08 2.41122e-10 2.37143e-09)
(1.02599e-07 -5.25832e-09 2.04296e-09)
(3.09687e-07 -2.18098e-09 -1.98063e-09)
(2.12217e-07 -1.21417e-09 7.43144e-10)
(1.95167e-07 1.35471e-09 1.97908e-10)
(2.53317e-07 -8.96121e-10 1.29556e-09)
(1.58126e-07 -4.6713e-09 1.45436e-09)
(2.72558e-07 -3.69653e-11 3.42021e-10)
(1.99714e-07 4.19967e-09 -5.79082e-09)
(3.72839e-07 3.50642e-09 -3.6306e-10)
(1.8517e-07 -1.69994e-09 -7.03959e-10)
(1.94482e-07 -2.70461e-09 1.90311e-09)
(2.64381e-07 -3.04575e-09 1.10432e-09)
(6.14998e-08 2.91925e-10 1.78731e-09)
(4.87487e-07 -4.62354e-09 2.18567e-09)
(4.38494e-08 1.49777e-09 -1.3773e-09)
(1.49718e-07 -1.42435e-08 8.43003e-09)
(1.42587e-07 4.89659e-09 1.10079e-09)
(1.59758e-07 -1.76643e-09 -1.26834e-08)
(2.2151e-07 4.74155e-10 9.86648e-10)
(2.94201e-07 -4.25397e-08 -8.86514e-09)
(1.18045e-07 -3.89997e-10 1.21513e-10)
(2.77741e-07 4.27968e-10 -2.38901e-10)
(3.16977e-07 6.51509e-10 4.36522e-10)
(1.80318e-07 1.87498e-11 1.7109e-09)
(4.56376e-08 -2.72995e-10 2.73224e-10)
(1.18486e-07 -4.54565e-09 -3.08407e-09)
(2.10222e-07 -3.57752e-09 -2.89036e-08)
(1.79578e-07 -2.25164e-10 5.60781e-11)
(1.09624e-07 -2.32532e-09 -7.87258e-11)
(2.18453e-07 -1.239e-08 -4.5447e-09)
(2.15802e-07 6.1426e-10 1.78323e-09)
(3.40078e-07 6.69809e-09 3.24304e-09)
(5.62336e-08 -5.69919e-10 1.37793e-09)
(6.66805e-08 -3.29581e-09 1.07676e-09)
(3.46244e-08 3.90327e-10 4.09175e-10)
(2.67784e-08 2.09273e-10 -2.15805e-09)
(5.56883e-08 -6.99715e-11 1.00666e-09)
(2.2748e-07 -5.49244e-09 5.26139e-09)
(1.80927e-07 8.09105e-10 7.61039e-10)
(2.53068e-08 -7.07159e-10 3.11837e-09)
(2.77463e-08 1.27399e-09 2.90978e-09)
(2.87176e-07 1.8359e-09 -2.01308e-10)
(1.67916e-07 -2.0424e-08 1.42463e-08)
(6.04149e-08 1.99624e-09 1.27292e-09)
(2.21291e-07 2.87476e-10 9.64998e-10)
(1.15755e-07 3.38127e-10 -1.65102e-09)
(2.07301e-07 -8.16842e-11 1.37316e-09)
(5.74657e-08 1.91281e-09 -8.84098e-10)
(1.13129e-07 5.06019e-09 -1.87509e-09)
(2.12042e-07 -1.41932e-09 2.5715e-10)
(2.32587e-07 -1.80204e-10 4.27954e-10)
(3.79655e-07 -9.67502e-11 -7.59768e-10)
(5.51988e-08 2.71896e-09 -3.09769e-11)
(3.14158e-08 -2.5967e-09 1.20741e-09)
(2.02044e-07 -2.86272e-08 -2.14405e-08)
(3.62342e-08 -4.08763e-09 7.09747e-10)
(3.16656e-07 -4.29067e-09 -4.13759e-09)
(3.81113e-08 1.54442e-09 -3.38747e-09)
(1.68285e-07 -1.0398e-09 3.79169e-09)
(2.56337e-07 -1.77922e-09 1.14609e-09)
(3.70969e-07 -1.98726e-09 1.45158e-09)
(7.70758e-08 1.62884e-09 -4.26683e-10)
(1.55327e-07 3.00228e-10 -8.61521e-10)
(5.06954e-08 2.26551e-09 -1.45766e-09)
(3.72548e-08 4.03419e-09 -1.62838e-09)
(2.18376e-07 -1.12911e-11 -8.85938e-10)
(1.9828e-08 -1.50649e-09 -2.09067e-09)
(1.56877e-07 -2.22221e-09 6.79714e-10)
(7.87417e-08 1.80609e-09 -2.65417e-09)
(3.0402e-07 -1.49156e-10 -3.56461e-10)
(2.2437e-07 9.77141e-10 3.36082e-10)
(2.45429e-08 -7.54035e-10 3.34013e-09)
(1.70906e-07 -7.43515e-09 -2.53662e-09)
(2.34223e-07 2.25496e-09 9.78308e-10)
(3.96103e-08 -7.01383e-10 9.78552e-10)
(2.55762e-07 -1.63613e-09 -5.79156e-10)
(1.00028e-07 -2.64917e-09 4.68538e-09)
(2.43122e-07 7.20974e-10 4.11961e-10)
(1.87281e-07 -2.98381e-10 -1.41629e-09)
(7.13488e-08 7.31191e-10 1.46394e-09)
(2.72994e-08 1.08337e-09 -2.80444e-09)
(1.20065e-07 2.08812e-09 -2.68362e-09)
(2.43843e-07 3.80561e-08 8.2311e-09)
(2.55205e-07 1.58812e-09 2.09929e-09)
(9.48783e-08 -3.74967e-09 3.88969e-09)
(2.13581e-07 1.00334e-09 5.11233e-09)
(3.2321e-08 -1.32223e-09 8.46086e-10)
(1.65369e-07 -1.87934e-11 -1.27703e-09)
(2.94045e-08 -9.92254e-10 -1.95533e-09)
(2.96978e-07 -3.01829e-09 -4.53793e-10)
(2.99768e-07 -2.05435e-09 1.67864e-09)
(1.9153e-07 -1.19878e-09 3.75716e-10)
(1.84672e-08 1.75656e-09 1.14833e-10)
(3.32804e-07 -4.22625e-09 3.10352e-10)
(1.87201e-07 1.21619e-09 -8.3025e-10)
(3.34516e-07 1.74581e-09 1.68167e-09)
(7.86082e-08 6.80432e-10 -6.96438e-11)
(2.22549e-07 -2.65445e-08 1.41979e-08)
(2.43188e-07 -2.64944e-09 -3.86926e-11)
(8.73807e-08 1.72729e-09 1.35904e-09)
(2.0445e-07 -8.41922e-10 1.27953e-10)
(2.09936e-07 4.26475e-09 -3.92644e-08)
(1.92543e-07 3.75809e-10 -2.38539e-11)
(4.14079e-08 8.98625e-10 -8.62602e-10)
(1.31989e-07 -1.26477e-09 -4.61476e-09)
(1.57751e-07 -2.07906e-10 3.07286e-10)
(2.22922e-07 1.73984e-09 -1.46386e-09)
(4.21396e-08 -1.96901e-10 5.70236e-10)
(2.37784e-07 1.24716e-09 -2.23463e-09)
(1.92603e-07 6.50693e-10 -8.37504e-09)
(3.34517e-08 -2.45943e-09 1.13636e-09)
(1.70376e-07 2.25096e-10 1.20446e-11)
(1.58368e-07 -1.89317e-09 1.52192e-08)
(3.45947e-07 3.3227e-09 -5.11471e-09)
(1.72407e-07 6.97017e-11 -1.60589e-11)
(1.5405e-07 2.27416e-10 6.35077e-10)
(2.68585e-07 -2.97859e-10 -1.96772e-09)
(2.61503e-07 1.66809e-09 9.8734e-10)
(9.23353e-08 1.27872e-09 -5.09323e-10)
(8.86109e-08 -1.55189e-09 -3.35926e-09)
(3.19748e-07 3.10975e-09 1.01482e-10)
(2.2476e-07 -1.9312e-08 1.84032e-08)
(2.22532e-07 -3.16745e-09 1.94629e-09)
(1.99545e-07 -9.73173e-10 5.55089e-10)
(1.47936e-07 1.20022e-09 2.38739e-09)
(3.09413e-07 4.64757e-10 -4.04257e-10)
(1.81405e-07 6.03935e-10 9.53188e-13)
(2.01976e-07 6.35043e-10 -2.06695e-09)
(2.57689e-07 3.69315e-09 -2.07775e-09)
(5.58746e-08 -6.24246e-10 -2.67768e-09)
(2.03732e-07 8.74913e-10 -4.4855e-11)
(4.87653e-08 -1.46028e-09 -2.70635e-09)
(2.95302e-07 1.36199e-09 2.46419e-09)
(2.75102e-07 -1.38196e-09 2.35224e-09)
(1.954e-07 2.67164e-09 -5.06042e-09)
(1.80753e-07 3.55746e-09 2.95241e-10)
(2.35579e-08 2.28326e-09 -3.75391e-10)
(1.20905e-07 -4.43308e-10 -6.85417e-10)
(9.52048e-08 -2.54e-09 -4.12013e-09)
(2.21212e-07 1.16325e-10 -1.24631e-09)
(1.98595e-07 -8.41154e-10 -6.50167e-10)
(2.20486e-07 -1.98534e-08 1.31531e-08)
(2.776e-07 7.33516e-10 2.10859e-09)
(9.49712e-08 -2.03135e-09 -2.72898e-09)
(1.36659e-07 -3.48958e-09 1.05825e-08)
(2.49164e-07 2.33612e-10 3.74147e-09)
(3.56252e-08 -2.03042e-09 3.75242e-10)
(2.03673e-07 -2.36148e-10 -1.10438e-09)
(6.51056e-08 1.47532e-09 -2.10611e-10)
(2.00624e-07 -3.00179e-10 2.06765e-09)
(4.2428e-08 5.71573e-09 -1.39737e-09)
(3.0572e-07 3.62366e-09 -2.67758e-09)
(2.03937e-07 -8.68485e-09 5.67159e-09)
(2.3974e-07 2.88396e-10 3.24401e-10)