/*--------------------------------*- C++ -*----------------------------------*\
| =========                 |                                                 |
| \\      /  F ield         | OpenFOAM: The Open Source CFD Toolbox           |
|  \\    /   O peration     | Version:  2406                                  |
|   \\  /    A nd           | Website:  www.openfoam.com                      |
|    \\/     M anipulation  |                                                 |
\*---------------------------------------------------------------------------*/
FoamFile
{
    version     2.0;
    format      ascii;
    arch        "LSB;label=32;scalar=64";
    class       volVectorField;
    location    "20";
    object      momentum:angularMomentum;
}
// * * * * * * * * * * * * * * * * * * * * * * * * * * * * * * * * * * * * * //

dimensions      [1 1 -1 0 0 0 0];

internalField   nonuniform List<vector> 
59516
(
(-5.23835e-10 -9.32214e-10 2.55438e-07)
(1.94038e-09 -1.6669e-09 1.8476e-07)
(-3.17051e-10 2.00222e-09 2.19858e-07)
(-3.39351e-09 9.19562e-10 1.73964e-07)
(-6.87167e-09 -4.7452e-10 2.00036e-07)
(-5.21007e-09 2.76277e-09 5.03872e-08)
(6.52948e-12 -2.86727e-09 2.23836e-07)
(-3.06136e-10 -4.14863e-09 2.24401e-07)
(-1.07324e-09 -9.68766e-10 1.68155e-07)
(2.36152e-09 -1.64875e-10 9.69138e-08)
(-3.21656e-10 -1.37871e-09 1.89936e-07)
(-3.24331e-09 -5.71565e-09 1.21615e-07)
(-8.69432e-10 -4.31673e-10 3.56803e-07)
(1.12092e-10 -3.23612e-10 2.11844e-08)
(7.07196e-10 -7.05649e-09 1.93447e-07)
(-1.62391e-09 5.07493e-09 1.01981e-07)
(4.80392e-10 -5.01289e-10 2.33522e-07)
(-1.04893e-08 -3.02585e-09 1.73028e-07)
(-3.31993e-09 -4.47059e-09 3.51661e-07)
(-1.67884e-09 8.3285e-10 3.32749e-07)
(5.6714e-10 1.1961e-09 1.1768e-07)
(1.58317e-09 -1.64118e-09 3.11748e-07)
(7.16202e-10 -1.40195e-09 3.33819e-07)
(1.10272e-09 9.52391e-10 4.51961e-08)
(1.00868e-09 3.59063e-09 2.88818e-07)
(2.09351e-09 5.03434e-09 2.38591e-07)
(-1.31898e-09 4.45702e-09 6.58579e-08)
(-3.23012e-09 -2.56629e-09 8.47233e-08)
(3.69382e-10 -1.74331e-09 1.6901e-07)
(2.34629e-09 1.51532e-09 1.85192e-08)
(-3.66911e-08 2.05553e-09 1.90401e-07)
(-2.37292e-09 3.38195e-09 9.60016e-08)
(-8.59068e-10 -2.25004e-09 1.74745e-07)
(-1.55327e-09 1.65989e-09 1.84522e-07)
(-2.1296e-10 -6.77021e-10 1.3001e-07)
(1.39955e-09 2.30035e-09 3.9763e-07)
(-1.94791e-09 1.49309e-09 1.66813e-08)
(-1.14382e-08 -4.93972e-09 1.39853e-07)
(-2.58423e-09 2.23953e-09 3.02353e-07)
(3.47202e-09 -3.38685e-09 2.57016e-07)
(1.88684e-09 -2.5835e-09 2.87086e-07)
(-1.34499e-08 -2.42461e-09 4.00971e-07)
(2.4634e-09 -5.90162e-10 3.34627e-07)
(-5.90956e-10 -1.32501e-09 1.20928e-07)
(2.70728e-10 6.55221e-10 2.67015e-07)
(4.87798e-10 1.02502e-09 1.21625e-07)
(-1.46867e-09 -2.86473e-09 3.34208e-07)
(6.36905e-10 -8.51975e-11 2.28822e-07)
(-3.27087e-08 3.72772e-09 2.51638e-07)
(-3.39686e-09 -8.14059e-10 2.23855e-07)
(-2.8137e-08 6.19934e-10 1.63756e-07)
(-5.33192e-09 -3.82079e-09 9.47011e-08)
(2.26969e-09 -1.1989e-09 3.41332e-07)
(-3.32113e-10 -1.71557e-09 3.22081e-07)
(-2.25727e-09 1.15671e-09 9.88237e-08)
(3.26911e-09 5.07249e-10 2.5456e-07)
(-9.47634e-09 -6.02461e-10 1.92508e-07)
(-5.9858e-09 -4.86095e-09 1.00619e-07)
(2.20048e-09 1.76178e-09 1.74524e-07)
(-4.48091e-09 -2.75893e-10 1.44061e-07)
(6.89833e-10 -4.86495e-10 1.96925e-07)
(-1.26864e-09 1.99428e-09 2.09566e-08)
(2.51304e-09 -1.18308e-09 2.2471e-07)
(1.50568e-09 2.03412e-09 2.94733e-07)
(3.76175e-10 1.86768e-09 3.19025e-07)
(-1.12525e-09 6.41892e-10 2.01646e-07)
(-2.57652e-11 2.68826e-09 2.45965e-08)
(8.11726e-10 -5.76718e-10 8.61728e-08)
(-3.48682e-08 1.39004e-09 1.97637e-07)
(1.53807e-09 -1.53814e-09 1.70922e-07)
(-9.30393e-10 -1.52643e-09 7.00107e-08)
(-1.8553e-10 4.06968e-10 1.38977e-07)
(3.88636e-09 -1.64135e-09 2.90934e-08)
(1.20597e-09 5.01093e-10 1.8255e-07)
(-2.23849e-09 1.95789e-09 3.06548e-07)
(1.74302e-09 -1.11649e-09 3.34613e-07)
(8.87768e-10 -1.03114e-09 1.91558e-07)
(-1.31905e-09 2.57749e-10 2.12375e-07)
(1.92016e-09 2.61016e-09 1.08509e-07)
(-2.47023e-09 8.86585e-10 1.76657e-07)
(-2.29984e-09 1.01978e-09 6.31391e-08)
(-1.53803e-09 4.05368e-10 1.60474e-07)
(-1.35918e-09 3.82495e-10 1.77624e-07)
(-2.43259e-09 9.49939e-10 2.4079e-08)
(-1.63636e-09 5.25363e-10 2.0217e-07)
(-1.90351e-09 3.50138e-10 3.17868e-07)
(9.35189e-10 5.10076e-10 3.95027e-08)
(-2.85614e-10 6.97239e-10 4.89066e-07)
(-3.10602e-09 -4.83408e-09 1.32314e-07)
(-1.163e-08 -3.4676e-09 1.75089e-07)
(-1.10202e-08 -1.18925e-09 1.80214e-07)
(-1.67026e-09 1.46035e-10 1.80127e-07)
(1.18155e-09 -5.82872e-10 2.19334e-07)
(-1.22356e-10 4.91165e-11 1.75871e-07)
(1.7847e-10 -1.4285e-09 1.57629e-07)
(-1.74482e-08 8.3466e-10 1.83495e-07)
(-1.24998e-09 -1.0993e-09 1.22086e-07)
(1.84358e-09 6.27427e-09 1.06878e-07)
(-1.10491e-09 -9.14678e-10 1.31313e-07)
(1.328e-09 3.38431e-10 1.97598e-07)
(-1.70798e-09 1.53411e-09 7.70147e-08)
(3.6739e-09 1.20737e-09 3.48973e-08)
(3.54696e-09 1.83355e-09 3.18342e-08)
(-4.4095e-09 3.63259e-09 1.06318e-07)
(2.02445e-09 1.74937e-10 2.31767e-07)
(-3.15482e-10 1.00972e-09 1.48277e-07)
(1.66369e-09 -5.09037e-09 7.20339e-08)
(-8.71402e-10 1.94382e-10 1.52e-07)
(6.05428e-10 1.72481e-09 1.95543e-07)
(-3.69092e-09 6.00859e-09 2.36963e-07)
(-3.67872e-08 -7.64846e-10 2.80659e-07)
(3.68529e-09 -2.86764e-09 5.6201e-08)
(-6.49755e-09 1.08721e-08 2.30762e-07)
(-3.2088e-08 5.35547e-10 2.22099e-07)
(-1.29379e-09 7.28214e-10 2.01316e-07)
(2.28647e-09 -2.01843e-09 1.56161e-07)
(-3.49038e-09 -6.15613e-10 1.50706e-07)
(-1.4071e-09 1.01305e-10 1.45249e-07)
(-5.84438e-10 -1.37374e-09 2.46314e-08)
(-2.31318e-09 1.36441e-09 2.46806e-07)
(-1.83959e-11 -1.02231e-09 3.30276e-07)
(1.43745e-09 4.90473e-10 1.52072e-07)
(-3.89919e-10 -6.8674e-10 1.46551e-07)
(8.53369e-10 1.07693e-09 1.57728e-07)
(-1.33983e-08 1.78682e-09 1.32974e-07)
(-1.60276e-09 5.14927e-10 1.59148e-07)
(-2.12151e-09 -9.24756e-10 4.78848e-08)
(-1.07434e-08 3.0487e-09 2.12133e-07)
(-2.29403e-08 5.21538e-09 1.64766e-07)
(9.63569e-10 1.97664e-10 1.2943e-07)
(2.3479e-09 -1.69173e-09 2.26716e-07)
(5.02713e-09 5.30725e-09 3.56932e-07)
(-4.57276e-10 -2.37579e-09 3.03134e-08)
(1.27741e-09 1.32058e-09 2.48972e-07)
(5.66857e-10 1.44842e-09 3.62217e-07)
(-2.41496e-09 2.60567e-09 2.17172e-07)
(-1.89691e-08 2.4541e-09 1.56099e-07)
(3.72823e-09 1.06723e-09 3.33856e-07)
(-4.40081e-10 3.35148e-09 6.58843e-08)
(-1.23617e-09 1.61665e-10 1.81028e-07)
(-1.93679e-09 3.44975e-09 9.64841e-08)
(3.50489e-11 1.16483e-09 2.63052e-07)
(-1.14032e-09 -1.55149e-09 1.87284e-08)
(1.50391e-10 1.68072e-09 1.53551e-07)
(-3.2392e-10 7.80172e-10 1.76864e-07)
(-2.55437e-09 2.11163e-09 2.77512e-07)
(5.73615e-10 7.49143e-10 2.05417e-07)
(-2.31183e-10 2.48777e-09 2.22921e-07)
(9.54137e-10 -1.80468e-09 6.43809e-08)
(1.74033e-09 1.873e-09 2.30793e-07)
(-1.73247e-09 -2.75233e-09 3.64649e-07)
(7.86248e-10 5.2828e-10 6.69112e-08)
(4.03175e-09 3.62157e-10 3.42971e-07)
(1.83189e-09 -2.83704e-10 2.01909e-07)
(2.92357e-10 -2.43079e-09 1.86646e-07)
(-1.64568e-09 1.04853e-09 2.00503e-08)
(1.6555e-09 3.44046e-09 3.02352e-07)
(-1.48e-09 1.74976e-09 3.63772e-07)
(-1.60785e-09 1.58354e-09 1.53465e-07)
(-2.62532e-09 -2.15498e-09 2.16205e-08)
(3.14504e-09 3.11727e-09 1.08962e-07)
(4.88507e-09 -2.73269e-09 1.37351e-07)
(-2.05522e-10 1.52813e-09 5.26938e-08)
(4.15996e-12 -4.13332e-10 3.01425e-08)
(4.89718e-09 5.15644e-10 1.87477e-07)
(-1.85947e-09 4.81208e-10 2.82563e-07)
(-1.01275e-10 -5.22764e-11 1.83504e-07)
(-4.198e-10 -5.20639e-10 2.31512e-07)
(1.25982e-09 2.37718e-09 2.33187e-08)
(8.60432e-10 2.52012e-10 2.04043e-07)
(-8.62058e-10 -1.89737e-09 1.01522e-07)
(-9.40182e-10 5.89202e-10 8.40287e-08)
(8.38373e-10 -2.34511e-09 1.31991e-07)
(7.29134e-10 -1.30255e-09 1.50302e-07)
(1.60019e-09 1.84454e-09 1.08646e-07)
(-2.26303e-09 -5.85733e-09 4.62346e-07)
(-4.50678e-10 -9.10682e-10 2.12597e-07)
(1.25908e-09 1.44098e-10 3.03825e-07)
(-9.53558e-10 -8.15359e-09 1.81135e-07)
(1.45028e-09 8.95231e-10 8.24229e-08)
(1.6616e-09 -3.81443e-09 2.99002e-07)
(6.05073e-10 4.37637e-09 5.53606e-08)
(-9.95885e-10 -3.08147e-09 3.88649e-08)
(2.15909e-09 3.86367e-09 1.29443e-07)
(5.89157e-10 -1.32264e-09 1.68209e-07)
(-4.93894e-10 1.50825e-09 1.14091e-07)
(-4.01101e-09 1.13273e-09 5.87592e-08)
(7.46874e-10 -5.02891e-10 2.63037e-08)
(1.25497e-10 -1.56726e-09 2.03036e-07)
(4.81514e-09 1.40159e-09 2.56468e-07)
(-2.3579e-09 -1.11434e-09 1.55004e-07)
(-2.84872e-09 -7.82069e-09 1.43685e-07)
(-6.32066e-10 -3.94806e-10 1.92688e-07)
(4.30168e-09 -3.14301e-09 1.18815e-07)
(8.94427e-10 2.05383e-09 3.20509e-07)
(8.73173e-11 5.9328e-10 3.63085e-08)
(1.02813e-09 2.25925e-10 1.19437e-07)
(-5.34136e-10 -1.86362e-09 7.13103e-08)
(-6.43739e-09 -1.46747e-09 2.0061e-07)
(5.558e-10 1.40718e-09 2.50274e-07)
(-2.53506e-09 -2.5674e-09 8.7623e-08)
(8.4504e-10 2.8144e-10 1.52815e-07)
(2.9094e-09 2.47465e-09 3.60024e-07)
(1.37758e-09 -1.60912e-09 2.17715e-08)
(1.34231e-09 1.47936e-09 2.32982e-07)
(1.59876e-09 -5.04571e-11 2.30684e-07)
(5.52747e-10 7.52615e-10 2.84618e-07)
(-3.42029e-10 8.11182e-10 1.76097e-07)
(2.42648e-10 -7.08883e-10 2.32715e-08)
(3.08593e-09 3.24657e-09 3.33706e-07)
(-9.06578e-10 6.0697e-09 7.17254e-08)
(-3.97936e-09 7.46081e-10 3.01552e-08)
(-1.92389e-09 1.13938e-09 2.31666e-07)
(-1.10769e-10 7.95705e-10 1.20156e-07)
(5.11727e-10 -2.82433e-09 3.25833e-07)
(-2.62288e-09 1.25811e-10 2.47219e-07)
(-1.5653e-09 1.05851e-09 2.69465e-07)
(-1.03141e-09 1.10697e-11 1.92679e-07)
(-2.24044e-09 6.07594e-09 1.04133e-07)
(1.31432e-09 3.51539e-10 2.05595e-07)
(-3.66394e-09 -4.14169e-09 1.52739e-07)
(-7.05204e-10 2.35262e-09 2.14437e-07)
(-6.05372e-10 -1.29813e-09 1.55865e-07)
(1.8362e-09 -1.65902e-09 1.00844e-07)
(-2.79639e-09 -1.77393e-09 2.52123e-07)
(2.45184e-10 1.08629e-09 2.63968e-07)
(-1.74898e-09 -1.39838e-09 4.06191e-08)
(-3.39805e-09 9.22954e-10 8.39654e-08)
(-1.88962e-09 1.30241e-09 1.69987e-07)
(-2.74851e-09 8.67449e-09 1.45537e-07)
(7.9239e-10 1.28818e-09 2.1074e-07)
(-1.03017e-09 3.18404e-10 1.5153e-07)
(-1.46257e-09 -1.72163e-09 2.55674e-07)
(-1.26712e-09 -2.23958e-09 3.52343e-08)
(-9.41677e-10 -5.91151e-10 3.89602e-08)
(-1.13734e-09 4.66971e-10 5.1988e-08)
(2.23193e-09 -8.19031e-10 1.35478e-07)
(-1.06863e-09 -4.70789e-10 1.95333e-07)
(-1.93504e-09 -3.82544e-10 3.83445e-07)
(2.23863e-09 -1.13761e-10 1.00163e-07)
(1.87515e-09 2.52803e-10 2.00423e-07)
(2.35564e-09 2.09764e-09 2.49311e-08)
(4.11365e-09 1.72879e-09 1.33473e-07)
(3.22464e-09 2.23244e-09 3.61064e-08)
(7.8414e-10 4.38498e-10 1.3287e-07)
(1.69724e-10 -1.15381e-09 1.80408e-07)
(-1.5324e-10 -5.20635e-10 1.88022e-07)
(-1.72323e-09 2.35553e-09 2.28963e-07)
(2.46336e-09 8.97647e-10 2.45562e-07)
(2.04753e-10 6.68596e-10 2.24128e-07)
(5.47263e-09 -1.68096e-09 3.4219e-07)
(-1.05576e-10 3.22218e-12 2.09065e-07)
(1.1963e-09 7.06699e-10 1.5283e-07)
(1.34259e-09 4.04019e-10 2.69488e-07)
(3.96121e-10 1.24566e-09 2.70435e-07)
(-6.22641e-10 1.86259e-10 2.75329e-07)
(3.39152e-10 -7.67009e-10 1.35353e-07)
(-5.12525e-10 -1.92231e-10 2.63945e-07)
(1.16383e-09 3.88616e-09 1.04052e-07)
(-2.13082e-09 3.64174e-09 1.20145e-07)
(-3.40421e-09 2.14324e-10 2.26083e-07)
(-4.4068e-10 2.42283e-09 2.33632e-07)
(4.40249e-09 2.70805e-09 2.62798e-07)
(-1.26602e-10 2.61695e-09 2.40171e-07)
(1.91629e-09 1.01661e-09 8.3928e-08)
(1.51161e-09 -6.89149e-09 1.28724e-07)
(-1.07715e-10 -1.37843e-09 2.78427e-07)
(6.84397e-09 -5.62756e-11 2.42661e-07)
(-1.47189e-09 -4.90118e-11 7.88697e-08)
(-3.02415e-10 2.08032e-09 9.27147e-08)
(-9.68282e-11 3.35296e-09 1.87497e-07)
(-5.52683e-10 -4.74411e-10 1.57508e-07)
(-4.67675e-09 5.86483e-09 3.48568e-07)
(-2.39384e-09 1.02382e-09 1.72063e-07)
(-2.38901e-09 2.09192e-09 2.9517e-07)
(1.35616e-09 7.64354e-09 2.22292e-07)
(-1.25961e-09 -2.18682e-09 2.6151e-08)
(5.77983e-10 2.6366e-09 2.71627e-07)
(2.30697e-09 -1.42974e-09 3.84561e-08)
(2.21842e-09 1.67296e-09 6.54806e-08)
(-1.15937e-09 -1.95796e-09 2.84375e-07)
(5.30634e-10 7.36854e-10 2.48259e-07)
(-4.38853e-09 3.13434e-09 3.59686e-08)
(3.45065e-10 -3.2667e-09 3.24429e-07)
(-7.89625e-10 -4.55821e-09 2.67946e-07)
(1.2637e-09 6.94552e-10 2.16726e-07)
(6.57142e-10 -4.51107e-10 2.62446e-07)
(2.18698e-09 -2.00485e-09 3.08466e-08)
(-2.45061e-09 2.64895e-10 2.26054e-07)
(-8.31046e-10 -1.27719e-09 1.16376e-07)
(-3.59057e-11 -1.10525e-09 1.33573e-07)
(-1.64969e-09 -2.33363e-09 2.55659e-07)
(-2.5391e-09 1.40794e-10 1.64191e-07)
(-2.41925e-09 -5.26187e-10 1.97765e-07)
(1.344e-10 -4.4004e-10 2.3366e-07)
(2.98066e-10 2.04701e-09 4.98448e-08)
(2.48802e-09 -3.81526e-09 2.50613e-07)
(9.42201e-10 1.03022e-09 1.93366e-07)
(-8.79902e-10 -3.08227e-09 2.9084e-07)
(9.42241e-11 -3.18134e-09 2.24081e-07)
(3.01102e-09 -2.65157e-09 3.36093e-07)
(1.74443e-09 -8.37434e-09 1.6017e-07)
(-5.98768e-10 -1.89134e-09 2.54608e-08)
(5.80019e-10 2.18505e-10 4.74116e-08)
(-3.15415e-09 5.23059e-09 4.72191e-07)
(-2.77384e-09 1.55326e-09 2.34765e-08)
(-1.12026e-09 -5.23378e-10 2.08462e-07)
(-2.52958e-09 3.19558e-09 8.99939e-08)
(1.85961e-09 -9.5229e-10 2.75921e-07)
(-4.75227e-10 -1.66133e-09 3.18483e-07)
(-1.17218e-09 -3.80004e-10 2.95297e-07)
(2.78689e-09 -1.48224e-09 1.50157e-07)
(4.97906e-09 1.95593e-10 3.20462e-07)
(1.74991e-09 8.5045e-09 8.64839e-08)
(1.85084e-09 -1.26697e-09 1.04349e-07)
(6.83364e-11 -2.39674e-09 1.75941e-07)
(1.50525e-09 -1.68069e-09 1.79532e-07)
(-3.17599e-08 -3.89668e-09 2.69098e-07)
(8.76179e-10 -6.24311e-09 2.15729e-07)
(-1.48802e-09 -4.03278e-10 7.89494e-08)
(2.50672e-09 -9.96955e-11 1.22481e-07)
(5.86292e-10 -2.53846e-09 2.29548e-07)
(1.08904e-11 5.37911e-11 1.79151e-07)
(-3.57652e-09 -8.48397e-11 3.43573e-07)
(-1.29788e-09 2.03818e-09 1.81121e-07)
(-2.00135e-10 4.44093e-09 4.46569e-07)
(-4.96992e-09 -2.73532e-09 1.78228e-07)
(-2.96357e-09 2.49962e-09 3.4569e-07)
(-7.14831e-10 2.87187e-09 2.36516e-07)
(-8.24263e-10 -1.10632e-09 1.77859e-07)
(1.208e-09 -5.0631e-10 3.00293e-07)
(-4.06097e-09 -3.23489e-09 1.27233e-07)
(3.70238e-09 -4.23019e-10 3.0362e-08)
(-5.20613e-10 -2.05023e-09 2.78447e-07)
(2.35658e-09 4.27648e-09 7.48664e-08)
(7.6763e-10 4.68727e-11 3.72867e-08)
(-1.57185e-09 -6.42367e-10 3.51001e-07)
(6.17422e-10 1.59044e-09 1.92489e-07)
(-1.19098e-09 6.14402e-09 1.21953e-07)
(-1.00262e-09 -1.82806e-10 2.13969e-07)
(8.40757e-10 2.03678e-09 2.8855e-07)
(-1.74629e-09 -2.31452e-10 3.40832e-07)
(1.35238e-09 -1.09761e-09 2.27233e-07)
(-6.76718e-10 -1.9424e-09 3.86278e-08)
(4.35541e-11 -9.6144e-10 2.91073e-07)
(-4.89102e-10 2.49525e-10 1.78706e-07)
(4.70272e-10 1.07065e-09 1.19544e-07)
(7.9556e-10 -2.38045e-09 2.37274e-07)
(9.34801e-10 1.26756e-09 2.09261e-07)
(1.19074e-09 3.62165e-10 1.77388e-07)
(1.89136e-09 -5.9798e-11 2.07734e-07)
(8.57669e-10 -1.17103e-09 2.53551e-07)
(6.98769e-10 2.61783e-10 1.93794e-07)
(4.23386e-10 2.12086e-11 8.94856e-08)
(-5.45572e-10 1.64743e-09 2.51691e-08)
(-4.63652e-11 1.48195e-09 4.65508e-08)
(-1.06535e-09 2.0433e-09 2.50724e-07)
(-3.51233e-08 -2.20565e-10 2.77104e-07)
(-1.11571e-08 9.98611e-10 1.17532e-07)
(1.28811e-09 -9.95356e-10 1.29255e-07)
(2.12083e-09 -1.32058e-09 2.62553e-07)
(-9.3797e-10 1.19521e-10 3.19007e-07)
(-8.32112e-10 1.53884e-09 2.0405e-07)
(1.2342e-09 -2.2508e-10 3.41995e-07)
(-2.42083e-09 1.87887e-09 3.47461e-07)
(-1.6637e-09 -9.69827e-10 2.11069e-07)
(-1.37438e-09 -1.2632e-10 1.28867e-07)
(-2.36456e-10 6.85627e-10 3.10627e-08)
(-4.63375e-08 2.27688e-09 2.41429e-07)
(1.42448e-09 3.72641e-09 1.0719e-07)
(-7.68554e-10 4.19256e-09 7.82036e-08)
(-6.02779e-11 7.47692e-10 8.45562e-08)
(-5.46926e-10 -1.09181e-09 1.5492e-07)
(6.60316e-11 3.32785e-10 1.98784e-07)
(-5.5961e-10 -4.05246e-12 2.15965e-07)
(-1.22267e-09 1.10782e-09 2.26408e-08)
(1.03235e-09 -1.98049e-11 1.75856e-07)
(1.44574e-09 -1.97413e-09 8.21744e-08)
(-1.66266e-10 1.56776e-09 1.63001e-07)
(-6.36453e-10 -1.49532e-10 6.91714e-08)
(4.47719e-09 1.92934e-09 1.77962e-07)
(9.63286e-10 2.4857e-09 2.44566e-07)
(-3.85264e-10 1.48918e-09 1.69402e-07)
(3.09537e-09 -2.00295e-10 2.50833e-08)
(4.24299e-10 4.86994e-09 1.37337e-07)
(-2.17218e-14 -1.05252e-09 2.40138e-07)
(1.35869e-10 -3.15139e-09 3.2351e-08)
(-8.7204e-09 8.33738e-10 2.90271e-07)
(1.00399e-09 -3.57416e-09 1.9403e-07)
(2.60966e-09 -4.01447e-09 3.07657e-07)
(5.39699e-09 -6.04044e-09 2.23837e-07)
(7.16836e-10 -1.12991e-09 1.03321e-07)
(1.9204e-09 -2.08929e-09 3.63244e-07)
(-1.63955e-08 -5.95087e-09 1.4726e-07)
(-3.7499e-09 -1.66004e-09 2.66564e-07)
(-1.44599e-08 6.3541e-10 1.58127e-07)
(-8.62178e-09 3.88884e-09 1.72851e-07)
(-2.12065e-09 3.36637e-09 1.67463e-07)
(-7.11786e-10 -1.10309e-09 2.25274e-07)
(2.01134e-09 -4.53256e-09 4.57068e-07)
(1.119e-09 -1.17444e-09 9.97068e-08)
(-7.45349e-10 -1.42174e-09 3.54256e-07)
(-2.43757e-09 1.42211e-09 1.35049e-07)
(2.59281e-09 -5.22235e-10 3.5973e-07)
(1.50681e-09 -8.60611e-10 2.74517e-07)
(-2.10468e-09 -7.36258e-09 8.73374e-08)
(3.89176e-10 7.10312e-10 2.21093e-07)
(5.53979e-09 6.92058e-10 3.76962e-07)
(1.13109e-09 7.79551e-11 2.22163e-07)
(7.67269e-10 1.31782e-11 2.08218e-07)
(2.9163e-09 -2.30918e-09 2.93259e-08)
(-2.66282e-09 -1.30354e-09 2.51446e-08)
(-2.12225e-09 3.44966e-09 3.00879e-07)
(-6.21616e-11 -8.57977e-10 2.365e-07)
(8.55487e-10 1.09843e-09 1.79322e-07)
(-2.56064e-09 1.6856e-09 4.61496e-08)
(2.07985e-10 -3.79121e-10 7.45953e-08)
(-1.08008e-09 -1.31872e-09 3.39276e-07)
(-1.34444e-09 1.20766e-10 1.34016e-07)
(2.20712e-09 7.90262e-10 2.62254e-07)
(4.88356e-11 -4.2923e-10 2.32766e-07)
(-3.52531e-10 -2.23163e-09 1.85431e-07)
(9.70802e-11 -2.75381e-09 1.99933e-07)
(1.72661e-09 -9.07644e-10 1.43303e-07)
(-2.61655e-09 3.37466e-10 1.73948e-07)
(-3.55617e-09 5.2273e-09 1.08639e-07)
(5.67549e-10 1.61289e-09 2.51432e-07)
(-1.78367e-09 -2.33237e-09 2.10031e-07)
(-2.16227e-09 1.49819e-09 1.96153e-07)
(-3.05208e-10 -2.44555e-10 1.83317e-07)
(9.98755e-10 -2.25295e-09 3.41489e-07)
(1.60598e-09 2.4914e-09 2.58473e-07)
(3.23659e-09 6.12463e-09 8.88868e-08)
(2.2636e-10 -1.57777e-09 5.64864e-08)
(-2.24513e-09 -1.76345e-09 2.63307e-08)
(-4.7453e-09 6.36036e-10 2.10962e-07)
(5.08194e-10 1.57412e-10 2.35486e-07)
(-7.77026e-10 1.71434e-09 2.65483e-07)
(9.56675e-10 -3.95964e-09 2.01477e-07)
(8.72024e-10 6.89838e-10 3.6312e-08)
(1.56929e-09 -3.47036e-09 2.99087e-08)
(-6.84603e-10 -2.57238e-09 1.96134e-07)
(-2.54859e-10 1.90945e-09 2.13268e-07)
(-1.90543e-09 5.73672e-10 2.59174e-07)
(2.18807e-09 -1.81546e-09 3.06301e-07)
(-1.25615e-09 -9.89403e-10 2.06661e-07)
(-1.0245e-09 2.1162e-09 2.69852e-07)
(2.19457e-09 -1.90754e-09 3.88935e-07)
(-2.47694e-09 3.12111e-09 4.19539e-08)
(-1.92605e-09 -1.54278e-10 1.91664e-07)
(3.12511e-09 -2.3578e-09 8.96418e-08)
(-9.44258e-09 -8.30911e-10 9.90256e-08)
(5.44714e-10 1.09945e-12 1.172e-07)
(1.66168e-09 -1.10431e-09 1.63618e-07)
(1.7032e-09 -4.68149e-10 2.45452e-07)
(-3.45882e-09 2.92485e-09 2.67346e-08)
(4.27502e-09 -1.33747e-09 2.9852e-07)
(5.55062e-10 5.74955e-10 2.17891e-07)
(-2.07989e-09 7.24802e-10 1.74942e-07)
(-6.9009e-11 -1.46114e-09 2.28999e-07)
(-7.1581e-10 -7.54989e-10 1.56472e-07)
(-2.16215e-09 -6.33339e-10 2.14535e-07)
(3.2893e-09 8.50118e-10 2.5064e-07)
(-8.0845e-10 -1.87713e-10 2.4086e-07)
(-3.53325e-09 3.27496e-11 1.83674e-07)
(4.66483e-10 7.59808e-10 2.2997e-07)
(-2.70343e-09 -1.24508e-10 2.80936e-07)
(1.98371e-09 -1.89748e-09 2.39664e-08)
(-7.25996e-10 1.30714e-09 2.50789e-07)
(2.22046e-09 2.29216e-09 2.02395e-07)
(-3.59944e-09 -4.58021e-09 7.96249e-08)
(-5.29497e-10 4.27216e-09 2.02416e-07)
(1.13647e-09 2.16239e-09 2.99735e-07)
(-2.5271e-11 -9.66321e-10 2.36314e-07)
(1.06509e-09 3.50235e-09 1.42485e-07)
(-2.41833e-09 2.33135e-09 2.28816e-08)
(-1.31756e-09 1.67003e-09 2.15595e-07)
(8.88222e-10 6.45765e-09 3.52179e-07)
(-7.22694e-10 8.43856e-10 2.12771e-07)
(7.54448e-11 -2.23831e-09 1.98792e-07)
(-3.43109e-09 6.17694e-10 7.29134e-08)
(1.31314e-09 -1.98811e-09 2.47063e-07)
(-4.33217e-09 7.54421e-10 3.18107e-08)
(-1.01002e-10 -3.08018e-10 1.54047e-07)
(-2.44023e-08 1.42834e-09 2.08762e-07)
(-2.2776e-10 -6.07324e-10 2.196e-07)
(-1.01867e-09 4.58096e-09 1.13471e-07)
(-6.92777e-10 2.42169e-09 1.98983e-07)
(2.0296e-10 1.23515e-09 1.30425e-07)
(1.98839e-09 -3.49947e-09 6.12175e-08)
(2.42355e-09 -7.94267e-10 3.61163e-07)
(-1.16485e-09 1.28767e-09 1.7075e-07)
(-2.50835e-09 -7.73628e-10 2.41521e-08)
(2.15683e-09 -3.32657e-09 2.45198e-07)
(-8.81536e-10 -3.57591e-09 2.20163e-07)
(-3.1009e-10 2.58589e-09 5.01757e-08)
(1.61515e-09 3.73696e-09 1.56986e-07)
(-3.59344e-09 4.48393e-09 1.20961e-07)
(-1.04681e-09 9.74369e-10 1.74479e-07)
(1.93014e-09 -4.3235e-10 2.08252e-07)
(-1.02031e-09 1.59234e-09 3.96645e-08)
(2.0943e-09 -3.30194e-09 1.12567e-07)
(-1.80564e-09 1.78648e-09 1.23402e-07)
(9.67159e-10 1.11593e-09 1.88568e-07)
(2.62876e-09 -1.6092e-09 2.67092e-07)
(-2.92895e-09 -1.94977e-09 2.98809e-08)
(1.71261e-09 1.84637e-09 3.38718e-07)
(-4.83317e-10 5.4632e-11 2.24195e-07)
(-1.89614e-09 -9.43094e-10 2.18336e-07)
(-2.97135e-09 -6.03264e-09 1.14225e-07)
(9.70324e-10 8.6522e-10 2.95932e-07)
(1.52412e-09 -1.4214e-09 2.90163e-08)
(-2.60678e-09 -1.36356e-10 2.6466e-07)
(2.95449e-10 -7.19409e-10 3.63352e-08)
(1.54277e-09 -3.5665e-09 1.62181e-07)
(2.83359e-10 1.62885e-10 2.09781e-07)
(-1.7985e-09 2.79747e-09 1.6886e-07)
(-3.00506e-09 1.26002e-09 2.61614e-08)
(-6.65941e-10 -1.36867e-09 6.72308e-08)
(1.60348e-09 3.98517e-09 9.68847e-08)
(-8.96791e-10 -3.82832e-09 1.65612e-07)
(5.52815e-10 1.3065e-09 3.18562e-07)
(1.00144e-09 1.16133e-09 6.86001e-08)
(1.52425e-09 -5.40988e-09 1.65879e-07)
(-2.11479e-08 -2.67573e-10 2.23627e-07)
(-1.72632e-09 8.46296e-10 1.76425e-07)
(1.49612e-09 2.25244e-10 3.99933e-08)
(3.37604e-11 2.68344e-09 2.55247e-07)
(-1.37695e-08 -7.29674e-09 1.52005e-07)
(1.96376e-09 -9.84534e-11 1.71588e-07)
(-1.56016e-09 2.4884e-09 1.22965e-07)
(-1.49675e-09 8.3212e-10 1.47365e-07)
(1.52918e-09 5.86573e-09 1.34869e-07)
(-2.24175e-10 -1.16818e-10 1.64056e-07)
(-1.59238e-09 -8.5856e-10 1.3029e-07)
(3.8199e-09 -6.46136e-09 9.28121e-08)
(2.16328e-09 4.75632e-10 2.45976e-07)
(-3.31405e-09 -2.12446e-09 7.82126e-08)
(2.70557e-09 -1.80039e-09 2.09804e-08)
(1.08536e-09 -2.17675e-09 2.98605e-07)
(-7.45025e-10 -1.81655e-09 1.51323e-07)
(-1.64679e-09 1.1181e-09 3.03427e-07)
(9.7606e-10 -6.34026e-10 2.38149e-07)
(4.7309e-09 -4.476e-10 3.81251e-07)
(3.29518e-09 1.35511e-09 1.70622e-07)
(4.73158e-09 -1.48773e-10 3.5826e-07)
(2.09317e-09 5.399e-09 1.21817e-07)
(-1.33139e-09 -4.73635e-10 1.24775e-07)
(4.25673e-09 -1.57341e-09 3.17121e-07)
(-4.18128e-09 -1.83986e-09 4.29039e-08)
(1.92101e-10 2.1362e-09 2.91855e-07)
(3.20373e-09 -1.80182e-09 1.41e-07)
(1.44777e-09 1.87048e-09 4.06121e-08)
(7.59762e-11 9.94501e-10 2.74769e-07)
(-1.96252e-09 -7.19038e-11 7.83798e-08)
(-8.17738e-10 4.36003e-10 1.9983e-07)
(1.08213e-09 4.27983e-10 1.75699e-07)
(-3.23901e-09 4.19344e-09 3.83381e-07)
(-2.45519e-09 5.41588e-09 1.12281e-07)
(1.09522e-09 -1.53604e-10 2.42704e-07)
(2.54062e-09 2.31552e-10 1.75774e-07)
(-2.11035e-09 1.22289e-09 2.57561e-07)
(1.81016e-09 9.63872e-10 2.63853e-07)
(1.02407e-09 9.17949e-10 2.34731e-07)
(1.20119e-10 -1.3136e-09 1.35534e-07)
(2.6678e-09 -9.48369e-10 6.12421e-08)
(4.35915e-10 -8.08231e-11 8.70827e-08)
(-1.44898e-09 7.33911e-10 1.47648e-07)
(-1.88777e-09 -2.22535e-09 2.58217e-07)
(-3.06124e-10 1.64085e-09 3.64034e-08)
(-1.05099e-09 -4.90472e-10 2.18167e-07)
(-1.25116e-09 3.77864e-09 3.99409e-07)
(1.4782e-09 3.34536e-09 2.98984e-07)
(1.74027e-09 3.18916e-09 3.12403e-07)
(2.02892e-09 2.71614e-09 2.74001e-07)
(-2.09922e-09 2.56466e-09 2.76855e-08)
(7.25102e-11 1.6203e-09 1.94655e-07)
(2.20258e-09 -8.92248e-10 1.65049e-07)
(-9.06474e-10 -1.65278e-09 2.43056e-07)
(-2.56256e-10 -2.06702e-09 1.7982e-07)
(-2.98872e-09 -1.20977e-09 4.65936e-08)
(-1.00678e-09 1.26435e-09 1.67226e-07)
(-3.2999e-09 3.42521e-09 1.72992e-07)
(7.97209e-11 -9.58516e-10 2.55047e-07)
(1.40909e-09 2.20972e-09 2.20919e-07)
(-1.32836e-09 3.12287e-09 1.92424e-07)
(1.44866e-09 1.50942e-09 1.84829e-08)
(-2.39783e-09 7.7133e-10 2.66212e-08)
(-7.04461e-10 -1.80206e-09 1.52608e-07)
(-6.63179e-10 -2.09329e-10 2.57389e-07)
(-5.1875e-10 1.71709e-09 1.86622e-07)
(-1.34217e-09 7.08537e-10 1.65088e-07)
(-1.46971e-09 3.12347e-09 1.80121e-07)
(-6.02566e-10 1.96693e-09 2.42715e-07)
(8.03173e-10 6.75873e-10 2.4362e-07)
(9.66947e-10 1.69873e-09 2.63359e-08)
(-2.71028e-10 -1.6148e-09 1.19921e-07)
(-1.18413e-08 1.9422e-09 1.74529e-07)
(8.68737e-10 2.21971e-09 5.96487e-08)
(7.65193e-11 5.64072e-09 1.02599e-07)
(5.64835e-10 2.89146e-09 3.09687e-07)
(1.31214e-09 -5.52047e-10 2.12217e-07)
(1.01915e-09 -9.14183e-10 1.95167e-07)
(1.06798e-09 -1.15799e-09 2.53317e-07)
(-4.00112e-09 2.81555e-09 1.58126e-07)
(3.43394e-10 2.06289e-11 2.72558e-07)
(3.70672e-09 -6.11809e-09 1.99714e-07)
(3.09134e-09 -1.69424e-09 3.72839e-07)
(2.20622e-10 -1.82666e-09 1.8517e-07)
(2.58703e-09 -2.06011e-09 1.94482e-07)
(1.83146e-09 -2.67243e-09 2.64381e-07)
(1.73644e-09 5.14262e-10 6.14998e-08)
(4.91874e-09 -1.40008e-09 4.87487e-07)
(-1.33337e-11 -2.03473e-09 4.38494e-08)
(-1.64039e-08 -2.20342e-09 1.49718e-07)
(2.42231e-09 -4.39554e-09 1.42587e-07)
(-1.27841e-08 -7.46049e-10 1.59758e-07)
(-5.02265e-10 -9.72639e-10 2.2151e-07)
(-4.34236e-08 1.61542e-09 2.94201e-07)
(2.11645e-10 -3.49384e-10 1.18045e-07)
(3.54929e-10 -3.38017e-10 2.77741e-07)
(-6.89366e-10 -3.73885e-10 3.16977e-07)
(1.41903e-09 9.55969e-10 1.80318e-07)
(3.04168e-10 2.38032e-10 4.56376e-08)
(-5.49131e-09 1.41063e-10 1.18486e-07)
(-2.90663e-08 1.83445e-09 2.10222e-07)
(2.27987e-10 -4.31898e-11 1.79578e-07)
(-2.41577e-10 2.31408e-09 1.09624e-07)
(-1.31796e-08 6.82132e-10 2.18453e-07)
(-8.96865e-10 1.65917e-09 2.15802e-07)
(5.44817e-09 5.06943e-09 3.40078e-07)
(-1.43966e-09 -3.88426e-10 5.62336e-08)
(1.03865e-09 3.30802e-09 6.66805e-08)
(4.37809e-10 -3.57915e-10 3.46244e-08)
(1.60119e-09 1.46191e-09 2.67784e-08)
(-9.43597e-10 3.57607e-10 5.56883e-08)
(-7.33177e-09 2.02344e-09 2.2748e-07)
(-7.96995e-10 7.73712e-10 1.80927e-07)
(-2.1934e-09 -2.32665e-09 2.53068e-08)
(-3.16021e-09 3.20881e-10 2.77463e-08)
(1.28533e-09 1.32626e-09 2.87176e-07)
(-2.4254e-08 5.64243e-09 1.67916e-07)
(-2.34718e-09 -3.09898e-10 6.04149e-08)
(8.65458e-10 -5.14632e-10 2.21291e-07)
(-1.59608e-09 -5.4102e-10 1.15755e-07)
(1.3721e-09 -9.78481e-11 2.07301e-07)
(1.03655e-09 1.83467e-09 5.74657e-08)
(-3.27993e-09 -4.28527e-09 1.13129e-07)
(4.26606e-10 1.3779e-09 2.12042e-07)
(-3.63667e-10 -2.88729e-10 2.32587e-07)
(4.9141e-10 5.87473e-10 3.79655e-07)
(-2.21301e-09 1.57997e-09 5.51988e-08)
(-4.84442e-10 -2.82242e-09 3.14158e-08)
(-3.57654e-08 2.23859e-10 2.02044e-07)
(-3.00518e-09 2.8603e-09 3.62342e-08)
(2.99162e-10 5.95315e-09 3.16656e-07)
(-3.53881e-09 -1.15629e-09 3.81113e-08)
(7.73554e-10 3.85483e-09 1.68285e-07)
(-1.94969e-09 8.23305e-10 2.56337e-07)
(1.68192e-09 1.79651e-09 3.70969e-07)
(4.57342e-10 -1.6205e-09 7.70758e-08)
(9.10408e-10 5.92716e-11 1.55327e-07)
(-2.46962e-09 -1.07625e-09 5.06954e-08)
(-4.34872e-09 -1.22298e-10 3.72548e-08)
(4.52361e-10 -7.61829e-10 2.18376e-07)
(-2.26251e-09 1.23349e-09 1.9828e-08)
(1.67542e-09 -1.61033e-09 1.56877e-07)
(-1.83093e-11 -3.21034e-09 7.87417e-08)
(-3.58961e-10 1.43036e-10 3.0402e-07)
(4.35548e-10 -9.37045e-10 2.2437e-07)
(3.09755e-09 1.45952e-09 2.45429e-08)
(2.93649e-10 -7.85045e-09 1.70906e-07)
(1.32511e-09 2.07027e-09 2.34223e-07)
(8.91693e-10 8.0894e-10 3.96103e-08)
(6.14406e-10 -1.62323e-09 2.55762e-07)
(-1.52049e-09 5.16324e-09 1.00028e-07)
(4.27796e-10 7.11692e-10 2.43122e-07)
(4.5125e-10 1.37524e-09 1.87281e-07)
(1.44726e-09 7.63681e-10 7.13488e-08)
(-2.91092e-09 -7.51731e-10 2.72994e-08)
(-3.35678e-09 5.42284e-10 1.20065e-07)
(-3.89358e-08 1.55474e-10 2.43843e-07)
(-2.62743e-09 -1.60398e-10 2.55205e-07)
(9.00934e-11 5.40199e-09 9.48783e-08)
(5.18789e-09 -4.77928e-10 2.13581e-07)
(5.40891e-10 1.47363e-09 3.2321e-08)
(5.45485e-10 1.15482e-09 1.65369e-07)
(1.72287e-09 1.35632e-09 2.94045e-08)
(-1.18235e-09 2.8139e-09 2.96978e-07)
(2.05153e-09 1.68207e-09 2.99768e-07)
(8.05514e-10 9.64051e-10 1.9153e-07)
(-1.74232e-09 -2.51001e-10 1.84672e-08)
(2.6823e-09 3.28067e-09 3.32804e-07)
(-2.83191e-10 1.44507e-09 1.87201e-07)
(8.85936e-11 2.4224e-09 3.34516e-07)
(-4.80744e-10 -4.86541e-10 7.86082e-08)
(-3.00751e-08 1.29606e-09 2.22549e-07)
(-1.93918e-09 1.80571e-09 2.43188e-07)
(4.9166e-10 2.14214e-09 8.73807e-08)
(-4.20765e-10 -7.40379e-10 2.0445e-07)
(-3.92758e-08 4.15815e-09 2.09936e-07)
(1.94989e-11 -3.7606e-10 1.92543e-07)
(-3.70411e-11 -1.24508e-09 4.14079e-08)
(-1.78354e-09 4.44012e-09 1.31989e-07)
(2.49402e-10 2.74678e-10 1.57751e-07)
(-6.68507e-10 -2.17325e-09 2.22922e-07)
(-4.81966e-10 -3.62834e-10 4.21396e-08)
(-7.43909e-10 -2.44858e-09 2.37784e-07)
(4.31403e-09 7.2079e-09 1.92603e-07)
(-2.07196e-09 1.74559e-09 3.34517e-08)
(-1.18568e-12 -2.25415e-10 1.70376e-07)
(-1.53163e-08 7.8847e-10 1.58368e-07)
(-2.85987e-09 -5.38718e-09 3.45947e-07)
(-1.1496e-11 -7.05979e-11 1.72407e-07)
(6.74134e-10 -2.41687e-11 1.5405e-07)
(1.94081e-09 4.40344e-10 2.68585e-07)
(1.75417e-09 8.24759e-10 2.61503e-07)
(1.28155e-09 -5.02165e-10 9.23353e-08)
(-1.8999e-09 3.17543e-09 8.86109e-08)
(3.10759e-09 -1.54227e-10 3.19748e-07)
(-2.66639e-08 -8.17036e-10 2.2476e-07)
(1.08603e-09 3.55546e-09 2.22532e-07)
(8.48917e-10 -7.31115e-10 1.99545e-07)
(2.60315e-09 6.03143e-10 1.47936e-07)
(5.27399e-10 -3.18234e-10 3.09413e-07)
(-6.03872e-10 -8.7856e-12 1.81405e-07)
(-5.70114e-10 -2.08579e-09 2.01976e-07)
(-6.90695e-10 4.18083e-09 2.57689e-07)
(-4.60028e-10 2.71072e-09 5.58746e-08)
(-4.08709e-10 -7.74882e-10 2.03732e-07)
(-2.71091e-09 -1.4518e-09 4.87653e-08)
(-1.32983e-09 -2.48169e-09 2.95302e-07)
(-1.72736e-09 -2.11166e-09 2.75102e-07)
(-2.38539e-10 5.7174e-09 1.954e-07)
(2.4835e-09 -2.56415e-09 1.80753e-07)
(1.34216e-09 -1.88488e-09 2.35579e-08)
(1.23193e-10 -8.06934e-10 1.20905e-07)
(-4.10976e-09 -2.55674e-09 9.52048e-08)
(-1.16086e-09 4.68217e-10 2.21212e-07)
(9.52084e-10 4.73067e-10 1.98595e-07)
(-2.37923e-08 -1.04159e-09 2.20486e-07)
(-1.11935e-09 1.93164e-09 2.776e-07)
(-2.28211e-09 2.52303e-09 9.49712e-08)
(-1.11351e-08 4.20236e-10 1.36659e-07)
(-1.76494e-09 -3.30729e-09 2.49164e-07)
(2.03185e-09 3.6744e-10 3.56252e-08)
(5.17004e-10 1.00405e-09 2.03673e-07)
(-6.93147e-11 1.48867e-09 6.51056e-08)
(-2.06602e-09 -3.11185e-10 2.00624e-07)
(4.71901e-09 -3.51469e-09 4.2428e-08)
(4.24771e-09 1.50243e-09 3.0572e-07)