/*--------------------------------*- C++ -*----------------------------------*\
| =========                 |                                                 |
| \\      /  F ield         | OpenFOAM: The Open Source CFD Toolbox           |
|  \\    /   O peration     | Version:  2406                                  |
|   \\  /    A nd           | Website:  www.openfoam.com                      |
|    \\/     M anipulation  |                                                 |
\*---------------------------------------------------------------------------*/
FoamFile
{
    version     2.0;
    format      ascii;
    arch        "LSB;label=32;scalar=64";
    class       volVectorField;
    location    "20";
    object      momentum:angularVelocity;
}
// * * * * * * * * * * * * * * * * * * * * * * * * * * * * * * * * * * * * * //

dimensions      [0 1 -1 0 0 0 0];

internalField   nonuniform List<vector> 
59516
(
(-0.000242651 -0.00043182 0.118324)
(0.00111475 -0.000957633 0.106145)
(-0.000173283 0.00109431 0.120163)
(-0.00250788 0.000679578 0.128564)
(-0.00390553 -0.000269694 0.113691)
(-0.0104575 0.00554534 0.101136)
(3.95991e-06 -0.0017389 0.135749)
(-0.000157221 -0.0021306 0.115245)
(-0.000757904 -0.000684125 0.118748)
(0.00157242 -0.000109782 0.0645301)
(-0.000237725 -0.00101896 0.140375)
(-0.00190658 -0.00335994 0.0714915)
(-0.00031766 -0.000157718 0.130363)
(0.000138128 -0.00039878 0.0261051)
(0.000275799 -0.00275195 0.0754423)
(-0.000972584 0.00303945 0.0610777)
(0.000302275 -0.000315424 0.146938)
(-0.00459819 -0.00132643 0.0758497)
(-0.00115115 -0.00155014 0.121935)
(-0.000746641 0.0003704 0.147986)
(0.000306582 0.000646582 0.063615)
(0.000738827 -0.000765898 0.145486)
(0.000315007 -0.000616621 0.146824)
(0.00103616 0.000894902 0.042468)
(0.000519686 0.00184995 0.148804)
(0.000668546 0.00160767 0.076192)
(-0.0010274 0.00347174 0.0512991)
(-0.00192952 -0.00153297 0.0506095)
(0.00016701 -0.000788209 0.0764152)
(0.00295123 0.00190601 0.0232939)
(-0.020985 0.00117563 0.108898)
(-0.00129097 0.00183993 0.052229)
(-0.000651159 -0.0017055 0.132454)
(-0.000984792 0.00105239 0.116989)
(-0.000222255 -0.000706569 0.135684)
(0.000511572 0.000840838 0.145345)
(-0.00243961 0.00186999 0.0208921)
(-0.00607511 -0.00262361 0.0742793)
(-0.000921231 0.000798351 0.107783)
(0.00196681 -0.00191856 0.145593)
(0.000732206 -0.00100255 0.111406)
(-0.00476043 -0.000858158 0.141919)
(0.00106504 -0.000255153 0.144674)
(-0.000564432 -0.00126554 0.1155)
(0.000145798 0.000352862 0.143798)
(0.000256582 0.000539161 0.0639749)
(-0.000598819 -0.00116803 0.136266)
(0.000408817 -5.46866e-05 0.146876)
(-0.0145299 0.00165594 0.111783)
(-0.0021287 -0.000510144 0.140283)
(-0.0178617 0.000393541 0.103954)
(-0.00298239 -0.00213715 0.0529707)
(0.000853789 -0.000450992 0.128399)
(-0.000139458 -0.00072039 0.135245)
(-0.00129749 0.000664883 0.0568043)
(0.00172114 0.000267059 0.134022)
(-0.0067519 -0.000429254 0.137162)
(-0.00352023 -0.00285871 0.0591738)
(0.00182859 0.00146404 0.14503)
(-0.00415546 -0.000255854 0.133597)
(0.000493608 -0.00034811 0.140909)
(-0.00153597 0.00241453 0.0253727)
(0.00157302 -0.000740543 0.140656)
(0.000730863 0.000987369 0.143065)
(0.000156348 0.000776258 0.132595)
(-0.000771107 0.000439875 0.138183)
(-3.56125e-05 0.00371569 0.033997)
(0.000488581 -0.000347129 0.0518678)
(-0.0213654 0.000851741 0.121101)
(0.00123375 -0.00123381 0.137104)
(-0.000636134 -0.00104366 0.0478681)
(-0.000192243 0.000421693 0.144005)
(0.00371974 -0.00157098 0.027846)
(0.000924287 0.000384052 0.139912)
(-0.0010728 0.000938317 0.146913)
(0.000764566 -0.000489741 0.146776)
(0.000678223 -0.000787755 0.146344)
(-0.000864254 0.000168879 0.13915)
(0.00100479 0.00136586 0.0567812)
(-0.0019405 0.000696459 0.138773)
(-0.00167834 0.000744198 0.0460764)
(-0.00131749 0.000347241 0.137463)
(-0.00103864 0.00029229 0.135734)
(-0.00258949 0.00101121 0.0256321)
(-0.00111574 0.000358215 0.137848)
(-0.000876183 0.000161168 0.146315)
(0.000932976 0.000508869 0.0394093)
(-8.51822e-05 0.000207947 0.14586)
(-0.00149424 -0.00232558 0.0636538)
(-0.00746996 -0.00222725 0.11246)
(-0.00790357 -0.000852917 0.129248)
(-0.00122684 0.000107266 0.132308)
(0.000786303 -0.000387893 0.145964)
(-9.19809e-05 3.69232e-05 0.132211)
(0.000157461 -0.00126034 0.139073)
(-0.0104573 0.000500238 0.109974)
(-0.00140747 -0.0012378 0.137468)
(0.00112889 0.00384195 0.0654451)
(-0.000617742 -0.000511385 0.0734157)
(0.000947765 0.000241531 0.141022)
(-0.00100349 0.000901336 0.0452486)
(0.00329073 0.00108145 0.0312577)
(0.00340027 0.00175772 0.0305177)
(-0.00274429 0.00226077 0.0661678)
(0.00116674 0.00010082 0.133573)
(-0.000283878 0.00090857 0.133423)
(0.00115807 -0.00354332 0.0501416)
(-0.000657449 0.000146656 0.11468)
(0.000344203 0.000980605 0.111172)
(-0.00125927 0.00205002 0.0808476)
(-0.0163982 -0.000340938 0.125107)
(0.00254097 -0.00197722 0.0387501)
(-0.00225855 0.00377916 0.0802129)
(-0.0172776 0.000288361 0.119587)
(-0.000936645 0.000527195 0.145744)
(0.00165381 -0.00145994 0.112952)
(-0.00145627 -0.000256848 0.062878)
(-0.00129995 9.359e-05 0.134188)
(-0.000675748 -0.00158836 0.0284797)
(-0.00129463 0.000763631 0.138131)
(-8.17832e-06 -0.000454491 0.146832)
(0.00136974 0.000467371 0.144909)
(-0.000386555 -0.000680814 0.145287)
(0.000776883 0.000980403 0.143591)
(-0.0133299 0.0017777 0.132295)
(-0.00100186 0.000321875 0.0994818)
(-0.00170609 -0.000743677 0.0385084)
(-0.00700228 0.00198706 0.138263)
(-0.0126276 0.00287084 0.0906967)
(0.00107359 0.000220233 0.144207)
(0.00149315 -0.00107586 0.144181)
(0.00173657 0.00183333 0.123299)
(-0.000455804 -0.00236814 0.0302158)
(0.000741143 0.000766192 0.144452)
(0.000181395 0.000463495 0.11591)
(-0.00141143 0.0015229 0.126927)
(-0.0134333 0.00173791 0.110544)
(0.00154146 0.000441251 0.138035)
(-0.00032445 0.00247088 0.0485732)
(-0.000760727 9.94873e-05 0.111403)
(-0.0010812 0.00192579 0.0538615)
(1.92569e-05 0.00063999 0.144528)
(-0.00148518 -0.0020207 0.0243924)
(0.000124907 0.00139592 0.127531)
(-0.000261514 0.000629865 0.142789)
(-0.00127626 0.00105505 0.138655)
(0.000396902 0.000518355 0.142134)
(-0.000132382 0.00142456 0.12765)
(0.00092575 -0.00175099 0.0624655)
(0.000892866 0.000960935 0.118407)
(-0.000558897 -0.000887905 0.117636)
(0.000508149 0.000341425 0.0432445)
(0.00173795 0.000156113 0.147843)
(0.00129433 -0.000200452 0.142659)
(0.000163042 -0.00135561 0.104089)
(-0.00203245 0.00129496 0.0247626)
(0.000671571 0.00139566 0.122652)
(-0.000507872 0.000600441 0.124831)
(-0.00102188 0.00100643 0.0975359)
(-0.00309033 -0.00253668 0.0254501)
(0.00224054 0.00222076 0.0776249)
(0.00285538 -0.00159729 0.0802831)
(-0.000174062 0.00129421 0.0446277)
(4.49626e-06 -0.000446747 0.0325793)
(0.00297225 0.000312961 0.113786)
(-0.000975248 0.000252383 0.148198)
(-3.89513e-05 -2.0106e-05 0.0705772)
(-0.000262452 -0.000325495 0.144737)
(0.00139448 0.00263126 0.025811)
(0.000545591 0.000159798 0.129381)
(-0.000822134 -0.0018095 0.0968205)
(-0.000706951 0.000443039 0.0631838)
(0.000492663 -0.00137808 0.0775635)
(0.000657867 -0.00117523 0.135611)
(0.000911509 0.0010507 0.0618877)
(-0.000674026 -0.00174456 0.137706)
(-0.000306416 -0.000619174 0.144545)
(0.000607193 6.94914e-05 0.146519)
(-0.000419355 -0.00358578 0.0796594)
(0.000917653 0.00056645 0.0521524)
(0.000787833 -0.00180857 0.141769)
(0.000455746 0.00329632 0.041698)
(-0.000923769 -0.00285833 0.0360506)
(0.00128872 0.00230614 0.0772621)
(0.000505481 -0.00113479 0.144319)
(-0.000290593 0.000887407 0.0671274)
(-0.00296806 0.000838192 0.0434805)
(0.000813701 -0.000547888 0.0286573)
(7.96516e-05 -0.000994721 0.128865)
(0.00211392 0.000615318 0.112593)
(-0.00200904 -0.000949465 0.132071)
(-0.00124206 -0.00340987 0.0626475)
(-0.00047983 -0.000299715 0.146279)
(0.00251367 -0.00183661 0.069429)
(0.000407055 0.000934701 0.145864)
(8.63877e-05 0.000586963 0.0359219)
(0.000583452 0.00012821 0.0677791)
(-0.000368125 -0.0012844 0.0491468)
(-0.00377102 -0.000859646 0.117517)
(0.000322999 0.000817772 0.145445)
(-0.00260224 -0.00263544 0.0899452)
(0.00078856 0.00026263 0.142601)
(0.000945738 0.000804417 0.11703)
(0.00161205 -0.001883 0.0254771)
(0.000775835 0.00085505 0.134661)
(0.000970705 -3.06355e-05 0.140062)
(0.000282089 0.00038409 0.145252)
(-0.000263118 0.000624031 0.135469)
(0.000294654 -0.000860816 0.0282592)
(0.0011545 0.0012146 0.124846)
(-0.000729515 0.00488423 0.0577167)
(-0.00374151 0.000701487 0.0283528)
(-0.00119061 0.000705114 0.143368)
(-6.28767e-05 0.000451672 0.0682053)
(0.000200717 -0.0011078 0.127803)
(-0.00154036 7.38865e-05 0.145187)
(-0.000801962 0.000542314 0.138057)
(-0.000779194 8.36273e-06 0.145562)
(-0.00141557 0.00383895 0.0657943)
(0.000938821 0.000251104 0.146856)
(-0.00164765 -0.00186249 0.0686858)
(-0.000375121 0.00125143 0.114066)
(-0.000549961 -0.00117931 0.141599)
(0.000941732 -0.000850861 0.0517201)
(-0.00157661 -0.00100014 0.142147)
(0.000133767 0.000592655 0.144015)
(-0.00149068 -0.00119186 0.0346203)
(-0.00235123 0.000638623 0.0580985)
(-0.0015962 0.00110017 0.143591)
(-0.00122865 0.0038777 0.0650586)
(0.000558257 0.000907548 0.148471)
(-0.000973695 0.000300948 0.143222)
(-0.000812221 -0.000956085 0.141986)
(-0.00113861 -0.00201244 0.0316609)
(-0.000951198 -0.000597128 0.0393541)
(-0.000956682 0.000392796 0.04373)
(0.00125871 -0.000461898 0.0764038)
(-0.000585435 -0.000257915 0.107011)
(-0.000718657 -0.000142074 0.142408)
(0.00143432 -7.28877e-05 0.0641754)
(0.00133752 0.000180322 0.14296)
(0.00247776 0.00220638 0.0262236)
(0.00197297 0.000829151 0.0640156)
(0.00286573 0.00198396 0.0320877)
(0.000842359 0.000471054 0.142735)
(0.000101518 -0.000690132 0.107909)
(-0.000113205 -0.000384616 0.1389)
(-0.000588495 0.000804432 0.0781925)
(0.00148569 0.000541383 0.148102)
(0.000106299 0.000347105 0.116357)
(0.00235764 -0.000724168 0.147417)
(-6.95677e-05 2.12321e-06 0.13776)
(0.00111159 0.000656654 0.142007)
(0.000688562 0.000207205 0.13821)
(0.000205605 0.000646556 0.140368)
(-0.000325909 9.74933e-05 0.144115)
(0.000163837 -0.000370525 0.0653863)
(-0.000276533 -0.000103718 0.142411)
(0.000587267 0.00196096 0.0525045)
(-0.00127467 0.00217851 0.0718715)
(-0.00202482 0.00012748 0.134474)
(-0.000270664 0.00148809 0.143496)
(0.00210761 0.00129643 0.125809)
(-7.69307e-05 0.00159021 0.145942)
(0.00251892 0.00133632 0.110322)
(0.00079454 -0.00362233 0.0676604)
(-5.62329e-05 -0.000719614 0.145353)
(0.00292124 -2.40204e-05 0.103576)
(-0.00108073 -3.59867e-05 0.0579097)
(-0.000205193 0.00141153 0.0629083)
(-5.66067e-05 0.00196017 0.109613)
(-0.000502162 -0.000431045 0.14311)
(-0.00148203 0.00185852 0.110459)
(-0.00147581 0.000631189 0.106077)
(-0.00116899 0.00102361 0.144432)
(0.000654667 0.00368981 0.107308)
(-0.00133226 -0.00231295 0.0276593)
(0.000312445 0.00142529 0.146836)
(0.00199415 -0.00123587 0.0332416)
(0.00167464 0.00126288 0.0494298)
(-0.000577774 -0.000975754 0.141719)
(0.000295597 0.000410475 0.138296)
(-0.00387968 0.00277091 0.0317981)
(0.000139504 -0.00132068 0.131162)
(-0.00039818 -0.00229854 0.135115)
(0.000841961 0.000462755 0.144397)
(0.000356843 -0.000244962 0.142514)
(0.00222135 -0.00203635 0.0313313)
(-0.00153631 0.000166065 0.141715)
(-0.000997171 -0.00153249 0.139639)
(-3.83546e-05 -0.00118063 0.142683)
(-0.00088135 -0.00124675 0.136587)
(-0.00204676 0.000113493 0.132353)
(-0.00129664 -0.00028202 0.105996)
(8.60518e-05 -0.000281744 0.149605)
(0.0002128 0.00146143 0.035586)
(0.00140058 -0.00214772 0.141078)
(0.000690527 0.000755038 0.141716)
(-0.00043419 -0.00152096 0.143516)
(5.87562e-05 -0.00198382 0.139732)
(0.00113699 -0.00100126 0.126912)
(0.000747066 -0.00358638 0.0685942)
(-0.000683335 -0.00215847 0.0290567)
(0.000457162 0.000172222 0.0373691)
(-0.00101066 0.00167599 0.1513)
(-0.00306528 0.00171645 0.0259431)
(-0.000406624 -0.000189972 0.0756661)
(-0.00177253 0.00223921 0.0630608)
(0.000986211 -0.000505029 0.14633)
(-0.00022018 -0.00076972 0.147558)
(-0.00057628 -0.000186822 0.145177)
(0.00132222 -0.000703238 0.071241)
(0.0017345 6.81365e-05 0.111636)
(0.0010217 0.00496541 0.0504942)
(0.00115469 -0.000790429 0.0651009)
(5.37266e-05 -0.00188433 0.138326)
(0.000944548 -0.00105464 0.112657)
(-0.0126976 -0.00155789 0.107585)
(0.000410334 -0.00292379 0.10103)
(-0.000982892 -0.00026638 0.052149)
(0.0015482 -6.15737e-05 0.0756465)
(0.000305862 -0.00132429 0.119752)
(8.80324e-06 4.34818e-05 0.144816)
(-0.00152656 -3.62119e-05 0.146646)
(-0.00103943 0.0016323 0.145053)
(-6.61887e-05 0.0014687 0.147689)
(-0.00289209 -0.00159173 0.103714)
(-0.00111559 0.000940946 0.13013)
(-0.000427077 0.00171581 0.141307)
(-0.000671803 -0.000901688 0.144962)
(0.000584339 -0.000244915 0.145259)
(-0.00219735 -0.00175036 0.0688445)
(0.00352103 -0.000402299 0.0288748)
(-0.000266308 -0.00104875 0.142433)
(0.00158591 0.00287794 0.0503829)
(0.000852612 5.20619e-05 0.0414146)
(-0.000641993 -0.000262363 0.14336)
(0.000451025 0.00116181 0.140613)
(-0.000668657 0.00344946 0.0684686)
(-0.000677784 -0.00012358 0.144646)
(0.000426109 0.00103227 0.146242)
(-0.00073951 -9.80139e-05 0.144333)
(0.000873817 -0.000709198 0.146822)
(-0.000702335 -0.00201593 0.0400901)
(2.19628e-05 -0.000484821 0.146778)
(-0.000391043 0.000199498 0.142878)
(0.000272659 0.000620752 0.0693102)
(0.000480582 -0.00143798 0.143333)
(0.000644428 0.000873822 0.144259)
(0.000902865 0.000274608 0.134503)
(0.00116556 -3.68508e-05 0.128017)
(0.00047162 -0.000643934 0.139424)
(0.000497953 0.000186551 0.1381)
(0.000378522 1.89612e-05 0.0800031)
(-0.000854295 0.00257967 0.0394115)
(-4.08561e-05 0.00130587 0.0410197)
(-0.000459993 0.000882251 0.108257)
(-0.0113103 -7.10257e-05 0.0892322)
(-0.00718878 0.00064343 0.075729)
(0.000961786 -0.000743198 0.0965099)
(0.000983392 -0.000612332 0.121742)
(-0.000400708 5.10603e-05 0.136282)
(-0.000571617 0.0010571 0.140171)
(0.000540351 -9.85435e-05 0.149731)
(-0.000947056 0.000735036 0.135931)
(-0.00110948 -0.000646755 0.140757)
(-0.00148394 -0.00013639 0.13914)
(-0.000308141 0.000893484 0.0404797)
(-0.0218968 0.00107594 0.114087)
(0.000946481 0.00247598 0.0712216)
(-0.000492768 0.00268811 0.0501412)
(-3.67907e-05 0.000456355 0.051609)
(-0.000510001 -0.0010181 0.144461)
(3.57623e-05 0.000180234 0.10766)
(-0.000381079 -2.75961e-06 0.147067)
(-0.00142328 0.00128959 0.0263556)
(0.000771375 -1.47983e-05 0.1314)
(0.000989288 -0.00135086 0.0562302)
(-0.000146848 0.00138467 0.143965)
(-0.00054628 -0.000128346 0.0593712)
(0.00186903 0.000805417 0.0742915)
(0.000467816 0.00120717 0.118772)
(-0.000315585 0.00121985 0.138764)
(0.00319189 -0.000206541 0.0258655)
(0.000203976 0.00234116 0.0660233)
(-1.21381e-08 -0.000588146 0.134189)
(0.000124784 -0.00289428 0.0297116)
(-0.00393917 0.000376615 0.131121)
(0.000640112 -0.00227878 0.123708)
(0.00113568 -0.00174703 0.133887)
(0.00255033 -0.00285439 0.105774)
(0.000674719 -0.00106352 0.097251)
(0.0007888 -0.000858172 0.149201)
(-0.00891201 -0.00323469 0.0800454)
(-0.00204647 -0.000905947 0.145474)
(-0.0103563 0.000455089 0.113252)
(-0.00359574 0.00162185 0.0720881)
(-0.000918629 0.00145825 0.072542)
(-0.000464207 -0.000719405 0.146917)
(0.00066067 -0.00148882 0.150134)
(0.000726894 -0.000762912 0.0647689)
(-0.000295525 -0.000563708 0.14046)
(-0.00199031 0.00116117 0.110269)
(0.00105485 -0.000212464 0.146351)
(0.00080114 -0.000457568 0.145955)
(-0.00136228 -0.00476553 0.0565304)
(0.000237217 0.000432962 0.134764)
(0.00211361 0.000264043 0.143824)
(0.000735118 5.06646e-05 0.144388)
(0.000542179 9.31216e-06 0.147134)
(0.00262618 -0.00207946 0.0264085)
(-0.00279289 -0.00136721 0.0263729)
(-0.000915904 0.00148878 0.129851)
(-3.80974e-05 -0.000525834 0.144946)
(0.000691642 0.000888059 0.144978)
(-0.00244004 0.00160621 0.043976)
(0.000392313 -0.00071512 0.140706)
(-0.000380694 -0.000464805 0.119584)
(-0.00138594 0.000124494 0.138153)
(0.00124731 0.000446603 0.148208)
(3.06607e-05 -0.000269486 0.146139)
(-0.000277646 -0.00175759 0.146042)
(7.14125e-05 -0.00202571 0.147071)
(0.00125254 -0.000658437 0.103957)
(-0.00216656 0.000279429 0.144033)
(-0.00223942 0.00329178 0.0684129)
(0.000328003 0.000932137 0.14531)
(-0.00102291 -0.00133759 0.120451)
(-0.00154497 0.00107047 0.140153)
(-0.000239947 -0.000192263 0.144119)
(0.000426035 -0.000961031 0.145668)
(0.00087454 0.0013567 0.140752)
(0.00189916 0.00359379 0.0521568)
(0.000168766 -0.00117633 0.0421144)
(-0.00239808 -0.00188358 0.0281245)
(-0.00313203 0.000419802 0.139241)
(0.000318676 9.87093e-05 0.147668)
(-0.000398338 0.000878847 0.136098)
(0.000625794 -0.00259014 0.131793)
(0.000885048 0.00070014 0.0368543)
(0.00161991 -0.0035823 0.0308734)
(-0.000430905 -0.00161911 0.123451)
(-0.000167284 0.00125333 0.139985)
(-0.00106857 0.000321718 0.145346)
(0.0010573 -0.000877252 0.148008)
(-0.000854903 -0.000673363 0.140649)
(-0.000548142 0.00113224 0.14438)
(0.000784828 -0.000682179 0.139092)
(-0.00202895 0.00255661 0.034366)
(-0.0012877 -0.000103145 0.128141)
(0.00242199 -0.00182732 0.0694733)
(-0.00682017 -0.000600149 0.071524)
(0.000653025 1.31806e-06 0.140504)
(0.0010802 -0.000717874 0.106363)
(0.000987307 -0.000271375 0.142283)
(-0.00360165 0.00304562 0.0278386)
(0.00214327 -0.000670539 0.149662)
(0.000371499 0.000384813 0.145833)
(-0.00170114 0.000592816 0.143085)
(-3.09674e-05 -0.000655677 0.102762)
(-0.000641164 -0.000676257 0.140155)
(-0.00142579 -0.000417642 0.141471)
(0.00161136 0.000416455 0.122783)
(-0.000477853 -0.000110952 0.142366)
(-0.00207249 1.92099e-05 0.107737)
(0.000296937 0.000483651 0.146386)
(-0.00138631 -6.38474e-05 0.144063)
(0.0021525 -0.00205893 0.0260057)
(-0.00042173 0.000759315 0.145683)
(0.00134802 0.00139155 0.122872)
(-0.00250614 -0.003189 0.0554394)
(-0.000277462 0.00223866 0.106068)
(0.000552767 0.00105176 0.145788)
(-1.44712e-05 -0.000553354 0.135323)
(0.00074785 0.00245916 0.100045)
(-0.00264155 0.00254655 0.0249937)
(-0.000893956 0.00113311 0.14628)
(0.000327944 0.00238425 0.130029)
(-0.000492677 0.000575276 0.145051)
(4.95297e-05 -0.00146945 0.130507)
(-0.00214011 0.000385281 0.0454791)
(0.000735324 -0.00111329 0.138349)
(-0.00421496 0.00073401 0.0309501)
(-9.44579e-05 -0.000288062 0.144066)
(-0.0119612 0.000700124 0.102328)
(-0.000149853 -0.000399584 0.144484)
(-0.000580863 0.00261215 0.0647033)
(-0.000398287 0.00139226 0.114398)
(0.000165018 0.00100424 0.106043)
(0.0014141 -0.00248876 0.0435367)
(0.000938499 -0.000307572 0.139857)
(-0.000941525 0.00104079 0.138013)
(-0.00300757 -0.0009276 0.028959)
(0.00124542 -0.00192087 0.141585)
(-0.000562404 -0.00228136 0.14046)
(-0.000287696 0.00239914 0.0465521)
(0.000759653 0.0017576 0.073835)
(-0.00189751 0.00236772 0.0638733)
(-0.000846507 0.000787931 0.141094)
(0.00131784 -0.000295196 0.142189)
(-0.000945769 0.00147601 0.0367667)
(0.00120476 -0.00189947 0.064755)
(-0.000974776 0.000964437 0.066619)
(0.00062678 0.00072319 0.122204)
(0.00139729 -0.000855353 0.14197)
(-0.00281012 -0.00187067 0.0286687)
(0.000747735 0.000806135 0.147886)
(-0.000309763 3.50143e-05 0.143689)
(-0.00123303 -0.00061328 0.141981)
(-0.00234439 -0.00475976 0.0901234)
(0.000492028 0.000438732 0.15006)
(0.00146263 -0.00136406 0.0278457)
(-0.00144611 -7.56439e-05 0.14682)
(0.000280964 -0.00068414 0.0345538)
(0.000665349 -0.00153813 0.069944)
(0.000193249 0.000111087 0.14307)
(-0.000770475 0.00119843 0.0723395)
(-0.00311261 0.00130512 0.0270977)
(-0.000467502 -0.000960827 0.0471971)
(0.000927064 0.00230405 0.0560145)
(-0.000387872 -0.00165579 0.0716292)
(0.00024869 0.000587742 0.143309)
(0.00084609 0.000981173 0.0579582)
(0.00064353 -0.00228402 0.0700329)
(-0.012012 -0.000151982 0.12702)
(-0.00136736 0.000670324 0.13974)
(0.00119186 0.000179438 0.0318602)
(1.57774e-05 0.00125406 0.119286)
(-0.00759782 -0.00402623 0.083874)
(0.00166534 -8.34922e-05 0.145513)
(-0.000885058 0.00141164 0.0697565)
(-0.0014067 0.000782053 0.138499)
(0.000798859 0.00306431 0.070457)
(-0.000169877 -8.85231e-05 0.124319)
(-0.00174254 -0.000939524 0.142577)
(0.00260502 -0.0044064 0.0632943)
(0.00127868 0.000281137 0.145392)
(-0.00221639 -0.00142081 0.0523076)
(0.00321448 -0.00213903 0.0249268)
(0.000500274 -0.00100333 0.137636)
(-0.00069598 -0.00169697 0.141361)
(-0.000723143 0.000490984 0.133242)
(0.000533524 -0.000346565 0.130175)
(0.00180724 -0.000170986 0.145641)
(0.00141369 0.000581363 0.0731995)
(0.00193908 -6.09698e-05 0.146821)
(0.00118293 0.00305116 0.0688431)
(-0.00151876 -0.000540293 0.142336)
(0.00174583 -0.00064531 0.130063)
(-0.00348444 -0.00153324 0.0357537)
(9.76618e-05 0.00108602 0.148376)
(0.00141853 -0.000797803 0.0624315)
(0.0012168 0.00157207 0.034133)
(4.07317e-05 0.000533164 0.147307)
(-0.0013109 -4.80295e-05 0.0523553)
(-0.000553822 0.000295288 0.135337)
(0.00086222 0.000341009 0.139994)
(-0.00113065 0.00146381 0.133828)
(-0.00133237 0.00293907 0.060932)
(0.000672671 -9.4342e-05 0.149066)
(0.00147438 0.000134375 0.102006)
(-0.00121287 0.000702823 0.148027)
(0.00100465 0.000534957 0.146441)
(0.000644921 0.000578089 0.147824)
(0.000125715 -0.0013748 0.141848)
(0.00233941 -0.000831633 0.0537037)
(0.000311676 -5.77879e-05 0.0622635)
(-0.00141633 0.000717374 0.144321)
(-0.00106066 -0.00125033 0.145081)
(-0.000329594 0.00176665 0.0391943)
(-0.000683821 -0.000319124 0.14195)
(-0.00046791 0.00141314 0.149372)
(0.000733141 0.00165919 0.148287)
(0.000818778 0.00150046 0.146982)
(0.000938721 0.00125668 0.126772)
(-0.00214493 0.0026205 0.0282882)
(5.56215e-05 0.00124291 0.149317)
(0.00147339 -0.000596858 0.110407)
(-0.000514282 -0.000937691 0.137896)
(-0.000150327 -0.00121257 0.105487)
(-0.0023628 -0.000956412 0.0368357)
(-0.000840949 0.0010561 0.139683)
(-0.00196524 0.00203987 0.103024)
(4.31753e-05 -0.000519115 0.138129)
(0.000926007 0.00145215 0.145181)
(-0.000934805 0.00219765 0.135414)
(0.00176054 0.00183438 0.022462)
(-0.00252687 0.000812837 0.0280538)
(-0.000646356 -0.00165342 0.14002)
(-0.000356873 -0.000112645 0.138507)
(-0.000401777 0.00132991 0.14454)
(-0.00111157 0.000586806 0.136725)
(-0.000827859 0.00175939 0.101459)
(-0.000350629 0.00114454 0.141234)
(0.000479277 0.000403314 0.145375)
(0.000962311 0.00169059 0.0262097)
(-0.000315173 -0.00187782 0.139454)
(-0.00917963 0.00150563 0.135299)
(0.000673516 0.00172091 0.0462446)
(4.76657e-05 0.00351374 0.0639116)
(0.000264885 0.00135598 0.145231)
(0.000868085 -0.000365222 0.140398)
(0.000708076 -0.000635149 0.135596)
(0.00055605 -0.000602918 0.131892)
(-0.00297167 0.00209114 0.117441)
(0.000182614 1.09703e-05 0.144944)
(0.0019853 -0.00327682 0.106966)
(0.00124751 -0.000683714 0.15046)
(0.000169688 -0.00140495 0.142421)
(0.00193358 -0.00153975 0.145359)
(0.000989163 -0.00144337 0.142791)
(0.0013999 0.000414592 0.0495804)
(0.00147812 -0.000420736 0.146494)
(-1.23677e-05 -0.00188731 0.0406725)
(-0.0104003 -0.001397 0.0949236)
(0.00120872 -0.00219336 0.0711503)
(-0.0100633 -0.000587273 0.125758)
(-0.000304566 -0.000589794 0.13432)
(-0.0175434 0.000652641 0.118859)
(0.000254333 -0.000419855 0.141855)
(0.00019032 -0.000181251 0.14893)
(-0.000312062 -0.00016925 0.143489)
(0.00111281 0.000749676 0.141406)
(0.000278631 0.000218047 0.0418059)
(-0.00467826 0.000120177 0.100943)
(-0.0155479 0.000981266 0.11245)
(0.000181168 -3.43205e-05 0.1427)
(-0.000266161 0.00254957 0.12078)
(-0.00827083 0.00042807 0.13709)
(-0.000589761 0.00109104 0.141907)
(0.00193252 0.00179818 0.120629)
(-0.00109282 -0.000294847 0.0426859)
(0.000996656 0.00317429 0.0639848)
(0.000372468 -0.000304498 0.0294569)
(0.00179107 0.00163528 0.0299541)
(-0.000699806 0.000265214 0.0413005)
(-0.00442138 0.00122023 0.137181)
(-0.000601203 0.00058364 0.13648)
(-0.00261737 -0.00277637 0.0301985)
(-0.00324457 0.000329447 0.028487)
(0.000644706 0.000665239 0.144044)
(-0.0140341 0.00326488 0.0971613)
(-0.00176907 -0.00023357 0.0455345)
(0.000558806 -0.000332286 0.142883)
(-0.00154099 -0.000522344 0.111759)
(0.000903058 -6.43994e-05 0.136437)
(0.000925876 0.00163877 0.0513298)
(-0.00182386 -0.0023829 0.0629073)
(0.000243173 0.000785429 0.120868)
(-0.000224849 -0.000178516 0.143804)
(0.000185858 0.000222191 0.143591)
(-0.00173415 0.00123809 0.0432548)
(-0.000444969 -0.00259244 0.028856)
(-0.0188456 0.000117956 0.106461)
(-0.00259221 0.00246724 0.0312549)
(0.000128539 0.00255785 0.136055)
(-0.00312446 -0.0010209 0.0336489)
(0.000535239 0.00266724 0.11644)
(-0.00108893 0.000459825 0.143167)
(0.000678637 0.00072487 0.149682)
(0.000319379 -0.00113165 0.053825)
(0.000627262 4.08376e-05 0.107019)
(-0.00211063 -0.000919798 0.0433261)
(-0.00393825 -0.000110755 0.0337383)
(0.000297127 -0.000500398 0.143437)
(-0.0027401 0.00149387 0.0240134)
(0.00151286 -0.00145409 0.141655)
(-1.34656e-05 -0.00236105 0.0579107)
(-0.000169931 6.77125e-05 0.143922)
(0.000270185 -0.000581279 0.139184)
(0.00328245 0.00154664 0.026008)
(0.000117306 -0.00313608 0.0682731)
(0.000789594 0.00123362 0.139567)
(0.000909625 0.000825208 0.0404069)
(0.000336085 -0.000887916 0.139904)
(-0.00097669 0.00331661 0.0642529)
(0.000212035 0.000352746 0.120502)
(0.000346988 0.00105749 0.144009)
(0.000887731 0.000468433 0.0437645)
(-0.00301403 -0.000778359 0.0282664)
(-0.00172151 0.000278108 0.0615747)
(-0.0177061 7.07018e-05 0.110888)
(-0.00119061 -7.26837e-05 0.115645)
(6.16269e-05 0.00369514 0.0648999)
(0.00232904 -0.00021456 0.0958849)
(0.000629891 0.00171611 0.0376392)
(0.000474512 0.00100457 0.143853)
(0.00161971 0.00127511 0.0276439)
(-0.00059183 0.00140851 0.148654)
(0.000982272 0.000805375 0.143529)
(0.000604366 0.000723314 0.143703)
(-0.00218167 -0.000314295 0.023124)
(0.00117655 0.00143902 0.14598)
(-0.000145695 0.000743456 0.0963105)
(3.87584e-05 0.00105976 0.146346)
(-0.00039314 -0.000397881 0.0642837)
(-0.0146162 0.000629874 0.108157)
(-0.00117373 0.00109295 0.147195)
(0.000278111 0.00121172 0.0494275)
(-0.000296803 -0.000522256 0.144217)
(-0.0203555 0.00215504 0.108804)
(1.25034e-05 -0.000241142 0.123465)
(-3.46727e-05 -0.00116547 0.0387602)
(-0.000838595 0.00208768 0.0620593)
(0.000227781 0.000250865 0.144075)
(-0.000403082 -0.00131038 0.134413)
(-0.000452648 -0.000340763 0.0395763)
(-0.000368515 -0.00121297 0.117793)
(0.00156885 0.00262124 0.0700425)
(-0.0019192 0.0016169 0.0309854)
(-1.00886e-06 -0.000191798 0.144967)
(-0.0099977 0.000514674 0.103375)
(-0.00114305 -0.00215319 0.13827)
(-9.67156e-06 -5.93937e-05 0.145045)
(0.000634015 -2.27304e-05 0.144883)
(0.00103938 0.000235821 0.143837)
(0.000904592 0.000425312 0.134852)
(0.000741489 -0.000290546 0.053424)
(-0.000985277 0.00164676 0.0459531)
(0.00144876 -7.19008e-05 0.149067)
(-0.0127612 -0.000391027 0.107568)
(0.000625666 0.00204831 0.128201)
(0.000574618 -0.000494881 0.135069)
(0.00161471 0.000374123 0.0917628)
(0.000241154 -0.000145513 0.14148)
(-0.000480667 -6.99312e-06 0.144394)
(-0.000305791 -0.00111875 0.108333)
(-0.000313357 0.00189678 0.116909)
(-0.000378817 0.00223218 0.0460108)
(-0.000165582 -0.000313932 0.082539)
(-0.00280321 -0.00150123 0.0504255)
(-0.000641249 -0.00119668 0.142396)
(-0.000911732 -0.00111457 0.145204)
(-0.000132129 0.00316693 0.108234)
(0.00148776 -0.00153608 0.108282)
(0.00148399 -0.00208406 0.0260472)
(9.01423e-05 -0.000590447 0.0884682)
(-0.0030093 -0.00187213 0.069712)
(-0.000757482 0.00030552 0.144345)
(0.000696795 0.00034622 0.145344)
(-0.0113071 -0.000495006 0.104784)
(-0.000574994 0.000992252 0.142599)
(-0.00220635 0.00243927 0.0918184)
(-0.00829247 0.000312957 0.101772)
(-0.000954196 -0.00178805 0.134708)
(0.00181947 0.000329034 0.0319015)
(0.000368531 0.00071571 0.145182)
(-6.07554e-05 0.00130484 0.0570661)
(-0.00138907 -0.000209223 0.134888)
(0.00392306 -0.00292187 0.0352716)
(0.00202549 0.000716421 0.14578)
(-0.00516702 -0.000157881 0.101635)
(0.000209353 0.000153756 0.143465)
(0.000631887 -0.00144781 0.126065)
(0.000172563 -0.000636306 0.138574)
(0.000431445 0.000662927 0.141343)
(0.0013049 0.000207437 0.143215)
(-2.84723e-05 0.00155366 0.0395622)
(3.46918e-05 -0.000964741 0.0566337)
(-0.000216989 0.000307426 0.0351574)
(0.000235841 0.00113238 0.143917)
(0.000645755 -0.000217713 0.141626)
(0.00209825 0.000417548 0.134591)
(0.000406903 0.000536584 0.146638)
(0.000969917 -0.000921003 0.0261207)
(0.000321771 -0.000293027 0.110071)
(0.00179356 -0.00168929 0.0984722)
(9.77804e-06 0.000525942 0.144828)
(-0.00156745 0.00194118 0.131001)
(-0.000730414 6.47767e-05 0.13812)
(-0.00107109 0.00110485 0.115218)
(0.00032422 0.00110969 0.143307)
(-0.00281445 0.00203674 0.0250598)
(-1.68332e-05 0.0022488 0.0957725)
(-8.03241e-05 0.00062443 0.139468)
(-0.000324385 0.00369226 0.033328)
(3.89221e-05 0.00247286 0.0519285)
(5.90756e-05 0.000208331 0.071928)
(-0.00257278 -0.00181726 0.0273635)
(0.000157739 0.000630981 0.105121)
(-0.00126715 0.000254242 0.142674)
(-0.000223245 0.0031973 0.0710166)
(0.0024943 0.00190601 0.0240976)
(-0.000255997 6.90047e-05 0.116962)
(0.000392848 -0.000182423 0.0318316)
(0.00017589 0.00112955 0.10897)
(-0.000554046 -5.17088e-05 0.143688)
(-8.14474e-05 -1.19529e-05 0.143628)
(0.000392333 0.000103743 0.144084)
(0.00146306 0.000719109 0.145529)
(-0.000189855 8.47154e-05 0.143392)
(-0.000641709 0.00106576 0.135943)
(0.00174453 -0.0014012 0.0561912)
(0.000872658 0.00020182 0.143216)
(0.000667971 -0.00128267 0.131492)
(-0.00145421 -9.26581e-05 0.0972589)
(-0.000224306 -0.00178283 0.104012)
(0.000270365 -1.72282e-05 0.143116)
(-9.95882e-05 0.000765314 0.12594)
(0.00258119 0.00256838 0.0791835)
(0.000823588 0.000361276 0.143711)
(7.32551e-05 -0.0012319 0.0398731)
(0.00130292 0.000249317 0.101002)
(-6.57001e-05 0.000483389 0.107166)
(-0.000988803 0.000175218 0.0717806)
(0.00040536 -8.11663e-05 0.143803)
(-0.017848 -0.000404162 0.10652)
(-0.00511115 -0.000435775 0.129081)
(-0.00052327 0.00240604 0.0412287)
(0.00277465 -0.000272332 0.0323646)
(-0.00136042 0.00162571 0.068111)
(0.00175249 -0.00062372 0.0258444)
(-0.000462754 0.000405909 0.131648)
(-0.000715968 0.00221212 0.137548)
(-0.000685406 0.000178497 0.132828)
(-0.0132263 0.0013519 0.113481)
(-0.000702904 0.00125374 0.129075)
(-0.000843809 0.00198385 0.134878)
(0.0047999 0.00375198 0.0296502)
(-0.00037315 0.00153992 0.138057)
(-0.0104828 0.00102732 0.125688)
(-0.00131101 8.22534e-06 0.0529707)
(0.00262203 0.00250811 0.027752)
(-0.000151499 -0.00225617 0.121516)
(-0.000310119 -0.00105057 0.121459)
(-0.00341957 -0.00191907 0.033213)
(-0.000124182 0.00180561 0.147829)
(0.00257807 -0.00296727 0.0286242)