/*--------------------------------*- C++ -*----------------------------------*\
| =========                 |                                                 |
| \\      /  F ield         | OpenFOAM: The Open Source CFD Toolbox           |
|  \\    /   O peration     | Version:  2406                                  |
|   \\  /    A nd           | Website:  www.openfoam.com                      |
|    \\/     M anipulation  |                                                 |
\*---------------------------------------------------------------------------*/
FoamFile
{
    version     2.0;
    format      ascii;
    arch        "LSB;label=32;scalar=64";
    class       volScalarField;
    location    "20";
    object      nut;
}
// * * * * * * * * * * * * * * * * * * * * * * * * * * * * * * * * * * * * * //

dimensions      [0 2 -1 0 0 0 0];

internalField   nonuniform List<scalar> 
59516
(
9.77488e-05
0.000129739
0.000148321
0.000296904
0.00130685
0.000186277
0.000229883
0.000109943
0.000120178
0.000130346
0.00137788
0.000101684
0.000124635
0.000182602
0.000124138
0.000104021
0.00110462
0.000116095
0.000127926
0.000792251
0.000175184
0.000394562
0.000518512
0.000165123
0.000527292
0.000120678
0.000159655
0.0001872
0.000127395
0.00016163
0.000250638
0.000180049
0.000281948
0.000171328
0.000378367
0.000323647
0.000154794
0.000106451
8.82537e-05
0.000578292
0.00010919
0.00060187
0.000438602
0.000144709
0.000349373
0.000105856
0.000207819
0.0010441
0.000943944
0.000738805
0.00062865
0.000158197
0.00013666
0.000161465
0.000190233
0.000215908
0.000816689
0.000176717
0.0011541
0.000310275
0.00050378
0.000174773
0.000995716
0.00100639
0.000208381
0.000542458
0.000225609
0.00015667
0.000471168
0.000260951
0.000249249
0.000897544
0.000197292
0.000382379
0.0012252
0.00073833
0.00106188
0.000436769
0.000157275
0.000795332
0.000153516
0.000607201
0.000389277
0.000181161
0.000577843
0.00110739
0.000151949
0.000380939
0.000109689
9.80967e-05
0.0008964
0.000381592
0.00104149
0.000357728
0.000824488
0.00120092
0.000417329
0.00010594
0.000111504
0.000473886
0.000177216
0.000200882
0.000197928
0.000104567
0.000280466
0.000545094
0.000169445
0.000115278
0.000121624
0.000124917
0.000331688
0.000220428
0.00012961
0.000198539
0.000643398
0.000104873
0.000107979
0.000297332
0.000184179
0.00040127
0.00152392
0.000969534
0.000650886
0.000978246
0.000399928
8.05103e-05
0.000220939
0.000346406
0.000283874
0.00123501
0.00149907
0.000127111
0.000176886
0.000398263
0.000102341
0.000126893
0.000144792
0.00018366
0.000166117
0.000122654
0.000162045
0.0014173
0.000156863
0.000220717
0.00127975
0.000362531
0.000302793
0.000152326
0.00025227
0.000120086
0.000107958
0.00014968
0.00079888
0.000526323
8.63347e-05
0.000172229
0.000176333
0.000123077
7.74514e-05
0.000174796
0.000142695
0.000139684
0.000158994
0.000206517
0.000102765
0.000945872
0.000113408
0.00123088
0.000165138
0.000383416
8.18617e-05
9.63059e-05
0.000101817
0.000352767
0.000141216
0.000232236
0.00102183
0.000507754
0.000129291
0.000135906
0.000395305
0.000149153
0.000230314
9.69011e-05
0.00135094
0.000100617
0.000132086
0.000169434
0.00014234
0.00010826
0.000317232
0.000101396
0.000780841
8.04534e-05
0.000490795
0.000127724
0.000104294
0.000136888
0.00018205
0.000437563
0.000115366
0.00152511
9.6236e-05
0.000161272
0.000219506
0.000347428
0.00129206
0.000711433
0.000175544
0.000160162
0.000114731
0.000203062
0.000400561
0.000115487
0.000158077
0.000964685
0.000319433
0.000545925
0.000114631
0.000617032
0.00011829
0.000143427
0.000959948
0.000181614
0.00109342
0.00107381
0.000211233
0.000156892
0.00103405
0.000107921
0.00105585
0.0010499
0.00154489
0.000191673
0.000148983
0.000133445
9.54453e-05
0.00010587
0.000676306
0.000124062
0.00145015
0.000185667
0.000100356
0.00020788
0.00138605
7.35816e-05
0.000474231
0.000125596
0.000912777
0.000107774
0.000782151
0.000361096
0.00158189
0.000432844
0.000414058
0.000638205
0.000111619
0.000583373
0.000155677
0.000126842
0.000231126
0.000788038
0.000149283
0.00108795
0.000107919
9.11606e-05
0.000713235
8.62189e-05
0.00020322
9.13496e-05
0.000115579
0.00114025
8.3873e-05
9.56835e-05
0.000879486
7.85457e-05
0.000169559
0.0007308
0.000192697
0.000157407
0.00146231
0.000326422
0.000210566
0.000167687
0.000195068
0.0010617
0.00137963
0.000213866
0.00141047
0.00165725
0.00121385
0.00027829
0.000347426
9.54655e-05
0.000930503
0.000229743
0.000758762
0.000328907
0.0015784
0.00106137
0.000122015
9.49503e-05
0.000183352
0.000197579
0.000656294
0.000180907
0.000162506
0.000118568
0.000883384
0.000892124
0.000469618
0.000103297
0.000120198
0.000171098
0.000103329
0.000800517
9.45649e-05
0.00114192
0.000105576
0.000142674
0.000135376
0.000132645
0.00126969
0.00144595
0.0016033
0.000640213
0.000110155
0.000248957
0.000965622
0.000739104
0.000713694
0.000104812
0.000193515
0.000512761
0.000150781
0.000154154
0.000829753
0.000424822
0.000103589
0.0011399
0.000867399
0.00147954
0.00113193
0.000140046
0.000605185
0.00136533
0.000105535
0.00137289
0.00122639
0.000273002
0.000235662
0.000579547
0.000386184
7.35463e-05
0.00015732
0.000162993
0.000104198
0.000157139
0.000269235
8.29779e-05
0.000166232
0.000229832
0.00141506
0.000519522
0.000221691
0.000521477
0.00054341
0.000163619
0.000302761
0.00011685
0.000145155
0.000159863
0.000801596
9.91362e-05
0.000741908
0.000168678
0.000248601
0.000160806
0.000920638
8.69015e-05
0.000109782
0.000100936
0.00141559
0.000193283
0.000108941
0.000325756
0.00018414
0.000254366
0.00015783
0.000262651
0.000114712
0.00010688
0.000693778
0.000138129
0.00151275
0.000144309
0.000120169
0.000119834
0.00127663
0.00120606
9.35384e-05
0.000200649
0.000106155
0.00133963
0.00128318
0.000171022
0.000254955
0.0004092
0.000435195
0.000640264
0.000194531
0.000184502
0.000204165
0.00119044
0.00144823
0.000156907
0.00109003
9.18325e-05
0.00125762
0.00119421
0.00132526
0.00117464
0.00106268
8.76464e-05
0.00142747
0.000112338
0.000918864
0.000133289
0.000619244
0.00120542
0.000382665
0.000396494
0.000142164
0.000156235
0.000173589
0.00106338
0.00150619
0.000363761
0.00019503
0.000137682
0.000186288
0.000165462
0.000582622
0.00128753
0.000577038
0.000266366
0.00148834
0.000256151
0.000207358
0.000178871
0.000111025
0.000259786
0.000640461
9.26428e-05
0.000386748
0.000185339
0.00128621
0.00131763
0.00142466
7.71391e-05
0.000654715
0.00110467
0.000253927
0.00147838
0.000100206
0.00104283
0.000457734
0.00017397
0.00137413
0.000168805
0.000162874
7.61271e-05
0.000950789
0.00022779
8.32853e-05
0.000177445
0.00112601
0.000184185
0.000680701
0.00020956
0.000139181
0.000357842
0.000201141
0.000836326
0.000791383
0.0010297
0.000180643
0.000126369
9.45761e-05
0.000118033
0.00160965
0.00127311
0.000203139
0.000831231
0.00160276
0.000180137
0.000117297
0.000100908
0.000592271
0.00140782
0.000234327
0.000100316
9.48519e-05
0.000148067
0.00147528
0.000193439
0.000575361
0.000608973
0.00127754
0.000233397
0.000848827
0.000178418
0.000807578
0.000182056
9.42034e-05
0.000628373
0.000105431
0.000185671
0.000172196
0.000163114
0.000112371
0.000355595
0.000104482
0.000102096
0.000656391
0.00109849
0.000203797
0.000105111
0.000130383
0.00102518
0.000105351
0.00103734
0.000115515
0.000250483
0.00137273
0.000135689
0.00111843
0.000172339
0.000169699
0.000407591
0.00139254
0.00026474
0.00020268
0.00116437
0.000136752
0.000829367
0.000102582
0.00126364
0.000213107
0.000203516
0.000487218
0.000175155
0.000203803
0.000373917
0.000141171
0.000308848
0.00137768
0.000230605
9.54202e-05
0.0011916
8.80784e-05
0.00151601
0.00124533
0.00131312
0.00138857
0.000150365
0.000114024
0.00126499
0.000778241
0.000163691
0.000770361
0.00124211
0.00108042
0.00124011
0.000128057
0.000175141
0.00112559
0.000136241
0.000655209
9.7009e-05
0.000209435
0.00145102
0.00010149
0.000268919
0.00132551
0.000362042
0.000142729
0.000186045
0.00127592
0.000969363
0.00151671
0.000603037
8.0294e-05
0.000488947
0.00114102
0.000170392
0.00146509
0.000367287
0.000171433
0.000103213
0.000309427
0.000372533
0.000291746
0.000170269
0.000106091
0.00145154
0.000115212
0.00107974
0.00102768
0.00144422
0.00117559
0.000180288
0.000726824
0.000152699
0.000209825
0.000107102
0.000856764
0.000279974
0.000194577
0.00114842
0.00102927
0.000523882
0.00106005
0.000151861
0.00148525
0.000769891
0.0013215
0.00013322
0.000395697
0.00118648
0.000134316
0.000140634
8.86014e-05
0.000192062
0.000202421
0.000222489
0.000232444
0.000368336
0.000194582
0.000186692
0.00169666
0.000219055
0.000157422
0.000410018
0.000114102
0.000252478
0.000176711
0.000103486
0.000135876
0.00105723
0.00047556
0.00015424
0.000181165
0.000392076
0.000215796
0.000272382
0.000205955
0.000125487
0.00137508
0.00105713
0.000151016
0.000110744
0.000135963
0.000211403
0.00127283
0.000166126
0.000927572
0.000182485
0.000603057
0.00037568
0.000177179
0.000103811
0.00048144
0.000152577
0.000858834
0.000109627
0.000103022
0.00144401
0.000146536
0.000183716
0.000160764
0.000685785
0.000109096
0.00010214
6.14561e-05
0.000138347
0.00145552
0.000193977
0.000806141
0.000330832
0.000990457
0.000169033
0.000364362
8.35108e-05
0.000604247
0.000119551
0.000909989
0.00061009
0.000133183
0.00157121
0.000495876
0.000161416
0.000146593
0.000184539
0.00137858
0.000208334
0.00015005
0.000119314
0.000106159
0.000193619
0.00127542
0.00125694
0.0002037
0.00107827
0.00119994
0.000983033
0.000247714
0.000154499
0.000155096
0.00124656
0.0010165
0.000131665
0.000237176
7.49951e-05
0.000372306
0.000848705
0.000105447
9.59159e-05
0.000195058
0.000139165
0.000174932
0.000552035
0.00109236
8.33341e-05
9.40211e-05
0.000164313
8.22004e-05
0.000116193
0.00123794
0.00125729
0.00119738
0.00080997
7.40753e-05
0.000840112
0.00029554
0.00021262
0.00127619
9.87522e-05
0.000309644
0.000216553
0.00106685
0.0013538
0.000653286
0.0001331
0.000503997
0.000411531
0.00149979
0.000163659
0.00018774
0.00012916
0.00124332
0.000630143
0.000316614
0.000610196
0.000159127
0.000120543
0.000101739
0.00118444
0.000223065
0.000469394
0.000136305
0.00145814
0.000180487
8.25521e-05
0.000669782
0.000211443
0.000137173
0.000113084
0.000183299
0.000124142
0.000986635
0.000109158
0.000169563
0.000111192
0.000191005
9.45133e-05
0.00117044
0.00164064
0.00111316
0.000747136
0.00121796
0.000187119
0.000139603
0.00110133
0.000220359
7.91301e-05
0.000134667
0.000858312
0.000121509
0.00010344
0.000504096
0.000157145
7.96484e-05
0.000108346
0.000121145
0.000588811
0.000274822
0.000201682
0.000149176
0.000215884
0.000100536
0.000174319
0.000177919
0.000665888
0.000224438
0.00012842
0.000330385
0.000553661
0.000190884
0.000714598
0.000896091
0.000135705
0.000190792
0.000149052
0.000108268
0.000192386
0.00071372
0.000185016
0.00123233
0.000656499
0.00022937
0.000562856
0.000655107
0.000113915
0.00140132
0.000166349
0.00015542
0.000111542
0.000110877
0.000165472
0.000437499
0.000528198
0.00113329
0.00100452
8.28612e-05
0.000638978
0.00152821
0.000102699
0.000176733
0.000987309
9.56265e-05
0.000179065
0.000797325
0.00129141
0.000582926
9.15457e-05
0.000210488
0.000104913
8.99223e-05
0.000111035
0.000106128
0.000213578
9.12427e-05
0.00076872
0.00120921
0.00165125
0.000281809
0.000137903
0.000211815
0.000172924
0.000150787
0.000200291
0.000319143
0.00025631
0.00139485
0.00044064
0.00148748
0.00130781
0.000226138
0.000172742
0.0011386
0.000182076
0.000325071
0.000559668
0.000147376
0.000590175
0.00129708
0.00011244
0.00117866
0.00153947
0.00110079
0.000113633
0.00145871
0.00017381
0.00010579
0.00111844
0.000199166
0.00010988
9.82444e-05
0.000176219
0.000135967
0.000564413
0.00108057
0.00109931
0.000595367
9.23024e-05
0.000188556
0.000604518
0.000766043
0.000165636
0.0001006
0.000612033
0.00133714
0.00126584
0.000177645
0.00134145
9.43524e-05
0.000108137
0.000177494
0.000103925
7.48967e-05
0.00121803
0.000126671
0.000986144
0.00101054
0.000970711
0.00145005
0.0010551
0.00112801
0.00108238
0.00147529
0.00148644
0.00025283
0.000196261
0.00016617
0.000105765
0.000793204
0.000190598
0.000166539
0.000905089
0.000117892
0.00162767
0.00163463
0.0014569
0.000488914
9.1969e-05
0.00128936
0.000296652
9.00379e-05
0.00141896
0.000173855
0.00134979
0.000151017
7.37264e-05
0.000858526
0.000107277
0.000157786
0.000916956
0.000713234
0.000446133
0.000141825
0.0011995
0.000145003
9.36812e-05
0.000103552
9.61109e-05
9.99637e-05
0.00154506
0.000111674
0.000568736
0.000859882
0.000142134
0.00143334
0.00154175
0.000137862
0.00141029
0.00118684
0.000118067
0.00147263
0.00015835
0.000152322
0.0011556
0.000735255
0.000236886
0.00127436
0.000125655
6.69767e-05
0.00105137
0.00019492
0.000887897
0.00120663
0.000133432
0.000208327
0.000199495
0.00011255
0.000157107
0.000280497
0.000220571
0.000111773
0.000166641
0.000112009
0.000953688
0.000753989
0.00158319
0.00133532
0.000105448
0.000706781
0.00126423
0.000124976
0.000392178
0.000155385
0.000170468
0.000655904
0.00154329
0.000101892
0.000729861
8.6078e-05
0.000143332
0.00017717
0.00018492
9.09697e-05
0.000157466
0.000194816
0.000174171
0.000732884
0.000110983
0.00132055
0.000196263
0.00149083
0.000108994
9.16201e-05
9.56543e-05
0.000348513
0.000179423
0.000802231
0.000544547
9.12747e-05
0.00020963
0.000180768
0.00156231
0.000475464
0.00125204
0.000127562
8.79363e-05
0.000488703
0.000129007
0.000142797
0.00133844
0.000427832
0.000105819
0.000327101
0.000204481
8.84805e-05
0.000540024
0.00145245
0.000160126
0.000538881
0.000171969
0.000203873
0.000827036
0.000674449
0.00141452
0.000465328
0.000114144
0.000211697
0.000854222
0.000375185
0.000202794
0.000148265
0.000157575
0.000938621
9.95207e-05
0.00078761
9.96073e-05
0.00106564
0.00018716
0.000275284
0.000168676
0.000796159
0.0014459
0.000261193
0.000363344
0.000142232
0.000151853
0.000536892
0.000286417
0.000185499
0.000224841
0.000884847
0.000424984
0.000775617
0.00010871
0.00033114
0.000739686
0.00107447
0.000122694
0.000119636
9.9278e-05
0.00041342
7.61593e-05
0.000150901
0.000208116
0.00115979
0.000122624
8.47255e-05
0.00086507
0.000800699
0.000121428
0.000907497
0.0012394
0.000180949
0.000205616
0.00113091
0.00130839
0.0001568
0.000157333
0.00124242
0.000122206
0.000212289
7.43166e-05
0.00130477
0.00095837
0.00123271
0.000354802
0.000799157
0.000184312
0.000130313
0.00132277
0.00106244
9.50989e-05
0.000661503
9.67796e-05
0.000103551
0.00016071
0.000516259
0.000209754
0.000470589
0.000294693
8.84785e-05
0.000129876
0.000183724
0.00149199
0.00136172
0.000151988
0.00120366
0.000122513
0.000489582
0.000176258
0.000131742
0.000242476
0.000108743
0.000392897
9.56892e-05
8.99174e-05
9.73369e-05
0.000141582
0.000405528
9.37388e-05
0.000576248
0.000997181
0.000144314
0.000108181
0.000214281
0.000809073
0.000149661
0.000184432
0.000203417
0.000103494
0.000176852
0.00043554
0.000106667
0.000151027
0.00017341
0.000273878
0.0012462
0.000257182
0.000255811
9.14115e-05
0.00012041
0.000149436
0.000152091
0.000176429
0.00132991
9.47037e-05
0.000382342
0.000128357
0.000110175
0.00026401
0.000237291
0.000167908
0.0001702
0.000844522
0.000132391
0.000178404
0.00139667
9.09229e-05
0.000225613
8.32594e-05
7.87135e-05
0.00012945
0.000455967
0.000178015
0.00148447
0.00161639
0.000249812
8.08027e-05
0.000144853
0.000719607
0.00016547
0.000901568
0.000885707
0.00115552
0.000120041
0.000771083
0.000835912
0.000681434
0.000788637
0.000137055
0.000170846
0.0010013
0.000113114
0.000114546
0.00153197
0.000222518
0.000267962
9.5332e-05
0.000219313
0.00020649
0.000102731
0.000713743
0.00100268
0.000229517
0.000173253
0.000142387
0.000452528
0.000191385
0.000123872
0.00155472
0.000785917
0.000882185
0.00111931
0.00135651
0.000780073
0.000383107
0.00018269
0.00017843
0.000131753
6.60263e-05
8.98277e-05
0.00145771
0.000260594
0.000164201
9.81456e-05
0.00104551
9.56353e-05
0.000385692
0.000100376
0.000917114
0.000482663
0.000132406
0.00120573
0.000935078
0.000754691
0.000148645
0.000224198
0.00122187
0.00146561
0.000179932
8.49144e-05
0.000238693
0.00122942
0.000336039
0.000167508
0.000122175
0.000367093
8.24449e-05
0.00109267
0.000148865
0.000195937
0.000186893
0.000185985
7.3302e-05
0.000178769
0.00060276
0.000420266
0.00117906
0.000192562
0.000114472
6.63474e-05
0.000465664
8.95134e-05
0.000109824
8.44028e-05
0.0013815
0.000164892
0.00143462
0.000426386
0.000118463
0.000114797
0.00020997
0.000759086
0.0012878
0.000348067
0.000200599
9.35057e-05
0.000112804
8.95929e-05
0.000176816
0.000140804
0.00020644
9.97671e-05
0.00160811
0.000139799
0.000142387
9.74774e-05
0.0002061
0.000704205
0.000206393
0.00094277
0.00164258
0.000360564
0.000117778
0.0013094
0.000146294
0.000126247
0.00138042
0.000836749
0.000174719
0.00174409
0.000936333
0.00018665
0.000224429
0.000676662
0.00128759
9.85316e-05
0.000632552
0.00122293
0.000136136
9.8325e-05
0.000144235
0.000136355
0.00143664
0.000155707
8.6963e-05
0.000694736
0.00015798
0.000224805
0.000109777
0.000107922
0.000133171
0.000187815
8.69477e-05
0.000164446
0.000162454
0.000156097
0.000187659
0.00011394
7.01326e-05
0.00138663
0.000171739
0.00116041
0.000220388
0.000459082
0.000128891
0.000725036
0.000149299
0.000717913
0.00143301
0.000102159
0.0015893
0.000224384
0.000161763
0.000198451
7.86762e-05
0.000231129
0.000142421
0.000288433
9.32401e-05
0.000171508
0.000517952
0.000371537
0.00141621
0.000905122
0.000163101
0.000132261
9.99177e-05
0.000539449
0.000318992
0.000306463
0.0010768
8.76873e-05
0.000604211
0.000262472
0.000642114
0.000103139
0.000127273
0.000161085
9.95269e-05
0.00147122
0.000308695
0.000220167
0.000290152
0.000229177
0.000233311
0.000115084
0.000315402
0.000363534
0.0012767
0.000599747
0.000167254
7.52154e-05
0.000117717
0.000195506
0.00020699
0.000237347
0.000110071
0.000236981
0.000703294
0.000178431
0.000187806
0.000140922
0.000182224
0.00150497
9.87075e-05
0.000914241
0.000213677
0.0010794
0.000161463
0.000178782
0.000176786
0.000509531
0.000200286
0.000257287
0.000106238
0.000151177
0.00129789
0.000528204
0.00131402
9.66585e-05
9.6718e-05
0.00010672
0.000178282
0.000131452
0.00011507
0.000138646
0.000114103
0.00114905
0.000147627
0.000110579
7.67396e-05
0.00041316
0.000620392
9.79567e-05
0.000232951
0.000174474
0.000140861
0.000512504
0.000175212
7.55788e-05
0.000104554
0.000159027
0.000108882
0.000464477
8.27151e-05
0.000115266
0.000925258
0.000124289
0.000897826
0.0001912
0.000151139
0.000219765
8.42676e-05
0.000493446
0.000154874
9.69633e-05
0.000164034
0.000313229
0.000194993
0.000469116
8.73051e-05
0.000175887
0.000104401
0.00012409
0.000185377
0.000104343
0.000121084
0.000190491
0.000135204
0.000162174
8.62759e-05
0.00126432
0.000116139
0.000468689
0.000678982
0.000153651
0.000196038
0.000165908
0.000212074
0.000609243
0.000942084
9.15005e-05
0.000522382
0.000100309
0.000163305
0.000194658
0.000126862
0.000139277
0.00149682
0.000161454
0.000790804
0.00019242
8.7274e-05
0.000265649
0.000146501
0.000984161
0.000185221
0.000643334
0.000184278
0.000373192
0.000191409
0.000150709
0.000185704
0.00136847
0.0012237
0.000154942
0.000111746
0.00014012
0.00017384
0.00012433
0.000167045
8.96365e-05
0.000483956
9.40005e-05
0.00121353
0.000131364
0.000291424
0.000160882
0.00130427
0.000217162
0.000106593
0.00112918
0.0012837
0.000265594
0.000229064
0.000154848
0.00163248
0.00162483
0.000526691
0.000390067
0.000663076
0.000156452
0.000221097
0.000449473
0.000251669
0.000119619
0.000202429
0.00119247
0.000324059
0.00101428
0.00166514
9.67639e-05
0.000530889
0.000148598
0.000719573
0.000108134
0.000316309
0.000559489
0.000903896
0.00117642
0.000153418
0.00160043
0.000110261
0.000200112
0.000222905
0.000177426
0.000604466
0.000186362
0.000172606
9.46074e-05
0.000111278
0.000236572
0.000121831
0.00020625
0.000342685
0.00011426
0.00116626
0.00011763
0.000174802
9.00223e-05
0.000168477
0.000123456
0.00064064
9.47846e-05
0.000575431
0.00120378
0.000714231
0.000843149
0.00116553
0.000649139
0.00119189
0.000342472
0.000226164
0.00019323
0.000291087
0.000210439
0.000124263
0.000152315
7.60956e-05
0.00138858
0.000184779
0.000164841
0.00149606
8.99179e-05
9.42582e-05
0.000170823
0.000191028
0.00136379
8.51401e-05
0.000113955
0.00015889
0.000209062
0.000136582
8.41525e-05
0.000400007
0.000167739
0.000187065
0.00116555
0.000194852
0.00104906
0.000124056
0.00018907
0.00163374
9.97406e-05
0.00149551
0.000742888
0.000149785
0.000469753
0.000854709
0.000164812
0.000231685
0.00153476
0.000121492
0.00018764
0.000500087
0.00017354
0.000205351
0.000115623
0.00124543
0.00155431
0.000427942
0.00103568
0.000407838
0.00116526
0.000133561
0.000112337
0.00115916
0.00046022
0.000163368
0.000157833
0.000152836
0.000910474
0.000158566
0.000181842
0.000199087
0.000391021
0.000214732
0.000469027
0.000860802
0.00136022
0.000156976
0.000138165
0.00112078
0.000154347
0.000547021
0.00029418
9.98587e-05
0.000223467
0.00106722
0.000214759
0.000180429
0.000142378
0.000153133
0.000871019
0.00150226
0.000462758
0.000122007
8.56582e-05
0.000101882
0.000954639
0.00071332
0.000100339
0.00136854
0.000839228
0.000786496
0.000127201
0.000207362
0.000215138
9.64408e-05
0.000161952
0.000672794
0.000322394
0.00116877
0.000178101
7.24761e-05
0.000126902
0.000171736
0.000515285
0.000175737
0.000102128
0.00105036
0.000779292
0.0014555
0.000140861
0.000115811
9.59625e-05
0.0013867
0.000762668
0.000833491
0.00111489
0.000154352
0.00033298
0.000136024
0.00150082
0.000911373
0.000918003
0.000772009
0.0015318
0.000180501
0.000141183
0.000132841
0.00151736
0.000379519
0.000135822
0.00116743
9.64394e-05
0.00015285
0.000313703
8.10843e-05
0.000120898
9.97842e-05
0.000163977
0.000549382
0.000273482
0.000103336
0.000179757
0.000166254
0.000592206
0.00124361
0.000209067
0.000157007
0.00020877
0.000780255
0.00022981
0.00019685
0.000174386
0.000118494
9.65598e-05
0.000210422
0.000200499
0.000205577
8.14443e-05
0.00087526
0.000376078
0.000731044
0.000222839
0.000182036
0.000604005
0.000162242
0.000156954
0.000166321
0.000220568
0.000110282
0.000228053
0.000630316
0.000460103
0.0014261
0.000437839
0.000138174
6.9676e-05
0.000564517
0.00140206
0.000382147
0.000699556
0.00111432
0.000103849
0.000114146
0.000493418
0.000835529
0.000146389
0.000181628
0.000120762
0.00014585
0.000124697
0.00117919
9.37238e-05
0.000135382
0.00020409
8.2697e-05
0.00156614
0.00142276
0.000719955
0.000163097
9.80209e-05
0.000102217
8.88726e-05
0.000924123
0.000136809
0.000180032
0.00113036
0.00049167
0.00061235
0.000792545
0.000113627
9.28074e-05
0.000396234
0.000112904
0.000170752
0.000377073
0.000248692
0.0012772
7.24465e-05
0.00029347
0.000171924
0.000119113
0.000207168
8.15644e-05
0.000166939
0.00011162
8.71656e-05
0.000389776
0.000128948
9.93036e-05
0.000172681
0.000134909
0.00125379
0.00102478
0.000162668
0.000157629
0.000110765
0.000186834
0.000174168
0.00117471
0.0014549
0.000187067
0.000160899
9.97082e-05
0.00147241
0.00132233
0.00038988
8.60205e-05
0.000605676
0.000292223
9.80148e-05
0.000151112
0.0013413
0.000308777
0.000322978
0.000173883
0.000388653
0.000990178
0.00010267
0.000194358
0.000138929
0.000809853
0.000737875
0.00109587
0.000158508
0.00111841
0.000193718
0.000525022
0.000526786
0.000850091
0.00077752
9.88168e-05
0.000205558
0.000106589
0.00146616
0.0011778
0.000247728
0.000852752
0.000159973
0.000111361
0.000725431
0.00107817
0.000126023
0.000250964
0.00022506
0.000106023
0.00093151
0.00113841
0.000909686
0.00110586
0.00047043
0.000388847
7.69566e-05
0.00104847
0.001083
0.000421684
0.000106051
0.000199448
0.000174733
7.66517e-05
0.000107545
0.00117098
0.0012595
0.000203585
0.000149926
0.000258907
0.000288032
9.99644e-05
0.000733351
0.000307624
0.000275801
0.00142798
9.66723e-05
0.00021385
0.000150117
0.000138978
0.000321977
0.000179117
0.000162647
0.00050532
0.000283084
0.000613977
0.00128366
0.000145638
0.000882685
9.79624e-05
0.000973316
7.17177e-05
0.0010133
0.000168029
9.71792e-05
0.000146284
0.000182959
0.000151808
0.000159024
0.000162445
0.00033764
0.000176057
0.00116355
0.000710989
0.00111124
8.68466e-05
0.000106756
0.000181898
0.000258743
0.000135684
9.37944e-05
0.000535138
0.000673995
0.00109964
0.000470799
0.000582015
0.00140081
0.000634122
0.000674466
0.000615685
0.000170514
0.000135884
0.00148659
0.00135793
0.000115162
0.00041042
0.000859757
0.00104704
0.000170428
0.000322057
0.000193014
0.0013718
0.00020379
0.000133664
0.000176543
0.000229314
0.000347887
0.000141076
0.000176896
0.000916793
0.000210467
0.00018043
0.000461496
0.000114415
8.69636e-05
0.000214086
0.000622059
0.000180364
0.000106595
0.000150221
0.00110088
0.000868803
0.000103253
0.000481801
9.33455e-05
0.000106064
0.00124196
0.000201083
0.000315193
0.000655284
0.0012392
0.000619485
0.00118215
0.00112862
0.000148134
0.00151935
0.000450704
0.00115137
0.000137053
0.000123209
0.00126017
9.02868e-05
0.000668584
0.000435479
0.000662003
0.00050207
0.00137408
0.000374612
0.000164214
0.000771995
0.00135964
9.60448e-05
0.00015333
0.00143189
0.00020043
0.000670507
0.00111088
9.79102e-05
0.000197189
0.000172329
0.000117812
0.00101534
0.000612833
0.000100048
0.00010452
0.000108198
0.00019363
0.000156592
0.000149568
0.000233769
0.000287312
0.000963815
0.00139743
0.000295198
0.000410078
0.000406842
0.000149316
0.000125549
0.00119587
0.00134979
0.00156177
0.00163687
0.000149525
0.000176274
0.000185067
0.000104551
0.000692693
0.00124858
0.00132481
9.77756e-05
0.000524144
0.000982933
0.000186345
0.00158782
0.000827323
0.00110102
0.00136505
0.000133082
0.000124752
0.000129837
0.000158543
0.000661087
0.000379052
0.000123647
0.000506009
8.89275e-05
9.34068e-05
9.79257e-05
0.00141442
8.12546e-05
0.00022456
0.00113821
0.000187126
0.000157393
0.00103164
0.00145545
0.000105931
0.000175068
8.58598e-05
0.000181777
0.00123413
0.000214189
0.000153753
0.00143346
0.00131365
0.000910338
0.000210275
0.000957599
0.000621486
0.000817457
0.000383438
0.000100396
0.000471592
0.000116558
8.86823e-05
0.000100843
0.00120745
0.000151379
0.000958853
0.000337063
9.62992e-05
0.000122953
0.000176604
0.000133154
0.000170776
0.000104562
0.000392427
0.000473367
0.00102493
0.000561568
0.000147109
0.000188665
0.00088947
6.73138e-05
0.000146268
0.000193383
0.000158421
0.00106656
0.000265563
0.000674009
0.000145706
0.000880269
0.00016237
0.00065122
0.000140102
0.00108242
0.000160959
0.000146664
0.000117268
0.000224563
0.000166065
0.00149204
0.000158828
0.00129592
0.000486127
0.000122683
7.27869e-05
9.1937e-05
0.00015
0.000148271
0.000161843
0.000110671
0.00135209
0.00010266
0.000594707
9.74386e-05
0.000150061
9.32351e-05
0.00014172
0.000183916
0.000180922
0.000405259
0.000125307
0.00111354
0.000116401
0.00138728
0.000193644
0.000132154
9.11052e-05
0.000601469
0.000788773
0.000183433
0.000246337
0.000780661
0.000698216
0.000343437
0.000217713
0.00097009
0.000658153
0.000936583
0.000307269
0.000225776
8.69203e-05
0.000100733
0.000560106
0.000146805
9.36705e-05
0.000423333
8.90723e-05
0.000102949
0.000163276
0.000159732
0.000129536
0.00119641
0.000241431
0.000711691
0.000370543
0.000846468
0.000255912
0.00144354
0.000106857
0.000104863
0.000463719
0.000881166
0.000304136
0.00047621
0.000794514
0.000587712
0.000376164
0.000154009
0.000464797
0.00155657
0.00018411
0.000175123
0.000200831
0.00026027
0.000102888
0.000156104
0.000553615
0.000138007
0.000201052
0.000163751
0.000153128
0.000147743
0.000987151
0.000184363
0.0012441
0.000205425
0.000114995
0.000816151
0.00138415
0.000798237
0.000185586
0.000308233
0.000114723
0.000118667
0.000596682
0.0001804
0.000137975
0.000331405
0.000225196
0.00129911
0.000176127
0.000195658
9.55662e-05
0.00156763
0.00150226
0.000715455
0.000159049
0.000164631
0.000159246
0.000507073
9.89614e-05
0.000139868
0.000133653
9.22433e-05
0.000185523
0.000100906
0.000215012
0.000183484
0.00037627
0.00131818
0.000649382
0.000198676
0.0001143
0.000121929
0.00131498
0.000567456
0.000186451
0.000754432
9.96335e-05
0.000123447
0.000146578
0.000393654
0.000107033
0.00152309
0.00131567
0.00010407
0.000165995
0.000932861
0.00071361
0.00117189
9.61921e-05
0.000314322
0.000215424
0.00024634
0.000155111
0.00112524
0.00015912
0.000121367
0.000186591
0.000170805
0.000426275
9.56251e-05
0.000144678
0.000149278
0.000388716
0.000625041
0.00129402
9.45966e-05
0.000276417
0.000799853
0.000148165
0.000163497
0.000584623
0.00119248
0.00116752
0.000205301
0.000517681
0.000151163
0.000119655
0.00019956
0.00119645
0.00104496
9.98442e-05
0.000530966
0.000197144
0.000130606
0.000208241
0.000176985
0.000643107
0.000767199
0.000445509
0.000163905
0.00110969
0.000150062
0.00138287
0.000100973
0.000176479
0.00102373
0.000799933
0.000101578
0.000394197
0.000841304
0.000886935
0.00117906
0.000112235
0.000198647
0.00095763
0.000405591
0.000329837
0.000716102
0.000103861
0.000278711
0.000114879
0.000102765
0.000531631
0.00162457
8.92004e-05
0.000604984
0.000217729
0.000153169
0.000126195
0.00101772
0.000633088
0.000150111
0.000163427
8.51919e-05
0.000403825
0.000422165
0.000189307
9.05585e-05
0.000768505
0.000993168
0.000591601
0.000389842
0.00012443
0.00153952
0.000354638
0.000842512
8.96641e-05
0.000207831
0.000204027
0.000171372
0.00011636
0.000500619
0.00064317
0.00105018
0.000725677
0.00126199
0.000792818
0.000584774
0.00104903
0.000116631
0.000695852
0.000762836
9.29964e-05
0.00078147
8.9193e-05
0.000176275
0.000149218
0.000306399
0.000258363
0.000183098
0.000237532
9.30756e-05
0.000179551
0.000350137
0.000667812
0.000428201
0.000138769
0.000122059
0.000810593
9.51848e-05
0.000215092
0.000360247
0.000155177
0.000168685
0.000458803
0.000304054
0.000262712
9.37857e-05
0.000145731
0.000203398
0.000268195
0.00135187
0.000176372
0.000598874
0.000824455
0.000156753
0.00157491
8.44055e-05
0.00116429
0.000174124
0.000159279
8.76344e-05
0.00156752
0.000915688
0.00016541
0.000797396
0.000155344
0.000169727
0.000360066
9.54863e-05
0.000877386
0.000718016
0.00109976
0.000116303
8.59258e-05
0.000416342
0.000712349
0.000359956
0.000137981
0.000173236
0.000202148
0.000553981
0.000169673
0.00138593
7.24915e-05
9.04607e-05
0.000609771
0.000759295
0.000731367
9.92585e-05
0.000124029
0.000108566
0.000203963
0.000346186
0.000142767
0.000118628
0.000167227
0.000380802
0.000309116
0.000502355
0.000998831
0.000318274
0.00112022
0.000162025
0.000166066
0.000123944
0.000143002
0.000553841
7.06634e-05
0.00142322
0.00101691
0.000324671
0.000176507
9.86133e-05
0.000531635
0.000997876
9.53459e-05
0.000801974
8.67553e-05
0.000177427