/*--------------------------------*- C++ -*----------------------------------*\
| =========                 |                                                 |
| \\      /  F ield         | OpenFOAM: The Open Source CFD Toolbox           |
|  \\    /   O peration     | Version:  2406                                  |
|   \\  /    A nd           | Website:  www.openfoam.com                      |
|    \\/     M anipulation  |                                                 |
\*---------------------------------------------------------------------------*/
FoamFile
{
    version     2.0;
    format      ascii;
    arch        "LSB;label=32;scalar=64";
    class       volScalarField;
    location    "20";
    object      p;
}
// * * * * * * * * * * * * * * * * * * * * * * * * * * * * * * * * * * * * * //

dimensions      [0 2 -2 0 0 0 0];

internalField   nonuniform List<scalar> 
59516
(
0.642721
0.043151
0.037663
0.00494149
0.658932
0.678255
0.643939
0.592766
0.212197
0.00207946
0.652057
0.645709
0.483676
0.641613
0.615073
0.214232
0.645069
0.652359
0.650647
0.640171
0.649608
0.593204
0.64344
0.450957
0.19059
0.434553
0.261759
0.653331
0.648349
0.616152
0.661481
0.653762
0.33183
0.004541
0.650213
0.567702
0.179453
0.655631
0.648817
0.0360263
0.0451649
0.652717
0.64917
0.00283058
0.647678
0.112668
0.648394
0.648998
0.660209
0.651014
0.665168
0.00530526
0.341665
0.604616
0.649269
0.64774
0.654324
0.00563529
0.450667
0.651233
0.00529541
0.554439
0.452417
0.644282
0.0108388
0.647383
0.0239916
0.57455
0.660435
0.647275
0.58308
0.640998
0.12698
0.641818
0.579233
0.646934
0.648156
0.0773008
0.490821
0.650124
0.00473701
0.64977
0.648675
0.295079
0.649636
0.639188
0.211426
0.640219
0.3342
0.652677
0.656639
0.586856
0.633411
0.580911
0.582921
0.660192
0.616705
0.594245
0.650003
0.478073
0.228352
0.405357
0.609222
0.0258717
0.124662
0.0204365
0.0197294
0.200618
0.355968
0.494106
0.657698
0.249251
0.588213
0.65786
0.629645
0.540715
0.081986
0.604386
0.603348
0.0854814
0.606996
0.600796
0.169423
0.604166
0.656882
0.649744
0.631477
0.654258
0.665506
0.631943
0.627603
0.0438805
0.577368
0.632742
0.633984
0.572397
0.656045
0.62267
0.405841
0.638623
0.248133
0.310995
0.592954
0.246357
0.638483
0.635919
0.648226
0.643016
0.663612
0.635126
0.638407
0.0103447
0.629458
0.0102695
0.633128
0.0154072
0.0157703
0.634358
0.634617
0.618993
0.638146
0.637812
0.618715
0.0141189
0.537243
0.0782072
0.211179
0.635309
0.636309
0.0134938
0.633596
0.633596
0.624887
0.627527
0.625386
0.648659
0.544693
0.650059
0.039038
0.538433
0.629639
0.365152
0.426661
0.627896
0.629616
0.234818
0.321075
0.181922
0.632086
0.626763
0.0015258
0.363203
0.636203
0.62685
0.636881
0.055486
0.408699
0.406493
0.0115174
0.623678
0.00132634
0.177764
0.59841
0.481749
0.556915
0.362475
0.636142
0.0110344
0.460772
0.611228
0.119329
0.653025
0.608935
0.561354
0.611146
0.264575
0.635141
0.0544475
0.521111
0.611366
0.610394
0.635679
0.624204
0.0157311
0.617773
0.543157
0.458159
0.479567
0.62483
0.102007
0.616003
0.358762
0.624286
0.373489
0.395445
0.625558
0.623051
0.140437
0.622673
0.150555
0.630114
0.365404
0.353753
0.0129803
0.631857
0.630833
0.628923
0.0354785
0.62391
0.63177
0.0356865
0.6279
0.630928
0.423182
0.630919
0.63129
0.214221
0.621111
0.502153
0.615478
0.46743
0.618053
0.621079
0.620396
0.565438
0.163943
0.520946
0.194921
0.616658
0.443432
0.64578
0.555419
0.205768
0.45318
0.618891
0.569908
0.443261
0.617085
0.618914
0.266668
0.623647
0.482378
0.452043
0.612738
0.610229
0.643256
0.630552
0.0246313
0.621296
0.569934
0.619107
0.614314
0.582152
0.0807484
0.588772
0.352895
0.571322
0.563575
0.614829
0.56827
0.568961
0.170643
0.275979
0.555191
0.577302
0.434805
0.0530836
0.567673
0.572388
0.226864
0.188311
0.568615
0.42693
0.405329
0.647494
0.574771
0.598999
0.660399
0.572889
0.179095
0.358369
0.597483
0.379863
0.602868
0.483356
0.576675
0.652077
0.598063
0.460028
0.601549
0.0618839
0.639228
0.455404
0.601264
0.507721
0.615208
0.621801
0.553151
0.650868
0.610663
0.559804
0.553096
0.604355
0.140221
0.292656
0.610404
0.272194
0.618469
0.604808
0.503897
0.625782
0.626835
0.101284
0.34169
0.458892
0.144417
0.0258989
0.658242
0.66256
0.54099
0.0903651
0.633714
0.650927
0.590385
0.0866011
0.601132
0.600245
0.635381
0.661947
0.608393
0.239676
0.238076
0.599617
0.472272
0.531673
0.597393
0.601423
0.591517
0.495631
0.579754
0.636027
0.00762257
0.651504
0.0337278
0.053861
0.601053
0.0233039
0.651035
0.59995
0.0406145
0.0384865
0.160133
0.592958
0.656829
0.597666
0.656826
0.0362052
0.214376
0.592189
0.59411
0.612513
0.588412
0.499319
0.613558
0.616176
0.174198
0.407267
0.616912
0.613786
0.612422
0.112434
0.0591304
0.0653382
0.372423
0.557641
0.0278245
0.0982987
0.200103
0.015632
0.591252
0.587858
0.597688
0.597049
0.619043
0.597215
0.477313
0.585609
0.421038
0.598404
0.511956
0.605353
0.595852
0.56885
0.376437
0.615167
0.652033
0.0632627
0.606795
0.469071
0.235354
0.477406
0.520362
0.608801
0.604968
0.599013
0.596078
0.226363
0.596388
0.478605
0.0787853
0.52421
0.662755
0.416257
0.186179
0.599939
0.506092
0.594237
0.395348
0.594865
0.1829
0.596801
0.0138078
0.0249985
0.589805
0.649593
0.585009
0.547623
0.106622
0.555661
0.551131
0.117498
0.570652
0.549847
0.538761
0.537906
0.283212
0.55766
0.542315
0.38718
0.536855
0.252237
0.531502
0.652459
0.532608
0.664223
0.534736
0.622753
0.24465
0.280499
0.472906
0.0140121
0.00956134
0.50667
0.565619
0.576667
0.459391
0.543623
0.141337
0.588952
0.584693
0.653008
0.407774
0.360996
0.482739
0.584114
0.0555175
0.572497
0.643757
0.0153259
0.684516
0.587146
0.192571
0.638419
0.503782
0.645342
0.553222
0.489162
0.531388
0.590225
0.495155
0.590468
0.633796
0.216933
0.218385
0.657715
0.00987638
0.587727
0.567989
0.655695
0.565304
0.639512
0.00371652
0.574107
0.246037
0.00190542
0.450179
0.110019
0.654723
0.604613
0.20376
0.00992419
0.614596
0.368667
0.570719
0.614051
0.568932
0.634893
0.00310842
0.300466
0.198695
0.569622
0.099466
0.435433
0.588912
0.383052
0.5852
0.00903972
0.593864
0.192537
0.587467
0.475485
0.336935
0.312214
0.591428
0.00798101
0.122741
0.564769
0.234216
0.4626
0.518131
0.356179
0.342894
0.566341
0.565379
0.627984
0.559965
0.33992
0.564206
0.560542
0.324628
0.287806
0.00299154
0.563793
0.563504
0.567899
0.277451
0.547164
0.0282417
0.569043
0.0184466
0.591751
0.00240005
0.0680819
0.491397
0.360353
0.0353574
0.569937
0.655111
0.0118895
0.0491965
0.56318
0.555293
0.0931557
0.559133
0.564742
0.396654
0.115697
0.592023
0.575684
0.040592
0.566461
0.567494
0.432285
0.558436
0.664085
0.567151
0.657685
0.497655
0.659712
0.502397
0.0635394
0.637767
0.0185179
0.0177936
0.661933
0.660439
0.506462
0.566176
0.654644
0.651196
0.366681
0.297507
0.473322
0.182061
0.499488
0.341724
0.651457
0.504991
0.508145
0.548128
0.523289
0.661748
0.478766
0.531417
0.154111
0.534238
0.408702
0.0520192
0.534133
0.530733
0.533538
0.412268
0.253172
0.669998
0.351834
0.361013
0.42284
0.616506
0.534499
0.187234
0.498595
0.423232
0.0362232
0.189213
0.539019
0.606723
0.44236
0.413796
0.537909
0.537925
0.23051
0.628565
0.561804
0.385887
0.554755
0.461102
0.57796
0.548523
0.031239
0.0689063
0.503418
0.66231
0.406708
0.38429
0.0124967
0.434372
0.547467
0.331235
0.571928
0.561228
0.253987
0.34523
0.567305
0.637458
0.591796
0.466528
0.662236
0.568263
0.0921774
0.587434
0.66436
0.0598571
0.346993
0.614591
0.536485
0.221302
0.522216
0.0633974
0.0500895
0.46574
0.537518
0.662466
0.596556
0.536572
0.535521
0.549795
0.257365
0.0325306
0.186812
0.592462
0.661893
0.422266
0.54338
0.38094
0.1653
0.534945
0.175077
0.536659
0.646354
0.35016
0.00364972
0.602062
0.272522
0.551438
0.0491044
0.220681
0.42866
0.610568
0.54714
0.551245
0.663097
0.6084
0.107745
0.664838
0.0131651
0.00267032
0.549644
0.115911
0.316502
0.429288
0.303521
0.662717
0.541899
0.602266
0.530627
0.128709
0.455665
0.14609
0.357577
0.598634
0.52951
0.534368
0.52844
0.207729
0.632847
0.500975
0.183789
0.532688
0.528793
0.52548
0.497011
0.532213
0.0511467
0.0333319
0.526991
0.0126711
0.337823
0.383487
0.0273301
0.401026
0.464303
0.642287
0.508323
0.584886
0.473431
0.356263
0.534524
0.538827
0.538501
0.3046
0.536807
0.632813
0.0503364
0.00927062
0.373194
0.326502
0.0112113
0.535579
0.529932
0.532336
0.0500943
0.0831857
0.529132
0.613245
0.0749295
0.107785
0.662312
0.65334
0.543096
0.110494
0.563925
0.508417
0.576587
0.466995
0.523968
0.654781
0.466868
0.466174
0.250718
0.469544
0.657471
0.0884528
0.518439
0.468261
0.289531
0.556886
0.575641
0.253547
0.558386
0.609652
0.562238
0.466336
0.647167
0.144979
0.465478
0.597735
0.0410371
0.495066
0.201111
0.459947
0.261013
0.656454
0.475861
0.0114006
0.463722
0.458938
0.484541
0.464216
0.432937
0.0163017
0.116557
0.556309
0.49054
0.411824
0.564089
0.301311
0.611408
0.065751
0.487914
0.22807
0.447913
0.565233
0.0437243
0.495786
0.487268
0.659549
0.0668327
0.577347
0.620795
0.11006
0.478729
0.115407
0.399262
0.53798
0.574876
0.479001
0.477259
0.475847
0.661753
0.0853554
0.572513
0.303411
0.0526379
0.481672
0.58247
0.50423
0.503104
0.088569
0.509572
0.513797
0.282369
0.624007
0.661213
0.642197
0.396443
0.514358
0.0103099
0.649987
0.47105
0.507256
0.433101
0.512252
0.509789
0.521797
0.562876
0.524816
0.574391
0.511711
0.63726
0.640972
0.507827
0.555035
0.505694
0.575789
0.576349
0.0393623
0.351767
0.412132
0.0375579
0.535866
0.512875
0.539939
0.299381
0.0202616
0.309692
0.505781
0.548682
0.549218
0.342722
0.392771
0.543129
0.659943
0.517757
0.0243443
0.0502592
0.591497
0.51928
0.329262
0.428859
0.513514
0.353585
0.496716
0.497538
0.496599
0.434808
0.553499
0.495603
0.662935
0.0667228
0.494934
0.663346
0.497393
0.621703
0.113676
0.493734
0.322562
0.24776
0.497235
0.495219
0.319106
0.328005
0.493445
0.274436
0.487321
0.488821
0.505426
0.302058
0.485676
0.0838505
0.491733
0.490288
0.344176
0.48645
0.487646
0.642865
0.476781
0.407732
0.4808
0.484115
0.344981
0.169592
0.298445
0.651486
0.489464
0.490757
0.424125
0.173331
0.652051
0.433545
0.437115
0.42408
0.424534
0.0315757
0.0197325
0.138652
0.285725
0.490098
0.490647
0.0179371
0.593945
0.46831
0.219833
0.651759
0.4134
0.410146
0.653924
0.417499
0.579016
0.126614
0.410574
0.565779
0.525246
0.412816
0.311094
0.109021
0.414059
0.593834
0.540012
0.324582
0.155327
0.250595
0.432522
0.258832
0.592642
0.247047
0.426569
0.454483
0.658312
0.337182
0.0307868
0.15974
0.25429
0.419462
0.590099
0.450831
0.448844
0.0544957
0.361166
0.0269656
0.457246
0.457221
0.255738
0.0387488
0.532857
0.10975
0.629602
0.497271
0.491503
0.650085
0.254339
0.567369
0.586024
0.412503
0.0474345
0.491068
0.648733
0.487121
0.481567
0.419336
0.221602
0.489016
0.0482812
0.648803
0.595064
0.343207
0.489666
0.471432
0.591083
0.640215
0.570009
0.0791534
0.224753
0.483885
0.502215
0.559878
0.331845
0.550742
0.653322
0.481076
0.554892
0.201604
0.494521
0.385623
0.24036
0.493915
0.49612
0.495166
0.559659
0.485386
0.113554
0.487029
0.221491
0.546652
0.0559787
0.483834
0.552505
0.0139541
0.0612946
0.476095
0.193635
0.125987
0.20096
0.167391
0.301665
0.105175
0.481113
0.478829
0.0841479
0.475834
0.479287
0.551394
0.0317776
0.481888
0.466681
0.00399945
0.0659471
0.459016
0.273067
0.0106966
0.0388532
0.460589
0.339966
0.472208
0.644277
0.0460766
0.550715
0.431444
0.47081
0.463164
0.425588
0.524674
0.485298
0.477627
0.438319
0.649286
0.598415
0.472421
0.478311
0.61855
0.095509
0.594733
0.5248
0.335389
0.312389
0.477504
0.224798
0.0546252
0.446918
0.456825
0.664047
0.391494
0.457241
0.45522
0.515461
0.222396
0.455192
0.456608
0.636499
0.457544
0.211337
0.462292
0.463132
0.382228
0.347121
0.413415
0.462235
0.456982
0.462235
0.326431
0.399849
0.46926
0.419918
0.319088
0.340678
0.341212
0.342559
0.391731
0.459266
0.396947
0.651832
0.621552
0.115216
0.28684
0.301933
0.39401
0.389112
0.398271
0.498401
0.39261
0.389254
0.235897
0.29934
0.527078
0.237318
0.0896382
0.396575
0.392847
0.401656
0.62714
0.0399362
0.0216406
0.282189
0.423378
0.416128
0.593776
0.0934127
0.397209
0.652025
0.113461
0.417819
0.419736
0.489555
0.00431711
0.414776
0.415747
0.414726
0.446046
0.0159982
0.0244459
0.447502
0.446269
0.442112
0.443529
0.458568
0.434883
0.222541
0.0430399
0.656463
0.540372
0.448277
0.444967
0.345087
0.643748
0.634927
0.602439
0.00565952
0.604193
0.451097
0.451902
0.447023
0.449011
0.451857
0.448159
0.583524
0.382055
0.571917
0.399522
0.221627
0.0389657
0.454317
0.345986
0.0144595
0.403261
0.465286
0.647346
0.468444
0.327264
0.316434
0.531957
0.357614
0.460627
0.474955
0.469795
0.39085
0.420561
0.643375
0.459298
0.567063
0.214026
0.175653
0.453749
0.182867
0.0603927
0.465787
0.461465
0.354376
0.238599
0.273848
0.623004
0.463408
0.137085
0.0173715
0.418694
0.0754157
0.33933
0.450462
0.537363
0.421402
0.0688365
0.630767
0.0411296
0.617112
0.370509
0.595286
0.431778
0.121856
0.45564
0.414531
0.265141
0.318195
0.45616
0.456831
0.63133
0.541829
0.571574
0.637547
0.556656
0.538922
0.539467
0.580762
0.448397
0.443969
0.357875
0.183566
0.207108
0.0487988
0.5969
0.358976
0.438747
0.432877
0.435652
0.119724
0.42692
0.575848
0.012629
0.426786
0.439894
0.492323
0.660348
0.577181
0.576341
0.431777
0.0385359
0.595854
0.434967
0.512424
0.455503
0.519614
0.551989
0.4038
0.589794
0.443172
0.544059
0.453203
0.0553609
0.578165
0.590422
0.364611
0.654924
0.206967
0.240502
0.208915
0.396602
0.567558
0.16764
0.509529
0.172021
0.446389
0.444868
0.390243
0.461018
0.421929
0.61474
0.525433
0.416361
0.538102
0.434329
0.661481
0.586646
0.433441
0.421912
0.523469
0.609081
0.426087
0.0693528
0.508477
0.614603
0.421229
0.386077
0.429253
0.436881
0.440549
0.443285
0.0132399
0.207701
0.444022
0.654547
0.44304
0.368138
0.556984
0.361777
0.314579
0.614316
0.65444
0.580383
0.580094
0.583052
0.0911322
0.415785
0.488788
0.652855
0.639054
0.65526
0.65881
0.638803
0.372162
0.364972
0.653641
0.161665
0.373975
0.537746
0.368069
0.579564
0.547014
0.653031
0.631082
0.578645
0.206658
0.373393
0.408204
0.396521
0.414908
0.585425
0.538046
0.410297
0.400411
0.405269
0.0448712
0.60928
0.115396
0.416023
0.47914
0.427695
0.416708
0.405478
0.114194
0.421827
0.376327
0.420201
0.419267
0.590471
0.383027
0.222198
0.134659
0.564035
0.304449
0.301325
0.549877
0.253339
0.137841
0.118332
0.0894492
0.545838
0.192695
0.379496
0.468602
0.0859776
0.6027
0.605109
0.271676
0.263381
0.634576
0.392257
0.0419627
0.457003
0.0877814
0.53152
0.0833405
0.130022
0.0511573
0.0320468
0.227805
0.594489
0.126981
0.0661391
0.0717583
0.410648
0.0784896
0.405849
0.605106
0.416918
0.410697
0.542859
0.127575
0.423993
0.421999
0.0322943
0.208374
0.596056
0.424057
0.425939
0.54859
0.60681
0.5853
0.603885
0.151122
0.644324
0.654264
0.422956
0.42764
0.040346
0.619969
0.651821
0.420221
0.326589
0.419608
0.0474975
0.587494
0.0182372
0.125985
0.396315
0.495396
0.399352
0.328636
0.599121
0.300113
0.57339
0.397692
0.398618
0.202432
0.379926
0.34944
0.648663
0.599132
0.528235
0.397585
0.608907
0.223687
0.120537
0.188633
0.0381788
0.398292
0.603498
0.39748
0.0383283
0.0323969
0.590736
0.401875
0.192855
0.622565
0.402457
0.403855
0.593428
0.0532004
0.589062
0.404651
0.412435
0.415693
0.436873
0.417453
0.582382
0.574241
0.417137
0.633846
0.443183
0.573634
0.494324
0.412098
0.603872
0.401805
0.327627
0.636643
0.452619
0.408104
0.0327283
0.418822
0.416723
0.315851
0.400595
0.534199
0.161949
0.598028
0.383302
0.558487
0.581839
0.410243
0.442689
0.0318049
0.197856
0.154616
0.406571
0.602499
0.0499775
0.395921
0.636472
0.152381
0.550653
0.14162
0.39575
0.47925
0.395503
0.00533695
0.507438
0.601454
0.316484
0.0955322
0.157549
0.3063
0.310805
0.332053
0.595555
0.0325068
0.0947439
0.346763
0.352991
0.572676
0.534586
0.348396
0.366513
0.337399
0.496287
0.63807
0.61169
0.441151
0.0782916
0.568042
0.564742
0.268404
0.134986
0.522543
0.254659
0.34658
0.541337
0.442489
0.450242
0.387905
0.337998
0.363806
0.362874
0.355955
0.551823
0.370064
0.481736
0.633297
0.601397
0.537868
0.586846
0.339359
0.248981
0.597863
0.37177
0.542029
0.432981
0.560776
0.645657
0.349835
0.0227036
0.375217
0.380574
0.397669
0.595165
0.373395
0.392299
0.448513
0.397943
0.448583
0.379258
0.00404671
0.444661
0.391279
0.388745
0.0154484
0.540833
0.641212
0.444244
0.459053
0.357556
0.397125
0.393895
0.160533
0.637536
0.397991
0.399044
0.401352
0.0957371
0.59516
0.422445
0.361062
0.444291
0.235789
0.304674
0.570906
0.370042
0.36139
0.295897
0.362966
0.388818
0.249116
0.369113
0.594035
0.41441
0.214604
0.593297
0.594415
0.328101
0.326462
0.277746
0.370205
0.16708
0.380001
0.182573
0.663092
0.560915
0.475994
0.237922
0.0538725
0.613097
0.0534775
0.0585247
0.369747
0.00620876
0.370349
0.081758
0.479054
0.258096
0.366797
0.529228
0.481773
0.37022
0.0722848
0.0590373
0.472164
0.363961
0.103715
0.370589
0.366942
0.416043
0.385407
0.644962
0.545372
0.611298
0.474318
0.531725
0.368845
0.546
0.476762
0.369145
0.616428
0.65102
0.529114
0.517347
0.36917
0.582659
0.360923
0.612501
0.464851
0.539391
0.0542926
0.109132
0.514354
0.0304654
0.600037
0.662311
0.620094
0.0368007
0.160888
0.0495665
0.589913
0.610463
0.021047
0.481231
0.35338
0.580207
0.493874
0.353463
0.374166
0.08341
0.521405
0.528518
0.158434
0.644337
0.613912
0.392407
0.356395
0.656776
0.353513
0.65093
0.52666
0.522118
0.357226
0.629641
0.317202
0.626472
0.59425
0.631505
0.0213478
0.362505
0.64238
0.197078
0.652408
0.363677
0.634259
0.277881
0.275959
0.293036
0.645749
0.564248
0.630419
0.562223
0.313205
0.641977
0.641978
0.278754
0.64398
0.327869
0.544523
0.306658
0.563865
0.389302
0.265826
0.372726
0.260841
0.373324
0.0578594
0.329848
0.301699
0.614043
0.291405
0.52779
0.411027
0.477801
0.320831
0.100573
0.239636
0.532216
0.307027
0.611632
0.208481
0.337275
0.626321
0.541957
0.342556
0.580426
0.337343
0.30682
0.300992
0.383507
0.324037
0.00574014
0.102628
0.11744
0.308358
0.311013
0.535257
0.136637
0.076689
0.292315
0.197746
0.610143
0.5694
0.0903545
0.343483
0.482629
0.322913
0.346714
0.278824
0.339444
0.565162
0.338668
0.462063
0.00229869
0.604212
0.455351
0.654485
0.348238
0.338544
0.0589621
0.613863
0.258317
0.349075
0.545205
0.362599
0.353755
0.332124
0.32813
0.0874992
0.360145
0.346905
0.349761
0.33466
0.383057
0.342073
0.604473
0.282131
0.35477
0.60898
0.65386
0.472626
0.291315
0.515487
0.348352
0.318431
0.30208
0.163909
0.285897
0.261617
0.639394
0.288577
0.383584
0.382046
0.0958349
0.284361
0.604266
0.324448
0.331944
0.453403
0.427802
0.319604
0.488246
0.386654
0.326674
0.322158
0.362374
0.322209
0.602098
0.58557
0.292288
0.28129
0.309605
0.126921
0.33079
0.386761
0.535226
0.320389
0.332648
0.306406
0.336967
0.605071
0.280439
0.591925
0.330196
0.318238
0.298434
0.32099
0.253703
0.313643
0.256473
0.225042
0.315912
0.636425
0.358427
0.633325
0.453956
0.21766
0.0684803
0.278264
0.603368
0.325199
0.319549
0.237748
0.324916
0.235165
0.606845
0.604572
0.245676
0.247559
0.259519
0.260846
0.500728
0.404303
0.254608
0.255861
0.193323
0.316762
0.260449
0.261238
0.151648
0.143057
0.00377979
0.261789
0.50364
0.0875668
0.405062
0.271867
0.2779
0.290506
0.368912
0.60044
0.332489
0.239011
0.0343903
0.0556441
0.411261
0.273522
0.260538
0.359121
0.0877491
0.0591067
0.278054
0.602093
0.308872
0.312744
0.149179
0.290777
0.647665
0.299067
0.293039
0.400826
0.298309
0.308638
0.602902
0.310945
0.352619
0.0544481
0.0145493
0.49125
0.104789
0.0596015
0.320721
0.265048
0.602981
0.313164
0.620071
0.618408
0.304609
0.600201
0.0231055
0.294962
0.314642
0.0978448
0.319183
0.619912
0.654073
0.145401
0.612779
0.312318
0.532124
0.577993
0.315618
0.330705
0.61723
0.308885
0.645448
0.315992
0.376537
0.340242
0.646718
0.613951
0.380225
0.32259
0.312701
0.552122
0.375674
0.554002
0.613817
0.6057
0.32222
0.0379581
0.324194
0.300603
0.548567
0.248686
0.548894
0.119275
0.579401
0.00134562
0.60488
0.377947
0.271792
0.296574
0.610779
0.291379
0.603708
0.591761
0.609349
0.0371845
0.0122043
0.557169
0.0138545
0.290563
0.372953
0.489727
0.285553
0.593816
0.422884
0.600087
0.278638
0.596199
0.509097
0.548662
0.655628
0.390074
0.638223
0.27774
0.0322387
0.426485
0.0279585
0.652789
0.134605
0.411885
0.548804
0.306037
0.290092
0.0413128
0.0955081
0.295824
0.56423
0.609385
0.0212263
0.621227
0.380655
0.645551
0.176554
0.568638
0.295233
0.508636
0.611978
0.504085
0.477503
0.5293
0.57131
0.599841
0.470561
0.126301
0.540746
0.301816
0.301714
0.301766
0.179619
0.636043
0.638527
0.544103
0.329112
0.592941
0.606623
0.3305
0.303148
0.300497
0.290498
0.63758
0.144544
0.285477
0.440319
0.291045
0.540566
0.503199
0.347246
0.172787
0.291137
0.288264
0.403688
0.651823
0.459983
0.288981
0.596709
0.206717
0.156469
0.631895
0.0181233
0.20519
0.0419964
0.208062
0.206345
0.597922
0.284606
0.507316
0.595474
0.357606
0.304737
0.611897
0.218198
0.606453
0.273415
0.28181
0.281737
0.54854
0.472464
0.605686
0.56261
0.58782
0.241551
0.411968
0.613492
0.58097
0.301577
0.580395
0.212346
0.541189
0.134587
0.547783
0.288565
0.495101
0.257578
0.387789
0.581595
0.207425
0.582868
0.155401
0.310244
0.254017
0.0894922
0.265874
0.24817
0.349035
0.605677
0.260729
0.11608
0.052051
0.548932
0.0575594
0.5865
0.0137644
0.270769
0.147913
0.269732
0.582294
0.589743
0.137601
0.635773
0.0921806
0.00370139
0.547589
0.500062
0.266998
0.582862
0.201121
0.0577764
0.340915
0.0111053
0.429562
0.524154
0.397075
0.27247
0.650824
0.275026
0.436089
0.547897
0.361441
0.58898
0.266044
0.394741
0.262803
0.404743
0.635532
0.28184
0.245151
0.40718
0.263893
0.453091
0.263127
0.171097
0.262278
0.636022
0.260862
0.249854
0.257818
0.625605
0.332352
0.607637
0.639748
0.637586
0.48621
0.139452
0.193914
0.503966
0.582148
0.0620643
0.185193
0.257699
0.254146
0.586016
0.651891
0.00717943
0.0908651
0.233913
0.607516
0.0892261
0.364626
0.587248
0.25105
0.248527
0.251003
0.241719
0.250866
0.490156
0.305882
0.577398
0.0657181
0.261154
0.252684
0.62779
0.388294
0.621617
0.642134
0.133296
0.253757
0.192513
0.6256
0.631012
0.620893
0.617513
0.344582
0.189872
0.610838
0.136559
0.2531
0.571529
0.283069
0.250922
0.200029
0.24455
0.566387
0.56301
0.250708
0.436089
0.282351
0.281018
0.650605
0.0688575
0.152905
0.252851
0.254646
0.0258483
0.254123
0.193331
0.268461
0.557214
0.257873
0.0471781
0.274191
0.0245496
0.630008
0.615759
0.350816
0.261298
0.268425
0.304051
0.229625
0.210686
0.312416
0.221095
0.21743
0.192611
0.222071
0.633095
0.57897
0.366366
0.548898
0.232964
0.564877
0.189037
0.549606
0.469405
0.52886
0.225582
0.413026
0.0529201
0.564252
0.600303
0.260197
0.657176
0.233202
0.238985
0.391552
0.0597199
0.308824
0.240512
0.561364
0.188174
0.257531
0.250976
0.174765
0.478973
0.174292
0.170467
0.177561
0.179282
0.176517
0.551478
0.557284
0.568612
0.547724
0.107643
0.177088
0.623723
0.19531
0.104452
0.19337
0.191151
0.112616
0.194265
0.194475
0.19245
0.240765
0.234348
0.420977
0.266463
0.299638
0.381485
0.328957
0.306605
0.10967
0.243709
0.239544
0.18532
0.199057
0.23743
0.454426
0.0464345
0.52606
0.650443
0.422415
0.636258
0.238013
0.0511631
0.0543457
0.0553391
0.323779
0.0561614
0.229855
0.236512
0.609229
0.657678
0.395835
0.214585
0.615628
0.362399
0.437427
0.233377
0.445762
0.233509
0.456573
0.199081
0.0972676
0.123971
0.222993
0.00406773
0.240767
0.612928
0.179021
0.521029
0.067401
0.216569
0.222208
0.585302
0.300292
0.4576
0.334916
0.45618
0.218844
0.0414951
0.620442
0.263535
0.426849
0.611608
0.611118
0.227899
0.194674
0.228508
0.343152
0.225477
0.446982
0.582105
0.353063
0.22908
0.230616
0.362865
0.409079
0.493994
0.229377
0.234073
0.234553
0.614133
0.231619
0.234953
0.0807117
0.208463
0.10606
0.0408249
0.10275
0.0644967
0.203836
0.209886
0.0341168
0.16384
0.0335588
0.608442
0.213658
0.118453
0.609774
0.487521
0.318207
0.182441
0.221563
0.0351267
0.215374
0.469412
0.341555
0.212579
0.61974
0.0989963
0.013525
0.214454
0.66467
0.33559
0.43164
0.0381302
0.215398
0.213682
0.494535
0.0368323
0.33075
0.420694
0.201754
0.214668
0.221065
0.657018
0.633936
0.620687
0.320196
0.106402
0.0431035
0.0371063
0.625277
0.0367557
0.130706
0.222395
0.65413
0.262037
0.227836
0.577633
0.623232
0.469329
0.44971
0.227786
0.223114
0.610873
0.539044
0.565613
0.0629173
0.528175
0.143505
0.300868
0.11833
0.217936
0.347595
0.633031
0.348465
0.345436
0.644943
0.206482
0.613968
0.15575
0.444422
0.510768
0.632421
0.346875
0.617625
0.196283
0.16114
0.0924832
0.203826
0.618787
0.155447
0.138523
0.411722
0.161039
0.158479
0.17381
0.0545877
0.313753
0.210964
0.249092
0.1465
0.192407
0.168158
0.110275
0.624536
0.462073
0.154659
0.214916
0.662288
0.397781
0.20634
0.425036
0.208606
0.38046
0.204048
0.621301
0.153929
0.659306
0.125748
0.113708
0.413679
0.156701
0.450302
0.397982
0.472594
0.0626552
0.00157846
0.0811666
0.0699607
0.127412
0.0450664
0.139114
0.131535
0.13029
0.640229
0.0825838
0.627323
0.625641
0.101343
0.602897
0.217721
0.615964
0.583172
0.148979
0.605382
0.150307
0.00739216
0.469211
0.307945
0.590637
0.580769
0.341254
0.049868
0.0905358
0.475957
0.510685
0.152591
0.14809
0.203551
0.516269
0.561399
0.433884
0.0531086
0.0388186
0.202487
0.482221
0.52557
0.570491
0.642003
0.20809
0.59308
0.55282
0.430178
0.659962
0.307816
0.393963
0.489965
0.195865
0.628456
0.0378909
0.299501
0.549973
0.501096
0.578818
0.625781
0.0587911
0.298001
0.202375
0.355138
0.203585
0.330519
0.36526
0.353838
0.259338
0.203637
0.201709
0.1957
0.263044
0.63936
0.283421
0.255663
0.270288
0.617506
0.558811
0.0542112
0.628145
0.20365
0.195631
0.396942
0.17145
0.171235
0.240064
0.0552042
0.169138
0.180047
0.0422539
0.16017
0.155801
0.172943
0.225131
0.190279
0.192178
0.624493
0.123124
0.155588
0.109101
0.208267
0.109058
0.0980319
0.198654
0.0464726
0.0471554
0.276834
0.107763
0.0972762
0.626848
0.198783
0.147446
0.138773
0.0500911
0.122672
0.197763
0.202067
0.179268
0.315741
0.422914
0.478543
0.370928
0.0495159
0.17653
0.174646
0.180794
0.539071
0.273626
0.202268
0.6508
0.177604
0.271818
0.176541
0.181623
0.465398
0.477461
0.174846
0.289826
0.583813
0.579273
0.274172
0.17722
0.62322
0.176441
0.373161
0.178292
0.654461
0.17979
0.529655
0.175305
0.462842
0.549605
0.614258
0.572105
0.175219
0.553657
0.415152
0.462122
0.177346
0.0715875
0.307504
0.425037
0.177534
0.176407
0.178809
0.307341
0.156751
0.643812
0.496447
0.0665228
0.623345
0.164678
0.610405
0.0634525
0.150319
0.160917
0.536406
0.173458
0.472576
0.639733
0.152474
0.166323
0.268234
0.633574
0.538134
0.535277
0.16828
0.562409
0.486689
0.165836
0.273289
0.231823
0.162968
0.161798
0.472909
0.568216
0.182087
0.280816
0.226051
0.620553
0.611066
0.619291
0.175822
0.622963
0.11281
0.509532
0.579463
0.347446
0.467501
0.176523
0.6304
0.0806782
0.09119
0.0988002
0.294138
0.0993487
0.317412
0.310154
0.275835
0.341418
0.52424
0.281893
0.410866
0.0282938
0.116123
0.240488
0.39508
0.167454
0.439021
0.585721
0.322313
0.513165
0.498438
0.03243
0.0966576
0.460837
0.116605
0.00293799
0.628438
0.539541
0.610029
0.0956692
0.627904
0.264582
0.606841
0.251518
0.613661
0.25364
0.621008
0.108276
0.562634
0.161188
0.487189
0.256026
0.501456
0.26461
0.668904
0.162714
0.221095
0.526011
0.489224
0.157038
0.33906
0.490388
0.163476
0.445731
0.0622687
0.444715
0.146453
0.141394
0.222289
0.627842
0.163788
0.100022
0.162231
0.167651
0.297081
0.543711
0.186416
0.169101
0.297213
0.297409
0.0124865
0.614991
0.162795
0.215941
0.3818
0.505525
0.00846071
0.167132
0.624267
0.139615
0.129476
0.416026
0.0773392
0.114847
0.579423
0.162572
0.618273
0.308138
0.102692
0.128249
0.347589
0.12407
0.161943
0.235263
0.151556
0.156482
0.150527
0.0627642
0.401763
0.148482
0.21253
0.139743
0.193185
0.216376
0.144587
0.13949
0.615447
0.152569
0.127629
0.137971
0.624802
0.163368
0.133951
0.193055
0.486432
0.204412
0.147155
0.166284
0.142591
0.00339185
0.620185
0.205203
0.141087
0.107155
0.634041
0.274347
0.0696136
0.136704
0.0315557
0.297702
0.620179
0.134954
0.617287
0.126754
0.0820246
0.624393
0.616449
0.631567
0.102076
0.62694
0.0407645
0.0459155
0.139187
0.0695932
0.0604497
0.176337
0.490129
0.625451
0.606838
0.637909
0.601502
0.39531
0.294078
0.104187
0.129888
0.154482
0.376609
0.424672
0.262761
0.540938
0.203659
0.143345
0.453059
0.183275
0.60344
0.60491
0.0775786
0.606564
0.422884
0.562152
0.633766
0.133331
0.516261
0.429185
0.454194
0.429327
0.13569
0.337302
0.60836
0.635694
0.164903
0.598721
0.634059
0.616438
0.528609
0.111469
0.63764
0.118165
0.587693
0.587072
0.118788
0.132351
0.105172
0.384557
0.62796
0.283103
0.425932
0.107739
0.467951
0.628422
0.142631
0.536125
0.136325
0.543836
0.604379
0.638636
0.601724
0.235892
0.261191
0.309694
0.514396
0.143266
0.57079
0.575277
0.138879
0.548437
0.333488
0.138666
0.425018
0.558642
0.132657
0.608903
0.110678
0.565016
0.643202
0.125354
0.364305
0.127384
0.435454
0.133907
0.0622638
0.628639
0.443265
0.222099
0.300763
0.377775
0.359665
0.0553736
0.342967
0.339869
0.608066
0.448562
0.648806
0.587714
0.185237
0.616193
0.065636
0.0672174
0.471788
0.408205
0.548632
0.548468
0.0706719
0.061905
0.331369
0.622278
0.523923
0.58706
0.643484
0.0714307
0.528947
0.44557
0.530415
0.54485
0.418976
0.629356
0.553448
0.564272
0.16873
0.18262
0.641674
0.071379
0.0628768
0.12319
0.593702
0.624218
0.631009
0.118268
0.11168
0.486987
0.120278
0.12004
0.499898
0.636832
0.544619
0.195521
0.604655
0.330943
0.539035
0.543013
0.638777
0.113407
0.408329
0.410399
0.120245
0.110725
0.107776
0.114302
0.438267
0.120276
0.637601
0.531202
0.493145
0.120136
0.106064
0.240588
0.516713
0.639277
0.325624
0.288486
0.636134
0.052541
0.0908337
0.194015
0.300021
0.0900476
0.117898
0.12038
0.233115
0.123165
0.635832
0.637475
0.256596
0.634915
0.401505
0.230916
0.11226
0.187027
0.1735
0.207403
0.116555
0.0992439
0.127495
0.149277
0.104013
0.179615
0.19355
0.520357
0.104557
0.115847
0.213376
0.0702394
0.120387
0.105795
0.0954523
0.099502
0.106197
0.634974
0.110803
0.120109
0.385698
0.388319
0.62161
0.404276
0.632224
0.577613
0.59242
0.621536
0.358664
0.100573
0.403725
0.641505
0.162816
0.054154
0.523099
0.0998531
0.581431
0.0991607
0.112058
0.251972
0.0880963
0.233005
0.100717
0.0845553
0.298024
0.532242
0.0159978
0.467485
0.657612
0.0806691
0.510922
0.0787665
0.618312
0.543941
0.0748872
0.297132
0.529944
0.0849692
0.622176
0.529905
0.269495
0.0852319
0.108427
0.631603
0.328128
0.529533
0.203187
0.274839
0.580062
0.165727
0.110276
0.456988
0.245866
0.559616
0.24764
0.46924
0.0990484
0.101464
0.142235
0.124376
0.637115
0.563905
0.0649165
0.0656551
0.662443
0.190608
0.625169
0.567569
0.0964944
0.590938
0.0893109
0.0891623
0.0877421
0.0630426