/*--------------------------------*- C++ -*----------------------------------*\
| =========                 |                                                 |
| \\      /  F ield         | OpenFOAM: The Open Source CFD Toolbox           |
|  \\    /   O peration     | Version:  2406                                  |
|   \\  /    A nd           | Website:  www.openfoam.com                      |
|    \\/     M anipulation  |                                                 |
\*---------------------------------------------------------------------------*/
FoamFile
{
    version     2.0;
    format      ascii;
    arch        "LSB;label=32;scalar=64";
    class       surfaceScalarField;
    location    "20";
    object      phi;
}
// * * * * * * * * * * * * * * * * * * * * * * * * * * * * * * * * * * * * * //

dimensions      [0 3 -1 0 0 0 0];

oriented        oriented;

internalField   nonuniform List<scalar> 
113358
(
-1.66806e-05
3.45568e-05
-2.35696e-05
5.69439e-06
2.44219e-05
3.82134e-07
-6.71556e-06
-1.80834e-05
-2.74015e-05
2.1332e-05
-3.42931e-06
9.49363e-06
-2.369e-05
-6.78565e-06
2.40778e-05
6.43671e-06
-1.71697e-05
1.06641e-06
3.00092e-05
-1.39015e-05
1.36327e-05
-1.42013e-05
-7.96571e-06
8.53649e-06
-7.73212e-06
3.64336e-05
-2.61263e-05
-2.53356e-06
-9.89826e-07
-3.56114e-05
1.96045e-05
1.70109e-05
9.29908e-06
4.31466e-07
1.8907e-05
-2.86405e-05
9.31138e-06
4.31427e-06
-1.33236e-05
-2.30071e-07
-5.72985e-06
2.11719e-05
-1.93814e-05
3.9376e-06
-1.71272e-05
-1.69135e-07
-2.60296e-07
1.75669e-05
-4.84892e-05
4.05447e-06
1.34043e-05
3.10174e-05
1.59862e-06
-3.34271e-06
1.75288e-06
2.65578e-06
-1.64449e-06
2.37881e-05
-2.48421e-05
1.31027e-06
3.57521e-07
1.41489e-05
-1.5814e-05
9.21189e-06
3.00093e-05
-2.50868e-05
-1.41301e-05
-2.03294e-05
1.15156e-05
7.19582e-06
1.61773e-06
1.43359e-05
-3.96685e-05
3.49747e-05
-9.6387e-06
2.23073e-05
2.91587e-06
2.54067e-05
-5.06457e-05
2.11516e-05
6.40109e-07
-6.12263e-07
-2.11779e-05
-1.12581e-05
4.43933e-05
4.18751e-06
-3.73629e-05
-5.18724e-07
-4.20523e-05
4.51401e-05
-2.55145e-06
-1.19002e-06
5.65722e-06
4.11595e-07
-4.874e-06
-4.41108e-05
1.93732e-05
-3.55081e-06
2.82909e-05
-2.64359e-05
6.06519e-06
2.18909e-05
-1.54447e-06
-1.15883e-05
1.13073e-05
-1.7313e-07
4.5317e-07
-2.21388e-06
-8.07137e-06
6.04669e-06
4.23778e-06
2.16796e-05
-2.05348e-07
-3.09718e-07
-2.94649e-06
2.94408e-06
8.09152e-09
-5.32479e-06
-2.59062e-05
2.74075e-05
3.82611e-06
5.90203e-06
-5.59962e-07
-8.7373e-06
3.39686e-06
2.04764e-05
-1.19324e-06
9.27469e-07
-2.02111e-05
-2.95732e-05
1.29807e-05
-2.89845e-06
1.95606e-05
1.74052e-05
1.42246e-06
-1.95869e-05
7.65483e-07
-3.31115e-05
7.85621e-06
-1.19832e-05
3.72038e-05
-5.67638e-08
-2.84898e-06
2.9051e-06
9.21031e-06
1.14974e-05
2.03364e-06
-2.27547e-05
7.63351e-06
-4.07826e-05
3.312e-05
2.32908e-08
-3.06134e-06
4.75544e-06
3.32686e-05
-3.49497e-05
-2.12857e-05
1.7414e-05
-2.16117e-05
2.54842e-05
1.95932e-06
-2.28766e-05
-3.08576e-05
5.17881e-05
-2.69846e-07
4.17321e-05
-1.13658e-05
-3.01105e-05
5.69773e-06
-1.99701e-05
-8.38314e-06
-5.16761e-06
3.21578e-05
-3.39439e-07
-2.66486e-05
-2.81667e-06
1.90205e-05
-1.28276e-05
-3.37416e-06
-3.05907e-05
-1.12023e-05
4.15323e-05
-9.0797e-06
3.19082e-05
7.14813e-07
-2.35447e-05
-3.40406e-05
4.11638e-06
-5.39167e-06
3.53203e-05
3.26107e-05
1.3825e-05
-4.34798e-05
-2.95619e-06
2.31694e-05
-1.61473e-05
1.60033e-06
-8.62017e-06
-1.31917e-05
4.21131e-06
1.27463e-05
-3.7225e-06
3.17499e-05
-7.94614e-06
1.77763e-05
-4.15878e-05
-1.03702e-05
-4.00395e-05
4.28531e-05
7.57099e-06
-2.39563e-06
9.25303e-06
-1.03356e-05
3.48217e-06
2.9606e-05
-1.27061e-05
2.0801e-05
-3.76968e-05
-1.96371e-05
3.97639e-06
3.50379e-05
-1.93711e-05
1.4934e-05
-7.40202e-06
6.40613e-06
-1.39315e-05
3.23926e-05
-8.17472e-06
-2.48952e-05
6.67241e-07
-1.20923e-05
-1.45562e-05
7.27035e-06
1.93809e-05
-2.95784e-05
-4.57775e-06
1.41596e-05
1.99718e-05
-3.82981e-06
4.24134e-06
-4.12162e-07
3.07596e-05
-5.12737e-06
-2.96577e-05
4.02499e-06
-1.34335e-05
-3.7194e-05
1.38121e-05
3.68147e-05
-4.40694e-06
4.58947e-06
-3.7957e-05
3.77904e-05
2.19996e-06
2.05679e-05
1.59721e-06
-2.43596e-05
4.73687e-06
-3.89993e-06
-8.25459e-07
3.51894e-08
8.54706e-08
1.43361e-05
-1.44734e-05
5.95965e-06
-2.98881e-05
3.24875e-05
-8.56121e-06
1.05865e-05
-2.40825e-05
2.22848e-05
-8.7858e-06
9.43669e-06
-9.87696e-06
4.6385e-07
-1.70777e-05
-5.64449e-06
2.97248e-05
-7.00912e-06
-3.10722e-07
5.21467e-06
-4.90517e-06
6.70372e-06
-2.83382e-05
9.32709e-06
1.23127e-05
3.82318e-05
-3.09332e-06
-2.66198e-06
-3.2462e-05
-2.52899e-05
-3.01271e-05
3.26023e-05
2.28343e-05
2.73424e-06
-3.3267e-05
5.24004e-06
3.37509e-05
-2.66219e-05
-1.05778e-06
-6.07118e-06
3.85561e-08
2.20622e-07
-1.87138e-05
1.84809e-05
7.33966e-06
6.45237e-06
1.12152e-05
-2.50039e-05
9.80374e-06
-5.12272e-06
4.37368e-06
-8.96374e-06
-1.52363e-05
-9.93361e-06
2.62374e-05
-1.06642e-06
-2.0693e-05
2.56313e-05
-1.78394e-05
1.28994e-05
-4.0774e-06
4.04021e-08
4.03534e-06
-2.85897e-05
2.81778e-05
-2.82751e-05
2.24081e-05
-3.68289e-06
-1.21472e-06
-7.48651e-07
5.64456e-06
6.0785e-05
-5.85598e-05
1.87007e-06
-4.14601e-06
-1.39894e-05
4.30788e-06
1.38014e-05
-4.12165e-06
-4.53537e-06
2.59476e-05
-2.88737e-05
7.44542e-06
-1.71347e-05
-2.08174e-05
3.08309e-05
7.12602e-06
8.45189e-06
-1.22226e-05
1.79205e-05
-1.4142e-05
6.86257e-06
2.06731e-05
-4.37131e-05
1.61708e-05
-3.23297e-05
1.16282e-05
1.36206e-05
7.08419e-06
7.21945e-07
-2.58542e-05
2.0807e-05
4.32027e-06
-2.71016e-05
2.70914e-06
9.58487e-06
1.48084e-05
2.29599e-05
-1.96793e-05
6.96786e-06
-1.02742e-05
1.66281e-06
1.45706e-05
-1.60723e-05
-1.88106e-07
1.91367e-05
-2.48765e-06
-3.11544e-06
-1.35254e-05
1.5286e-05
1.71746e-05
-1.45493e-05
-1.7916e-05
2.94327e-06
-1.01698e-06
5.47709e-06
-7.40613e-06
6.03835e-06
-2.99755e-07
-5.73242e-06
1.89203e-08
4.98901e-06
-5.00621e-06
-6.0491e-07
3.58297e-06
-1.60186e-05
1.30462e-05
-1.96812e-05
4.10171e-05
4.78018e-07
-2.18247e-05
4.46513e-06
-1.99605e-05
1.55301e-05
-7.76541e-09
-3.83651e-06
-5.40699e-06
1.39189e-06
7.8544e-06
-6.41797e-06
-1.54021e-05
3.92349e-06
1.78967e-05
-3.21627e-06
2.19118e-05
9.17448e-06
-2.78777e-05
4.90502e-06
4.34457e-06
-2.20055e-05
1.27561e-05
-2.98741e-06
2.79308e-05
-3.20448e-05
7.11205e-06
-9.5306e-06
9.861e-06
-3.21873e-07
2.19352e-05
-2.69356e-05
4.09818e-06
8.73265e-07
1.89199e-05
1.02815e-05
-3.23971e-05
3.1999e-06
-2.48583e-05
-1.32074e-05
6.64323e-06
3.14271e-05
-2.42786e-06
-2.33485e-05
8.40548e-07
2.49317e-05
1.5472e-05
-1.60465e-05
1.69758e-07
4.05528e-07
1.62764e-05
-2.80008e-05
-5.59917e-06
1.73425e-05
-4.36368e-06
4.18604e-07
3.93957e-06
-3.96571e-06
-1.32637e-06
2.77924e-05
-2.24973e-05
-1.22758e-05
7.56293e-06
3.88502e-05
-3.41457e-05
-9.15941e-06
1.8351e-05
-2.78409e-05
1.86619e-05
1.55616e-06
-2.36311e-05
1.8708e-05
3.3632e-06
-3.40406e-06
-8.01445e-06
2.84959e-05
-1.70754e-05
2.30044e-05
-1.03751e-05
-9.61564e-06
-3.01001e-06
-2.50133e-06
-1.35173e-05
1.88896e-05
-2.84545e-06
7.78133e-06
-3.79982e-06
-3.97632e-06
-1.02572e-06
-2.58906e-05
-5.56448e-06
3.24925e-05
-1.47981e-05
2.06718e-05
5.89568e-06
-1.17601e-05
4.51014e-06
-1.14787e-05
1.97554e-05
-1.27858e-05
-3.75875e-05
8.59085e-06
-6.11374e-07
2.96219e-05
-2.72938e-06
-4.51983e-05
4.05183e-05
7.42831e-06
8.51629e-08
-5.03917e-06
4.97427e-06
2.09331e-05
-3.15889e-05
4.50374e-07
1.02099e-05
3.95323e-05
4.48607e-06
-4.22908e-05
-1.71818e-06
1.22455e-05
1.10669e-06
-2.82933e-05
1.49598e-05
-9.19779e-06
1.28824e-05
1.52345e-05
-2.77306e-05
-2.31488e-05
1.29195e-05
3.79322e-05
7.39315e-06
3.74695e-06
-5.09422e-06
7.67427e-06
-5.98932e-06
-2.89574e-05
2.72739e-05
5.78606e-06
1.75948e-05
-8.22876e-06
-1.51532e-05
-6.05e-06
1.31521e-05
2.76464e-05
-3.47484e-05
1.89222e-07
3.11045e-06
-3.30317e-06
-2.28656e-05
3.66411e-06
1.3856e-05
5.34062e-06
2.85045e-05
-1.51339e-05
-1.93529e-05
5.98551e-06
3.18015e-05
-7.62587e-06
-3.6098e-06
-2.05663e-05
-2.91576e-05
-8.87312e-09
-9.2957e-07
3.01067e-05
2.63613e-05
1.2722e-05
-3.73951e-05
-1.70455e-06
6.92246e-06
4.8686e-06
-1.17891e-05
1.77496e-06
-2.78298e-05
-1.52267e-07
2.61755e-05
4.4695e-05
-3.45536e-05
-3.43704e-06
-6.67695e-06
6.03934e-06
-8.52991e-07
-4.81125e-06
-3.63763e-07
-2.98457e-05
4.22067e-05
1.68235e-05
-2.91652e-05
1.75065e-05
-2.76655e-05
-2.59688e-06
1.27611e-05
-2.69976e-05
2.9202e-05
-8.28071e-07
-1.34051e-06
-3.93322e-06
1.93776e-06
2.00724e-06
3.83507e-05
-4.07751e-06
1.03773e-05
-4.46464e-05
-2.77989e-05
3.7153e-05
-3.63185e-05
2.44565e-08
2.88925e-06
2.15423e-05
-2.44343e-05
3.44319e-06
-3.34692e-06
-1.01994e-07
-1.3649e-05
-7.25327e-06
1.34518e-06
1.95709e-05
-9.83357e-06
2.54522e-05
-1.99515e-05
4.34562e-06
2.0804e-06
-6.29089e-06
3.94952e-06
2.65501e-07
-2.51912e-06
-2.3691e-06
4.90025e-06
-2.62676e-05
2.54875e-05
2.57321e-05
-2.49531e-05
4.49005e-05
-1.15483e-05
-9.77102e-06
-2.358e-05
1.58525e-05
8.20798e-07
-5.85567e-07
-1.60889e-05
2.95596e-05
-3.60575e-05
4.87399e-06
1.62153e-06
3.94048e-06
-3.82969e-08
-3.89865e-06
-5.49701e-06
2.69285e-05
-2.62121e-05
4.81729e-06
-1.60619e-05
1.66188e-05
-1.82544e-06
1.26791e-06
-1.29807e-05
1.14318e-05
8.09833e-07
7.31343e-07
2.96323e-06
-2.39675e-05
8.41535e-06
1.25808e-05
-1.0943e-05
-1.0675e-05
2.56312e-05
-4.01602e-06
-1.82513e-05
1.78787e-05
3.62262e-07
1.45856e-08
-3.12791e-05
-3.51074e-05
3.58179e-05
-1.00879e-05
3.14384e-05
9.85028e-06
-3.11968e-05
5.45054e-06
3.09934e-05
5.43742e-06
-4.18872e-05
-1.62455e-05
6.78838e-06
2.24973e-05
-1.30421e-05
-8.07389e-09
8.6177e-08
1.33737e-05
-1.34347e-05
1.85981e-06
3.67295e-05
-5.49591e-06
-3.30835e-05
-5.00356e-06
-3.34692e-06
5.43764e-06
2.91506e-06
5.51906e-06
-5.24538e-06
-2.74458e-07
-4.4344e-06
-1.49351e-05
1.12297e-06
-2.44686e-05
2.18524e-07
-4.81795e-06
2.90696e-05
-1.79808e-05
1.61047e-05
4.91579e-07
1.37997e-06
-5.31046e-07
1.03466e-05
-1.23011e-07
-9.69574e-06
-3.85932e-06
3.79669e-06
5.47865e-08
3.47105e-06
-8.01865e-07
2.1761e-05
-2.4452e-05
3.20414e-05
3.35506e-06
-2.7344e-05
-8.03697e-06
-3.39644e-06
-1.51386e-05
-1.02449e-05
1.72261e-05
-1.89592e-05
1.26544e-06
4.60009e-07
6.67254e-06
-2.84621e-05
3.35921e-05
-1.17991e-05
1.36075e-05
2.93617e-06
-7.40686e-06
-9.10008e-06
-1.53637e-05
-3.67265e-05
8.67288e-06
4.33835e-05
8.31386e-08
3.36043e-06
-2.6288e-07
-3.18013e-06
1.21601e-05
-7.10419e-07
1.83645e-06
-1.32766e-05
-1.24246e-05
2.0745e-07
1.23342e-05
-1.10321e-07
2.35317e-05
4.18328e-06
-2.99993e-05
2.27905e-06
-2.88701e-05
-1.68085e-05
3.72218e-05
8.45559e-06
-7.98126e-06
3.35724e-06
-7.69009e-06
5.55897e-06
2.35997e-05
-3.00348e-05
8.75547e-07
-2.51e-05
-2.58131e-05
1.08406e-05
4.01259e-05
-3.60531e-06
3.91954e-06
-3.18044e-07
1.8898e-05
1.10249e-05
-2.18551e-06
-2.77022e-05
-7.09832e-07
-4.28934e-06
-2.79315e-05
3.29248e-05
-1.82904e-05
4.7015e-06
4.45014e-05
-3.09278e-05
2.46518e-05
-1.83437e-05
-9.33392e-06
3.00676e-06
3.36187e-06
-9.57885e-08
-3.27466e-06
4.63926e-05
-2.22832e-05
3.30274e-06
-2.74221e-05
1.15598e-05
-1.23535e-05
1.40964e-06
-6.19171e-07
2.73028e-06
2.69045e-06
-5.41814e-06
-1.60423e-05
-2.13585e-05
4.32876e-06
3.30428e-05
-1.42953e-05
1.96786e-07
1.47688e-05
-6.45761e-07
2.24504e-05
-4.76723e-05
8.40699e-07
2.43831e-05
-1.84269e-05
-2.34542e-05
3.07103e-05
1.11688e-05
-1.32028e-05
1.67642e-05
2.82384e-05
5.10243e-06
2.62737e-05
-2.7665e-05
-3.70506e-06
2.3184e-06
1.68415e-06
-1.5737e-05
1.17373e-05
-3.12689e-05
1.40183e-05
1.10958e-05
6.16535e-06
1.70049e-05
4.35162e-06
-1.83513e-06
-1.95646e-05
-3.69243e-06
-2.76866e-05
2.8011e-06
2.85904e-05
6.07131e-06
-2.33553e-06
2.34469e-05
-2.71812e-05
-2.77843e-06
7.85491e-08
-6.92495e-06
9.66238e-06
6.70532e-07
9.29503e-06
-3.47175e-05
2.47548e-05
-1.22501e-05
-2.46421e-05
-1.10768e-06
3.79873e-05
4.06048e-07
6.39659e-06
-6.79717e-06
5.08729e-08
-1.21448e-07
1.37079e-05
-1.365e-05
2.32055e-06
1.45665e-05
1.23449e-05
-2.92322e-05
4.11786e-07
-1.80798e-05
5.17093e-08
1.76159e-05
3.92899e-06
-1.84034e-05
-1.39604e-05
2.844e-05
1.3271e-05
1.62583e-05
-1.39684e-05
-1.55615e-05
2.68548e-05
1.60346e-05
-3.61668e-05
-6.72512e-06
1.17196e-07
-5.64663e-06
5.52981e-06
3.57961e-06
1.67015e-06
-1.59797e-08
-5.23976e-06
2.62106e-06
3.0875e-06
3.78541e-07
-6.09682e-06
3.17774e-06
-3.63282e-06
1.8338e-05
1.93845e-07
-3.18367e-05
1.1822e-05
1.9816e-05
5.22453e-05
5.86131e-06
-1.08551e-05
-4.7285e-05
-9.94096e-06
1.32413e-05
-3.09883e-06
-1.93792e-07
-1.37781e-05
1.3191e-05
-2.20069e-05
2.26102e-05
4.13313e-06
5.4246e-08
-4.19005e-06
1.15758e-06
1.05334e-05
-1.99287e-05
8.23124e-06
4.17965e-06
-6.31355e-06
2.13056e-06
2.30529e-05
-1.23083e-05
-6.23302e-06
-1.89431e-05
7.16732e-06
-1.76444e-05
2.94221e-05
3.12672e-05
-3.02301e-05
4.762e-06
-5.79243e-06
1.78879e-05
5.90669e-06
-2.12258e-05
-2.56777e-06
2.5175e-06
-3.47871e-05
1.17223e-05
2.05536e-05
3.02917e-05
-6.05117e-06
4.98623e-06
4.39752e-05
-4.96557e-05
2.62943e-06
-3.11576e-05
2.14117e-06
3.24601e-05
-3.45401e-06
-2.41803e-05
-1.56802e-05
2.60919e-05
-1.17159e-05
-1.10355e-05
-1.56832e-05
3.84368e-05
-1.04442e-06
4.29787e-06
3.68301e-05
-4.00588e-05
1.46219e-06
2.59387e-05
-4.59265e-05
1.85237e-05
-1.67754e-07
1.36851e-07
2.15985e-05
-2.15653e-05
-3.84807e-05
6.18393e-06
3.47853e-06
2.87852e-05
1.51947e-05
-1.52338e-05
5.45031e-06
-5.39602e-06
9.52553e-07
1.36741e-05
-1.73146e-05
2.6918e-06
-2.4156e-05
3.60719e-05
-4.27866e-06
-7.63525e-06
-3.20477e-05
2.37238e-05
1.45108e-06
6.84936e-06
-3.13241e-05
3.00749e-05
3.95349e-05
-3.82738e-05
2.86114e-05
-2.32926e-05
1.3679e-06
-6.68915e-06
-1.45947e-05
1.8903e-05
-1.16382e-05
7.33419e-06
-8.79822e-06
2.07824e-05
1.8567e-06
-1.38495e-05
-3.42897e-05
2.55717e-06
3.75522e-05
-5.82212e-06
-5.4807e-06
-2.79139e-05
2.76542e-07
3.30992e-05
2.95981e-06
-1.0485e-05
8.48357e-06
1.19247e-05
9.97698e-07
-1.13764e-05
-1.53869e-06
1.07962e-05
2.08925e-05
-2.42398e-05
-7.43674e-06
-9.12492e-06
1.22898e-05
2.10602e-05
-2.42316e-05
1.15354e-06
4.7039e-06
-4.04935e-05
3.46387e-05
1.95926e-05
-2.95102e-05
9.61515e-06
3.16713e-07
-3.59953e-05
-5.89614e-06
9.85844e-06
-3.5847e-06
-9.59147e-07
-2.77077e-05
3.22319e-05
-4.21512e-06
3.30983e-08
4.185e-06
-4.54458e-06
-6.44427e-06
3.94019e-05
-2.84123e-05
6.8668e-06
-6.47598e-06
-3.57213e-07
2.89299e-07
2.75371e-07
-1.17508e-05
1.11848e-05
-1.62759e-05
1.53557e-05
2.77733e-05
6.1854e-06
3.18473e-05
-2.32584e-05
-1.47724e-05
5.67069e-06
-5.82404e-06
1.46295e-07
-4.86545e-06
5.37663e-05
-3.05365e-05
-1.83216e-05
-2.82368e-05
3.08713e-05
1.98136e-05
-2.11944e-06
2.19137e-05
1.03927e-05
-3.01852e-05
-2.80365e-05
-1.04464e-05
3.7462e-05
1.02754e-06
-6.21599e-06
5.64464e-06
5.73025e-07
2.74032e-05
-2.9265e-05
-2.84006e-08
1.90791e-06
-1.75472e-05
-1.08875e-05
1.56445e-05
1.27959e-05
-3.35609e-06
1.50899e-06
-1.90234e-05
2.08766e-05
-2.8035e-05
-7.86667e-06
8.42503e-07
3.50603e-05
-1.72497e-05
-8.23791e-06
-6.84168e-06
1.74837e-05
-3.98336e-05
-3.64813e-06
2.6001e-05
7.11805e-06
-3.07939e-05
-9.15095e-06
3.28168e-05
9.4168e-06
-8.9631e-06
-4.57792e-07
-2.60773e-05
4.36945e-05
-6.15089e-06
-1.14441e-05
-6.38514e-06
-2.69917e-05
3.06009e-05
2.77724e-06
-3.82987e-05
3.91523e-05
-4.7005e-06
3.84554e-06
-2.2919e-05
-5.80252e-06
1.60804e-05
1.26434e-05
-2.85939e-05
-5.86846e-06
3.44936e-05
1.1795e-08
-3.28529e-07
1.63354e-07
-1.55565e-05
1.57198e-05
4.3684e-06
1.94048e-07
-4.56185e-06
-8.09936e-06
8.22373e-06
-1.35795e-07
4.08584e-05
-3.38551e-05
-4.67985e-05
3.97333e-05
3.79306e-06
1.63022e-07
-3.95739e-06
-3.41772e-05
3.35798e-05
-4.80998e-07
1.07768e-06
-1.2769e-05
1.10079e-05
8.19918e-08
1.70391e-06
4.14084e-06
4.46917e-05
-2.42403e-05
-2.45947e-05
-2.49298e-05
-7.9247e-06
3.30545e-06
2.95524e-05
3.23049e-05
1.40253e-05
-1.42287e-05
-3.21027e-05
1.56899e-05
-5.80384e-06
2.15039e-06
-1.20354e-05
3.94789e-05
-3.45024e-06
-2.83386e-05
-7.70049e-06
-5.10715e-06
7.59635e-06
-8.18608e-06
5.68418e-06
-3.20228e-06
9.89725e-06
3.82202e-06
-1.04944e-05
-1.28837e-05
-6.46934e-06
3.64831e-05
-1.7114e-05
7.39947e-06
2.74753e-05
-2.70878e-05
-7.79236e-06
-2.24925e-05
2.32493e-05
1.48939e-05
-1.56491e-05
2.5473e-05
-2.31944e-05
-3.18211e-06
9.4259e-07
-9.28826e-08
-1.35298e-05
-4.54298e-08
1.36607e-05
-8.57381e-06
1.61679e-05
-1.61837e-06
-5.97711e-06
-3.52393e-05
-1.28152e-05
1.83706e-05
2.96613e-05
2.07163e-05
-1.75773e-05
-3.50447e-06
3.65899e-07
8.04254e-06
-2.75041e-05
-3.05548e-05
5.00334e-05
1.69735e-05
-2.24602e-05
-1.08174e-05
1.63126e-05
-6.18942e-06
-4.97158e-05
1.4018e-05
4.18733e-05
1.88893e-05
-1.70843e-05
1.96836e-06
-3.77079e-06
3.1779e-05
-1.1571e-05
-3.64833e-05
1.62325e-05
1.18415e-05
1.89714e-05
-4.4476e-05
1.36529e-05
-7.52427e-06
2.82433e-05
-2.45551e-05
3.83291e-06
-2.72686e-05
3.02865e-05
3.08136e-05
-3.38315e-05
-1.4969e-07
-1.69241e-05
1.48858e-05
2.19992e-06
5.17544e-06
-4.91197e-06
-2.45172e-07
3.59182e-05
-4.47144e-05
1.27317e-06
-4.90545e-06
7.03119e-06
3.4447e-06
-5.56297e-06
-3.80182e-06
1.32438e-07
-1.80947e-06
5.49149e-06
1.62357e-05
-2.46673e-06
1.7883e-05
-2.67289e-05
1.05375e-06
7.79235e-06
-9.96589e-06
-2.45517e-06
9.94796e-06
2.16238e-05
-2.87893e-05
1.6465e-05
-9.29254e-06
-2.46886e-05
-3.6822e-06
2.98434e-05
-1.46775e-06
-4.68728e-05
-7.42709e-06
4.14693e-05
1.28092e-05
-3.61566e-05
9.55563e-06
8.03004e-07
2.58017e-05
-5.21652e-06
4.68673e-07
1.03021e-06
3.72517e-06
-2.48186e-05
-2.93737e-05
2.30088e-05
3.11828e-05
1.61978e-05
1.42556e-05
-2.43593e-05
-6.07938e-06
2.70664e-07
1.74967e-05
-1.49218e-05
-2.84732e-06
-1.7033e-07
-1.60938e-05
3.15804e-05
-1.53188e-05
3.37965e-05
-2.41976e-05
-1.30047e-05
2.79582e-05
-3.18727e-05
6.60094e-06
-2.70094e-06
-3.76893e-06
-2.72167e-05
2.92098e-05
1.79217e-06
3.72264e-05
-2.49592e-06
-3.84778e-05
2.28969e-05
-2.55142e-05
6.11165e-06
-3.49222e-06
2.18233e-06
-1.3632e-05
-1.13798e-06
1.25858e-05
-3.14256e-06
3.00138e-06
-3.68863e-06
3.83196e-06
-2.14658e-06
5.61974e-06
1.74717e-06
-5.20291e-06
-8.42597e-06
-2.12496e-05
-1.41231e-06
3.1096e-05
1.14056e-05
8.1881e-06
-3.01404e-05
1.05619e-05
-1.8799e-05
6.1125e-07
6.6426e-06
1.15443e-05
-2.03235e-06
-2.04116e-05
2.00315e-05
-2.50622e-05
2.91355e-05
9.05904e-06
-1.31328e-05
-3.50322e-05
3.9761e-05
-1.19689e-05
7.25873e-06
-5.10922e-06
-1.78106e-05
2.62502e-06
2.02963e-05
1.32152e-06
3.30191e-05
-3.85514e-05
4.19504e-06
1.72275e-05
-5.61293e-05
1.24786e-05
2.64303e-05
4.92434e-06
-3.59175e-05
1.96028e-05
1.14045e-05
1.52804e-06
1.9165e-05
-6.5729e-06
-1.41124e-05
-4.872e-06
2.28762e-06
4.8291e-06
-2.23408e-06
-3.70305e-06
7.74698e-06
-2.92492e-05
2.52073e-05
-1.70824e-06
-1.36118e-05
4.23061e-07
1.48914e-05
1.92018e-07
1.38412e-05
-2.46245e-07
-1.37873e-05
2.10003e-07
2.53006e-07
1.42877e-05
-1.47532e-05
-8.56539e-06
-1.46754e-05
2.56709e-05
-2.41502e-06
4.00906e-06
-3.67231e-05
1.95702e-05
1.31519e-05
3.07953e-05
8.2179e-07
2.30475e-06
-3.39308e-05
3.39882e-06
-3.43465e-06
4.09454e-08
1.0915e-05
2.2204e-05
-2.81872e-05
-1.36903e-05
3.15925e-08
1.35119e-07
1.35643e-05
1.84823e-06
-2.43874e-05
8.80416e-06
1.3738e-05
1.13006e-06
8.96805e-06
-9.17784e-06
-9.33265e-07
-6.64693e-06
-1.43448e-05
2.71297e-05
-6.11869e-06
3.14862e-05
-3.33397e-05
2.8716e-05
-2.68471e-05
1.78559e-05
-8.08207e-06
-2.98813e-05
2.01065e-05
-2.50336e-06
-2.41399e-06
4.91564e-06
1.4064e-05
3.0186e-06
-4.00657e-06
-1.30741e-05
-2.48869e-05
3.73211e-05
3.74391e-06
3.12172e-06
-6.85805e-06
8.09e-07
-2.97976e-05
4.59858e-08
2.89442e-05
-3.40802e-07
6.91024e-07
2.18586e-05
-8.81244e-07
2.36641e-05
-4.52282e-05
2.24401e-05
-7.72353e-06
-2.28737e-05
-3.40392e-06
3.40173e-05
6.083e-06
-1.05407e-05
1.06054e-05
-6.14891e-06
-6.72465e-06
-3.24516e-05
-4.12943e-06
4.3329e-05
2.03404e-05
3.40733e-06
-2.30315e-05
-7.13146e-07
5.2637e-06
2.60527e-05
-4.31227e-05
1.17935e-05
-2.22507e-06
-1.4625e-05
-8.25879e-06
2.51072e-05
-2.27503e-05
-7.29422e-06
1.14932e-05
1.85692e-05
-1.3143e-06
-1.27553e-06
-1.55907e-05
1.81811e-05
3.353e-05
-1.39485e-05
-8.14788e-06
-1.14291e-05
-2.10191e-05
5.13683e-05
-2.87613e-05
-1.58971e-06
1.35313e-05
3.26045e-07
3.27808e-07
-1.42162e-05
3.08424e-05
-3.60138e-05
3.66097e-05
-3.14564e-05
-5.7085e-06
1.81105e-05
-1.48267e-05
2.42412e-06
1.23413e-05
-4.53736e-05
2.08698e-06
3.09525e-05
8.59201e-06
3.99381e-05
-3.44694e-05
-1.40568e-05
8.02051e-06
-7.80605e-06
-1.23642e-05
1.21465e-05
-2.29732e-05
-1.34008e-05
4.0233e-05
-3.86551e-06
3.47854e-05
-2.70322e-05
-4.29308e-05
3.51538e-05
1.69787e-05
1.51607e-05
-8.88049e-06
-2.32217e-05
2.57632e-07
-1.45431e-05
1.44179e-07
4.91552e-06
-5.06413e-06
-4.19043e-06
4.07119e-06
1.19948e-07
2.5936e-05
-2.4889e-05
-2.31717e-05
2.21301e-05
-6.28767e-06
7.80697e-06
-2.26115e-05
2.10901e-05
3.29625e-05
-2.59391e-05
-5.3199e-06
-1.70436e-06
-6.03155e-06
1.45114e-06
3.97532e-06
-7.45971e-06
2.60847e-05
-7.16793e-06
-1.14565e-05
-4.69366e-05
1.32662e-06
1.5685e-05
2.99188e-05
1.2428e-05
-5.25772e-06
-1.24115e-05
5.24606e-06
7.01543e-06
3.2849e-05
-3.06654e-05
-9.18366e-06
-1.82866e-05
-3.80484e-06
3.52643e-05
-1.317e-05
2.08224e-06
2.09563e-05
4.40951e-06
-2.74495e-05
7.18017e-06
2.32373e-05
-2.83393e-05
2.20705e-05
-1.62319e-05
-8.38146e-06
2.5227e-06
1.91682e-05
-2.48045e-05
1.08994e-05
-1.55902e-05
1.03002e-05
8.93719e-06
-3.65148e-06
8.31858e-06
1.05961e-05
2.00394e-05
-3.8936e-05
4.78744e-06
-2.92437e-05
-4.56731e-06
2.90076e-05
6.07778e-07
2.47735e-05
2.44977e-06
-2.78162e-05
1.08392e-05
2.0903e-05
-3.46319e-05
2.88626e-06
-5.42148e-05
4.48699e-05
-1.03295e-06
1.16067e-08
3.73425e-05
-3.11099e-06
-3.42672e-05
-4.25597e-06
9.14345e-06
-1.25119e-05
7.65162e-06
-1.07437e-06
-4.60651e-06
4.23408e-07
5.2603e-06
-4.32496e-06
4.16244e-06
1.55575e-07
-5.21653e-06
-6.70857e-06
3.41639e-05
-2.22385e-05
-2.55632e-05
3.87325e-06
-1.11941e-05
3.28846e-05
4.22878e-05
-1.05162e-05
-1.35005e-05
-1.82335e-05
3.72891e-06
-3.27026e-05
1.14412e-05
1.754e-05
4.32207e-06
-3.94452e-06
-1.46477e-06
1.08939e-06
-4.99544e-06
4.84538e-06
1.57026e-07
1.99672e-06
2.90854e-05
-5.26657e-06
-2.58058e-05
-5.15836e-06
2.4249e-05
-3.18308e-05
1.27615e-05
1.04655e-05
1.71956e-05
-3.99778e-05
1.2322e-05
-2.41143e-06
2.52555e-05
1.84662e-05
-4.13159e-05
-4.25693e-05
2.19849e-05
2.53825e-05
-4.79936e-06
3.23129e-05
-3.27955e-05
6.3646e-06
-5.88283e-06
-3.16021e-05
-7.73534e-07
-1.01853e-05
2.54262e-07
6.73157e-06
-6.98725e-06
3.09641e-05
4.20802e-06
-2.53299e-05
-9.83822e-06
-2.17532e-06
-3.30206e-06
1.5488e-05
-1.00115e-05
2.97217e-06
5.35629e-07
1.01099e-05
-1.36056e-05
-3.12122e-05
1.36605e-05
1.52772e-05
2.27475e-06
1.55341e-05
-2.43519e-05
-3.48913e-06
1.23147e-05
-2.37733e-05
5.86976e-06
3.87874e-05
-2.08815e-05
-4.11097e-06
-1.56013e-07
4.24022e-06
-1.29414e-05
3.3313e-05
2.27671e-05
-4.31397e-05
2.83616e-05
7.3425e-07
-4.53206e-05
1.62217e-05
-2.06664e-06
2.89067e-05
-2.55523e-06
-2.42828e-05
2.10972e-05
-1.66122e-05
1.24942e-05
-1.69944e-05
-1.23715e-06
-2.19659e-05
2.48255e-05
-1.61988e-06
-1.80516e-05
-2.74735e-06
-1.29506e-05
3.37385e-05
-8.23551e-06
-8.38743e-06
-1.51057e-05
3.1703e-05
-1.12023e-06
2.9689e-05
-3.37548e-06
-2.51919e-05
2.50407e-05
-2.47317e-05
7.80368e-08
-3.777e-07
3.33254e-05
2.50089e-08
-2.28632e-05
-1.04774e-05
-8.37564e-06
-4.03243e-06
-2.38921e-05
3.6288e-05
-3.44477e-07
-3.98245e-06
4.32858e-06
-2.67714e-05
4.03372e-05
-3.14799e-06
-1.04134e-05
2.70896e-06
1.9663e-05
6.41354e-06
-2.88155e-05
-5.19291e-06
1.21185e-05
4.51871e-06
-1.14412e-05
-1.83872e-05
-4.49801e-06
1.91358e-05
3.79361e-06
1.80493e-05
1.34805e-05
-4.66403e-05
1.51106e-05
1.25629e-05
-9.37684e-06
3.21151e-05
-3.52886e-05
-2.91388e-06
2.2624e-05
1.93081e-06
-2.16325e-05
3.78475e-06
-3.69556e-06
-8.88428e-08
2.31261e-06
2.80024e-05
1.32651e-06
-3.16454e-05
2.96126e-05
-4.92505e-06
-2.79717e-05
3.29656e-06
-4.90082e-06
6.25239e-06
-2.82122e-05
2.68641e-05
-2.97355e-05
-4.65296e-06
2.36224e-05
1.08014e-05
1.29742e-05
-1.23609e-05
-8.55615e-08
-5.27601e-07
-4.13927e-05
2.63346e-05
-1.6605e-06
1.67283e-05
-5.45148e-06
4.64851e-06
8.10196e-07
1.24378e-05
-1.08579e-05
1.60476e-05
-1.764e-05
1.95723e-05
1.6371e-05
-8.52005e-06
1.28789e-05
-3.48291e-05
-1.49489e-05
3.68844e-05
1.48148e-07
-1.86959e-05
1.87414e-05
-2.12927e-07
9.27049e-06
-1.57068e-05
-1.76701e-05
2.41018e-05
1.57614e-05
6.71017e-06
-2.52336e-06
-1.99482e-05
-5.24646e-06
1.32139e-06
6.68957e-06
-2.76338e-06
-3.49557e-06
4.59239e-05
-1.56594e-05
-2.67448e-05
1.25522e-05
1.49743e-05
-4.8162e-07
-2.70431e-05
9.88688e-08
3.88134e-06
-3.97636e-06
-1.11859e-06
5.11717e-06
2.90799e-05
-3.3068e-05
3.35923e-05
4.53792e-06
-1.60403e-05
-2.20861e-05
-1.23029e-06
7.01448e-06
-5.58005e-06
-2.15928e-07
1.64777e-05
-1.35214e-06
-1.78732e-05
2.77122e-06
-4.94327e-06
-1.55114e-05
7.69705e-06
1.27555e-05
-5.48218e-06
2.54989e-05
4.22151e-06
-2.42474e-05
2.49239e-05
-3.01519e-06
-2.74864e-05
5.58236e-06
-3.27826e-06
6.29186e-06
-3.00799e-06
3.17278e-06
-1.39869e-05
1.24285e-05
-1.61503e-06
8.23678e-07
1.29795e-05
-1.37005e-05
-1.04886e-07
1.16209e-05
1.35176e-05
-1.52548e-06
-2.36164e-05
1.79683e-05
2.36396e-05
-1.6691e-05
-1.32515e-07
4.93348e-06
-4.80007e-06
-3.75845e-05
1.89069e-05
3.45677e-05
-1.59136e-05
3.77029e-05
6.49701e-06
-3.94677e-05
-4.74367e-06
2.32178e-05
-1.52421e-05
-2.60175e-05
8.35321e-06
1.43166e-05
-3.11721e-05
-1.61272e-06
-6.95906e-06
3.97441e-05
-1.65906e-07
4.94277e-06
-4.77725e-06
3.50657e-05
-1.24568e-06
-3.77906e-06
-3.00475e-05
5.16747e-06
-5.23091e-06
7.46843e-08
-1.43557e-05
3.67965e-06
-8.76547e-06
1.94566e-05
-2.05625e-05
-1.64769e-05
1.54787e-05
2.15653e-05
2.45822e-05
-1.89922e-05
-4.94634e-06
-6.37999e-07
-2.62491e-08
3.96936e-06
-3.96282e-06
-8.13102e-07
-5.2753e-06
1.80185e-08
6.08816e-06
9.65261e-06
3.61419e-06
-6.49297e-06
-6.78031e-06
-1.48604e-05
1.59821e-05
-1.93129e-06
4.7451e-08
3.99995e-05
-1.41225e-06
-3.86337e-05
-8.93405e-06
-8.74315e-07
1.16448e-05
-1.83799e-06
4.04338e-06
-1.70217e-05
1.3588e-05
-6.11223e-07
1.0814e-05
-2.04099e-05
1.36772e-05
-4.07727e-06
7.46903e-06
1.7372e-05
2.6078e-06
-2.74381e-05
7.28575e-06
-7.36726e-06
7.51383e-08
1.72169e-05
-1.39688e-05
-3.61036e-05
3.28135e-05
8.1529e-07
1.22839e-06
1.63584e-05
-1.83851e-05
3.55462e-06
1.66595e-05
-2.09608e-05
7.45962e-07
1.41223e-05
-6.21694e-07
-2.07722e-06
-1.14248e-05
9.15001e-06
1.9004e-05
-2.83002e-05
1.39224e-07
1.7619e-05
-1.7357e-07
-1.46782e-06
-1.59718e-05
-2.6347e-05
9.64529e-06
1.25858e-06
1.54451e-05
-1.051e-05
-9.67512e-06
-1.13e-06
1.25097e-05
-2.13857e-05
1.60959e-05
-7.24291e-06
-3.7232e-06
-1.54805e-05
-2.33851e-05
4.25896e-05
-6.25672e-06
7.97843e-06
-1.78242e-06
5.69212e-08
6.55524e-08
3.34494e-06
-3.42046e-06
-7.12412e-06
3.75693e-05
1.21305e-05
-4.25736e-05
2.55438e-05
1.06829e-05
-9.63209e-06
-2.66076e-05
2.72618e-05
-2.36694e-05
2.80886e-05
-3.16723e-05
3.64393e-05
-4.0399e-05
4.71956e-06
-7.59585e-07
-4.82957e-05
2.0796e-05
8.68431e-06
1.88098e-05
-1.47889e-05
-1.78789e-06
1.61052e-05
4.71024e-07
3.02297e-05
-4.04521e-05
1.42902e-05
-4.06813e-06
1.28744e-05
-1.43961e-05
4.52115e-06
-2.99821e-06
-1.4886e-05
1.3318e-05
-8.93347e-06
-1.56606e-05
4.99235e-05
5.65775e-06
-3.99182e-05
-7.01835e-06
1.56888e-07
6.86138e-06
-4.64632e-06
1.01624e-05
-3.86432e-05
-2.41545e-05
-4.36751e-07
2.26338e-07
2.43677e-05
6.12575e-06
1.47628e-07
-6.2646e-06
8.22277e-06
-5.47692e-07
-3.03227e-05
2.26591e-05
-7.20196e-08
-1.66382e-07
1.29717e-05
-1.27386e-05
8.38189e-06
1.73677e-05
-2.95425e-05
3.80786e-06
2.20682e-05
1.51048e-06
1.56328e-06
-2.51283e-05
-3.17954e-06
5.6733e-06
4.03444e-05
-4.28237e-05
-1.0809e-05
-1.33404e-06
-4.24904e-07
1.25675e-05
-8.27534e-06
6.92529e-06
-2.72634e-05
2.85961e-05
-1.73957e-06
2.86557e-05
-2.47176e-05
-2.19025e-06
3.22736e-05
9.81909e-06
-1.49582e-05
-2.71346e-05
7.004e-06
-3.86274e-05
2.5574e-05
-3.28371e-05
4.17767e-05
-1.92529e-06
1.78283e-05
-6.88919e-06
1.4597e-05
-1.66228e-05
-4.30842e-06
8.25624e-06
1.26751e-05
-8.78363e-06
9.53658e-07
8.01745e-06
-1.95911e-07
-1.07596e-05
2.62075e-05
-1.82906e-05
2.84279e-06
-3.13188e-05
2.73309e-05
2.87954e-05
-2.48085e-05
-4.38582e-06
4.01153e-06
1.92001e-07
1.86597e-07
2.98418e-05
-4.43941e-05
-1.637e-05
3.09185e-05
-3.94762e-05
-1.51207e-05
2.64813e-05
2.81145e-05
3.51464e-05
3.7573e-06
2.04928e-06
-4.09614e-05
3.00391e-05
-1.97307e-05
2.4835e-05
-4.13418e-05
-3.75743e-06
1.6728e-05
2.84075e-05
4.16812e-06
3.00759e-07
-4.45957e-06
3.36324e-05
-3.11364e-05
-1.06052e-05
8.10698e-06
-2.25192e-05
-7.91696e-06
6.79485e-06
2.36075e-05
1.46814e-05
2.42206e-05
-1.3683e-05
-2.52233e-05
7.63677e-06
2.46613e-05
-2.394e-05
-8.35738e-06
6.65652e-07
-8.26707e-06
7.60231e-06
-1.49912e-05
-1.28108e-05
1.27964e-05
1.5015e-05
2.05537e-06
2.23734e-05
-5.41467e-06
-1.90396e-05
-3.61941e-05
3.6353e-05
-6.57198e-06
-2.74639e-06
3.23404e-05
-3.14402e-05
1.84957e-06
1.94087e-05
4.0435e-06
1.11252e-05
-3.45792e-05
-7.12684e-08
-2.90728e-06
2.98896e-06
-4.27664e-06
4.2352e-06
4.56293e-08
-2.11277e-05
-1.05612e-05
1.2601e-05
1.90938e-05
-2.74621e-05
-6.80132e-07
3.3551e-05
-5.39606e-06
-8.24791e-06
3.00172e-05
-3.11394e-05
9.36929e-06
-2.41848e-05
1.9597e-05
-8.61018e-06
1.31931e-05
3.11679e-07
2.3209e-05
-2.60062e-05
2.49162e-06
-3.4043e-05
7.97334e-06
2.19059e-05
4.15909e-06
1.71859e-06
4.12335e-05
-1.56132e-05
-2.73411e-05
2.88042e-06
-5.38194e-06
-1.94002e-05
-9.7056e-06
7.97656e-06
1.93815e-05
-1.4564e-06
4.50095e-06
-2.24249e-05
-2.47711e-06
-6.11485e-06
7.64684e-06
9.73568e-07
1.62513e-05
-4.89081e-06
-1.1566e-05
2.14327e-07
1.27471e-05
-4.29457e-05
4.16553e-05
-1.14384e-05
-1.74816e-05
3.00419e-05
4.24293e-06
-1.67915e-05
-3.69838e-06
3.99391e-06
2.82747e-05
-2.85704e-05
-4.04896e-05
3.0271e-06
3.21825e-07
3.71837e-05
-2.34015e-05
3.01079e-06
1.8484e-05
1.91242e-06
-2.20212e-05
1.35883e-05
3.10273e-05
-2.2595e-05
-1.58013e-05
-2.90509e-05
8.43749e-06
3.64069e-05
4.68147e-06
-3.66592e-05
-4.09175e-06
3.60805e-05
-2.69541e-05
3.88968e-06
-1.64668e-06
2.47072e-05
-2.75552e-05
-1.62375e-06
-2.1063e-06
3.12894e-05
6.38568e-06
-3.37904e-06
3.02296e-05
-3.32236e-05
8.95952e-06
-5.16683e-06
-4.25603e-08
-3.74116e-06
4.36024e-06
-4.48458e-05
-7.09033e-06
4.75697e-05
-5.20415e-06
3.3485e-06
2.59752e-06
-7.51431e-07
-2.88584e-05
-7.56583e-06
1.5856e-05
2.05732e-05
-1.83546e-06
1.71232e-05
3.01904e-06
-1.8298e-05
-1.30702e-05
-1.38802e-05
9.81722e-06
-6.25332e-06
2.59196e-06
3.25091e-05
-2.88387e-05
2.53204e-05