/*--------------------------------*- C++ -*----------------------------------*\
| =========                 |                                                 |
| \\      /  F ield         | OpenFOAM: The Open Source CFD Toolbox           |
|  \\    /   O peration     | Version:  2406                                  |
|   \\  /    A nd           | Website:  www.openfoam.com                      |
|    \\/     M anipulation  |                                                 |
\*---------------------------------------------------------------------------*/
FoamFile
{
    version     2.0;
    format      ascii;
    arch        "LSB;label=32;scalar=64";
    class       volVectorField;
    location    "20";
    object      U;
}
// * * * * * * * * * * * * * * * * * * * * * * * * * * * * * * * * * * * * * //

dimensions      [0 1 -1 0 0 0 0];

internalField   nonuniform List<vector> 
59516
(
(0.118324 -0.00029762 -0.000395943)
(0.106145 -0.000556891 -0.00136)
(0.120163 -0.00110101 -0.000123768)
(0.128564 0.00227247 0.00125982)
(0.113691 0.000704284 -0.00385095)
(0.101136 -0.00481768 -0.010812)
(0.135749 0.000468765 -0.00167453)
(0.115245 0.00206761 0.00053775)
(0.118748 0.000666698 0.000773278)
(0.0645301 0.000151711 0.00156893)
(0.140375 0.000932993 -0.000473615)
(0.0714915 0.00175375 -0.00344218)
(0.130363 0.000347382 -7.14776e-05)
(0.0261051 -0.00021263 -0.000364546)
(0.0754423 0.00100965 0.00257486)
(0.0610777 0.00280175 -0.00152786)
(0.146938 0.000372753 -0.000227854)
(0.0758497 0.00327022 -0.00349405)
(0.121935 0.0012944 0.00143269)
(0.147986 -0.000830567 -6.9483e-05)
(0.063615 -0.000583359 -0.00041443)
(0.145486 0.000639982 0.000850228)
(0.146824 0.000683227 -0.000112478)
(0.042468 -0.00126586 -0.000521608)
(0.148804 -0.00121464 0.00148897)
(0.076192 0.00173313 -0.000166852)
(0.0512991 0.00139504 -0.00334101)
(0.0506095 0.00233771 0.000779847)
(0.0764152 0.000256907 0.000763652)
(0.0232939 -0.00329473 0.00121958)
(0.108898 -0.0205252 -0.00452433)
(0.052229 0.00201395 -0.000997973)
(0.132454 -0.00100807 0.00152201)
(0.116989 0.00112914 0.000895755)
(0.135684 -0.000230988 0.000703762)
(0.145345 -0.000951829 -0.000250473)
(0.0208921 -0.00216751 -0.00217956)
(0.0742793 0.00304136 -0.00587711)
(0.107783 -0.00106316 0.00059642)
(0.145593 -0.00224411 0.00158529)
(0.111406 -0.00117368 -0.000404587)
(0.141919 -0.00291168 -0.00386267)
(0.144674 0.000876087 0.000657172)
(0.1155 -0.000496187 -0.00129382)
(0.143798 6.69366e-05 0.000375883)
(0.0639749 0.000186984 -0.000567068)
(0.136266 0.000669482 -0.00112901)
(0.146876 0.000405214 7.69627e-05)
(0.111783 -0.00832223 0.012025)
(0.140283 0.00130036 0.00176087)
(0.103954 0.0105539 -0.0144157)
(0.0529707 -0.00334437 0.00150906)
(0.128399 0.000943346 -0.000206029)
(0.135245 0.000396721 -0.00061727)
(0.0568043 0.00142037 -0.000328779)
(0.134022 -0.00174089 -5.42082e-05)
(0.137162 0.0043765 0.00515934)
(0.0591738 0.0043492 -0.00128402)
(0.14503 -0.00222177 0.000742217)
(0.133597 0.00249853 0.00333026)
(0.140909 0.000603041 3.42228e-05)
(0.0253727 0.00264066 -0.00110276)
(0.140656 -0.00141013 -0.00101702)
(0.143065 9.43875e-06 -0.0012284)
(0.132595 -0.000522279 -0.000595186)
(0.138183 0.000795923 0.000393195)
(0.033997 -0.00243853 0.00280379)
(0.0518678 -0.000589873 0.000106114)
(0.121101 -0.0042578 0.0209541)
(0.137104 0.00107852 0.00137158)
(0.0478681 0.00114082 0.000438658)
(0.144005 1.03994e-06 -0.000463445)
(0.027846 0.00147141 -0.00376023)
(0.139912 -0.000837509 -0.000548071)
(0.146913 -0.0012546 0.000676254)
(0.146776 0.000845418 0.000331172)
(0.146344 0.00102909 0.000146684)
(0.13915 0.000292922 -0.000830453)
(0.0567812 -0.00161301 0.000522863)
(0.138773 0.00121904 0.00166269)
(0.0460764 0.00183498 5.91767e-05)
(0.137463 0.000966584 0.000960244)
(0.135734 0.000533634 0.000937784)
(0.0256321 -0.00105648 0.00257135)
(0.137848 0.000727206 0.000918898)
(0.146315 -0.000810322 -0.000370204)
(0.0394093 -0.000602101 0.000875709)
(0.14586 -0.000209062 8.2407e-05)
(0.0636538 -0.00056292 0.00270633)
(0.11246 0.00661837 -0.00411802)
(0.129248 0.000230119 -0.00794612)
(0.132308 0.00104489 0.000651804)
(0.145964 -0.000348238 0.000804652)
(0.132211 6.76062e-05 7.2479e-05)
(0.139073 -0.00109131 0.000649831)
(0.109974 -0.00959479 0.00418864)
(0.137468 -0.00114182 0.00148639)
(0.0654451 -0.000891589 -0.00390385)
(0.0734157 0.000798136 -7.80897e-05)
(0.141022 -8.44892e-05 0.000974401)
(0.0452486 0.000647534 0.00118326)
(0.0312577 0.000900687 -0.00334473)
(0.0305177 0.000977768 0.00370073)
(0.0661678 -0.000399571 -0.00353306)
(0.133573 0.00116153 -0.000149342)
(0.133423 0.000643893 0.000701062)
(0.0501416 0.00309695 -0.00207488)
(0.11468 -0.000210518 -0.000639867)
(0.111172 -0.000594824 0.000852201)
(0.0808476 0.000334442 -0.00238254)
(0.125107 0.0114097 -0.0117829)
(0.0387501 0.003214 -0.000190147)
(0.0802129 0.000346959 -0.00438893)
(0.119587 0.0152916 -0.00804761)
(0.145744 -0.000743531 0.000776144)
(0.112952 0.00131246 0.00177312)
(0.062878 -0.000155241 -0.00147058)
(0.134188 0.00109956 0.000699711)
(0.0284797 -0.000429726 0.00167178)
(0.138131 0.001272 0.000800758)
(0.146832 0.00037468 0.000257379)
(0.144909 0.00142885 0.000230248)
(0.145287 0.000611027 -0.000489468)
(0.143591 0.00100787 0.000740901)
(0.132295 -0.0131213 0.00294575)
(0.0994818 0.000132504 -0.00104392)
(0.0385084 -0.000452773 0.00180521)
(0.138263 -0.00727211 0.000310978)
(0.0906967 -0.00275647 0.0126531)
(0.144207 0.000839336 0.000704701)
(0.144181 0.000723467 0.00169221)
(0.123299 0.00178773 0.00178349)
(0.0302158 0.00169004 -0.00172035)
(0.144452 0.000105463 0.00106076)
(0.11591 0.000206238 0.000452987)
(0.126927 -0.0012487 -0.00165895)
(0.110544 0.0107889 -0.0081898)
(0.138035 0.00025182 0.00158347)
(0.0485732 0.00249029 9.47977e-05)
(0.111403 0.000620482 -0.000451226)
(0.0538615 -0.000648535 -0.00211118)
(0.144528 0.000622133 0.000151354)
(0.0243924 0.00138872 0.00208817)
(0.127531 -0.00139941 7.64285e-05)
(0.142789 0.000681894 1.17905e-05)
(0.138655 0.0016375 -0.000246076)
(0.142134 3.8404e-05 0.000651728)
(0.12765 -0.000773243 -0.00120374)
(0.0624655 -0.000983317 0.00171932)
(0.118407 -0.00130982 7.04652e-05)
(0.117636 -0.000649621 -0.000823853)
(0.0432445 -0.000395014 0.000467708)
(0.147843 1.68623e-05 0.00174486)
(0.142659 -0.000202232 0.00129405)
(0.104089 -0.000760216 0.00113416)
(0.0247626 -0.000363185 0.00238241)
(0.122652 0.000972145 0.00120574)
(0.124831 0.000711738 -0.000334502)
(0.0975359 0.0014137 -0.000242052)
(0.0254501 0.00290139 -0.00275079)
(0.0776249 0.00148445 -0.00278356)
(0.0802831 -0.00275315 -0.00176768)
(0.0446277 -0.0011242 0.000664429)
(0.0325793 2.53969e-05 -0.000446047)
(0.113786 0.00163519 0.00250168)
(0.148198 -7.07651e-06 0.00100735)
(0.0705772 4.3748e-05 2.75165e-06)
(0.144737 0.000371221 0.000192413)
(0.025811 -0.00136614 0.00264608)
(0.129381 0.000217884 -0.000525101)
(0.0968205 0.000788274 0.0018245)
(0.0631838 0.000630645 -0.000546215)
(0.0775635 0.000971524 0.00109452)
(0.135611 -0.000861991 0.00103486)
(0.0618877 -0.00127034 0.000566628)
(0.137706 0.00136036 -0.00128344)
(0.144545 0.000639763 -0.00026071)
(0.146519 0.000444583 0.000419354)
(0.0796594 -5.43214e-05 0.00360981)
(0.0521524 -0.000298536 -0.00103626)
(0.141769 0.000555874 0.00189278)
(0.041698 -0.00280042 -0.00179752)
(0.0360506 -1.79624e-05 -0.00300385)
(0.0772621 -0.00255457 0.000673251)
(0.144319 -7.29359e-05 0.00124014)
(0.0671274 0.000535106 0.000765243)
(0.0434805 -0.000872283 -0.00295822)
(0.0286573 0.000970561 -0.000142485)
(0.128865 -0.00010617 0.000992241)
(0.112593 -0.00218209 0.000292868)
(0.132071 -0.00117903 0.00188351)
(0.0626475 0.00362533 -0.000164182)
(0.146279 -0.000557097 -9.85373e-05)
(0.069429 0.0030995 0.000291218)
(0.145864 -0.000769998 0.000668179)
(0.0359219 -0.000374399 0.000460233)
(0.0677791 0.000585848 -0.000116775)
(0.0491468 -0.000924338 0.000964778)
(0.117517 0.00178299 0.00343228)
(0.145445 5.96906e-05 0.000877221)
(0.0899452 -0.00358593 0.000926464)
(0.142601 0.000562321 -0.000612043)
(0.11703 -3.64929e-05 0.00124104)
(0.0254771 0.00205306 -0.00138901)
(0.134661 -0.00104811 -0.000484242)
(0.140062 -0.000950583 0.000198995)
(0.145252 -0.00045117 0.000153444)
(0.135469 0.000670061 -9.83038e-05)
(0.0282592 -0.000878719 0.000235961)
(0.124846 -0.00157831 -0.000563092)
(0.0577167 0.00356461 0.00341781)
(0.0283528 -0.00374478 -0.000683811)
(0.143368 0.000619288 -0.00123743)
(0.0682053 -0.000359777 0.000280217)
(0.127803 0.000729792 0.000857274)
(0.145187 -0.000804219 0.00131583)
(0.138057 0.000966489 5.60972e-05)
(0.145562 -0.000739309 -0.000246243)
(0.0657943 0.00197508 -0.00358336)
(0.146856 -0.000519424 0.000821362)
(0.0686858 0.00232626 0.000878709)
(0.114066 0.00126401 -0.000330288)
(0.141599 0.000458522 0.00121778)
(0.0517201 -0.00057894 0.00112945)
(0.142147 -0.00181252 0.000448055)
(0.144015 0.000344811 -0.000500238)
(0.0346203 -0.000149735 0.00190269)
(0.0580985 0.00128801 -0.00206812)
(0.143591 -0.000989121 0.00166729)
(0.0650586 -0.000694514 -0.00400797)
(0.148471 -0.000975031 0.000429662)
(0.143222 0.000849977 -0.000562308)
(0.141986 0.000396314 0.00119027)
(0.0316609 -0.00185672 -0.00137803)
(0.0393541 0.000379582 -0.001057)
(0.04373 0.000250147 -0.00100347)
(0.0764038 0.00014568 0.00133285)
(0.107011 -0.000617002 0.000169007)
(0.142408 0.000174312 0.000711526)
(0.0641754 -0.00101828 0.00101276)
(0.14296 8.01315e-05 0.00134724)
(0.0262236 3.1855e-05 0.00331759)
(0.0640156 0.000602256 0.00205362)
(0.0320877 4.02501e-06 0.00348547)
(0.142735 0.000773799 0.000576798)
(0.107909 -0.00019342 -0.000670207)
(0.1389 -0.000384138 0.000114816)
(0.0781925 0.000674766 -0.000733572)
(0.148102 -0.000143564 0.00157472)
(0.116357 6.75486e-05 -0.000356677)
(0.147417 -0.00228421 0.000930191)
(0.13776 -8.65777e-06 6.90596e-05)
(0.142007 0.000317976 0.00125128)
(0.13821 -0.000210967 -0.000687419)
(0.140368 0.000670165 -0.000105769)
(0.144115 -0.000125807 0.00031606)
(0.0653863 0.000274335 0.000298114)
(0.142411 -1.70668e-05 0.00029485)
(0.0525045 0.000189947 -0.00203817)
(0.0718715 -0.000417449 0.00248926)
(0.134474 0.00183115 -0.000873517)
(0.143496 -0.000602798 0.00138719)
(0.125809 0.00172049 0.00177838)
(0.145942 -0.000786623 0.00138417)
(0.110322 -0.0011431 0.00261228)
(0.0676604 0.00345462 -0.0013484)
(0.145353 0.000216748 -0.000688496)
(0.103576 0.0028731 0.000528737)
(0.0579097 -0.0010527 0.000247182)
(0.0629083 -1.98273e-05 -0.00142622)
(0.109613 -0.00094521 -0.00171816)
(0.14311 -0.000584815 -0.000309771)
(0.110459 -0.00237664 4.59774e-05)
(0.106077 -0.00158807 -0.000233397)
(0.144432 -0.00130377 0.000845286)
(0.107308 -0.000312715 0.00373437)
(0.0276593 0.00220223 -0.00150827)
(0.146836 -0.000705489 0.00127724)
(0.0332416 0.00159122 -0.00172395)
(0.0494298 -0.00191634 0.000852588)
(0.141719 -0.000268558 0.00110172)
(0.138296 -0.000391835 0.000319895)
(0.0317981 0.00380688 0.00287012)
(0.131162 0.000998677 0.000875381)
(0.135115 0.00217405 0.000845793)
(0.144397 0.00091946 -0.000278631)
(0.142514 -0.000432672 -1.17679e-05)
(0.0313313 0.00292827 0.000711585)
(0.141715 -0.00100922 0.00117018)
(0.139639 -0.00181872 0.000187486)
(0.142683 -0.000438175 0.00109698)
(0.136587 -0.000812607 0.00129261)
(0.132353 0.000861237 0.00186021)
(0.105996 0.000673299 -0.00114345)
(0.149605 0.000272927 0.000110885)
(0.035586 -0.00106634 -0.00102176)
(0.141078 -0.0025 0.000569496)
(0.141716 -0.000806489 -0.00062967)
(0.143516 -0.00149063 0.000529007)
(0.139732 -0.0019373 0.000431124)
(0.126912 -0.00119295 0.000933883)
(0.0685942 0.00327047 0.00165054)
(0.0290567 -0.000777364 0.00212642)
(0.0373691 -0.000343667 0.000347204)
(0.1513 -0.00194605 0.00020801)
(0.0259431 -0.000899371 0.00339607)
(0.0756661 -0.000264196 -0.000362812)
(0.0630608 0.00213434 0.00189752)
(0.14633 -0.000970295 0.000534971)
(0.147558 0.000212057 -0.000771997)
(0.145177 0.000563607 -0.000222146)
(0.071241 -0.00129572 -0.000750954)
(0.111636 0.001007 -0.00141389)
(0.0504942 -0.00326925 0.00387442)
(0.0651009 6.78954e-05 0.00139767)
(0.138326 -0.00180485 0.000544156)
(0.112657 0.00135015 -0.000426044)
(0.107585 0.0122983 0.0035223)
(0.10103 -0.00269056 0.00121565)
(0.052149 -0.000281408 -0.000978695)
(0.0756465 -0.000694089 0.00138526)
(0.119752 0.000101806 -0.00135533)
(0.144816 -3.83587e-05 2.22884e-05)
(0.146646 0.00137809 0.000657691)
(0.145053 0.000480098 0.00187465)
(0.147689 -0.00145951 0.000176974)
(0.103714 0.000941496 0.00316407)
(0.13013 0.00145908 3.1663e-05)
(0.141307 0.00173433 -0.000344192)
(0.144962 0.000982126 0.000547529)
(0.145259 -0.000127792 0.000620568)
(0.0688445 0.000892215 -0.00266384)
(0.0288748 -0.000801899 -0.00345202)
(0.142433 0.000540478 0.000937378)
(0.0503829 -0.00192647 0.00266203)
(0.0414146 -0.000152208 0.00084053)
(0.14336 -3.87399e-05 0.000692452)
(0.140613 -0.00121069 0.000295714)
(0.0684686 -0.00271628 -0.00222882)
(0.144646 -0.000184719 0.000663733)
(0.146242 -0.00103847 0.000410781)
(0.144333 -0.000469757 -0.000579491)
(0.146822 0.00106326 -0.000368784)
(0.0400901 0.00207427 -0.000504613)
(0.146778 0.000176896 -0.000451931)
(0.142878 -0.000262798 0.000351641)
(0.0693102 0.000126568 0.000666075)
(0.143333 -0.000711285 0.00133896)
(0.144259 0.000764363 0.000771104)
(0.134503 -0.00032238 -0.00088693)
(0.128017 -0.000791466 -0.000856427)
(0.139424 -0.000790853 0.000107831)
(0.1381 -0.000305816 0.000435011)
(0.0800031 0.000227898 0.000302821)
(0.0394115 0.00204025 -0.00179496)
(0.0410197 -0.00127059 -0.000304255)
(0.108257 -0.000429016 0.000897722)
(0.0892322 -0.00609927 0.00952505)
(0.075729 -0.00401719 -0.00599623)
(0.0965099 0.000738317 0.000965538)
(0.121742 -0.000125697 0.00115161)
(0.136282 -0.00016585 0.000368331)
(0.140171 0.000737986 0.000948469)
(0.149731 0.000348589 0.000424471)
(0.135931 -0.000446698 0.0011125)
(0.140757 0.00109144 0.000676758)
(0.13914 0.00139286 0.000529743)
(0.0404797 -0.000921124 -0.000211648)
(0.114087 -0.0217228 0.00295715)
(0.0712216 0.00256945 0.000651348)
(0.0501412 -0.00270979 0.000354734)
(0.051609 -2.87654e-05 0.000456931)
(0.144461 0.00100726 0.000531092)
(0.10766 -6.77669e-05 0.000170795)
(0.147067 0.000278941 -0.000259655)
(0.0263556 0.00124633 -0.00146131)
(0.1314 -0.000769311 -5.83076e-05)
(0.0562302 0.000787553 -0.00147759)
(0.143965 -0.00137879 0.000194408)
(0.0593712 0.000105427 -0.000551162)
(0.0742915 -0.00157624 0.00128742)
(0.118772 -0.00119843 0.00048976)
(0.138764 0.000849018 0.000931013)
(0.0258655 0.00194596 -0.00253852)
(0.0660233 -0.000278654 0.00233345)
(0.134189 -0.000142603 0.000570596)
(0.0297116 -0.00175307 -0.00230633)
(0.131121 0.00102518 0.00382203)
(0.123708 -0.000869359 0.00220154)
(0.133887 0.00100644 -0.00182454)
(0.105774 0.00231329 -0.00304965)
(0.097251 0.000901344 0.000879717)
(0.149201 0.00106825 -0.000466376)
(0.0800454 -0.0067506 -0.00665707)
(0.145474 0.00208351 0.000817149)
(0.113252 0.00699314 0.00765224)
(0.0720881 -0.00393379 -0.000291629)
(0.072542 4.47218e-05 -0.0017229)
(0.146917 0.000853736 6.45453e-05)
(0.150134 0.00158158 0.000389464)
(0.0647689 -0.000598408 0.000867363)
(0.14046 0.000416405 -0.000481361)
(0.110269 -0.000936777 -0.00210525)
(0.146351 -0.000983192 0.00043724)
(0.145955 -0.000697173 0.000604272)
(0.0565304 0.00185003 -0.00459821)
(0.134764 -0.000257869 0.000420989)
(0.143824 -0.00184451 0.0010653)
(0.144388 -0.000349567 0.000648667)
(0.147134 -0.000175802 0.00051297)
(0.0264085 -0.00145289 -0.00301829)
(0.0263729 0.00169673 -0.00260588)
(0.129851 0.000592006 -0.00164465)
(0.144946 0.000293726 -0.00043781)
(0.144978 -0.00088985 -0.000689336)
(0.043976 0.000150627 -0.00291737)
(0.140706 -0.000642341 0.000502698)
(0.119584 -0.000107409 -0.000591131)
(0.138153 0.00109228 0.00086213)
(0.148208 0.00132328 -6.45459e-05)
(0.146139 -0.000168801 -0.000212294)
(0.146042 0.00148872 0.000974647)
(0.147071 0.00172958 0.00105696)
(0.103957 0.000629042 0.00126756)
(0.144033 0.00214118 0.00043291)
(0.0684129 -0.00178662 -0.00355793)
(0.14531 -0.000894387 -0.000420163)
(0.120451 -1.03924e-05 -0.00168386)
(0.140153 0.00185446 0.000306277)
(0.144119 0.000269081 -0.000148778)
(0.145668 0.0010062 -0.000304374)
(0.140752 0.0015505 0.000448791)
(0.0521568 0.00267384 0.00306149)
(0.0421144 0.000518988 -0.00106906)
(0.0281245 0.00169037 -0.00253797)
(0.139241 0.00188061 0.00253952)
(0.147668 8.66291e-05 -0.00032217)
(0.136098 6.89707e-05 0.000962439)
(0.131793 0.00234362 0.00126802)
(0.0368543 -0.000592825 0.000960241)
(0.0308734 -0.00116386 0.00375532)
(0.123451 -0.000616879 0.00155778)
(0.139985 0.000672626 0.00107069)
(0.145346 0.000827934 0.00074825)
(0.148008 0.00136638 -0.00014306)
(0.140649 -0.000200817 -0.00106956)
(0.14438 0.00123498 -0.000239295)
(0.139092 0.00103734 7.25132e-05)
(0.034366 -0.00136488 0.00296479)
(0.128141 -0.00107037 -0.000723268)
(0.0694733 0.000933158 0.00288692)
(0.071524 -0.00666161 0.00158044)
(0.140504 8.91016e-05 -0.000646919)
(0.106363 0.00128942 -0.000139883)
(0.142283 0.0010239 6.38044e-06)
(0.0278386 -0.00461269 -0.000985251)
(0.149662 0.0022219 0.000326174)
(0.145833 -0.000262544 0.000466009)
(0.143085 0.00171423 0.000553827)
(0.102762 0.000487311 -0.000439772)
(0.140155 0.000541059 0.000758729)
(0.141471 0.00119532 0.000882328)
(0.122783 0.000692605 -0.00151334)
(0.142366 0.000319328 0.000372402)
(0.107737 0.00143711 -0.00149342)
(0.146386 -0.000563077 7.09504e-05)
(0.144063 -0.00113012 -0.000805466)
(0.0260057 -0.00187015 0.0023184)
(0.145683 2.69441e-07 -0.00086857)
(0.122872 0.00193205 -0.000143992)
(0.0554394 -0.00192095 0.00357217)
(0.106068 2.04856e-05 -0.00225569)
(0.145788 0.000298408 -0.00115009)
(0.135323 -0.000201005 0.000515759)
(0.100045 0.000510835 -0.00251909)
(0.0249937 -0.00286825 -0.0022882)
(0.14628 -0.000823944 -0.00118499)
(0.130029 0.00179058 -0.00160812)
(0.145051 -0.000756974 2.57399e-05)
(0.130507 -0.00143531 0.000318785)
(0.0454791 0.00141522 0.00165096)
(0.138349 -0.000990219 -0.000894195)
(0.0309501 0.00193063 -0.00381803)
(0.144066 -8.50001e-06 0.000303034)
(0.102328 0.0113803 -0.00374818)
(0.144484 8.05382e-05 0.00041909)
(0.0647033 -0.000229935 0.00266605)
(0.114398 -0.00126355 -0.000707443)
(0.106043 -0.000159038 -0.00100521)
(0.0435367 0.00263543 0.00111717)
(0.139857 0.000986823 3.95139e-05)
(0.138013 0.00137309 0.000290411)
(0.028959 0.00126224 0.00288317)
(0.141585 -0.00227927 0.000213909)
(0.14046 -0.00226172 0.000636824)
(0.0465521 -0.000446055 -0.0023748)
(0.073835 0.00189286 0.000288674)
(0.0638733 0.00237189 0.0018923)
(0.141094 0.000677081 0.000937535)
(0.142189 -0.00132485 0.000261942)
(0.0367667 -0.000527745 0.00167169)
(0.064755 -0.00217157 0.000586257)
(0.066619 0.00118051 0.000697654)
(0.122204 0.000866302 0.000406667)
(0.14197 -0.00157903 0.000436691)
(0.0286687 0.00124265 -0.00313879)
(0.147886 -0.00100976 0.000435136)
(0.143689 0.000272116 -0.000152092)
(0.141981 0.00105414 0.000886153)
(0.0901234 0.00380126 -0.0037016)
(0.15006 0.000538792 0.000379843)
(0.0278457 0.000437469 -0.00195155)
(0.14682 -0.00138302 -0.000429225)
(0.0345538 -0.000734864 -8.34435e-05)
(0.069944 -0.00166563 -0.000184894)
(0.14307 -8.74321e-05 0.00020504)
(0.0723395 -0.00136777 -0.000398852)
(0.0270977 0.00218746 0.00257035)
(0.0471971 -0.000165687 -0.0010556)
(0.0560145 -0.00168638 0.00182325)
(0.0716292 -2.99684e-05 -0.00170035)
(0.143309 -0.000567238 0.000292453)
(0.0579582 -0.000939871 0.000891745)
(0.0700329 0.00172323 -0.00163136)
(0.12702 -0.00494607 -0.0109475)
(0.13974 0.00149902 0.000268228)
(0.0318602 0.00114491 0.000376704)
(0.119286 0.000527593 -0.00113779)
(0.083874 0.00805302 -0.00301435)
(0.145513 -0.00166696 -3.97377e-05)
(0.0697565 -0.00070909 -0.00150773)
(0.138499 0.00150807 0.000562249)
(0.070457 -0.0020954 -0.00237434)
(0.124319 -7.55077e-05 0.000176048)
(0.142577 0.00169943 -0.00101543)
(0.0632943 0.00218212 -0.00463042)
(0.145392 0.00130438 0.000112467)
(0.0523076 0.00109172 0.00239567)
(0.0249268 0.00364732 0.00126704)
(0.137636 -0.000912812 0.00065094)
(0.141361 0.00173587 -0.000592324)
(0.133242 0.000779327 -0.000395791)
(0.130175 0.000628563 9.83088e-05)
(0.145641 -0.00177376 0.00038617)
(0.0731995 0.00143269 0.000532809)
(0.146821 -0.00192064 0.000273701)
(0.0688431 -0.00210228 0.00250785)
(0.142336 0.0014412 -0.000722152)
(0.130063 -0.00186078 4.29169e-05)
(0.0357537 2.75807e-05 -0.00380675)
(0.148376 -0.000749339 -0.000792132)
(0.0624315 -0.000486189 0.00155317)
(0.034133 -0.00159472 -0.00118696)
(0.147307 -0.000316512 0.000430979)
(0.0523553 -0.00105408 0.000780826)
(0.135337 0.000232232 0.000583079)
(0.139994 0.000783869 0.000495237)
(0.133828 0.00106242 0.00151406)
(0.060932 -0.000931042 -0.00308974)
(0.149066 0.000670085 0.000111237)
(0.102006 -0.000948053 0.00113712)
(0.148027 -2.17591e-05 0.00140162)
(0.146441 0.00107757 -0.000366534)
(0.147824 0.000708213 0.000498542)
(0.141848 0.00137412 -0.000132907)
(0.0537037 -0.00183904 -0.00166805)
(0.0622635 -0.000149356 -0.000279597)
(0.144321 0.00156448 -0.000270211)
(0.145081 0.00143524 0.000792731)
(0.0391943 -0.00122394 -0.00131591)
(0.14195 0.000642505 -0.000395776)
(0.149372 -0.000124654 0.00148337)
(0.148287 -0.00161348 -0.000828903)
(0.146982 -0.00158999 -0.000627477)
(0.126772 -0.00153044 0.000343801)
(0.0282882 0.0024121 0.00237687)
(0.149317 0.000415597 0.00117269)
(0.110407 -2.94762e-06 -0.00158969)
(0.137896 -0.000992941 0.000397265)
(0.105487 -0.000701121 0.00100067)
(0.0368357 0.00247636 -0.000604331)
(0.139683 0.00134489 -0.000117449)
(0.103024 0.00178089 0.00220265)
(0.138129 -5.04701e-05 0.000518456)
(0.145181 -0.00170669 -0.000231179)
(0.135414 -0.00238332 -0.000152734)
(0.022462 0.0013222 -0.00217169)
(0.0280538 -0.0011272 -0.00240316)
(0.14002 -0.00173131 0.000392648)
(0.138507 7.16427e-05 0.000367307)
(0.14454 0.00110786 0.000838287)
(0.136725 0.00101399 0.000742804)
(0.101459 -0.00191314 0.000347405)
(0.141234 -0.00109819 -0.000476325)
(0.145375 0.000557647 0.000285304)
(0.0262097 0.00193084 0.000236672)
(0.139454 -0.00187267 0.00034444)
(0.135299 -0.0092764 0.000693468)
(0.0462446 0.000186938 0.00183853)
(0.0639116 -0.00327553 0.00127261)
(0.145231 -0.00102279 -0.000928838)
(0.140398 -0.000803269 0.000491648)
(0.135596 0.000941211 0.000137501)
(0.131892 -0.000466573 0.000674546)
(0.117441 -0.00346942 0.00108017)
(0.144944 -1.96579e-05 0.000181884)
(0.106966 0.00224932 -0.00310153)
(0.15046 0.00141502 -0.000146513)
(0.142421 -0.00130748 -0.000541439)
(0.145359 -0.00202147 0.00142241)
(0.142791 -0.001645 0.000596438)
(0.0495804 0.000235347 0.00144091)
(0.146494 -0.00138941 0.000656811)
(0.0406725 0.00138926 -0.00127752)
(0.0949236 -0.00903062 0.00534476)
(0.0711503 0.00244338 0.000549289)
(0.125758 -0.00139049 -0.00998409)
(0.13432 0.00028752 0.000598289)
(0.118859 -0.0171863 -0.00358157)
(0.141855 -0.000468659 0.000146022)
(0.14893 0.000229484 -0.000128103)
(0.143489 0.000294924 0.000197604)
(0.141406 1.47037e-05 0.00134169)
(0.0418059 -0.000250074 0.000250285)
(0.100943 -0.00387261 -0.00262744)
(0.11245 -0.00191365 -0.0154608)
(0.1427 -0.000178925 4.4562e-05)
(0.12078 -0.00256196 -8.67373e-05)
(0.13709 -0.00777534 -0.00285201)
(0.141907 0.000403925 0.00117262)
(0.120629 0.00237588 0.00115034)
(0.0426859 -0.000432615 0.00104596)
(0.0639848 -0.00316257 0.00103323)
(0.0294569 0.000332073 0.000348108)
(0.0299541 0.000234091 -0.00241398)
(0.0413005 -5.18934e-05 0.000746575)
(0.137181 -0.00331219 0.00317285)
(0.13648 0.000610338 0.000574081)
(0.0301985 -0.000843848 0.00372113)
(0.028487 0.00130801 0.00298746)
(0.144044 0.000920865 -0.000100974)
(0.0971613 -0.0118179 0.00824333)
(0.0455345 0.00150456 0.000959394)
(0.142883 0.000185617 0.000623077)
(0.111759 0.000326455 -0.00159402)
(0.136437 -5.37611e-05 0.000903754)
(0.0513298 0.00170857 -0.000789699)
(0.0629073 0.0028138 -0.00104268)
(0.120868 -0.00080904 0.00014658)
(0.143804 -0.000111417 0.000264596)
(0.143591 -3.65923e-05 -0.000287355)
(0.0432548 0.00213063 -2.4274e-05)
(0.028856 -0.00238512 0.00110903)
(0.106461 -0.0150843 -0.0112975)
(0.0312549 -0.00352591 0.000612213)
(0.136055 -0.00184354 -0.00177777)
(0.0336489 0.00136358 -0.00299084)
(0.11644 -0.000719462 0.00262355)
(0.143167 -0.000993715 0.000640101)
(0.149682 -0.000801838 0.000585697)
(0.053825 0.00113748 -0.000297969)
(0.107019 0.000206855 -0.00059358)
(0.0433261 0.00193619 -0.00124577)
(0.0337383 0.00365341 -0.00147468)
(0.143437 -7.41641e-06 -0.000581917)
(0.0240134 -0.0018245 -0.00253199)
(0.141655 -0.00200659 0.000613762)
(0.0579107 0.00132829 -0.00195202)
(0.143922 -7.061e-05 -0.000168747)
(0.139184 0.000606152 0.000208482)
(0.026008 -0.000799045 0.00353951)
(0.0682731 -0.00297018 -0.00101332)
(0.139567 0.00134367 0.000582946)
(0.0404069 -0.000715488 0.00099823)
(0.139904 -0.000894977 -0.000316803)
(0.0642529 -0.00170169 0.00300966)
(0.120502 0.000357346 0.000204186)
(0.144009 -0.00022944 -0.00108905)
(0.0437645 0.000448503 0.000897964)
(0.0282664 0.00112174 -0.00290378)
(0.0615747 0.00107088 -0.00137628)
(0.110888 0.0173061 0.0037431)
(0.115645 0.000719648 0.000951281)
(0.0648999 -0.0025649 0.00266067)
(0.0958849 0.000450438 0.00229512)
(0.0376392 -0.0015398 0.000985304)
(0.143853 -1.63482e-05 -0.00111088)
(0.0276439 -0.000932842 -0.00183826)
(0.148654 -0.00151082 -0.000227149)
(0.143529 -0.000983619 0.000803729)
(0.143703 -0.000899432 0.000281895)
(0.023124 0.0021995 0.00014379)
(0.14598 -0.00185378 0.000136131)
(0.0963105 0.000625701 -0.000427144)
(0.146346 0.000763767 0.000735704)
(0.0642837 0.000556439 -5.69529e-05)
(0.108157 -0.0129004 0.00690004)
(0.147195 -0.00160363 -2.34196e-05)
(0.0494275 0.000977053 0.000768749)
(0.144217 -0.000593883 9.02569e-05)
(0.108804 0.00221029 -0.0203495)
(0.123465 0.000240981 -1.52959e-05)
(0.0387602 0.000841165 -0.000807446)
(0.0620593 -0.000594676 -0.0021698)
(0.144075 -0.000189882 0.000280646)
(0.134413 0.00104905 -0.000882649)
(0.0395763 -0.000184924 0.000535549)
(0.117793 0.000617813 -0.00110698)
(0.0700425 0.000236632 -0.00304568)
(0.0309854 -0.0022781 0.00105258)
(0.144967 0.000191527 1.02483e-05)
(0.103375 -0.00123577 0.00993437)
(0.13827 0.00132804 -0.00204428)
(0.145045 5.86398e-05 -1.35103e-05)
(0.144883 0.000213882 0.000597282)
(0.143837 -0.000159515 -0.00105379)
(0.134852 0.000860199 0.000509152)
(0.053424 0.000739852 -0.000294688)
(0.0459531 -0.000804801 -0.00174209)
(0.149067 0.00144977 4.73109e-05)
(0.107568 -0.00924258 0.00880766)
(0.128201 -0.00182478 0.00112126)
(0.135069 -0.000658726 0.000375731)
(0.0917628 0.000744485 0.00148087)
(0.14148 0.00021251 -0.000184847)
(0.144394 0.000480718 7.58714e-07)
(0.108333 0.000340617 -0.00110864)
(0.116909 0.00167552 -0.000942642)
(0.0460108 -0.000514045 -0.00220497)
(0.082539 0.000354458 -1.81723e-05)
(0.0504255 -0.00151 -0.0027985)
(0.142396 0.000656757 0.00118824)
(0.145204 -0.000729427 0.00124156)
(0.108234 0.00147985 -0.00280302)
(0.108282 0.00213112 0.000176866)
(0.0260472 0.00252453 -0.000415059)
(0.0884682 -0.000324376 -0.000501531)
(0.069712 -0.00185987 -0.00301689)
(0.144345 7.59046e-05 -0.000813241)
(0.145344 -0.000615609 -0.000475833)
(0.104784 -0.00943515 0.00625092)
(0.142599 0.000376795 0.00108315)
(0.0918184 -0.00196391 -0.00263839)
(0.101772 -0.00259875 0.00788096)
(0.134708 0.0001263 0.00202279)
(0.0319015 -0.00181819 0.000336021)
(0.145182 -0.000168331 -0.000787223)
(0.0570661 0.00129314 -0.000184604)
(0.134888 -0.000201822 0.00139017)
(0.0352716 0.00475165 -0.00116167)
(0.14578 0.00172791 -0.00127678)
(0.101635 -0.00432825 0.00282653)
(0.143465 0.000172581 0.000194127)
(0.126065 0.00138393 0.000761695)
(0.138574 -0.000145423 -0.000643051)
(0.141343 0.000784036 -0.000104425)
(0.143215 -0.001171 -0.000612007)
(0.0395622 -0.00154132 -0.000197506)
(0.0566337 0.000597231 -0.000758448)
(0.0351574 -0.000331842 -0.000177415)
(0.143917 -3.811e-05 0.00115605)
(0.141626 0.000215606 -0.000646462)
(0.134591 0.0020051 -0.000746042)
(0.146638 0.000499426 0.000451736)
(0.0261207 0.00022352 0.00131872)
(0.110071 -0.000119283 0.000418537)
(0.0984722 0.00112698 -0.002191)
(0.144828 -0.000318608 0.000418568)
(0.131001 -0.00188902 0.00162994)
(0.13812 -0.000695079 0.000233594)
(0.115218 0.00031858 0.00150547)
(0.143307 -6.64817e-06 0.00115607)
(0.0250598 -0.0023885 -0.0025228)
(0.0957725 -0.0022483 5.06857e-05)
(0.139468 0.000121219 0.000617795)
(0.033328 -0.00288612 0.00232557)
(0.0519285 -0.000552348 -0.00241069)
(0.071928 0.00020735 6.2429e-05)
(0.0273635 0.00210467 -0.0023435)
(0.105121 0.000646542 7.07188e-05)
(0.142674 0.00128734 -0.000114332)
(0.0710166 -0.00269024 -0.00174218)
(0.0240976 -0.00264343 -0.00169313)
(0.116962 -0.000222331 -0.000144448)
(0.0318316 0.000376033 0.000214958)
(0.10897 0.000923377 -0.000673945)
(0.143688 -0.000173044 0.000528863)
(0.143628 3.81695e-05 7.29359e-05)
(0.144084 -0.000175084 -0.000366106)
(0.145529 0.00141709 -0.000805933)
(0.143392 8.85411e-05 0.000188101)
(0.135943 1.0196e-05 0.001244)
(0.0561912 0.00162237 -0.00154099)
(0.143216 0.000396859 0.000802973)
(0.131492 -0.000961204 0.00108052)
(0.0972589 -0.000922326 -0.0011281)
(0.104012 -0.00177635 -0.000270865)
(0.143116 3.36482e-05 -0.000268816)
(0.12594 -0.000693112 0.00033944)
(0.0791835 0.000832504 0.00354486)
(0.143711 -0.000664928 -0.000605548)
(0.0398731 0.00121537 0.000214011)
(0.101002 0.000562641 0.00120133)
(0.107166 6.97262e-05 -0.000482825)
(0.0717806 -0.000203439 0.000983385)
(0.143803 0.00028892 0.000295685)
(0.10652 -0.0121549 0.0130757)
(0.129081 0.00392563 0.003302)
(0.0412287 0.000541375 -0.00240203)
(0.0323646 -0.00255283 0.00112067)
(0.068111 0.00209786 0.000304369)
(0.0258444 -0.00132975 -0.00130077)
(0.131648 0.00041428 -0.000455275)
(0.137548 0.0023095 -0.000268943)
(0.132828 0.00048861 0.00051274)
(0.113481 0.00849862 -0.0102243)
(0.129075 0.00141172 0.000270129)
(0.134878 0.00213847 0.000273149)
(0.0296502 -0.00268134 0.00547054)
(0.138057 0.0015378 -0.000381782)
(0.125688 -0.00196924 0.0103473)
(0.0529707 0.000447008 -0.00123248)
(0.027752 -0.00357824 0.000601583)
(0.121516 -0.000186419 0.00225356)
(0.121459 -0.000149661 -0.00108511)
(0.033213 -0.00169743 0.00353484)
(0.147829 -0.00155741 -0.000922028)
(0.0286242 -0.00259201 0.0029551)
(0.144476 -0.000727218 -0.000458981)
(0.142258 -9.29008e-05 0.000406902)
(0.124227 -0.00220523 0.00147497)