/*--------------------------------*- C++ -*----------------------------------*\
| =========                 |                                                 |
| \\      /  F ield         | OpenFOAM: The Open Source CFD Toolbox           |
|  \\    /   O peration     | Version:  2406                                  |
|   \\  /    A nd           | Website:  www.openfoam.com                      |
|    \\/     M anipulation  |                                                 |
\*---------------------------------------------------------------------------*/
FoamFile
{
    version     2.0;
    format      ascii;
    arch        "LSB;label=32;scalar=64";
    class       volScalarField;
    location    "58";
    object      epsilon;
}
// * * * * * * * * * * * * * * * * * * * * * * * * * * * * * * * * * * * * * //

dimensions      [0 2 -3 0 0 0 0];

internalField   nonuniform List<scalar> 
59516
(
0.0102764
0.00888852
0.00678922
0.00568196
0.00922458
0.345175
0.00635293
0.00859137
0.0075405
0.019668
0.00702725
0.0233008
0.00717315
0.0691451
0.0170811
0.0203191
0.00415986
0.0380789
0.0129626
0.00333652
0.031405
0.0040017
0.004458
0.0282926
0.0031871
0.0153048
0.0278736
0.0419847
0.0217864
0.0489785
0.0457931
0.0374774
0.00495395
0.00743464
0.00837799
0.00416367
0.0472818
0.0437928
0.0153842
0.00318448
0.00899771
0.00945825
0.0068778
0.00953971
0.0063098
0.0208757
0.00862734
0.00578046
0.012628
0.00760014
0.0271118
0.0227973
0.00657373
0.00613416
0.0249234
0.0086718
0.00942033
0.0237349
0.00261187
0.0106564
0.00384742
0.0365671
0.00292636
0.00430999
0.00607465
0.00633989
0.0462924
0.023206
0.0200283
0.0071855
0.0224622
0.0036848
0.0372161
0.00521563
0.00243992
0.00533508
0.00533904
0.00394616
0.0208538
0.0073838
0.0264481
0.00740002
0.00804905
0.0413518
0.00769772
0.00298715
0.029064
0.00421387
0.0190836
0.0253974
0.00988365
0.00474918
0.00262297
0.00497435
0.0033217
0.0106358
0.00464597
0.0210709
0.0290669
0.00403713
0.0236439
0.035865
0.0355563
0.0184405
0.00509876
0.00406827
0.0256289
0.00833983
0.00906038
0.0150006
0.0198645
0.0193531
0.0162907
0.0300862
0.00326382
0.0102656
0.0183098
0.0052508
0.0339891
0.0040056
0.00234189
0.003086
0.00321517
0.00306079
0.0154399
0.0181657
0.0344617
0.0125409
0.0817473
0.00244004
0.00233127
0.00774778
0.0350219
0.00387216
0.00923324
0.00673783
0.036457
0.00518952
0.0243594
0.0102508
0.0216533
0.00217146
0.0469465
0.00590218
0.0029732
0.00439953
0.00710534
0.00825407
0.252765
0.00801139
0.00994202
0.0263939
0.00281126
0.00351231
0.0112937
0.0524722
0.00683247
0.00692759
0.0132865
0.0451661
0.0152965
0.0144916
0.0289777
0.053325
0.00965945
0.0026209
0.0163736
0.0026295
0.0421079
0.00505145
0.0127545
0.0227297
0.0139892
0.0047966
0.0212242
0.00880888
0.00284732
0.00712925
0.0144527
0.027705
0.00401629
0.0342816
0.046634
0.0178737
0.00243523
0.0194607
0.0295721
0.0423594
0.00637949
0.00971906
0.00517556
0.021337
0.00310076
0.0187226
0.00355471
0.0338748
0.0204075
0.0258136
0.00782975
0.00352501
0.0136446
0.00225198
0.00878322
0.0448437
0.00557114
0.00423423
0.00255944
0.00376756
0.0458382
0.00728181
0.0232099
0.0573408
0.00430269
0.0195593
0.00711262
0.00272729
0.00452813
0.00325235
0.0200063
0.0033681
0.0203172
0.00833216
0.00308501
0.0234931
0.00284376
0.00276698
0.0234337
0.0210291
0.00275916
0.0190305
0.00256502
0.00274771
0.00240505
0.0288116
0.029816
0.02696
0.018429
0.00881678
0.00344511
0.022216
0.00232382
0.0419141
0.0205257
0.0361432
0.00245246
0.0114246
0.00414212
0.01435
0.00259731
0.0085817
0.00277053
0.00450723
0.00235126
0.00418598
0.00415577
0.00330664
0.0219114
0.00362441
0.0208437
0.0171067
0.0054502
0.00306243
0.0074679
0.00245063
0.0096954
0.0201132
0.0033166
0.0112239
0.0186055
0.0220202
0.0118587
0.00272662
0.00926168
0.0107338
0.00288453
0.0110802
0.033904
0.0030524
0.0264253
0.0229747
0.00244393
0.00466225
0.0324644
0.00665012
0.00601862
0.00388052
0.00243264
0.0328204
0.00249617
0.00258234
0.00268139
0.00518688
0.00493282
0.0102363
0.00267399
0.0200119
0.0032823
0.00431312
0.00239169
0.00288345
0.00674666
0.0182228
0.0350792
0.0197975
0.0029893
0.0435143
0.0139693
0.0221508
0.00289241
0.00253111
0.00333928
0.0183213
0.008763
0.0246698
0.0269726
0.00347101
0.00996901
0.011715
0.0116512
0.0254203
0.0157606
0.00865427
0.00263789
0.00235465
0.00250414
0.00319098
0.0190275
0.00561452
0.00296599
0.00327628
0.00301717
0.018698
0.0365682
0.0038249
0.0212178
0.0289671
0.00314171
0.00418789
0.0277919
0.00271322
0.00278599
0.00235464
0.00267401
0.0274898
0.0031962
0.00267918
0.0204527
0.00242503
0.00273551
0.00537239
0.00593958
0.00366955
0.00405559
0.0169361
0.0331383
0.0244609
0.00977371
0.0524175
0.0968309
0.0143125
0.00744231
0.00534928
0.00646563
0.00336786
0.00511329
0.00380322
0.00393156
0.0282899
0.0360383
0.0201788
0.0241531
0.0250981
0.00329582
0.0101339
0.00326174
0.0392234
0.00567838
0.0247864
0.00305412
0.0246072
0.0169563
0.00816057
0.00716746
0.0413953
0.0189078
0.00501742
0.0312333
0.0121622
0.00739132
0.00495379
0.0107021
0.0107551
0.00315305
0.0671343
0.00236745
0.0281988
0.0159764
0.0163204
0.00247097
0.00240834
0.0218771
0.00529897
0.0101908
0.00238538
0.0024196
0.0189672
0.00553208
0.00402543
0.00387435
0.00334039
0.0350597
0.0370006
0.00548588
0.0025316
0.00239356
0.0262762
0.00287539
0.0080113
0.00259499
0.00253277
0.00241216
0.00260197
0.00263386
0.0110783
0.00249723
0.0164412
0.00299001
0.00846202
0.00363543
0.00267776
0.00405947
0.00435735
0.0238567
0.0292356
0.0375943
0.00771537
0.00212008
0.0047587
0.00566408
0.0295784
0.0386321
0.00723497
0.00379832
0.00256677
0.00342764
0.00465201
0.00230974
0.00474962
0.026507
0.00617716
0.0188753
0.114982
0.0036619
0.0100514
0.00425995
0.0409544
0.00245035
0.00253768
0.00257893
0.0115449
0.00374284
0.00265244
0.00618079
0.00252998
0.0150636
0.00275062
0.00387463
0.0365641
0.00244743
0.00687425
0.020214
0.0106736
0.00276477
0.00555276
0.0133544
0.0387117
0.00250126
0.00557226
0.00322309
0.00577139
0.025814
0.00448678
0.0541169
0.0031882
0.0169914
0.00291303
0.0185404
0.00825505
0.00986182
0.0265201
0.00233106
0.0028132
0.0423654
0.00309631
0.00256328
0.0249808
0.0164436
0.0183162
0.00361897
0.00262615
0.0843954
0.0204873
0.0197808
0.00753463
0.0025533
0.0334467
0.00327905
0.00457107
0.00241089
0.114203
0.00275578
0.0302447
0.00323048
0.0374233
0.0208547
0.00365276
0.0178112
0.0394442
0.0273104
0.0183976
0.0198829
0.00407136
0.0225777
0.0166861
0.0123338
0.00284767
0.0246093
0.00803929
0.0677733
0.00269409
0.0217836
0.00319058
0.0203343
0.00597286
0.00259863
0.0193759
0.00250356
0.0533176
0.0478917
0.00381093
0.00246182
0.00539391
0.00597363
0.00248114
0.0178233
0.00285024
0.0178993
0.00267005
0.00571586
0.0257849
0.00350413
0.0187654
0.0255299
0.00397379
0.0250948
0.0049117
0.00253006
0.00535297
0.0187808
0.00244762
0.0122982
0.00219742
0.00217115
0.00245693
0.00249442
0.022741
0.0211186
0.0024754
0.00309881
0.0312851
0.00320507
0.00231087
0.00247098
0.00237425
0.00711827
0.0409141
0.00243159
0.00906184
0.00373709
0.00954932
0.0230726
0.00255519
0.0116717
0.00480253
0.00237965
0.00442465
0.0477147
0.0360049
0.00268604
0.00290677
0.00245688
0.00400466
0.0120768
0.00414572
0.00261957
0.0318455
0.00264764
0.0137404
0.0253408
0.0168071
0.00422614
0.00439295
0.00489193
0.00614832
0.00928671
0.00251397
0.0107661
0.00255564
0.00275344
0.00203451
0.00266677
0.0238338
0.00301932
0.0312829
0.0949006
0.0173949
0.0108355
0.00501131
0.0299473
0.0029012
0.00243632
0.00372515
0.00265081
0.0280705
0.0104264
0.014273
0.0026575
0.00745998
0.0125187
0.00681538
0.00740404
0.0248491
0.0214896
0.0232721
0.0403168
0.0261616
0.0113138
0.00473902
0.0451318
0.0393084
0.00245372
0.0656734
0.0275307
0.00417183
0.00805715
0.00517452
0.0271218
0.0206651
0.00754737
0.0028124
0.00378307
0.0286136
0.0300685
0.0596086
0.0315715
0.00490646
0.0288793
0.00914535
0.00261538
0.00225632
0.023168
0.00945913
0.0288957
0.0327289
0.00259748
0.0450872
0.00301502
0.0190138
0.0034966
0.0044534
0.0392568
0.0200303
0.00394923
0.0264195
0.00330104
0.0214246
0.0086126
0.00242986
0.0267992
0.0368817
0.0200745
0.0190533
0.00902981
0.0213885
0.0139714
0.0347857
0.0024359
0.0259268
0.00271553
0.00418616
0.00290682
0.047455
0.00382775
0.0123793
0.00341264
0.0221878
0.0140948
0.00318335
0.0258899
0.00236346
0.0294971
0.0063883
0.0311813
0.0183201
0.00250786
0.00537678
0.02839
0.00733932
0.0182751
0.0317197
0.00255777
0.0121226
0.00534307
0.00277018
0.00264481
0.00283737
0.00517472
0.0202697
0.0236268
0.00246694
0.0125817
0.00714379
0.00544396
0.0147585
0.00390194
0.00315985
0.00925954
0.00911389
0.0310836
0.0120241
0.0275704
0.00369968
0.00262461
0.0111619
0.00961461
0.0414558
0.0142813
0.0204588
0.00259537
0.00254057
0.0127686
0.0032769
0.0139808
0.016005
0.00497664
0.0368323
0.00254597
0.0237628
0.00465617
0.0327313
0.00245516
0.0106344
0.00341758
0.00739822
0.00420027
0.00390201
0.00235021
0.0250832
0.017931
0.0357409
0.00276473
0.00351273
0.00509649
0.00314371
0.0576681
0.00948492
0.0113586
0.00269614
0.00574099
0.00433832
0.00925375
0.00257894
0.0391735
0.0127068
0.00385456
0.0238904
0.0225824
0.0166759
0.038474
0.0112514
0.00289788
0.017568
0.0436175
0.00856619
0.0227625
0.00914138
0.00272623
0.00240573
0.00279865
0.00289609
0.00272372
0.00571796
0.029731
0.00258523
0.00558413
0.0125524
0.00950422
0.00307289
0.00716324
0.0154052
0.00333654
0.0270683
0.0117571
0.0105446
0.0173905
0.00340311
0.0423986
0.0153059
0.0288478
0.0340212
0.0183831
0.038936
0.00592177
0.00376308
0.00575006
0.0301763
0.00522143
0.00415235
0.037034
0.00354399
0.010317
0.0237876
0.037731
0.00723705
0.00781726
0.0300229
0.00318817
0.0363343
0.00253462
0.00359598
0.00628122
0.00346425
0.00520092
0.00916983
0.00249511
0.0539333
0.0291125
0.00954294
0.0093415
0.0453552
0.00438749
0.0127752
0.00256714
0.00304129
0.0146511
0.00370305
0.00242595
0.0115256
0.0199315
0.0028655
0.00982688
0.0241847
0.00328965
0.0029064
0.00332395
0.0102992
0.00542122
0.00849914
0.0127079
0.00914691
0.00962884
0.00515658
0.0188509
0.00353797
0.00268908
0.00930486
0.00426373
0.00803604
0.00627849
0.0268234
0.0181941
0.0060874
0.0045401
0.00503207
0.002482
0.00371898
0.00239475
0.00228692
0.228162
0.00711684
0.0025768
0.0345688
0.0043571
0.00396686
0.0351675
0.00351735
0.00271503
0.00907654
0.00267153
0.0025467
0.00257839
0.0172938
0.010617
0.0239815
0.00787092
0.00283691
0.0305267
0.0332067
0.0199401
0.00656576
0.0233126
0.00385895
0.00283644
0.00279758
0.00330643
0.0121784
0.0172646
0.00358583
0.00312943
0.00760541
0.0123583
0.00351384
0.00268236
0.00241535
0.0282124
0.0021789
0.0107026
0.0136919
0.0273078
0.0193766
0.0116247
0.0026812
0.021153
0.00287624
0.00264031
0.00306883
0.00241206
0.00272377
0.00235754
0.00276399
0.00243757
0.009631
0.00490075
0.00636623
0.0274871
0.0226075
0.0033445
0.00557222
0.027346
0.00299221
0.00880248
0.00261278
0.00254794
0.00262031
0.0040546
0.0115596
0.00264457
0.122637
0.0101702
0.0026288
0.0700825
0.00284213
0.0263235
0.012929
0.00338751
0.0145657
0.0246288
0.00328418
0.00361471
0.00365736
0.026952
0.00295472
0.0272026
0.0110804
0.0163965
0.0183029
0.00959182
0.00250686
0.017098
0.00358671
0.00302274
0.00787465
0.0025378
0.00248344
0.00777855
0.00228214
0.00284351
0.0151867
0.00252805
0.0192957
0.0282472
0.00291867
0.00793488
0.0199568
0.00265076
0.00831125
0.0136283
0.00768108
0.0422849
0.00275944
0.00285476
0.00749995
0.0313326
0.0200203
0.00981129
0.0197137
0.0049409
0.00544328
0.0091177
0.0423879
0.00774709
0.00276206
0.00861717
0.00264299
0.00277781
0.027705
0.00350109
0.00254221
0.00757332
0.00442069
0.0280495
0.00709922
0.00365709
0.00208699
0.0168069
0.00339557
0.0114636
0.00770765
0.0359896
0.00694972
0.01229
0.024493
0.00643865
0.0245968
0.00320693
0.0083656
0.00247023
0.066077
0.00220864
0.0102463
0.0207845
0.00991023
0.00464836
0.0350922
0.00319872
0.00372605
0.0220589
0.0505059
0.0214973
0.00224173
0.00387935
0.0026837
0.00924821
0.0228696
0.00396078
0.0336943
0.00836585
0.00267097
0.00819673
0.0212116
0.00424776
0.03672
0.0123914
0.00356893
0.00252903
0.0368095
0.00362776
0.00613608
0.0196688
0.00285333
0.00337573
0.00199592
0.00756139
0.0102335
0.0195652
0.00294247
0.00385933
0.0359864
0.0262776
0.0190337
0.00264462
0.0105523
0.00313496
0.0222128
0.00261984
0.0275635
0.00491439
0.0154422
0.00292118
0.00254299
0.00451655
0.00470392
0.0344711
0.0291483
0.00407864
0.00503217
0.0332638
0.0277814
0.00303352
0.00361244
0.00320675
0.00906866
0.0048584
0.00267516
0.00288116
0.0179541
0.0123051
0.0170008
0.00408375
0.0125522
0.0290779
0.027514
0.0023712
0.00786954
0.0103272
0.0032118
0.00318003
0.0339518
0.00285612
0.00267481
0.0241684
0.0346351
0.00280576
0.00226161
0.034927
0.0495471
0.00240926
0.00944396
0.0367124
0.0160379
0.00237627
0.00258836
0.00270528
0.00537113
0.00290227
0.0329068
0.0283202
0.00259978
0.00270779
0.00954565
0.00363858
0.021961
0.0200222
0.0214491
0.0068942
0.0466358
0.00362072
0.00448349
0.0105385
0.0186692
0.039715
0.00249225
0.00227704
0.00669288
0.0025413
0.0086487
0.00342245
0.0226751
0.0190564
0.210899
0.00837464
0.00436119
0.0092625
0.0208678
0.0115611
0.00703622
0.00418578
0.0106979
0.00350986
0.00261177
0.00863149
0.0205915
0.0321563
0.00316235
0.0334636
0.00674774
0.00621027
0.0119028
0.0355196
0.00410492
0.0172812
0.0456619
0.0383856
0.00523202
0.00249984
0.00556895
0.00544953
0.0127048
0.00814331
0.0516816
0.0266251
0.0239171
0.00236571
0.00926986
0.00421896
0.0083889
0.00855413
0.00534902
0.037633
0.00666922
0.0367083
0.00296923
0.00803322
0.031756
0.00229793
0.0105834
0.00543512
0.0116375
0.0209439
0.0377172
0.00355572
0.02239
0.00269841
0.00259685
0.00619171
0.0163998
0.0334759
0.00876574
0.0244815
0.0031447
0.00315188
0.0027756
0.0214868
0.00322853
0.00322606
0.00345569
0.00314964
0.0382748
0.022497
0.00283818
0.00817389
0.0169863
0.00244457
0.00610856
0.00569094
0.00977034
0.0268012
0.131919
0.0233478
0.00337425
0.00274724
0.00626706
0.0356757
0.0276294
0.00388795
0.00681811
0.016007
0.00233633
0.00321487
0.0029758
0.00265903
0.00233902
0.00309606
0.00441048
0.00764292
0.00715082
0.00753527
0.0146705
0.0173047
0.00231488
0.00545494
0.0279324
0.0205842
0.00248556
0.0307692
0.00404552
0.0100619
0.00275501
0.0040265
0.00745849
0.00237124
0.00273117
0.00289674
0.0200452
0.0227383
0.00381188
0.00226827
0.0368816
0.0123665
0.00623653
0.00261976
0.004619
0.0474547
0.00897162
0.0048787
0.0132618
0.00244548
0.00693293
0.0401418
0.00607011
0.0335003
0.0110524
0.0443351
0.00332411
0.0038201
0.00245597
0.0383026
0.0202359
0.0126074
0.00358481
0.0228796
0.0219203
0.0108958
0.00255934
0.0276244
0.00213807
0.00374535
0.0165057
0.0174411
0.0225267
0.0029559
0.00234406
0.00423194
0.00635015
0.00978044
0.0095687
0.0099632
0.0304963
0.0315652
0.0255989
0.0111185
0.00242514
0.0289984
0.0475123
0.0218474
0.0350224
0.00354109
0.0328705
0.00271038
0.00253742
0.00420739
0.0166523
0.00290103
0.0279446
0.017555
0.00246627
0.00288618
0.00662507
0.00988106
0.00289725
0.0375264
0.00542652
0.0034523
0.00265637
0.0108359
0.00344819
0.00233729
0.00881294
0.025798
0.0338608
0.0088235
0.00246133
0.0303375
0.0127058
0.00276848
0.0259011
0.0276974
0.00956576
0.0445771
0.0152452
0.0391826
0.0227218
0.0274016
0.0408282
0.0267606
0.0429738
0.00854215
0.0132842
0.00251075
0.041031
0.00245578
0.00569954
0.00385631
0.00723121
0.00361557
0.0290998
0.00311558
0.0107071
0.0109649
0.00243362
0.00550303
0.048462
0.00697025
0.0122736
0.0301423
0.031119
0.00464823
0.0109218
0.0335851
0.00400215
0.0046115
0.00242007
0.00293407
0.0221252
0.0070417
0.0121416
0.0110763
0.00462774
0.00449147
0.0028315
0.0108599
0.00345384
0.0052097
0.010562
0.00886203
0.00847713
0.00675241
0.0116154
0.00264188
0.00519996
0.0432228
0.00480956
0.047632
0.119732
0.0209148
0.00455029
0.00476994
0.00790568
0.00351708
0.00710323
0.0141236
0.00763542
0.0434775
0.035801
0.0548125
0.0199552
0.0208383
0.00294007
0.0221099
0.00695846
0.0328034
0.0301658
0.00240315
0.0202705
0.00335534
0.00571547
0.00296878
0.0273613
0.0228835
0.00613508
0.00402577
0.0416749
0.00479706
0.0184423
0.00848335
0.00245902
0.00366604
0.00259762
0.0095248
0.00994733
0.0120878
0.0161975
0.0272955
0.0228352
0.0312326
0.00818152
0.00256138
0.0142755
0.0186796
0.00973376
0.0037116
0.0036042
0.0200399
0.00503134
0.0331398
0.016384
0.00382953
0.0221507
0.0130128
0.0104613
0.00664853
0.00898917
0.00405106
0.0109566
0.00940184
0.00292033
0.0079471
0.00298537
0.0369611
0.0382975
0.00588025
0.00915741
0.00392855
0.00819812
0.0100649
0.0415275
0.00513561
0.00561694
0.00423301
0.011325
0.0241836
0.0190331
0.0233957
0.00630955
0.0171688
0.00874037
0.037236
0.00703213
0.0241248
0.0133085
0.00270236
0.0198207
0.00370909
0.00342679
0.0259914
0.0328886
0.00760447
0.0671378
0.00366414
0.00294441
0.0123942
0.00411447
0.01794
0.00688007
0.030158
0.00835457
0.00643894
0.00235923
0.0461497
0.00315327
0.00587198
0.0131372
0.00507069
0.0278638
0.0031014
0.029011
0.00387643
0.00626721
0.00439637
0.00531719
0.0242706
0.0365027
0.00571897
0.00246834
0.0248034
0.00842076
0.0297557
0.00587859
0.0187521
0.0402483
0.010354
0.00412079
0.0118863
0.00258928
0.00735685
0.00447081
0.0304471
0.0025828
0.0282665
0.0141318
0.00274249
0.00266202
0.0059486
0.038513
0.0223731
0.00272503
0.00266796
0.004243
0.00399307
0.0037306
0.053413
0.00486971
0.00449059
0.005456
0.0208799
0.00567362
0.00271774
0.00544514
0.0027138
0.00281987
0.0195563
0.00366114
0.022886
0.00362331
0.0103981
0.00531593
0.00368141
0.00266515
0.00271346
0.0270963
0.00220226
0.0201551
0.032594
0.00583956
0.0214085
0.0035478
0.0395646
0.0205781
0.0217527
0.013042
0.00594695
0.0300459
0.0300568
0.004595
0.010684
0.00245057
0.00921659
0.0370664
0.0119352
0.0253071
0.00786862
0.00380612
0.0202423
0.00390445
0.00242583
0.00317588
0.00305168
0.00239264
0.00321545
0.00251831
0.00403098
0.0187339
0.0426335
0.00443929
0.0445227
0.00674137
0.00653489
0.0129345
0.00241184
0.00583657
0.025729
0.00268407
0.0241692
0.0100587
0.0178132
0.00530743
0.00242503
0.0134573
0.00870733
0.0237908
0.00608014
0.00665104
0.0117409
0.00446482
0.0462409
0.0325593
0.00240277
0.00598807
0.00277797
0.0090621
0.0525761
0.00241396
0.0171602
0.00233421
0.00343148
0.0286921
0.00371247
0.00289447
0.0276042
0.0198169
0.00237852
0.00958095
0.0356584
0.00359238
0.0221953
0.0361073
0.0103656
0.00256003
0.0025507
0.00432984
0.00291695
0.00412895
0.00270168
0.00755906
0.00865862
0.00250858
0.00408515
0.0413092
0.0264336
0.00635637
0.0030109
0.0070117
0.0372777
0.0341435
0.00415794
0.0235556
0.00382826
0.00301132
0.00253141
0.0233108
0.0135968
0.00269758
0.00748519
0.00387455
0.00458417
0.0196294
0.0286081
0.00271596
0.0321729
0.0157742
0.0284783
0.0239741
0.00287117
0.0025193
0.00406894
0.00850671
0.0108514
0.0109439
0.00280917
0.00368811
0.0207351
0.00221329
0.00316968
0.00322709
0.0345398
0.00616599
0.0342234
0.0110903
0.0229432
0.00337936
0.0043896
0.01174
0.0293124
0.012726
0.0168684
0.0458674
0.00371335
0.0359604
0.020163
0.00274084
0.00301022
0.0023951
0.0266357
0.00840705
0.0216836
0.0024807
0.00335846
0.00287067
0.00263979
0.0244067
0.00434572
0.00711141
0.00247434
0.00274569
0.00281755
0.00310684
0.00254946
0.0413097
0.0282863
0.00729537
0.00234001
0.00426311
0.0245278
0.00258874
0.0186454
0.00637131
0.00455181
0.0122009
0.0204145
0.0187519
0.0439554
0.00346551
0.00438635
0.019619
0.00657187
0.0422364
0.00363242
0.00220705
0.0377191
0.00671101
0.00566166
0.00300376
0.0917372
0.0442033
0.0301837
0.0160621
0.0182872
0.035355
0.029488
0.0410049
0.0124571
0.00305556
0.00487685
0.00349601
0.0060427
0.038386
0.00323449
0.00701465
0.0460829
0.0457006
0.0327545
0.0113876
0.0235446
0.00340177
0.0148918
0.00251382
0.00797232
0.0238051
0.0120699
0.00353969
0.00253307
0.00401668
0.0031833
0.00276149
0.0221024
0.00840423
0.0036641
0.00377
0.051315
0.0134112
0.00848463
0.0060872
0.00713761
0.00256082
0.0191131
0.0333609
0.0390694
0.00997726
0.00238901
0.00206518
0.00403179
0.018216
0.00835479
0.0240838
0.00986101
0.00293892
0.0241693
0.0179935
0.00278473
0.00406112
0.00345091
0.00305951
0.011531
0.0161702
0.00399112
0.00914404
0.00635936
0.00432948
0.00532094
0.00284535
0.0132204
0.00449782
0.0413085
0.0316396
0.0445929
0.0106904
0.00689303
0.00941214
0.0240386
0.00383013
0.0226721
0.0193498
0.0404514
0.00688224
0.00222356
0.00270451
0.0397444
0.0187295
0.0228744
0.0345567
0.0193775
0.00231201
0.00213102
0.0299344
0.0260286
0.0196719
0.00243456
0.00211375
0.00431595
0.0107589
0.0034185
0.0043619
0.00996653
0.0272831
0.00232178
0.00448473
0.00449301
0.00644244
0.0041946
0.00263971
0.0143307
0.00643064
0.0158295
0.00958564
0.0029147
0.00257265
0.0488033
0.00272475
0.0347292
0.00329856
0.00369313
0.00289535
0.00314444
0.0208908
0.0370742
0.020325
0.00264026
0.00251805
0.00579517
0.00280529
0.0333345
0.0111673
0.00308579
0.00252506
0.00782142
0.0237175
0.0150649
0.0079801
0.00259134
0.00293107
0.00301348
0.00227162
0.00360397
0.00403576
0.0115643
0.00280934
0.00311817
0.00405721
0.0115554
0.0274179
0.0371451
0.0143602
0.0085899
0.00238205
0.00243631
0.0315836
0.0077888
0.00475971
0.00504061
0.010413
0.00305648
0.00439026
0.00540739
0.00212605
0.00924388
0.00523704
0.0211644
0.00774334
0.00435431
0.036003
0.00607718
0.00375768
0.00492643
0.00316224
0.00242289
0.0357098
0.00295185
0.0124435
0.00252158
0.0146971
0.00265677
0.00572295
0.0108473
0.00634911
0.0364221
0.00601623
0.0234206
0.0260603
0.00414001
0.0332412
0.00267849
0.00328251
0.00245881
0.0227215
0.00956582
0.0377245
0.00516822
0.0270785
0.0103141
0.00343483
0.00284666
0.00247735
0.00393544
0.00354214
0.00249583
0.00363981
0.00336323
0.0036059
0.0229527
0.00980926
0.00221985
0.00223958
0.0185162
0.00397935
0.00300471
0.00256249
0.0361576
0.00496266
0.0357949
0.00229482
0.0303366
0.0265292
0.00720299
0.00523889
0.00464265
0.00707734
0.0281489
0.00304871
0.028866
0.0286948
0.00369243
0.0219128
0.0124667
0.00550507
0.00330185
0.0386054
0.0184644
0.0293109
0.00275441
0.00310489
0.0169834
0.0034221
0.0109658
0.0175834
0.00503029
0.0255343
0.00481851
0.00370865
0.00259655
0.00303229
0.00255069
0.00226897
0.00650243
0.00204251
0.00373344
0.00282531
0.00843048
0.00998813
0.00219801
0.0136101
0.00361782
0.00396462
0.00348853
0.00416842
0.0021821
0.00463334
0.0255098
0.00321148
0.00221051
0.0185971
0.00650497
0.00236024
0.105969
0.00334904
0.00285279
0.0106303
0.00577738
0.0213095
0.00754112
0.00248958
0.00366697
0.0103679
0.0217643
0.0183339
0.00581601
0.0244761
0.0307146
0.0312882
0.00465559
0.00250472
0.00211663
0.00503289
0.0040358
0.00454125
0.0176069
0.0081854
0.00236362
0.00213499
0.00218822
0.00211999
0.0332125
0.0487231
0.0420924
0.015903
0.00375471
0.00268879
0.0023743
0.0116976
0.00369361
0.00280477
0.0386714
0.00233116
0.00317293
0.00247446
0.00264048
0.0149546
0.020523
0.00672535
0.0215636
0.00309255
0.00421335
0.0097889
0.00367369
0.0106179
0.0171446
0.00936719
0.00241006
0.0120447
0.00581385
0.00261913
0.0192218
0.024889
0.00307864
0.00246498
0.0196411
0.0257502
0.0110508
0.0370264
0.00240142
0.00680549
0.0202044
0.00223205
0.00233051
0.00262576
0.00578995
0.00296933
0.0035204
0.0032479
0.00428442
0.0119027
0.00414094
0.0162533
0.013948
0.0209315
0.00240212
0.00721381
0.00314937
0.0047385
0.0107369
0.00898768
0.0388401
0.00906749
0.0396296
0.0109533
0.00434926
0.00350879
0.00254234
0.00341371
0.02791
0.0227019
0.00325076
0.0136722
0.0167414
0.00576726
0.0236979
0.00249839
0.00429022
0.00311398
0.00705533
0.00307536
0.00658353
0.00347762
0.0262782
0.0026947
0.0282871
0.0293967
0.0170157
0.00505403
0.00662857
0.00235456
0.0289404
0.00712577
0.00366468
0.00915353
0.0129689
0.0116132
0.0257108
0.0185047
0.0248306
0.0168167
0.00206647
0.0211941
0.00360834
0.0182634
0.0413583
0.0105598
0.0239765
0.0496584
0.0373734
0.00458421
0.00730504
0.00286636
0.0168828
0.0023537
0.0271155
0.00759891
0.0186638
0.00373238
0.00308774
0.0416037
0.00520012
0.00340904
0.00346783
0.0050567
0.00545753
0.00295203
0.00333981
0.00292578
0.00448647
0.0263221
0.0114129
0.0220047
0.00350806
0.0341806
0.0116206
0.00374844
0.0148763
0.00827534
0.0412406
0.00748358
0.00887459
0.00243234
0.00593006
0.00292264
0.00465882
0.00279079
0.00498322
0.00211237
0.0202891
0.0212388
0.00352489
0.0031606
0.0047936
0.00371898
0.00308549
0.00398569
0.00395096
0.0285494
0.00374127
0.00230881
0.0281592
0.00597463
0.0284221
0.0054469
0.016145
0.0232049
0.00336542
0.0251936
0.0271159
0.0374675
0.0311893
0.0273848
0.00264969
0.00990212
0.00237578
0.00524663
0.0181116
0.00312291
0.0024332
0.00298427
0.0385314
0.00417323
0.00791507
0.00734427
0.0034882
0.0309906
0.029563
0.00415196
0.0265998
0.00253037
0.0222053
0.00622317
0.0160655
0.00223284
0.00224959
0.00318655
0.0242285
0.0376468
0.0266765
0.00369679
0.0188072
0.0494318
0.00724431
0.0106103
0.0306826
0.00982943
0.0184016
0.00558687
0.00397303
0.00244602
0.00372455
0.0953964
0.00820401
0.0367774
0.0023497
0.00364178
0.00627548
0.00329073
0.0109957
0.00786539
0.0373543
0.00415426
0.00929737
0.00238559
0.00261129
0.0190771
0.0450709
0.00268541
0.00317399
0.00260765
0.0166385
0.00474193
0.0370562
0.0259556
0.0230348
0.00271605
0.0309026
0.00765352
0.0425957
0.0218126
0.00424974
0.0213708
0.0273677
0.0280803
0.00399975
0.00363552
0.00273347
0.0204709
0.00537415
0.00266181
0.00659396
0.00671038
0.00392236
0.00258305
0.00263228
0.0366198
0.00366716
0.0135114
0.0159525
0.0228487
0.00249661
0.00266389
0.00988234
0.00407096
0.0450585
0.0074509
0.00574304
0.0409644
0.00314762
0.00304482
0.0040422
0.0189917
0.0024935
0.020601
0.00229761
0.0187407
0.0385447
0.00256326
0.00290279
0.0168796
0.00408746
0.00291735
0.00263484
0.00244981
0.0192169
0.0299379
0.00274577
0.00401926
0.00415419
0.00329553
0.0211281
0.00487891
0.0194407
0.0165709
0.00322564
0.00272433
0.00950771
0.00381412
0.00663621
0.0258236
0.0655616
0.00250324
0.00332052
0.0211335
0.0316316
0.0119874
0.0039893
0.00432312
0.0384284
0.0111342
0.0033011
0.00263303
0.00322282
0.00389613
0.00753744
0.00226142
0.00374787
0.00285151
0.0114234
0.028414
0.037736
0.00649883
0.00848637
0.00385324
0.00339732
0.00265452
0.00296777
0.00244293
0.00307576
0.00338032
0.00267908
0.00922598
0.00327047
0.00327613
0.0102474
0.00318257
0.0102818
0.0287674
0.00639018
0.00483238
0.00519636
0.00598274
0.00518705
0.0108008
0.0208409
0.00404323
0.0034738
0.00419984
0.00681195
0.0331121
0.00691521
0.00893732
0.0368445
0.00447882
0.0293953
0.00652749
0.00369517
0.00431992
0.0049887
0.00786824
0.0257057
0.0337796
0.0660373
0.00266222
0.0216035
0.00330706
0.00308645
0.023118
0.00233297
0.0100101
0.00237871
0.00667807
0.00637452
0.0141538
0.00211013
0.00257935
0.0442139
0.00310454
0.0259448
0.0457376
0.00480767
0.0170559
0.00277192
0.00295895
0.0025794
0.00885914
0.0124839
0.0041728
0.00302001
0.004209
0.0198924
0.0335409
0.00658298
0.00352503
0.00737733
0.00254357
0.0123428
0.00992045
0.00314604
0.00286651
0.00294853
0.0107984
0.00810962
0.0117019
0.00533166
0.0041639
0.0076216
0.00883676
0.0263151
0.00387431
0.00429202
0.00336046
0.00293255
0.00410904
0.00242235
0.0251988
0.0062398
0.0136478
0.0201307
0.00339449
0.0134784
0.00224304
0.0026923
0.00416138
0.037171
0.00945057
0.00398189
0.00258205
0.0183614
0.00317056
0.0132067
0.0054408
0.0126609
0.00774733
0.00361358
0.00299579
0.0462453
0.00474276
0.00287202
0.00322301
0.0104354
0.0037704
0.00341744
0.132286
0.00219654
0.0228843
0.00414243
0.00270188
0.00304116
0.00687298
0.0103369
0.0141644
0.0180932
0.0265436
0.00273138
0.00274421
0.0884162
0.0251064
0.00412503
0.00450559
0.0201038
0.00877673
0.00442945
0.00480763
0.00424059
0.0402674
0.00343153
0.0203589
0.0231538
0.0029036
0.0197252
0.0118919
0.0342493
0.0224118
0.0122278
0.0200633
0.00620474
0.0190739
0.00729474
0.0283821
0.0358348
0.00619034
0.0295631
0.0178606
0.0042772
0.0316739
0.0039935
0.0190822
0.0155823
0.0212684
0.00245434
0.0304625
0.0284875
0.00521466
0.00386642
0.00589927
0.0220847
0.00495155
0.0117601
0.00600771
0.0161984
0.0094596
0.00224278
0.00993053
0.00248686
0.00464279
0.00521434
0.00267
0.0474193
0.00586853
0.00689088
0.0035172
0.0320657
0.00682034
0.0474364
0.00973747
0.00999211
0.0028511
0.00337349
0.00750715
0.00381877
0.0206731
0.00259365
0.00309147
0.0127031
0.00216581
0.0160513
0.00332221
0.0051361
0.0178608
0.0149987
0.0160177
0.00266295
0.00398263
0.0174095
0.00527764
0.00652371
0.040537
0.00314516
0.036893
0.0229443
0.0076522
0.00374119
0.00467131
0.0196651
0.00272659
0.00320687
0.00955628
0.0189691
0.0116929
0.0291005
0.00407685
0.0109823
0.0052271
0.0106784
0.00256356
0.004449
0.0260393
0.00508008
0.00251913
0.0106127
0.0475754
0.0159654
0.00423445
0.0199141
0.0114827
0.0182222
0.00448016
0.0112475
0.0213835
0.0208565
0.00242198
0.0359553
0.00363279
0.0312809
0.0027461
0.0094624
0.00353038
0.0272284
0.0042739
0.00247268
0.00360922
0.00264294
0.00961439
0.04135
0.0408504
0.0312688
0.047387
0.00365091
0.0268729
0.00243937
0.00387636
0.00595636
0.0031027
0.0344251
0.0177865
0.0201872
0.003857
0.0302322
0.00388699
0.00995899
0.00462564
0.0177324
0.0269375
0.0311386
0.00351683
0.0197093
0.00288826
0.00592512
0.00601369
0.0198963
0.0206935
0.00662546
0.00921418
0.0227629
0.00268427
0.00346797
0.0128035
0.00996242
0.00439124
0.00323296
0.00336083
0.00250616
0.00272643
0.00889045
0.0123096
0.00283015
0.048003
0.0309941
0.00566416
0.00357034
0.00228699
0.0320185
0.0221516
0.00216491
0.00974846
0.0021334
0.0252186
0.00223769
0.00246441
0.0034711
0.017909
0.0121956
0.0339056
0.0375071
0.00667535
0.0399069
0.00565614
0.0139973
0.00583541
0.00510336
0.0030256
0.0344846
0.0534739
0.00282289
0.00557192
0.0274171
0.00311472
0.0034247
0.0281439
0.0389856
0.042482
0.0232547
0.0139133
0.0381242
0.0113178
0.00248072
0.027225
0.0448255
0.00636201
0.00352046
0.002765
0.00409171
0.00982273
0.0506605
0.00248282
0.0251781
0.00291896
0.021943
0.00884751
0.00591402
0.00880854
0.00720292
0.0288767
0.00266153
0.0102421
0.00235511
0.0359994
0.00655908
0.0205079
0.00902219
0.0153065
0.0331726
0.00783065
0.00792088
0.00669592
0.0136367
0.00393746
0.0215285
0.0276706
0.0215228
0.00538337
0.00749277
0.00550757
0.0278697
0.00746499
0.03704
0.0504825
0.00455983
0.00252856
0.0202761
0.0261495
0.0108488
0.00278425
0.00659016
0.00334874
0.00610078
0.00477003
0.00365456
0.00414344
0.00231206
0.0197636
0.0388082
0.00585963
0.00247373
0.00254754
0.0106032
0.0460714
0.0101281
0.00287271