/*--------------------------------*- C++ -*----------------------------------*\
| =========                 |                                                 |
| \\      /  F ield         | OpenFOAM: The Open Source CFD Toolbox           |
|  \\    /   O peration     | Version:  2406                                  |
|   \\  /    A nd           | Website:  www.openfoam.com                      |
|    \\/     M anipulation  |                                                 |
\*---------------------------------------------------------------------------*/
FoamFile
{
    version     2.0;
    format      ascii;
    arch        "LSB;label=32;scalar=64";
    class       volScalarField;
    location    "58";
    object      k;
}
// * * * * * * * * * * * * * * * * * * * * * * * * * * * * * * * * * * * * * //

dimensions      [0 2 -2 0 0 0 0];

internalField   nonuniform List<scalar> 
59516
(
0.000315861
0.000685062
1.95187e-05
6.90643e-05
0.00753139
0.0173738
2.20278e-05
0.000325291
9.1597e-05
0.00274514
0.00334603
0.00257989
0.000120734
0.00699237
0.00227658
0.00242439
0.000451472
0.00419557
0.000834379
3.04886e-05
0.00445936
2.40069e-07
3.84387e-05
0.00392576
1.92028e-08
0.00194558
0.00381968
0.00554283
0.00283163
0.00562764
0.00702645
0.00517274
1.30581e-06
0.000173648
0.000719032
1.23514e-06
0.00547788
0.00421001
0.00109709
4.51219e-07
0.00028643
0.00259867
0.000625356
0.000479047
0.000166935
0.00246766
0.000370595
0.00138511
0.00758994
0.00141493
0.00901519
0.00340267
1.91496e-05
1.69099e-05
0.00402164
0.000325254
0.00326709
0.00366995
3.48195e-05
0.00103038
4.53709e-06
0.00521782
3.68736e-05
0.000407578
0.000160682
0.000334477
0.00647658
0.00342289
0.00615342
4.71891e-05
0.00504055
5.85681e-05
0.00556656
6.32082e-06
0.000158701
0.000510161
0.00106051
1.68979e-06
0.00323375
0.00127306
0.00372418
0.000777057
0.00050298
0.0055545
0.000861069
0.000184187
0.00382078
4.61166e-07
0.0023277
0.0023666
0.00530948
1.45502e-05
3.05092e-05
1.33215e-05
3.1835e-05
0.00778065
9.38046e-06
0.00237174
0.00326322
2.76118e-06
0.00382123
0.00553598
0.00541185
0.00231504
2.33366e-06
1.81186e-05
0.00384429
0.0001511
0.000418614
0.00209502
0.0046395
0.00449322
0.00228916
0.00452654
7.54218e-06
0.000376592
0.00227541
9.92554e-06
0.00514473
1.48993e-06
0.000244207
6.69284e-05
5.74805e-07
5.10241e-05
0.0039599
0.00134076
0.0058501
0.00240079
0.0105235
0.00012551
0.000167872
0.000176085
0.00522104
4.80807e-08
0.000540308
3.08471e-05
0.00442966
6.44781e-08
0.00363265
0.00073294
0.00333985
6.81174e-05
0.00549764
5.92445e-06
0.000188918
5.16852e-07
0.000246277
0.000180508
0.0198315
0.000237328
0.000642885
0.00363373
4.37039e-06
8.86369e-07
0.00069936
0.00587632
0.000141442
6.84103e-05
0.000945263
0.00556166
0.00212472
0.00200049
0.00394442
0.00656803
0.000389987
4.03207e-05
0.00214965
0.000106407
0.0054612
4.76256e-05
0.000886591
0.00251494
0.00162467
1.1238e-07
0.00302621
0.000498322
3.83831e-05
0.00086984
0.00199571
0.00351384
2.51701e-07
0.00427025
0.006625
0.00191075
9.11988e-05
0.00227411
0.00353972
0.00558643
3.84693e-05
0.000512275
4.70742e-05
0.00249151
1.9099e-05
0.00190965
1.67443e-07
0.003969
0.00226862
0.00338074
0.000357085
2.30223e-07
0.00126595
0.0001455
0.000363338
0.005529
4.53798e-06
1.13511e-06
0.000177835
3.46479e-05
0.00581126
0.0002487
0.00284211
0.0073578
1.34389e-06
0.00249286
0.000126421
2.86106e-05
8.82566e-07
6.44846e-08
0.00250294
7.87397e-07
0.00256307
0.000592477
2.71244e-05
0.00374079
4.84226e-05
6.32104e-05
0.00470649
0.00324431
5.84114e-05
0.00242476
2.12782e-05
7.18157e-05
0.000213914
0.00490025
0.00391142
0.00346792
0.00200469
0.000220495
6.80741e-06
0.00268709
0.000193275
0.00567696
0.00227695
0.00568316
0.000179853
0.000640612
1.07926e-05
0.00211401
8.34235e-06
0.000259915
5.52268e-07
8.61646e-06
0.000255706
4.67125e-06
2.75637e-06
4.24601e-06
0.00266421
3.96818e-06
0.00329805
0.00221418
6.9066e-06
1.12891e-05
0.000236575
5.54223e-05
0.000315764
0.00223422
1.95211e-05
0.000708412
0.00338912
0.00238964
0.000824981
6.24537e-05
0.000420385
0.000737019
1.08496e-05
0.000662138
0.00490957
4.06478e-06
0.00480953
0.00340824
0.000190991
9.83287e-07
0.00532926
0.000101475
1.3788e-05
0.000303203
0.000140504
0.00550458
0.000218133
0.000410463
7.69416e-05
4.74553e-06
9.82145e-06
0.000601045
1.61552e-05
0.00453407
2.19775e-05
6.92929e-08
0.000264809
9.18139e-05
2.18813e-05
0.00212323
0.00527544
0.0041953
3.03462e-07
0.00560178
0.00246299
0.00277619
2.81219e-05
3.20821e-05
2.41654e-08
0.00212969
0.000390226
0.00384711
0.00282855
2.93314e-05
0.000555721
0.00821498
0.000841063
0.00344395
0.00226616
0.000340365
0.000101757
0.00018763
0.000322139
1.77537e-06
0.00162985
2.43026e-05
3.51062e-05
8.40415e-06
1.16929e-06
0.00223946
0.00542015
2.67599e-06
0.0031651
0.0038018
1.01402e-05
8.72033e-08
0.00292482
7.01761e-05
2.50084e-06
0.000170304
6.3923e-05
0.00355891
6.28946e-07
0.000169691
0.00240708
0.000182274
0.000119485
2.5905e-05
5.71421e-05
5.59424e-06
3.038e-08
0.00134648
0.00408872
0.00370148
0.000631334
0.00602325
0.0111177
0.000980529
0.000228854
3.77909e-05
0.00262487
6.28314e-07
1.42911e-06
9.75216e-07
3.46019e-06
0.003903
0.00681945
0.00255042
0.00340739
0.00364284
1.38436e-05
0.00069137
8.07602e-06
0.00519751
1.04477e-05
0.0036188
5.00098e-05
0.0024569
0.00209662
0.000153424
0.00360568
0.00565822
0.00238455
1.85124e-06
0.00506944
0.00113721
0.000150543
3.00718e-07
0.000799592
0.000766279
8.09924e-06
0.00647919
0.000169499
0.00351519
0.00219351
0.00219374
0.000113007
7.92111e-05
0.00229771
3.68238e-06
0.000442741
0.000133805
0.000113468
0.00318115
3.70847e-05
1.24359e-06
2.92586e-07
8.20777e-07
0.00542747
0.00528066
4.33299e-06
6.84335e-05
0.000202355
0.0037431
4.94422e-05
0.000232178
0.000131083
9.82661e-05
0.000170145
6.70776e-05
5.02212e-05
0.000497845
0.000142662
0.00212873
3.37966e-05
0.000307386
3.57168e-06
0.000116756
1.42177e-07
5.2328e-06
0.003319
0.00393678
0.00522577
0.00241053
0.000155801
3.84172e-06
2.50956e-05
0.00373144
0.00557602
0.000114267
4.94807e-06
9.82106e-05
5.4999e-07
7.12336e-07
0.000269591
3.50976e-07
0.00492853
5.0995e-05
0.00219221
0.0118145
2.04517e-05
0.000684555
1.95237e-06
0.00562708
0.000115011
0.000213413
0.000139537
0.000577898
4.91771e-06
7.1217e-05
0.00012407
0.00023395
0.00110626
5.1492e-05
1.14164e-07
0.00520318
0.000126823
8.0559e-05
0.00320379
0.000447562
2.4475e-05
9.3559e-06
0.00101701
0.00524954
4.79923e-05
4.40778e-06
7.84355e-06
1.0286e-05
0.00340801
2.28149e-06
0.00703296
3.64872e-05
0.00951586
5.94014e-05
0.00322387
0.000198443
0.000384945
0.00325723
0.000237459
0.000146306
0.00579944
2.44439e-05
0.000335068
0.00381031
0.00209712
0.00217433
7.77722e-06
0.000212268
0.0097575
0.00230206
0.0022341
5.59647e-05
0.000235023
0.00518498
6.20712e-07
2.75823e-05
0.000103942
0.0136548
1.2086e-05
0.00486285
2.56449e-05
0.00557737
0.00216319
3.85754e-07
0.0021383
0.00540575
0.00392599
0.00295623
0.00241328
2.35065e-08
0.00254071
0.00201013
0.0047492
9.44938e-05
0.00478777
0.000217545
0.00624006
5.89722e-05
0.00253626
9.20944e-05
0.0025969
3.34158e-05
0.000145764
0.00277207
2.41807e-05
0.00619256
0.00572085
1.13713e-07
0.000163389
4.54242e-06
2.40896e-05
0.000142623
0.00244308
2.35833e-05
0.00216937
0.000105137
5.40921e-05
0.004798
3.58028e-07
0.00323763
0.00481879
1.72575e-07
0.00334668
9.49924e-06
0.000209547
2.39013e-05
0.00222323
9.72452e-05
0.000850343
0.000165025
2.36523e-05
0.00015227
0.000165267
0.00328754
0.00253495
8.30022e-05
1.73419e-06
0.00416758
1.74099e-05
7.18555e-05
5.48233e-05
0.000142319
5.76474e-05
0.00547438
3.99112e-05
0.00054807
7.46649e-06
0.000395735
0.00465789
0.000250544
0.000781757
3.48147e-08
0.000230118
8.38228e-07
0.00531744
0.0051817
0.000176818
2.52884e-05
0.000277598
4.35149e-05
0.0007554
1.88285e-06
9.76294e-05
0.00487644
0.000239113
0.00307518
0.00378762
0.00205133
1.94739e-07
4.82752e-07
7.86165e-07
1.32646e-05
0.000334909
0.000326022
0.000764388
5.07581e-05
5.50277e-05
5.08566e-05
0.000114454
0.00371496
1.25662e-05
0.00399653
0.0101765
0.00206169
0.00543097
1.5673e-06
0.00458869
0.000126095
1.91703e-05
5.08857e-07
5.53378e-05
0.00374065
0.00959717
0.00728822
0.000189637
7.46485e-05
0.00287859
0.00246899
0.000156821
0.00344246
0.00213464
0.00441803
0.00577693
0.00517253
0.00129188
1.72059e-05
0.00592372
0.00539117
0.000327063
0.00807903
0.00382807
4.2287e-07
0.000118517
2.18935e-06
0.00393028
0.00241295
8.37482e-05
6.74726e-05
3.51054e-06
0.00387658
0.00487201
0.0100841
0.00536468
3.64446e-06
0.00499608
0.000436413
0.000129349
5.49594e-06
0.00330814
0.000429445
0.00364731
0.00539335
0.000114572
0.00542485
2.94014e-05
0.00326652
2.64692e-06
3.41277e-07
0.00540772
0.00237533
2.33547e-07
0.00361406
3.28577e-05
0.00260393
0.000259246
0.000180726
0.0037094
0.00530276
0.00319378
0.00782841
0.000266642
0.00250246
0.000792483
0.00409557
0.000209318
0.00477482
7.94606e-06
1.92135e-09
3.52539e-05
0.00562467
1.39033e-07
0.000840919
4.81296e-06
0.00271109
0.00836754
3.57309e-07
0.00341341
0.000277454
0.00801181
1.70369e-05
0.00396844
0.00316979
0.000173865
9.98084e-06
0.00377934
0.000117251
0.0022128
0.00513022
0.000102723
0.00908442
3.24767e-07
5.53045e-05
0.000102029
4.09091e-05
1.00911e-06
0.00314782
0.00355585
0.000118436
0.00850164
4.76035e-05
1.39991e-05
0.00115597
3.20922e-07
2.60578e-05
0.000525542
0.000269544
0.00459579
0.00177795
0.00406641
1.65688e-06
8.111e-05
0.000672806
0.000381694
0.00545459
0.00104192
0.00255736
6.36832e-05
0.000126582
0.00886832
1.55583e-05
0.000867419
0.00955208
1.85237e-05
0.00578749
0.000121171
0.00263982
1.0318e-06
0.00562718
1.21465e-05
0.00949678
2.35517e-06
8.19677e-05
1.99341e-06
6.08646e-07
0.00014646
0.00365371
0.00324793
0.00394584
0.000157342
7.79448e-06
1.20688e-05
2.57767e-07
0.00616808
0.00076795
0.000804468
0.000107131
1.28982e-05
6.531e-06
0.000602534
0.000202136
0.00534833
0.000746461
1.86076e-05
0.00471748
0.00312219
0.00203847
0.00528528
0.000943639
2.13617e-05
0.00213169
0.00545967
0.000283419
0.00448082
0.000276236
9.9424e-05
0.000270666
9.67779e-05
6.3874e-07
0.000135292
3.2341e-05
0.00373164
8.12443e-05
2.59702e-06
0.000825831
0.000729441
2.55919e-05
8.20965e-05
0.00175777
1.17337e-07
0.00374359
0.000769442
0.000514227
0.00222438
8.45315e-07
0.00727915
0.00181999
0.00382503
0.00555949
0.0021215
0.00541819
1.16274e-05
4.83859e-06
1.30312e-05
0.00348141
4.39037e-06
3.36011e-06
0.00563603
1.12092e-05
0.00559715
0.00323166
0.00546464
5.64976e-05
0.000203568
0.00500967
5.84209e-06
0.00536022
7.37774e-05
6.59893e-06
5.26708e-05
3.37494e-07
0.000252046
0.000474166
0.000148627
0.00595106
0.00384369
0.000380045
0.000426674
0.005592
5.25504e-07
0.00428057
7.76594e-05
7.38304e-05
0.001135
7.33036e-06
0.000347381
0.000784921
0.0033182
4.97394e-05
0.000371751
0.00379189
2.19932e-05
0.000211403
9.15878e-08
0.000556614
2.68242e-06
0.000233211
0.000869849
0.000318459
0.000565719
8.01633e-07
0.00203947
5.85294e-05
0.000163465
0.00878552
1.63732e-08
0.000291748
8.68922e-05
0.00390532
0.00285562
4.81169e-05
1.04755e-06
1.55325e-06
0.000285263
9.44612e-07
0.000232825
0.000137419
0.0173183
0.000216963
0.000138482
0.00530049
7.59346e-07
8.71214e-06
0.00423693
5.45331e-06
0.000171732
0.000357011
0.000141966
0.000273923
9.34748e-05
0.00215591
0.00921991
0.00377364
0.000130753
0.000112286
0.00515426
0.0035633
0.00231647
9.98211e-05
0.00318947
5.47386e-06
9.16847e-05
4.60982e-05
1.30671e-06
0.000926704
0.00308729
6.81764e-06
1.26346e-05
0.000108457
0.000918098
9.85947e-07
0.000270868
0.00016102
0.00401876
2.24487e-05
0.00066095
0.00104296
0.00401981
0.00228335
0.000628667
0.000118722
0.00291299
3.38631e-05
9.63928e-06
6.97843e-05
0.000129909
1.74858e-05
9.1916e-05
0.000114697
0.000182541
0.00865988
6.05687e-07
0.000129018
0.00396567
0.0025406
3.70725e-05
3.02938e-06
0.00396085
3.20397e-05
0.00024223
0.000424428
0.000404983
0.000269002
1.47522e-06
0.000609181
0.00019828
0.0151071
0.000554372
0.000237908
0.00741502
0.000230546
0.0036678
0.00085243
7.38759e-05
0.00182212
0.00356283
0.000102684
3.49406e-05
1.58839e-08
0.00358403
0.000195386
0.00365134
0.000699071
0.00189008
0.00196057
0.000559098
0.000321611
0.0021834
4.92785e-06
4.92811e-05
0.00021398
0.000279824
0.000322955
9.50778e-05
0.000196261
0.000107764
0.00206733
0.000273226
0.00305496
0.00389815
5.32964e-05
0.00178991
0.00465099
0.000197068
0.000256926
0.000826989
0.00282723
0.00589894
2.20271e-05
0.000228697
9.07626e-05
0.00543788
0.00361572
0.000562491
0.00312451
1.02435e-05
4.96994e-05
0.000441537
0.00539199
0.000124038
2.08464e-05
0.00216695
0.000387105
0.000227345
0.0026382
3.06743e-05
0.000180401
0.00017244
1.18842e-05
0.00383911
7.9809e-05
2.62504e-05
7.6454e-05
0.00185941
3.11203e-05
0.000688165
0.000147858
0.00525464
0.000141565
0.000760086
0.00355503
2.07525e-05
0.00375387
4.45752e-06
0.00028714
0.000100062
0.00774187
0.000185136
0.000673484
0.00219826
0.000576492
6.68847e-06
0.00515722
1.46961e-05
1.22285e-06
0.00231069
0.00647086
0.00347842
0.000169223
1.0725e-07
0.000103161
0.000709427
0.00226573
3.1437e-06
0.00388388
0.000245381
0.000238888
0.000944964
0.00249033
1.48812e-07
0.00568681
0.000833263
4.42424e-07
0.000253647
0.00462166
4.98691e-06
1.40961e-05
0.00424148
1.26269e-05
2.41611e-05
6.19958e-05
0.000655952
0.000458364
0.00432107
3.41383e-05
6.95102e-08
0.00561893
0.00361022
0.00312935
3.61152e-05
0.00075579
2.63213e-05
0.0024121
3.80693e-05
0.00471768
9.3516e-07
0.00148472
1.48988e-05
0.000181368
2.25383e-08
1.96144e-06
0.00409213
0.00389566
2.47943e-06
1.67873e-06
0.00514692
0.00522362
4.29652e-05
2.58736e-08
1.32412e-05
0.000324175
8.8168e-07
5.76802e-07
7.21279e-05
0.00224563
0.00113626
0.00208365
5.8141e-07
0.000929929
0.0039381
0.00518261
3.84369e-05
0.000175937
0.000377011
3.55575e-05
1.59438e-05
0.00388663
2.20749e-05
0.000126395
0.00380199
0.00559813
0.000101312
7.67964e-05
0.00439954
0.00575708
5.55971e-05
0.000466802
0.00564101
0.00120397
5.78905e-05
2.37412e-05
0.000106647
3.08539e-06
7.08429e-07
0.00508905
0.0034384
0.000159515
2.44784e-05
0.000250048
1.15522e-05
0.00236887
0.00241139
0.00324989
0.000740414
0.00621179
1.08671e-07
5.98143e-08
0.000607928
0.00239487
0.00565404
0.000221119
7.38988e-05
2.13042e-05
0.000133285
0.000327093
3.7013e-08
0.00362735
0.00266684
0.0173296
0.000253971
6.92533e-07
0.000273983
0.00226312
0.000880683
4.4767e-05
4.59318e-08
0.00069438
1.23789e-07
2.08153e-05
0.000315427
0.00241196
0.00548319
3.67389e-05
0.004045
9.21915e-05
3.03356e-05
0.00082704
0.00517242
2.29365e-06
0.00198694
0.00541559
0.00535999
1.34108e-05
0.000148406
4.14479e-05
5.76332e-05
0.000877205
0.000249337
0.00559206
0.00362389
0.00374769
0.000172584
0.000346374
2.8169e-06
0.000239914
0.000172357
1.70458e-05
0.00607948
5.02314e-05
0.00517101
7.48956e-06
0.000237676
0.00486074
9.96279e-05
0.000418592
4.14181e-06
0.00062428
0.00203883
0.00403436
6.60932e-07
0.00357701
0.000302307
0.000410641
6.51533e-05
0.0015286
0.00403209
0.00265918
0.00366978
7.23443e-05
6.079e-05
0.000103191
0.00273633
2.90907e-05
4.46922e-05
1.09246e-05
8.60753e-06
0.00419852
0.00353797
2.92289e-05
0.000174082
0.00223031
0.000213846
6.1737e-05
1.26043e-05
0.000583117
0.00523816
0.0123477
0.00254985
2.49054e-06
2.78271e-05
0.000184072
0.00514869
0.00363799
1.26235e-07
0.00011364
0.00216091
0.000150052
5.05859e-06
1.41901e-05
3.5528e-05
0.00012902
4.14685e-06
7.33839e-06
0.000359645
0.000120085
0.000101636
0.000983781
0.00187036
0.000165425
1.38745e-05
0.00391188
0.00230618
7.76391e-06
0.00297901
2.31962e-08
0.000425778
6.54849e-06
2.54298e-06
8.88084e-05
3.88534e-05
3.40656e-05
2.68269e-06
0.00303667
0.00479272
0.00040852
0.000158388
0.00539117
0.000829212
8.9416e-05
5.73047e-05
1.49383e-06
0.00583015
0.000281435
5.57626e-06
0.000909828
3.38266e-05
0.000112775
0.00575659
3.5926e-05
0.00528413
0.000533503
0.00563498
4.91108e-06
2.81594e-08
3.66745e-05
0.00546324
0.00256062
0.00068558
1.18142e-08
0.00238421
0.00249843
0.000605479
0.000137896
0.00389351
0.000121381
3.10755e-08
0.00209845
0.00211094
0.00454444
2.51117e-06
8.86994e-05
1.00467e-08
3.26349e-05
0.000426774
0.000424234
0.000474369
0.0048702
0.00389263
0.00477622
0.00084886
0.000224526
0.00366537
0.00538813
0.002351
0.00557237
9.9915e-06
0.00550319
4.34196e-05
0.000261768
3.04503e-06
0.00211587
0.000220969
0.00365562
0.00234054
0.000218954
1.65879e-05
7.02784e-05
0.00923967
4.11337e-05
0.00540333
2.79407e-05
4.23321e-07
0.000141796
0.000798113
2.00661e-06
4.34468e-05
0.000580016
0.00283087
0.0040319
0.000275719
0.000164535
0.0039574
0.000820433
2.29784e-07
0.00375226
0.00505211
0.000393368
0.00410487
0.00215057
0.00556844
0.00231107
0.00379762
0.00526632
0.00376456
0.0058816
0.000278187
0.000833904
0.000123468
0.00540608
2.6291e-05
7.6197e-07
5.24134e-08
0.000194503
1.20372e-05
0.00375798
8.10677e-06
0.00910934
0.000767753
0.000255788
1.83414e-05
0.00551257
0.000137746
0.000730906
0.00555078
0.00381547
1.01385e-07
0.000532171
0.00494428
4.52507e-06
1.67425e-06
0.000132896
7.58425e-06
0.0033684
2.49987e-05
0.000865542
0.00302314
2.92895e-07
3.24261e-07
7.52908e-05
0.000614989
4.07876e-07
3.41698e-06
0.00363203
0.000342753
0.000330562
8.87922e-05
0.000792765
0.000307062
2.64955e-06
0.00631822
5.66964e-08
0.0068299
0.0127645
0.00260342
9.77236e-07
5.86471e-07
0.00422264
4.93759e-06
0.000203196
0.00105563
0.000101373
0.00589926
0.00565363
0.0087102
0.00242541
0.00479423
3.87494e-07
0.0035376
0.000129353
0.00398684
0.00496003
0.000251623
0.00222921
5.53113e-05
8.55887e-06
9.929e-05
0.00387059
0.00361796
1.85775e-05
1.08343e-05
0.005833
4.7664e-06
0.00218219
0.000599944
6.27015e-05
5.08519e-06
0.000115036
0.000357718
0.000494754
0.000796469
0.00285096
0.00342631
0.00273708
0.00387799
0.000241556
2.0392e-05
0.00199385
0.00228482
0.000431259
8.92382e-08
8.42929e-07
0.00224768
3.59529e-06
0.00492943
0.00247677
2.36617e-07
0.00353746
0.000836735
0.000643465
7.9503e-05
0.000529555
1.15137e-05
0.000632825
0.000623374
1.29257e-05
0.000184332
1.12782e-05
0.00537267
0.00499864
0.000100574
0.000353052
1.58841e-06
0.000541334
0.000459039
0.00530839
1.48503e-05
1.19045e-05
7.32005e-06
0.000631145
0.00371273
0.00222101
0.00298761
3.41224e-05
0.00203216
0.000292218
0.00535241
2.03754e-05
0.00365442
0.00081684
0.000154784
0.00240106
2.17365e-07
9.72809e-06
0.00362274
0.00515384
0.00016334
0.00829446
1.48755e-05
3.6332e-05
0.000840411
2.14374e-06
0.00116278
0.000100529
0.00502334
0.000292697
2.39863e-05
0.000221193
0.00546684
4.60832e-06
1.12383e-05
0.000840759
9.43876e-06
0.00373855
2.5711e-05
0.00481106
8.19484e-06
4.86386e-05
2.3976e-06
7.84221e-08
0.00350908
0.00540092
0.00167634
7.47116e-05
0.00350694
0.00021374
0.00367681
9.87679e-05
0.00237454
0.00539722
0.00038892
4.23821e-06
0.000770313
0.000154293
5.38991e-05
1.90823e-06
0.00399475
0.000267803
0.00506648
0.00184782
0.000168315
0.000250768
2.66703e-05
0.00605449
0.00334815
0.000507027
0.000421571
3.42906e-06
1.40093e-07
6.54659e-06
0.00593702
1.04599e-08
3.48547e-06
6.3028e-05
0.00264566
8.8589e-06
0.000113409
2.83555e-05
3.47368e-05
0.000550853
0.00223021
1.17803e-06
0.00339567
2.78615e-05
0.000648885
4.74276e-06
5.61131e-06
2.75113e-06
0.000141885
0.00368413
0.00018343
0.00242518
0.00525391
2.61563e-05
0.00346526
5.77235e-06
0.00538619
0.00335158
0.00243844
0.00113577
2.77804e-05
0.00351194
0.00507999
1.8683e-05
0.000857146
3.85965e-05
0.000339717
0.00519977
0.000780096
0.00371005
0.000183929
2.10472e-05
0.00218161
1.29157e-05
2.46998e-05
1.41469e-06
2.20866e-05
2.47725e-05
3.45267e-07
5.96812e-05
8.17318e-09
0.00438075
0.00574386
3.85016e-07
0.00617843
0.000107626
3.27228e-05
0.000875249
0.000178296
2.07786e-05
0.00375901
0.000308983
0.00238173
0.000634743
0.0031116
1.40186e-06
0.000241914
0.00125105
0.000340107
0.00345045
8.40347e-05
2.22384e-05
0.000793082
4.59585e-07
0.00555432
0.00521456
3.26737e-05
4.48964e-05
4.61855e-05
0.000386737
0.00626534
0.000286242
0.0019137
0.000203755
2.81724e-05
0.00383149
2.23322e-07
8.47363e-06
0.00383634
0.00454065
0.000253937
0.000658227
0.00537735
6.17647e-08
0.00349053
0.00566993
0.000813758
8.30655e-05
0.000265654
3.7605e-06
7.12414e-05
8.15403e-07
0.0001626
0.00017374
0.000224814
3.47573e-05
1.42809e-06
0.00538162
0.0037143
1.23944e-05
6.05294e-05
0.000268257
0.0054197
0.00548135
3.77514e-08
0.00468994
1.83075e-06
3.41853e-05
0.000242987
0.00350734
0.0019511
0.000108079
0.0001017
3.21711e-06
3.38588e-07
0.00221765
0.00515182
6.11236e-05
0.0054857
0.00296947
0.00369424
0.0034179
1.20346e-05
0.000239237
2.10714e-07
0.000209883
0.000590455
0.000493181
2.14103e-05
1.5116e-05
0.00240425
0.000119728
2.57478e-05
2.61447e-05
0.0038567
0.000162297
0.00553268
0.000725042
0.00349935
6.18885e-06
9.31144e-08
0.0094529
0.00485982
0.000673118
0.00237286
0.00559474
1.61167e-07
0.00524579
0.00243327
3.88344e-05
1.66229e-05
0.000193361
0.00355464
0.000285978
0.00229442
0.000159904
1.82875e-05
1.88383e-05
6.30385e-05
0.00348466
2.3455e-07
3.56722e-05
0.000233148
4.98185e-06
1.24823e-05
5.31934e-06
0.000321348
0.00547098
0.00370205
0.000113965
0.000190559
1.58806e-07
0.00320414
5.05574e-05
0.00211398
5.88919e-06
1.63827e-07
0.000810854
0.00249315
0.00210364
0.00533777
1.85639e-06
1.61033e-09
0.00221591
7.7792e-05
0.00531428
2.05961e-06
5.31849e-05
0.00571578
0.000160185
7.47328e-05
6.79614e-06
0.00995922
0.00603149
0.00421977
0.00218961
0.00207604
0.00559112
0.00510801
0.00593381
0.00080781
4.3748e-05
1.42157e-05
3.49834e-05
0.000120477
0.00544785
3.4082e-06
2.52519e-05
0.00545082
0.00559054
0.0056096
0.000879236
0.00485914
3.60234e-06
0.00453177
0.000333317
0.000850747
0.00320873
0.000671719
4.66294e-06
0.000175588
3.61555e-08
6.99339e-06
4.99773e-05
0.00256407
0.000295149
9.33247e-07
6.4971e-05
0.00550538
0.00135834
0.000249433
9.28053e-06
0.000160679
0.000118741
0.00211017
0.00399258
0.00573107
0.000515932
0.000301096
5.83193e-05
3.29484e-05
0.00307208
0.000219243
0.00269631
0.000332651
2.50866e-05
0.0032742
0.00309139
0.000140402
1.19228e-06
3.93705e-06
7.39912e-06
0.000956956
0.00192066
1.21563e-08
0.000325401
4.72051e-05
1.04103e-06
2.39205e-06
0.000155252
0.000765728
1.79103e-07
0.00542618
0.00351124
0.00602115
0.000423942
0.000144403
0.000596581
0.00239044
4.57976e-07
0.00299788
0.00212717
0.00526843
6.04182e-05
2.02283e-05
1.24991e-05
0.0052325
0.00300423
0.00270673
0.00527958
0.00328303
2.50831e-05
5.18686e-05
0.00491687
0.003704
0.00219345
0.000137927
4.56742e-05
3.16401e-07
0.000624171
1.06203e-06
3.12236e-08
0.000484008
0.00366096
0.00027345
1.79337e-06
1.08857e-07
4.50761e-05
5.86211e-08
9.03083e-06
0.00131571
7.74326e-05
0.00229793
0.00401466
5.86192e-06
3.54891e-05
0.00578256
5.26659e-05
0.00526048
2.45276e-07
4.6718e-07
1.52436e-05
2.4055e-05
0.00238266
0.00569715
0.00237534
0.000235615
0.000140603
0.000119637
1.22472e-05
0.00419845
0.000845248
6.12929e-06
5.00505e-05
0.000155609
0.00510307
0.00242348
0.000221985
1.05264e-05
0.000117428
5.18663e-05
9.69076e-06
1.01259e-07
5.96501e-08
0.000462216
4.15081e-05
0.000129639
6.41911e-07
0.000776413
0.00497618
0.00518616
0.000966622
0.000216373
1.84497e-05
3.56079e-05
0.00520212
0.000195379
7.0363e-08
2.45876e-05
0.000734044
2.23295e-06
1.93822e-08
2.3325e-06
7.25771e-05
0.000195729
5.76768e-07
0.00317802
0.000101694
1.12536e-06
0.00538737
4.49474e-05
3.20805e-06
1.41376e-06
7.68766e-08
3.57077e-05
0.00417068
2.63977e-05
0.000873667
4.51887e-05
0.00103305
8.6181e-06
2.19861e-06
0.000807988
1.35315e-05
0.0053415
1.19414e-05
0.00342485
0.00378531
6.86559e-08
0.00505211
8.33787e-05
1.1676e-05
2.50176e-05
0.00238867
0.000564433
0.00537001
4.50045e-07
0.00358207
0.000640107
3.43614e-07
1.78107e-07
2.68291e-05
9.97338e-07
1.81446e-06
0.000127315
2.17246e-06
2.44581e-06
2.58794e-06
0.00360756
0.000742916
0.00013965
8.29606e-05
0.00224824
1.3439e-08
1.04493e-05
2.35626e-05
0.00522746
3.39625e-06
0.00547436
0.000129693
0.00503906
0.0034494
0.000243088
2.08948e-06
1.85742e-06
0.0001703
0.00454682
1.70045e-05
0.00511709
0.00473174
3.18506e-07
0.00262396
0.000665227
3.24814e-06
1.70988e-06
0.00538165
0.00220082
0.00383202
8.74425e-05
2.02724e-05
0.00199284
6.04871e-08
0.000753016
0.00220741
0.00119739
0.00484671
1.98554e-06
3.26342e-05
4.81782e-05
1.3857e-07
7.08899e-05
1.50895e-05
3.45898e-05
0.000104792
6.92712e-07
0.000143054
0.000404541
0.000731307
4.12004e-05
0.000921562
1.23258e-05
1.50384e-07
6.49174e-06
2.9871e-06
5.7803e-05
5.83588e-06
0.00370608
8.74057e-06
6.57328e-05
0.00200634
6.36614e-05
0.000195305
0.0103853
3.16672e-06
4.08499e-05
0.000622936
1.67853e-05
0.00334362
0.000168144
1.26236e-05
6.85379e-06
0.000645728
0.00244812
0.00237829
1.26846e-05
0.00351873
0.00400161
0.00562289
1.31033e-07
6.62575e-06
4.89173e-05
2.12929e-06
4.05529e-08
1.74247e-07
0.00255126
0.000186573
3.62066e-05
3.17544e-05
0.000156651
0.000126737
0.00412022
0.00590532
0.0056038
0.00185156
1.57662e-05
0.000149027
0.000117028
0.000778702
6.84636e-06
1.93577e-05
0.00542843
0.000235499
4.37143e-05
4.67143e-05
0.000182832
0.00217856
0.00261622
3.62104e-05
0.00319467
5.29164e-06
2.39792e-07
0.000438952
2.13168e-06
0.000710326
0.00185685
0.00047586
0.000203899
0.000658418
3.37074e-05
7.86668e-05
0.00256293
0.00360026
8.3359e-05
0.000219941
0.00232068
0.00383864
0.000711024
0.00514355
3.43687e-05
0.00010119
0.00313662
7.64125e-05
0.000159094
1.66657e-06
2.02181e-05
2.27406e-05
1.6388e-06
2.11791e-05
9.64215e-06
0.000861218
7.64471e-06
0.00197943
0.00108188
0.00233485
7.06389e-05
0.000197369
4.84261e-05
4.60647e-06
0.000619381
0.00050776
0.00527485
0.0005942
0.00529976
0.000788532
1.20758e-06
5.68474e-08
1.67679e-05
2.44621e-07
0.00378773
0.00375732
3.68627e-05
0.000807012
0.00269455
6.03078e-05
0.0034818
1.29907e-05
2.97275e-07
1.17979e-06
7.72742e-05
3.74301e-05
0.000131631
1.21825e-05
0.00349349
6.45562e-05
0.00395908
0.00378748
0.00203998
3.88694e-07
0.000143816
0.000218809
0.00389848
0.00325518
2.37491e-06
0.00048603
0.000793222
0.000780798
0.00361932
0.00292508
0.00363621
0.00205221
3.91034e-05
0.00248428
5.65593e-07
0.00203276
0.00495868
0.000599745
0.00328831
0.00615324
0.00542397
1.90414e-05
6.16085e-05
7.01957e-05
0.00209595
0.00023657
0.00413361
0.000183252
0.00194278
9.0507e-06
2.56966e-06
0.00577249
1.78506e-06
4.07958e-05
1.11969e-05
1.11132e-05
9.82073e-07
6.4391e-05
7.73971e-07
2.08633e-05
2.83666e-06
0.00524674
0.000755628
0.00238858
5.42693e-07
0.00418786
0.000890668
7.76207e-09
0.00131743
0.00020786
0.00523238
9.1503e-05
0.000251384
8.00886e-05
1.25628e-05
6.57803e-06
1.6129e-06
6.0727e-06
4.1697e-06
7.79099e-05
0.0023235
0.00240081
2.36496e-07
4.41331e-05
1.10056e-06
9.15213e-07
1.68296e-05
7.58004e-06
9.0528e-07
0.00379748
3.53729e-07
0.000128401
0.00417877
1.25965e-05
0.00428896
1.51512e-05
0.00196082
0.00344743
2.56788e-07
0.00337643
0.00492841
0.00522025
0.00396255
0.00358589
5.2214e-05
0.000563663
0.000129751
6.41057e-07
0.00223342
1.1642e-05
0.000161471
1.71543e-05
0.00547362
1.57343e-07
0.00022481
0.000101666
1.05253e-05
0.00494614
0.00369727
3.17335e-07
0.00516449
0.000110598
0.00358872
1.78119e-05
0.00178034
0.000223806
0.000173574
2.88333e-06
0.0035833
0.00517115
0.00369034
1.86504e-07
0.0021448
0.00528003
0.000138848
0.000762274
0.00501085
0.000509464
0.00435939
4.21458e-06
3.686e-07
8.14883e-05
1.95423e-05
0.00930321
0.000235663
0.00398182
8.56505e-05
1.26996e-06
0.000153929
1.3031e-05
0.00068186
0.000220321
0.00438085
4.77831e-07
0.000324603
0.000183323
0.000183628
0.00225278
0.00545608
4.64529e-06
2.99838e-06
2.37716e-05
0.00187124
3.81411e-06
0.00579051
0.00521742
0.00347421
3.66492e-05
0.00409174
0.000124615
0.00555032
0.00345963
1.59039e-05
0.00231394
0.0036847
0.00379664
1.84958e-08
1.32931e-06
0.000152425
0.00230915
1.67566e-06
3.8827e-07
0.000122968
7.5857e-05
6.1181e-06
2.84398e-05
9.23484e-05
0.00557896
3.96861e-06
0.00122404
0.00202964
0.00449925
3.25753e-05
1.55571e-05
0.000466183
7.19939e-07
0.0059494
0.000181872
2.86892e-06
0.00565149
1.22687e-07
2.19487e-05
2.01004e-06
0.00308344
3.25948e-05
0.00314502
0.000142456
0.00208838
0.00524356
8.59991e-05
2.5772e-06
0.00200107
5.78018e-08
1.15883e-05
5.86021e-06
6.25173e-05
0.00241243
0.00510468
2.48395e-05
4.27025e-07
1.40486e-06
9.34645e-06
0.00242922
1.15326e-07
0.00248129
0.00195356
1.9063e-07
0.000478243
0.000358035
4.74461e-06
0.000185245
0.00359641
0.00593918
7.04752e-05
9.09239e-06
0.00310998
0.00416368
0.000744646
3.78204e-06
2.03302e-06
0.00550773
0.000719855
4.66768e-06
7.58986e-06
1.87876e-06
5.00901e-08
0.000190286
0.000117623
3.03354e-08
5.29236e-06
0.000791761
0.0050581
0.00569097
2.2462e-05
0.000350872
7.80623e-07
4.94775e-06
1.55824e-05
1.91871e-06
3.4858e-05
3.34488e-06
4.29865e-07
1.33052e-05
0.000423151
1.72308e-06
1.00902e-05
0.000574692
2.13559e-05
0.000580726
0.00469937
2.70603e-05
2.24792e-06
7.4203e-07
1.26647e-05
6.1969e-06
0.000572299
0.00355945
8.24412e-08
9.23938e-06
1.90814e-07
2.15188e-05
0.00360176
0.00125417
0.000201407
0.00593236
5.76738e-06
0.00393732
0.000116942
6.97906e-08
8.89805e-09
3.53517e-07
8.60196e-05
0.00352378
0.00531023
0.00982682
0.000306957
0.00351978
6.33713e-07
1.60271e-05
0.00334051
0.000267974
0.000341928
0.000102386
5.13252e-05
6.75808e-05
0.00127195
0.00014093
1.85449e-05
0.00559455
2.66103e-05
0.0035931
0.00574114
1.53283e-05
0.00196818
7.82912e-06
3.84549e-06
6.40893e-05
0.000487208
0.000793087
1.56157e-06
1.32626e-07
8.81939e-07
0.00286982
0.00444637
0.00011905
7.38617e-06
0.00023144
0.00015852
0.000801036
0.000563271
9.75696e-07
3.27167e-06
4.4958e-06
0.000700963
0.000216361
0.000970366
9.90132e-07
4.98405e-07
0.000199266
0.000394412
0.00379646
1.47112e-07
2.11816e-06
5.3327e-07
4.99327e-05
2.05333e-07
3.61071e-05
0.0036133
2.19359e-05
0.00188019
0.00299534
4.6424e-07
0.00088004
6.51149e-05
1.72776e-05
4.86419e-07
0.0052295
0.000510391
2.5818e-06
1.07304e-05
0.00208667
1.51507e-05
0.00100639
3.76202e-06
0.00101405
0.000258509
6.71477e-09
5.88738e-07
0.00576881
1.14756e-06
1.30589e-07
5.98477e-06
0.000528678
1.17834e-06
1.52177e-06
0.0123949
0.000171236
0.00334756
7.23403e-09
4.00458e-05
8.58901e-06
0.00016346
0.000622207
0.00104646
0.00310342
0.00500248
1.19742e-05
3.93683e-06
0.00888837
0.00348361
1.5473e-07
7.69074e-06
0.00258365
0.000233706
9.37827e-08
6.14329e-09
2.78477e-08
0.00557552
1.13281e-07
0.00177902
0.00360156
4.0454e-06
0.00218068
0.000672479
0.00510636
0.00374748
0.000734659