/*--------------------------------*- C++ -*----------------------------------*\
| =========                 |                                                 |
| \\      /  F ield         | OpenFOAM: The Open Source CFD Toolbox           |
|  \\    /   O peration     | Version:  2406                                  |
|   \\  /    A nd           | Website:  www.openfoam.com                      |
|    \\/     M anipulation  |                                                 |
\*---------------------------------------------------------------------------*/
FoamFile
{
    version     2.0;
    format      ascii;
    arch        "LSB;label=32;scalar=64";
    class       volVectorField;
    location    "58";
    object      momentum:angularMomentum;
}
// * * * * * * * * * * * * * * * * * * * * * * * * * * * * * * * * * * * * * //

dimensions      [1 1 -1 0 0 0 0];

internalField   nonuniform List<vector> 
59516
(
(-2.17988e-09 -1.42054e-09 2.23001e-07)
(5.63277e-10 -3.9124e-10 1.65014e-07)
(-8.96478e-10 1.07566e-09 2.02023e-07)
(-2.95186e-09 -6.27606e-10 1.72314e-07)
(-8.01842e-09 5.30903e-10 2.00001e-07)
(-5.20285e-09 2.7687e-09 5.03649e-08)
(-4.27305e-09 -2.65833e-09 2.09298e-07)
(-5.96782e-10 -1.0877e-09 1.92771e-07)
(-1.27826e-09 2.38608e-10 1.55553e-07)
(2.99195e-09 1.61115e-09 7.72398e-08)
(-3.38805e-09 -3.51955e-10 2.08468e-07)
(-5.12486e-09 -3.78776e-09 1.01599e-07)
(-2.48462e-09 -2.01627e-09 3.18523e-07)
(4.62147e-11 -1.66415e-10 1.54068e-08)
(5.7508e-10 -8.87444e-09 1.47555e-07)
(-2.38125e-09 5.83425e-09 8.27909e-08)
(-4.66441e-09 -8.59254e-10 2.70097e-07)
(-1.30681e-08 -3.61156e-09 1.5973e-07)
(-1.73702e-08 -3.48719e-09 3.29759e-07)
(-3.72251e-09 1.2768e-09 3.73885e-07)
(-2.65947e-09 1.23561e-09 9.93997e-08)
(8.46701e-10 1.91425e-09 3.17609e-07)
(-6.44626e-09 -1.54623e-09 3.5131e-07)
(8.87715e-10 5.93259e-10 3.37412e-08)
(-9.53399e-11 1.37337e-09 3.1314e-07)
(-5.05711e-10 4.85598e-09 1.96051e-07)
(-6.35185e-10 3.63947e-09 5.07687e-08)
(-5.84486e-09 -2.47282e-09 7.40406e-08)
(-5.93119e-09 -1.93096e-09 1.44349e-07)
(1.60676e-09 1.31896e-09 1.29446e-08)
(-3.76136e-08 2.10448e-09 1.8946e-07)
(-5.42076e-09 4.15589e-09 8.36767e-08)
(-9.72966e-10 -4.65267e-10 1.73626e-07)
(-3.0794e-09 -1.78561e-09 1.73543e-07)
(-6.50171e-09 -2.28573e-11 1.3365e-07)
(-1.54256e-09 3.82879e-10 3.99267e-07)
(-1.8901e-09 9.92327e-10 1.25615e-08)
(-1.30609e-08 -4.14864e-09 1.31646e-07)
(-1.08937e-08 1.12625e-09 2.66416e-07)
(-1.43655e-11 1.36464e-09 2.83424e-07)
(-1.36115e-10 -1.57369e-09 2.53462e-07)
(-3.31092e-08 -9.36449e-11 4.06986e-07)
(-1.23444e-08 2.31937e-09 3.43327e-07)
(-6.81861e-10 3.78777e-10 1.08864e-07)
(-1.02206e-08 1.33558e-09 2.64705e-07)
(2.5858e-09 7.13973e-10 9.98532e-08)
(-1.34615e-08 3.6085e-10 3.24363e-07)
(-8.32673e-09 1.024e-09 2.5498e-07)
(-3.43295e-08 3.1188e-09 2.51868e-07)
(-1.39956e-08 5.04796e-10 2.41276e-07)
(-2.81945e-08 8.17855e-10 1.63914e-07)
(-7.06196e-09 -3.36814e-09 7.40871e-08)
(9.8432e-10 -6.61624e-09 3.12213e-07)
(-7.4135e-10 1.16065e-09 2.97236e-07)
(-5.09606e-09 1.31233e-09 8.20513e-08)
(-6.0619e-09 1.05946e-09 2.46019e-07)
(-1.67714e-08 8.05181e-11 2.03477e-07)
(-7.4385e-09 -2.78835e-09 7.46281e-08)
(-3.78971e-10 1.34153e-11 2.13453e-07)
(-1.12054e-08 -3.6715e-10 1.45855e-07)
(-5.25033e-10 5.63623e-10 2.088e-07)
(-1.15883e-09 1.59182e-09 1.47572e-08)
(-1.4589e-09 2.06403e-11 2.7218e-07)
(-7.57365e-09 -1.33506e-10 3.44535e-07)
(-1.41096e-09 1.30112e-09 2.86474e-07)
(-1.00545e-08 1.52878e-10 2.15513e-07)
(1.36415e-10 1.99061e-09 1.74657e-08)
(-2.2524e-10 5.2487e-10 6.45277e-08)
(-3.72156e-08 6.25503e-10 1.98338e-07)
(-4.60175e-09 -1.03548e-09 1.68941e-07)
(-8.44188e-10 -1.17606e-09 5.04733e-08)
(-2.48272e-09 -8.03198e-10 1.5862e-07)
(3.44061e-09 -1.38743e-09 2.25338e-08)
(-2.37009e-09 -5.76554e-10 1.86209e-07)
(-5.77014e-10 -9.87145e-10 3.8938e-07)
(-9.76623e-09 5.07851e-10 3.60686e-07)
(-6.58793e-09 1.85526e-10 2.15201e-07)
(7.17337e-10 8.2557e-11 2.26834e-07)
(3.33034e-09 1.77558e-09 8.2418e-08)
(-1.09556e-08 9.27945e-10 1.93322e-07)
(-3.34135e-09 1.3993e-12 4.89692e-08)
(-8.91881e-09 4.91732e-10 1.71577e-07)
(-8.40305e-09 4.93553e-10 1.8291e-07)
(-2.23349e-09 1.21854e-09 1.75297e-08)
(-1.09137e-08 1.14829e-09 2.15278e-07)
(-1.65949e-09 1.80603e-09 3.8741e-07)
(6.02455e-10 1.068e-09 3.07081e-08)
(-2.07213e-09 3.72184e-10 5.01885e-07)
(-3.95529e-09 -2.07184e-09 1.0791e-07)
(-1.55431e-08 -3.87182e-09 1.66761e-07)
(-1.61272e-08 -3.67716e-11 1.83379e-07)
(-1.28645e-09 1.61012e-09 1.89607e-07)
(-8.04932e-10 -8.16133e-11 2.65237e-07)
(-6.30011e-11 1.4462e-09 1.82372e-07)
(-3.30771e-11 8.81495e-11 1.86068e-07)
(-1.87635e-08 -1.17684e-10 1.83418e-07)
(-3.53439e-10 -3.00746e-10 1.24109e-07)
(3.45097e-09 6.36569e-09 8.25617e-08)
(-4.42349e-09 -1.75991e-09 1.15066e-07)
(2.25151e-09 1.49938e-09 2.07847e-07)
(-2.02419e-09 1.42901e-09 6.04765e-08)
(2.80323e-09 1.48049e-09 2.54364e-08)
(2.82156e-09 1.47861e-09 2.24679e-08)
(-3.13894e-09 3.5317e-09 8.26965e-08)
(1.43345e-09 -7.40328e-11 2.32576e-07)
(1.37733e-10 -7.07722e-10 1.64653e-07)
(2.5163e-09 -4.44645e-09 5.35735e-08)
(-1.03418e-09 -5.03018e-10 1.35479e-07)
(-3.61444e-10 1.20177e-09 1.72671e-07)
(-4.01664e-09 6.34693e-09 1.84163e-07)
(-4.206e-08 -5.35932e-10 2.80321e-07)
(3.10826e-09 -2.96918e-09 4.17988e-08)
(-7.20991e-09 9.26306e-09 1.82976e-07)
(-3.62257e-08 -9.25379e-11 2.1923e-07)
(-5.37237e-11 1.31458e-10 2.22704e-07)
(1.46941e-09 -1.63331e-09 1.34473e-07)
(-4.01753e-09 -2.62158e-09 1.23299e-07)
(-3.75546e-10 -6.8818e-10 1.43044e-07)
(-3.14649e-10 -8.38967e-10 1.77429e-08)
(-1.45115e-09 1.51958e-09 2.62713e-07)
(4.87258e-10 -9.08741e-11 4.30002e-07)
(-4.77795e-10 6.32795e-10 1.80448e-07)
(8.54712e-10 2.70556e-10 1.60259e-07)
(-5.08994e-10 3.49516e-10 1.87311e-07)
(-1.8114e-08 1.15576e-09 1.33083e-07)
(-5.33197e-09 1.79843e-10 1.43639e-07)
(-2.12392e-09 -1.02994e-09 3.46668e-08)
(-2.10157e-08 3.16972e-09 2.12282e-07)
(-2.37439e-08 5.59311e-09 1.63209e-07)
(2.07514e-10 -2.47118e-10 1.65565e-07)
(-1.37146e-10 -2.55173e-10 2.96178e-07)
(4.82239e-09 5.64212e-09 3.19248e-07)
(-4.90208e-10 -1.92803e-09 2.18679e-08)
(5.9565e-11 9.71507e-10 2.54573e-07)
(3.49092e-09 1.07823e-09 3.09805e-07)
(-3.45815e-09 1.65793e-09 1.93816e-07)
(-2.20166e-08 1.98422e-09 1.51777e-07)
(3.35245e-10 1.17562e-09 3.09687e-07)
(-4.90672e-10 3.466e-09 5.03253e-08)
(-1.82517e-09 1.38116e-09 1.57066e-07)
(-1.74991e-09 3.68365e-09 7.40921e-08)
(-6.28824e-10 -7.67355e-10 3.44431e-07)
(-6.21105e-10 -1.14041e-09 1.34035e-08)
(-7.28465e-10 1.18762e-09 1.48944e-07)
(-1.78452e-09 6.33121e-11 2.22175e-07)
(-4.35962e-09 1.37026e-09 2.83742e-07)
(-8.44603e-09 1.95023e-09 2.02735e-07)
(-6.01304e-09 2.26327e-09 2.04416e-07)
(9.76119e-10 -1.81761e-09 6.40328e-08)
(-7.36684e-10 2.02654e-09 2.04322e-07)
(-1.13844e-09 -2.75436e-09 3.14597e-07)
(2.37017e-10 1.92866e-09 5.03988e-08)
(2.31713e-09 2.36174e-09 3.91495e-07)
(1.55852e-10 1.37658e-10 2.18677e-07)
(-1.61807e-09 -3.56633e-09 1.55956e-07)
(-1.3095e-09 8.00422e-10 1.4062e-08)
(-9.46996e-10 -8.23574e-10 2.73476e-07)
(-4.30042e-09 2.26354e-09 3.26183e-07)
(-1.99141e-09 8.38098e-10 1.26737e-07)
(-2.18112e-09 -1.54549e-09 1.51282e-08)
(3.55036e-09 3.38602e-09 8.70183e-08)
(5.97986e-09 -3.51166e-09 1.09313e-07)
(-6.71111e-10 1.45767e-09 3.83915e-08)
(-2.04441e-10 -4.07453e-10 2.15301e-08)
(4.93854e-09 1.54919e-10 1.59584e-07)
(-2.03844e-09 1.28125e-10 3.36925e-07)
(2.28457e-09 -1.25391e-10 1.52194e-07)
(-1.76721e-09 -6.6187e-10 2.9147e-07)
(9.61996e-10 1.95198e-09 1.67347e-08)
(2.78728e-10 -9.33034e-10 2.15268e-07)
(-1.50041e-09 -1.19439e-09 8.52775e-08)
(-1.17906e-09 8.28094e-10 6.53334e-08)
(-1.91195e-10 -2.98001e-09 1.0299e-07)
(7.51453e-11 -6.06593e-10 1.50522e-07)
(7.11851e-10 1.06265e-09 8.24601e-08)
(-1.94807e-08 -1.82282e-09 4.52807e-07)
(-1.26381e-09 6.72556e-10 2.5378e-07)
(-1.44087e-08 1.14956e-09 3.10055e-07)
(8.24331e-10 -6.91729e-09 1.45292e-07)
(6.8932e-10 5.01798e-10 6.00372e-08)
(-3.14987e-09 -4.32699e-09 3.07921e-07)
(1.10123e-09 3.89111e-09 4.12118e-08)
(-1.0003e-09 -2.0364e-09 2.86114e-08)
(9.20342e-10 2.35378e-09 1.01934e-07)
(-1.95151e-10 -1.01703e-09 2.1372e-07)
(-6.08483e-10 1.10871e-09 9.48182e-08)
(-3.49903e-09 6.52141e-10 4.45204e-08)
(1.28032e-10 2.32523e-10 1.94547e-08)
(-4.51058e-10 1.05272e-10 1.88871e-07)
(3.46097e-09 1.84502e-09 2.21383e-07)
(-3.20738e-09 -1.94735e-10 1.58768e-07)
(-2.17676e-09 -6.49283e-09 1.11401e-07)
(-1.59329e-09 -5.88191e-10 2.17836e-07)
(2.55723e-09 -2.07728e-09 9.12437e-08)
(-1.64069e-09 -9.71997e-11 3.39887e-07)
(4.00665e-10 6.99817e-10 2.78463e-08)
(1.23366e-09 4.46806e-10 9.40643e-08)
(4.47474e-10 -1.54615e-09 5.46416e-08)
(-7.79104e-09 -1.11777e-10 1.82105e-07)
(7.77009e-10 -1.35009e-09 2.66237e-07)
(-1.56475e-09 -2.17914e-09 7.56585e-08)
(-4.57829e-10 -3.58686e-10 2.04287e-07)
(3.78172e-10 3.46086e-09 3.06016e-07)
(1.29785e-09 -1.54159e-09 1.53473e-08)
(1.03285e-09 1.44125e-09 2.17512e-07)
(-6.76912e-10 -6.35969e-10 2.38972e-07)
(-7.29096e-10 -6.75265e-10 3.64004e-07)
(1.93464e-09 -1.1974e-09 2.01988e-07)
(1.81119e-10 -5.67606e-10 1.75282e-08)
(4.76407e-09 2.77073e-09 2.97586e-07)
(-6.40643e-10 5.54482e-09 5.87846e-08)
(-4.10392e-09 8.40793e-10 2.50625e-08)
(-1.51579e-09 1.90724e-09 2.31279e-07)
(-5.71805e-10 2.31416e-09 9.19558e-08)
(-2.33354e-09 -3.13871e-09 2.89018e-07)
(6.42606e-10 -2.47818e-10 2.95118e-07)
(-3.18863e-09 9.20171e-10 2.72726e-07)
(-1.63599e-09 1.20879e-09 2.08895e-07)
(-2.55711e-09 4.75909e-09 8.0265e-08)
(1.12265e-09 -1.73316e-10 2.20297e-07)
(-1.93102e-09 -5.70378e-09 1.14816e-07)
(-7.01963e-10 4.77167e-10 1.92712e-07)
(-8.75109e-10 -1.0163e-09 1.83852e-07)
(7.02626e-10 -9.79501e-10 7.06973e-08)
(6.52107e-10 -3.95604e-10 3.05851e-07)
(1.07994e-09 1.16824e-10 3.2029e-07)
(-1.08776e-09 -1.17429e-09 3.07869e-08)
(-3.51752e-09 8.05549e-10 6.30219e-08)
(2.51777e-10 1.01332e-09 2.05421e-07)
(-4.52212e-09 7.48074e-09 1.14056e-07)
(6.90454e-11 8.7019e-10 2.48391e-07)
(-3.96512e-10 3.33207e-10 1.85779e-07)
(-1.46241e-09 -7.66504e-10 3.39148e-07)
(-1.23688e-09 -2.13564e-09 2.56619e-08)
(-1.2279e-09 -1.09843e-09 3.00629e-08)
(-1.70916e-09 -2.17648e-11 3.7588e-08)
(-1.31052e-10 -6.52879e-10 1.05698e-07)
(-2.33098e-09 -3.84453e-10 1.70354e-07)
(-4.39794e-09 1.11307e-09 4.25307e-07)
(2.9584e-09 -4.9073e-10 8.3948e-08)
(6.57468e-10 4.76667e-10 2.66741e-07)
(2.17576e-09 1.54769e-09 1.79137e-08)
(1.478e-09 1.08552e-09 1.06561e-07)
(2.42121e-09 1.50832e-09 2.56609e-08)
(6.11704e-10 4.7138e-10 1.73284e-07)
(-7.53734e-10 -5.94499e-10 1.48664e-07)
(-1.57325e-09 3.70863e-10 1.97783e-07)
(-2.49971e-09 4.3959e-09 1.81001e-07)
(-9.82307e-10 -5.754e-10 2.84209e-07)
(-1.13627e-09 -5.29084e-10 1.95982e-07)
(-3.41551e-10 -2.7365e-10 3.88266e-07)
(-1.10194e-09 4.50305e-11 2.12781e-07)
(8.74004e-10 2.28696e-10 2.0603e-07)
(6.30602e-10 2.43469e-09 2.82359e-07)
(-1.88352e-09 2.587e-09 2.83827e-07)
(-1.58665e-09 1.12268e-09 3.04265e-07)
(-5.01466e-10 1.56608e-10 1.08292e-07)
(-3.93349e-09 7.94609e-10 2.86454e-07)
(2.36151e-09 3.67664e-09 7.73222e-08)
(-4.65704e-10 3.3366e-09 9.43673e-08)
(-1.98884e-09 1.13928e-09 2.16132e-07)
(-3.56085e-10 5.87257e-10 2.66745e-07)
(7.3537e-09 1.54417e-09 2.34847e-07)
(6.93538e-10 2.50596e-10 2.96357e-07)
(1.58549e-09 -1.45825e-11 7.25294e-08)
(-1.95849e-10 -4.88995e-09 1.03508e-07)
(-1.35191e-09 -2.38569e-09 3.09094e-07)
(4.73513e-09 2.38644e-10 2.095e-07)
(-7.13557e-10 -1.1809e-09 5.88932e-08)
(-7.35342e-10 1.9981e-09 7.1916e-08)
(-4.53142e-09 4.011e-09 1.63567e-07)
(-1.03207e-10 -2.90381e-10 1.93607e-07)
(-4.84656e-09 6.04605e-09 3.00902e-07)
(-1.32523e-09 2.53325e-09 1.44911e-07)
(-2.27441e-09 -9.42577e-10 3.41336e-07)
(1.47664e-11 4.91807e-09 1.84818e-07)
(-1.07288e-09 -2.31764e-09 1.85021e-08)
(1.42076e-09 5.97661e-10 3.01805e-07)
(2.33222e-09 -1.81428e-09 2.7405e-08)
(2.23145e-09 1.11706e-09 5.02219e-08)
(-2.09059e-09 -5.80867e-10 3.74865e-07)
(-6.73134e-10 -5.02331e-10 2.4876e-07)
(-3.56566e-09 1.8722e-09 2.66234e-08)
(-1.87723e-10 -2.40186e-09 2.93418e-07)
(-2.66085e-09 -4.15614e-09 2.4196e-07)
(-3.96552e-09 4.64848e-10 2.53049e-07)
(4.34371e-10 -8.55356e-10 3.42416e-07)
(1.84626e-09 -1.91995e-09 2.20941e-08)
(3.56428e-10 1.05778e-09 2.95841e-07)
(7.05408e-12 9.79674e-11 1.59249e-07)
(-4.21402e-10 -5.22876e-10 1.65825e-07)
(-2.01411e-09 9.26525e-10 2.51485e-07)
(-1.10984e-09 6.7347e-10 1.7032e-07)
(-6.15217e-10 -8.31277e-10 1.72623e-07)
(3.09399e-10 -1.12436e-09 2.71987e-07)
(3.92447e-12 2.16189e-09 3.69385e-08)
(-3.73299e-10 -8.54936e-10 2.88997e-07)
(2.80196e-10 9.17344e-10 1.89509e-07)
(-4.75472e-10 5.77154e-10 3.85151e-07)
(-1.50747e-09 1.2031e-09 2.77125e-07)
(9.84175e-10 -1.71643e-09 3.04335e-07)
(2.27489e-09 -2.76366e-09 1.31046e-07)
(-5.65797e-10 -1.21054e-09 1.88465e-08)
(8.36841e-10 5.25528e-10 3.36974e-08)
(-4.51207e-09 7.11683e-10 5.14269e-07)
(-2.48182e-09 1.0078e-09 1.72456e-08)
(-2.24124e-09 -2.16043e-09 1.67517e-07)
(-1.32324e-09 4.02945e-09 7.06721e-08)
(-1.56335e-09 -1.64959e-09 3.22103e-07)
(-1.1666e-09 1.56296e-11 3.8371e-07)
(-1.17088e-09 1.51323e-09 3.15741e-07)
(2.16498e-09 1.67548e-09 1.18612e-07)
(8.46777e-09 1.37805e-10 2.89227e-07)
(7.1727e-11 6.97129e-09 6.47402e-08)
(3.56341e-10 -2.68372e-09 8.63837e-08)
(-3.67439e-10 1.12381e-09 2.03268e-07)
(6.00324e-10 -2.05987e-09 1.51941e-07)
(-3.18706e-08 -3.8294e-09 2.69466e-07)
(5.54659e-10 -4.49896e-09 1.87713e-07)
(-6.14341e-10 -9.00319e-11 6.1314e-08)
(3.52032e-09 -2.77846e-10 9.91515e-08)
(-1.41395e-09 -3.37986e-09 2.02928e-07)
(-5.61079e-10 -1.33938e-10 2.23009e-07)
(1.06162e-09 -2.79758e-09 4.43059e-07)
(-7.16924e-10 1.2178e-09 2.37555e-07)
(5.01338e-10 4.27239e-09 4.93614e-07)
(-1.03118e-08 -1.01874e-09 1.66575e-07)
(-2.7785e-09 -6.21793e-10 3.33148e-07)
(-2.04988e-09 3.8496e-10 2.84127e-07)
(9.74165e-10 2.87759e-10 1.99594e-07)
(2.38066e-09 6.48665e-10 3.42361e-07)
(-5.0597e-09 -4.04285e-09 1.00784e-07)
(2.7388e-09 -1.17789e-09 2.20919e-08)
(2.7603e-09 3.17934e-10 2.95004e-07)
(1.59969e-09 3.76386e-09 5.53748e-08)
(3.20062e-11 -8.09069e-11 2.67852e-08)
(-4.6741e-09 -3.08719e-10 4.00201e-07)
(5.26775e-10 1.36106e-11 1.98778e-07)
(-3.68594e-09 4.55176e-09 1.06163e-07)
(-5.69834e-10 -9.2104e-10 2.62602e-07)
(8.85746e-10 1.50371e-09 3.32983e-07)
(-1.42074e-09 -1.12981e-10 4.45647e-07)
(-2.08715e-09 1.02419e-10 2.75642e-07)
(-7.66646e-11 -1.43691e-09 2.97521e-08)
(-6.05558e-10 3.74047e-10 3.18552e-07)
(-1.07383e-09 2.47778e-10 2.2802e-07)
(5.57784e-10 1.33455e-09 9.476e-08)
(-2.76393e-10 -1.65516e-09 3.10308e-07)
(-2.97847e-10 4.09595e-10 2.61342e-07)
(9.67054e-10 6.62889e-10 1.71617e-07)
(9.77298e-10 1.40813e-09 1.97081e-07)
(-6.40493e-10 -3.60557e-09 2.78395e-07)
(7.68436e-10 1.48114e-09 2.00589e-07)
(-3.58053e-10 2.13203e-10 7.50985e-08)
(-3.8436e-10 9.43253e-10 1.91594e-08)
(3.87911e-10 2.77983e-09 3.74672e-08)
(1.06772e-09 -7.4342e-10 2.12805e-07)
(-3.91717e-08 -2.09956e-10 2.67852e-07)
(-1.1418e-08 1.18443e-09 1.1579e-07)
(5.46231e-10 -5.32444e-10 1.07437e-07)
(3.30724e-09 -2.8274e-09 2.4262e-07)
(-2.00728e-09 1.52117e-09 3.05728e-07)
(-6.57989e-09 2.69938e-10 2.32378e-07)
(8.26653e-10 2.71604e-09 3.60388e-07)
(-1.29992e-09 -2.26248e-09 3.3402e-07)
(1.1283e-10 -8.61848e-10 2.23906e-07)
(-8.2744e-10 -7.3634e-11 1.38948e-07)
(-3.3316e-10 6.81849e-10 2.27132e-08)
(-4.78752e-08 1.7294e-09 2.4109e-07)
(6.67095e-10 2.10429e-09 8.36448e-08)
(-1.40472e-09 2.3666e-09 6.06697e-08)
(1.39801e-09 5.40589e-10 6.43699e-08)
(2.48653e-10 7.98456e-10 1.7533e-07)
(-9.04749e-10 5.46139e-10 1.68732e-07)
(-1.86258e-09 7.36562e-10 2.38078e-07)
(-1.0276e-09 1.25245e-09 1.60012e-08)
(4.26698e-10 -4.88398e-10 1.66985e-07)
(1.59302e-09 -9.936e-10 6.1428e-08)
(-1.24706e-10 1.7928e-10 1.90194e-07)
(-5.98283e-10 7.01796e-10 5.28656e-08)
(3.82547e-09 1.75487e-09 1.4264e-07)
(1.45264e-09 5.76999e-09 2.11779e-07)
(-1.91889e-09 -5.4838e-10 1.8552e-07)
(2.36317e-09 -2.20342e-10 1.77515e-08)
(-2.76286e-10 4.55474e-09 1.08062e-07)
(1.23513e-10 -1.02935e-09 2.36311e-07)
(9.43773e-11 -2.42338e-09 2.37297e-08)
(-2.13219e-08 -6.3703e-10 2.89704e-07)
(8.81398e-10 -4.20506e-09 1.78427e-07)
(-1.05889e-09 -4.91481e-09 2.99961e-07)
(4.76352e-09 -5.7769e-09 1.9444e-07)
(2.4444e-09 8.36479e-10 9.07234e-08)
(1.23798e-09 1.63385e-10 3.98724e-07)
(-1.87518e-08 -5.9434e-09 1.42007e-07)
(-1.44199e-10 -6.53086e-11 3.4646e-07)
(-1.7423e-08 1.18037e-09 1.55525e-07)
(-5.158e-09 3.75098e-09 1.3625e-07)
(-7.27948e-10 3.26262e-09 1.38688e-07)
(4.31056e-10 -1.99477e-10 2.83379e-07)
(1.13464e-09 -2.94303e-10 5.59641e-07)
(9.10566e-10 -7.99814e-10 7.68692e-08)
(-1.13301e-09 -1.35741e-09 3.32051e-07)
(-2.63211e-09 8.51023e-10 1.15889e-07)
(-4.79822e-10 -1.18156e-09 4.56901e-07)
(8.0219e-10 -1.66179e-09 3.48046e-07)
(-1.57295e-09 -5.23257e-09 6.66225e-08)
(-6.0441e-10 1.79005e-09 2.15266e-07)
(6.46668e-09 -6.46358e-10 3.81093e-07)
(-1.37459e-09 -4.56974e-10 2.27701e-07)
(3.67135e-10 -1.32836e-09 2.23036e-07)
(2.58135e-09 -1.37903e-09 2.24704e-08)
(-2.46465e-09 -6.38485e-10 1.89203e-08)
(-3.36877e-09 3.17432e-09 2.90288e-07)
(-2.35034e-10 -1.12572e-10 2.94371e-07)
(1.29782e-09 1.21636e-09 2.31703e-07)
(-2.27646e-09 1.2259e-09 3.40875e-08)
(7.59216e-10 -4.54617e-10 9.154e-08)
(-3.78719e-09 -7.89064e-10 2.95172e-07)
(1.72162e-10 -1.87764e-11 1.7545e-07)
(-1.28924e-09 1.65357e-09 3.20586e-07)
(4.66545e-10 -7.77438e-10 2.98364e-07)
(1.14999e-10 -1.23286e-09 2.25295e-07)
(-5.11399e-10 -2.20076e-09 2.3922e-07)
(3.93149e-10 -7.47579e-10 1.17958e-07)
(-6.03064e-10 4.68151e-10 2.23016e-07)
(-2.76486e-09 3.36189e-09 8.49338e-08)
(-7.81165e-10 6.22644e-10 2.94523e-07)
(-1.63309e-09 -1.07871e-09 1.85588e-07)
(-1.38813e-09 -6.78284e-10 2.16305e-07)
(-3.49189e-10 -3.39082e-11 2.28909e-07)
(-4.3652e-10 9.46871e-10 3.49257e-07)
(1.83624e-09 -1.80577e-09 2.66547e-07)
(2.80915e-09 4.25921e-09 6.47875e-08)
(1.16673e-09 -4.02101e-11 4.27854e-08)
(-1.69392e-09 -1.74439e-09 1.85039e-08)
(-1.31819e-08 9.15027e-11 2.32327e-07)
(4.10748e-10 -2.37131e-10 3.08425e-07)
(-1.77835e-09 5.27651e-10 2.71945e-07)
(-2.5308e-10 -1.32501e-09 1.90392e-07)
(1.06868e-09 2.30191e-10 2.85168e-08)
(6.38945e-10 -2.4039e-09 2.14801e-08)
(-7.41221e-10 -2.71691e-09 1.77288e-07)
(-1.32279e-09 1.73991e-09 2.34891e-07)
(-7.91242e-10 -1.12859e-09 3.21841e-07)
(1.25187e-09 -8.46256e-11 3.2091e-07)
(-1.95557e-09 3.5972e-10 1.96689e-07)
(-4.6852e-10 -3.73869e-10 3.60584e-07)
(3.43098e-09 7.76787e-10 3.72065e-07)
(-1.24718e-09 2.61228e-09 3.02675e-08)
(4.13037e-10 1.31417e-09 1.80391e-07)
(3.25736e-09 -1.82358e-09 7.01756e-08)
(-9.91532e-09 -1.08966e-09 9.75801e-08)
(-4.15317e-10 3.97848e-10 1.29771e-07)
(6.83486e-10 -5.91189e-10 1.38587e-07)
(-1.05692e-10 4.58665e-10 2.53071e-07)
(-3.12107e-09 1.98677e-09 1.8405e-08)
(-1.16136e-10 -1.21847e-09 3.68043e-07)
(-1.94048e-10 3.07091e-10 2.77706e-07)
(-5.50212e-10 -6.98772e-10 2.23786e-07)
(1.35928e-09 -1.44546e-09 1.96909e-07)
(7.7826e-10 -2.08028e-09 1.7236e-07)
(-4.33746e-10 -5.70364e-10 2.695e-07)
(-3.68348e-10 1.01295e-09 2.43575e-07)
(-7.48945e-10 1.22147e-10 3.18439e-07)
(-9.04911e-09 -8.74087e-10 1.66434e-07)
(-6.53928e-10 -4.75457e-11 2.74079e-07)
(-5.19309e-09 2.45221e-09 2.90272e-07)
(1.28192e-09 -1.12415e-09 1.77216e-08)
(-4.18749e-10 -5.37663e-10 3.16899e-07)
(2.29197e-09 3.01111e-09 1.88932e-07)
(-4.0374e-09 -3.7476e-09 6.23998e-08)
(-1.97874e-09 2.7407e-09 1.68007e-07)
(-2.72582e-10 4.92073e-10 3.50818e-07)
(-1.2335e-10 -2.15589e-09 2.2119e-07)
(1.25404e-09 3.01066e-09 1.15211e-07)
(-1.90887e-09 1.35153e-09 1.7414e-08)
(-4.5368e-10 -1.87192e-10 2.63206e-07)
(1.58281e-09 6.60983e-09 3.32122e-07)
(-1.10789e-09 -1.94111e-10 2.38658e-07)
(-1.15111e-09 -3.41691e-10 1.859e-07)
(-3.391e-09 9.7056e-10 5.53249e-08)
(4.32145e-10 -5.07866e-11 2.51122e-07)
(-4.01239e-09 3.261e-10 2.64285e-08)
(9.54504e-11 8.74285e-10 1.76611e-07)
(-2.4388e-08 1.22648e-09 2.08665e-07)
(2.47287e-09 6.93818e-10 2.61129e-07)
(-3.30329e-10 3.00033e-09 8.50287e-08)
(-2.27141e-09 2.62118e-09 1.79102e-07)
(-5.99832e-11 1.46261e-09 1.12998e-07)
(2.65784e-09 -2.27263e-09 4.57642e-08)
(2.42076e-10 -1.22671e-10 4.92955e-07)
(-2.93349e-10 -7.6139e-10 2.19353e-07)
(-1.63097e-09 -6.42688e-10 1.69287e-08)
(-9.50137e-10 1.90387e-10 2.85219e-07)
(-9.21238e-10 7.66156e-10 2.97985e-07)
(-6.00642e-10 2.21349e-09 3.74118e-08)
(3.08815e-09 4.52101e-09 1.239e-07)
(-2.49909e-09 3.58075e-09 9.59648e-08)
(-9.11359e-10 -2.70265e-10 1.91975e-07)
(3.52747e-10 -7.37592e-10 2.7105e-07)
(-1.32373e-09 1.30277e-09 3.49677e-08)
(2.79941e-09 -1.28992e-09 8.76586e-08)
(-3.43091e-10 1.92882e-09 9.87062e-08)
(1.93346e-09 1.62231e-09 1.73474e-07)
(-3.66129e-10 -1.14356e-09 3.52145e-07)
(-2.62565e-09 -1.83014e-09 2.26682e-08)
(2.05205e-09 6.08426e-10 3.67919e-07)
(-6.24017e-09 -1.2324e-09 2.37083e-07)
(3.52213e-10 -1.51469e-09 2.84745e-07)
(-2.97663e-09 -6.12216e-09 1.14195e-07)
(2.63941e-10 6.2139e-10 3.36891e-07)
(1.11045e-09 -2.14809e-09 2.20188e-08)
(-2.48206e-09 -5.34136e-10 2.98718e-07)
(1.54526e-10 -3.57578e-10 2.66502e-08)
(-8.34158e-10 -4.0801e-09 1.35605e-07)
(-1.06208e-10 1.83971e-09 2.2725e-07)
(-2.43233e-09 3.44004e-09 1.33139e-07)
(-2.45157e-09 1.46201e-09 1.82932e-08)
(4.8463e-10 -1.75702e-09 4.8786e-08)
(7.87593e-10 4.76526e-09 7.30171e-08)
(1.75384e-09 -4.16774e-09 1.27886e-07)
(-2.09072e-09 -4.60502e-10 3.24335e-07)
(2.16654e-11 1.29521e-09 5.58499e-08)
(2.55528e-09 -4.1228e-09 1.3239e-07)
(-2.73546e-08 1.10424e-09 2.25784e-07)
(-3.42339e-10 -3.31349e-10 2.19917e-07)
(1.82191e-09 2.27314e-11 2.78959e-08)
(3.39418e-10 2.50026e-09 2.22583e-07)
(-1.54261e-08 -7.81229e-09 1.4728e-07)
(4.72541e-11 3.92804e-10 2.06754e-07)
(-1.99966e-09 1.43226e-09 9.78958e-08)
(-9.37223e-10 -7.11541e-10 1.80574e-07)
(2.31869e-09 4.68473e-09 1.03343e-07)
(-8.42902e-10 9.77411e-10 1.59631e-07)
(-6.50287e-10 7.12704e-10 1.66225e-07)
(3.59661e-09 -5.95567e-09 6.9729e-08)
(2.45187e-10 -3.6781e-10 3.04094e-07)
(-4.78286e-09 -1.19101e-09 7.10235e-08)
(2.0398e-09 -1.28992e-09 1.48551e-08)
(-1.01579e-09 1.75782e-09 3.17231e-07)
(-1.77697e-11 3.98677e-10 1.98266e-07)
(-2.22036e-09 1.41899e-09 2.90832e-07)
(1.16687e-09 -3.17694e-09 2.24828e-07)
(2.03111e-09 4.02341e-10 4.827e-07)
(4.00731e-09 -4.77998e-10 1.33428e-07)
(1.79757e-09 -5.71995e-10 4.16753e-07)
(2.02225e-09 4.66636e-09 9.52172e-08)
(-2.72702e-11 -1.35745e-10 1.56956e-07)
(4.18049e-09 2.08756e-09 3.02219e-07)
(-3.64656e-09 -2.44986e-09 3.11497e-08)
(-2.58035e-09 4.55791e-10 3.0387e-07)
(2.33754e-09 -2.60176e-09 1.1009e-07)
(1.37121e-09 2.62773e-09 2.86795e-08)
(-2.65318e-09 1.10078e-09 2.75678e-07)
(-2.32123e-09 1.19321e-10 6.03271e-08)
(-1.80042e-11 -9.91642e-11 2.02193e-07)
(-3.3366e-10 1.21051e-09 2.33205e-07)
(-1.93718e-10 7.34775e-10 3.71794e-07)
(1.48797e-10 6.21768e-09 9.33259e-08)
(1.43152e-09 2.49469e-10 3.00275e-07)
(3.1133e-09 6.39028e-10 1.4867e-07)
(2.22716e-11 2.6367e-10 3.33902e-07)
(-8.00237e-10 4.44647e-10 3.34597e-07)
(-8.77425e-10 1.63944e-09 2.95872e-07)
(-6.14832e-10 4.65131e-10 1.76273e-07)
(3.24077e-09 -1.26647e-09 4.68736e-08)
(4.03118e-10 5.84631e-10 6.77015e-08)
(8.78575e-10 6.89562e-11 1.86948e-07)
(9.46438e-10 -2.87738e-09 2.91405e-07)
(4.68333e-10 2.13885e-09 2.71801e-08)
(1.15913e-09 -2.42554e-10 2.51753e-07)
(6.44547e-12 1.08635e-09 4.96576e-07)
(-1.53729e-11 8.42902e-10 3.64928e-07)
(6.1351e-10 1.14792e-09 3.97714e-07)
(-3.82179e-09 1.36452e-09 2.44026e-07)
(-1.48596e-09 2.12034e-09 1.93435e-08)
(6.62808e-10 -2.30987e-11 2.36957e-07)
(1.05548e-09 -1.84394e-09 1.44694e-07)
(-1.02833e-09 2.21647e-09 2.69228e-07)
(-2.58391e-10 6.28271e-10 1.57319e-07)
(-2.00763e-09 -1.32095e-09 3.39794e-08)
(-3.06346e-10 -4.87987e-10 2.24688e-07)
(-3.53222e-09 4.41984e-09 1.47472e-07)
(-3.03349e-10 -4.00387e-10 2.42114e-07)
(1.49882e-10 2.50854e-10 2.89703e-07)
(-7.93893e-10 2.17104e-09 1.9953e-07)
(1.16711e-09 1.57081e-09 1.30978e-08)
(-2.00262e-09 9.56436e-10 1.91916e-08)
(-1.03817e-10 7.98856e-10 1.97765e-07)
(2.56081e-09 -9.29782e-10 3.2002e-07)
(-1.45895e-09 5.16537e-10 2.46627e-07)
(-1.09067e-09 -1.31035e-09 1.85898e-07)
(-5.70681e-10 2.60077e-09 1.56923e-07)
(-8.25255e-10 1.86714e-09 2.56788e-07)
(4.94213e-11 1.71026e-09 3.02353e-07)
(6.63445e-10 1.56875e-09 1.86435e-08)
(-4.55592e-10 6.76168e-10 1.58305e-07)
(-1.95287e-08 1.1326e-09 1.74177e-07)
(-6.88986e-11 2.50007e-09 4.42967e-08)
(-6.13802e-10 5.40136e-09 8.25523e-08)
(-1.27155e-09 1.59824e-09 3.05549e-07)
(2.47776e-09 -1.20102e-09 2.11018e-07)
(9.10929e-11 -6.42503e-10 1.96316e-07)
(1.35993e-09 -1.09828e-09 2.32299e-07)
(-3.93378e-09 2.89151e-09 1.35747e-07)
(8.31952e-10 8.87165e-11 3.56975e-07)
(1.19206e-09 -5.66017e-09 1.75756e-07)
(5.95336e-10 -7.81337e-10 4.45612e-07)
(2.56857e-10 1.20217e-09 2.28186e-07)
(-8.28026e-11 -2.92553e-10 2.56474e-07)
(-1.01791e-10 -2.99878e-10 3.33234e-07)
(1.89872e-09 1.3299e-09 4.58085e-08)
(-1.67709e-10 2.76419e-11 5.53209e-07)
(-2.90911e-10 -1.63028e-09 3.21823e-08)
(-1.66885e-08 -2.26308e-09 1.48942e-07)
(3.92226e-09 -2.755e-09 1.1241e-07)
(-1.69235e-08 -9.22978e-11 1.61647e-07)
(1.05947e-09 1.26392e-09 2.11672e-07)
(-4.83596e-08 1.13236e-09 2.90771e-07)
(5.79462e-11 5.42549e-10 1.45469e-07)
(-1.23011e-09 -1.21679e-10 3.34425e-07)
(-3.67227e-09 3.4684e-10 3.42429e-07)
(1.34431e-10 6.64168e-10 2.23822e-07)
(-6.51749e-10 -2.09569e-10 3.34299e-08)
(-5.35033e-09 1.65091e-10 1.18483e-07)
(-3.01215e-08 2.11482e-09 2.10306e-07)
(-2.36277e-10 -2.84608e-10 2.29128e-07)
(-7.15764e-10 1.94965e-09 9.85194e-08)
(-2.28888e-08 1.47227e-09 2.1823e-07)
(-9.20618e-09 2.00277e-10 2.39154e-07)
(1.4694e-09 3.24074e-09 3.0285e-07)
(-1.65376e-09 -6.38065e-10 4.24377e-08)
(1.38363e-09 2.59006e-09 5.22159e-08)
(-2.30366e-10 -1.37864e-10 2.61018e-08)
(1.05369e-09 9.8123e-10 1.87517e-08)
(-2.09484e-10 7.1217e-12 4.25231e-08)
(-1.85761e-08 4.52149e-10 2.21581e-07)
(-1.0659e-09 -9.44321e-10 1.82638e-07)
(-1.69783e-09 -1.91347e-09 1.78479e-08)
(-2.49374e-09 6.78748e-10 1.96913e-08)
(5.03286e-10 -1.7185e-10 3.83264e-07)
(-2.57741e-08 5.66401e-09 1.66156e-07)
(-2.05718e-09 1.96988e-10 4.50634e-08)
(-1.06492e-09 -1.6412e-11 2.28361e-07)
(-1.55653e-09 1.02676e-09 1.05487e-07)
(1.83124e-09 -6.409e-10 2.0125e-07)
(1.37664e-09 2.12512e-09 4.26919e-08)
(-1.88157e-09 -2.37091e-09 9.09705e-08)
(3.05423e-10 2.15109e-09 1.8913e-07)
(1.47936e-09 3.46797e-10 2.80733e-07)
(1.51968e-09 1.35118e-09 4.03677e-07)
(-2.14055e-09 2.90784e-09 4.10999e-08)
(-5.82013e-10 -2.07028e-09 2.36165e-08)
(-3.5876e-08 3.79764e-10 2.01613e-07)
(-2.80383e-09 2.10114e-09 2.68675e-08)
(-4.30787e-10 2.86514e-09 3.09187e-07)
(-3.55104e-09 -1.14919e-09 2.7517e-08)
(7.22049e-10 3.04252e-09 1.45094e-07)
(-2.29013e-09 -1.36485e-10 3.24878e-07)
(2.91868e-09 4.93016e-10 4.47391e-07)
(-4.7246e-10 -1.2725e-09 5.67934e-08)
(1.37516e-09 -7.00721e-10 1.36937e-07)
(-2.08633e-09 -2.5928e-10 3.74662e-08)
(-3.48824e-09 -2.32205e-10 2.77954e-08)
(-5.34333e-10 -1.16217e-09 2.78043e-07)
(-1.93757e-09 9.63282e-10 1.40759e-08)
(6.36427e-10 3.42687e-10 1.86883e-07)
(-4.38069e-10 -3.105e-09 5.9262e-08)
(-5.58058e-10 2.85035e-09 3.29916e-07)
(-3.94729e-10 1.27165e-09 2.26509e-07)
(2.76184e-09 1.11129e-09 1.84773e-08)
(-2.52424e-09 -6.07628e-09 1.30989e-07)
(1.59565e-10 1.41038e-09 2.49572e-07)
(-1.32755e-10 1.4789e-09 3.03163e-08)
(9.40916e-10 6.4871e-10 2.96562e-07)
(-1.92804e-09 5.36253e-09 7.6946e-08)
(3.58366e-10 2.2194e-10 2.10231e-07)
(5.10611e-10 -1.85357e-10 2.4286e-07)
(1.93226e-09 -4.35918e-11 5.34538e-08)
(-2.7268e-09 -5.65405e-10 2.05355e-08)
(-1.83666e-09 -6.57456e-10 8.94084e-08)
(-3.90904e-08 2.09679e-10 2.43642e-07)
(-1.30883e-09 -7.24806e-11 2.21052e-07)
(4.20107e-11 5.07077e-09 7.50531e-08)
(2.47925e-09 -5.36763e-10 1.78381e-07)
(3.4319e-10 9.8944e-10 2.3498e-08)
(7.31834e-10 -7.57628e-11 2.16427e-07)
(1.06165e-09 1.42655e-09 2.2516e-08)
(-1.68505e-09 3.23286e-10 3.42534e-07)
(4.51255e-11 -5.14795e-10 3.00348e-07)
(-9.00185e-10 -5.99909e-11 2.26756e-07)
(-1.36633e-09 -1.45611e-10 1.39046e-08)
(3.24339e-10 -1.22894e-09 3.44664e-07)
(-1.82076e-09 8.98386e-10 1.5378e-07)
(-3.08296e-10 -1.71932e-11 3.62492e-07)
(2.35673e-10 7.21371e-10 6.10472e-08)
(-3.00762e-08 8.06172e-10 2.22571e-07)
(-2.03428e-09 6.90562e-10 2.65007e-07)
(1.04543e-09 -1.44585e-10 6.33034e-08)
(-5.80801e-10 2.36652e-10 2.73371e-07)
(-3.94753e-08 4.59013e-09 2.10065e-07)
(-1.17286e-09 -6.646e-10 1.79861e-07)
(-7.41744e-10 -1.78303e-09 3.16937e-08)
(-2.47593e-09 4.84201e-09 9.74659e-08)
(-2.3303e-10 3.34735e-10 2.03495e-07)
(1.89263e-09 -1.49329e-09 2.16107e-07)
(-1.08251e-09 1.28772e-09 3.07103e-08)
(-3.99486e-10 -4.42893e-09 2.15539e-07)
(3.74277e-09 3.135e-09 1.54359e-07)
(-1.60505e-09 1.89761e-09 2.3676e-08)
(-5.124e-10 1.07201e-10 2.14283e-07)
(-1.54702e-08 7.46527e-10 1.5832e-07)
(-2.43649e-09 -5.30003e-09 3.21616e-07)
(-1.25386e-10 7.13079e-10 2.08995e-07)
(5.97143e-10 7.8188e-10 1.91735e-07)
(4.63615e-11 -3.75268e-10 3.20424e-07)
(1.48041e-09 -7.19351e-10 2.53271e-07)
(1.74661e-09 5.99617e-10 6.80635e-08)
(-8.89203e-10 4.68148e-09 6.97287e-08)
(-5.46238e-10 1.55787e-09 3.96922e-07)
(-2.6736e-08 -1.15141e-09 2.24792e-07)
(3.35437e-10 1.90384e-09 2.05467e-07)
(2.17873e-09 -1.89884e-09 1.85566e-07)
(2.97159e-09 -1.49379e-09 1.24071e-07)
(-1.37011e-09 3.25765e-09 3.23444e-07)
(8.55496e-10 1.19237e-09 2.0697e-07)
(-1.70994e-09 -1.78151e-09 1.77426e-07)
(-3.41504e-09 2.37126e-09 2.20795e-07)
(-1.67689e-09 2.30896e-09 4.29774e-08)
(-1.17613e-09 -7.29532e-10 1.65847e-07)
(-2.3594e-09 -1.81572e-09 3.76624e-08)
(2.01355e-09 -1.92389e-09 3.14616e-07)
(9.15352e-10 -6.12197e-10 3.36574e-07)
(-1.46275e-09 4.84311e-09 1.6217e-07)
(-6.56735e-12 -1.66624e-09 1.58237e-07)
(9.85933e-10 -1.49613e-09 1.71048e-08)
(3.10522e-10 -9.95771e-10 1.02183e-07)
(-3.59603e-09 -1.69603e-09 7.3059e-08)
(-1.40394e-09 6.88695e-10 2.73911e-07)
(1.30461e-09 2.90523e-10 2.47744e-07)
(-2.37606e-08 -1.53803e-09 2.20569e-07)
(-1.98821e-09 1.09351e-09 3.20139e-07)
(-1.48242e-09 2.67882e-09 8.01215e-08)
(-1.11848e-08 5.10147e-10 1.36573e-07)
(1.354e-09 -3.94098e-09 2.42522e-07)
(1.79203e-09 8.88501e-10 2.59932e-08)
(7.79324e-10 -5.65012e-10 2.54396e-07)
(-1.88714e-10 1.45765e-09 5.22698e-08)
(-2.01338e-09 -3.21906e-10 2.06156e-07)
(3.8922e-09 -2.02707e-09 3.06319e-08)