/*--------------------------------*- C++ -*----------------------------------*\
| =========                 |                                                 |
| \\      /  F ield         | OpenFOAM: The Open Source CFD Toolbox           |
|  \\    /   O peration     | Version:  2406                                  |
|   \\  /    A nd           | Website:  www.openfoam.com                      |
|    \\/     M anipulation  |                                                 |
\*---------------------------------------------------------------------------*/
FoamFile
{
    version     2.0;
    format      ascii;
    arch        "LSB;label=32;scalar=64";
    class       volVectorField;
    location    "58";
    object      momentum:momentum;
}
// * * * * * * * * * * * * * * * * * * * * * * * * * * * * * * * * * * * * * //

dimensions      [1 1 -1 0 0 0 0];

internalField   nonuniform List<vector> 
59516
(
(2.23001e-07 -2.34858e-09 -1.11983e-09)
(1.65014e-07 -1.93482e-10 -6.57962e-10)
(2.02023e-07 -1.11499e-09 -8.47068e-10)
(1.72314e-07 1.6802e-09 2.50685e-09)
(2.00001e-07 3.68142e-10 -8.02754e-09)
(5.03649e-08 -2.40665e-09 -5.37991e-09)
(2.09298e-07 -3.40669e-09 -3.70407e-09)
(1.92771e-07 1.22199e-09 -2.14435e-10)
(1.55553e-07 1.29803e-09 -7.73818e-11)
(7.72398e-08 -1.53072e-09 3.03388e-09)
(2.08468e-07 -4.6527e-10 -3.37436e-09)
(1.01599e-07 3.37811e-10 -6.36374e-09)
(3.18523e-07 3.19928e-09 5.74082e-11)
(1.54068e-08 -9.61755e-11 -1.43457e-10)
(1.47555e-07 3.53563e-09 8.16e-09)
(8.27909e-08 5.75016e-09 -2.57769e-09)
(2.70097e-07 -4.29076e-09 -2.02099e-09)
(1.5973e-07 9.15308e-09 -1.0002e-08)
(3.29759e-07 1.76245e-08 1.80665e-09)
(3.73885e-07 -3.84599e-09 -8.3405e-10)
(9.93997e-08 1.71701e-09 -2.37727e-09)
(3.17609e-07 -2.02371e-09 5.34659e-10)
(3.5131e-07 -2.58177e-09 -6.10569e-09)
(3.37412e-08 -1.0297e-09 -2.82332e-10)
(3.1314e-07 -1.17841e-09 7.11748e-10)
(1.96051e-07 4.49325e-09 1.9097e-09)
(5.07687e-08 1.02315e-09 -3.54998e-09)
(7.40406e-08 6.33822e-09 3.22613e-10)
(1.44349e-07 6.08917e-09 -1.35261e-09)
(1.29446e-08 -2.01889e-09 4.95384e-10)
(1.8946e-07 -3.67886e-08 -8.11203e-09)
(8.36767e-08 6.74845e-09 -1.05569e-09)
(1.73626e-07 1.87811e-10 1.06201e-09)
(1.73543e-07 -1.52873e-09 3.21467e-09)
(1.3365e-07 5.27111e-09 3.80633e-09)
(3.99267e-07 8.45058e-10 -1.34609e-09)
(1.25615e-08 -1.22661e-09 -1.74718e-09)
(1.31646e-07 5.05041e-09 -1.27394e-08)
(2.66416e-07 -1.08973e-08 -1.0912e-09)
(2.83424e-07 2.28845e-10 -1.3454e-09)
(2.53462e-07 -1.46386e-09 5.934e-10)
(4.06986e-07 -2.42405e-08 -2.25527e-08)
(3.43327e-07 -9.66315e-09 -8.02415e-09)
(1.08864e-07 -7.01078e-10 3.41902e-10)
(2.64705e-07 -1.02697e-08 -8.81768e-10)
(9.98532e-08 -1.37623e-09 -2.30263e-09)
(3.24363e-07 -7.47668e-09 -1.12e-08)
(2.5498e-07 -8.22503e-09 -1.65284e-09)
(2.51868e-07 -2.026e-08 2.78886e-08)
(2.41276e-07 1.1034e-08 8.62457e-09)
(1.63914e-07 1.65031e-08 -2.28745e-08)
(7.40871e-08 -6.45475e-09 4.42174e-09)
(3.12213e-07 2.71919e-09 -6.11143e-09)
(2.97236e-07 -1.33776e-09 3.2727e-10)
(8.20513e-08 5.26223e-09 -3.13766e-11)
(2.46019e-07 5.88646e-09 -1.79407e-09)
(2.03477e-07 1.16967e-08 1.20198e-08)
(7.46281e-08 6.50896e-09 -4.55407e-09)
(2.13453e-07 1.94272e-10 -3.25664e-10)
(1.45855e-07 6.98324e-09 8.77103e-09)
(2.088e-07 -7.6164e-10 1.1504e-10)
(1.47572e-08 1.86086e-09 -6.43421e-10)
(2.7218e-07 7.25122e-10 1.2661e-09)
(3.44535e-07 5.97234e-09 4.6593e-09)
(2.86474e-07 5.75228e-10 -1.83107e-09)
(2.15513e-07 5.75027e-09 8.24933e-09)
(1.74657e-08 -1.18809e-09 1.60298e-09)
(6.45277e-08 4.2725e-10 -3.7905e-10)
(1.98338e-07 -8.24996e-09 3.62951e-08)
(1.68941e-07 1.57477e-09 -4.44617e-09)
(5.04733e-08 1.38644e-09 4.16594e-10)
(1.5862e-07 2.59288e-09 -2.93205e-10)
(2.25338e-08 1.40803e-09 -3.43224e-09)
(1.86209e-07 2.22293e-09 1.00415e-09)
(3.8938e-07 -3.43045e-10 -1.09074e-09)
(3.60686e-07 -6.14692e-09 -7.60608e-09)
(2.15201e-07 -3.70709e-09 -5.4491e-09)
(2.26834e-07 -4.35064e-10 5.76287e-10)
(8.2418e-08 -2.7351e-09 2.60059e-09)
(1.93322e-07 4.00209e-09 1.02406e-08)
(4.89692e-08 3.0099e-09 1.45092e-09)
(1.71577e-07 4.94037e-09 7.44176e-09)
(1.8291e-07 2.50112e-09 8.03736e-09)
(1.75297e-08 -6.60698e-10 2.45699e-09)
(2.15278e-07 4.90762e-09 9.81548e-09)
(3.8741e-07 -2.39505e-09 5.28555e-10)
(3.07081e-08 -1.12428e-09 4.8945e-10)
(5.01885e-07 -1.70259e-09 -1.23831e-09)
(1.0791e-07 1.37103e-09 4.24937e-09)
(1.66761e-07 1.32001e-08 -9.07392e-09)
(1.83379e-07 -1.22879e-09 -1.60803e-08)
(1.89607e-07 1.99597e-09 -5.13346e-10)
(2.65237e-07 6.66361e-10 -4.58847e-10)
(1.82372e-07 1.37163e-09 -4.62716e-10)
(1.86068e-07 8.98795e-11 -2.80378e-11)
(1.83418e-07 -1.75772e-08 6.56687e-09)
(1.24109e-07 -2.76666e-10 3.72591e-10)
(8.25617e-08 -3.05483e-09 -6.56499e-09)
(1.15066e-07 4.36549e-09 -1.89922e-09)
(2.07847e-07 -1.11403e-09 2.46503e-09)
(6.04765e-08 9.27401e-10 2.29768e-09)
(2.54364e-08 1.32568e-09 -2.87968e-09)
(2.24679e-08 7.96486e-10 3.08433e-09)
(8.26965e-08 -1.24999e-09 -4.55668e-09)
(2.32576e-07 1.385e-09 -3.76863e-10)
(1.64653e-07 -5.43355e-10 -4.73927e-10)
(5.35735e-08 4.7231e-09 -1.94807e-09)
(1.35479e-07 3.99014e-10 -1.07859e-09)
(1.72671e-07 -1.18654e-09 4.0867e-10)
(1.84163e-07 1.1435e-09 -7.42357e-09)
(2.80321e-07 2.90168e-08 -3.04526e-08)
(4.17988e-08 4.24338e-09 -6.86302e-10)
(1.82976e-07 2.35057e-09 -1.15005e-08)
(2.1923e-07 3.23761e-08 -1.62511e-08)
(2.22704e-07 -1.32965e-11 1.41388e-10)
(1.34473e-07 1.50104e-09 1.60429e-09)
(1.23299e-07 1.41035e-09 -4.58522e-09)
(1.43044e-07 -1.08664e-10 7.76414e-10)
(1.77429e-08 -2.60539e-10 8.57315e-10)
(2.62713e-07 2.01563e-09 5.93455e-10)
(4.30002e-07 -2.09106e-10 4.49392e-10)
(1.80448e-07 -3.64516e-10 7.04163e-10)
(1.60259e-07 -1.31823e-10 8.86767e-10)
(1.87311e-07 -3.9884e-10 4.71342e-10)
(1.33083e-07 -1.79416e-08 2.74793e-09)
(1.43639e-07 2.09423e-09 -4.90678e-09)
(3.46668e-08 -6.66372e-10 2.26445e-09)
(2.12282e-07 -2.11783e-08 -1.78464e-09)
(1.63209e-07 -5.00642e-09 2.38745e-08)
(1.65565e-07 3.00124e-10 -1.18553e-10)
(2.96178e-07 2.78981e-10 -7.80535e-11)
(3.19248e-07 4.98004e-09 5.50347e-09)
(2.18679e-08 1.30829e-09 -1.49866e-09)
(2.54573e-07 -5.56353e-10 7.98653e-10)
(3.09805e-07 3.54421e-09 8.87532e-10)
(1.93816e-07 -1.01893e-09 -3.69721e-09)
(1.51777e-07 1.81124e-08 -1.26731e-08)
(3.09687e-07 -9.23653e-10 8.00838e-10)
(5.03253e-08 3.49651e-09 1.68378e-10)
(1.57066e-07 9.42249e-10 -2.08591e-09)
(7.40921e-08 -1.46001e-09 -3.80786e-09)
(3.44431e-07 -9.0677e-10 4.02519e-10)
(1.34035e-08 5.66904e-10 1.1683e-09)
(1.48944e-07 -1.16165e-09 -7.69208e-10)
(2.22175e-07 7.14568e-10 1.63643e-09)
(2.83742e-07 4.44203e-09 1.07342e-09)
(2.02735e-07 -8.08889e-09 -3.11586e-09)
(2.04416e-07 3.34259e-09 -5.4869e-09)
(6.40328e-08 -1.03587e-09 1.78424e-09)
(2.04322e-07 -1.08482e-09 -1.86352e-09)
(3.14597e-07 -1.42321e-09 -2.61859e-09)
(5.03988e-08 -1.94301e-09 2.44058e-11)
(3.91495e-07 -2.12052e-09 2.53975e-09)
(2.18677e-07 -1.78498e-10 1.06666e-10)
(1.55956e-07 -1.75683e-10 3.91228e-09)
(1.4062e-08 -2.59527e-10 1.51265e-09)
(2.73476e-07 -1.10985e-09 -5.85919e-10)
(3.26183e-07 4.85237e-09 -2.67754e-10)
(1.26737e-07 2.11319e-09 4.50088e-10)
(1.51282e-08 1.8048e-09 -1.97194e-09)
(8.70183e-08 2.22486e-09 -4.37266e-09)
(1.09313e-07 -5.91272e-09 -3.62356e-09)
(3.83915e-08 -1.56025e-09 3.75239e-10)
(2.15301e-08 -1.85151e-10 -4.16574e-10)
(1.59584e-07 2.99994e-09 3.926e-09)
(3.36925e-07 -4.00741e-10 2.00277e-09)
(1.52194e-07 -2.04144e-09 1.0332e-09)
(2.9147e-07 1.88417e-09 -1.04977e-10)
(1.67347e-08 -1.0548e-09 1.90343e-09)
(2.15268e-07 -8.97404e-10 -3.78032e-10)
(8.52775e-08 1.47789e-09 1.22214e-09)
(6.53334e-08 1.03812e-09 -9.99117e-10)
(1.0299e-07 2.70494e-09 1.26502e-09)
(1.50522e-07 -1.84976e-10 5.82568e-10)
(8.24601e-08 -1.22372e-09 3.72121e-10)
(4.52807e-07 -5.67586e-09 -1.87245e-08)
(2.5378e-07 -5.7914e-10 -1.30926e-09)
(3.10055e-07 -1.22263e-08 -7.71032e-09)
(1.45292e-07 -1.724e-09 6.74953e-09)
(6.00372e-08 -1.72963e-10 -8.34893e-10)
(3.07921e-07 5.19213e-09 1.29858e-09)
(4.12118e-08 -3.67203e-09 -1.69401e-09)
(2.86114e-08 -3.39007e-10 -2.24335e-09)
(1.01934e-07 -2.50889e-09 3.04629e-10)
(2.1372e-07 5.41188e-10 8.82921e-10)
(9.48182e-08 5.21181e-10 1.15233e-09)
(4.45204e-08 -6.92353e-10 -3.4913e-09)
(1.94547e-08 1.49854e-11 2.65018e-10)
(1.88871e-07 4.53707e-10 -9.31965e-11)
(2.21383e-07 -3.91156e-09 -2.8645e-10)
(1.58768e-07 -5.70389e-10 3.16226e-09)
(1.11401e-07 6.84671e-09 -1.32976e-10)
(2.17836e-07 -1.69765e-09 5.02958e-11)
(9.12437e-08 3.29164e-09 1.39896e-10)
(3.39887e-07 -3.98372e-10 -1.59455e-09)
(2.78463e-08 -2.45285e-10 7.68187e-10)
(9.40643e-08 1.30926e-09 -8.59733e-11)
(5.46416e-08 -1.56116e-09 3.91912e-10)
(1.82105e-07 4.95314e-09 6.01491e-09)
(2.66237e-07 1.14996e-09 -1.05074e-09)
(7.56585e-08 -2.67025e-09 2.58529e-10)
(2.04287e-07 -5.14628e-10 2.70963e-10)
(3.06016e-07 -2.46454e-09 2.45898e-09)
(1.53473e-08 1.65968e-09 -1.14296e-09)
(2.17512e-07 -1.51361e-09 -9.23557e-10)
(2.38972e-07 7.77204e-10 5.08547e-10)
(3.64004e-07 8.63354e-10 -4.92121e-10)
(2.01988e-07 -2.02657e-09 -1.03424e-09)
(1.75282e-08 -5.7206e-10 1.66517e-10)
(2.97586e-07 -5.5017e-09 -3.23342e-10)
(5.87846e-08 4.15509e-09 3.72701e-09)
(2.50625e-08 -4.13304e-09 -6.83411e-10)
(2.31279e-07 2.41869e-10 -2.42419e-09)
(9.19558e-08 -2.02243e-09 1.26177e-09)
(2.89018e-07 3.90681e-09 1.83762e-10)
(2.95118e-07 1.55986e-10 -6.70839e-10)
(2.72726e-07 3.0922e-09 1.20515e-09)
(2.08895e-07 -1.94079e-09 6.09081e-10)
(8.0265e-08 3.24166e-09 -4.32197e-09)
(2.20297e-07 -1.69053e-10 1.1233e-09)
(1.14816e-07 4.36897e-09 4.14416e-09)
(1.92712e-07 7.72589e-10 3.51492e-10)
(1.83852e-07 7.95144e-10 1.08002e-09)
(7.06973e-08 -3.0976e-10 1.16497e-09)
(3.05851e-07 1.64848e-10 -7.44696e-10)
(3.2029e-07 -6.46561e-10 -8.72861e-10)
(3.07869e-08 -3.61341e-10 1.55936e-09)
(6.30219e-08 2.0289e-09 -2.98419e-09)
(2.05421e-07 6.52816e-10 8.14882e-10)
(1.14056e-07 5.7041e-10 -8.72271e-09)
(2.48391e-07 -8.71496e-10 -4.99256e-11)
(1.85779e-07 2.86967e-10 -4.3116e-10)
(3.39148e-07 1.07025e-09 1.25727e-09)
(2.56619e-08 -1.99649e-09 -1.45081e-09)
(3.00629e-08 8.10003e-10 -1.43464e-09)
(3.7588e-08 1.02986e-09 -1.36423e-09)
(1.05698e-07 6.65236e-10 2.97824e-11)
(1.70354e-07 -2.05152e-09 1.17154e-09)
(4.25307e-07 2.86426e-09 3.51807e-09)
(8.3948e-08 -1.8728e-09 2.34212e-09)
(2.66741e-07 -3.41404e-10 7.3683e-10)
(1.79137e-08 3.16557e-10 2.65124e-09)
(1.06561e-07 9.09862e-11 1.83154e-09)
(2.56609e-08 1.41334e-10 2.84909e-09)
(1.73284e-07 5.45068e-10 5.47066e-10)
(1.48664e-07 -9.32268e-10 -2.28953e-10)
(1.97783e-07 3.77451e-10 1.57168e-09)
(1.81001e-07 2.97564e-09 -4.08878e-09)
(2.84209e-07 3.05143e-10 -1.09677e-09)
(1.95982e-07 7.59226e-10 9.97309e-10)
(3.88266e-07 3.64451e-10 2.42315e-10)
(2.12781e-07 -1.25876e-10 1.09566e-09)
(2.0603e-07 4.53987e-10 7.81077e-10)
(2.82359e-07 1.67209e-09 -1.87869e-09)
(2.83827e-07 2.27343e-09 2.25205e-09)
(3.04265e-07 -1.0432e-10 1.94087e-09)
(1.08292e-07 5.65664e-11 -5.22297e-10)
(2.86454e-07 1.9251e-09 3.52104e-09)
(7.73222e-08 -8.12545e-10 -4.29351e-09)
(9.43673e-08 7.5021e-10 3.28436e-09)
(2.16132e-07 1.42038e-09 -1.79888e-09)
(2.66745e-07 -4.80593e-10 4.90609e-10)
(2.34847e-07 6.74146e-09 3.31874e-09)
(2.96357e-07 5.0568e-10 5.36731e-10)
(7.25294e-08 1.33774e-10 1.5799e-09)
(1.03508e-07 3.95989e-09 -2.87562e-09)
(3.09094e-07 -3.62482e-10 -2.71804e-09)
(2.095e-07 4.6046e-09 1.12962e-09)
(5.88932e-08 -9.96905e-10 -9.53873e-10)
(7.1916e-08 4.11253e-10 -2.08902e-09)
(1.63567e-07 1.87161e-09 -5.75491e-09)
(1.93607e-07 -1.64668e-10 -2.60494e-10)
(3.00902e-07 -7.74771e-09 1.301e-10)
(1.44911e-07 -2.45399e-09 1.4668e-09)
(3.41336e-07 -2.11563e-09 -1.25917e-09)
(1.84818e-07 -1.24599e-09 4.75764e-09)
(1.85021e-08 2.22709e-09 -1.25004e-09)
(3.01805e-07 6.73421e-10 1.38645e-09)
(2.7405e-08 1.76238e-09 -2.37168e-09)
(5.02219e-08 -2.0587e-09 1.4103e-09)
(3.74865e-07 1.08954e-09 1.8764e-09)
(2.4876e-07 4.60677e-10 -7.02299e-10)
(2.66234e-08 2.85535e-09 2.84008e-09)
(2.93418e-07 2.07075e-09 1.23133e-09)
(2.4196e-07 4.93315e-09 -1.3282e-10)
(2.53049e-07 -2.4395e-09 3.16073e-09)
(3.42416e-07 -8.54379e-10 4.36288e-10)
(2.20941e-08 2.62275e-09 4.6481e-10)
(2.95841e-07 9.82582e-10 5.29591e-10)
(1.59249e-07 9.03812e-11 3.84528e-11)
(1.65825e-07 1.76436e-10 6.47958e-10)
(2.51485e-07 1.62905e-09 1.50376e-09)
(1.7032e-07 1.03568e-09 7.8273e-10)
(1.72623e-07 9.81958e-10 -3.24459e-10)
(2.71987e-07 1.09222e-09 4.08638e-10)
(3.69385e-08 -1.33225e-09 -1.70261e-09)
(2.88997e-07 -3.26241e-10 8.73977e-10)
(1.89509e-07 -4.28869e-10 -8.57963e-10)
(3.85151e-07 6.05921e-10 4.38224e-10)
(2.77125e-07 1.537e-09 1.16513e-09)
(3.04335e-07 -1.08171e-09 1.6567e-09)
(1.31046e-07 2.08007e-09 2.91311e-09)
(1.88465e-08 -2.91422e-10 1.30407e-09)
(3.36974e-08 -8.21085e-10 5.4982e-10)
(5.14269e-07 -3.29442e-09 -3.16418e-09)
(1.72456e-08 -1.00255e-09 2.48395e-09)
(1.67517e-07 -9.18208e-10 -2.97448e-09)
(7.06721e-08 3.94731e-09 1.55119e-09)
(3.22103e-07 1.6131e-09 1.60098e-09)
(3.8371e-07 -1.00469e-09 -5.93114e-10)
(3.15741e-07 -5.81809e-11 -1.91244e-09)
(1.18612e-07 2.78471e-10 -2.72338e-09)
(2.89227e-07 4.75313e-09 -7.00927e-09)
(6.47402e-08 -5.43293e-09 4.36891e-09)
(8.63837e-08 2.09872e-09 1.71017e-09)
(2.03268e-07 1.18234e-09 -6.30517e-12)
(1.51941e-07 1.56627e-09 -1.46637e-09)
(2.69466e-07 3.08811e-08 8.76104e-09)
(1.87713e-07 -4.09907e-09 1.93543e-09)
(6.1314e-08 -2.41291e-10 -5.72101e-10)
(9.91515e-08 -1.45755e-09 3.21642e-09)
(2.02928e-07 -1.90944e-09 -3.12678e-09)
(2.23009e-07 -5.31577e-11 -5.7439e-10)
(4.43059e-07 -2.11341e-09 2.11824e-09)
(2.37555e-07 3.98227e-10 1.35589e-09)
(4.93614e-07 -4.13118e-09 1.19918e-09)
(1.66575e-07 6.62665e-09 7.96603e-09)
(3.33148e-07 1.67343e-09 2.30355e-09)
(2.84127e-07 1.22118e-09 1.69083e-09)
(1.99594e-07 -1.00658e-09 1.36381e-10)
(3.42361e-07 -1.87955e-09 1.59862e-09)
(1.00784e-07 2.06608e-09 -6.13812e-09)
(2.20919e-08 -1.48306e-09 -2.58631e-09)
(2.95004e-07 -2.7432e-09 4.41783e-10)
(5.53748e-08 -2.72186e-09 3.0524e-09)
(2.67852e-08 7.65697e-11 4.13206e-11)
(4.00201e-07 1.23191e-09 4.5194e-09)
(1.98778e-07 -8.21688e-11 5.20505e-10)
(1.06163e-07 -2.25084e-09 -5.40726e-09)
(2.62602e-07 -9.69054e-10 4.83692e-10)
(3.32983e-07 -1.51665e-09 8.6339e-10)
(4.45647e-07 -9.54269e-10 -1.05861e-09)
(2.75642e-07 -1.99701e-09 -6.15317e-10)
(2.97521e-08 1.4376e-09 6.22907e-11)
(3.18552e-07 -6.93746e-10 1.5915e-10)
(2.2802e-07 -8.54129e-10 6.96396e-10)
(9.476e-08 2.44426e-10 1.42562e-09)
(3.10308e-07 -5.26107e-13 1.67808e-09)
(2.61342e-07 -2.35284e-10 4.48466e-10)
(1.71617e-07 -5.0381e-11 -1.17136e-09)
(1.97081e-07 4.23544e-10 -1.66089e-09)
(2.78395e-07 -2.14957e-09 2.96475e-09)
(2.00589e-07 -1.62681e-09 3.71131e-10)
(7.50985e-08 -3.93072e-10 -1.38392e-10)
(1.91594e-08 8.08145e-10 -6.19967e-10)
(3.74672e-08 -2.80082e-09 -1.82616e-10)
(2.12805e-07 1.04121e-09 -7.80121e-10)
(2.67852e-07 -2.10935e-08 3.3008e-08)
(1.1579e-07 -6.52304e-09 -9.44587e-09)
(1.07437e-07 5.2967e-10 5.48921e-10)
(2.4262e-07 1.81376e-10 4.34732e-09)
(3.05728e-07 2.48095e-10 2.50631e-09)
(2.32378e-07 -2.39893e-09 6.13295e-09)
(3.60388e-07 -1.97265e-09 2.04179e-09)
(3.3402e-07 -2.26399e-09 -1.29729e-09)
(2.23906e-07 -1.36282e-10 8.58452e-10)
(1.38948e-07 7.77301e-10 2.93055e-10)
(2.27132e-08 -7.13336e-10 -2.5897e-10)
(2.4109e-07 -4.75485e-08 5.8448e-09)
(8.36448e-08 2.10469e-09 6.65843e-10)
(6.06697e-08 -2.68322e-09 -6.11866e-10)
(6.43699e-08 1.40729e-09 5.15939e-10)
(1.7533e-07 -6.66899e-10 -5.04585e-10)
(1.68732e-07 -1.05631e-09 -3.22385e-11)
(2.38078e-07 8.48357e-10 -1.81439e-09)
(1.60012e-08 8.58665e-10 -1.37379e-09)
(1.66985e-07 -4.71026e-10 4.45801e-10)
(6.1428e-08 1.43588e-09 -1.20963e-09)
(1.90194e-07 -2.04232e-10 -7.73468e-11)
(5.28656e-08 -7.26162e-10 -5.68462e-10)
(1.4264e-07 -3.32059e-09 2.58602e-09)
(2.11779e-07 -5.74253e-09 1.55766e-09)
(1.8552e-07 -1.50804e-09 1.30716e-09)
(1.77515e-08 1.38997e-09 -1.92383e-09)
(1.08062e-07 -1.20105e-09 4.40222e-09)
(2.36311e-07 -3.69426e-10 9.68683e-10)
(2.37297e-08 -1.47562e-09 -1.92464e-09)
(2.89704e-07 2.91061e-09 2.1132e-08)
(1.78427e-07 -1.306e-09 4.09314e-09)
(2.99961e-07 -1.41135e-09 -4.82542e-09)
(1.9444e-07 4.28507e-09 -6.14018e-09)
(9.07234e-08 -1.32303e-09 2.21909e-09)
(3.98724e-07 1.06646e-09 6.49569e-10)
(1.42007e-07 -1.45638e-08 -1.32231e-08)
(3.4646e-07 1.46873e-10 5.90503e-11)
(1.55525e-07 1.20831e-08 1.26077e-08)
(1.3625e-07 -6.32301e-09 8.33305e-10)
(1.38688e-07 -1.041e-09 -3.17662e-09)
(2.83379e-07 -1.01373e-10 4.6403e-10)
(5.59641e-07 4.88639e-10 1.06548e-09)
(7.68692e-08 -7.7403e-10 9.32582e-10)
(3.32051e-07 8.48456e-10 -1.55126e-09)
(1.15889e-07 -5.58366e-10 -2.70933e-09)
(4.56901e-07 7.25787e-10 1.0486e-09)
(3.48046e-07 -4.64624e-10 1.78583e-09)
(6.66225e-08 1.97042e-09 -5.09621e-09)
(2.15266e-07 -1.85376e-09 3.64897e-10)
(3.81093e-07 -4.76556e-09 4.41873e-09)
(2.27701e-07 9.83595e-10 -1.06343e-09)
(2.23036e-07 1.15078e-09 7.58314e-10)
(2.24704e-08 -7.79349e-10 -2.82094e-09)
(1.89203e-08 9.33494e-10 -2.36871e-09)
(2.90288e-07 2.64823e-09 -3.79629e-09)
(2.94371e-07 -1.15896e-10 -2.33412e-10)
(2.31703e-07 -1.55841e-09 -8.57463e-10)
(3.40875e-08 3.60223e-10 -2.56034e-09)
(9.154e-08 -8.76923e-10 1.18705e-10)
(2.95172e-07 -2.9289e-09 -2.52725e-09)
(1.7545e-07 -1.37959e-10 -1.04688e-10)
(3.20586e-07 -5.58577e-10 2.02099e-09)
(2.98364e-07 -2.19527e-10 -8.79705e-10)
(2.25295e-07 8.36238e-10 9.13174e-10)
(2.3922e-07 2.16826e-09 6.35211e-10)
(1.17958e-07 7.38206e-10 4.1048e-10)
(2.23016e-07 7.21669e-10 -2.4909e-10)
(8.49338e-08 -1.59227e-09 -4.0511e-09)
(2.94523e-07 1.04278e-10 -9.93494e-10)
(1.85588e-07 -6.53349e-10 -1.84493e-09)
(2.16305e-07 5.24942e-10 1.45307e-09)
(2.28909e-07 1.64183e-10 -3.10043e-10)
(3.49257e-07 -1.00232e-09 2.87189e-10)
(2.66547e-07 1.98856e-10 -2.56769e-09)
(6.47875e-08 3.71234e-09 3.5001e-09)
(4.27854e-08 1.12356e-09 3.17014e-10)
(1.85039e-08 1.60665e-09 -1.82509e-09)
(2.32327e-07 6.44809e-09 1.14975e-08)
(3.08425e-07 -2.52443e-10 -4.01519e-10)
(2.71945e-07 -1.3115e-09 1.31184e-09)
(1.90392e-07 1.34565e-09 9.45598e-11)
(2.85168e-08 -1.04757e-10 1.08816e-09)
(2.14801e-08 -3.36365e-10 2.46451e-09)
(1.77288e-07 -1.02055e-09 2.62478e-09)
(2.34891e-07 9.51742e-11 2.18358e-09)
(3.21841e-07 -5.56825e-10 1.26084e-09)
(3.2091e-07 1.08839e-09 6.24296e-10)
(1.96689e-07 -1.7094e-09 -1.01567e-09)
(3.60584e-07 -1.87278e-11 5.99114e-10)
(3.72065e-07 1.877e-09 2.97521e-09)
(3.02675e-08 -5.92202e-10 2.83351e-09)
(1.80391e-07 -2.86888e-10 1.34735e-09)
(7.01756e-08 6.55989e-10 3.67498e-09)
(9.75801e-08 -9.75327e-09 2.09161e-09)
(1.29771e-07 3.38399e-10 4.65035e-10)
(1.38587e-07 8.78931e-10 -2.1009e-10)
(2.53071e-07 -2.26051e-10 4.1285e-10)
(1.8405e-08 -3.48113e-09 -1.25301e-09)
(3.68043e-07 4.24233e-10 -1.14812e-09)
(2.77706e-07 -3.4975e-10 -9.81544e-11)
(2.23786e-07 1.70744e-11 8.89227e-10)
(1.96909e-07 1.97964e-09 1.34251e-10)
(1.7236e-07 -1.05956e-09 1.95208e-09)
(2.695e-07 2.11239e-10 6.84711e-10)
(2.43575e-07 9.3265e-10 5.40294e-10)
(3.18439e-07 6.75814e-10 3.45129e-10)
(1.66434e-07 6.95894e-09 -5.85009e-09)
(2.74079e-07 3.13099e-10 -5.76066e-10)
(2.90272e-07 -5.69297e-09 -7.56029e-10)
(1.77216e-08 -1.12687e-09 1.27952e-09)
(3.16899e-07 6.27052e-10 2.66904e-10)
(1.88932e-07 3.78042e-09 1.68367e-10)
(6.23998e-08 -1.8207e-09 5.19905e-09)
(1.68007e-07 1.65345e-09 -2.94838e-09)
(3.50818e-07 5.32688e-10 -1.80778e-10)
(2.2119e-07 -7.21383e-10 2.03536e-09)
(1.15211e-07 3.276e-10 -3.2449e-09)
(1.7414e-08 -1.58814e-09 -1.71703e-09)
(2.63206e-07 3.11107e-10 -3.79578e-10)
(3.32122e-07 4.58636e-09 -5.01602e-09)
(2.38658e-07 -6.05776e-10 -9.47698e-10)
(1.859e-07 -4.3582e-11 1.19996e-09)
(5.53249e-08 2.553e-09 2.43373e-09)
(2.51122e-07 1.46961e-11 -4.34871e-10)
(2.64285e-08 2.1366e-09 -3.41182e-09)
(1.76611e-07 2.05771e-10 -8.55069e-10)
(2.08665e-07 2.32553e-08 -7.44799e-09)
(2.61129e-07 -2.32101e-09 -1.0997e-09)
(8.50287e-08 6.97837e-11 3.01765e-09)
(1.79102e-07 -2.02934e-09 -2.81277e-09)
(1.12998e-07 6.86869e-11 -1.46223e-09)
(4.57642e-08 2.56441e-09 2.37756e-09)
(4.92955e-07 2.69673e-10 -3.04158e-11)
(2.19353e-07 -5.10588e-10 6.36449e-10)
(1.69287e-08 5.78752e-10 1.65474e-09)
(2.85219e-07 7.38498e-10 6.27398e-10)
(2.97985e-07 7.95919e-10 8.95649e-10)
(3.74118e-08 -9.18003e-11 -2.29169e-09)
(1.239e-07 5.47068e-09 -2.1877e-10)
(9.59648e-08 3.58623e-09 2.49121e-09)
(1.91975e-07 -3.81004e-10 8.70893e-10)
(2.7105e-07 -3.71196e-10 7.28483e-10)
(3.49677e-08 -9.37823e-10 1.60311e-09)
(8.76586e-08 -2.93529e-09 -9.40569e-10)
(9.87062e-08 1.95268e-09 -1.5839e-10)
(1.73474e-07 2.4254e-09 6.98265e-10)
(3.52145e-07 3.64475e-11 1.20019e-09)
(2.26682e-08 1.24153e-09 -2.94992e-09)
(3.67919e-07 -1.25957e-09 1.73048e-09)
(2.37083e-07 6.2312e-09 -1.27693e-09)
(2.84745e-07 -6.98678e-10 1.38931e-09)
(1.14195e-07 4.90132e-09 -4.72422e-09)
(3.36891e-07 3.32991e-10 5.87288e-10)
(2.20188e-08 -2.95777e-10 -2.39999e-09)
(2.98718e-07 -2.27425e-09 -1.12857e-09)
(2.66502e-08 -3.86186e-10 -5.09963e-11)
(1.35605e-07 -3.65593e-09 1.9943e-09)
(2.2725e-07 -1.83935e-09 1.12298e-10)
(1.33139e-07 -3.98872e-09 -1.35654e-09)
(1.82932e-08 2.13653e-09 1.89286e-09)
(4.8786e-08 9.77839e-10 -1.53812e-09)
(7.30171e-08 -3.97086e-09 2.74958e-09)
(1.27886e-07 2.59332e-09 -3.70416e-09)
(3.24335e-07 3.00972e-10 -2.11957e-09)
(5.58499e-08 -1.29272e-09 8.31697e-11)
(1.3239e-07 4.30724e-09 -2.23038e-09)
(2.25784e-07 -1.25776e-08 -2.43166e-08)
(2.19917e-07 8.00614e-11 4.69657e-10)
(2.78959e-08 1.79232e-09 3.27837e-10)
(2.22583e-07 7.74141e-10 -2.4015e-09)
(1.4728e-07 1.60792e-08 -6.36045e-09)
(2.06754e-07 -1.81126e-11 -3.95221e-10)
(9.78958e-08 -1.23856e-10 -2.45656e-09)
(1.80574e-07 6.72356e-11 1.1748e-09)
(1.03343e-07 -4.18281e-09 -3.13482e-09)
(1.59631e-07 1.03799e-09 7.67073e-10)
(1.66225e-07 -2.79064e-10 -9.23549e-10)
(6.9729e-08 3.02469e-09 -6.26553e-09)
(3.04094e-07 1.95273e-10 -3.96571e-10)
(7.10235e-08 3.37268e-09 3.59434e-09)
(1.48551e-08 2.26076e-09 8.44798e-10)
(3.17231e-07 1.72224e-09 -1.07502e-09)
(1.98266e-07 -3.96878e-10 -4.1792e-11)
(2.90832e-07 2.3817e-09 -1.12741e-09)
(2.24828e-07 2.99007e-09 -1.58556e-09)
(4.827e-07 -2.06468e-09 -1.56224e-10)
(1.33428e-07 3.98867e-09 -6.14393e-10)
(4.16753e-07 -1.72382e-09 7.66079e-10)
(9.52172e-08 -3.11239e-09 4.02213e-09)
(1.56956e-07 1.16847e-10 7.42782e-11)
(3.02219e-07 -3.27515e-09 -3.33283e-09)
(3.11497e-08 8.0501e-10 -4.3187e-09)
(3.0387e-07 1.74349e-09 -1.95607e-09)
(1.1009e-07 8.09586e-11 3.49667e-09)
(2.86795e-08 -2.02733e-09 -2.16221e-09)
(2.75678e-07 -2.72988e-09 -8.93803e-10)
(6.03271e-08 -1.73889e-09 1.54227e-09)
(2.02193e-07 -1.00547e-10 6.9277e-12)
(2.33205e-07 -5.52712e-10 1.12746e-09)
(3.71794e-07 6.44209e-10 4.03009e-10)
(9.33259e-08 -4.20392e-09 -4.58352e-09)
(3.00275e-07 1.29131e-09 6.66342e-10)
(1.4867e-07 -2.29432e-09 2.19934e-09)
(3.33902e-07 2.3752e-10 1.16629e-10)
(3.34597e-07 -2.23355e-10 8.87808e-10)
(2.95872e-07 -6.79289e-10 1.73095e-09)
(1.76273e-07 -5.71643e-10 -5.17291e-10)
(4.68736e-08 -2.64842e-09 -2.25664e-09)
(6.77015e-08 4.35311e-10 -5.61073e-10)
(1.86948e-07 -8.19668e-10 -3.23717e-10)
(2.91405e-07 1.35896e-10 3.02599e-09)
(2.71801e-08 -1.99781e-09 -8.95972e-10)
(2.51753e-07 -4.3462e-10 1.1016e-09)
(4.96576e-07 2.6018e-10 1.05475e-09)
(3.64928e-07 -5.18158e-10 -6.65005e-10)
(3.97714e-07 -1.20651e-09 -4.8831e-10)
(2.44026e-07 3.14853e-10 -4.04584e-09)
(1.93435e-08 1.97468e-09 1.67469e-09)
(2.36957e-07 6.27274e-10 -2.15348e-10)
(1.44694e-07 -1.31585e-09 -1.66814e-09)
(2.69228e-07 2.07604e-09 1.2885e-09)
(1.57319e-07 6.12849e-10 -2.93099e-10)
(3.39794e-08 2.4011e-09 -1.00971e-10)
(2.24688e-07 -1.42898e-10 5.58175e-10)
(1.47472e-07 3.94858e-09 4.0522e-09)
(2.42114e-07 2.9769e-10 4.04613e-10)
(2.89703e-07 -2.88311e-10 -4.7632e-11)
(1.9953e-07 -2.31147e-09 -2.86319e-11)
(1.30978e-08 1.21944e-09 -1.53055e-09)
(1.91916e-08 -1.20305e-09 -1.86492e-09)
(1.97765e-07 7.74453e-10 2.21747e-10)
(3.2002e-07 -2.04075e-09 -1.80487e-09)
(2.46627e-07 -2.18062e-11 1.54753e-09)
(1.85898e-07 -7.01101e-10 1.55405e-09)
(1.56923e-07 -2.44889e-09 1.04529e-09)
(2.56788e-07 -1.76324e-09 -1.02872e-09)
(3.02353e-07 4.32459e-10 1.65541e-09)
(1.86435e-08 1.65472e-09 4.03783e-10)
(1.58305e-07 6.83195e-10 4.44984e-10)
(1.74177e-07 -1.95527e-08 -5.87195e-10)
(4.42967e-08 -7.37356e-10 2.38985e-09)
(8.25523e-08 -5.2753e-09 1.31252e-09)
(3.05549e-07 6.42447e-11 -2.04134e-09)
(2.11018e-07 -2.26891e-09 1.56007e-09)
(1.96316e-07 5.51957e-10 -3.41251e-10)
(2.32299e-07 -1.19355e-09 1.27713e-09)
(1.35747e-07 -4.63047e-09 1.5473e-09)
(3.56975e-07 -1.28251e-10 8.2678e-10)
(1.75756e-07 1.65577e-09 -5.54229e-09)
(4.45612e-07 8.51718e-10 -4.89376e-10)
(2.28186e-07 1.22695e-09 7.60655e-11)
(2.56474e-07 6.5313e-11 2.96947e-10)
(3.33234e-07 -9.20486e-11 3.0301e-10)
(4.58085e-08 -3.72011e-10 2.2881e-09)
(5.53209e-07 1.6093e-10 -5.46978e-11)
(3.21823e-08 1.01173e-09 -1.31104e-09)
(1.48942e-07 -1.45039e-08 8.55945e-09)
(1.1241e-07 3.73928e-09 2.99865e-09)
(1.61647e-07 -3.21645e-09 -1.66153e-08)
(2.11672e-07 -1.02277e-09 -1.2938e-09)
(2.90771e-07 -4.72151e-08 -1.052e-08)
(1.45469e-07 3.16014e-10 -4.44806e-10)
(3.34425e-07 -1.16098e-09 -4.24395e-10)
(3.42429e-07 3.68861e-09 -2.98706e-12)
(2.23822e-07 -4.70405e-10 4.87759e-10)
(3.34299e-08 2.8668e-10 -6.217e-10)
(1.18483e-07 -4.44505e-09 -2.98242e-09)
(2.10306e-07 -3.92078e-09 -2.994e-08)
(2.29128e-07 2.52071e-10 2.70719e-10)
(9.85194e-08 -1.99504e-09 -5.77298e-10)
(2.1823e-07 -2.16304e-08 -7.62813e-09)
(2.39154e-07 -6.08397e-09 6.91225e-09)
(3.0285e-07 2.35747e-09 2.66531e-09)
(4.24377e-08 -8.44963e-10 1.55823e-09)
(5.22159e-08 -2.57391e-09 1.41344e-09)
(2.61018e-08 1.19855e-10 -2.40229e-10)
(1.87517e-08 1.53072e-10 -1.43166e-09)
(4.25231e-08 -8.11745e-11 1.93249e-10)
(2.21581e-07 -1.61349e-08 9.21621e-09)
(1.82638e-07 -8.94946e-10 1.10768e-09)
(1.78479e-08 -6.40753e-10 2.47658e-09)
(1.96913e-08 1.41038e-09 2.16571e-09)
(3.83264e-07 1.73069e-10 -5.02868e-10)
(1.66156e-07 -2.18273e-08 1.48308e-08)
(4.50634e-08 1.94766e-09 6.90961e-10)
(2.28361e-07 2.76215e-10 -1.02861e-09)
(1.05487e-07 -1.21253e-09 -1.41661e-09)
(2.0125e-07 3.96945e-10 1.89911e-09)
(4.26919e-08 2.22992e-09 -1.19947e-09)
(9.09705e-08 2.81931e-09 -1.10136e-09)
(1.8913e-07 -2.17222e-09 4.35168e-11)
(2.80733e-07 -6.4134e-11 -1.51811e-09)
(4.03677e-07 -5.50417e-10 -1.95759e-09)
(4.10999e-08 3.41871e-09 -1.16183e-09)
(2.36165e-08 -1.84529e-09 1.10439e-09)
(2.01613e-07 -2.88096e-08 -2.13831e-08)
(2.68675e-08 -3.49858e-09 1.90236e-10)
(3.09187e-07 -1.64578e-09 -2.38453e-09)
(2.7517e-08 1.53872e-09 -3.40041e-09)
(1.45094e-07 -7.2106e-10 3.04275e-09)
(3.24878e-07 -2.27952e-09 2.59069e-10)
(4.47391e-07 -8.4342e-10 2.83733e-09)
(5.67934e-08 8.57741e-10 -1.05202e-09)
(1.36937e-07 -3.08061e-10 -1.51234e-09)
(3.74662e-08 1.37316e-09 -1.59199e-09)
(2.77954e-08 3.28962e-09 -1.18327e-09)
(2.78043e-07 -1.06197e-09 -7.12999e-10)
(1.40759e-08 -1.1978e-09 -1.80204e-09)
(1.86883e-07 -4.12958e-10 -5.93244e-10)
(5.9262e-08 1.40065e-09 -2.80555e-09)
(3.29916e-07 -2.85948e-09 -5.09209e-10)
(2.26509e-07 -1.30571e-09 -2.60802e-10)
(1.84773e-08 -4.86778e-10 2.93697e-09)
(1.30989e-07 -6.54532e-09 6.72181e-10)
(2.49572e-07 9.1954e-10 1.08124e-09)
(3.03163e-08 -1.48437e-09 3.7661e-11)
(2.96562e-07 6.28208e-10 -9.54726e-10)
(7.6946e-08 -3.09124e-09 4.78731e-09)
(2.10231e-07 4.21117e-10 1.85617e-11)
(2.4286e-07 -5.27798e-10 1.28492e-10)
(5.34538e-08 1.59574e-09 1.09048e-09)
(2.05355e-08 8.76995e-10 -2.6431e-09)
(8.94084e-08 1.79248e-09 -7.69787e-10)
(2.43642e-07 3.82188e-08 8.21146e-09)
(2.21052e-07 7.96743e-10 1.04091e-09)
(7.50531e-08 -3.5499e-09 3.62114e-09)
(1.78381e-07 7.86253e-10 2.41176e-09)
(2.3498e-08 -8.92095e-10 5.48577e-10)
(2.16427e-07 -6.97601e-10 -2.33825e-10)
(2.2516e-08 -3.62864e-10 -1.74083e-09)
(3.42534e-07 -7.27874e-10 -1.55374e-09)
(3.00348e-07 4.95723e-10 1.45976e-10)
(2.26756e-07 3.9961e-10 -8.08853e-10)
(1.39046e-08 1.37351e-09 3.89829e-11)
(3.44664e-07 8.1947e-10 9.7157e-10)
(1.5378e-07 1.92732e-09 6.38517e-10)
(3.62492e-07 -2.33792e-10 2.01701e-10)
(6.10472e-08 -7.09806e-10 -2.68501e-10)
(2.22571e-07 -2.67578e-08 1.37569e-08)
(2.65007e-07 -1.9463e-09 -9.09443e-10)
(6.33034e-08 7.23101e-10 -7.68729e-10)
(2.73371e-07 1.31388e-11 6.27025e-10)
(2.10065e-07 3.88489e-09 -3.9551e-08)
(1.79861e-07 5.25388e-10 -1.24148e-09)
(3.16937e-08 8.24938e-10 -1.74609e-09)
(9.74659e-08 -9.56381e-10 -5.35356e-09)
(2.03495e-07 -3.80349e-10 -1.4726e-10)
(2.16107e-07 2.11365e-09 1.1595e-09)
(3.07103e-08 1.55836e-09 6.33686e-10)
(2.15539e-07 2.91225e-09 -3.36063e-09)
(1.54359e-07 -1.23942e-09 -4.72233e-09)
(2.3676e-08 -2.04925e-09 1.4063e-09)
(2.14283e-07 -7.69467e-11 -5.17808e-10)
(1.5832e-07 -1.9613e-09 1.53635e-08)
(3.21616e-07 3.45194e-09 -4.70223e-09)
(2.08995e-07 -7.19719e-10 -7.87881e-11)
(1.91735e-07 -5.64037e-10 8.06089e-10)
(3.20424e-07 -3.66326e-10 9.37034e-11)
(2.53271e-07 1.54193e-09 -5.75768e-10)
(6.80635e-08 1.74994e-09 5.89841e-10)
(6.97287e-08 -3.36559e-09 -3.37339e-09)
(3.96922e-07 -6.72322e-10 1.50775e-09)
(2.24792e-07 -1.96006e-08 1.82196e-08)
(2.05467e-07 -1.75804e-09 8.04008e-10)
(1.85566e-07 -2.50193e-09 1.44666e-09)
(1.24071e-07 3.04829e-09 1.33028e-09)
(3.23444e-07 -7.88977e-10 3.44485e-09)
(2.0697e-07 -8.70888e-10 -1.18118e-09)
(1.77426e-07 -4.90591e-10 -2.42012e-09)
(2.20795e-07 3.98671e-09 1.17962e-09)
(4.29774e-08 6.53297e-10 -2.77785e-09)
(1.65847e-07 1.15657e-09 -7.60156e-10)
(3.76624e-08 -9.66341e-10 -2.81599e-09)
(3.14616e-07 -1.98836e-09 1.94991e-09)
(3.36574e-07 -8.91536e-10 -6.46388e-10)
(1.6217e-07 3.40152e-09 -3.745e-09)
(1.58237e-07 1.28449e-09 -1.06135e-09)
(1.71048e-08 1.75639e-09 -3.54324e-10)
(1.02183e-07 -4.28476e-10 -9.50995e-10)
(7.3059e-08 -2.4636e-09 -3.12067e-09)
(2.73911e-07 3.18843e-11 -1.56344e-09)
(2.47744e-07 -1.22257e-09 -5.40107e-10)
(2.20569e-07 -2.01197e-08 1.2733e-08)
(3.20139e-07 -4.68527e-10 2.22018e-09)
(8.01215e-08 -2.3396e-09 -1.97482e-09)
(1.36573e-07 -3.42265e-09 1.06604e-08)
(2.42522e-07 -2.86711e-09 3.02395e-09)
(2.59932e-08 -1.99048e-09 -1.96965e-10)
(2.54396e-07 -9.00051e-10 3.41309e-10)
(5.22698e-08 1.46721e-09 -8.75168e-11)
(2.06156e-07 -3.1118e-10 2.01507e-09)
(3.06319e-08 4.37446e-09 -3.49675e-10)
(3.7213e-07 2.29771e-10 -1.44071e-09)
(2.0396e-07 -8.68054e-09 5.34109e-09)
(2.65294e-07 -1.25794e-09 -3.64384e-10)