/*--------------------------------*- C++ -*----------------------------------*\
| =========                 |                                                 |
| \\      /  F ield         | OpenFOAM: The Open Source CFD Toolbox           |
|  \\    /   O peration     | Version:  2406                                  |
|   \\  /    A nd           | Website:  www.openfoam.com                      |
|    \\/     M anipulation  |                                                 |
\*---------------------------------------------------------------------------*/
FoamFile
{
    version     2.0;
    format      ascii;
    arch        "LSB;label=32;scalar=64";
    class       volScalarField;
    location    "58";
    object      nut;
}
// * * * * * * * * * * * * * * * * * * * * * * * * * * * * * * * * * * * * * //

dimensions      [0 2 -1 0 0 0 0];

internalField   nonuniform List<scalar> 
59516
(
2.32556e-06
1.09358e-05
1.39765e-08
2.07256e-07
0.00108448
0.000186194
1.90299e-08
2.89495e-06
2.73389e-07
6.81401e-05
0.000337673
5.79561e-05
4.96527e-07
0.000146504
6.07032e-05
5.66134e-05
1.15075e-05
9.15391e-05
1.26418e-05
6.92426e-08
0.000131871
3.60031e-12
8.22166e-08
0.000117101
2.89248e-14
4.88603e-05
0.000111628
0.000154994
7.04957e-05
0.000124861
0.000242103
0.000146614
8.60232e-11
9.81773e-07
1.39108e-05
9.15685e-11
0.000121951
8.317e-05
1.70012e-05
1.59813e-11
2.18158e-06
0.000158942
1.33399e-05
5.70936e-06
1.0751e-06
5.57985e-05
3.77422e-06
7.57559e-05
0.000861216
5.86015e-05
0.000623628
0.000104319
1.38824e-08
1.15897e-08
0.000135322
2.9614e-06
0.000239065
0.000119519
1.15215e-07
2.32054e-05
1.33574e-09
0.000132006
1.14585e-07
9.11138e-06
1.03094e-06
4.2495e-06
0.000173852
0.000105459
0.000423687
7.69236e-08
0.000189355
2.29287e-07
0.000154321
1.91172e-09
2.52225e-06
1.15033e-05
4.88513e-05
1.80822e-10
0.000100541
4.92891e-05
0.000107835
1.89311e-05
7.49783e-06
0.000142018
2.25324e-05
2.74653e-06
0.00010867
1.2616e-11
5.63359e-05
4.84609e-05
0.000526653
1.10749e-08
8.82349e-08
8.8917e-09
7.56203e-08
0.00108626
4.72715e-09
5.45138e-05
7.22337e-05
4.71796e-10
0.000123949
0.000154928
0.000152019
5.59005e-05
2.66916e-10
2.00324e-08
0.000115374
6.65311e-07
4.55691e-06
5.73476e-05
0.000242925
0.00016455
6.07371e-05
0.000153456
4.34673e-09
3.3613e-06
5.5737e-05
4.67718e-09
0.000140492
1.38477e-10
6.29289e-06
3.56075e-07
2.56876e-11
2.10185e-07
0.000231893
2.06732e-05
0.00016971
0.000103996
0.000280981
1.58013e-06
2.97974e-06
9.70172e-07
0.000135417
1.49253e-13
7.09618e-06
3.50482e-08
0.000111603
2.00277e-13
0.000114367
1.1575e-05
0.000106816
5.28357e-07
0.000120551
1.48396e-09
2.93158e-06
1.51778e-11
2.07133e-06
9.61775e-07
0.000251054
1.67586e-06
9.14613e-06
0.000105059
1.69611e-09
5.59044e-11
9.70249e-06
0.000132446
7.13323e-07
1.66686e-07
1.47588e-05
0.000134926
6.06204e-05
5.83018e-05
0.000112849
0.000160094
3.77398e-06
1.5343e-07
5.47083e-05
1.0516e-06
0.000128068
1.10917e-07
1.39058e-05
5.58818e-05
3.97646e-05
6.58226e-13
9.11709e-05
6.68143e-06
1.28091e-07
2.5117e-05
5.4932e-05
9.37637e-05
3.94328e-12
0.000109221
0.000180923
4.29804e-05
8.39829e-07
5.30304e-05
9.16177e-05
0.000131054
5.74031e-08
6.2335e-06
1.05977e-07
5.70557e-05
2.92687e-08
4.03052e-05
1.97175e-12
9.42201e-05
5.28018e-05
9.32615e-05
3.87967e-06
3.7588e-12
2.45282e-05
2.31981e-06
3.51823e-06
0.000124044
9.23204e-10
7.60521e-11
3.02302e-06
7.89577e-08
0.000136586
2.02898e-06
6.62133e-05
0.000176499
1.04905e-10
6.11318e-05
5.50416e-07
7.45559e-08
4.29918e-11
3.19629e-13
6.12044e-05
4.60096e-11
6.36086e-05
9.05778e-06
5.92635e-08
0.000125224
2.04843e-07
3.55178e-07
0.000159799
0.000105474
3.05787e-07
5.88461e-05
4.39505e-08
4.60829e-07
4.66827e-06
0.000146624
0.000106818
9.29292e-05
4.49573e-05
1.3433e-06
3.35664e-09
6.63454e-05
3.94782e-06
0.000144008
5.18412e-05
0.00015837
3.22548e-06
8.22781e-06
7.00708e-09
5.76369e-05
6.68931e-09
1.88343e-06
2.75176e-11
4.10687e-09
6.89269e-06
1.30164e-09
4.56716e-10
1.36193e-09
6.854e-05
1.08504e-09
0.000103872
5.68079e-05
2.18436e-09
1.03618e-08
1.81467e-06
3.10122e-07
2.48163e-06
4.96773e-05
2.85213e-08
9.89596e-06
0.000129033
5.31451e-05
1.23795e-05
3.51576e-07
4.43404e-06
1.0758e-05
1.01799e-08
9.0298e-06
0.000130095
1.35121e-09
0.000144905
0.000104484
3.61893e-06
5.18284e-11
0.00016325
3.78328e-07
7.87703e-09
5.64742e-06
2.00061e-06
0.00016402
4.63757e-06
1.59903e-05
5.4104e-07
1.08427e-09
4.87713e-09
7.82308e-06
2.43279e-08
0.000171878
3.65762e-08
2.78302e-13
7.25422e-06
7.14769e-07
1.76519e-08
4.91137e-05
0.000140603
0.000148364
7.70106e-12
0.000141303
8.94305e-05
6.66988e-05
6.77039e-08
1.00265e-07
4.37192e-14
4.95842e-05
4.04067e-06
0.000117945
6.04163e-05
6.1369e-08
7.02904e-06
0.00108009
1.32707e-05
0.000100179
6.24914e-05
3.22463e-06
9.65048e-07
3.66097e-06
1.0212e-05
2.46819e-10
2.95649e-05
2.61543e-08
1.03063e-07
5.37903e-09
1.13254e-10
5.33163e-05
0.000149461
4.67705e-10
0.000100383
0.000109622
8.1651e-09
4.5394e-13
6.33474e-05
4.4663e-07
5.60801e-10
3.00404e-06
3.7852e-07
9.73728e-05
3.09344e-11
2.61632e-06
5.57985e-05
3.35295e-06
1.27556e-06
3.10559e-08
1.35275e-07
2.1285e-09
5.68931e-14
2.18791e-05
0.000113388
0.000115425
9.10073e-06
0.0001428
0.00026356
1.4478e-05
1.69627e-06
6.60681e-08
0.000230371
2.9299e-11
9.98171e-11
6.25005e-11
7.60433e-10
0.000116128
0.000287665
6.37134e-05
0.000100461
0.000109702
1.4483e-08
1.0262e-05
4.99105e-09
0.000129402
4.79554e-09
0.000110872
2.02218e-07
5.09256e-05
4.89541e-05
7.04794e-07
0.000361184
0.000149887
5.84746e-05
1.70689e-10
0.000139947
2.49556e-05
7.38649e-07
4.56346e-12
1.30046e-05
1.20574e-05
5.18601e-09
0.000127946
2.98318e-06
9.72957e-05
5.92342e-05
5.78561e-05
1.26728e-06
6.43317e-07
4.96837e-05
6.39359e-10
4.57955e-06
1.83394e-06
1.30229e-06
0.000112975
6.16218e-08
9.6022e-11
5.52336e-12
5.04078e-11
0.000152464
0.000144117
8.54754e-10
4.57078e-07
4.21642e-06
0.000109975
2.10409e-07
1.62261e-06
1.60542e-06
9.38877e-07
2.91093e-06
4.29354e-07
2.38012e-07
5.28479e-06
2.00437e-06
5.60482e-05
9.48221e-08
2.69089e-06
8.7619e-10
1.25098e-06
1.24485e-12
1.56822e-09
9.60962e-05
0.000110249
0.000133094
0.000168275
2.83546e-06
7.74521e-10
2.76278e-08
9.94556e-05
0.000142429
4.42284e-07
1.60941e-09
9.20411e-07
2.20596e-11
2.72656e-11
7.75047e-06
6.48344e-12
0.000157487
1.03877e-07
5.16515e-05
0.000254342
2.84021e-08
1.0021e-05
2.2358e-10
0.000143688
1.33551e-06
4.36663e-06
1.84543e-06
6.63937e-06
1.61319e-09
4.70011e-07
6.09118e-07
5.19454e-06
1.74554e-05
2.38131e-07
8.40924e-13
0.000134306
1.60526e-06
2.32005e-07
0.0001075
4.41485e-06
5.38548e-08
3.93515e-09
1.72777e-05
0.000138999
2.27353e-07
8.70929e-10
4.75745e-09
4.57522e-09
9.48654e-05
2.89885e-10
0.00017323
1.03499e-07
0.000792502
2.99199e-07
0.000116276
1.15158e-06
3.56573e-06
8.22356e-05
5.90693e-06
1.86244e-06
0.000155954
4.79525e-08
1.06635e-05
0.000124114
5.49035e-05
5.20817e-05
4.16803e-09
4.1312e-06
0.000213828
5.27055e-05
5.0722e-05
1.02636e-07
5.27325e-06
0.000150649
2.93695e-11
4.14551e-08
1.10453e-06
0.000233241
1.32042e-08
0.000136871
5.06356e-08
0.000138863
4.60261e-05
1.01835e-11
5.03222e-05
0.000142871
0.000120146
0.000101636
5.79726e-05
3.39291e-14
5.74287e-05
4.90426e-05
0.000387345
7.69018e-07
0.000154816
1.43447e-06
0.000119346
3.20351e-07
5.85541e-05
6.55855e-07
6.24857e-05
4.63749e-08
1.97064e-06
8.25343e-05
5.80321e-08
0.000148969
0.000131246
8.4823e-13
2.63062e-06
9.55433e-10
2.41239e-08
1.9918e-06
6.41102e-05
4.85247e-08
5.16114e-05
1.00994e-06
1.26798e-07
0.000154609
9.14429e-12
0.000111932
0.000154158
1.87356e-12
9.66347e-05
4.58046e-09
4.22864e-06
2.65432e-08
5.0824e-05
9.4596e-07
1.32975e-05
3.04678e-06
6.42148e-08
2.28403e-06
2.68396e-06
0.000101995
6.1796e-05
6.84645e-07
2.42532e-10
0.000117299
2.35766e-08
5.52685e-07
3.00748e-07
2.08842e-06
1.15646e-07
0.000134117
1.6199e-07
7.47157e-06
3.72402e-09
3.90406e-06
0.000158451
5.81193e-06
1.18228e-05
6.30948e-14
5.42112e-06
3.96886e-11
0.000109657
0.000142026
2.82847e-06
5.46622e-08
7.63285e-06
1.16658e-07
1.09081e-05
2.13685e-10
8.88315e-07
0.000130248
5.22617e-06
0.000151977
0.000117882
5.11018e-05
2.24324e-12
1.32602e-11
3.15795e-11
7.13392e-09
2.89546e-06
1.02837e-05
1.21526e-05
2.48493e-07
2.7138e-07
3.16312e-07
1.20425e-06
0.000124745
1.30321e-08
0.000108788
0.000207499
4.96546e-05
0.000535807
1.22493e-10
0.000159222
1.33523e-06
3.75442e-08
1.73755e-11
2.84201e-07
0.000108074
0.00148475
0.000700918
3.27179e-06
1.83574e-07
0.000149382
0.000197786
8.14087e-07
9.8428e-05
4.49415e-05
0.000146445
0.000154353
0.000170184
3.3641e-05
1.55439e-08
0.000149986
0.000144455
1.08248e-05
0.000209333
0.000107132
1.07149e-11
4.29568e-07
2.31408e-10
0.000123601
5.50069e-05
2.28408e-07
3.97766e-07
8.13675e-10
0.000108828
0.00013808
0.000391293
0.000167691
6.762e-10
0.000156598
4.86611e-06
1.57255e-06
3.34304e-09
0.000100141
4.5666e-06
9.6683e-05
0.000164759
1.23892e-06
0.000128579
7.12737e-08
0.00011721
5.00509e-10
6.53768e-12
0.000137842
5.5983e-05
3.45263e-12
0.000108323
8.10547e-08
6.1248e-05
1.8876e-06
3.26741e-06
0.000105297
0.00014356
0.000105276
0.000667144
1.89853e-06
6.01845e-05
1.01517e-05
0.000100912
4.3903e-06
0.00014524
5.79689e-09
2.20464e-16
1.05972e-07
0.000133702
1.26245e-12
1.26389e-05
1.69491e-09
6.51786e-05
0.000881125
1.00254e-11
9.18105e-05
8.11915e-06
0.000486753
1.13242e-08
0.00010596
0.00011719
2.90987e-06
4.6202e-09
0.00010641
4.59518e-07
5.42662e-05
0.000149095
1.01552e-06
0.00124543
4.93468e-12
2.72024e-07
9.6973e-07
1.45995e-07
4.91846e-11
0.000100711
0.000109143
1.39718e-06
0.000984091
7.84336e-08
8.98127e-09
1.87498e-05
6.59801e-12
5.33395e-08
6.75569e-06
1.92101e-06
0.000143876
5.20462e-05
0.000128745
1.8543e-10
6.14882e-07
9.2227e-06
3.59927e-06
0.000127491
1.66487e-05
6.17499e-05
3.84688e-07
1.53824e-06
0.00118139
1.84231e-08
1.24961e-05
0.000839813
1.7175e-08
0.000159558
1.41083e-06
5.92806e-05
5.71409e-11
0.000164657
1.49679e-08
0.00134885
4.05551e-10
2.23699e-07
2.36426e-10
2.37299e-11
2.24938e-06
0.00011739
0.000120562
9.40947e-05
2.17551e-06
4.31668e-09
7.12098e-09
5.28361e-12
0.00012371
1.34523e-05
1.26894e-05
1.0465e-06
7.22227e-09
2.45338e-09
8.55262e-06
3.88037e-06
0.000141354
9.95214e-06
2.23472e-08
0.000156465
9.00107e-05
5.0924e-05
0.000140089
1.69914e-05
3.91592e-08
5.21076e-05
0.0001318
2.2496e-06
0.000145588
2.0277e-06
8.85092e-07
7.47681e-06
8.23086e-07
3.52125e-11
1.6213e-06
4.53632e-08
0.000100872
6.28826e-07
3.01839e-10
1.19784e-05
1.23182e-05
5.29977e-08
2.31581e-07
4.18354e-05
1.03156e-12
0.000110463
1.09103e-05
5.74928e-06
5.91178e-05
5.24765e-11
0.000264249
4.95233e-05
0.000105664
0.000167729
5.00362e-05
0.00013333
5.69135e-09
1.55352e-09
7.35827e-09
8.55037e-05
9.21397e-10
6.79248e-10
0.000147178
8.83305e-09
0.000579727
9.1321e-05
0.000146659
1.09015e-07
1.28917e-06
0.000146408
2.67322e-09
0.000141936
5.27515e-07
3.02298e-09
1.09028e-07
8.21869e-12
2.95916e-06
5.57385e-06
2.16995e-06
0.000129662
0.000112271
3.55639e-06
4.53001e-06
0.000128497
1.57333e-11
0.000311707
5.77724e-07
4.38002e-07
1.94081e-05
3.62112e-09
1.22833e-05
1.18314e-05
0.000117158
2.1294e-07
3.34883e-06
0.000122679
3.65689e-08
3.67787e-06
6.30886e-13
6.90533e-06
3.31608e-10
1.54429e-06
1.31453e-05
2.64068e-06
7.4427e-06
3.11498e-11
4.58206e-05
2.38365e-07
2.39078e-06
0.00155886
1.57186e-14
2.53546e-06
2.94482e-07
0.00012321
9.47221e-05
9.40451e-08
6.04122e-11
1.19826e-10
8.07706e-06
5.9967e-11
5.58025e-06
2.02239e-06
0.000224641
1.60741e-06
1.80197e-06
0.00013962
3.3077e-11
4.77349e-09
0.000108385
2.10983e-09
2.62339e-06
3.31125e-06
1.84215e-06
7.1889e-06
8.29248e-07
5.40088e-05
0.00143809
0.000120179
5.32041e-07
1.08706e-06
0.000153861
7.65137e-05
5.39244e-05
3.70901e-07
9.13143e-05
1.93889e-09
7.23773e-07
1.88665e-07
1.29042e-10
1.48862e-05
0.000118062
3.2339e-09
1.27226e-08
3.79686e-07
1.48804e-05
6.91371e-11
6.49776e-06
2.59904e-06
0.000124886
5.75846e-08
9.05717e-06
1.76869e-05
0.000123229
5.43881e-05
7.87761e-06
1.28534e-06
8.06025e-05
9.88576e-08
8.77916e-09
3.86192e-07
1.71726e-06
2.79713e-08
8.86155e-07
1.16258e-06
3.36317e-06
0.00139889
1.87119e-11
6.41149e-07
0.000117027
5.70772e-05
1.0212e-07
4.1151e-10
0.000115476
8.5383e-08
1.59579e-06
1.68664e-05
1.58828e-05
6.61791e-06
1.34136e-10
7.50231e-06
3.56802e-06
0.000294703
6.78398e-06
5.22712e-06
0.000166237
4.40496e-06
0.000104972
1.23563e-05
3.95651e-07
4.61017e-05
0.000109137
7.69463e-07
8.38572e-08
1.72458e-14
9.98525e-05
3.10681e-06
0.000101214
9.71145e-06
4.55174e-05
4.42735e-05
7.4042e-06
1.00736e-05
5.49438e-05
1.69052e-09
1.99181e-07
1.41597e-06
7.48668e-06
1.04037e-05
2.85968e-07
4.17691e-06
1.0005e-06
5.33504e-05
7.17745e-06
0.000103188
0.000108876
2.39568e-07
9.25865e-05
0.000177534
3.49222e-06
1.92685e-06
1.13735e-05
0.000225743
0.000150272
4.37585e-08
4.34247e-06
2.70061e-07
0.000160484
0.000133227
7.51404e-06
0.000101612
5.29972e-09
1.11502e-07
4.90319e-06
0.000129233
4.88758e-07
3.913e-08
0.000128353
1.38799e-05
4.48889e-06
5.3956e-05
6.66648e-08
3.08648e-06
9.56465e-07
7.96354e-09
0.000107472
2.19914e-07
4.68052e-08
6.96002e-07
4.28185e-05
7.07449e-08
9.222e-06
6.92315e-07
0.000136669
7.00941e-07
1.05447e-05
0.000107416
1.66349e-08
0.000117791
1.54713e-09
2.33711e-06
9.95488e-07
0.000185447
3.81232e-06
9.97308e-06
4.67857e-05
7.49148e-06
2.40131e-09
0.000138627
1.68154e-08
1.00307e-10
4.91582e-05
0.000164223
0.000117317
3.16194e-06
7.41236e-13
9.64427e-07
1.17131e-05
4.59949e-05
6.23135e-10
9.37345e-05
1.74938e-06
5.19577e-06
2.5207e-05
5.78529e-05
1.30327e-12
0.000158118
1.22405e-05
1.37085e-11
6.18383e-06
0.00012127
1.71143e-09
8.07426e-09
0.000154033
1.39169e-08
4.29097e-08
4.76587e-07
1.34013e-05
4.75711e-06
0.000158037
9.82568e-08
3.12978e-13
0.000156996
0.000102395
0.000104023
1.21689e-07
1.16164e-05
5.48971e-08
5.33498e-05
1.3726e-07
0.000145019
4.44793e-11
3.35062e-05
1.89322e-08
3.14227e-06
2.81172e-14
2.04351e-10
0.000105807
0.000108224
3.76677e-10
1.39925e-10
0.000139288
0.000169695
1.50366e-07
4.63285e-14
1.36256e-08
2.77674e-06
3.9995e-11
3.10855e-11
4.45469e-07
5.68436e-05
2.18907e-05
4.91302e-05
2.06912e-11
1.47724e-05
0.000108057
0.000160155
1.54522e-07
9.57444e-07
3.28371e-06
9.77753e-08
1.98928e-08
9.04444e-05
4.24801e-08
1.46909e-06
0.000122722
0.000156352
8.97795e-07
6.41113e-07
0.000118676
0.000124109
3.17148e-07
5.39826e-06
0.000163961
1.90638e-05
3.4957e-07
5.40373e-08
1.03394e-06
4.42801e-10
4.32209e-11
0.000140735
8.82082e-05
2.38153e-06
5.50301e-08
1.57577e-06
9.14047e-09
5.2888e-05
5.67151e-05
0.000103917
1.87709e-05
0.000163677
8.15375e-13
1.99493e-13
7.8817e-06
5.96501e-05
0.000141809
4.77538e-06
5.92349e-07
1.68781e-08
1.69717e-06
2.96331e-06
1.00071e-13
0.000121339
6.99617e-05
0.000241044
1.85692e-06
2.74875e-11
1.95899e-06
5.08067e-05
1.40649e-05
7.04018e-08
1.26004e-13
1.00993e-05
1.09145e-12
4.12257e-08
2.74539e-06
5.64532e-05
0.000167346
1.05622e-07
0.000106333
3.10354e-07
3.67598e-08
1.299e-05
0.000136408
3.20186e-10
4.6102e-05
0.00011657
0.00013347
8.55431e-09
2.15099e-06
7.66284e-08
1.49911e-07
1.37015e-05
1.84644e-06
0.000124369
0.000106415
0.000120066
3.05785e-06
3.06887e-06
4.69786e-10
1.66403e-06
8.37319e-07
1.35245e-08
0.000186041
9.33429e-08
0.000132387
4.71383e-09
1.70325e-06
0.000134775
1.06369e-06
3.85411e-06
7.88163e-10
7.47989e-06
4.34482e-05
9.38832e-05
3.07066e-11
0.000120657
8.22138e-06
1.57615e-05
1.68986e-07
3.09975e-05
0.00010563
0.00018194
0.000114411
4.1047e-07
2.88798e-07
9.37433e-07
6.8698e-05
6.50305e-08
1.52952e-07
8.61074e-09
5.86886e-09
9.72783e-05
0.000114662
7.46757e-08
9.07881e-07
5.65857e-05
4.57871e-06
1.54239e-07
6.96294e-09
7.91791e-06
0.000164762
0.000201378
5.55854e-05
4.59305e-10
7.00235e-08
1.308e-06
0.000134198
9.82771e-05
1.02463e-12
4.62188e-07
5.63982e-05
2.39076e-06
1.98717e-09
1.68561e-08
1.17731e-07
1.73776e-06
1.38693e-09
3.04593e-09
3.93592e-06
4.91487e-07
3.36155e-07
1.45351e-05
4.14342e-05
2.87474e-06
8.7807e-09
0.000113899
5.25633e-05
6.05024e-09
5.90642e-05
3.32503e-14
4.26928e-06
3.88355e-09
4.01296e-10
2.59482e-07
1.57912e-07
1.05272e-07
6.2068e-10
9.7353e-05
0.000168436
1.03791e-05
2.70041e-06
0.000137746
1.24111e-05
3.16126e-07
3.10019e-07
1.20733e-10
0.000131025
2.10717e-06
1.59062e-09
1.32821e-05
1.1609e-07
4.49822e-07
0.000151091
5.27342e-08
0.000142163
5.9615e-06
0.000138123
1.81161e-09
5.18929e-14
1.35548e-07
0.000146804
6.10008e-05
8.37469e-06
9.73379e-15
4.93474e-05
5.83383e-05
7.69995e-06
1.81201e-06
0.00011521
1.69381e-06
6.44587e-14
5.43576e-05
5.31483e-05
0.000159379
5.32878e-10
8.28626e-07
5.9627e-15
4.15581e-08
4.41374e-06
4.5117e-06
5.16938e-06
0.000132115
0.000101176
0.000158053
1.39727e-05
5.12253e-06
9.9062e-05
0.000110577
5.18985e-05
0.00016008
7.0282e-09
0.000158405
1.72091e-07
6.5631e-06
5.50489e-10
5.32147e-05
3.99115e-06
0.000102934
6.12385e-05
4.77512e-06
2.37417e-08
1.83356e-07
0.00171349
1.44937e-07
0.000143335
3.57747e-08
1.29757e-11
1.82861e-06
1.30378e-05
2.91821e-10
1.99577e-07
8.41446e-06
5.89062e-05
0.000103474
2.06545e-06
2.6969e-06
0.000109702
1.17769e-05
4.76768e-12
0.000110479
0.000170889
3.88507e-06
7.87173e-05
6.02484e-05
0.000147193
4.70628e-05
0.000114758
0.000124296
0.000111762
0.000144782
2.19327e-06
1.14366e-05
1.48521e-06
0.000134095
6.96983e-08
2.54648e-11
1.78094e-13
1.25169e-06
9.9896e-09
0.000105071
5.26203e-09
0.00140633
1.16288e-05
6.64137e-06
1.5215e-08
0.00012601
6.5483e-07
9.44466e-06
0.000180913
0.000100628
5.52821e-13
5.96862e-06
0.000131636
1.27749e-09
1.51876e-10
1.79126e-06
4.89006e-09
0.000105635
2.20694e-08
1.38405e-05
0.00018316
4.63405e-12
5.85186e-12
4.91964e-07
8.03281e-06
1.20406e-11
5.59916e-10
0.000269057
3.15529e-06
3.11489e-06
2.8541e-07
1.21892e-05
8.57201e-06
3.3734e-10
0.000191964
1.67086e-13
0.000203863
0.000228192
6.35947e-05
5.24528e-11
1.80247e-11
0.000437504
1.73117e-09
1.40966e-06
1.63119e-05
3.31628e-07
0.000151522
0.000158409
0.000220767
5.86627e-05
0.000177398
1.27665e-11
0.000119939
5.89146e-07
0.000102171
0.000138577
6.52481e-06
5.15349e-05
2.25243e-07
3.19818e-09
8.14619e-07
0.000116366
0.000119568
1.39976e-08
7.25659e-09
0.000155594
1.18255e-09
5.24747e-05
9.27686e-06
3.92125e-07
1.76145e-09
1.2451e-06
3.22485e-06
5.75476e-06
1.17647e-05
0.000107352
9.20592e-05
6.38137e-05
0.000100098
1.71702e-06
4.03506e-08
5.57702e-05
5.50598e-05
4.53205e-06
5.36377e-13
4.92704e-11
5.18511e-05
6.41825e-10
0.000134063
7.10454e-05
3.65477e-12
0.000117074
1.20384e-05
8.98105e-06
2.32803e-07
7.04903e-06
8.15039e-09
8.07048e-06
8.80194e-06
1.42452e-08
1.03905e-06
1.06292e-08
0.000149074
0.000117404
4.20989e-07
3.15254e-06
1.60511e-10
7.81462e-06
4.87236e-06
0.000128337
1.06998e-08
6.29458e-09
3.15928e-09
8.10039e-06
0.000119279
5.12274e-05
7.9561e-05
4.58146e-08
4.9289e-05
2.32681e-06
0.000147895
1.46936e-08
0.000111207
1.15194e-05
2.13821e-06
6.03779e-05
3.1844e-12
6.88646e-09
0.000105709
0.000153524
8.57604e-07
0.000187415
1.50431e-08
1.11319e-07
1.25109e-05
2.79101e-10
1.75092e-05
3.59775e-07
0.000150275
2.48266e-06
2.21833e-08
5.12573e-06
0.00012653
1.68228e-09
5.36455e-09
1.2256e-05
4.38223e-09
0.00010319
5.30259e-08
0.000140425
4.3253e-09
9.36565e-08
3.26672e-10
2.89152e-13
0.000104604
0.000142593
0.000109912
5.56196e-07
0.000104269
1.3078e-06
9.86194e-05
4.0718e-07
6.0177e-05
0.000127712
3.46561e-06
1.0886e-09
1.10433e-05
2.2515e-06
9.76002e-08
2.03498e-10
0.000113437
6.66369e-06
0.000169192
4.85797e-05
2.50655e-06
5.77112e-06
2.97362e-08
0.000180261
0.000103583
2.31392e-05
1.59312e-05
6.92158e-10
1.22871e-12
2.86739e-09
0.000121333
5.6168e-15
6.75334e-10
1.79284e-07
6.64414e-05
3.45129e-09
1.16169e-06
3.66833e-08
1.10341e-07
2.55898e-05
5.11835e-05
9.47258e-11
9.98849e-05
5.3173e-08
9.26636e-06
1.05666e-09
2.13415e-09
7.09455e-10
1.80008e-06
0.000105087
3.78893e-06
5.8991e-05
0.000153863
2.91021e-08
0.000118469
2.34399e-09
0.00014514
0.000111311
5.30699e-05
2.09031e-05
3.2257e-08
8.47711e-05
0.000160658
1.88789e-08
1.39866e-05
1.50614e-07
3.01722e-06
0.000136225
1.13798e-05
0.000114881
1.04897e-06
2.89693e-08
4.81916e-05
1.06419e-08
6.25674e-08
1.57473e-10
3.97856e-08
6.37548e-08
9.26751e-12
3.47707e-07
4.14296e-15
0.00016699
0.000150741
8.34676e-12
0.000166076
4.20862e-07
4.06782e-08
1.28635e-05
3.21146e-06
1.84048e-08
0.000113692
8.73534e-06
4.82485e-05
9.10023e-06
0.000111064
9.25389e-11
5.85737e-06
2.5233e-05
3.11971e-06
0.000107806
2.83249e-07
1.84879e-08
1.17102e-05
1.18257e-11
0.000128352
0.000141749
1.10274e-07
8.31344e-08
1.89156e-07
3.88388e-06
0.000145856
8.46309e-06
4.46665e-05
4.41319e-06
5.7312e-08
0.000105504
3.35822e-12
6.18359e-09
0.000113878
0.000176323
6.65987e-06
9.93879e-06
0.000145745
2.65481e-13
0.000118215
0.000160013
1.37918e-05
6.63112e-07
6.61777e-06
8.15724e-10
4.25676e-07
4.02479e-11
2.38188e-06
9.71248e-07
1.42953e-06
1.19279e-07
1.24762e-10
0.000126849
0.000109505
6.02429e-09
2.99707e-07
2.4381e-06
0.000139604
0.000154579
8.56887e-14
0.000163614
2.18767e-10
9.64654e-08
5.56466e-06
0.000108313
5.69403e-05
1.05709e-06
3.35948e-07
6.67395e-10
6.25161e-12
5.12835e-05
0.000169961
3.39314e-07
0.000164369
0.000116418
0.000101252
0.000104604
1.25743e-08
5.50415e-06
2.72781e-12
1.26323e-06
7.35276e-06
5.30252e-06
4.06017e-08
1.54173e-08
5.59997e-05
1.5873e-06
5.19096e-08
5.24872e-08
9.24381e-05
1.02689e-06
0.000165221
1.05074e-05
0.00011127
2.82835e-09
4.93783e-13
0.00116746
0.00013549
8.10819e-06
6.23262e-05
0.000135066
1.7487e-12
0.000135995
5.82338e-05
1.36537e-07
2.28503e-08
3.84584e-06
0.000100143
2.33609e-06
4.90533e-05
2.52092e-06
2.47724e-08
3.07814e-08
3.71583e-07
0.000106619
3.16463e-12
4.43946e-08
5.34053e-06
2.25632e-09
1.37913e-08
2.27368e-09
9.93424e-06
0.000141784
9.96829e-05
4.36816e-07
3.83461e-06
1.47888e-12
8.76971e-05
2.45027e-07
4.89027e-05
1.35963e-09
1.47405e-12
1.18038e-05
6.12598e-05
4.86935e-05
0.000124839
2.48418e-10
1.47798e-16
5.08402e-05
2.27953e-07
0.000129145
2.91783e-10
3.16738e-07
0.000162409
9.3378e-07
2.43486e-07
3.8373e-09
0.000223766
0.000152198
0.000122157
5.5607e-05
4.88534e-05
0.000161985
0.000151468
0.000155315
1.16165e-05
1.54573e-07
1.03112e-08
8.643e-08
5.77331e-07
0.000141285
8.96879e-10
2.25847e-08
0.000120202
0.000130292
0.000176746
1.41472e-05
0.00017432
9.52807e-10
0.000302555
1.07226e-05
2.13554e-05
9.11652e-05
8.41724e-06
1.53327e-09
2.9759e-06
8.13614e-14
3.83415e-09
2.23776e-07
6.10462e-05
2.46655e-06
5.9414e-11
2.77031e-07
0.000116172
3.21271e-05
1.78901e-06
3.52868e-09
8.80365e-07
1.34905e-06
4.74643e-05
9.92402e-05
0.000157149
6.05423e-06
9.29163e-06
4.09875e-07
6.69611e-08
0.000102768
1.40152e-06
6.01571e-05
2.68841e-06
5.33316e-08
9.38874e-05
0.000111677
1.7179e-06
8.74862e-11
1.12151e-09
4.46278e-09
1.68919e-05
4.55316e-05
9.25652e-15
2.74905e-06
8.65143e-08
6.25574e-11
2.68675e-10
2.05204e-06
1.01768e-05
1.78288e-12
0.000133435
8.36338e-05
0.000159722
3.99989e-06
7.41853e-07
8.43508e-06
4.92256e-05
1.36882e-11
8.25574e-05
4.88588e-05
0.000134325
1.30175e-07
4.57799e-08
1.43774e-08
0.000125239
0.000101673
6.16968e-05
0.000146775
0.000115844
6.75134e-08
3.13859e-07
0.000142343
0.000112371
5.02496e-05
1.89498e-06
2.454e-07
5.79831e-12
8.0969e-06
8.2464e-11
5.58762e-14
5.37859e-06
0.000105999
7.8688e-06
1.79192e-10
6.59339e-13
7.82093e-08
2.0481e-13
7.70819e-09
2.55115e-05
2.30156e-07
6.33923e-05
0.000345734
2.94288e-09
1.2122e-07
0.000123925
2.51659e-07
0.00014945
4.55942e-12
1.4773e-11
1.99769e-08
4.574e-08
5.4977e-05
0.00015985
5.57408e-05
5.14295e-06
1.9322e-06
6.02953e-07
1.33197e-08
0.000115325
1.37814e-05
3.03728e-09
2.45585e-07
7.5469e-07
0.000188313
8.72946e-05
1.47897e-06
1.06708e-08
1.14241e-06
2.20203e-07
1.03095e-08
7.11236e-13
2.20409e-13
4.30124e-06
1.51749e-07
1.31116e-06
2.53856e-11
1.13043e-05
0.000151278
0.000133754
1.42304e-05
1.32127e-06
3.56294e-08
1.29307e-07
0.00015591
1.20365e-06
2.6004e-13
2.98323e-08
1.11882e-05
4.07527e-10
2.13921e-14
2.51364e-10
6.15394e-07
1.00752e-06
1.58776e-11
0.000100222
3.28349e-07
7.2687e-11
0.00013883
8.22695e-08
6.84025e-10
1.01392e-10
4.67218e-13
1.30554e-07
0.000106301
5.86878e-08
1.36127e-05
2.00238e-07
1.59641e-05
6.97547e-09
2.1106e-10
1.26844e-05
7.18529e-09
0.000140875
5.90823e-09
0.00010697
0.00011395
2.84631e-13
0.000134506
6.40747e-07
1.03554e-08
6.32693e-08
5.00493e-05
7.34106e-06
0.000142352
9.79658e-12
9.84284e-05
8.99867e-06
8.59275e-12
2.78577e-12
7.21511e-08
6.31692e-11
2.32237e-10
1.58934e-06
3.23924e-10
4.4429e-10
4.64009e-10
0.000117334
1.2205e-05
2.16234e-06
7.61731e-07
5.59118e-05
1.13465e-14
9.06639e-09
5.3836e-08
0.000132288
5.80611e-10
0.000149042
1.80379e-06
0.000155531
9.47284e-05
1.96086e-06
2.08224e-10
1.85712e-10
1.00113e-06
0.000135736
2.36174e-08
0.000162105
0.000138845
6.86795e-12
6.36383e-05
8.25692e-06
4.78785e-10
2.21265e-10
0.00013857
5.31889e-05
0.000108178
6.81654e-07
3.29569e-08
4.72983e-05
2.67279e-13
1.133e-05
5.60658e-05
6.51765e-05
0.000152447
2.04449e-10
7.13561e-08
2.21649e-07
1.58302e-12
4.84238e-07
2.49847e-08
4.56981e-08
1.33864e-06
3.21252e-11
1.76945e-06
4.47197e-06
1.16097e-05
1.91374e-07
1.36658e-05
1.04691e-08
1.42601e-12
3.0125e-09
5.34742e-10
3.78884e-07
1.83521e-09
0.000112566
5.93431e-09
4.83947e-07
4.55477e-05
1.5338e-07
3.96703e-06
0.000190244
7.47998e-10
1.45245e-07
8.41523e-06
1.21431e-08
0.000112544
9.16591e-07
1.59546e-08
3.19637e-09
8.92405e-06
5.59572e-05
6.00272e-05
6.8944e-09
0.000108088
0.000109698
0.00017847
9.21964e-13
4.37576e-09
2.80696e-07
2.25131e-10
1.01871e-13
1.67139e-12
7.2273e-05
1.03561e-06
1.37595e-07
1.17391e-07
2.78485e-06
1.8824e-06
0.000107663
0.000137026
0.000144437
4.55323e-05
1.64809e-08
2.0135e-06
1.41192e-06
1.14778e-05
3.16395e-09
3.32532e-08
0.000143284
5.89127e-06
1.48628e-07
2.19261e-07
3.05098e-06
6.25482e-05
6.5337e-05
4.83612e-08
9.71445e-05
2.26035e-09
3.41157e-12
4.68303e-06
3.09075e-10
1.05972e-05
4.25503e-05
5.54756e-06
4.23249e-06
8.38107e-06
4.84569e-08
5.80334e-07
7.50343e-05
0.000108471
5.54794e-07
4.80656e-06
5.56784e-05
0.000120251
1.03562e-05
0.000147719
1.22143e-07
3.68224e-07
0.000101104
6.46415e-07
2.66142e-06
2.6433e-10
1.75669e-08
4.32245e-08
1.90666e-10
3.43689e-08
5.40515e-09
1.38132e-05
3.52024e-09
4.93205e-05
1.82826e-05
5.22763e-05
5.09336e-07
1.29551e-06
1.83824e-07
1.1185e-09
8.15804e-06
6.56089e-06
0.000135713
8.77897e-06
0.00013192
1.25207e-05
8.37855e-11
2.30248e-13
2.75117e-08
4.38202e-12
0.000106945
0.000129829
1.03487e-07
1.0874e-05
8.90296e-05
1.54757e-07
0.000106515
1.68208e-08
5.14924e-12
1.11709e-10
2.0825e-07
1.13071e-07
6.432e-07
1.06178e-08
9.79084e-05
3.80268e-07
0.000113018
0.00010411
4.97776e-05
7.47258e-12
7.49444e-07
5.04263e-06
0.000110925
0.00030762
3.84452e-10
5.99093e-06
1.02166e-05
1.15673e-05
0.00010805
9.60108e-05
0.000112118
5.04105e-05
1.8374e-07
5.61617e-05
2.21607e-11
4.69543e-05
0.000115366
7.75998e-06
9.48674e-05
0.000142723
0.000138441
1.9653e-08
1.27821e-07
4.21521e-07
5.54856e-05
5.81753e-06
0.000142216
1.07186e-06
4.27574e-05
5.47052e-09
5.34358e-10
0.000143202
1.5312e-10
1.20594e-07
9.00423e-09
6.09334e-09
4.41708e-11
3.47334e-07
4.48326e-11
3.69919e-08
4.48025e-10
0.000169368
1.09892e-05
5.32608e-05
2.09865e-11
0.000106766
1.44074e-05
4.01831e-15
2.43077e-05
1.26902e-06
0.000128556
2.7494e-07
1.72468e-06
6.49837e-07
6.63055e-09
3.69441e-09
1.39555e-10
3.29875e-09
8.71512e-10
7.09769e-07
5.46635e-05
5.50603e-05
3.96646e-12
1.5226e-07
6.31508e-11
5.62909e-11
2.2847e-08
3.59812e-09
5.18421e-11
0.000107925
8.36046e-12
1.75721e-06
0.000134754
6.62006e-09
0.000141807
1.0513e-08
4.89989e-05
0.000107427
4.89799e-12
9.46707e-05
0.000149564
0.000125032
0.000108947
0.000102833
2.53668e-07
7.42174e-06
1.73918e-06
1.9579e-11
5.33498e-05
1.08151e-08
2.61629e-06
2.45305e-08
0.000144704
1.48302e-12
1.54642e-06
3.46852e-07
7.92028e-09
0.000137355
9.74446e-05
6.0631e-12
0.000171382
1.1797e-06
0.000123062
1.27054e-08
4.10083e-05
5.52954e-06
3.30875e-06
6.51672e-10
0.000108238
0.000127635
0.000108032
2.35222e-12
5.07749e-05
0.000108455
6.42414e-07
1.20563e-05
0.000141811
6.13955e-06
0.000155182
7.93956e-10
8.54817e-12
6.70231e-07
2.55225e-08
0.000181223
1.63496e-06
9.19204e-05
7.68869e-07
1.10671e-10
9.15108e-07
1.28461e-08
9.49692e-06
1.49135e-06
0.000105777
1.37382e-11
2.68156e-06
3.42685e-06
3.13784e-06
5.29508e-05
0.000126911
2.00703e-09
7.07474e-10
5.40031e-08
4.3217e-05
7.6584e-10
0.000166838
0.000190166
0.000106082
1.22354e-07
0.000114205
4.97741e-07
0.000143481
0.000114728
1.47844e-08
5.05553e-05
0.000102344
0.000104781
2.13822e-14
1.21464e-10
2.08754e-06
5.17796e-05
1.30572e-10
1.4158e-11
5.60271e-07
2.1148e-07
2.38303e-09
7.80291e-08
7.91424e-07
0.000157273
1.07257e-09
2.47452e-05
5.16796e-05
0.000153155
1.05616e-07
2.26295e-08
5.12573e-06
3.18247e-11
0.000155746
1.07356e-06
3.57993e-10
0.000135963
1.19549e-12
3.93043e-08
2.49765e-10
0.000106324
1.05507e-07
9.83816e-05
2.18431e-06
4.8406e-05
0.000137103
7.08178e-07
5.71724e-10
4.67811e-05
2.04345e-13
1.14704e-08
3.2529e-09
3.94989e-07
5.8566e-05
0.000151985
5.58948e-08
1.13406e-11
1.18731e-10
6.60536e-09
5.59356e-05
6.81492e-13
6.00311e-05
4.5725e-05
2.81634e-12
2.05193e-05
3.18585e-06
1.47418e-09
1.25498e-06
0.000102777
0.000113828
4.86603e-07
6.20803e-09
9.68431e-05
0.000116435
1.03055e-05
8.95527e-10
2.38893e-10
0.000146518
1.05412e-05
1.64862e-09
5.46264e-09
2.7365e-10
1.60991e-13
1.15719e-06
1.50207e-06
6.13835e-14
2.45172e-09
1.19554e-05
0.0001563
0.000156956
1.92648e-08
3.39044e-06
3.95297e-11
1.79933e-09
2.27602e-08
3.09906e-10
1.23539e-07
9.08588e-10
1.36643e-11
1.64613e-08
4.50112e-06
2.26834e-10
7.75065e-09
7.31209e-06
3.5583e-08
7.3803e-06
0.000132198
2.8418e-08
2.61268e-10
2.64853e-11
6.69011e-09
1.8478e-09
7.01565e-06
0.000124644
4.20234e-13
6.12781e-09
2.16722e-12
1.69174e-08
8.3669e-05
5.31749e-05
1.1069e-06
0.000168326
1.854e-09
0.000111907
5.12792e-07
3.29525e-13
4.58197e-15
6.26232e-12
2.31722e-07
0.000101545
0.000155435
0.000253385
8.57341e-06
0.000121226
3.03537e-11
2.0675e-08
0.000103303
7.57313e-06
2.80426e-06
1.08766e-06
9.76153e-08
1.76179e-07
2.50271e-05
2.34186e-06
3.31255e-08
0.000128828
5.66697e-08
0.000105324
0.000132088
1.21474e-08
4.69728e-05
5.51903e-09
1.24746e-09
3.94295e-07
5.97686e-06
1.1468e-05
1.46014e-10
1.45605e-12
4.61841e-11
8.8345e-05
0.000125312
5.30792e-07
3.85993e-09
1.76829e-06
2.38223e-06
1.12756e-05