/*--------------------------------*- C++ -*----------------------------------*\
| =========                 |                                                 |
| \\      /  F ield         | OpenFOAM: The Open Source CFD Toolbox           |
|  \\    /   O peration     | Version:  2406                                  |
|   \\  /    A nd           | Website:  www.openfoam.com                      |
|    \\/     M anipulation  |                                                 |
\*---------------------------------------------------------------------------*/
FoamFile
{
    version     2.0;
    format      ascii;
    arch        "LSB;label=32;scalar=64";
    class       volScalarField;
    location    "58";
    object      p;
}
// * * * * * * * * * * * * * * * * * * * * * * * * * * * * * * * * * * * * * //

dimensions      [0 2 -2 0 0 0 0];

internalField   nonuniform List<scalar> 
59516
(
0.236959
0.0136609
0.0129714
0.00180211
0.250406
0.270912
0.237764
0.210778
0.068979
-0.000533773
0.245095
0.239044
0.165302
0.236214
0.221704
0.0700327
0.238059
0.246013
0.242372
0.235084
0.241504
0.210186
0.237657
0.152442
0.0611303
0.147117
0.0866454
0.244788
0.240171
0.220715
0.253727
0.244943
0.110615
0.00134307
0.242549
0.198454
0.0595198
0.248856
0.240774
0.0119246
0.0140728
0.245127
0.241671
0.0014808
0.240182
0.0373516
0.240982
0.241496
0.252035
0.242812
0.258053
0.00107381
0.112672
0.214496
0.240955
0.240066
0.246304
0.00144885
0.152092
0.243627
0.00138511
0.19405
0.153319
0.23865
0.0029559
0.240485
0.00734619
0.202134
0.252351
0.240038
0.205735
0.235073
0.0415648
0.236342
0.203412
0.23963
0.24104
0.0264599
0.168588
0.242706
0.00133408
0.242717
0.241764
0.0986152
0.242722
0.23469
0.069325
0.235331
0.1115
0.245981
0.248541
0.206935
0.230258
0.204252
0.205199
0.251753
0.220742
0.211418
0.242469
0.163635
0.07516
0.135789
0.216753
0.00786056
0.0415737
0.00625205
0.00563395
0.0650371
0.117522
0.170047
0.250659
0.0810622
0.207436
0.251203
0.228056
0.18894
0.0290762
0.214908
0.215461
0.0291114
0.216771
0.213435
0.0560066
0.214955
0.249132
0.242603
0.228173
0.246744
0.257808
0.22948
0.227235
0.0138805
0.203212
0.230014
0.230728
0.200169
0.249539
0.223988
0.136836
0.233755
0.0820902
0.102993
0.210889
0.0814393
0.234342
0.232026
0.240534
0.235999
0.256841
0.230898
0.234121
0.00280303
0.228132
0.00266355
0.22957
0.00496764
0.00354203
0.230219
0.230819
0.222459
0.234394
0.234152
0.221897
0.00407517
0.187235
0.0274127
0.0691778
0.231815
0.232452
0.00386604
0.229634
0.229652
0.225266
0.226107
0.225674
0.24157
0.189928
0.242349
0.0125849
0.187521
0.227938
0.120822
0.14339
0.227328
0.227534
0.0766332
0.105871
0.058911
0.22893
0.226584
0.000305838
0.119756
0.231558
0.226541
0.23294
0.0185991
0.13747
0.13696
0.00365743
0.224988
-0.000563862
0.0578272
0.211982
0.16441
0.193768
0.121048
0.232529
0.00318033
0.156872
0.21876
0.0388714
0.244564
0.21779
0.194893
0.218895
0.0871831
0.231171
0.0185939
0.179381
0.219336
0.219135
0.232212
0.225175
0.00404856
0.221826
0.189202
0.156254
0.164524
0.224787
0.033824
0.221002
0.11898
0.225357
0.125323
0.131907
0.225497
0.224048
0.0472352
0.223922
0.0503393
0.228099
0.121046
0.117338
0.00295701
0.229351
0.228915
0.226492
0.0112135
0.225433
0.228502
0.011671
0.226735
0.228581
0.142336
0.227544
0.228363
0.0704915
0.223435
0.173567
0.220347
0.158439
0.222167
0.22371
0.223391
0.19837
0.0535285
0.180063
0.0638983
0.221043
0.149796
0.2383
0.193368
0.0678559
0.15246
0.22196
0.198432
0.15009
0.220812
0.221814
0.0876864
0.225041
0.164993
0.15359
0.21978
0.218067
0.237488
0.228333
0.0067022
0.223653
0.199471
0.222759
0.220286
0.204693
0.026914
0.207705
0.116886
0.200209
0.195888
0.220786
0.199324
0.198704
0.0561619
0.091692
0.193416
0.202251
0.146759
0.0184767
0.198693
0.199441
0.0748206
0.0611919
0.199847
0.143245
0.135006
0.240373
0.20148
0.212616
0.252456
0.200827
0.0587861
0.119158
0.211508
0.126543
0.214379
0.165217
0.201927
0.244439
0.212759
0.156118
0.213921
0.0212058
0.23409
0.153499
0.213888
0.175661
0.220293
0.223487
0.19303
0.243761
0.218554
0.194957
0.192933
0.214743
0.0469038
0.0969095
0.218529
0.0901432
0.22279
0.21508
0.174062
0.224719
0.226523
0.0346848
0.112351
0.156229
0.0478042
0.00703988
0.250518
0.255098
0.18873
0.0310323
0.230663
0.243498
0.207862
0.0305418
0.213931
0.213352
0.231028
0.254149
0.217277
0.0796145
0.0781464
0.213039
0.160427
0.184109
0.212813
0.214395
0.209175
0.171163
0.203642
0.231493
0.00102978
0.244347
0.00938662
0.0179067
0.214371
0.00697731
0.243802
0.213776
0.0129932
0.0127767
0.0530124
0.209324
0.249114
0.211964
0.249607
0.0103692
0.0701473
0.209265
0.210474
0.220253
0.207515
0.172048
0.220663
0.221648
0.0565027
0.136368
0.221812
0.220241
0.219278
0.0371785
0.0209707
0.022821
0.124277
0.194534
0.00942621
0.0335978
0.0651116
0.0043943
0.209052
0.206761
0.212454
0.212091
0.222572
0.211702
0.163008
0.206428
0.141146
0.212185
0.17722
0.215395
0.210806
0.198422
0.125808
0.220691
0.244149
0.0217506
0.216025
0.160136
0.0773777
0.162589
0.180139
0.21783
0.215843
0.212887
0.211263
0.0748664
0.210936
0.164501
0.0267946
0.182139
0.255255
0.140826
0.0602562
0.213244
0.175452
0.210671
0.132319
0.210517
0.0594162
0.211291
0.00384326
0.00720687
0.207904
0.241678
0.205759
0.190313
0.0356007
0.193286
0.191674
0.0400129
0.200018
0.19172
0.187323
0.186663
0.094357
0.193716
0.189022
0.128945
0.187231
0.0831227
0.184877
0.244931
0.185046
0.257308
0.186073
0.224399
0.0808791
0.0933175
0.1619
0.00367268
0.00285858
0.17547
0.198215
0.202066
0.155836
0.189657
0.047455
0.207536
0.205559
0.246119
0.137485
0.120633
0.165132
0.205344
0.0197637
0.200237
0.23733
0.00446672
0.276954
0.206297
0.0624701
0.233975
0.174044
0.239178
0.19272
0.167458
0.185114
0.208623
0.170662
0.208862
0.23057
0.0718179
0.0720674
0.24981
0.00292265
0.207398
0.199223
0.249349
0.197625
0.233916
0.00077153
0.200836
0.0816467
0.00024764
0.15146
0.0375633
0.247296
0.214413
0.0667156
0.00205637
0.220526
0.123239
0.199917
0.219805
0.199343
0.231251
0.000708488
0.100524
0.0656537
0.198985
0.0340219
0.146163
0.207308
0.128362
0.206046
0.00252055
0.210364
0.0621639
0.206891
0.162834
0.111162
0.103667
0.208398
0.00207681
0.0412162
0.198054
0.0769742
0.156911
0.179534
0.11791
0.113275
0.197754
0.197121
0.226583
0.196436
0.112312
0.198008
0.195976
0.107559
0.0960943
0.000879807
0.196878
0.196729
0.198408
0.091699
0.190123
0.0098683
0.199173
0.00527968
0.208903
0.000901657
0.0231811
0.168822
0.120172
0.0103196
0.19957
0.247562
0.00339201
0.0163345
0.196527
0.193203
0.0320246
0.19542
0.195994
0.132794
0.038358
0.208827
0.202373
0.0129385
0.197948
0.198324
0.145476
0.194784
0.256359
0.198755
0.249604
0.170776
0.252007
0.173648
0.0221992
0.233118
0.00515458
0.00572378
0.253709
0.252376
0.175361
0.198073
0.24705
0.243833
0.122951
0.0985485
0.161132
0.0600193
0.171559
0.11404
0.244059
0.174272
0.176494
0.191742
0.18137
0.254224
0.163942
0.185068
0.0515159
0.18511
0.13777
0.0170639
0.185153
0.18417
0.185574
0.138897
0.0840908
0.262455
0.117005
0.120151
0.142526
0.220168
0.185659
0.0607097
0.171963
0.142314
0.0124878
0.0632983
0.188302
0.216295
0.149176
0.139388
0.187318
0.187206
0.075279
0.225992
0.196112
0.129075
0.193233
0.155462
0.2028
0.191089
0.00962341
0.0245669
0.173994
0.254857
0.136656
0.127562
0.00303671
0.145953
0.190799
0.109997
0.20014
0.19564
0.0836046
0.115094
0.198565
0.233707
0.209063
0.158715
0.254209
0.198384
0.0322648
0.206589
0.257005
0.0205376
0.114203
0.220581
0.186784
0.0726196
0.18126
0.0220729
0.0165339
0.158268
0.187099
0.254284
0.210577
0.186572
0.186227
0.191575
0.0848901
0.0101594
0.0615242
0.209229
0.253631
0.140851
0.189036
0.12715
0.0547513
0.185872
0.0583899
0.186768
0.238431
0.11574
0.00215031
0.213999
0.0896344
0.192052
0.0167479
0.0720996
0.143784
0.216931
0.190253
0.192238
0.254925
0.217157
0.0363895
0.256926
0.00307081
-0.000623389
0.191511
0.0391914
0.104493
0.143591
0.100393
0.254456
0.188422
0.21379
0.184476
0.0425702
0.154207
0.0489293
0.118136
0.212389
0.184603
0.186268
0.183951
0.0682838
0.22893
0.173174
0.060763
0.185189
0.183623
0.18305
0.170572
0.185262
0.0181061
0.0112159
0.184313
0.00329019
0.111918
0.128232
0.00974577
0.134756
0.157533
0.235854
0.175119
0.206077
0.161547
0.118795
0.185646
0.187395
0.188056
0.101063
0.186882
0.229244
0.0155611
0.00266784
0.125791
0.106924
0.00281544
0.186592
0.184067
0.185529
0.0171659
0.0283413
0.183338
0.219873
0.0272908
0.0358263
0.254434
0.245908
0.188867
0.0371296
0.197794
0.174715
0.202595
0.158752
0.18097
0.248406
0.158932
0.158375
0.0811769
0.160433
0.249412
0.0305408
0.1792
0.158805
0.095725
0.195665
0.201711
0.0825036
0.194328
0.217444
0.197184
0.159028
0.239654
0.0484953
0.158573
0.212758
0.0139648
0.170247
0.0653776
0.155831
0.0861009
0.248436
0.162323
0.00285132
0.156583
0.155887
0.166074
0.157815
0.145378
0.00439673
0.0394644
0.194836
0.168213
0.138599
0.197243
0.100763
0.218518
0.0222604
0.167862
0.0747646
0.151973
0.19737
0.0144005
0.170454
0.16704
0.250745
0.0235511
0.2028
0.22222
0.0376537
0.164094
0.0393592
0.133233
0.187226
0.20154
0.163937
0.162815
0.162206
0.254344
0.0292443
0.200505
0.0994331
0.0175443
0.164597
0.205428
0.174737
0.173595
0.0302905
0.176232
0.177789
0.0935466
0.224683
0.252945
0.235957
0.13274
0.178207
0.0037767
0.243128
0.160473
0.175278
0.145735
0.177569
0.175886
0.18037
0.196511
0.18054
0.201661
0.176308
0.233519
0.234688
0.175995
0.193056
0.175174
0.201513
0.202387
0.0123919
0.116325
0.138377
0.012156
0.186795
0.178349
0.188344
0.0981836
0.00605514
0.102519
0.174779
0.191247
0.191222
0.113604
0.131113
0.188776
0.25131
0.17945
0.00798935
0.0175307
0.209808
0.180706
0.107794
0.144169
0.178378
0.117246
0.171106
0.171575
0.171419
0.145947
0.193339
0.170741
0.255467
0.0222893
0.170501
0.255694
0.17085
0.223759
0.0386616
0.169223
0.107621
0.0819466
0.17154
0.17082
0.105748
0.10778
0.169608
0.09061
0.168001
0.16868
0.175053
0.100453
0.166715
0.0287045
0.168963
0.168731
0.113701
0.167174
0.167567
0.237005
0.162601
0.13727
0.163836
0.165641
0.11522
0.0551702
0.0993291
0.243864
0.167834
0.168799
0.141963
0.056469
0.244345
0.144423
0.147103
0.143315
0.142179
0.0104917
0.00547569
0.0466685
0.0946361
0.16906
0.168238
0.00536258
0.209688
0.158735
0.0725288
0.244435
0.138967
0.137727
0.246808
0.140383
0.203147
0.0427082
0.138698
0.197685
0.183363
0.138997
0.102413
0.0371409
0.139683
0.209607
0.188026
0.107243
0.0508549
0.0824252
0.145947
0.0855267
0.209405
0.0817369
0.143551
0.153694
0.250654
0.111115
0.00977694
0.0538146
0.083184
0.14115
0.207954
0.152528
0.152218
0.0190873
0.120689
0.00762773
0.15462
0.154617
0.0846514
0.011752
0.185014
0.0363869
0.228114
0.172158
0.1689
0.242884
0.0826285
0.198525
0.206959
0.138522
0.0145245
0.168938
0.240519
0.167314
0.16525
0.140982
0.0730163
0.168932
0.0156203
0.241917
0.211139
0.113042
0.16824
0.160989
0.20903
0.235554
0.199922
0.0275037
0.0737913
0.165997
0.173389
0.194869
0.110093
0.191712
0.245885
0.164775
0.19391
0.0661872
0.171043
0.128533
0.0793879
0.170652
0.17054
0.169715
0.193905
0.166757
0.0382605
0.1675
0.0725265
0.190267
0.0187019
0.165698
0.193284
0.00351973
0.0213928
0.162709
0.0618244
0.0421417
0.0656208
0.0549866
0.0999131
0.0360222
0.16556
0.163557
0.0289381
0.162725
0.163835
0.19218
0.00918968
0.165125
0.15832
0.00211151
0.022783
0.155658
0.0903558
0.00344382
0.011679
0.156054
0.111877
0.161076
0.23853
0.0151542
0.192539
0.144811
0.160255
0.157466
0.142295
0.181837
0.167412
0.162041
0.148119
0.24151
0.212214
0.160822
0.163331
0.222172
0.0326433
0.210078
0.182368
0.110332
0.104235
0.163196
0.0744415
0.0185552
0.150606
0.155123
0.25638
0.130673
0.155391
0.153376
0.178595
0.0739047
0.153576
0.154611
0.232307
0.155064
0.0697927
0.157864
0.15755
0.12639
0.114534
0.138659
0.157706
0.154812
0.157545
0.10641
0.13405
0.160911
0.140173
0.105298
0.11205
0.112876
0.113192
0.13141
0.155803
0.134067
0.244584
0.223382
0.0398806
0.0949852
0.098845
0.132349
0.130279
0.134314
0.172376
0.131325
0.130572
0.0785204
0.099006
0.183154
0.077968
0.0314602
0.13353
0.132575
0.135189
0.226862
0.0128716
0.00632768
0.0928852
0.142858
0.139946
0.210196
0.032006
0.132923
0.24469
0.0377721
0.141523
0.141047
0.168357
0.00168276
0.139691
0.139877
0.139171
0.150689
0.00471325
0.00689364
0.151111
0.151217
0.148086
0.149732
0.155305
0.146742
0.0734061
0.0146722
0.249531
0.187626
0.151368
0.150389
0.113722
0.237174
0.230505
0.21434
0.00123194
0.214517
0.152204
0.152213
0.151084
0.151849
0.152452
0.151097
0.205929
0.127018
0.200163
0.134031
0.0730806
0.0128853
0.153394
0.114239
0.00411858
0.135692
0.157886
0.241246
0.159018
0.108279
0.104984
0.185081
0.118627
0.155928
0.162165
0.160119
0.13003
0.140262
0.237247
0.155407
0.198742
0.0698897
0.0578015
0.153374
0.059877
0.0209928
0.158011
0.157626
0.116875
0.0785961
0.0902897
0.223982
0.156951
0.0465015
0.00528086
0.14118
0.0260718
0.111107
0.151815
0.187555
0.140477
0.0236917
0.228073
0.0138832
0.222175
0.123342
0.210998
0.144876
0.0412642
0.153477
0.13856
0.0877091
0.105435
0.154023
0.154357
0.229135
0.189141
0.200306
0.23376
0.194223
0.18728
0.187604
0.204621
0.150687
0.150113
0.11838
0.0588327
0.0677064
0.0164752
0.212202
0.11899
0.147818
0.145735
0.147046
0.0414305
0.143838
0.201568
0.00474623
0.143906
0.148132
0.169441
0.252063
0.202598
0.201391
0.144512
0.0115881
0.211659
0.146664
0.176953
0.153779
0.180725
0.191349
0.135066
0.208973
0.14957
0.188922
0.153792
0.0185634
0.202918
0.20933
0.12132
0.247675
0.0678984
0.0782676
0.0682085
0.133574
0.197567
0.0549377
0.176527
0.0563254
0.150098
0.15006
0.129287
0.155796
0.141321
0.220364
0.182038
0.139645
0.186934
0.146321
0.253077
0.207119
0.145832
0.141956
0.181801
0.216843
0.143507
0.0243338
0.176085
0.22013
0.140566
0.128211
0.144796
0.147405
0.148656
0.149433
0.00348373
0.0681617
0.150538
0.246949
0.149005
0.12229
0.194829
0.119963
0.104128
0.221423
0.247151
0.203475
0.203592
0.205113
0.0324559
0.139951
0.167633
0.245646
0.234131
0.247707
0.251337
0.233893
0.124284
0.121241
0.246101
0.0535782
0.125472
0.186367
0.122347
0.203063
0.191449
0.245866
0.227701
0.202737
0.0675985
0.12445
0.137915
0.132374
0.138966
0.205424
0.187459
0.138524
0.134264
0.13634
0.0145329
0.217146
0.0384205
0.139483
0.164803
0.144834
0.140943
0.136
0.0387614
0.142298
0.12545
0.141592
0.140688
0.209658
0.128375
0.0731286
0.0439476
0.196659
0.100669
0.0998233
0.192113
0.0834643
0.0465522
0.0400951
0.0299686
0.189296
0.0628304
0.127787
0.159063
0.029827
0.214318
0.215007
0.0891889
0.0864991
0.231568
0.132089
0.0141403
0.154001
0.0301622
0.185075
0.0288185
0.0449207
0.0179565
0.00921535
0.0748588
0.210656
0.0431922
0.0228184
0.0238322
0.138742
0.0275791
0.136651
0.215961
0.140083
0.137689
0.188783
0.0424406
0.142894
0.141625
0.0111282
0.0682248
0.211439
0.142838
0.143301
0.190624
0.216238
0.206017
0.215341
0.0511911
0.238033
0.246061
0.142974
0.143706
0.0119259
0.222759
0.244967
0.141203
0.107091
0.140566
0.0162238
0.206621
0.00616552
0.0424591
0.132663
0.170783
0.134326
0.109332
0.212579
0.100302
0.202304
0.132947
0.134079
0.0658253
0.126472
0.114677
0.241296
0.212803
0.182968
0.133065
0.217245
0.0734428
0.0419113
0.0606489
0.0124749
0.133199
0.214608
0.13284
0.0126493
0.0105708
0.209306
0.135201
0.0636867
0.223492
0.135233
0.135597
0.209505
0.0185157
0.208051
0.136069
0.138602
0.139895
0.146501
0.139735
0.204402
0.201276
0.139986
0.230453
0.149357
0.201061
0.170324
0.137852
0.215594
0.135104
0.108265
0.23256
0.152482
0.137248
0.0109634
0.140498
0.139211
0.104789
0.134115
0.185619
0.0532938
0.213028
0.127934
0.194467
0.204195
0.137485
0.149981
0.00968943
0.063885
0.0515965
0.135816
0.213448
0.0177708
0.13327
0.232722
0.0509166
0.192845
0.0479995
0.134164
0.163785
0.132294
0.00120519
0.175812
0.213324
0.104908
0.0329171
0.0519001
0.101346
0.102997
0.109992
0.211329
0.0101448
0.0335156
0.115183
0.116403
0.200392
0.185797
0.117044
0.121982
0.111656
0.170346
0.234021
0.219013
0.14878
0.02748
0.198075
0.196992
0.0890058
0.045862
0.18122
0.0842898
0.115011
0.188881
0.148967
0.152525
0.130099
0.111317
0.121059
0.120799
0.119305
0.192269
0.123373
0.166263
0.230112
0.213124
0.186814
0.206251
0.112393
0.0820367
0.212111
0.124199
0.189556
0.147167
0.194894
0.239515
0.116725
0.00643401
0.125561
0.127295
0.133507
0.21059
0.124829
0.131324
0.151677
0.133407
0.151423
0.127316
0.00177753
0.150286
0.131089
0.130612
0.00473058
0.187717
0.235677
0.149915
0.156796
0.118478
0.132954
0.131471
0.053663
0.233669
0.133164
0.132767
0.134789
0.0323939
0.211056
0.143057
0.119631
0.149998
0.0779534
0.101771
0.199772
0.123491
0.120038
0.0970795
0.120552
0.130576
0.0814213
0.123608
0.211098
0.13998
0.0709328
0.210088
0.211017
0.107744
0.1087
0.0914789
0.123589
0.0541371
0.126849
0.0596347
0.25509
0.196307
0.162722
0.077846
0.0194437
0.219085
0.0174664
0.0202258
0.122931
0.00204923
0.123443
0.0283667
0.163848
0.0861564
0.122184
0.183673
0.164854
0.123287
0.0245827
0.0200136
0.16035
0.121188
0.0358333
0.124063
0.122671
0.139999
0.128944
0.23868
0.18952
0.219032
0.161943
0.185115
0.122958
0.189047
0.163233
0.123485
0.220567
0.242361
0.184146
0.179728
0.123551
0.204757
0.120635
0.219959
0.15883
0.187239
0.0180447
0.0378683
0.177659
0.00957543
0.212727
0.254725
0.222117
0.0113188
0.052204
0.0174232
0.209409
0.217976
0.00578297
0.164888
0.116814
0.204505
0.168894
0.116244
0.124306
0.0289322
0.180768
0.184185
0.050744
0.238611
0.218819
0.132625
0.118154
0.249704
0.117458
0.243586
0.182609
0.180697
0.11847
0.227201
0.105057
0.22527
0.210415
0.229684
0.00639089
0.121572
0.236732
0.0636591
0.245381
0.12187
0.231099
0.0917101
0.091005
0.0968022
0.239572
0.19692
0.228739
0.195853
0.103295
0.236522
0.2369
0.0922739
0.2381
0.107293
0.189758
0.101512
0.196802
0.131077
0.0886107
0.124452
0.0857056
0.125257
0.0190914
0.1087
0.0994201
0.220137
0.0965466
0.183551
0.138346
0.163908
0.106545
0.0359946
0.0793657
0.184833
0.101588
0.219813
0.0684839
0.110903
0.226184
0.188179
0.112974
0.204437
0.111303
0.101135
0.0989257
0.129483
0.106252
0.00196726
0.0360475
0.0395427
0.101723
0.102385
0.186891
0.0454189
0.0262597
0.0968495
0.064505
0.218377
0.198807
0.0320266
0.11361
0.166413
0.107566
0.115034
0.0924284
0.112568
0.198355
0.112108
0.156234
0.000645877
0.215354
0.153629
0.247035
0.115656
0.112259
0.0203524
0.22044
0.0859396
0.116373
0.189563
0.120158
0.117364
0.110133
0.108227
0.0297295
0.119933
0.115023
0.115645
0.110572
0.129165
0.112596
0.215684
0.0933004
0.117641
0.21744
0.246718
0.160573
0.0966916
0.178761
0.115322
0.105222
0.100275
0.0540126
0.0938193
0.0857496
0.234647
0.0949477
0.129692
0.127424
0.0318396
0.0940377
0.215165
0.107274
0.110162
0.15232
0.143961
0.104929
0.166866
0.129818
0.108463
0.10605
0.120391
0.106372
0.213844
0.205962
0.0964364
0.0932856
0.102777
0.041818
0.108835
0.129517
0.186251
0.105848
0.109809
0.100319
0.111715
0.216224
0.0927295
0.209437
0.109662
0.105922
0.0977446
0.106296
0.0826314
0.102907
0.0843487
0.0737427
0.105096
0.231971
0.119492
0.230003
0.153171
0.0708401
0.0228302
0.0912612
0.215203
0.107145
0.105839
0.0778598
0.107684
0.0775738
0.217062
0.215615
0.0812768
0.0819562
0.0854123
0.0859966
0.173055
0.136346
0.0835777
0.0841515
0.0633942
0.104163
0.0855542
0.0859662
0.0494285
0.0479486
0.00228131
0.0862359
0.175004
0.0297044
0.136422
0.0892558
0.0920947
0.0960543
0.122866
0.21302
0.109056
0.0788447
0.0114034
0.0185269
0.138236
0.0905486
0.0857882
0.118173
0.0309777
0.0203369
0.0916995
0.214628
0.101795
0.103565
0.0484113
0.0961412
0.240396
0.0984801
0.0966462
0.135586
0.0988411
0.102132
0.214517
0.102811
0.116029
0.0183204
0.00396579
0.168387
0.0360283
0.0208556
0.105971
0.0874822
0.215012
0.104054
0.222518
0.223139
0.101163
0.21399
0.00707597
0.0977545
0.103987
0.033723
0.105079
0.222787
0.247165
0.0485294
0.21904
0.103554
0.185445
0.203628
0.104144
0.1086
0.221456
0.101906
0.238991
0.103541
0.125792
0.112664
0.239793
0.219116
0.127211
0.106314
0.103234
0.193092
0.125514
0.192634
0.219213
0.216039
0.106527
0.011903
0.107068
0.0996041
0.19167
0.0811643
0.192313
0.0411747
0.203068
0.000270846
0.215823
0.126167
0.0899691
0.099021
0.218032
0.0965976
0.215559
0.209186
0.217639
0.013191
0.00348735
0.194165
0.00364845
0.0964262
0.124213
0.167437
0.094279
0.20949
0.143158
0.213361
0.0920263
0.211765
0.175855
0.191224
0.248232
0.130226
0.233861
0.0916401
0.00990993
0.143149
0.00967152
0.245573
0.0450711
0.138615
0.191466
0.100811
0.0960965
0.0136253
0.0331328
0.0981166
0.19662
0.217739
0.0066923
0.223195
0.126345
0.238482
0.057671
0.198946
0.0979864
0.176581
0.219404
0.174078
0.163415
0.184243
0.200428
0.213419
0.161349
0.0421446
0.188172
0.0993657
0.0997449
0.0992598
0.0596511
0.233065
0.234071
0.189723
0.108944
0.209452
0.215869
0.108535
0.100344
0.0991512
0.0959504
0.233142
0.0477893
0.0937485
0.148169
0.0963219
0.187748
0.173918
0.115595
0.0568
0.0973603
0.0954492
0.135353
0.244153
0.156455
0.0955272
0.21086
0.0678521
0.0517709
0.22924
0.00470415
0.0675422
0.0136792
0.0677016
0.067973
0.211928
0.0942562
0.175293
0.210577
0.11776
0.100347
0.218887
0.0715171
0.21614
0.0903521
0.0929993
0.0933119
0.191494
0.161529
0.215749
0.19559
0.20743
0.0800803
0.138926
0.219601
0.20506
0.100357
0.204309
0.0695883
0.188295
0.0456683
0.190269
0.0960541
0.171131
0.0851471
0.12984
0.204566
0.0676997
0.205236
0.0520157
0.1038
0.0830845
0.0299541
0.0876699
0.082055
0.115746
0.215861
0.0857288
0.0396569
0.0174833
0.192224
0.0194442
0.206741
0.00418814
0.0900152
0.0485968
0.0888242
0.20496
0.208531
0.0452761
0.232156
0.0317828
0.00222105
0.190857
0.172593
0.0876264
0.205206
0.0661563
0.0188862
0.112973
0.00250142
0.14345
0.183092
0.133443
0.0897137
0.242592
0.0911367
0.146796
0.190817
0.120426
0.20751
0.0875971
0.131457
0.0868004
0.135959
0.231673
0.0932032
0.0803187
0.136422
0.0875614
0.152033
0.0860242
0.0564458
0.0860669
0.231503
0.0858251
0.0824926
0.0851675
0.225514
0.108564
0.217163
0.235104
0.233468
0.167049
0.0466536
0.0624306
0.174581
0.205719
0.0217142
0.0601483
0.0851917
0.0837159
0.207024
0.245727
0.00297461
0.0309726
0.0768056
0.217064
0.0315102
0.121964
0.207047
0.0828336
0.0816495
0.082227
0.0799272
0.0825708
0.167806
0.102134
0.203579
0.0219811
0.0856904
0.0826136
0.227237
0.130077
0.223403
0.236804
0.0451686
0.0832701
0.0622949
0.225579
0.228007
0.222879
0.222184
0.115312
0.0615044
0.217948
0.0452967
0.0830667
0.199851
0.0927321
0.0821556
0.0653701
0.0808129
0.198349
0.197277
0.0831447
0.146595
0.0931251
0.0924911
0.243077
0.023915
0.0512184
0.0829078
0.0836865
0.00741061
0.0837063
0.0636955
0.088763
0.194086
0.0839395
0.0159202
0.0902421
0.00745407
0.227901
0.220968
0.116498
0.0861412
0.0887727
0.101951
0.0759184
0.0689395
0.104018
0.0729217
0.0717197
0.0627277
0.0732506
0.229241
0.204454
0.122401
0.19139
0.0772969
0.197572
0.0611886
0.190868
0.158682
0.18325
0.0743781
0.138882
0.0172918
0.197897
0.213299
0.0853095
0.25075
0.0768489
0.0787821
0.132144
0.0203442
0.102593
0.0795203
0.196757
0.0603229
0.0851588
0.0824313
0.0573514
0.163445
0.0575043
0.0566259
0.0579046
0.0587107
0.0575848
0.193267
0.193752
0.19977
0.190426
0.0368861
0.0581158
0.224249
0.0637731
0.0354225
0.0631366
0.062723
0.0378467
0.063511
0.0622468
0.0628711
0.0800237
0.0766179
0.140956
0.0877446
0.0989413
0.12791
0.110492
0.101496
0.0378476
0.0804704
0.0797522
0.0602555
0.0650846
0.0777286
0.15411
0.0159515
0.182339
0.242734
0.143184
0.232736
0.0789256
0.0174968
0.0191759
0.0187985
0.106532
0.0201502
0.0755792
0.0777343
0.218161
0.250313
0.132707
0.0703991
0.221565
0.120102
0.1479
0.0771625
0.15024
0.0773548
0.15484
0.0647437
0.034561
0.0419105
0.0732635
0.00145295
0.0792803
0.219924
0.0585538
0.180193
0.0235135
0.0709258
0.0730908
0.205742
0.0995441
0.155081
0.111629
0.15399
0.0722712
0.0139858
0.222423
0.0868195
0.143634
0.21897
0.219072
0.0740619
0.0628459
0.0748294
0.113835
0.0744169
0.151039
0.205346
0.116801
0.0755441
0.0761886
0.120883
0.137999
0.170076
0.0753728
0.0772126
0.0776529
0.219953
0.0762939
0.0776844
0.02793
0.0681489
0.0360222
0.0135987
0.0354751
0.0220175
0.0668477
0.0685053
0.011154
0.0542024
0.0107562
0.217605
0.0698792
0.0395349
0.217792
0.167202
0.104539
0.0604572
0.0730205
0.0111428
0.0713799
0.160188
0.112601
0.0697979
0.223333
0.0344089
0.00319886
0.0706148
0.257839
0.110797
0.145634
0.0125525
0.0709983
0.0703622
0.170094
0.0127119
0.109788
0.141062
0.0652939
0.0704794
0.0727325
0.24999
0.229792
0.223657
0.106485
0.0359489
0.0139209
0.0125666
0.224969
0.0126826
0.0446558
0.0738518
0.246193
0.0866585
0.0752251
0.202659
0.224719
0.160553
0.152342
0.0742774
0.072353
0.217838
0.186593
0.197876
0.0216733
0.183009
0.0482209
0.100732
0.0396282
0.0717542
0.114009
0.229666
0.114732
0.112874
0.237499
0.0675082
0.219426
0.0507544
0.150179
0.176264
0.229421
0.114713
0.222938
0.0636842
0.053254
0.0318527
0.0676729
0.222836
0.0513402
0.0463343
0.137968
0.0526988
0.0528933
0.0568918
0.0182207
0.104657
0.0691137
0.0816543
0.0479989
0.0626313
0.0554283
0.0380157
0.225044
0.156244
0.05114
0.0709499
0.254965
0.133273
0.0678564
0.14326
0.0683917
0.127434
0.0664614
0.223362
0.0496681
0.251832
0.0433468
0.0383182
0.139206
0.0522191
0.152156
0.13323
0.160812
0.0211081
-0.000986622
0.0291378
0.0241746
0.0432244
0.0155486
0.0477991
0.0444
0.0437938
0.23588
0.0293142
0.22544
0.22573
0.0342127
0.214749
0.0715827
0.220424
0.204728
0.0496838
0.216817
0.0498738
0.00154311
0.160393
0.102927
0.209251
0.203991
0.112736
0.0172447
0.0311879
0.162336
0.176831
0.0512361
0.0496383
0.0667996
0.180084
0.196154
0.14508
0.0179799
0.01297
0.0659674
0.165349
0.181901
0.19908
0.236257
0.0680208
0.209708
0.192068
0.143943
0.252715
0.102813
0.132339
0.167777
0.0640215
0.227625
0.0109084
0.0991364
0.191817
0.173281
0.203307
0.226421
0.0203084
0.0989369
0.066315
0.11817
0.0671362
0.109439
0.121346
0.117319
0.0849196
0.0669187
0.0659912
0.0637808
0.0865738
0.234808
0.0934009
0.0839021
0.089858
0.221675
0.194742
0.0192623
0.227199
0.0664585
0.0637118
0.13324
0.0561525
0.0568285
0.0784018
0.019708
0.0551314
0.0597857
0.0137178
0.052531
0.0514913
0.0565459
0.0744557
0.0620718
0.0625673
0.225457
0.0415612
0.0504255
0.0369568
0.0682926
0.0366113
0.0345025
0.0645882
0.0151356
0.0163233
0.0921224
0.0378039
0.033453
0.22661
0.0651635
0.0502054
0.0461802
0.0174621
0.0412889
0.0645223
0.066735
0.0591393
0.103821
0.142185
0.164047
0.122819
0.0164779
0.0589404
0.0574022
0.0591319
0.187326
0.0904586
0.0660069
0.241983
0.058003
0.0896985
0.0574534
0.0598648
0.157415
0.163321
0.0574607
0.096017
0.205499
0.204395
0.0905705
0.0581567
0.224591
0.0581225
0.124962
0.0588112
0.246755
0.0591225
0.185035
0.0577805
0.157241
0.190568
0.219891
0.199892
0.0563382
0.193368
0.140412
0.156891
0.0582869
0.0240307
0.102105
0.142868
0.0580522
0.0576593
0.0584765
0.102054
0.0521234
0.237001
0.171337
0.0221549
0.225207
0.0548065
0.218848
0.022392
0.0504984
0.0535885
0.186798
0.0579916
0.161164
0.235001
0.050983
0.0544695
0.0880345
0.230775
0.186843
0.185887
0.0557527
0.196104
0.167693
0.0539528
0.0905054
0.0764933
0.0530295
0.0532613
0.16079
0.198637
0.0588062
0.0927855
0.0751697
0.222887
0.218016
0.222284
0.0580964
0.224169
0.0393418
0.176415
0.203377
0.117009
0.158471
0.0576883
0.228835
0.0280236
0.0316597
0.0338876
0.097406
0.03379
0.104327
0.102383
0.0910852
0.113262
0.182098
0.0929985
0.137881
0.00779317
0.0391795
0.0791105
0.131756
0.0553428
0.147229
0.206615
0.106931
0.178028
0.171718
0.0102404
0.0338908
0.155726
0.0397444
0.000326966
0.227224
0.188227
0.217809
0.0320941
0.227073
0.0870283
0.215818
0.0831758
0.21904
0.0823081
0.223896
0.0368168
0.196656
0.0533438
0.167506
0.0841831
0.172649
0.086849
0.261086
0.053728
0.0725907
0.182827
0.167857
0.0519614
0.113136
0.168006
0.0537427
0.150869
0.0216776
0.150423
0.0493241
0.0479029
0.0733748
0.22696
0.0539565
0.0345508
0.0530367
0.0548566
0.0984431
0.189521
0.0614482
0.0552422
0.0980041
0.0980687
0.00427707
0.220865
0.0532501
0.0704153
0.127222
0.174268
0.00167318
0.0547915
0.225462
0.0456159
0.0441393
0.138888
0.0261653
0.0389016
0.203665
0.0551796
0.22288
0.102244
0.0349946
0.0432093
0.114859
0.040679
0.0531202
0.0784871
0.0503645
0.0516972
0.0512978
0.0212739
0.134032
0.0495412
0.0699105
0.0472757
0.0638901
0.0711027
0.0490549
0.0459422
0.220335
0.0500782
0.0435012
0.0460109
0.225054
0.0538984
0.0450591
0.062414
0.16645
0.067159
0.0490299
0.0547106
0.0478048
0.00273487
0.223202
0.0678574
0.0478761
0.0353985
0.230286
0.0903681
0.024338
0.0465577
0.0097938
0.0983758
0.221989
0.0454333
0.220607
0.0423602
0.0279483
0.224672
0.221437
0.229354
0.0341293
0.225994
0.013412
0.0164262
0.046653
0.0245345
0.0209795
0.0573071
0.168647
0.225535
0.21641
0.233549
0.214433
0.132947
0.096658
0.0357637
0.0437185
0.0513015
0.126238
0.141663
0.0871161
0.188482
0.0668716
0.0478753
0.152991
0.0602961
0.215224
0.214729
0.0268389
0.216442
0.142477
0.196087
0.23015
0.0448403
0.178913
0.144535
0.153305
0.143907
0.0451868
0.110254
0.217485
0.232008
0.0542864
0.212416
0.230114
0.221504
0.184097
0.0379818
0.233396
0.0404177
0.206336
0.207022
0.0401748
0.0446687
0.0359181
0.127568
0.226722
0.0928343
0.143244
0.036506
0.158792
0.227094
0.0478718
0.185639
0.0462079
0.189576
0.214889
0.233362
0.214113
0.0778208
0.0858828
0.101777
0.179725
0.0480285
0.201192
0.201425
0.0463845
0.191018
0.110354
0.0465766
0.14321
0.194179
0.0451091
0.21776
0.0379593
0.19834
0.237206
0.0423196
0.120919
0.0430351
0.146963
0.0452037
0.0215707
0.227153
0.149156
0.0732068
0.0990535
0.126215
0.119512
0.0181884
0.113694
0.111711
0.216492
0.152596
0.240386
0.206841
0.0605471
0.221219
0.0228584
0.0237762
0.160869
0.13706
0.191182
0.190502
0.0251985
0.0215314
0.109836
0.224081
0.181266
0.20657
0.237801
0.0245011
0.183508
0.150271
0.184011
0.189772
0.14048
0.228151
0.193705
0.197223
0.0559366
0.0600712
0.236557
0.0245967
0.0218351
0.0412768
0.209267
0.224554
0.227662
0.0401089
0.0379541
0.166704
0.03943
0.0405682
0.171674
0.232344
0.189545
0.0628881
0.215977
0.109909
0.186928
0.188805
0.233579
0.0384681
0.137954
0.138729
0.0406045
0.0388871
0.0369413
0.0392111
0.147186
0.0406979
0.232811
0.184493
0.170087
0.0405861
0.0358833
0.0799521
0.178864
0.234126
0.107234
0.0963952
0.231778
0.0175737
0.031395
0.0637058
0.099642
0.0308873
0.0398131
0.0413113
0.0770255
0.0414954
0.231728
0.232808
0.0848665
0.231808
0.135499
0.0764316
0.0371295
0.0608842
0.0571992
0.0681093
0.039755