/*--------------------------------*- C++ -*----------------------------------*\
| =========                 |                                                 |
| \\      /  F ield         | OpenFOAM: The Open Source CFD Toolbox           |
|  \\    /   O peration     | Version:  2406                                  |
|   \\  /    A nd           | Website:  www.openfoam.com                      |
|    \\/     M anipulation  |                                                 |
\*---------------------------------------------------------------------------*/
FoamFile
{
    version     2.0;
    format      ascii;
    arch        "LSB;label=32;scalar=64";
    class       surfaceScalarField;
    location    "58";
    object      phi;
}
// * * * * * * * * * * * * * * * * * * * * * * * * * * * * * * * * * * * * * //

dimensions      [0 3 -1 0 0 0 0];

oriented        oriented;

internalField   nonuniform List<scalar> 
113358
(
-1.464e-05
3.03067e-05
-2.12875e-05
5.62137e-06
2.15698e-05
2.77055e-07
-5.78653e-06
-1.60613e-05
-2.53189e-05
1.90185e-05
-2.94378e-06
9.24451e-06
-2.37406e-05
-6.16326e-06
2.32831e-05
6.62063e-06
-1.7289e-05
9.19682e-07
3.01326e-05
-1.37633e-05
1.36156e-05
-1.41962e-05
-7.96039e-06
8.54096e-06
-7.18154e-06
3.3686e-05
-2.46294e-05
-1.87477e-06
-7.14924e-07
-3.08416e-05
1.68413e-05
1.47146e-05
8.13469e-06
5.86769e-07
1.78619e-05
-2.65837e-05
6.98503e-06
3.54532e-06
-1.02421e-05
-2.89524e-07
-6.08172e-06
2.30979e-05
-2.18114e-05
4.79522e-06
-1.46659e-05
1.17459e-07
-3.50695e-07
1.48992e-05
-4.42187e-05
3.42253e-06
1.17661e-05
2.90298e-05
1.18758e-06
-2.52696e-06
1.33933e-06
1.89402e-06
-1.37983e-06
1.86593e-05
-1.91724e-05
9.97922e-07
3.22806e-07
1.13334e-05
-1.26547e-05
9.78461e-06
3.59255e-05
-2.93409e-05
-1.63693e-05
-1.95091e-05
1.07867e-05
6.70926e-06
2.01304e-06
1.50645e-05
-3.79596e-05
3.17618e-05
-8.86699e-06
2.63426e-05
3.09382e-06
2.80818e-05
-5.7518e-05
1.89009e-05
3.70678e-07
-4.83014e-07
-1.87886e-05
-1.16107e-05
4.65479e-05
4.35635e-06
-3.92947e-05
-9.21813e-07
-4.52709e-05
4.95076e-05
-3.31495e-06
-8.85239e-07
4.19476e-06
3.13899e-07
-3.62303e-06
-4.79598e-05
2.09518e-05
-4.14372e-06
3.11538e-05
-2.13664e-05
4.9996e-06
1.75988e-05
-1.23163e-06
-9.13316e-06
8.84499e-06
-1.80209e-07
4.68708e-07
-1.88311e-06
-7.44774e-06
5.3291e-06
4.00173e-06
1.8871e-05
-4.0714e-07
4.36999e-07
-2.13479e-06
2.12689e-06
7.85784e-09
-5.44192e-06
-2.58634e-05
2.74666e-05
3.83863e-06
5.07115e-06
-2.58902e-07
-8.07969e-06
3.26738e-06
2.02112e-05
-1.06878e-06
1.18724e-06
-2.03297e-05
-2.73469e-05
1.26057e-05
-2.94492e-06
1.76857e-05
1.75038e-05
2.57543e-06
-1.98269e-05
-2.52364e-07
-3.40867e-05
8.66382e-06
-1.19273e-05
3.73492e-05
-3.60592e-08
-2.07151e-06
2.108e-06
9.34965e-06
1.07758e-05
1.75659e-06
-2.18821e-05
7.31533e-06
-3.69828e-05
3.03721e-05
-7.04898e-07
-3.5059e-06
4.38738e-06
3.71205e-05
-3.80042e-05
-1.8512e-05
1.57155e-05
-1.95109e-05
2.23071e-05
9.52544e-08
-2.41084e-05
-3.10183e-05
5.50316e-05
-1.32747e-06
4.33934e-05
-1.23826e-05
-2.96837e-05
5.1138e-06
-1.79799e-05
-7.17284e-06
-6.38049e-06
3.24367e-05
-3.10899e-07
-2.57457e-05
-2.19493e-06
1.52221e-05
-1.01656e-05
-2.86233e-06
-3.04402e-05
-1.21291e-05
4.12415e-05
-1.17391e-05
3.58269e-05
1.58625e-06
-2.56741e-05
-3.41005e-05
4.25337e-06
-5.51947e-06
3.53666e-05
3.55909e-05
1.5876e-05
-4.71028e-05
-4.36408e-06
2.32257e-05
-1.61794e-05
1.55229e-06
-8.59859e-06
-1.00559e-05
2.90112e-06
1.0198e-05
-3.04276e-06
2.87659e-05
-7.67462e-06
1.62822e-05
-3.73741e-05
-1.01763e-05
-3.73226e-05
4.05826e-05
6.91677e-06
-2.05853e-06
7.54032e-06
-8.76133e-06
3.27942e-06
2.79665e-05
-1.20343e-05
2.01363e-05
-3.60686e-05
-2.1392e-05
4.9748e-06
3.74312e-05
-2.10141e-05
1.12527e-05
-5.49267e-06
4.33098e-06
-1.0091e-05
3.94514e-05
-1.02729e-05
-3.03808e-05
1.20076e-06
-1.30253e-05
-1.47854e-05
8.15925e-06
1.96514e-05
-3.08051e-05
-5.06205e-06
1.4521e-05
2.13453e-05
-2.73694e-06
3.13689e-06
-4.00095e-07
3.61355e-05
-6.2016e-06
-3.57052e-05
5.77151e-06
-1.59895e-05
-4.33026e-05
1.73193e-05
4.19726e-05
-3.99984e-06
4.30433e-06
-3.36519e-05
3.3347e-05
1.59114e-06
2.17318e-05
3.10622e-06
-2.64293e-05
3.36118e-06
-2.78437e-06
-5.77001e-07
-2.33762e-08
6.89232e-08
1.12225e-05
-1.12673e-05
6.2422e-06
-3.01979e-05
3.26584e-05
-8.70267e-06
9.69394e-06
-2.42528e-05
2.34687e-05
-8.9101e-06
7.0769e-06
-7.30125e-06
2.23871e-07
-1.97384e-05
-6.43404e-06
3.43057e-05
-8.13319e-06
-2.3619e-07
3.93162e-06
-3.69569e-06
7.55069e-06
-2.93432e-05
8.79613e-06
1.29961e-05
4.91225e-05
-3.57526e-06
-3.2882e-06
-4.22581e-05
-2.73058e-05
-3.32164e-05
3.59199e-05
2.46019e-05
3.94897e-06
-3.74791e-05
6.22419e-06
3.6671e-05
-2.9545e-05
-8.61615e-07
-6.26475e-06
1.04796e-07
1.6599e-07
-1.47226e-05
1.44519e-05
6.41792e-06
8.47979e-06
1.29687e-05
-2.78664e-05
7.53189e-06
-3.95376e-06
3.05318e-06
-6.63149e-06
-1.61232e-05
-1.12106e-05
2.73372e-05
-3.49297e-09
-2.11498e-05
2.60974e-05
-1.88842e-05
1.39366e-05
-2.93365e-06
1.80652e-09
2.93175e-06
-3.0855e-05
3.44787e-05
-3.53721e-05
2.72367e-05
-2.76146e-06
-9.16331e-07
-6.05964e-07
4.28368e-06
6.42286e-05
-6.18318e-05
1.87291e-06
-4.26955e-06
-1.14438e-05
3.558e-06
1.101e-05
-3.12368e-06
-4.64361e-06
2.57609e-05
-2.82899e-05
7.17263e-06
-1.79909e-05
-2.12971e-05
3.14756e-05
7.81232e-06
9.11e-06
-1.30701e-05
1.85044e-05
-1.45435e-05
7.79815e-06
2.59681e-05
-5.31567e-05
1.93917e-05
-3.37199e-05
1.20909e-05
1.46537e-05
6.97501e-06
9.5556e-07
-3.0901e-05
2.51722e-05
4.7733e-06
-2.70993e-05
2.50438e-06
9.68302e-06
1.49119e-05
2.33996e-05
-2.03048e-05
6.9734e-06
-1.00681e-05
1.25789e-06
1.15094e-05
-1.25791e-05
-1.87945e-07
1.71258e-05
-2.43023e-06
-2.5163e-06
-1.21793e-05
1.59893e-05
1.83784e-05
-1.60493e-05
-1.83171e-05
2.31697e-06
-7.26033e-07
4.13591e-06
-5.72682e-06
4.46237e-06
-2.6908e-07
-4.1929e-06
3.26971e-08
3.70214e-06
-3.73499e-06
-4.71039e-07
2.92272e-06
-1.25595e-05
1.01072e-05
-2.03408e-05
4.10737e-05
4.4012e-07
-2.11719e-05
4.81271e-06
-2.22449e-05
1.72064e-05
2.25146e-07
-2.92487e-06
-3.86526e-06
1.09433e-06
5.69554e-06
-5.62689e-06
-1.37063e-05
3.63803e-06
1.56956e-05
-2.99513e-06
1.92157e-05
8.32026e-06
-2.4541e-05
3.99045e-06
3.56114e-06
-1.7254e-05
9.70307e-06
-2.71656e-06
2.83816e-05
-3.22818e-05
6.61673e-06
-7.12622e-06
7.30686e-06
-1.80856e-07
1.75477e-05
-2.17568e-05
3.47502e-06
7.34264e-07
1.84039e-05
1.08541e-05
-3.24485e-05
3.19047e-06
-2.66732e-05
-1.51719e-05
7.49512e-06
3.43499e-05
-2.11409e-06
-2.05172e-05
8.77063e-07
2.1754e-05
1.23651e-05
-1.28285e-05
1.00148e-07
3.6423e-07
1.60802e-05
-2.81863e-05
-5.37084e-06
1.74769e-05
-3.31954e-06
2.60529e-07
3.05874e-06
-4.4434e-06
-1.32339e-06
2.95289e-05
-2.37621e-05
-1.57714e-05
9.9886e-06
5.05184e-05
-4.47337e-05
-1.10502e-05
2.26299e-05
-3.29488e-05
2.13687e-05
1.63404e-06
-2.55656e-05
2.04285e-05
3.50286e-06
-4.02865e-06
-9.45315e-06
3.35669e-05
-2.00846e-05
2.31873e-05
-9.81843e-06
-1.02987e-05
-3.07023e-06
-2.83884e-06
-1.22374e-05
1.81149e-05
-3.03848e-06
5.79955e-06
-2.83397e-06
-2.96597e-06
-1.1025e-06
-2.49997e-05
-6.61043e-06
3.27127e-05
-1.47486e-05
2.06302e-05
5.86995e-06
-1.17516e-05
5.99259e-06
-1.48106e-05
2.5203e-05
-1.63855e-05
-4.92749e-05
1.18367e-05
-8.5986e-07
3.82965e-05
-2.52345e-06
-4.17486e-05
3.78518e-05
6.41987e-06
5.37677e-08
-3.77259e-06
3.71943e-06
2.07997e-05
-3.24047e-05
6.46098e-07
1.09585e-05
3.48937e-05
4.00515e-06
-3.76421e-05
-1.25739e-06
1.06355e-05
1.20946e-06
-2.52893e-05
1.34444e-05
-9.41907e-06
1.29914e-05
1.48316e-05
-2.59343e-05
-2.16583e-05
1.29679e-05
3.46252e-05
5.4858e-06
2.92334e-06
-3.94565e-06
6.79673e-06
-5.02028e-06
-2.58157e-05
2.40398e-05
4.32283e-06
1.3733e-05
-6.15362e-06
-1.19027e-05
-8.05366e-06
1.75902e-05
3.56357e-05
-4.51717e-05
1.71849e-07
2.31564e-06
-2.48719e-06
-2.21111e-05
3.50137e-06
1.37032e-05
4.90691e-06
3.54546e-05
-1.9232e-05
-2.40856e-05
7.86264e-06
3.27932e-05
-7.95021e-06
-3.70748e-06
-2.11357e-05
-2.86568e-05
-1.16002e-06
-7.54642e-07
3.05712e-05
2.55832e-05
1.14494e-05
-3.50196e-05
-2.01293e-06
6.92833e-06
4.83012e-06
-1.17585e-05
1.77803e-06
-2.48204e-05
-1.54131e-07
2.31963e-05
3.8995e-05
-3.00044e-05
-2.89013e-06
-6.09992e-06
4.25577e-06
-6.09735e-07
-3.40184e-06
-2.45098e-07
-3.30076e-05
4.7023e-05
2.00551e-05
-3.40705e-05
1.81062e-05
-2.96267e-05
-2.95124e-06
1.44719e-05
-2.34377e-05
2.55309e-05
-8.75845e-07
-1.21726e-06
-2.89535e-06
1.43003e-06
1.46485e-06
3.42343e-05
-3.80552e-06
9.78842e-06
-4.02164e-05
-2.57416e-05
3.50648e-05
-3.27602e-05
6.25766e-08
2.30345e-06
1.84955e-05
-2.08613e-05
2.55585e-06
-2.47266e-06
-8.35418e-08
-1.08827e-05
-6.11817e-06
1.02717e-06
1.59737e-05
-8.33432e-06
2.07579e-05
-1.58157e-05
3.39162e-06
1.5206e-06
-4.62295e-06
2.89453e-06
2.07633e-07
-1.81939e-06
-1.6981e-06
3.51726e-06
-2.19674e-05
2.20229e-05
2.2073e-05
-2.21286e-05
5.40372e-05
-1.34252e-05
-1.1897e-05
-2.87149e-05
1.27526e-05
4.88117e-07
-4.01659e-07
-1.28391e-05
3.75316e-05
-4.56606e-05
6.35241e-06
1.7767e-06
3.00574e-06
-4.9023e-08
-2.95644e-06
-6.01497e-06
2.89251e-05
-2.77407e-05
4.8304e-06
-1.37684e-05
1.43772e-05
-1.56858e-06
9.59497e-07
-1.0173e-05
8.88926e-06
6.03189e-07
6.80482e-07
2.40644e-06
-1.92615e-05
7.06062e-06
9.79453e-06
-1.13795e-05
-1.06947e-05
2.61043e-05
-4.02983e-06
-1.43855e-05
1.41039e-05
2.49866e-07
3.19669e-08
-3.01867e-05
-3.60654e-05
3.58117e-05
-1.16343e-05
3.74859e-05
1.20075e-05
-3.78591e-05
6.00585e-06
3.0348e-05
7.08147e-06
-4.34355e-05
-1.31496e-05
5.92671e-06
1.764e-05
-1.0416e-05
-2.18147e-08
7.34757e-08
1.03093e-05
-1.0361e-05
1.2725e-06
3.85424e-05
-5.6906e-06
-3.41235e-05
-3.80377e-06
-2.44052e-06
4.07666e-06
2.16787e-06
4.10808e-06
-3.88105e-06
-2.26559e-07
-3.4194e-06
-1.19612e-05
9.95276e-07
-3.13961e-05
4.366e-07
-6.21196e-06
3.71717e-05
-1.46629e-05
1.31816e-05
4.0999e-07
1.07026e-06
-4.25505e-07
8.05195e-06
-1.34721e-07
-7.49139e-06
-2.7841e-06
2.71501e-06
6.9122e-08
3.10273e-06
-8.25569e-07
2.09178e-05
-2.31945e-05
2.79595e-05
3.15756e-06
-2.44449e-05
-6.67243e-06
-3.37534e-06
-1.58055e-05
-1.00646e-05
1.33757e-05
-1.47352e-05
1.01276e-06
3.4552e-07
7.95808e-06
-3.24301e-05
3.81059e-05
-1.36336e-05
1.07446e-05
2.19072e-06
-5.59998e-06
-7.33532e-06
-1.66812e-05
-3.85248e-05
1.00161e-05
4.51924e-05
5.6091e-08
2.54997e-06
-2.00494e-07
-2.40575e-06
9.53235e-06
-6.31796e-07
1.47983e-06
-1.03804e-05
-9.66195e-06
2.1282e-07
9.54076e-06
-9.08451e-08
2.21395e-05
3.66804e-06
-2.7799e-05
1.99154e-06
-3.17041e-05
-1.77894e-05
4.04732e-05
9.0212e-06
-6.91801e-06
2.96049e-06
-6.34776e-06
7.42593e-06
3.13293e-05
-4.02277e-05
1.47141e-06
-2.20523e-05
-2.22554e-05
8.87197e-06
3.54356e-05
-2.656e-06
2.90208e-06
-2.46048e-07
1.75118e-05
1.00212e-05
-1.96585e-06
-2.55668e-05
-7.1551e-07
-4.41473e-06
-2.9386e-05
3.45157e-05
-2.343e-05
5.81775e-06
5.72322e-05
-3.96197e-05
2.81765e-05
-2.07581e-05
-1.1294e-05
3.87547e-06
2.55486e-06
-1.01963e-07
-2.45277e-06
4.18845e-05
-2.10257e-05
2.95676e-06
-2.38148e-05
9.17599e-06
-9.89595e-06
1.27584e-06
-5.55569e-07
2.42342e-06
2.30954e-06
-4.73306e-06
-1.65751e-05
-2.1054e-05
4.34022e-06
3.32887e-05
-1.105e-05
2.10277e-07
1.14508e-05
-6.1153e-07
2.06931e-05
-4.23754e-05
5.41099e-07
2.11413e-05
-2.24393e-05
-2.70875e-05
3.62363e-05
1.32891e-05
-1.31153e-05
1.80156e-05
2.78931e-05
5.39872e-06
2.91125e-05
-3.03767e-05
-4.13471e-06
1.82237e-06
1.38346e-06
-1.22644e-05
9.0574e-06
-3.38691e-05
1.47946e-05
1.21534e-05
6.92147e-06
1.2972e-05
3.41504e-06
-1.47883e-06
-1.49072e-05
-3.29695e-06
-2.54359e-05
2.65349e-06
2.60801e-05
6.91264e-06
-2.66762e-06
2.81664e-05
-3.24113e-05
-1.91982e-06
-8.14686e-08
-4.84443e-06
6.84493e-06
6.71884e-07
1.11963e-05
-4.18757e-05
3.00064e-05
-1.50682e-05
-3.06387e-05
-1.06983e-06
4.67752e-05
3.50569e-07
4.91539e-06
-5.26583e-06
7.90432e-08
-1.86872e-07
1.0766e-05
-1.0657e-05
2.77166e-06
1.77122e-05
1.50471e-05
-3.55307e-05
2.57025e-07
-1.41546e-05
1.53443e-07
1.37436e-05
4.46538e-06
-2.15752e-05
-1.65981e-05
3.37098e-05
1.60211e-05
2.0107e-05
-1.75839e-05
-1.85439e-05
3.59103e-05
2.15468e-05
-4.83228e-05
-9.13458e-06
1.31905e-07
-4.24392e-06
4.11243e-06
2.64289e-06
1.29435e-06
-5.31241e-09
-3.93164e-06
1.8803e-06
2.46148e-06
3.04742e-07
-4.64688e-06
2.41327e-06
-2.90959e-06
1.46004e-05
1.87686e-07
-2.78647e-05
1.0427e-05
1.72499e-05
5.9551e-05
6.02043e-06
-1.24938e-05
-5.30772e-05
-7.82228e-06
1.06399e-05
-2.67003e-06
-1.48055e-07
-1.8317e-05
1.7295e-05
-2.93935e-05
3.04153e-05
3.01446e-06
5.8874e-08
-3.07372e-06
1.15462e-06
8.29927e-06
-1.58702e-05
6.41671e-06
2.99195e-06
-4.51201e-06
1.51983e-06
3.01635e-05
-1.61614e-05
-8.00955e-06
-1.58554e-05
5.73331e-06
-1.47369e-05
2.4859e-05
3.33802e-05
-3.25555e-05
5.21851e-06
-6.04366e-06
1.39643e-05
4.64924e-06
-1.67335e-05
-1.87963e-06
3.45279e-06
-4.05082e-05
1.40618e-05
2.29944e-05
2.64824e-05
-5.42909e-06
4.47737e-06
5.18072e-05
-5.71799e-05
1.86475e-06
-3.24604e-05
2.5132e-06
3.34868e-05
-3.5387e-06
-3.2592e-05
-2.10629e-05
3.53388e-05
-1.18991e-05
-1.19732e-05
-1.6715e-05
4.05879e-05
-1.39916e-06
4.57564e-06
3.9966e-05
-4.31438e-05
1.4285e-06
2.96719e-05
-5.09756e-05
1.98754e-05
-8.65102e-08
3.74729e-08
1.75662e-05
-1.75176e-05
-4.26965e-05
7.22481e-06
3.10454e-06
3.23675e-05
1.17399e-05
-1.18269e-05
4.00381e-06
-3.91668e-06
7.10105e-07
1.07969e-05
-1.37548e-05
2.24786e-06
-2.28617e-05
3.48745e-05
-4.61877e-06
-7.39526e-06
-3.68046e-05
2.72214e-05
1.69309e-06
7.88958e-06
-2.69966e-05
2.73569e-05
3.5673e-05
-3.60339e-05
3.5969e-05
-2.94074e-05
1.129e-06
-7.68847e-06
-1.28971e-05
1.65919e-05
-9.92217e-06
6.22746e-06
-7.29716e-06
1.67875e-05
1.40128e-06
-1.08914e-05
-3.81065e-05
3.16485e-06
4.158e-05
-6.6374e-06
-4.33142e-06
-2.42138e-05
3.99961e-07
2.81456e-05
2.30465e-06
-7.94857e-06
6.3549e-06
9.19829e-06
7.49026e-07
-8.81622e-06
-1.13114e-06
9.77948e-06
1.8343e-05
-2.13415e-05
-6.78081e-06
-1.07708e-05
1.52164e-05
2.60745e-05
-3.05206e-05
8.51023e-07
4.20553e-06
-3.54499e-05
3.03928e-05
1.64698e-05
-2.50417e-05
8.40187e-06
1.70722e-07
-4.15895e-05
-6.63674e-06
1.14235e-05
-3.20722e-06
-8.44821e-07
-2.37175e-05
2.77688e-05
-3.11557e-06
4.445e-08
3.07128e-06
-5.41647e-06
-6.74197e-06
4.42625e-05
-3.21044e-05
5.03897e-06
-4.79992e-06
-2.39235e-07
2.53431e-07
1.9269e-07
-9.27701e-06
8.83075e-06
-2.10703e-05
2.0795e-05
3.6186e-05
5.799e-06
3.26204e-05
-2.33795e-05
-1.50392e-05
4.32991e-06
-4.40398e-06
7.41569e-08
-4.37508e-06
4.8266e-05
-2.64801e-05
-1.74116e-05
-2.59172e-05
2.74721e-05
1.9138e-05
-1.9637e-06
2.61138e-05
1.07395e-05
-3.48905e-05
-3.68126e-05
-1.35805e-05
4.91091e-05
1.28371e-06
-4.52924e-06
4.10634e-06
4.22515e-07
3.60026e-05
-3.83488e-05
-5.0491e-07
2.85025e-06
-2.38249e-05
-1.51651e-05
2.17275e-05
1.72627e-05
-4.1888e-06
1.96189e-06
-2.39974e-05
2.62236e-05
-2.83415e-05
-7.35976e-06
6.10158e-07
3.50903e-05
-1.80208e-05
-9.00321e-06
-6.69623e-06
1.5385e-05
-3.52343e-05
-3.01492e-06
2.28643e-05
8.54286e-06
-3.5658e-05
-1.08036e-05
3.79196e-05
7.1782e-06
-6.82864e-06
-3.49484e-07
-3.02415e-05
5.069e-05
-7.13637e-06
-1.33119e-05
-6.40647e-06
-2.66392e-05
3.00009e-05
3.04555e-06
-5.05475e-05
5.19229e-05
-5.88536e-06
4.51169e-06
-2.89207e-05
-7.0473e-06
2.09006e-05
1.5066e-05
-2.60682e-05
-5.62457e-06
3.18609e-05
-1.67373e-07
-3.32819e-07
9.38206e-08
-1.21372e-05
1.23766e-05
3.30399e-06
1.66622e-07
-3.47071e-06
-6.01167e-06
6.07278e-06
-6.14473e-08
4.34528e-05
-3.76674e-05
-5.09981e-05
4.52142e-05
2.79107e-06
1.15282e-07
-2.90614e-06
-2.8125e-05
2.76766e-05
-3.40758e-07
7.89236e-07
-1.02064e-05
8.63714e-06
2.16502e-07
1.35227e-06
5.37919e-06
5.27266e-05
-2.85572e-05
-2.95483e-05
-3.04554e-05
-9.30426e-06
3.64708e-06
3.61105e-05
3.36429e-05
1.5525e-05
-1.53434e-05
-3.3826e-05
1.24883e-05
-4.65191e-06
1.51352e-06
-9.35083e-06
3.57593e-05
-3.53399e-06
-2.58171e-05
-6.40885e-06
-3.80854e-06
5.66078e-06
-6.31268e-06
4.46074e-06
-2.53526e-06
8.42336e-06
3.08922e-06
-8.97741e-06
-1.49602e-05
-7.83822e-06
4.22105e-05
-1.94116e-05
6.09367e-06
2.39789e-05
-2.34018e-05
-6.6708e-06
-2.25509e-05
2.32363e-05
1.49951e-05
-1.56806e-05
2.26472e-05
-2.04958e-05
-2.71659e-06
5.6449e-07
-5.08593e-08
-1.06551e-05
-4.71448e-08
1.07537e-05
-6.83381e-06
1.29169e-05
-1.44398e-06
-4.63995e-06
-3.20581e-05
-1.10005e-05
1.57594e-05
2.72988e-05
2.57364e-05
-2.16286e-05
-4.40948e-06
3.02546e-07
1.02972e-05
-3.47346e-05
-4.03512e-05
6.47894e-05
2.25854e-05
-2.95331e-05
-1.42217e-05
2.11705e-05
-6.30346e-06
-5.603e-05
1.48235e-05
4.75097e-05
1.76764e-05
-1.56965e-05
2.47723e-06
-4.4571e-06
3.01134e-05
-1.06297e-05
-3.63361e-05
1.68521e-05
1.34931e-05
2.34973e-05
-5.35844e-05
1.65938e-05
-7.86647e-06
3.21427e-05
-2.84195e-05
4.14331e-06
-2.99358e-05
3.46513e-05
3.4994e-05
-3.97092e-05
-4.11207e-08
-1.36294e-05
1.18455e-05
1.82422e-06
3.96331e-06
-3.72573e-06
-2.37268e-07
3.84673e-05
-4.77299e-05
1.39602e-06
-3.93154e-06
5.2429e-06
2.78726e-06
-4.09913e-06
-2.82395e-06
1.38119e-07
-1.3898e-06
4.07645e-06
1.93831e-05
-2.52975e-06
1.78061e-05
-2.72192e-05
1.05396e-06
8.35875e-06
-9.16574e-06
-2.29744e-06
8.62437e-06
2.69622e-05
-3.51439e-05
1.98994e-05
-1.17168e-05
-2.88793e-05
-4.12943e-06
3.48134e-05
-1.80505e-06
-6.16615e-05
-9.47647e-06
5.48077e-05
1.63304e-05
-4.39644e-05
1.2168e-05
1.01312e-06
3.07843e-05
-3.95806e-06
3.09319e-07
8.29096e-07
2.81928e-06
-2.70367e-05
-3.26628e-05
2.45969e-05
3.51031e-05
2.0907e-05
1.81774e-05
-3.15178e-05
-7.56587e-06
1.12262e-07
1.37642e-05
-1.16617e-05
-2.21463e-06
-5.14722e-07
-2.08515e-05
4.13409e-05
-1.99765e-05
4.2568e-05
-3.03173e-05
-1.62781e-05
2.79104e-05
-3.13552e-05
6.21225e-06
-2.76786e-06
-3.98534e-06
-2.55168e-05
2.77697e-05
1.73309e-06
4.12128e-05
-2.88754e-06
-4.23097e-05
2.31696e-05
-2.60673e-05
6.51579e-06
-3.61798e-06
1.73175e-06
-1.15087e-05
-9.37545e-07
1.07145e-05
-2.43474e-06
2.34459e-06
-2.7943e-06
2.88442e-06
-1.73875e-06
4.29062e-06
1.4107e-06
-3.96342e-06
-6.94147e-06
-1.84984e-05
-1.46675e-06
2.6907e-05
1.0929e-05
8.75958e-06
-2.97803e-05
1.00916e-05
-1.87056e-05
5.98557e-07
6.69723e-06
1.14098e-05
-1.60884e-06
-1.73731e-05
1.68679e-05
-2.23017e-05
2.64677e-05
8.40798e-06
-1.25744e-05
-3.29871e-05
3.84416e-05
-1.2352e-05
6.89764e-06
-6.15796e-06
-1.98545e-05
2.05129e-06
2.39612e-05
1.51154e-06
3.48165e-05
-4.09154e-05
4.58693e-06
1.72716e-05
-5.41745e-05
1.14484e-05
2.54553e-05
4.95076e-06
-3.84417e-05
2.09744e-05
1.25159e-05
1.6136e-06
2.12163e-05
-7.31528e-06
-1.55148e-05
-3.75926e-06
1.82488e-06
3.68049e-06
-1.74635e-06
-3.96776e-06
7.89617e-06
-2.92765e-05
2.53481e-05
-1.51032e-06
-1.05319e-05
2.72901e-07
1.17689e-05
1.64453e-07
1.08108e-05
-1.65203e-07
-1.08109e-05
1.73709e-07
2.39504e-07
1.10573e-05
-1.14701e-05
-9.62004e-06
-1.62562e-05
2.89829e-05
-3.1064e-06
3.16353e-06
-3.1694e-05
1.71072e-05
1.14233e-05
3.37953e-05
8.32351e-07
2.71655e-06
-3.73432e-05
2.53376e-06
-2.59462e-06
6.12216e-08
1.05157e-05
2.11366e-05
-2.67024e-05
-1.06441e-05
3.88214e-08
1.31124e-07
1.04741e-05
2.27264e-06
-2.87646e-05
1.04327e-05
1.60597e-05
8.30977e-07
6.97133e-06
-7.05488e-06
-7.47574e-07
-5.44881e-06
-1.15089e-05
2.2077e-05
-5.12031e-06
2.71307e-05
-3.01744e-05
2.60047e-05
-2.29617e-05
1.91e-05
-8.78826e-06
-3.26653e-05
2.23535e-05
-1.82772e-06
-1.73812e-06
3.56547e-06
1.12198e-05
2.34647e-06
-3.23794e-06
-1.03278e-05
-2.43583e-05
3.64868e-05
2.71133e-06
2.29277e-06
-5.00401e-06
2.41136e-06
-3.11048e-05
-3.71936e-07
2.90654e-05
-1.42177e-07
5.35202e-07
2.07431e-05
-1.41906e-06
2.19477e-05
-4.40325e-05
2.35029e-05
-6.97191e-06
-1.98719e-05
-2.78801e-06
2.96312e-05
5.52507e-06
-8.93279e-06
9.28051e-06
-5.87261e-06
-7.30212e-06
-3.61386e-05
-4.52807e-06
4.79695e-05
1.97347e-05
3.74273e-06
-2.27411e-05
-7.36384e-07
7.20873e-06
3.38438e-05
-5.59489e-05
1.48957e-05
-2.44134e-06
-1.42237e-05
-8.31585e-06
2.49809e-05
-1.81348e-05
-5.81255e-06
9.62689e-06
1.43201e-05
-1.04478e-06
-1.16564e-06
-1.23552e-05
1.45648e-05
4.26504e-05
-1.76128e-05
-1.01988e-05
-1.4838e-05
-2.63679e-05
6.36063e-05
-3.45604e-05
-2.67447e-06
1.0657e-05
2.87794e-07
2.85656e-07
-1.12315e-05
2.92064e-05
-3.50966e-05
3.47712e-05
-2.88808e-05
-5.10654e-06
1.60365e-05
-1.2947e-05
2.01647e-06
1.60592e-05
-5.798e-05
2.13377e-06
3.97873e-05
1.05543e-05
5.14636e-05
-4.3886e-05
-1.81329e-05
6.01041e-06
-5.86524e-06
-9.75275e-06
9.60897e-06
-2.20946e-05
-1.37529e-05
3.95539e-05
-3.70665e-06
3.54279e-05
-2.91137e-05
-4.17308e-05
3.54158e-05
1.82768e-05
1.48366e-05
-9.47838e-06
-2.36347e-05
1.22201e-07
-1.5714e-05
7.966e-08
3.68397e-06
-3.76325e-06
-3.22493e-06
3.11368e-06
1.11194e-07
2.59152e-05
-2.43629e-05
-2.21369e-05
2.05856e-05
-7.7768e-06
1.00197e-05
-2.82438e-05
2.59997e-05
4.25336e-05
-3.31841e-05
-6.90394e-06
-2.44357e-06
-4.47762e-06
1.11265e-06
2.89362e-06
-9.06303e-06
3.20176e-05
-8.58169e-06
-1.43728e-05
-4.06514e-05
1.03407e-06
1.4113e-05
2.55055e-05
1.6161e-05
-7.1997e-06
-1.56347e-05
6.67247e-06
9.30996e-06
3.94637e-05
-3.74018e-05
-1.13726e-05
-2.38985e-05
-4.67845e-06
4.5478e-05
-1.69026e-05
2.26208e-06
2.54478e-05
5.75168e-06
-3.34612e-05
8.60072e-06
2.76422e-05
-3.39809e-05
1.81237e-05
-1.33448e-05
-7.04818e-06
2.26939e-06
2.47297e-05
-3.14671e-05
1.39456e-05
-1.25307e-05
7.94058e-06
7.48651e-06
-2.89609e-06
1.0261e-05
1.17871e-05
2.35024e-05
-4.55522e-05
4.22613e-06
-2.64132e-05
-4.08287e-06
2.62705e-05
3.11854e-07
2.81843e-05
2.5103e-06
-3.10069e-05
1.38756e-05
2.57508e-05
-4.31431e-05
3.51756e-06
-5.65933e-05
4.71456e-05
-7.29546e-07
2.85703e-07
3.91061e-05
-3.00204e-06
-3.63909e-05
-3.11615e-06
7.0443e-06
-9.63397e-06
5.70616e-06
-7.72969e-07
-3.34627e-06
2.21404e-07
3.89748e-06
-3.20325e-06
3.085e-06
1.182e-07
-4.86073e-06
-8.34973e-06
3.8121e-05
-2.49105e-05
-3.34052e-05
5.02613e-06
-1.47418e-05
4.31213e-05
4.39427e-05
-1.04897e-05
-1.44165e-05
-1.90386e-05
3.32397e-06
-3.13319e-05
1.14061e-05
1.66023e-05
3.24548e-06
-2.93047e-06
-1.14261e-06
8.27156e-07
-3.75217e-06
3.61704e-06
1.34868e-07
1.83795e-06
2.62623e-05
-4.64953e-06
-2.345e-05
-5.67041e-06
2.71649e-05
-3.51664e-05
1.36713e-05
1.28337e-05
2.13096e-05
-4.97268e-05
1.55839e-05
-1.95095e-06
2.59335e-05
1.92776e-05
-4.326e-05
-4.08519e-05
2.21172e-05
2.36062e-05
-4.87153e-06
4.28092e-05
-4.39986e-05
8.91131e-06
-7.7212e-06
-3.12048e-05
-4.92e-07
-9.15433e-06
2.26908e-07
5.00544e-06
-5.23216e-06
2.92492e-05
3.88296e-06
-2.42128e-05
-8.91989e-06
-1.79604e-06
-2.54321e-06
1.21345e-05
-7.79551e-06
3.03741e-06
5.32619e-07
9.97151e-06
-1.35416e-05
-3.45693e-05
1.55859e-05
1.66388e-05
2.3444e-06
1.30243e-05
-2.06934e-05
-2.9746e-06
1.06437e-05
-2.49922e-05
5.60658e-06
4.09721e-05
-2.15875e-05
-2.92536e-06
-1.8333e-07
3.10898e-06
-1.58711e-05
4.01682e-05
2.908e-05
-5.33755e-05
3.64644e-05
9.66766e-07
-5.76061e-05
2.01746e-05
-2.37249e-06
3.70697e-05
-3.19435e-06
-3.15026e-05
1.78275e-05
-1.3819e-05
1.07427e-05
-1.47513e-05
-1.30722e-06
-2.48524e-05
2.77972e-05
-1.63548e-06
-2.3391e-05
-3.45565e-06
-1.54334e-05
4.22795e-05
-7.76819e-06
-8.33676e-06
-1.43884e-05
3.04943e-05
-1.31442e-06
3.90631e-05
-4.50282e-06
-3.32452e-05
2.28183e-05
-2.27958e-05
8.25469e-07
-8.47958e-07
3.91954e-05
1.09099e-07
-2.70381e-05
-1.22663e-05
-8.54226e-06
-4.51699e-06
-2.45685e-05
3.7628e-05
-2.82193e-07
-2.96408e-06
3.24638e-06
-3.4611e-05
5.11871e-05
-3.72302e-06
-1.2852e-05
2.75338e-06
1.85766e-05
5.96091e-06
-2.72907e-05
-4.16443e-06
9.64088e-06
3.35295e-06
-8.82992e-06
-1.52822e-05
-3.77319e-06
1.58128e-05
3.24263e-06
2.21889e-05
1.50417e-05
-5.50079e-05
1.7778e-05
1.21247e-05
-9.49991e-06
3.00052e-05
-3.26298e-05
-2.32083e-06
1.89503e-05
1.53512e-06
-1.81645e-05
2.85734e-06
-2.81506e-06
-4.25711e-08
2.8257e-06
3.38506e-05
1.48215e-06
-3.81582e-05
2.79614e-05
-4.35953e-06
-2.69978e-05
3.39746e-06
-5.57828e-06
6.70409e-06
-3.16971e-05
3.05709e-05
-2.80192e-05
-4.37409e-06
2.16466e-05
1.07461e-05
1.01829e-05
-9.64652e-06
-8.1382e-08
-4.54775e-07
-4.23781e-05
2.77779e-05
-1.63591e-06
1.62356e-05
-4.78918e-06
4.02729e-06
7.61889e-07
1.40598e-05
-1.19784e-05
1.88186e-05
-2.09002e-05
1.95606e-05
1.64085e-05
-8.55286e-06
1.50755e-05
-4.04391e-05
-1.87465e-05
4.4111e-05
1.48586e-07
-1.47724e-05
1.48175e-05
-1.93747e-07
8.56033e-06
-1.37864e-05
-1.59187e-05
2.11448e-05
1.35814e-05
5.94026e-06
-2.3483e-06
-1.71734e-05
-4.03479e-06
9.42225e-07
5.12463e-06
-2.03225e-06
-5.12327e-06
6.26293e-05
-2.13855e-05
-3.61205e-05
1.65328e-05
1.87913e-05
-1.07936e-06
-3.42451e-05
1.33517e-07
2.84326e-06
-2.97617e-06
-7.56854e-07
5.35622e-06
3.36212e-05
-3.82226e-05
4.57705e-05
5.90171e-06
-2.24633e-05
-2.92075e-05
-1.04336e-06
5.33025e-06
-4.19646e-06
-9.01151e-08
1.29389e-05
-1.16118e-06
-1.41236e-05
2.34657e-06
-3.92743e-06
-1.2411e-05
6.40405e-06
9.93453e-06
-6.3938e-06
2.85989e-05
4.43171e-06
-2.66371e-05
3.30594e-05
-4.35259e-06
-3.60053e-05
7.29821e-06
-2.97063e-06
5.75183e-06
-2.78129e-06
2.39878e-06
-1.05469e-05
9.4227e-06
-1.27469e-06
6.50868e-07
1.01826e-05
-1.07274e-05
-1.05599e-07
1.04825e-05
1.23412e-05
-1.45612e-06
-2.13672e-05
2.30684e-05
3.18096e-05
-2.18196e-05
-1.29038e-07
3.79653e-06
-3.66766e-06
-4.10939e-05
2.00475e-05
3.86762e-05
-1.76282e-05
3.99098e-05
6.97265e-06
-4.21236e-05
-4.75931e-06
3.02818e-05
-2.03479e-05
-3.33256e-05
8.34101e-06
1.43275e-05
-3.60159e-05
-1.9005e-06
-7.85499e-06
4.57737e-05
-8.75854e-08
3.68916e-06
-3.60137e-06
3.95989e-05
-1.43916e-06
-4.57884e-06
-3.35814e-05
3.88829e-06
-3.88187e-06
-6.11789e-09
-1.22126e-05
2.99903e-06
-7.36002e-06
1.65733e-05
-2.16437e-05
-1.86017e-05
1.64902e-05
2.37549e-05
1.97648e-05
-1.50513e-05
-4.21545e-06
-4.98669e-07
-4.38302e-08
2.94948e-06
-2.90588e-06
-6.72205e-07
-3.86683e-06
1.80097e-08
4.52097e-06
7.27431e-06
2.93011e-06
-5.18039e-06
-5.02428e-06
-1.13912e-05
1.23594e-05
-1.64046e-06
-4.03004e-07
4.24461e-05
-1.15255e-06
-4.08901e-05
-7.08304e-06
-6.99477e-07
9.30399e-06
-1.52102e-06
3.42935e-06
-1.34862e-05
1.0574e-05
-5.17316e-07
1.07905e-05
-2.01816e-05
1.44479e-05
-5.05694e-06
9.20744e-06
2.15623e-05
3.56981e-06
-3.43404e-05
5.34102e-06
-5.48245e-06
1.41643e-07
1.54837e-05
-1.25871e-05
-3.15101e-05
2.86126e-05
1.11225e-06
1.18431e-06
1.5948e-05
-1.82446e-05
4.57811e-06
1.95405e-05
-2.52739e-05
1.15329e-06
1.13809e-05
-5.35684e-07
-1.75677e-06
-9.08888e-06
1.12612e-05
2.36224e-05
-3.4628e-05
-2.54483e-07
1.36973e-05
-1.02506e-07
-1.1677e-06
-1.24274e-05
-2.54819e-05
9.27129e-06
1.27152e-06
1.4939e-05
-1.29662e-05
-1.23831e-05
-1.73289e-06
9.49902e-06
-1.6762e-05
1.26595e-05
-5.39699e-06
-4.54729e-06
-1.91678e-05
-2.86851e-05
5.23994e-05
-6.09615e-06
7.5343e-06
-1.73949e-06
3.01341e-07
3.91015e-08
2.45638e-06
-2.49547e-06
-7.9405e-06
4.07837e-05
1.20414e-05
-4.4884e-05
3.30411e-05
1.39891e-05
-1.22079e-05
-3.48217e-05
2.75517e-05
-2.29031e-05
2.61717e-05
-3.08196e-05
3.46028e-05
-3.80394e-05
4.1846e-06
-7.48825e-07
-6.122e-05
2.67671e-05
1.1809e-05
2.26449e-05
-1.13303e-05
-1.42423e-06
1.25128e-05
2.41636e-07
3.58012e-05
-4.76731e-05
1.67492e-05
-4.87719e-06
1.03292e-05
-1.13364e-05
3.59758e-06
-2.59145e-06
-1.8168e-05
1.65456e-05
-1.13433e-05
-1.39677e-05
4.77997e-05
5.21718e-06
-3.90499e-05
-5.22579e-06
1.39539e-07
5.08617e-06
-4.78064e-06
1.09195e-05
-4.02249e-05
-1.93573e-05
-3.21144e-07
1.88975e-07
1.94898e-05
4.41451e-06
1.29383e-07
-4.54382e-06
8.59538e-06
-5.6604e-07
-3.02375e-05
2.22088e-05
-5.96463e-08
-1.97249e-07
1.03089e-05
-1.00526e-05
8.21845e-06
1.82391e-05
-3.02555e-05
3.79676e-06
2.94373e-05
1.94734e-06
1.96685e-06
-3.33503e-05
-2.56653e-06
6.60719e-06
3.87654e-05
-4.28064e-05
-8.56726e-06
-1.04138e-06
-3.6186e-07
9.97039e-06
-9.94796e-06
8.49001e-06
-3.44031e-05
3.58595e-05
-1.31144e-06
2.43564e-05
-2.1312e-05
-1.73259e-06
4.17097e-05
1.2834e-05
-1.89587e-05
-3.55845e-05
9.02229e-06
-4.87493e-05
3.16736e-05
-4.1739e-05
5.33053e-05
-2.25683e-06
2.31284e-05
-9.23859e-06
1.9151e-05
-1.3114e-05
-3.20317e-06
6.32175e-06
9.99514e-06
-6.91454e-06
7.12164e-07
6.29452e-06
-9.2534e-08
-1.30105e-05
3.32409e-05
-2.34586e-05
3.22819e-06
-3.4075e-05
3.07147e-05
3.27237e-05
-2.9363e-05
-3.14752e-06
2.90383e-06
1.81664e-07
6.2441e-08
3.5138e-05
-5.09689e-05
-1.90572e-05
3.48891e-05
-4.82862e-05
-1.95081e-05
3.22169e-05
3.55755e-05
4.4157e-05
4.51315e-06
1.9369e-06
-5.06066e-05
3.77678e-05
-2.55914e-05
3.19803e-05
-3.75349e-05
-3.67113e-06
1.44717e-05
2.67332e-05
3.10504e-06
2.64673e-07
-3.36986e-06
4.11141e-05
-3.79057e-05
-1.29069e-05
9.69909e-06
-2.00799e-05
-7.07471e-06
5.83282e-06
2.13228e-05
1.56764e-05
2.77517e-05
-1.60742e-05
-2.73533e-05
6.7906e-06
2.13618e-05
-2.07859e-05
-7.3665e-06
4.39984e-07
-6.14372e-06
5.70352e-06
-1.94897e-05
-1.75857e-05
1.69781e-05
2.00976e-05
1.50426e-06
1.98229e-05
-4.54842e-06
-1.67787e-05
-3.40946e-05
3.40961e-05
-6.40716e-06
-3.01652e-06
4.28067e-05
-4.17464e-05
1.95683e-06
2.05432e-05
4.21376e-06
1.11317e-05
-3.5888e-05
-4.9191e-08
-2.14189e-06
2.19108e-06
-3.11223e-06
3.1027e-06
9.72505e-09
-2.80299e-05
-1.30333e-05
1.57932e-05
2.52681e-05
-3.47266e-05
-5.97754e-07
4.19676e-05
-6.64543e-06
-1.08729e-05
4.00876e-05
-4.12784e-05
1.20633e-05
-2.66593e-05
2.19055e-05
-9.93043e-06
1.46842e-05
3.48162e-07
2.03703e-05
-2.27839e-05
2.06533e-06
-3.63522e-05
7.99139e-06
2.38941e-05
4.466e-06
2.55877e-06
5.07012e-05
-1.89888e-05
-3.42706e-05
2.12284e-06
-3.95066e-06
-2.54598e-05
-1.33919e-05
1.08215e-05
2.05057e-05
-1.29026e-06
3.3665e-06
-2.2582e-05
-1.90986e-06
-4.39501e-06
5.54671e-06
7.57891e-07
1.3222e-05
-4.01412e-06
-9.40739e-06
1.9973e-07
1.29746e-05
-4.39937e-05
4.20896e-05
-1.1072e-05
-1.66958e-05
2.94186e-05
4.41981e-06
-1.71421e-05
-3.52853e-06
4.31361e-06
2.77813e-05
-2.85662e-05
-3.71099e-05
2.78887e-06
3.59711e-07
3.39617e-05
-2.05698e-05
2.40318e-06
1.66053e-05
1.56157e-06
-2.85143e-05
1.77394e-05
4.07035e-05
-2.99294e-05
-1.39398e-05
-2.58755e-05
6.97938e-06
3.28361e-05
5.74082e-06
-4.40411e-05
-5.59689e-06
4.38985e-05
-3.37729e-05
4.40107e-06
-1.31886e-06
3.0691e-05
-3.63816e-05
-2.69834e-06
-2.27633e-06
4.1356e-05
7.48502e-06
-4.23367e-06
3.91903e-05
-4.24435e-05
6.73422e-06
-3.82867e-06
-2.49151e-09
-2.90361e-06
5.04642e-06
-5.20783e-05
-8.24766e-06
5.52798e-05
-3.8602e-06
2.44707e-06
1.98224e-06
-5.69527e-07
-2.8789e-05
-7.55628e-06
1.58111e-05
2.05342e-05
-1.36828e-06
1.34502e-05
2.52844e-06
-1.46102e-05
-1.3101e-05
-1.41977e-05
9.30779e-06
-6.07385e-06
2.43944e-06
3.13718e-05
-2.77383e-05
2.47845e-05