/*--------------------------------*- C++ -*----------------------------------*\
| =========                 |                                                 |
| \\      /  F ield         | OpenFOAM: The Open Source CFD Toolbox           |
|  \\    /   O peration     | Version:  2406                                  |
|   \\  /    A nd           | Website:  www.openfoam.com                      |
|    \\/     M anipulation  |                                                 |
\*---------------------------------------------------------------------------*/
FoamFile
{
    version     2.0;
    format      ascii;
    arch        "LSB;label=32;scalar=64";
    class       volVectorField;
    location    "58";
    object      U;
}
// * * * * * * * * * * * * * * * * * * * * * * * * * * * * * * * * * * * * * //

dimensions      [0 1 -1 0 0 0 0];

internalField   nonuniform List<vector> 
59516
(
(0.103298 -0.00108791 -0.000518726)
(0.0948002 -0.000111155 -0.000377999)
(0.110415 -0.000609394 -0.000462963)
(0.127344 0.00124171 0.00185262)
(0.113671 0.000209234 -0.00456247)
(0.101091 -0.00483056 -0.0107984)
(0.126932 -0.00206604 -0.0022464)
(0.099001 0.000627574 -0.000110127)
(0.109849 0.000916648 -5.46456e-05)
(0.0514302 -0.00101923 0.00202011)
(0.154071 -0.000343865 -0.00249387)
(0.0597251 0.000198582 -0.00374092)
(0.116377 0.00116891 2.0975e-05)
(0.0189854 -0.000118515 -0.000176779)
(0.0575448 0.00137885 0.00318231)
(0.0495846 0.00344385 -0.00154381)
(0.169952 -0.00269985 -0.00127166)
(0.0700205 0.00401241 -0.00438454)
(0.114341 0.00611111 0.000626437)
(0.166281 -0.00171046 -0.000370933)
(0.0537331 0.000928174 -0.00128509)
(0.14822 -0.000944417 0.000249513)
(0.154516 -0.00113554 -0.00268547)
(0.0317045 -0.000967546 -0.00026529)
(0.161334 -0.000607136 0.000366704)
(0.0626071 0.00143488 0.000609848)
(0.0395456 0.000796971 -0.00276521)
(0.0442282 0.00378614 0.000192713)
(0.0652652 0.00275312 -0.000611562)
(0.0162821 -0.00253941 0.000623106)
(0.108359 -0.0210408 -0.00463957)
(0.0455237 0.00367145 -0.000574339)
(0.131606 0.000142357 0.000804985)
(0.110028 -0.000969234 0.00203814)
(0.139483 0.00550116 0.00397245)
(0.145943 0.000308891 -0.000492033)
(0.0157324 -0.00153624 -0.00218822)
(0.0699207 0.0026824 -0.00676621)
(0.0949725 -0.00388469 -0.000388993)
(0.160552 0.000129634 -0.000762129)
(0.098358 -0.000568065 0.000230274)
(0.144048 -0.00857963 -0.00798224)
(0.148435 -0.00417781 -0.0034692)
(0.103978 -0.000669611 0.000326556)
(0.142554 -0.00553061 -0.000474866)
(0.0525229 -0.000723898 -0.00121119)
(0.132252 -0.00304845 -0.00456656)
(0.163667 -0.00527948 -0.00106092)
(0.111886 -0.00899993 0.0123887)
(0.1512 0.00691462 0.00540473)
(0.104055 0.0104763 -0.014521)
(0.0414403 -0.00361044 0.00247328)
(0.117445 0.00102288 -0.00229894)
(0.124813 -0.00056174 0.000137425)
(0.0471635 0.00302476 -1.80354e-05)
(0.129525 0.00309913 -0.000944548)
(0.144977 0.00833393 0.00856409)
(0.0438885 0.0038279 -0.00267823)
(0.177379 0.00016144 -0.000270627)
(0.135261 0.00647603 0.00813398)
(0.149406 -0.000544989 8.23166e-05)
(0.0178669 0.00225299 -0.000779006)
(0.17037 0.000453886 0.00079251)
(0.167238 0.002899 0.00226164)
(0.119066 0.00023908 -0.000761043)
(0.147687 0.00394053 0.00565309)
(0.0241409 -0.00164217 0.00221563)
(0.0388395 0.000257164 -0.000228152)
(0.121531 -0.00505514 0.0222397)
(0.135515 0.00126319 -0.00356647)
(0.0345099 0.000947948 0.000284837)
(0.164359 0.0026867 -0.000303814)
(0.0215677 0.00134766 -0.00328508)
(0.142716 0.00170372 0.000769612)
(0.18661 -0.000164404 -0.000522739)
(0.158213 -0.00269631 -0.00333637)
(0.164406 -0.00283208 -0.00416291)
(0.148623 -0.000285058 0.000377589)
(0.0431282 -0.00143124 0.00136085)
(0.151865 0.00314385 0.00804451)
(0.0357358 0.00219651 0.00105882)
(0.146974 0.00423196 0.00637466)
(0.139773 0.00191127 0.00614188)
(0.0186603 -0.000703312 0.00261546)
(0.146786 0.00334623 0.00669262)
(0.178325 -0.00110244 0.000243294)
(0.0306355 -0.00112162 0.000488292)
(0.149684 -0.000507787 -0.000369316)
(0.0519134 0.000659575 0.00204429)
(0.107111 0.00847848 -0.0058282)
(0.131518 -0.00088128 -0.0115327)
(0.139271 0.00146609 -0.000377064)
(0.176511 0.000443454 -0.000305356)
(0.137098 0.00103111 -0.000347845)
(0.164164 7.92989e-05 -2.47373e-05)
(0.109928 -0.0105346 0.00393573)
(0.139745 -0.000311523 0.000419533)
(0.0505554 -0.00187058 -0.00401997)
(0.0643323 0.00244069 -0.00106183)
(0.148336 -0.00079506 0.00175924)
(0.0355319 0.000544877 0.00134996)
(0.0227836 0.00118742 -0.00257935)
(0.0215387 0.000763547 0.00295677)
(0.0514668 -0.000777939 -0.00283588)
(0.13404 0.000798212 -0.000217196)
(0.148158 -0.000488923 -0.000426451)
(0.0372916 0.00328767 -0.00135602)
(0.102215 0.000301045 -0.000813767)
(0.0981685 -0.000674584 0.00023234)
(0.0628331 0.00039014 -0.00253279)
(0.124956 0.0129345 -0.0135745)
(0.0288199 0.00292578 -0.000473199)
(0.0636027 0.00081706 -0.00399759)
(0.118043 0.0174327 -0.00875029)
(0.161228 -9.62607e-06 0.000102359)
(0.097265 0.00108571 0.00116039)
(0.0514435 0.000588431 -0.00191306)
(0.13215 -0.000100389 0.000717287)
(0.0205149 -0.000301244 0.000991258)
(0.147034 0.0011281 0.000332142)
(0.191167 -9.29627e-05 0.000199787)
(0.171949 -0.000347346 0.000670996)
(0.158876 -0.000130685 0.000879116)
(0.170523 -0.000363092 0.000429096)
(0.132403 -0.01785 0.00273391)
(0.0897873 0.00130908 -0.00306717)
(0.0278786 -0.000535888 0.00182104)
(0.138359 -0.0138034 -0.00116318)
(0.0898398 -0.00275582 0.0131419)
(0.184468 0.000334391 -0.000132089)
(0.188356 0.000177419 -4.96384e-05)
(0.110281 0.0017203 0.00190112)
(0.0217975 0.00130408 -0.00149383)
(0.147701 -0.000322792 0.000463373)
(0.0991379 0.00113415 0.000284011)
(0.113277 -0.000595519 -0.00216085)
(0.107483 0.0128266 -0.00897465)
(0.128042 -0.00038189 0.000331111)
(0.0371023 0.0025778 0.000124137)
(0.0966567 0.000579851 -0.00128365)
(0.0413613 -0.000815036 -0.00212571)
(0.189241 -0.000498206 0.000221155)
(0.017457 0.00073835 0.00152163)
(0.123705 -0.000964803 -0.000638864)
(0.179371 0.0005769 0.00132116)
(0.141768 0.00221941 0.000536322)
(0.140279 -0.00559696 -0.00215596)
(0.117054 0.00191405 -0.00314194)
(0.0621277 -0.00100505 0.00173115)
(0.104826 -0.000556561 -0.000956072)
(0.101489 -0.00045913 -0.00084476)
(0.0325725 -0.00125576 1.57734e-05)
(0.16876 -0.000914083 0.0010948)
(0.154507 -0.000126118 7.5365e-05)
(0.0869741 -9.79751e-05 0.00218181)
(0.0173669 -0.000320522 0.00186816)
(0.110938 -0.000450224 -0.000237685)
(0.111932 0.00166512 -9.18815e-05)
(0.0805485 0.00134305 0.000286056)
(0.0178078 0.00212448 -0.00232122)
(0.0619924 0.00158501 -0.00311511)
(0.0638949 -0.00345605 -0.00211802)
(0.0325147 -0.00132142 0.000317799)
(0.0232706 -0.000200119 -0.000450251)
(0.0968565 0.00182076 0.00238282)
(0.176709 -0.000210179 0.0010504)
(0.0585351 -0.000785157 0.000397378)
(0.182222 0.00117795 -6.563e-05)
(0.0185233 -0.00116754 0.00210688)
(0.136499 -0.000569035 -0.000239706)
(0.081328 0.00140945 0.00116554)
(0.0491262 0.000780592 -0.000751266)
(0.0605212 0.00158954 0.000743378)
(0.13581 -0.000166896 0.000525627)
(0.0469715 -0.000697061 0.00021197)
(0.134865 -0.00169051 -0.00557694)
(0.172545 -0.000393758 -0.000890165)
(0.149524 -0.00589613 -0.0037183)
(0.0638962 -0.000758179 0.0029683)
(0.037988 -0.000109441 -0.000528272)
(0.145998 0.0024618 0.000615711)
(0.031041 -0.0027658 -0.00127594)
(0.0265395 -0.000314458 -0.0020809)
(0.0608421 -0.0014975 0.000181827)
(0.183367 0.000464325 0.000757523)
(0.0557882 0.000306647 0.000677997)
(0.0329441 -0.000512325 -0.00258348)
(0.0211955 1.63263e-05 0.000288731)
(0.119874 0.000287963 -5.91509e-05)
(0.0971904 -0.00171724 -0.000125756)
(0.135277 -0.000485998 0.00269439)
(0.0485716 0.00298521 -5.79784e-05)
(0.165369 -0.00128876 3.81819e-05)
(0.0533179 0.00192346 8.17478e-05)
(0.154683 -0.000181299 -0.000725684)
(0.0275498 -0.000242674 0.000760008)
(0.0533805 0.000742993 -4.8789e-05)
(0.0376589 -0.00107594 0.000270105)
(0.106677 0.00290155 0.00352354)
(0.154722 0.000668294 -0.00061063)
(0.0776636 -0.00274102 0.000265381)
(0.190633 -0.000480232 0.000252853)
(0.0994744 -0.000801131 0.000799322)
(0.0179595 0.00194217 -0.0013375)
(0.125719 -0.000874849 -0.000533804)
(0.145094 0.000471888 0.00030877)
(0.185766 0.000440604 -0.000251149)
(0.155386 -0.00155901 -0.000795623)
(0.021285 -0.000694669 0.000202206)
(0.111332 -0.00205829 -0.000120968)
(0.0473034 0.00334356 0.00299909)
(0.0235645 -0.003886 -0.000642563)
(0.143128 0.000149682 -0.00150023)
(0.0521976 -0.00114801 0.00071623)
(0.113363 0.00153239 7.2078e-05)
(0.173317 9.16076e-05 -0.000393971)
(0.139728 0.00158425 0.000617443)
(0.157813 -0.00146619 0.000460139)
(0.0507137 0.00204817 -0.00273074)
(0.157358 -0.000120754 0.000802371)
(0.0516322 0.0019647 0.0018636)
(0.10251 0.000410965 0.00018697)
(0.167023 0.000722363 0.000981162)
(0.0362586 -0.000158867 0.000597479)
(0.172439 9.29412e-05 -0.00041986)
(0.174742 -0.000352748 -0.000476211)
(0.0262402 -0.000307976 0.00132906)
(0.043607 0.00140387 -0.00206486)
(0.173523 0.000551445 0.000688345)
(0.0509857 0.000254987 -0.00389926)
(0.174997 -0.000613989 -3.51737e-05)
(0.175594 0.000271234 -0.000407522)
(0.188342 0.000594353 0.000698209)
(0.0230592 -0.00179401 -0.00130367)
(0.0303669 0.000818192 -0.00144914)
(0.0316174 0.000866269 -0.00114753)
(0.0596089 0.000375164 1.67959e-05)
(0.0933264 -0.0011239 0.000641816)
(0.157955 0.00106376 0.00130658)
(0.0537865 -0.00119993 0.00150062)
(0.190264 -0.000243521 0.000525574)
(0.0188424 0.000332968 0.00278868)
(0.0511084 4.36383e-05 0.000878434)
(0.0228048 0.000125603 0.00253198)
(0.18615 0.000585537 0.000587684)
(0.0889211 -0.000557622 -0.000136945)
(0.146111 0.00027884 0.00116107)
(0.0618133 0.0010162 -0.00139635)
(0.17141 0.000184036 -0.000661476)
(0.101745 0.000394156 0.000517757)
(0.167267 0.000157007 0.000104391)
(0.140209 -8.29443e-05 0.000721969)
(0.19144 0.000421838 0.000725765)
(0.144811 0.000857552 -0.000963506)
(0.147319 0.00118002 0.00116892)
(0.159261 -5.4604e-05 0.00101591)
(0.0523133 2.7326e-05 -0.00025231)
(0.154556 0.00103869 0.00189977)
(0.0390168 -0.00041001 -0.00216651)
(0.056451 0.000448779 0.00196472)
(0.128555 0.000844843 -0.00106997)
(0.163833 -0.000295178 0.00030133)
(0.112428 0.00322734 0.00158879)
(0.180084 0.000307281 0.00032615)
(0.0953383 0.000175843 0.00207674)
(0.0544062 0.00208141 -0.0015115)
(0.161363 -0.000189235 -0.00141896)
(0.089422 0.0019654 0.00048216)
(0.043242 -0.000731973 -0.000700376)
(0.0487961 0.000279041 -0.00141743)
(0.0956232 0.00109416 -0.00336438)
(0.175909 -0.000149616 -0.000236682)
(0.0953537 -0.00245519 4.12277e-05)
(0.0893383 -0.0015129 0.000904287)
(0.167021 -0.00103521 -0.000616136)
(0.0892182 -0.000601486 0.00229668)
(0.0195693 0.00235554 -0.00132214)
(0.163149 0.000364037 0.000749487)
(0.023689 0.00152341 -0.00205009)
(0.0379114 -0.00155407 0.0010646)
(0.186815 0.000542974 0.000935109)
(0.138576 0.000256627 -0.000391226)
(0.0235365 0.00252428 0.00251077)
(0.118624 0.00083717 0.000497807)
(0.122012 0.00248761 -6.69763e-05)
(0.168598 -0.00162535 0.00210588)
(0.18594 -0.000463948 0.000236915)
(0.0224413 0.00266396 0.000472113)
(0.185465 0.00061599 0.000332005)
(0.191083 0.000108448 4.61395e-05)
(0.177135 0.00018847 0.00069215)
(0.134356 0.000870322 0.000803386)
(0.137294 0.000834861 0.000630955)
(0.0925205 0.000526299 -0.0001739)
(0.174145 0.000699311 0.000261638)
(0.0263718 -0.000951142 -0.00121555)
(0.162685 -0.000183651 0.000491988)
(0.138889 -0.000314313 -0.000628791)
(0.190054 0.000298993 0.000216243)
(0.172809 0.00095844 0.000726552)
(0.11492 -0.000408466 0.000625585)
(0.0561217 0.000890811 0.00124756)
(0.0215083 -0.000332581 0.00148825)
(0.0265598 -0.000647167 0.00043336)
(0.164783 -0.0010556 -0.00101387)
(0.0190575 -0.00110788 0.00274492)
(0.0608039 -0.000333285 -0.00107966)
(0.0495216 0.00276597 0.00108696)
(0.170821 0.000855477 0.000849047)
(0.177779 -0.00046549 -0.000274799)
(0.155228 -2.86036e-05 -0.000940217)
(0.0562747 0.000132119 -0.00129209)
(0.100755 0.00165579 -0.00244174)
(0.037799 -0.00317205 0.00255082)
(0.0538926 0.00130934 0.00106693)
(0.159811 0.000929566 -4.95717e-06)
(0.0953434 0.000982839 -0.000920149)
(0.107732 0.0123462 0.00350265)
(0.0879101 -0.00191968 0.000906405)
(0.0405001 -0.000159381 -0.000377893)
(0.0612378 -0.000900209 0.00198652)
(0.105865 -0.00099613 -0.0016312)
(0.180269 -4.29698e-05 -0.000464305)
(0.18911 -0.000902063 0.000904125)
(0.190249 0.000318925 0.00108588)
(0.163248 -0.00136626 0.000396594)
(0.0969331 0.00385617 0.00463558)
(0.125409 0.000629938 0.00086714)
(0.169752 0.000729598 0.00101019)
(0.162676 -0.000820398 0.000111155)
(0.165608 -0.000909186 0.000773294)
(0.054533 0.00111794 -0.00332127)
(0.0210098 -0.00141041 -0.00245963)
(0.150903 -0.00140322 0.000225984)
(0.0372656 -0.00183173 0.00205417)
(0.0297505 8.50466e-05 4.58951e-05)
(0.163455 0.000503151 0.00184587)
(0.145206 -6.0024e-05 0.000380227)
(0.0596036 -0.0012637 -0.00303581)
(0.177523 -0.000655096 0.000326984)
(0.168761 -0.000768663 0.000437579)
(0.18872 -0.000404108 -0.000448293)
(0.178101 -0.00129033 -0.000397575)
(0.0308784 0.00149202 6.46487e-05)
(0.160635 -0.000349832 8.02537e-05)
(0.182305 -0.000682887 0.000556777)
(0.0549409 0.000141716 0.000826563)
(0.187451 -3.17811e-07 0.00101369)
(0.180163 -0.000162199 0.000309161)
(0.130127 -3.8201e-05 -0.00088817)
(0.121452 0.000261011 -0.00102353)
(0.153085 -0.00118202 0.00163027)
(0.142943 -0.00115929 0.000264473)
(0.0671406 -0.000351419 -0.000123727)
(0.0300011 0.00126545 -0.000970789)
(0.0330154 -0.00246803 -0.000160918)
(0.0918841 0.00044957 -0.000336838)
(0.0862526 -0.00679247 0.0106291)
(0.0746062 -0.00420296 -0.00608621)
(0.0802196 0.000395487 0.00040986)
(0.112499 8.4101e-05 0.00201578)
(0.130609 0.000105988 0.00107072)
(0.159632 -0.00164794 0.00421301)
(0.157784 -0.000863658 0.000893927)
(0.130672 -0.0008857 -0.000507515)
(0.149318 -9.0883e-05 0.000572481)
(0.150024 0.000839265 0.000316417)
(0.029599 -0.000929593 -0.00033748)
(0.113927 -0.022469 0.00276196)
(0.055577 0.00139844 0.000442413)
(0.0388991 -0.00172038 -0.000392306)
(0.0392883 0.000858943 0.000314904)
(0.163493 -0.000621874 -0.000470518)
(0.0913842 -0.000572094 -1.74602e-05)
(0.162125 0.000577708 -0.00123555)
(0.0186266 0.000999552 -0.00159919)
(0.124772 -0.000351951 0.000333103)
(0.0420339 0.000982543 -0.000827727)
(0.167982 -0.00018038 -6.83139e-05)
(0.0453756 -0.000623279 -0.000487922)
(0.0595461 -0.0013862 0.00107955)
(0.10285 -0.00278884 0.000756471)
(0.151967 -0.00123529 0.00107075)
(0.018305 0.00143331 -0.00198382)
(0.0519495 -0.000577389 0.00211631)
(0.13205 -0.000206435 0.000541299)
(0.0217937 -0.00135523 -0.00176761)
(0.130865 0.00131478 0.00954571)
(0.11376 -0.000832664 0.00260966)
(0.130538 -0.000614193 -0.00209994)
(0.091882 0.00202489 -0.00290152)
(0.0853931 -0.0012453 0.00208871)
(0.163775 0.000438046 0.000266809)
(0.07719 -0.0079164 -0.00718761)
(0.189077 8.01543e-05 3.2226e-05)
(0.111389 0.00865403 0.00902976)
(0.0568234 -0.00263703 0.000347533)
(0.0600773 -0.000450944 -0.00137606)
(0.184812 -6.61128e-05 0.000302628)
(0.183826 0.000160504 0.000349982)
(0.0499337 -0.000502805 0.000605799)
(0.131656 0.000336406 -0.000615062)
(0.0946249 -0.000455913 -0.0022122)
(0.185884 0.000295276 0.000426607)
(0.185049 -0.000247031 0.000949487)
(0.0431224 0.00127538 -0.0032986)
(0.131213 -0.00112994 0.000222419)
(0.1454 -0.00181822 0.00168589)
(0.147987 0.000639258 -0.000691142)
(0.157605 0.000813182 0.000535851)
(0.020235 -0.000701817 -0.00254031)
(0.0198445 0.000979093 -0.00248441)
(0.12528 0.0011429 -0.00163838)
(0.180413 -7.10301e-05 -0.000143053)
(0.187327 -0.00125994 -0.00069324)
(0.032482 0.000343257 -0.00243975)
(0.172668 -0.0016541 0.000223908)
(0.104038 -0.00103234 -0.00089077)
(0.180866 -0.000142217 -0.00010792)
(0.181173 -0.00031567 0.00114213)
(0.187323 -0.000137827 -0.000552309)
(0.177438 0.000658604 0.000719198)
(0.175971 0.00159498 0.000467264)
(0.0855709 0.00053552 0.000297776)
(0.184662 0.000597558 -0.000206252)
(0.0534853 -0.0010027 -0.0025511)
(0.170213 6.02652e-05 -0.000574169)
(0.106433 -0.000374689 -0.00105805)
(0.154552 0.000375077 0.00103823)
(0.179962 0.000129076 -0.000243748)
(0.148981 -0.000427554 0.000122505)
(0.145149 0.000108288 -0.00139824)
(0.0380158 0.00217832 0.00205378)
(0.0318994 0.000837689 0.000236355)
(0.0197645 0.0017161 -0.00194943)
(0.153343 0.00425593 0.00758866)
(0.193406 -0.000158301 -0.000251783)
(0.139411 -0.000672333 0.000672507)
(0.124542 0.000880235 6.18549e-05)
(0.0289426 -0.000106321 0.00110441)
(0.022173 -0.000347215 0.00254401)
(0.111589 -0.000642354 0.0016521)
(0.154177 6.24704e-05 0.00143326)
(0.18049 -0.00031227 0.000707087)
(0.155067 0.000525921 0.000301667)
(0.133862 -0.00116337 -0.000691242)
(0.192925 -1.002e-05 0.000320547)
(0.133059 0.00067126 0.00106401)
(0.0247932 -0.000485095 0.00232103)
(0.120604 -0.000191804 0.000900793)
(0.0543868 0.000508397 0.00284815)
(0.0704799 -0.00704457 0.00151072)
(0.155575 0.000405686 0.000557502)
(0.090091 0.000571365 -0.000136573)
(0.1467 -0.000131036 0.00023932)
(0.0191649 -0.00362488 -0.00130475)
(0.184517 0.000212688 -0.000575605)
(0.185867 -0.000234086 -6.56941e-05)
(0.183035 1.39651e-05 0.0007273)
(0.0883617 0.000888353 6.02445e-05)
(0.154385 -0.000949065 0.00174851)
(0.177716 0.000139297 0.000451519)
(0.119322 0.000456885 0.000264678)
(0.188221 0.000399455 0.000203996)
(0.0976251 0.0040819 -0.00343148)
(0.174463 0.000199301 -0.000366691)
(0.148851 -0.00291934 -0.000387689)
(0.0192295 -0.00122275 0.00138839)
(0.184086 0.000364254 0.000155044)
(0.114699 0.00229506 0.000102214)
(0.0434463 -0.00126767 0.00361988)
(0.0880372 0.000866426 -0.00154498)
(0.170634 0.000259094 -8.79285e-05)
(0.126662 -0.000413093 0.00116553)
(0.0808945 0.000230023 -0.00227839)
(0.0190214 -0.00173474 -0.00187552)
(0.178584 0.000211085 -0.000257542)
(0.122624 0.00169335 -0.00185198)
(0.162699 -0.000412971 -0.000646067)
(0.122044 -2.86117e-05 0.000787779)
(0.0345084 0.00159241 0.00151802)
(0.140622 8.22947e-06 -0.000243517)
(0.0257135 0.0020788 -0.00331951)
(0.165168 0.000192439 -0.000799669)
(0.102281 0.011399 -0.00365076)
(0.171808 -0.00152709 -0.000723541)
(0.048485 3.97919e-05 0.00172072)
(0.102968 -0.0011667 -0.0016171)
(0.0918733 5.58461e-05 -0.00118887)
(0.0325466 0.00182376 0.00169087)
(0.190892 0.000104428 -1.17782e-05)
(0.177298 -0.000412697 0.000514428)
(0.0202979 0.000693938 0.00198407)
(0.164695 0.000426432 0.000362279)
(0.190109 0.000507781 0.000571408)
(0.03471 -8.51705e-05 -0.00212619)
(0.0582737 0.00257302 -0.000102894)
(0.0506739 0.0018937 0.00131548)
(0.155242 -0.000308102 0.000704254)
(0.185065 -0.000253442 0.000497387)
(0.032413 -0.000869307 0.00148599)
(0.0504262 -0.00168855 -0.000541069)
(0.0532867 0.00105416 -8.55071e-05)
(0.112422 0.00157181 0.000452519)
(0.187179 1.93732e-05 0.000637945)
(0.0217486 0.00119116 -0.00283025)
(0.160635 -0.000549935 0.000755535)
(0.151949 0.00399365 -0.000818399)
(0.185165 -0.00045434 0.000903448)
(0.0900998 0.00386714 -0.00372741)
(0.170829 0.000168852 0.000297799)
(0.0211305 -0.000283845 -0.00230316)
(0.165714 -0.00126164 -0.000626078)
(0.0253436 -0.000367253 -4.84962e-05)
(0.0584822 -0.00157669 0.000860083)
(0.154983 -0.00125443 7.65864e-05)
(0.0570364 -0.00170876 -0.000581139)
(0.0189479 0.00221299 0.0019606)
(0.0342486 0.00068646 -0.00107979)
(0.0422153 -0.00229578 0.00158969)
(0.0553121 0.00112164 -0.00160209)
(0.145906 0.000135396 -0.000953514)
(0.0471859 -0.00109218 7.02677e-05)
(0.0558942 0.00181849 -0.000941653)
(0.128245 -0.00714408 -0.0138118)
(0.174189 6.3414e-05 0.000372)
(0.0222229 0.00142783 0.000261167)
(0.104021 0.000361783 -0.0011223)
(0.0812667 0.00887225 -0.0035096)
(0.175335 -1.53602e-05 -0.000335163)
(0.0555351 -7.02621e-05 -0.00139358)
(0.169709 6.31902e-05 0.00110412)
(0.0539874 -0.00218514 -0.00163766)
(0.120967 0.000786572 0.000581278)
(0.181901 -0.00030538 -0.00101064)
(0.0475525 0.00206272 -0.00427285)
(0.179744 0.000115423 -0.000234406)
(0.0474996 0.0022556 0.00240385)
(0.0176493 0.002686 0.0010037)
(0.146221 0.000793831 -0.000495507)
(0.185215 -0.000370752 -3.90408e-05)
(0.127711 0.00104586 -0.000495073)
(0.122893 0.0016344 -0.000866685)
(0.184395 -0.000788721 -5.96787e-05)
(0.057243 0.00171121 -0.000263585)
(0.170792 -0.000706449 0.000313952)
(0.0538105 -0.00175892 0.00227304)
(0.179046 0.000133291 8.47319e-05)
(0.12395 -0.00134326 -0.00136691)
(0.0259584 0.000670849 -0.00359896)
(0.154484 0.000886371 -0.000994441)
(0.0487452 3.58465e-05 0.00154824)
(0.0241041 -0.00170389 -0.00181725)
(0.147794 -0.00146352 -0.000479178)
(0.0402967 -0.00116153 0.00103019)
(0.136938 -6.80965e-05 4.69186e-06)
(0.185814 -0.000440391 0.000898338)
(0.129783 0.000224876 0.000140679)
(0.0506457 -0.00228137 -0.00248737)
(0.184425 0.000793108 0.000409259)
(0.0862769 -0.00133144 0.00127633)
(0.191902 0.000136509 6.70294e-05)
(0.185704 -0.000123964 0.000492741)
(0.186329 -0.00042779 0.00109009)
(0.184485 -0.000598274 -0.00054139)
(0.0411039 -0.00232242 -0.00197886)
(0.0484061 0.000311244 -0.000401163)
(0.182736 -0.000801199 -0.000316423)
(0.163729 7.63545e-05 0.00170018)
(0.0292639 -0.00215098 -0.000964662)
(0.163803 -0.000282785 0.000716752)
(0.18571 9.73024e-05 0.000394457)
(0.180993 -0.00025699 -0.000329821)
(0.18712 -0.000567652 -0.000229745)
(0.112903 0.000145673 -0.00187189)
(0.0197646 0.00201767 0.00171115)
(0.181766 0.000481173 -0.000165191)
(0.0967911 -0.00088022 -0.00111588)
(0.152744 0.00117783 0.000731022)
(0.0922874 0.000359513 -0.000171939)
(0.0268633 0.00189825 -7.98249e-05)
(0.187679 -0.000119361 0.000466238)
(0.0878262 0.00235156 0.00241327)
(0.131125 0.000161223 0.000219131)
(0.190383 -0.000189469 -3.13022e-05)
(0.140415 -0.00162664 -2.01491e-05)
(0.0159177 0.00148197 -0.00186006)
(0.0202243 -0.00126779 -0.00196528)
(0.181453 0.000710575 0.000203457)
(0.17221 -0.00109818 -0.000971248)
(0.191015 -1.68892e-05 0.00119858)
(0.153959 -0.000580648 0.00128705)
(0.0883916 -0.00137942 0.00058879)
(0.149423 -0.00102601 -0.000598607)
(0.180423 0.000258061 0.000987835)
(0.0185541 0.00164679 0.000401848)
(0.18409 0.000794475 0.000517464)
(0.135025 -0.0151577 -0.000455205)
(0.0343425 -0.000571659 0.00185281)
(0.0514238 -0.00328611 0.0008176)
(0.14329 3.01282e-05 -0.00095731)
(0.139605 -0.00150106 0.00103211)
(0.136395 0.000383484 -0.000237091)
(0.120949 -0.000621433 0.00066495)
(0.100821 -0.0034391 0.00114919)
(0.189836 -6.82031e-05 0.000439675)
(0.0941339 0.000886823 -0.00296842)
(0.179828 0.000343712 -0.000197488)
(0.175505 0.00094369 5.85045e-05)
(0.191692 4.88158e-05 0.000221943)
(0.179979 -4.97151e-05 0.000163655)
(0.0369303 -0.000299911 0.00184464)
(0.166243 4.83608e-05 -1.64371e-05)
(0.0298507 0.000938434 -0.00121606)
(0.0944313 -0.00919569 0.00542681)
(0.0560923 0.00186589 0.00149632)
(0.127245 -0.00253191 -0.0130792)
(0.128355 -0.000620194 -0.000784539)
(0.117474 -0.0190752 -0.00425016)
(0.17481 0.000379754 -0.000534523)
(0.179325 -0.000622537 -0.000227568)
(0.155011 0.00166976 -1.35218e-06)
(0.175523 -0.000368895 0.000382503)
(0.0306231 0.00026261 -0.000569503)
(0.100941 -0.00378691 -0.00254084)
(0.112495 -0.00209727 -0.0160152)
(0.182075 0.000200306 0.000215125)
(0.108545 -0.00219806 -0.000636047)
(0.13695 -0.0135741 -0.00478702)
(0.157263 -0.00400069 0.00454536)
(0.107424 0.000836221 0.000945414)
(0.0322137 -0.000641396 0.00118282)
(0.0501049 -0.00246985 0.0013563)
(0.0222062 0.000101967 -0.000204376)
(0.0209754 0.000171225 -0.00160144)
(0.0315367 -6.0202e-05 0.00014332)
(0.133623 -0.00973008 0.00555778)
(0.137771 -0.000675091 0.000835568)
(0.0212978 -0.000764606 0.00295528)
(0.020217 0.00144803 0.00222352)
(0.192241 8.68096e-05 -0.000252233)
(0.0961429 -0.01263 0.00858158)
(0.0339642 0.00146795 0.000520775)
(0.147447 0.000178345 -0.000664149)
(0.101845 -0.00117068 -0.00136771)
(0.132454 0.000261252 0.00124991)
(0.0381335 0.00199182 -0.00107139)
(0.0505857 0.00156773 -0.000612431)
(0.107808 -0.00123821 2.48054e-05)
(0.173572 -3.96528e-05 -0.000938621)
(0.152676 -0.000208176 -0.000740388)
(0.0322066 0.00267896 -0.000910433)
(0.0216922 -0.00169493 0.00101441)
(0.106234 -0.0151804 -0.0112673)
(0.0231754 -0.0030178 0.000164093)
(0.132846 -0.000707131 -0.00102455)
(0.0242951 0.00135856 -0.00300226)
(0.100393 -0.000498917 0.00210535)
(0.181448 -0.00127313 0.000144693)
(0.180517 -0.00034031 0.00114483)
(0.039661 0.000598994 -0.000734666)
(0.0943482 -0.000212251 -0.00104199)
(0.0320199 0.00117355 -0.00136058)
(0.0251718 0.00297911 -0.00107159)
(0.182629 -0.000697543 -0.000468324)
(0.0170472 -0.00145065 -0.00218243)
(0.16875 -0.00037289 -0.000535683)
(0.0435844 0.00103011 -0.00206335)
(0.156181 -0.00135367 -0.000241058)
(0.140511 -0.000809976 -0.000161784)
(0.0195803 -0.000515835 0.00311228)
(0.0523271 -0.00261471 0.000268521)
(0.148713 0.000547928 0.000644282)
(0.0309259 -0.00151422 3.84183e-05)
(0.162222 0.000343634 -0.000522242)
(0.0494263 -0.00198566 0.00307513)
(0.1042 0.000208724 9.19999e-06)
(0.186747 -0.000405849 9.88037e-05)
(0.0327879 0.000978805 0.000668887)
(0.021263 0.000908061 -0.00273673)
(0.0458527 0.000919264 -0.000394782)
(0.110797 0.0173801 0.00373417)
(0.100169 0.00036104 0.000471684)
(0.0513388 -0.00242825 0.00247698)
(0.0800819 0.000352979 0.00108273)
(0.0273644 -0.00103888 0.000638842)
(0.188268 -0.000606836 -0.000203402)
(0.0211678 -0.000341138 -0.00163659)
(0.171457 -0.000364341 -0.000777732)
(0.143806 0.000237352 6.9893e-05)
(0.170132 0.000299822 -0.000606872)
(0.0174109 0.00171986 4.88129e-05)
(0.151182 0.000359449 0.000426166)
(0.0791165 0.000991561 0.000328502)
(0.158585 -0.00010228 8.82414e-05)
(0.0499228 -0.000580461 -0.000219573)
(0.108167 -0.013004 0.0066857)
(0.160402 -0.00117804 -0.000550462)
(0.035808 0.000409027 -0.000434837)
(0.192833 9.26799e-06 0.000442297)
(0.10887 0.00201342 -0.0204981)
(0.115333 0.000336896 -0.000796078)
(0.0296672 0.00077219 -0.00163445)
(0.0458271 -0.000449677 -0.00251717)
(0.185854 -0.000347375 -0.000134493)
(0.130304 0.00127444 0.000699133)
(0.0288422 0.00146357 0.00059514)
(0.106773 0.00144266 -0.00166478)
(0.0561343 -0.000450731 -0.00171733)
(0.0219305 -0.00189816 0.00130262)
(0.182327 -6.54715e-05 -0.000440586)
(0.103344 -0.00128024 0.0100285)
(0.128546 0.00137969 -0.00187942)
(0.175827 -0.000605496 -6.62841e-05)
(0.180324 -0.00053047 0.000758117)
(0.171599 -0.000196182 5.01817e-05)
(0.130607 0.000795145 -0.000296912)
(0.0393807 0.00101249 0.000341274)
(0.0361609 -0.00174537 -0.00174942)
(0.185045 -0.000313437 0.000702915)
(0.107584 -0.00938069 0.00871978)
(0.11837 -0.00101281 0.000463192)
(0.125607 -0.00169352 0.000979219)
(0.0769599 0.00189082 0.000825155)
(0.147895 -0.00036076 0.00157516)
(0.164743 -0.000693205 -0.000940189)
(0.0951658 -0.000263137 -0.00129808)
(0.100171 0.00180871 0.000535173)
(0.0353904 0.000537967 -0.00228747)
(0.0671906 0.000468567 -0.000307966)
(0.0389447 -0.000999241 -0.00291186)
(0.151709 -0.000958798 0.000940256)
(0.17765 -0.00047057 -0.000341176)
(0.0898277 0.00188414 -0.0020744)
(0.0947928 0.000769486 -0.000635811)
(0.0189123 0.00194199 -0.000391765)
(0.0747688 -0.000313523 -0.00069586)
(0.0534962 -0.00180393 -0.00228506)
(0.178732 2.08051e-05 -0.00102017)
(0.181315 -0.000894755 -0.000395284)
(0.104824 -0.00956174 0.00605126)
(0.16445 -0.000240675 0.00114047)
(0.0774617 -0.00226193 -0.00190926)
(0.101708 -0.0025489 0.00793901)
(0.131117 -0.00155007 0.00163487)
(0.0232763 -0.00178243 -0.000176378)
(0.181338 -0.000641575 0.000243292)
(0.0458153 0.00128603 -7.67098e-05)
(0.138607 -0.000209219 0.00135481)
(0.0254652 0.00363662 -0.000290695)
(0.177447 0.000109564 -0.000686992)
(0.101647 -0.0043261 0.00266182)
(0.158757 -0.000752775 -0.000218054)
(0.111946 0.000386525 0.000570898)
(0.146115 -0.000167587 0.000994503)
(0.14949 0.0013392 0.00038598)
(0.189004 0.000451242 0.000340603)
(0.031315 -0.00193112 -1.35532e-05)
(0.0433185 0.000592759 -0.000924561)
(0.0261115 -0.00068191 -0.000211405)
(0.18015 -0.000440962 0.000765465)
(0.158083 0.000246576 -0.000395144)
(0.134956 0.00161524 -5.69824e-05)
(0.160287 0.000511364 -0.00143261)
(0.0190055 0.000349422 0.000496261)
(0.0942217 -0.00026084 -0.000221603)
(0.0850574 0.00100366 -0.00187627)
(0.179336 -0.000344105 -0.000603393)
(0.124434 -0.000898837 -0.000229535)
(0.145189 -4.94972e-05 -0.000563029)
(0.102487 -0.00034707 0.0012905)
(0.184585 -0.000229061 -0.000256039)
(0.018735 -0.0021636 -0.00227232)
(0.0811349 -0.00332625 0.000437413)
(0.152743 -0.000477784 0.000581082)
(0.0234525 -0.0021526 0.00183207)
(0.0411254 -0.000779748 -0.00194146)
(0.057571 -0.000928801 0.000625774)
(0.0194449 0.00119768 -0.00205617)
(0.0907933 0.000475808 -0.00128426)
(0.170985 0.00019342 -0.000337383)
(0.0563691 -0.00161537 -0.00160957)
(0.0172454 -0.00223658 -0.00165359)
(0.100291 0.00036743 -0.00081085)
(0.023476 0.00013913 0.000355051)
(0.0944479 0.00120032 -0.000651671)
(0.176827 9.26742e-05 0.000199046)
(0.191784 -4.04038e-05 -1.77306e-05)
(0.176086 -0.000277379 2.89562e-05)
(0.165352 0.000844275 -1.7735e-05)
(0.178287 -0.0001938 0.00021597)
(0.127833 0.000420563 0.00223022)
(0.0428668 0.000816058 -0.00110072)
(0.178969 0.000554715 0.000248005)
(0.121136 -0.000315901 0.000996017)
(0.0840542 0.000548587 -0.00166643)
(0.0924435 -0.000953819 0.00132016)
(0.165218 -0.000215888 0.000421957)
(0.112122 -0.0012421 -0.000708753)
(0.061131 3.70348e-05 0.00160975)
(0.155029 0.000848098 0.00136014)
(0.0304278 0.00113969 0.000522089)
(0.0830987 2.02002e-05 0.0006163)
(0.0922868 -0.000282918 0.000169345)
(0.0568947 0.000356237 0.000941545)
(0.161509 8.19388e-05 -0.000226429)
(0.106007 -0.0125985 0.0134336)
(0.127219 0.00812817 0.00528595)
(0.0296311 0.000570677 -0.00258815)
(0.0240523 -0.00152022 0.00077487)
(0.0522791 0.0019742 -0.00105126)
(0.0186017 -0.00119353 -0.00149721)
(0.124332 0.000548844 -0.000660921)
(0.15466 0.000661621 -0.001076)
(0.12638 0.00171792 0.000360473)
(0.110211 0.0101125 -0.0115968)
(0.132464 -0.000203701 0.000244194)
(0.146853 0.000344775 -0.000801997)
(0.022981 -0.00194208 0.00439989)
(0.158309 0.000738633 -0.000283768)
(0.12757 -0.00406148 0.0125126)
(0.0405678 0.000757345 -0.00104989)
(0.0200167 -0.00338886 0.000642239)
(0.111949 0.000396817 0.000452712)
(0.104923 -0.00143337 -0.000634791)
(0.0235195 -0.00163573 0.00263751)
(0.163942 -0.000587165 -0.000742114)