/*--------------------------------*- C++ -*----------------------------------*\
| =========                 |                                                 |
| \\      /  F ield         | OpenFOAM: The Open Source CFD Toolbox           |
|  \\    /   O peration     | Version:  2406                                  |
|   \\  /    A nd           | Website:  www.openfoam.com                      |
|    \\/     M anipulation  |                                                 |
\*---------------------------------------------------------------------------*/
FoamFile
{
    version     2.0;
    format      ascii;
    arch        "LSB;label=32;scalar=64";
    class       volVectorField;
    location    "58";
    object      U:Transformed;
}
// * * * * * * * * * * * * * * * * * * * * * * * * * * * * * * * * * * * * * //

dimensions      [0 1 -1 0 0 0 0];

internalField   nonuniform List<vector> 
59516
(
(-0.00100976 -0.000658025 0.103298)
(0.000323602 -0.000224767 0.0948002)
(-0.000489968 0.000587901 0.110415)
(-0.00218149 -0.000463816 0.127344)
(-0.00455728 0.00030174 0.113671)
(-0.010443 0.00555726 0.101091)
(-0.00259146 -0.00161219 0.126932)
(-0.000306488 -0.000558608 0.099001)
(-0.000902683 0.000168501 0.109849)
(0.00199219 0.00107279 0.0514302)
(-0.00250399 -0.000260118 0.154071)
(-0.00301264 -0.00222663 0.0597251)
(-0.000907793 -0.000736675 0.116377)
(5.69494e-05 -0.00020507 0.0189854)
(0.000224275 -0.00346093 0.0575448)
(-0.00142616 0.00349422 0.0495846)
(-0.00293496 -0.000540664 0.169952)
(-0.00572863 -0.00158319 0.0700205)
(-0.00602296 -0.00120915 0.114341)
(-0.00165554 0.000567843 0.166281)
(-0.00143765 0.000667941 0.0537331)
(0.000395135 0.000893336 0.14822)
(-0.00283526 -0.000680078 0.154516)
(0.000834131 0.000557449 0.0317045)
(-4.91206e-05 0.000707582 0.161334)
(-0.000161495 0.00155072 0.0626071)
(-0.000494769 0.00283492 0.0395456)
(-0.00349143 -0.00147714 0.0442282)
(-0.00268169 -0.000873052 0.0652652)
(0.00202102 0.00165902 0.0162821)
(-0.0215126 0.00120363 0.108359)
(-0.00294912 0.00226099 0.0455237)
(-0.000737492 -0.000352665 0.131606)
(-0.00195238 -0.0011321 0.110028)
(-0.00678547 -2.38549e-05 0.139483)
(-0.000563847 0.000139953 0.145943)
(-0.00236722 0.00124282 0.0157324)
(-0.00693698 -0.00220345 0.0699207)
(-0.00388342 0.000401488 0.0949725)
(-8.13763e-06 0.000773033 0.160552)
(-5.28207e-05 -0.000610683 0.098358)
(-0.0117186 -3.31444e-05 0.144048)
(-0.00533703 0.00100277 0.148435)
(-0.000651257 0.000361777 0.103978)
(-0.00550416 0.000719259 0.142554)
(0.00136013 0.000375551 0.0525229)
(-0.00548861 0.000147128 0.132252)
(-0.00534476 0.000657285 0.163667)
(-0.0152499 0.00138544 0.111886)
(-0.00877058 0.000316339 0.1512)
(-0.0178982 0.000519184 0.104055)
(-0.00395008 -0.00188396 0.0414403)
(0.000370272 -0.00248883 0.117445)
(-0.000311302 0.000487369 0.124813)
(-0.00292924 0.000754335 0.0471635)
(-0.00319149 0.000557791 0.129525)
(-0.0119497 5.73693e-05 0.144977)
(-0.00437455 -0.00163982 0.0438885)
(-0.000314925 1.11481e-05 0.177379)
(-0.0103916 -0.000340483 0.135261)
(-0.000375686 0.000403298 0.149406)
(-0.00140303 0.00192726 0.0178669)
(-0.000913191 1.29197e-05 0.17037)
(-0.00367628 -6.48045e-05 0.167238)
(-0.000586434 0.000540779 0.119066)
(-0.00689015 0.000104764 0.147687)
(0.000188551 0.0027514 0.0241409)
(-0.000135573 0.000315922 0.0388395)
(-0.0228037 0.000383275 0.121531)
(-0.00369127 -0.000830601 0.135515)
(-0.000577194 -0.000804104 0.0345099)
(-0.00257255 -0.00083226 0.164359)
(0.0032931 -0.00132794 0.0215677)
(-0.00181651 -0.000441887 0.142716)
(-0.000276534 -0.000473089 0.18661)
(-0.0042839 0.000222766 0.158213)
(-0.00503294 0.000141735 0.164406)
(0.000470006 5.40921e-05 0.148623)
(0.00174272 0.000929139 0.0431282)
(-0.00860619 0.00072895 0.151865)
(-0.00243839 1.02115e-06 0.0357358)
(-0.00763992 0.000421221 0.146974)
(-0.00642132 0.000377156 0.139773)
(-0.00237755 0.00129713 0.0186603)
(-0.00744147 0.000782953 0.146786)
(-0.000763861 0.000831315 0.178325)
(0.00060103 0.00106547 0.0306355)
(-0.000617997 0.000111001 0.149684)
(-0.00190281 -0.000996723 0.0519134)
(-0.00998339 -0.00248688 0.107111)
(-0.0115663 -2.63723e-05 0.131518)
(-0.000944923 0.00118267 0.139271)
(-0.000535671 -5.43125e-05 0.176511)
(-4.73608e-05 0.00108718 0.137098)
(-2.91833e-05 7.77727e-05 0.164164)
(-0.0112455 -7.05317e-05 0.109928)
(-0.000397969 -0.000338637 0.139745)
(0.00211315 0.00389793 0.0505554)
(-0.00247312 -0.000983943 0.0643323)
(0.00160685 0.00107007 0.148336)
(-0.00118927 0.00083959 0.0355319)
(0.00251087 0.00132608 0.0227836)
(0.00270487 0.00141746 0.0215387)
(-0.00195354 0.00219798 0.0514668)
(0.000826133 -4.2667e-05 0.13404)
(0.000123936 -0.000636825 0.148158)
(0.00175156 -0.0030951 0.0372916)
(-0.000780265 -0.000379514 0.102215)
(-0.000205491 0.000683241 0.0981685)
(-0.0013704 0.00216546 0.0628331)
(-0.0187487 -0.000238897 0.124956)
(0.00214312 -0.00204722 0.0288199)
(-0.00250617 0.00321984 0.0636027)
(-0.0195055 -4.98264e-05 0.118043)
(-3.88936e-05 9.51695e-05 0.161228)
(0.00106283 -0.00118138 0.097265)
(-0.00167621 -0.00109379 0.0514435)
(-0.000346947 -0.000635773 0.13215)
(-0.000363808 -0.000970044 0.0205149)
(-0.000812174 0.000850471 0.147034)
(0.000216622 -4.04001e-05 0.191167)
(-0.00045529 0.00060299 0.171949)
(0.000847337 0.000268221 0.158876)
(-0.000463373 0.000318189 0.170523)
(-0.0180215 0.00114986 0.132403)
(-0.00333295 0.000112418 0.0897873)
(-0.00170803 -0.000828264 0.0278786)
(-0.0136974 0.00206593 0.138359)
(-0.01307 0.00307877 0.0898398)
(0.000231207 -0.000275333 0.184468)
(-8.72188e-05 -0.000162278 0.188356)
(0.00166585 0.00194901 0.110281)
(-0.000488631 -0.00192182 0.0217975)
(3.45592e-05 0.000563662 0.147701)
(0.0011171 0.000345036 0.0991379)
(-0.00202113 0.000968985 0.113277)
(-0.0155914 0.00140516 0.107483)
(0.000138609 0.000486068 0.128042)
(-0.000361748 0.00255531 0.0371023)
(-0.00112319 0.000849951 0.0966567)
(-0.000976871 0.00205637 0.0413613)
(-0.000345494 -0.000421607 0.189241)
(-0.000808943 -0.0014853 0.017457)
(-0.000605025 0.000986375 0.123705)
(-0.00144071 5.11144e-05 0.179371)
(-0.00217823 0.000684634 0.141768)
(-0.00584407 0.00134942 0.140279)
(-0.00344322 0.00129601 0.117054)
(0.000947078 -0.00176354 0.0621277)
(-0.000377952 0.0010397 0.104826)
(-0.000367263 -0.00088856 0.101489)
(0.000153183 0.00124648 0.0325725)
(0.000998836 0.00101806 0.16876)
(0.000110117 9.72622e-05 0.154507)
(-0.000902367 -0.00198888 0.0869741)
(-0.00161726 0.00098854 0.0173669)
(-0.000384159 -0.000334092 0.110938)
(-0.00147572 0.000776748 0.111932)
(-0.00126566 0.000532659 0.0805485)
(-0.00256746 -0.00181924 0.0178078)
(0.0025293 0.00241222 0.0619924)
(0.0034953 -0.00205261 0.0638949)
(-0.000568381 0.00123454 0.0325147)
(-0.000220969 -0.000440393 0.0232706)
(0.00299735 9.40251e-05 0.0968565)
(-0.00106912 6.71984e-05 0.176709)
(0.000878667 -4.82266e-05 0.0585351)
(-0.00110483 -0.00041379 0.182222)
(0.00106482 0.00216061 0.0185233)
(0.000176738 -0.000591627 0.136499)
(-0.00143092 -0.00113907 0.081328)
(-0.000886571 0.000622669 0.0491262)
(-0.000112354 -0.00175118 0.0605212)
(6.78005e-05 -0.000547304 0.13581)
(0.000405489 0.000605313 0.0469715)
(-0.00580219 -0.000542913 0.134865)
(-0.000859268 0.000457271 0.172545)
(-0.00694858 0.000554372 0.149524)
(0.000362523 -0.00304208 0.0638962)
(0.000436161 0.000317508 0.037988)
(-0.00149348 -0.0020516 0.145998)
(0.000829451 0.00293081 0.031041)
(-0.000927865 -0.00188894 0.0265395)
(0.000549333 0.00140492 0.0608421)
(-0.000167434 -0.000872585 0.183367)
(-0.000358013 0.000652333 0.0557882)
(-0.0025892 0.000482569 0.0329441)
(0.000139488 0.000253328 0.0211955)
(-0.000286282 6.68148e-05 0.119874)
(0.00151942 0.000809992 0.0971904)
(-0.00273284 -0.000165923 0.135277)
(-0.000949082 -0.00283092 0.0485716)
(-0.00120954 -0.000446524 0.165369)
(0.0014943 -0.00121385 0.0533179)
(-0.000746679 -4.42357e-05 0.154683)
(0.000396399 0.000692366 0.0275498)
(0.000700091 0.000253558 0.0533805)
(0.000308398 -0.0010656 0.0376589)
(-0.00456399 -6.54787e-05 0.106677)
(0.000451553 -0.000784593 0.154722)
(-0.00160622 -0.00223689 0.0776636)
(-0.000427229 -0.000334713 0.190633)
(0.000122929 0.001125 0.0994744)
(0.00151875 -0.00180397 0.0179595)
(0.000596973 0.000833025 0.125719)
(-0.000410994 -0.000386135 0.145094)
(-0.000372087 -0.000344615 0.185766)
(0.0014883 -0.000921144 0.155386)
(0.000219938 -0.00068926 0.021285)
(0.00178233 0.00103658 0.111332)
(-0.000515519 0.00446186 0.0473034)
(-0.00385862 0.000790538 0.0235645)
(-0.000938058 0.00118031 0.143128)
(-0.000324578 0.0013136 0.0521976)
(-0.000915295 -0.00123111 0.113363)
(0.00037739 -0.000145538 0.173317)
(-0.00163366 0.000471438 0.139728)
(-0.00123593 0.0009132 0.157813)
(-0.00161565 0.00300693 0.0507137)
(0.000801907 -0.0001238 0.157358)
(-0.000868367 -0.00256496 0.0516322)
(-0.000373397 0.00025382 0.10251)
(-0.000795009 -0.000923281 0.167023)
(0.000360356 -0.000502358 0.0362586)
(0.000367658 -0.000223042 0.172439)
(0.000589191 6.37364e-05 0.174742)
(-0.00092711 -0.00100086 0.0262402)
(-0.00243389 0.000557387 0.043607)
(0.000212681 0.000855966 0.173523)
(-0.00202149 0.00334407 0.0509857)
(4.8644e-05 0.000613069 0.174997)
(-0.000374774 0.000314939 0.175594)
(-0.000812131 -0.000425669 0.188342)
(-0.00111143 -0.00191905 0.0230592)
(-0.00124031 -0.00110954 0.0303669)
(-0.00143767 -1.83076e-05 0.0316174)
(-7.39074e-05 -0.000368195 0.0596089)
(-0.001277 -0.000210618 0.0933264)
(-0.00163336 0.000413386 0.157955)
(0.00189548 -0.000314416 0.0537865)
(0.000468966 0.000340002 0.190264)
(0.00228855 0.00162793 0.0188424)
(0.000708869 0.00052063 0.0511084)
(0.00215173 0.00134044 0.0228048)
(0.00065712 0.000506378 0.18615)
(-0.000450835 -0.00035559 0.0889211)
(-0.00116223 0.000273973 0.146111)
(-0.000853669 0.00150123 0.0618133)
(-0.000592443 -0.000347032 0.17141)
(-0.000589902 -0.000274677 0.101745)
(-0.000147142 -0.00011789 0.167267)
(-0.000726112 2.96723e-05 0.140209)
(0.000812111 0.000212501 0.19144)
(0.000323411 0.00124866 0.144811)
(-0.000977636 0.00134277 0.147319)
(-0.000830498 0.000587645 0.159261)
(-0.000242247 7.5654e-05 0.0523133)
(-0.00212231 0.000428731 0.154556)
(0.00119162 0.00185524 0.0390168)
(-0.000278586 0.00199597 0.056451)
(-0.00118296 0.000677642 0.128555)
(-0.000218706 0.00036069 0.163833)
(0.00352044 0.000739243 0.112428)
(0.000421435 0.000152277 0.180084)
(0.00208409 -1.91684e-05 0.0953383)
(-0.000102943 -0.00257027 0.0544062)
(-0.000705767 -0.00124545 0.161363)
(0.00202112 0.000101861 0.089422)
(-0.000523926 -0.000867071 0.043242)
(-0.000498941 0.00135574 0.0487961)
(-0.00264911 0.00234487 0.0956232)
(-9.37725e-05 -0.000263837 0.175909)
(-0.00153584 0.00191595 0.0953537)
(-0.000817012 0.00156176 0.0893383)
(-0.00111291 -0.00046122 0.167021)
(7.12827e-06 0.00237413 0.0892182)
(-0.00113476 -0.00245131 0.0195693)
(0.00076803 0.000323083 0.163149)
(0.00201598 -0.00156827 0.023689)
(0.00168447 0.00084324 0.0379114)
(-0.00104185 -0.000289476 0.186815)
(-0.000374979 -0.000279831 0.138576)
(-0.00315223 0.00165512 0.0235365)
(-7.58936e-05 -0.000971033 0.118624)
(-0.00134177 -0.00209579 0.122012)
(-0.00264208 0.000309712 0.168598)
(0.000235873 -0.000464478 0.18594)
(0.00187527 -0.00195012 0.0224413)
(0.000223448 0.000663131 0.185465)
(8.46418e-06 0.000117551 0.191083)
(-0.000450143 -0.000558537 0.177135)
(-0.00107604 0.000494999 0.134356)
(-0.000894637 0.000542881 0.137294)
(-0.000329738 -0.000445539 0.0925205)
(0.000198098 -0.000719894 0.174145)
(2.80183e-06 0.00154345 0.0263718)
(-0.000210141 -0.000481269 0.162685)
(0.000205352 0.00067231 0.138889)
(-0.000234623 0.000284798 0.190054)
(-0.000940023 0.000750228 0.172809)
(0.000371634 -0.000648142 0.11492)
(0.00097424 -0.00118356 0.0561217)
(-0.000645708 -0.00138151 0.0215083)
(0.000659586 0.000414213 0.0265598)
(-0.00144576 0.000228038 0.164783)
(-0.00274257 0.00111368 0.0190575)
(-0.00081351 -0.000784179 0.0608039)
(-0.000927226 0.00282353 0.0495216)
(-0.000829096 -0.000874827 0.170821)
(-0.000540502 7.24144e-06 0.177779)
(-0.000575641 0.000743952 0.155228)
(0.00102716 0.000794923 0.0562747)
(0.00294982 4.80054e-05 0.100755)
(4.18783e-05 0.00407024 0.037799)
(0.000222312 -0.00167431 0.0538926)
(-0.000288883 0.000883552 0.159811)
(0.000376705 -0.00129257 0.0953434)
(-0.0127418 -0.00153099 0.107732)
(0.000259759 -0.00210696 0.0879101)
(-0.000405795 -5.94693e-05 0.0405001)
(0.00217421 -0.000171602 0.0612378)
(-0.000737639 -0.00176323 0.105865)
(-0.000453546 -0.000108268 0.180269)
(0.000453129 -0.00119408 0.18911)
(-0.000574158 0.000975292 0.190249)
(0.000165803 0.00141297 0.163248)
(-0.0060006 -0.000592825 0.0969331)
(-0.00104593 -0.000234065 0.125409)
(-0.0012247 0.000229995 0.169752)
(0.000793979 0.000234534 0.162676)
(0.00115159 0.000313775 0.165608)
(-0.00273775 -0.00218754 0.054533)
(0.00260465 -0.0011202 0.0210098)
(0.00141197 0.000162632 0.150903)
(0.00107654 0.00253297 0.0372656)
(3.55495e-05 -8.98639e-05 0.0297505)
(-0.00190905 -0.000126091 0.163455)
(0.000384807 9.9425e-06 0.145206)
(-0.00206941 0.00255551 0.0596036)
(-0.000385217 -0.000622637 0.177523)
(0.00044891 0.000762101 0.168761)
(-0.000601648 -4.78445e-05 0.18872)
(-0.00134857 6.61757e-05 0.178101)
(-7.95667e-05 -0.0014913 0.0308784)
(-0.000305362 0.000188619 0.160635)
(-0.00085854 0.000198101 0.182305)
(0.000323398 0.000773759 0.0549409)
(-0.000166964 -0.00099985 0.187451)
(-0.000205328 0.000282364 0.180163)
(0.00073326 0.000502629 0.130127)
(0.000602265 0.000867766 0.121452)
(-0.000352198 -0.00198265 0.153085)
(0.000547599 0.00105548 0.142943)
(-0.000320112 0.000190611 0.0671406)
(-0.000601858 0.00147701 0.0300011)
(0.00034182 0.00244954 0.0330154)
(0.000461018 -0.000320992 0.0918841)
(-0.0126139 -6.76092e-05 0.0862526)
(-0.00735693 0.000763155 0.0746062)
(0.000407852 -0.000397557 0.0802196)
(0.00153351 -0.00131102 0.112499)
(-0.000857528 0.000649856 0.130609)
(-0.00452004 0.000185433 0.159632)
(0.000361922 0.00118913 0.157784)
(-0.000508543 -0.00088511 0.130672)
(7.52436e-05 -0.000574746 0.149318)
(-0.0008934 -7.95039e-05 0.150024)
(-0.000434162 0.00088856 0.029599)
(-0.0226234 0.000817225 0.113927)
(0.000443245 0.00139818 0.055577)
(-0.000900653 0.00151738 0.0388991)
(0.000853276 0.00032995 0.0392883)
(0.000231865 0.000744549 0.163493)
(-0.000490007 0.000295785 0.0913842)
(-0.00126837 0.000501578 0.162125)
(-0.0011962 0.00145795 0.0186266)
(0.000318829 -0.000364932 0.124772)
(0.00109007 -0.0006799 0.0420339)
(-0.000110142 0.000158343 0.167982)
(-0.000513519 0.000602365 0.0453756)
(0.00159697 0.000732583 0.0595461)
(0.000705471 0.00280217 0.10285)
(-0.00157184 -0.0004492 0.151967)
(0.00243686 -0.000227213 0.018305)
(-0.000132821 0.00218964 0.0519495)
(6.90188e-05 -0.000575201 0.13205)
(8.66774e-05 -0.00222567 0.0217937)
(-0.00963153 -0.000287759 0.130865)
(0.000561952 -0.00268102 0.11376)
(-0.000460811 -0.00213884 0.130538)
(0.00225098 -0.00272985 0.091882)
(0.00230078 0.000787333 0.0853931)
(0.000508495 6.711e-05 0.163775)
(-0.0101928 -0.00323062 0.07719)
(-7.86951e-05 -3.56415e-05 0.189077)
(-0.0124785 0.000845395 0.111389)
(-0.00215116 0.00156436 0.0568234)
(-0.000315334 0.00141331 0.0600773)
(0.000281123 -0.000130093 0.184812)
(0.000372698 -9.66705e-05 0.183826)
(0.000591497 -0.000519554 0.0499337)
(-0.000449231 -0.000538203 0.131656)
(-0.00214915 0.000694872 0.0946249)
(-0.000195209 -0.000480703 0.185884)
(0.000426507 -0.000883539 0.185049)
(-0.00101812 -0.00338686 0.0431224)
(-0.000368411 0.0010911 0.131213)
(0.00246726 -0.000246607 0.1454)
(-0.000893376 -0.000296997 0.147987)
(0.00025943 -0.000938668 0.157605)
(0.00232455 -0.00124184 0.020235)
(-0.00258505 -0.000669673 0.0198445)
(-0.00145387 0.00136995 0.12528)
(-0.000144047 -6.89929e-05 0.180413)
(0.00104926 0.000983403 0.187327)
(-0.00216924 0.00116816 0.032482)
(0.00143208 -0.000857524 0.172668)
(-0.00133486 -0.000278119 0.104038)
(0.000177476 -1.93561e-05 0.180866)
(-0.000728593 0.000934483 0.181173)
(0.000292913 -0.000488102 0.187323)
(9.05707e-05 -0.00097098 0.177438)
(-0.000376187 -0.00161888 0.175971)
(0.000285204 -0.00054232 0.0855709)
(-0.000499351 0.00038764 0.184662)
(-0.00174111 0.00211708 0.0534853)
(-0.000451458 0.000359844 0.170213)
(-0.000936562 -0.000618631 0.106433)
(-0.000991834 -0.000484641 0.154552)
(-0.000274523 -2.66577e-05 0.179962)
(-0.000186205 0.000403903 0.148981)
(0.000999929 -0.000983337 0.145149)
(0.00164834 0.00249921 0.0380158)
(0.000869878 -2.99793e-05 0.0318994)
(-0.00180932 -0.00186323 0.0197645)
(-0.0087004 6.03944e-05 0.153343)
(0.00025757 -0.000148699 0.193406)
(-0.000911662 0.000270498 0.139411)
(-0.000165548 -0.000866737 0.124542)
(0.00108464 0.000233628 0.0289426)
(0.000659555 -0.00248144 0.022173)
(-0.000466541 -0.00171008 0.111589)
(-0.000868256 0.00114204 0.154177)
(-0.000443732 -0.000632919 0.18049)
(0.000604917 -4.08921e-05 0.155067)
(-0.00133091 0.000244817 0.133862)
(-0.000250675 -0.000200033 0.192925)
(0.001227 0.000277797 0.133059)
(-0.00102161 0.00213982 0.0247932)
(0.000276143 0.000878614 0.120604)
(0.00252448 -0.00141329 0.0543868)
(-0.00716162 -0.000787039 0.0704799)
(-0.000497899 0.000476956 0.155575)
(0.000444313 -0.000384313 0.090091)
(-6.12669e-05 0.000265877 0.1467)
(-0.00324995 0.00206881 0.0191649)
(-5.82247e-05 -0.000610874 0.184517)
(-0.000129875 0.000205534 0.185867)
(-0.00045002 -0.000571526 0.183035)
(0.00060997 -0.000648642 0.0883617)
(0.000697102 -0.00186335 0.154385)
(-0.000286025 -0.000376115 0.177716)
(-0.000180446 0.000496224 0.119322)
(-0.000442681 7.21976e-05 0.188221)
(-0.00530792 -0.000512712 0.0976251)
(-0.000416254 -3.0265e-05 0.174463)
(-0.002663 0.00125749 0.148851)
(0.00139099 -0.0012198 0.0192295)
(-0.000243251 -0.000312327 0.184086)
(0.00139143 0.00182802 0.114699)
(-0.00281106 -0.00260929 0.0434463)
(-0.00103688 0.00143615 0.0880372)
(-0.000132581 0.000239339 0.170634)
(-7.06348e-05 -0.00123455 0.126662)
(0.000880517 0.00211392 0.0808945)
(-0.00208507 0.00147628 0.0190214)
(-0.00030782 -0.000127009 0.178584)
(0.000584396 0.00244044 0.122624)
(-0.000755273 -0.00013233 0.162699)
(-0.000755708 -0.000224321 0.122044)
(-0.0021151 0.000605379 0.0345084)
(0.00024199 -2.84392e-05 0.140622)
(-0.00390383 0.000317278 0.0257135)
(8.92662e-05 0.00081764 0.165168)
(-0.0119542 0.000601182 0.102281)
(0.001627 0.000456492 0.171808)
(-0.00018836 0.00171084 0.048485)
(-0.00130587 0.00150695 0.102968)
(-4.87695e-05 0.00118918 0.0918733)
(0.00189021 -0.00161625 0.0325466)
(9.37415e-05 -4.75032e-05 0.190892)
(-0.000237107 -0.000615414 0.177298)
(-0.00195557 -0.000770599 0.0202979)
(-0.000548639 0.000109935 0.164695)
(-0.000587733 0.000488794 0.190109)
(-0.000557264 0.00205363 0.03471)
(0.00145245 0.00212636 0.0582737)
(-0.00131964 0.0018908 0.0506739)
(-0.000736978 -0.000218552 0.155242)
(0.000240846 -0.000503606 0.185065)
(-0.00122702 0.00120759 0.032413)
(0.00161038 -0.000742035 0.0504262)
(-0.000185218 0.00104127 0.0532867)
(0.001253 0.00105136 0.112422)
(-0.000194611 -0.000607845 0.187179)
(-0.00251913 -0.00175589 0.0217486)
(0.000895933 0.000265642 0.160635)
(-0.00399939 -0.000789857 0.151949)
(0.000229039 -0.000984979 0.185165)
(-0.00234856 -0.00483039 0.0900998)
(0.000133838 0.000315092 0.170829)
(0.00106566 -0.00206143 0.0211305)
(-0.00137692 -0.000296312 0.165714)
(0.00014695 -0.000340047 0.0253436)
(-0.000359748 -0.00175963 0.0584822)
(-7.24331e-05 0.00125467 0.154983)
(-0.00104201 0.00147371 0.0570364)
(-0.00253931 0.00151433 0.0189479)
(0.000340218 -0.00123346 0.0342486)
(0.000455352 0.00275506 0.0422153)
(0.000758557 -0.00180259 0.0553121)
(-0.000940534 -0.000207162 0.145906)
(1.83045e-05 0.00109429 0.0471859)
(0.00107882 -0.00174062 0.0558942)
(-0.0155374 0.000627207 0.128245)
(-0.000271155 -0.00026245 0.174189)
(0.0014514 1.81086e-05 0.0222229)
(0.000158622 0.00116846 0.104021)
(-0.00851188 -0.00431071 0.0812667)
(4.00733e-05 0.000333113 0.175335)
(-0.00113439 0.000812504 0.0555351)
(-0.000880833 -0.00066873 0.169709)
(0.0012113 0.00244735 0.0539874)
(-0.00063874 0.000740669 0.120967)
(-0.00071161 0.000779914 0.181901)
(0.00245275 -0.00406154 0.0475525)
(0.000144925 -0.000217406 0.179744)
(-0.00319871 -0.00079653 0.0474996)
(0.00242349 -0.00153256 0.0176493)
(-0.000468209 0.000810231 0.146221)
(-1.66e-05 0.000372432 0.185215)
(-0.000975012 0.000623112 0.127711)
(0.000637824 -0.00173655 0.122893)
(0.0007759 0.000153697 0.184395)
(0.0017192 -0.000205069 0.057243)
(0.000736673 -0.000234413 0.170792)
(0.00114285 0.00263712 0.0538105)
(-3.11082e-05 -0.00015485 0.179046)
(0.00171457 0.000856181 0.12395)
(-0.00303883 -0.00204157 0.0259584)
(-0.00131182 0.000231719 0.154484)
(0.00103501 -0.001152 0.0487452)
(0.00115245 0.00220851 0.0241041)
(-0.0014224 0.000590141 0.147794)
(-0.00155051 7.97026e-05 0.0402967)
(-1.21935e-05 -6.716e-05 0.136938)
(-0.000265854 0.000964509 0.185814)
(-6.76215e-05 0.00025649 0.129783)
(8.07483e-05 0.00337418 0.0506457)
(0.000879225 0.000153221 0.184425)
(0.00180672 0.000370843 0.0862769)
(1.28001e-05 0.000151538 0.191902)
(-0.000444138 0.000246783 0.185704)
(-0.000552568 0.00103245 0.186329)
(-0.000643475 0.0004868 0.184485)
(0.00284186 -0.00111058 0.0411039)
(0.000288227 0.000418007 0.0484061)
(0.000858779 6.74025e-05 0.182736)
(0.000531764 -0.00161668 0.163729)
(0.000504239 0.00230283 0.0292639)
(0.000754185 -0.000157817 0.163803)
(2.41049e-06 0.000406273 0.18571)
(-7.62446e-06 0.000418052 0.180993)
(0.00028865 0.000540086 0.18712)
(-0.00176822 0.000631323 0.112903)
(-0.00151831 0.00216651 0.0197646)
(0.000508431 -1.77187e-05 0.181766)
(0.00070605 -0.00123348 0.0967911)
(-0.000583416 0.0012575 0.152744)
(-0.000151579 0.00036856 0.0922874)
(-0.00158718 -0.00104431 0.0268633)
(-0.000255888 -0.000407611 0.187679)
(-0.00210359 0.00263222 0.0878262)
(-0.000164288 -0.000216842 0.131125)
(9.84972e-05 0.000164853 0.190383)
(-0.000558685 0.00152782 0.140415)
(0.00141838 0.00190899 0.0159177)
(-0.00211039 0.00100791 0.0202243)
(-9.5254e-05 0.000732965 0.181453)
(0.00137804 -0.000500338 0.17221)
(-0.00112997 0.000400064 0.191015)
(-0.000903291 -0.00108523 0.153959)
(-0.000321454 0.00146497 0.0883916)
(-0.00048021 0.00108648 0.149423)
(2.94912e-05 0.00102056 0.180423)
(0.000660265 0.00156123 0.0185541)
(-0.000529799 0.000786303 0.18409)
(-0.0151391 0.000878014 0.135025)
(-5.34159e-05 0.00193826 0.0343425)
(-0.000382352 0.00336464 0.0514238)
(-0.000596307 0.000749512 0.14329)
(0.00163924 -0.000794571 0.139605)
(6.32888e-05 -0.000446393 0.136395)
(0.000708061 -0.000571828 0.120949)
(-0.00292165 0.00214755 0.100821)
(0.000442425 4.71787e-05 0.189836)
(0.000638464 -0.00303156 0.0941339)
(0.000240249 -0.00031531 0.179828)
(0.000197557 0.000924632 0.175505)
(-6.18878e-05 -0.000218658 0.191692)
(-5.49768e-05 -0.000161963 0.179979)
(0.00153073 0.00107215 0.0369303)
(-5.03978e-05 8.3066e-06 0.166243)
(-0.000269835 -0.00151217 0.0298507)
(-0.0105808 -0.00143483 0.0944313)
(0.00195719 -0.00137473 0.0560923)
(-0.0133218 -7.26547e-05 0.127245)
(0.000642445 0.000766424 0.128355)
(-0.0195376 0.000457479 0.117474)
(6.96339e-05 0.000651981 0.17481)
(-0.000659608 -6.52465e-05 0.179325)
(-0.00166236 0.000157007 0.155011)
(0.000105422 0.000520844 0.175523)
(-0.000597029 -0.000191974 0.0306231)
(-0.00455815 0.000140648 0.100941)
(-0.0161123 0.00113124 0.112495)
(-0.000187756 -0.000226162 0.182075)
(-0.000788603 0.00214805 0.108545)
(-0.0143638 0.000923923 0.13695)
(-0.0060538 0.000131698 0.157263)
(0.000521212 0.00114953 0.107424)
(-0.00125534 -0.000484344 0.0322137)
(0.0013277 0.00248535 0.0501049)
(-0.000195985 -0.000117288 0.0222062)
(0.00117865 0.00109759 0.0209754)
(-0.000155361 5.28171e-06 0.0315367)
(-0.0112022 0.000272666 0.133623)
(-0.000804051 -0.000712337 0.137771)
(-0.002026 -0.00228333 0.0212978)
(-0.00256032 0.000696867 0.020217)
(0.000252442 -8.61978e-05 0.192241)
(-0.0149137 0.00327737 0.0961429)
(-0.00155049 0.000148469 0.0339642)
(-0.000687596 -1.05968e-05 0.147447)
(-0.0015028 0.000991314 0.101845)
(0.00120524 -0.000421813 0.132454)
(0.00122965 0.00189821 0.0381335)
(-0.00104628 -0.00131838 0.0505857)
(0.000174097 0.00122616 0.107808)
(0.000914662 0.000214418 0.173572)
(0.000574767 0.000511034 0.152676)
(-0.00167737 0.00227863 0.0322066)
(-0.00053459 -0.00190159 0.0216922)
(-0.0189039 0.000200106 0.106234)
(-0.00241853 0.0018124 0.0231754)
(-0.000185094 0.00123104 0.132846)
(-0.00313525 -0.00101463 0.0242951)
(0.000499602 0.00210519 0.100393)
(-0.00127906 -7.62283e-05 0.181448)
(0.00117766 0.000198926 0.180517)
(-0.000329937 -0.000888634 0.039661)
(0.000947475 -0.00048279 0.0943482)
(-0.00178306 -0.00022159 0.0320199)
(-0.00315899 -0.000210288 0.0251718)
(-0.00035097 -0.000763357 0.182629)
(-0.00234657 0.00116662 0.0170472)
(0.000574675 0.000309437 0.16875)
(-0.000322179 -0.00228358 0.0435844)
(-0.000264183 0.00134934 0.156181)
(-0.000244863 0.000788846 0.140511)
(0.0029267 0.00117763 0.0195803)
(-0.00100838 -0.00242734 0.0523271)
(9.50805e-05 0.000840407 0.148713)
(-0.000135425 0.00150864 0.0309259)
(0.000514688 0.000354849 0.162222)
(-0.00123848 0.00344462 0.0494263)
(0.000177622 0.000110003 0.1042)
(0.000392634 -0.00014253 0.186747)
(0.00118522 -2.67387e-05 0.0327879)
(-0.00282339 -0.000585433 0.021263)
(-0.00094192 -0.000337173 0.0458527)
(-0.0177764 9.53517e-05 0.110797)
(-0.000593091 -3.28442e-05 0.100169)
(2.87367e-05 0.00346857 0.0513388)
(0.00111303 -0.000240974 0.0800819)
(0.000399659 0.00115225 0.0273644)
(0.000636615 -6.59053e-05 0.188268)
(0.000998083 0.00134114 0.0211678)
(-0.00084346 0.000161823 0.171457)
(2.1606e-05 -0.000246483 0.143806)
(-0.000675397 -4.50104e-05 0.170132)
(-0.00171087 -0.000182329 0.0174109)
(0.000142267 -0.000539056 0.151182)
(-0.000936739 0.000462199 0.0791165)
(-0.000134875 -7.52178e-06 0.158585)
(0.000192727 0.000589918 0.0499228)
(-0.0146167 0.000391791 0.108167)
(-0.0012313 0.000417979 0.160402)
(0.000591353 -8.17855e-05 0.035808)
(-0.000409691 0.000166932 0.192833)
(-0.0204589 0.00237893 0.10887)
(-0.00075208 -0.000426163 0.115333)
(-0.000694316 -0.00166902 0.0296672)
(-0.00116415 0.00227664 0.0458271)
(-0.000212828 0.000305716 0.185854)
(0.00114118 -0.00090039 0.130304)
(-0.00101667 0.00120939 0.0288422)
(-0.000197896 -0.00219399 0.106773)
(0.0013611 0.00114008 0.0561343)
(-0.00148671 0.00175771 0.0219305)
(-0.000435984 9.12139e-05 0.182327)
(-0.0100982 0.000487296 0.103344)
(-0.000973834 -0.00211835 0.128546)
(-0.000105487 0.00059991 0.175827)
(0.000561606 0.000735349 0.180324)
(2.48283e-05 -0.00020097 0.171599)
(0.000763416 -0.000370955 0.130607)
(0.00101057 0.00034693 0.0393807)
(-0.000461135 0.00242778 0.0361609)
(-0.000254656 0.00072628 0.185045)
(-0.0127956 -0.000551054 0.107584)
(0.000193246 0.00109681 0.11837)
(0.00147475 -0.0012853 0.125607)
(0.00184324 -0.000926579 0.0769599)
(-0.000626482 0.00148957 0.147895)
(0.000680953 0.0009491 0.164743)
(-0.000917156 -0.000955546 0.0951658)
(-0.00154935 0.0010758 0.100171)
(-0.00138086 0.00190135 0.0353904)
(-0.00047649 -0.000295559 0.0671906)
(-0.00243973 -0.00187754 0.0389447)
(0.000970944 -0.000927708 0.151709)
(0.00048314 -0.000323129 0.17765)
(-0.000810234 0.00268265 0.0898277)
(-3.93422e-06 -0.000998172 0.0947928)
(0.00109012 -0.00165422 0.0189123)
(0.000227214 -0.000728623 0.0747688)
(-0.00263313 -0.00124189 0.0534962)
(-0.000916097 0.000449387 0.178732)
(0.000954792 0.000212623 0.181315)
(-0.0112921 -0.000730938 0.104824)
(-0.00102131 0.00056172 0.16445)
(-0.0014332 0.00258989 0.0774617)
(-0.00832949 0.000379915 0.101708)
(0.000732024 -0.00213065 0.131117)
(0.00160472 0.000795632 0.0232763)
(0.000555518 -0.000402752 0.181338)
(-0.000165411 0.00127766 0.0458153)
(-0.00135368 -0.00021643 0.138607)
(0.0032357 -0.00168517 0.0254652)
(0.000630503 -0.000293987 0.177447)
(-0.00507103 -0.000291743 0.101647)
(-0.000781727 -5.58544e-05 0.158757)
(0.000533141 -0.000437135 0.111946)
(-0.000613691 0.000800315 0.146115)
(0.000227446 0.00137503 0.14949)
(-0.000536188 -0.000179253 0.189004)
(0.000196838 0.00192111 0.031315)
(-6.69298e-05 -0.00109622 0.0433185)
(-0.000293896 0.00065063 0.0261115)
(-0.000247821 0.00084792 0.18015)
(0.000463915 -4.14923e-05 0.158083)
(0.00140471 0.000799386 0.134956)
(0.000768381 -0.0013128 0.160287)
(0.000217032 -0.000566805 0.0190055)
(0.000105086 0.000325734 0.0942217)
(0.00157227 -0.00143376 0.0850574)
(-0.000644211 -0.000259775 0.179336)
(-0.000925383 -6.527e-05 0.124434)
(8.33831e-05 -0.000559016 0.145189)
(-0.0012644 0.000432593 0.102487)
(-0.000292713 -0.000179845 0.184585)
(-0.00253662 0.00184666 0.018735)
(0.000337358 0.00333789 0.0811349)
(-0.000636994 0.000400216 0.152743)
(-0.000171623 0.00282148 0.0234525)
(0.000358937 0.00206117 0.0411254)
(-0.0010275 -0.000445544 0.057571)
(-0.00218172 -0.00094993 0.0194449)
(0.00136957 1.2253e-06 0.0907933)
(-0.000155417 0.000356489 0.170985)
(-0.00062719 0.00219243 0.0563691)
(0.00209211 0.00183294 0.0172454)
(-0.000358104 -0.000815011 0.100291)
(0.000370108 9.18614e-05 0.023476)
(2.91855e-05 0.0013655 0.0944479)
(-0.0001736 0.000134428 0.176827)
(3.80827e-05 -2.22833e-05 0.191784)
(0.000157604 -0.000230084 0.176086)
(0.00048919 0.000688338 0.165352)
(-0.000212003 -0.000198132 0.178287)
(-0.000807524 0.00212101 0.127833)
(0.00090449 -0.00102929 0.0428668)
(0.000543367 -0.000271969 0.178969)
(6.28894e-05 -0.00104302 0.121136)
(-0.000846894 -0.00153646 0.0840542)
(-0.00153039 -0.000557236 0.0924435)
(-0.000454892 -0.00013315 0.165218)
(-0.00127665 0.000644437 0.112122)
(0.00088271 0.00134665 0.061131)
(-0.00123832 -0.00101775 0.155029)
(0.000387979 -0.00119203 0.0304278)
(0.0005109 0.000345275 0.0830987)
(0.000281497 -0.000171696 0.0922868)
(-0.000742666 0.000679603 0.0568947)
(-0.000145224 -0.000192078 0.161509)
(-0.0184102 -0.000498211 0.106007)
(-0.00968891 0.000365154 0.127219)
(-0.00055117 0.00259238 0.0296311)
(0.00168571 -0.000264365 0.0240523)
(-0.000141711 0.00223216 0.0522791)
(0.00186918 -0.000415093 0.0186017)
(-0.000619545 0.000595156 0.124332)
(0.000703345 0.0010492 0.15466)
(-0.00114866 0.00132731 0.12638)
(-0.0153396 0.00120226 0.110211)
(-0.000167201 -0.000270496 0.132464)
(0.000678177 0.000549678 0.146853)
(0.00390474 0.0028078 0.022981)
(-9.02332e-05 0.000786105 0.158309)
(-0.0131501 -0.000369717 0.12757)
(-0.00124739 -0.000346179 0.0405678)
(0.00254137 0.00233202 0.0200167)