/*--------------------------------*- C++ -*----------------------------------*\
| =========                 |                                                 |
| \\      /  F ield         | OpenFOAM: The Open Source CFD Toolbox           |
|  \\    /   O peration     | Version:  2406                                  |
|   \\  /    A nd           | Website:  www.openfoam.com                      |
|    \\/     M anipulation  |                                                 |
\*---------------------------------------------------------------------------*/
FoamFile
{
    version     2.0;
    format      ascii;
    arch        "LSB;label=32;scalar=64";
    class       volScalarField;
    location    "28";
    object      epsilon;
}
// * * * * * * * * * * * * * * * * * * * * * * * * * * * * * * * * * * * * * //

dimensions      [0 2 -3 0 0 0 0];

internalField   nonuniform List<scalar> 
59516
(
0.0186206
0.0180206
0.014814
0.0138212
0.00956372
0.345514
0.0131388
0.0172452
0.0159017
0.0366093
0.00904492
0.0346803
0.0149619
0.111695
0.0311878
0.036304
0.00918227
0.0424667
0.0177469
0.00913182
0.0423571
0.0108812
0.0100705
0.0501642
0.00977048
0.0278953
0.0493605
0.0517774
0.0306032
0.0864657
0.0461881
0.0469229
0.0126465
0.0160066
0.012807
0.0106244
0.081156
0.0481162
0.0220348
0.00978358
0.0174802
0.0112901
0.0108273
0.0197638
0.0113141
0.0369327
0.0130878
0.00919756
0.0128553
0.0109419
0.0271776
0.0407716
0.0140241
0.0136711
0.0363433
0.0139354
0.0111388
0.0432485
0.00922655
0.0142091
0.0108183
0.066598
0.00969415
0.00943974
0.0137257
0.0116012
0.0838533
0.0411568
0.020379
0.012788
0.0405198
0.00998288
0.0640846
0.0116874
0.00858129
0.00978017
0.00930365
0.0109237
0.0381771
0.011114
0.0474569
0.0118079
0.0128727
0.0716785
0.0118959
0.00877069
0.0502369
0.0101949
0.0342097
0.0284112
0.010736
0.0123469
0.00880625
0.0127575
0.0102435
0.0108912
0.0123001
0.0376405
0.0376167
0.0110454
0.0404928
0.0631755
0.0632938
0.033848
0.0126856
0.0115677
0.0478596
0.0175359
0.01832
0.0274036
0.0205942
0.0356649
0.0297546
0.0309305
0.00956986
0.0203286
0.0318466
0.0132533
0.0609405
0.0110399
0.00849959
0.00990879
0.0100469
0.00986224
0.0163621
0.0243418
0.0602736
0.0143979
0.0825364
0.0086041
0.0085681
0.015958
0.0615522
0.0102081
0.017716
0.014629
0.0381374
0.011958
0.0431777
0.0200597
0.0391293
0.00850732
0.0823679
0.0142535
0.00899594
0.0110679
0.0118103
0.0161826
0.254041
0.0161619
0.0189247
0.0467448
0.00905697
0.0100826
0.0215329
0.0931759
0.0150312
0.0145943
0.0245253
0.080233
0.0283926
0.0268447
0.0512087
0.0945544
0.0188993
0.00886825
0.0288681
0.00862099
0.0724697
0.0127949
0.0236054
0.0396717
0.025944
0.0122278
0.0380602
0.0130508
0.00976583
0.0106282
0.0263918
0.0494835
0.0107413
0.0588606
0.080474
0.0322475
0.00871816
0.0342666
0.0512974
0.0741395
0.0139877
0.0193051
0.0128003
0.0370465
0.00923033
0.03294
0.00973883
0.05718
0.036462
0.0462841
0.0170729
0.00978538
0.025831
0.00864011
0.0173713
0.0787806
0.0132602
0.0110961
0.00843624
0.0110254
0.0787124
0.0157917
0.0410262
0.0731167
0.0114875
0.0352524
0.0154908
0.00925962
0.0113135
0.00978136
0.0361534
0.0102857
0.0364777
0.0172849
0.010112
0.0428531
0.00956551
0.00927063
0.0419222
0.0378025
0.0091615
0.0339177
0.00900857
0.00919196
0.00867374
0.0512239
0.0519397
0.0481335
0.0333975
0.0178576
0.010291
0.0386911
0.00847797
0.0735403
0.0355653
0.0656417
0.00861885
0.0210534
0.0111205
0.0263705
0.00890728
0.0173274
0.00926651
0.0115885
0.00846161
0.0110948
0.0109284
0.00962317
0.037753
0.0105451
0.0382595
0.0313052
0.0130213
0.00981818
0.0156013
0.0086717
0.0197923
0.0350272
0.00985524
0.0211607
0.03416
0.0386975
0.0207894
0.00942151
0.0175836
0.0210386
0.00949443
0.0207118
0.060496
0.00950923
0.0481126
0.0411898
0.00875494
0.0119679
0.0563774
0.0148529
0.0138388
0.00925679
0.00870967
0.0592304
0.0087699
0.0086294
0.00931245
0.0128712
0.0126636
0.0198946
0.00896586
0.0365901
0.00989638
0.0109926
0.00859144
0.00934879
0.0143819
0.03221
0.0616629
0.0368607
0.00919296
0.0761579
0.0253386
0.0386223
0.00907852
0.00838315
0.0096598
0.0325445
0.0177889
0.0438771
0.0407191
0.0104041
0.0192999
0.0118623
0.0221037
0.0440559
0.0290171
0.0176777
0.00906753
0.00858593
0.008632
0.009725
0.0244075
0.0133424
0.00983826
0.0102293
0.00965738
0.0325803
0.0631662
0.0109434
0.0379326
0.0518882
0.00982317
0.0117732
0.0365279
0.00934137
0.00939979
0.0087808
0.00917708
0.0475181
0.0098604
0.00930405
0.0357753
0.00870683
0.00929426
0.013142
0.0136968
0.0107612
0.0110669
0.0304415
0.0578983
0.0426664
0.0193496
0.0542034
0.0983244
0.0266696
0.0162996
0.0120728
0.00907162
0.00967985
0.0123747
0.0109835
0.0112816
0.0501401
0.036347
0.035791
0.0423535
0.0442145
0.0103895
0.0195298
0.00992048
0.0694763
0.0135194
0.0438216
0.00987265
0.042808
0.0302175
0.0164986
0.00908419
0.0736021
0.0331881
0.0126542
0.0568064
0.0155505
0.0161448
0.0121497
0.020973
0.0211577
0.00954605
0.0694566
0.00873827
0.0297512
0.0281372
0.0289041
0.00881519
0.00863145
0.0389208
0.0122707
0.0202614
0.00869378
0.00876498
0.0342205
0.0134687
0.0109379
0.0109014
0.0102112
0.0604642
0.0631386
0.0128833
0.00892931
0.00865961
0.0477866
0.00983417
0.0157054
0.00917513
0.00871672
0.00844719
0.009228
0.00926931
0.0215134
0.00902022
0.0295391
0.00961088
0.0173226
0.010816
0.00911399
0.0109235
0.0115075
0.0418936
0.0511984
0.0671755
0.0103132
0.00823349
0.012169
0.0133297
0.0512863
0.0682583
0.0158768
0.0110071
0.00906116
0.0100298
0.0114889
0.00826496
0.0115531
0.047975
0.0138492
0.0350713
0.116449
0.0104451
0.0194008
0.0113498
0.0716146
0.00868197
0.0086668
0.00916526
0.0218171
0.011063
0.0092098
0.0143959
0.00888396
0.0222408
0.00919987
0.0108079
0.0639282
0.00886175
0.015293
0.0356814
0.0204821
0.00933145
0.0131104
0.025288
0.0667659
0.00897052
0.0128914
0.00971716
0.0133238
0.0456773
0.0114588
0.0706002
0.00992727
0.0170185
0.0095484
0.0334477
0.0175247
0.0195312
0.0458752
0.00845885
0.00948703
0.0760598
0.0096155
0.00863284
0.045203
0.029489
0.0316949
0.0103948
0.00894098
0.0982328
0.037227
0.0347604
0.0163182
0.00881049
0.0576303
0.00970914
0.0106226
0.00882097
0.11427
0.00886062
0.0530352
0.00931683
0.0657295
0.031608
0.0110763
0.0321465
0.0698575
0.0479808
0.0335997
0.0350437
0.010563
0.039493
0.0292447
0.0132608
0.00958587
0.0443046
0.0161767
0.0699136
0.00902135
0.0375349
0.0101146
0.0365093
0.0142204
0.00909412
0.0352642
0.00925943
0.0594106
0.0838639
0.0107381
0.00873427
0.0134812
0.0138518
0.00850747
0.0323503
0.00906346
0.0318099
0.0093198
0.0135653
0.0463984
0.00984591
0.0341638
0.046268
0.0105967
0.0432826
0.012162
0.00883267
0.0125763
0.0329866
0.00849365
0.0230364
0.00838477
0.00855947
0.00858506
0.00882434
0.0406033
0.0371674
0.00886489
0.00998512
0.0559534
0.0099456
0.00833873
0.00853727
0.00842682
0.0150837
0.0724137
0.00874244
0.0184646
0.010983
0.0187449
0.0420344
0.00886852
0.0221464
0.0116982
0.00836388
0.0117318
0.0838377
0.064964
0.00906733
0.0098413
0.00859902
0.0112475
0.0220589
0.0115713
0.00898421
0.0569416
0.00895512
0.0151342
0.0463226
0.0297617
0.0107572
0.0116973
0.0123129
0.0141465
0.0183768
0.00851275
0.0211123
0.00871724
0.00924968
0.00837069
0.00894686
0.0424153
0.00928907
0.0556498
0.0955072
0.03145
0.011611
0.0121024
0.030562
0.00953326
0.00862638
0.0100361
0.00912671
0.049842
0.0104563
0.0145536
0.0088815
0.0163037
0.0141095
0.00942706
0.0157102
0.043585
0.0375026
0.0415777
0.0730741
0.046076
0.0140665
0.0119531
0.0804942
0.0694687
0.00852147
0.0666592
0.0485105
0.0114508
0.016672
0.0127604
0.0478077
0.0359084
0.0162246
0.00926986
0.0105847
0.0521739
0.0535388
0.0597216
0.0545766
0.0118486
0.0526731
0.0186132
0.00908547
0.00854193
0.0416685
0.0186146
0.0503277
0.0569353
0.00907827
0.0792777
0.00973398
0.0351451
0.0103829
0.0117641
0.0681478
0.0347233
0.0112112
0.0461852
0.0103252
0.0384035
0.0171873
0.00881216
0.0466928
0.0628969
0.0360434
0.0192023
0.0183843
0.0378207
0.0250997
0.0606907
0.00876885
0.0466905
0.00891821
0.0109732
0.00967837
0.0800475
0.0102095
0.022538
0.00986163
0.0402352
0.0142224
0.00954753
0.0453979
0.00841355
0.0296356
0.0139769
0.0534255
0.0336093
0.00887011
0.0126271
0.0506863
0.0150962
0.0313424
0.0567113
0.00899231
0.0121921
0.012428
0.00934524
0.00912984
0.0094791
0.0122687
0.0371126
0.0405768
0.0086404
0.0126981
0.0154659
0.0131354
0.0267877
0.0106738
0.00994864
0.018597
0.0180236
0.0494281
0.0227366
0.0500319
0.010729
0.00882686
0.0216033
0.0185983
0.0711291
0.0265557
0.0372334
0.00932522
0.00902383
0.012849
0.0102088
0.0260097
0.0160363
0.0123683
0.0682398
0.00904468
0.0404871
0.0121382
0.0588518
0.00902461
0.0106691
0.0103468
0.0156771
0.0116211
0.0109166
0.0088058
0.043731
0.0330285
0.062266
0.00930324
0.0102787
0.0129319
0.0095968
0.0983497
0.0187632
0.0221028
0.00918998
0.0135952
0.0118396
0.0185485
0.00894693
0.0669741
0.0243644
0.011263
0.0451382
0.0391758
0.0299275
0.0693503
0.0219135
0.00986432
0.0306971
0.0759383
0.0173105
0.0399321
0.0180022
0.00910593
0.00852527
0.00933472
0.00951114
0.0091384
0.0123667
0.0517231
0.00892785
0.0132254
0.0233128
0.0188775
0.00965973
0.0150383
0.0281706
0.00996637
0.0470934
0.0219907
0.0212508
0.0304839
0.0102837
0.0428134
0.0175649
0.051943
0.0595435
0.0327003
0.0694078
0.0133567
0.0111747
0.0135611
0.0318367
0.0132917
0.0118312
0.0649918
0.0107893
0.0110216
0.0418041
0.0673954
0.0159205
0.0160024
0.054061
0.00972105
0.0648051
0.00911352
0.0106512
0.0144645
0.0104226
0.0101659
0.0180739
0.00901739
0.0943394
0.0508966
0.019213
0.0192515
0.0781332
0.0119119
0.0136273
0.00876687
0.00975742
0.0271052
0.0109388
0.00849693
0.0223322
0.0363368
0.00943741
0.0192593
0.0444265
0.0100474
0.00942487
0.0101603
0.0201272
0.0127143
0.0168229
0.0237915
0.0185864
0.0193487
0.0119989
0.0325985
0.0106168
0.00901328
0.00942778
0.0108303
0.0165931
0.0141277
0.0471229
0.0326311
0.0138721
0.0115535
0.0122455
0.00852836
0.0104848
0.0085306
0.00834571
0.230081
0.015605
0.0086559
0.0615208
0.0112498
0.0111647
0.0606698
0.0100962
0.00901556
0.0183209
0.00892426
0.00867922
0.00884767
0.0310856
0.0106886
0.0409122
0.015681
0.00933644
0.0546012
0.0412341
0.0339906
0.0143971
0.0417968
0.0109533
0.00921203
0.00945264
0.00976972
0.02318
0.03176
0.0104
0.00938416
0.0153382
0.0238604
0.0105588
0.00892298
0.0085015
0.0501382
0.00879193
0.0204097
0.0260899
0.0492596
0.034752
0.0220294
0.00914128
0.0387
0.00952508
0.00932353
0.00967304
0.00891292
0.00957944
0.00838828
0.00900207
0.00877564
0.00976138
0.0120251
0.0146572
0.0476066
0.0398915
0.0101797
0.0131189
0.0498614
0.0095176
0.0180222
0.00867612
0.0086092
0.00884107
0.0115471
0.0223596
0.00884318
0.123784
0.0196825
0.00885608
0.0710156
0.00927011
0.0475345
0.0234266
0.0103379
0.0261155
0.0437852
0.0101406
0.0108297
0.0105609
0.0462216
0.00949405
0.0468681
0.0215347
0.0298687
0.033302
0.0186319
0.00861282
0.030935
0.0105134
0.0096769
0.0164295
0.00868523
0.00853327
0.0155134
0.00831854
0.00949772
0.0274477
0.00864849
0.0341754
0.0491908
0.0100779
0.0106262
0.0366244
0.00890676
0.017077
0.0246233
0.009822
0.0754614
0.00902916
0.00921342
0.0160033
0.0553308
0.0370687
0.0192331
0.0356532
0.0121857
0.0127738
0.0181878
0.0734876
0.0155286
0.00933706
0.0111639
0.00877142
0.00903411
0.0310393
0.0101564
0.0086836
0.0155875
0.0114624
0.0501184
0.015772
0.0104508
0.00843425
0.0293113
0.00999931
0.0211787
0.0165758
0.0625013
0.0154779
0.0236105
0.0444051
0.0149353
0.0427287
0.0102112
0.0169814
0.00891341
0.0689315
0.00834773
0.0209345
0.036535
0.019042
0.0120832
0.0611447
0.0100652
0.010825
0.0379415
0.0872798
0.038522
0.00848011
0.0110386
0.00934874
0.0185248
0.0398609
0.0113922
0.0586819
0.0178107
0.00893988
0.0115727
0.0369744
0.0107599
0.0637291
0.0234774
0.0103007
0.00864889
0.0523416
0.0105271
0.0137746
0.0358147
0.00933871
0.0103208
0.00820222
0.0121171
0.0202226
0.0353815
0.00940518
0.0106292
0.063214
0.0444055
0.0344471
0.00885383
0.0202821
0.00980306
0.0397632
0.00903932
0.0476398
0.0123342
0.0185846
0.0093048
0.00904612
0.0112036
0.0124852
0.058618
0.0522296
0.0115619
0.0126782
0.0614187
0.0507071
0.00971184
0.0100222
0.00997145
0.0181166
0.0123582
0.00875286
0.00949834
0.0325671
0.0240897
0.0295854
0.010987
0.0229376
0.05057
0.0481374
0.00882281
0.016514
0.0203462
0.0100349
0.00983251
0.0577398
0.00933425
0.00905903
0.0435204
0.0622902
0.00935168
0.00834927
0.0610523
0.082393
0.00895549
0.0185345
0.0659976
0.0289545
0.00888399
0.00872942
0.00918523
0.0114096
0.00957939
0.0593027
0.0498083
0.00897921
0.00954378
0.0192208
0.0106324
0.0391134
0.0359259
0.0386798
0.0106076
0.0802462
0.0102672
0.0112143
0.0203479
0.0344361
0.0684817
0.00862666
0.00854281
0.0147614
0.00870263
0.0175746
0.0098188
0.0403923
0.0347305
0.212397
0.0167576
0.0118326
0.0182905
0.0366358
0.0219032
0.0152619
0.0114551
0.0197737
0.0105799
0.00903543
0.0179248
0.0361682
0.0553117
0.0100213
0.0591057
0.0152879
0.014207
0.0229478
0.0615658
0.011168
0.0313027
0.080146
0.0666165
0.0129017
0.00874445
0.0133513
0.0129783
0.0240017
0.0166799
0.0630492
0.047753
0.0421514
0.00855778
0.0182775
0.0112532
0.0172004
0.0177195
0.0130753
0.0649295
0.0146504
0.0636451
0.0098466
0.0165423
0.0580735
0.00869611
0.0210487
0.0128271
0.0225681
0.0362918
0.0653538
0.0100094
0.0399417
0.00898517
0.00868178
0.0144388
0.0291315
0.0585878
0.010645
0.0435394
0.0097604
0.00976322
0.0092241
0.0390117
0.00983915
0.00994143
0.0102413
0.00998227
0.0679707
0.0403623
0.00949805
0.0166912
0.0306322
0.00867079
0.0142027
0.0137169
0.018757
0.0481784
0.136597
0.0413668
0.0103617
0.00924302
0.0143643
0.0608327
0.0473188
0.0108195
0.0153303
0.0290148
0.00871314
0.0100933
0.00967356
0.00926738
0.00864963
0.00971754
0.0114065
0.01629
0.0153821
0.0163046
0.0262256
0.0306408
0.00861542
0.0134298
0.0506235
0.0353687
0.00893213
0.0447054
0.0109257
0.0196562
0.00941478
0.0111095
0.0159311
0.00864274
0.00902726
0.00932237
0.0354493
0.0414994
0.00922608
0.00851912
0.0649674
0.023425
0.0141536
0.00931849
0.0120862
0.080415
0.0185416
0.0127209
0.02447
0.00874691
0.01477
0.0705796
0.013786
0.0586636
0.0208779
0.0787571
0.0100008
0.0104157
0.0089164
0.0692075
0.0360432
0.0228436
0.0101247
0.0399653
0.0388703
0.0207653
0.00914381
0.0491522
0.0083472
0.0101547
0.0301895
0.0313015
0.0403605
0.00933947
0.00855839
0.011161
0.0147322
0.019378
0.0181313
0.0196256
0.0565463
0.0549628
0.0457326
0.0215024
0.00864637
0.0502662
0.0822381
0.0385129
0.0606265
0.0107808
0.0583032
0.00899201
0.00884315
0.0109791
0.0297213
0.00941093
0.0492538
0.03239
0.00856299
0.00923045
0.0147956
0.00994291
0.00947222
0.0661844
0.0127883
0.0107298
0.00936408
0.0208528
0.0103165
0.00861954
0.0179108
0.045918
0.0586902
0.018315
0.00872147
0.0542481
0.0242902
0.00902158
0.0458839
0.0502661
0.0191353
0.0497922
0.0282679
0.0674477
0.0385509
0.0495726
0.0722429
0.046024
0.0749767
0.0174066
0.0247973
0.00886532
0.0711134
0.00894626
0.0133888
0.0107976
0.0150545
0.0110884
0.0510406
0.00972197
0.0107834
0.0207417
0.0086193
0.0128827
0.0849236
0.0155771
0.0231682
0.0509293
0.0537666
0.0118538
0.0213289
0.0585999
0.0114773
0.0123127
0.00887392
0.00975834
0.0406499
0.0152389
0.02349
0.0126223
0.0119054
0.011433
0.00944493
0.0210477
0.0103799
0.0127989
0.0117864
0.0176432
0.0171436
0.0145121
0.0222803
0.00890062
0.0131284
0.0494002
0.0116518
0.0533947
0.123451
0.0363078
0.0116478
0.0123237
0.00934722
0.0104638
0.0156857
0.0257807
0.0161114
0.0758084
0.0636658
0.0611102
0.0355238
0.0380295
0.00935512
0.0398487
0.0156779
0.0572186
0.0540869
0.00853869
0.0357484
0.0105231
0.013313
0.00968748
0.0465801
0.0407573
0.0139836
0.011043
0.0725097
0.0115863
0.0337386
0.017701
0.00897484
0.0102251
0.00902701
0.018917
0.0195418
0.0233517
0.0295157
0.0469605
0.0401632
0.0561089
0.0168662
0.00939193
0.0266581
0.0332506
0.0183735
0.0103719
0.010964
0.0354364
0.0123828
0.0585873
0.030522
0.0111798
0.0393493
0.0242321
0.0203145
0.0147485
0.0173851
0.011079
0.0208112
0.0186137
0.00977537
0.0166463
0.009906
0.0640542
0.065162
0.0138496
0.0177588
0.0107761
0.0170611
0.0195305
0.0706593
0.0128525
0.0129779
0.0115247
0.0212153
0.0446364
0.0347788
0.042303
0.0142147
0.0310593
0.0177115
0.0655323
0.0152216
0.0426182
0.0250108
0.00924613
0.0356992
0.0104542
0.0102226
0.0464193
0.0567768
0.0149243
0.0827889
0.0105179
0.00979145
0.0230282
0.0116702
0.0222555
0.0149008
0.052395
0.017182
0.0140148
0.0084163
0.0809736
0.0101348
0.0135996
0.0248767
0.0122255
0.0486839
0.0101104
0.0526348
0.0110565
0.0139356
0.0115368
0.0122861
0.0431166
0.0641846
0.00928674
0.00883968
0.0442046
0.0175062
0.0525952
0.0130525
0.0335293
0.0714063
0.020117
0.011218
0.0223869
0.00873108
0.0156723
0.0112966
0.0535279
0.00874957
0.0491321
0.0255588
0.00896644
0.00885067
0.0142213
0.0656502
0.0398918
0.00872777
0.00872733
0.0121816
0.0107294
0.0111648
0.0919645
0.0116395
0.0123352
0.0129679
0.0379492
0.0129082
0.009179
0.013546
0.00933482
0.00879925
0.0339948
0.0101017
0.0413077
0.0108933
0.020951
0.0135006
0.0106317
0.00913643
0.00910605
0.0484493
0.00846846
0.0356758
0.057377
0.0138534
0.0380423
0.0104871
0.0694225
0.0372247
0.0378544
0.0247856
0.0144466
0.0522864
0.0522095
0.0117415
0.0207329
0.00906669
0.0187238
0.0636991
0.0225445
0.0441781
0.0165241
0.011023
0.0367705
0.0110877
0.00905348
0.0100711
0.00978564
0.00897727
0.0101226
0.00897245
0.0106915
0.0354345
0.0745809
0.0112601
0.0754849
0.0139475
0.0142467
0.0235376
0.00864918
0.013424
0.0457729
0.00843188
0.0420425
0.0194685
0.0314477
0.0124017
0.00851876
0.0244685
0.0177546
0.043118
0.0142326
0.0143336
0.0222576
0.0120771
0.0827435
0.0576887
0.00872143
0.0136678
0.009301
0.0185506
0.0943071
0.0086093
0.030872
0.00831747
0.0103055
0.0503511
0.010244
0.00944804
0.049549
0.0357191
0.00856173
0.0194706
0.0626792
0.0101368
0.0351513
0.0620369
0.0206732
0.00895621
0.00877743
0.0116269
0.00949369
0.0110638
0.00885604
0.0159334
0.0178677
0.00902394
0.0112694
0.0737732
0.0469443
0.0141892
0.00948341
0.0149029
0.0657278
0.0582806
0.0111384
0.0417513
0.0106261
0.00955759
0.00862688
0.0413743
0.025095
0.00909278
0.0164937
0.011082
0.0118565
0.0340011
0.0521549
0.0091299
0.0577262
0.0283465
0.0502717
0.0418903
0.00943619
0.00878097
0.0112571
0.0174322
0.0206919
0.0216593
0.00939703
0.0110896
0.0368699
0.00839327
0.0102279
0.00985981
0.0588045
0.014163
0.0607566
0.0214039
0.0404057
0.0101317
0.0115216
0.0117716
0.0529658
0.0234492
0.0316024
0.0780405
0.0106739
0.0617906
0.0349697
0.00925339
0.0094576
0.00862661
0.0455001
0.0169425
0.0384565
0.00880121
0.0100793
0.00920803
0.00905162
0.0427121
0.0112129
0.0151857
0.00873282
0.00952465
0.00935803
0.00967519
0.00872201
0.0704928
0.0429386
0.0153589
0.00856566
0.0111808
0.0442623
0.00899474
0.0333166
0.013933
0.0114217
0.0232461
0.0297281
0.0337144
0.0796337
0.0101096
0.0109453
0.0351931
0.0148329
0.0736015
0.0106323
0.00840805
0.0659919
0.0142683
0.0129573
0.00963053
0.0928436
0.0776138
0.0539676
0.0294358
0.0320024
0.0623944
0.0539643
0.0758816
0.0235603
0.0096297
0.0126725
0.0102046
0.0138669
0.0667334
0.00968921
0.015814
0.0817774
0.0789909
0.0518742
0.0225123
0.0421017
0.0102152
0.0157561
0.00857223
0.0114438
0.0425746
0.0225896
0.0103302
0.00877917
0.010979
0.00955203
0.00953127
0.0383741
0.017292
0.0104765
0.00975518
0.0869196
0.0162015
0.0173211
0.0133144
0.0150066
0.00873832
0.034189
0.0506768
0.0696982
0.019016
0.00852238
0.00835706
0.0103282
0.0313323
0.0165896
0.0388897
0.0193192
0.00971238
0.0416792
0.033026
0.00908071
0.0114977
0.0103216
0.00987678
0.022405
0.0288854
0.0112211
0.0185391
0.0143391
0.0115818
0.0131511
0.00955006
0.0240547
0.0115619
0.0719888
0.054099
0.0800834
0.0203232
0.0151793
0.0186975
0.040683
0.0101783
0.041253
0.0338005
0.0704908
0.0149121
0.0085448
0.00936715
0.0699289
0.0332828
0.0411202
0.0595334
0.0344336
0.00869227
0.00848408
0.0537907
0.0458429
0.0347416
0.00900221
0.00845303
0.0115792
0.0203776
0.0102538
0.0110482
0.0197055
0.0469983
0.00826388
0.0114941
0.0115565
0.0142064
0.0112097
0.00929309
0.0272785
0.0144788
0.0290092
0.0108459
0.00911876
0.00912253
0.0815698
0.00941644
0.0613755
0.00958597
0.0105158
0.00936762
0.00974659
0.0364014
0.0642069
0.0368314
0.00907666
0.00878505
0.0137129
0.00928928
0.0576701
0.0213276
0.00976688
0.00881177
0.0164756
0.0441728
0.016671
0.0161675
0.00894963
0.00949933
0.00976343
0.0085608
0.0104409
0.0110187
0.022453
0.00943642
0.00910711
0.0111922
0.0223783
0.0488685
0.0659328
0.0266694
0.0173809
0.00888981
0.00903197
0.0562397
0.0166465
0.0120694
0.0122428
0.0201759
0.00969974
0.0114244
0.0132243
0.00832214
0.0185741
0.0123084
0.0378927
0.0165739
0.0115368
0.0617269
0.0137094
0.0104605
0.0123852
0.00984684
0.00896582
0.0626424
0.00956287
0.0238089
0.00860404
0.0261546
0.00940596
0.012973
0.0211971
0.0141498
0.0642787
0.0133368
0.0407832
0.0459778
0.01123
0.0587039
0.00913649
0.00974935
0.00879307
0.0389209
0.0186509
0.0644187
0.0126175
0.046932
0.0198439
0.0102359
0.00923184
0.00886695
0.0110832
0.0105005
0.00903096
0.0110699
0.0104013
0.0107862
0.0412142
0.0194788
0.00847463
0.00847813
0.033731
0.0110774
0.00973732
0.00910281
0.062044
0.0126095
0.0640623
0.00862764
0.0551981
0.0454573
0.0153323
0.0124882
0.012111
0.0151931
0.0502912
0.00993468
0.0506314
0.0500783
0.0105622
0.0375809
0.0233826
0.0129158
0.0100592
0.0683167
0.0328078
0.0501055
0.00918914
0.0100902
0.0305453
0.00999313
0.0210307
0.0314907
0.00898661
0.0458298
0.012366
0.0108448
0.00944255
0.00931531
0.00905231
0.00864388
0.0143823
0.00823904
0.0103486
0.00922637
0.0177256
0.0198562
0.00847386
0.0259303
0.0106567
0.0111882
0.0104987
0.0118895
0.00864389
0.0122018
0.046059
0.0101913
0.00860124
0.0327928
0.0144489
0.00854589
0.113844
0.0105571
0.00965917
0.0204135
0.0132837
0.0373919
0.0156801
0.00876844
0.0109563
0.0203
0.0333501
0.0324103
0.0134735
0.042982
0.0454035
0.056004
0.0116658
0.00887085
0.00848751
0.0127933
0.0108346
0.0123248
0.0321975
0.0167104
0.00868966
0.00853283
0.008413
0.00856697
0.0580666
0.0845521
0.0731611
0.0284265
0.0109232
0.00910557
0.00860244
0.0222274
0.0106258
0.00965166
0.0686748
0.00866354
0.00998044
0.00866039
0.00913385
0.0275208
0.0375705
0.0144853
0.0388904
0.00968512
0.0113696
0.0194787
0.0106995
0.020133
0.0306482
0.0184444
0.00859151
0.0228147
0.0133059
0.00916869
0.020893
0.0435475
0.00921309
0.0086717
0.0354538
0.0457544
0.0212756
0.0453039
0.00885152
0.0159728
0.0371069
0.00873515
0.00858254
0.00914911
0.0137518
0.00997866
0.0104038
0.0103192
0.0113877
0.0230647
0.0114391
0.0281704
0.0248538
0.0369406
0.00892175
0.0154897
0.0103193
0.0119201
0.0207161
0.018258
0.0685627
0.0183181
0.06857
0.0207428
0.0116259
0.0099116
0.00905776
0.0101822
0.0494269
0.0393455
0.00941468
0.0245807
0.0295059
0.0131625
0.0415521
0.00888709
0.0107506
0.00959904
0.0154613
0.00924345
0.0144634
0.0104915
0.0463856
0.00937187
0.0496759
0.0521787
0.0302735
0.0122702
0.0150166
0.00854716
0.0506749
0.00915847
0.0104908
0.0187905
0.0244995
0.0219417
0.0437316
0.0329519
0.0442767
0.0302832
0.00836962
0.0369458
0.0108461
0.0327215
0.0732656
0.0200915
0.0423445
0.0862611
0.0666542
0.0122659
0.015467
0.00951408
0.0304849
0.00838018
0.0488616
0.0161334
0.0321049
0.0107824
0.00980593
0.0706246
0.0128547
0.0101384
0.0106897
0.0128105
0.0130384
0.00946241
0.0102708
0.00972752
0.0114908
0.0481795
0.0217792
0.0390891
0.0102878
0.0586627
0.0219707
0.0104555
0.0270164
0.0164807
0.070354
0.0164937
0.0185953
0.0086904
0.0144146
0.00903652
0.0119856
0.00911069
0.0120568
0.00834611
0.0360969
0.0361461
0.00990039
0.00995297
0.0122753
0.0106129
0.00966856
0.0112688
0.0104966
0.0493034
0.0100486
0.00876492
0.052314
0.0135234
0.050949
0.0131333
0.0292188
0.0403746
0.00983361
0.0437656
0.0509627
0.0663552
0.0550879
0.047445
0.00890718
0.0143522
0.00849856
0.0122265
0.032975
0.00982972
0.00863784
0.0094846
0.0667184
0.0108887
0.0160174
0.0150927
0.0102132
0.055669
0.0520902
0.0108834
0.0472876
0.00899013
0.0396936
0.0144223
0.0283488
0.00845961
0.00854625
0.0102239
0.0433023
0.0648439
0.0476846
0.00968578
0.0328165
0.0851678
0.0153816
0.0202646
0.0548878
0.0193521
0.0347057
0.0130675
0.0107483
0.00906685
0.0108728
0.110894
0.0169499
0.0629766
0.0085322
0.0105778
0.0142105
0.0100698
0.0209666
0.0164088
0.0651241
0.0113406
0.0187789
0.00882165
0.00879725
0.0343549
0.079827
0.00896349
0.0098484
0.00933251
0.0297817
0.0119339
0.0651942
0.0457084
0.0404757
0.00951855
0.0536479
0.0161008
0.0760487
0.0385851
0.0116553
0.0373471
0.0477461
0.0507597
0.0107417
0.0109249
0.00913914
0.0358615
0.0135672
0.00907353
0.0143082
0.0145381
0.0112388
0.00940387
0.00905307
0.0653742
0.0104863
0.0166408
0.0285953
0.0399599
0.00907629
0.0093039
0.0195435
0.011656
0.0775103
0.0155502
0.0135231
0.0713205
0.00980723
0.00946383
0.0110688
0.0341439
0.00887283
0.03725
0.00847794
0.0331603
0.0674553
0.00860477
0.00953775
0.0304286
0.0110505
0.00941548
0.00909502
0.00882227
0.0344291
0.0525646
0.00925323
0.0110766
0.0110084
0.0101889
0.0376735
0.0123896
0.0348581
0.0300307
0.00952493
0.00875673
0.0185371
0.011051
0.0150889
0.0462486
0.0678562
0.00849693
0.00997174
0.0377212
0.054351
0.022799
0.0109076
0.0115015
0.0677025
0.0208212
0.0103481
0.0092955
0.00967332
0.010741
0.0159389
0.00868049
0.0100681
0.00961913
0.0221205
0.0526902
0.0670932
0.0146819
0.016905
0.0111588
0.0100711
0.0093754
0.00956143
0.00907704
0.00995339
0.010183
0.009467
0.0189626
0.0102016
0.010254
0.0203649
0.0100494
0.0192824
0.0529061
0.0141038
0.0126547
0.012666
0.013347
0.0125043
0.0214565
0.0372362
0.0109511
0.0103959
0.0115688
0.0146775
0.0587415
0.0105661
0.0178755
0.0625489
0.0117495
0.0507251
0.014334
0.0105767
0.0114319
0.0122017
0.0157315
0.0451022
0.0609208
0.0717766
0.00872247
0.0377182
0.0100731
0.00968651
0.0416961
0.00841984
0.0196569
0.00842179
0.0150349
0.0145891
0.0260026
0.00835707
0.00865803
0.0786988
0.00979775
0.0466029
0.0795427
0.0124095
0.0294384
0.00919347
0.00950967
0.00882424
0.0182495
0.0233597
0.0115024
0.0097145
0.0110964
0.0350011
0.0593059
0.0149021
0.010073
0.0161916
0.00889501
0.0228669
0.0195951
0.00948297
0.0091884
0.00938273
0.0210446
0.0167206
0.0225036
0.0124198
0.010967
0.0160123
0.0176946
0.0475096
0.0105061
0.0111186
0.00980683
0.00969684
0.0108695
0.00863309
0.0440238
0.0136333
0.025109
0.0348854
0.0100341
0.0238808
0.0087171
0.00937206
0.0107982
0.0646754
0.0184433
0.0113357
0.00906003
0.0315646
0.0100207
0.0245285
0.0122891
0.0232418
0.0160086
0.0100241
0.00936051
0.0812712
0.0118556
0.00918881
0.0102269
0.0206371
0.0102832
0.00994771
0.13297
0.00839042
0.0413552
0.0107626
0.00904858
0.00946824
0.0153698
0.0200463
0.0260413
0.0330605
0.0473215
0.00919613
0.00898366
0.0918797
0.043621
0.010973
0.0119407
0.0355143
0.0173344
0.0111656
0.0117564
0.011229
0.0682071
0.00981746
0.0236594
0.0410146
0.00925006
0.0348751
0.0226568
0.0605756
0.0403206
0.0228646
0.0354974
0.0142554
0.0340405
0.0160409
0.0478868
0.0627111
0.0135131
0.0528562
0.0322369
0.0111161
0.0550423
0.0107008
0.0337429
0.0279821
0.0352523
0.00898483
0.0546049
0.0495972
0.0127041
0.0108675
0.0135202
0.0382771
0.0130581
0.0219705
0.0137996
0.0297905
0.0187672
0.0083981
0.019136
0.00891779
0.0126652
0.0121478
0.00932517
0.0809896
0.0134674
0.0149033
0.0103016
0.0566984
0.014325
0.0815088
0.0190283
0.0198348
0.00948444
0.0102828
0.0152141
0.0108366
0.0207696
0.00873726
0.00996219
0.0238174
0.00845832
0.0294179
0.0100877
0.0129725
0.0312393
0.0153696
0.0293453
0.00915037
0.0115407
0.0305603
0.012677
0.0141741
0.0714716
0.00973469
0.066939
0.0391966
0.0158026
0.0108751
0.0117731
0.0355305
0.00920054
0.00987108
0.0178386
0.0330255
0.0223749
0.0506805
0.0113486
0.0210535
0.012745
0.0209396
0.00880783
0.0118189
0.0473352
0.0127068
0.00879409
0.020603
0.0818801
0.0292575
0.0112312
0.0344944
0.0213271
0.033021
0.0117081
0.0214899
0.038251
0.0374057
0.00906785
0.064051
0.0105001
0.0557886
0.00935423
0.01871
0.010401
0.048238
0.0114207
0.00857801
0.00972044
0.00931998
0.0194369
0.0737206
0.0719404
0.0317746
0.0812616
0.0105179
0.0472447
0.00886469
0.0102055
0.0137259
0.0102226
0.0614578
0.0328427
0.0352589
0.0105175
0.0518985
0.0112113
0.0186524
0.0117382
0.0308487
0.0464207
0.0548819
0.0101122
0.0358536
0.00933722
0.0135443
0.013924
0.0357618
0.0353034
0.0135693
0.018872
0.0405448
0.00921936
0.0104643
0.0234627
0.0188996
0.0114712
0.00982205
0.0100502
0.00897339
0.00955827
0.0183119
0.0225392
0.00966708
0.0826673
0.0526623
0.0132403
0.0104775
0.00868462
0.0546457
0.0396359
0.00854357
0.0188428
0.00838579
0.0445867
0.00861926
0.00890234
0.0109679
0.0326125
0.0227287
0.0575749
0.063941
0.0145707
0.0689873
0.0134529
0.0255926
0.0135347
0.0126993
0.00970233
0.0595714
0.0894741
0.00927439
0.0134171
0.0489548
0.00965525
0.0101442
0.0494877
0.0684569
0.0730246
0.0417759
0.0251908
0.0652556
0.0222173
0.00872022
0.0475732
0.0632549
0.0134915
0.0103754
0.00955084
0.011456
0.0196767
0.086252
0.00903231
0.0455001
0.00949973
0.0398735
0.0177271
0.0137174
0.0170468
0.0157067
0.0524541
0.0093895
0.011845
0.00890313
0.0638539
0.0144209
0.0356782
0.0184355
0.0290247
0.0588543
0.0163044
0.0168523
0.0145466
0.0250958
0.0106387
0.0368933
0.0479527
0.0387434
0.0124859
0.015546
0.0127285
0.0484297
0.0158864
0.0595408
0.0886603
0.0112573
0.00866102
0.0366104
0.0462566
0.0201953
0.00961316
0.0145066
0.0100323
0.0138562
0.0120239
0.00954339
0.0118109
0.0086273
0.0348887
0.068223
0.0133228
0.00874951
0.00902175
0.0212231
0.0804293
0.0191614
0.00938209
0.0339223
0.0178411
0.0141383
0.018697
0.00884331
0.0101766
0.00865927
0.0521071
0.0136314
0.0100283
0.0116472
0.00892807
0.0157821
0.0349795
0.00925705
0.0199254
0.0695949
0.00875155
0.00859351
0.0159013
0.0214569
0.0107215
0.00926102
0.0113354
0.00854232
0.0150008
0.020472
0.0454619
0.0367819
0.00963544
0.0138876
0.00885057
0.0117344
0.0418885
0.0473183
0.0397778
0.0632604
0.0310318
0.0590216
0.00999249
0.0618374
0.0135301
0.0237988
0.00901509
0.0496905
0.0101436
0.0458188
0.00961254
0.0808163
0.0400896
0.0381542
0.00865709
0.00896416
0.0250577
0.021432
0.0763662
0.0591462
0.0092378
0.0131545
0.0146443
0.00887152
0.00922614
0.0112417
0.0112394
0.00933139
0.0389723
0.0148105
0.0293689
0.0352195
0.0670158
0.00887495
0.030666
0.0655722
0.00921079
0.0340544
0.0100098
0.0576792
0.0110899
0.00929092
0.015499
0.0187855
0.0103468
0.0124696
0.0622892
0.00988371
0.00890439
0.0429641
0.0431963
0.0105492
0.0154304
0.0726928
0.0276178