/*--------------------------------*- C++ -*----------------------------------*\
| =========                 |                                                 |
| \\      /  F ield         | OpenFOAM: The Open Source CFD Toolbox           |
|  \\    /   O peration     | Version:  2406                                  |
|   \\  /    A nd           | Website:  www.openfoam.com                      |
|    \\/     M anipulation  |                                                 |
\*---------------------------------------------------------------------------*/
FoamFile
{
    version     2.0;
    format      ascii;
    arch        "LSB;label=32;scalar=64";
    class       volScalarField;
    location    "28";
    object      k;
}
// * * * * * * * * * * * * * * * * * * * * * * * * * * * * * * * * * * * * * //

dimensions      [0 2 -2 0 0 0 0];

internalField   nonuniform List<scalar> 
59516
(
0.00190382
0.00255597
0.00193295
0.00285744
0.00792203
0.017383
0.00229981
0.00201601
0.00182757
0.00454129
0.00589449
0.00367859
0.0018656
0.0094303
0.00384864
0.00386874
0.0047838
0.00461727
0.00205678
0.00397077
0.00553101
0.00288647
0.00326862
0.00580544
0.00316393
0.00354831
0.00566659
0.00637286
0.00392625
0.00807801
0.00707914
0.00602663
0.00258679
0.00244523
0.0031555
0.00254614
0.00776646
0.00461914
0.00223189
0.00350029
0.00196276
0.00404398
0.00298457
0.00248954
0.00271047
0.00399008
0.00217618
0.00466838
0.00773188
0.00407051
0.00903141
0.00518939
0.00176607
0.00206397
0.00529936
0.00226272
0.00484959
0.00563894
0.00504131
0.00279209
0.00334739
0.00764694
0.0047694
0.00461925
0.00235028
0.00352524
0.00946306
0.00513747
0.00629821
0.00227591
0.00733489
0.00441828
0.00790434
0.00310298
0.00527878
0.00377732
0.00464792
0.00313889
0.0050044
0.00420736
0.00558088
0.00369345
0.00301791
0.00790195
0.00358079
0.00496552
0.00554644
0.00280695
0.00381601
0.00289573
0.00616924
0.00338326
0.00444144
0.00303675
0.00439462
0.007982
0.00319352
0.00392502
0.00410003
0.00331421
0.00556175
0.00796263
0.00780841
0.00379439
0.0025081
0.00393228
0.00589757
0.00183248
0.00218916
0.00361294
0.00495773
0.00664945
0.0039489
0.00475489
0.00360744
0.00205343
0.00369742
0.00282554
0.0074629
0.00317823
0.0058615
0.00481682
0.00361918
0.00471503
0.00451322
0.00229972
0.00834498
0.00342253
0.010582
0.00515925
0.00574486
0.00194134
0.00747139
0.0026616
0.00216992
0.00178234
0.00470936
0.001805
0.00542389
0.00254935
0.00509536
0.00544662
0.00786284
0.00255818
0.00532924
0.00277359
0.00248499
0.00215795
0.0198884
0.001935
0.00233141
0.00538487
0.00379413
0.0032476
0.00210922
0.00848447
0.00226896
0.00176358
0.00230201
0.00801346
0.00379741
0.00360789
0.0057968
0.00948203
0.00200198
0.00447006
0.00356013
0.00498311
0.00768505
0.00342232
0.0022156
0.00389974
0.00296697
0.0026598
0.00460445
0.00224646
0.00486176
0.00311431
0.00353728
0.00524501
0.00283835
0.0061549
0.0094019
0.00327446
0.00524202
0.00369765
0.00519026
0.00800915
0.00189384
0.00216752
0.003048
0.00391298
0.00398363
0.00310409
0.00295361
0.00563698
0.00374785
0.00509044
0.00260322
0.00292396
0.00303469
0.00593762
0.00186832
0.00791476
0.00221964
0.00282645
0.00517398
0.00417942
0.0082118
0.00229676
0.0044563
0.00850798
0.00297545
0.00404706
0.00209859
0.00447092
0.00270347
0.00319664
0.00409765
0.00360527
0.00416017
0.00256108
0.00470101
0.00566167
0.00474514
0.00482895
0.00682345
0.00489353
0.00463843
0.00391149
0.004564
0.00485312
0.00588742
0.00708403
0.00570861
0.00515371
0.00339196
0.00187076
0.00389286
0.00434508
0.00572623
0.00813036
0.00366665
0.00832319
0.0054272
0.00193716
0.00336855
0.00364597
0.00420627
0.00184862
0.00393828
0.00303291
0.00591227
0.00321704
0.00300676
0.00352671
0.00405484
0.00364253
0.00504824
0.00385072
0.00225252
0.00409882
0.00206794
0.00469169
0.00192971
0.00355621
0.00399552
0.00215196
0.00525976
0.00374897
0.002509
0.00500119
0.00177401
0.00234029
0.00419798
0.00198676
0.00710153
0.00377723
0.00703783
0.00514937
0.00570281
0.00282152
0.00758161
0.00219875
0.00212533
0.00482839
0.00542693
0.00802118
0.00560071
0.00610512
0.00514688
0.00268596
0.00302033
0.00219347
0.00427364
0.00666853
0.00411141
0.00247453
0.00592218
0.00484428
0.00173
0.00345256
0.00756503
0.00622836
0.0033636
0.00803032
0.00397039
0.00438085
0.00423622
0.00403016
0.00293273
0.00357826
0.00227291
0.0057336
0.00401128
0.00425175
0.00209569
0.00831706
0.00255832
0.00505755
0.00391073
0.00224174
0.00517231
0.00566761
0.00589637
0.00358884
0.00266518
0.00251716
0.0047573
0.00402864
0.0037562
0.00360016
0.00767468
0.00345088
0.00477253
0.00563084
0.00416518
0.00311886
0.00376679
0.00505571
0.00402292
0.00572062
0.00496664
0.00520559
0.00367592
0.00561046
0.0038507
0.00569546
0.00527886
0.00261147
0.00252666
0.00373986
0.00279428
0.00268041
0.00598077
0.00542111
0.00230334
0.00619984
0.0112255
0.00252416
0.00230551
0.00238325
0.00580909
0.00311221
0.00231754
0.00350408
0.00367585
0.00571314
0.00688475
0.00412788
0.00505711
0.00542572
0.00428022
0.00229631
0.00391285
0.00747408
0.00249535
0.0053846
0.0045289
0.0037865
0.00359521
0.00173016
0.0061055
0.00817279
0.00377636
0.0027744
0.00744
0.00265667
0.0023326
0.0023056
0.00250998
0.00239011
0.00381418
0.00665855
0.0057514
0.00383527
0.00363196
0.00365712
0.00535939
0.00499224
0.00373215
0.00198989
0.0020448
0.00544213
0.00533458
0.00485962
0.00264332
0.00292929
0.00308953
0.00358215
0.0077156
0.00742621
0.00210256
0.00504648
0.00567926
0.00560533
0.0050348
0.00166699
0.00553696
0.00505117
0.00537729
0.00513888
0.00496896
0.0019832
0.00566364
0.00351915
0.00448683
0.00216758
0.00385504
0.00523531
0.00280809
0.00319501
0.00494343
0.00580173
0.00755584
0.00494955
0.00541252
0.00309828
0.00208443
0.00543454
0.00800601
0.00226067
0.0038475
0.00526544
0.00342468
0.00235696
0.00561493
0.00233996
0.00719155
0.00220273
0.00376958
0.0119147
0.00380558
0.00215002
0.00310472
0.00802866
0.00528879
0.00525439
0.00563607
0.00196905
0.0039439
0.00503611
0.00278202
0.00588395
0.0023789
0.00471517
0.00311118
0.00743783
0.00538321
0.0022993
0.00483554
0.00178997
0.00445833
0.00228619
0.00242011
0.00745424
0.00491084
0.00207049
0.00373234
0.0022555
0.00510735
0.00286147
0.00824787
0.00429131
0.00952134
0.00470762
0.00491443
0.00211343
0.00194259
0.00476235
0.00591284
0.00541045
0.00842387
0.00423439
0.00598697
0.0057188
0.00359342
0.00350889
0.0036996
0.00565549
0.010669
0.00378209
0.00361018
0.00212327
0.00573853
0.00733732
0.00334431
0.00358749
0.00540117
0.0136592
0.00396113
0.00697683
0.00403205
0.00798455
0.00333566
0.00369055
0.00361943
0.0077813
0.00578821
0.00460989
0.00392553
0.00252706
0.00400902
0.00331015
0.00545239
0.00505944
0.00695253
0.00178168
0.00641953
0.00466346
0.00396219
0.00491722
0.00420026
0.00271448
0.00548307
0.00433794
0.00491441
0.00669219
0.00817223
0.00303283
0.00556637
0.00255065
0.00237032
0.00508547
0.00418565
0.00406262
0.00353113
0.00530226
0.0023599
0.00698448
0.00300224
0.00499134
0.00703462
0.00270745
0.00492642
0.00279049
0.00561104
0.00250886
0.00357435
0.00494903
0.00226759
0.00546262
0.0050655
0.00544513
0.00556344
0.00494614
0.00406477
0.00513584
0.00393329
0.0061657
0.00407518
0.00468373
0.00458017
0.00511614
0.0017423
0.0078628
0.00453726
0.00244907
0.00386851
0.00193332
0.00684217
0.005801
0.0023763
0.00218909
0.00544629
0.00289211
0.00761137
0.00754813
0.00541634
0.00484201
0.00599813
0.00397572
0.00210266
0.00332571
0.00511628
0.00706552
0.00569864
0.00387646
0.00574439
0.00338537
0.00248566
0.0029348
0.00264192
0.00205463
0.00189602
0.00561812
0.00248566
0.00471696
0.00472407
0.00548576
0.00506203
0.00552192
0.00389087
0.00591805
0.0102203
0.00347476
0.00615323
0.00251016
0.00475764
0.00506767
0.00436305
0.00328836
0.00485511
0.00552884
0.00961486
0.00744164
0.00537463
0.00189194
0.00378577
0.00532585
0.00201826
0.00509698
0.00346077
0.00641524
0.00843814
0.00743035
0.00255816
0.00300297
0.00857043
0.00774743
0.00611135
0.00817468
0.00571486
0.00305403
0.00180667
0.00256847
0.00582627
0.00386948
0.00199363
0.00477699
0.00327747
0.00582607
0.00706098
0.0100944
0.00761367
0.00243348
0.00734528
0.00223626
0.0054938
0.00442132
0.00501147
0.00221139
0.00534129
0.00769918
0.00530135
0.0077687
0.00458726
0.00507468
0.00373008
0.00296716
0.00771333
0.00378206
0.00323501
0.00529646
0.00449378
0.00416295
0.00174595
0.00573844
0.00541915
0.00745819
0.00487297
0.00788112
0.00198235
0.00390478
0.00198118
0.00593381
0.00581039
0.00695677
0.003906
0.00243167
0.00471751
0.00786597
0.00270421
0.00227224
0.00356147
0.00434484
0.00842189
0.00331527
0.00507719
0.00590883
0.00804626
0.00190391
0.00571939
0.00492804
0.00561531
0.00209296
0.00561438
0.00178542
0.00356009
0.00742942
0.00532013
0.00911084
0.00204851
0.00487319
0.00518842
0.00467789
0.00233183
0.00485875
0.00518389
0.00521512
0.00855943
0.00186418
0.0023443
0.00250118
0.00290727
0.00428646
0.00218074
0.00180644
0.00628529
0.00336071
0.00607265
0.00351388
0.0045595
0.00210922
0.00190531
0.00769799
0.00250825
0.0041968
0.00529982
0.00525715
0.00890261
0.00427043
0.00217967
0.00955662
0.00270853
0.00860836
0.00529804
0.00401239
0.00280884
0.00819358
0.0047246
0.0095146
0.00374904
0.00190874
0.00342041
0.00304016
0.00582088
0.00534238
0.00503662
0.00571975
0.00538553
0.003791
0.00295377
0.00340523
0.00864265
0.0025054
0.00244174
0.00518847
0.00237233
0.00349266
0.00252727
0.0057765
0.00753275
0.00218406
0.00406964
0.0070811
0.00465153
0.00351033
0.00769138
0.00279102
0.00472605
0.00352959
0.00778423
0.00188444
0.00640612
0.00180989
0.00501583
0.00602288
0.00493856
0.00384527
0.00520025
0.00214249
0.00539891
0.00491765
0.00226242
0.00216802
0.00267058
0.0042965
0.00186695
0.00317307
0.00331038
0.00551062
0.00217151
0.00231336
0.00366355
0.00369891
0.00734329
0.00272398
0.00570604
0.00795976
0.0035415
0.0078441
0.00214196
0.00398557
0.00240095
0.00383632
0.00310021
0.00376559
0.00809379
0.00416709
0.00626657
0.00485582
0.00792576
0.00206239
0.00180797
0.00728449
0.00379016
0.00776083
0.00509074
0.00387328
0.00256799
0.00344161
0.00357017
0.00226447
0.0055983
0.00850783
0.00559864
0.00214007
0.00207173
0.00791764
0.00314782
0.00489162
0.00484743
0.00474526
0.00257395
0.00391296
0.00584896
0.00244977
0.00507395
0.00466242
0.00191308
0.00574662
0.00404362
0.00548353
0.00332654
0.00212142
0.00215599
0.00183354
0.00239494
0.00198821
0.00232522
0.00202042
0.00333563
0.00441912
0.00510476
0.00893699
0.0022851
0.00215788
0.00249809
0.0057431
0.00439592
0.00232809
0.00266895
0.00241214
0.0058082
0.00305605
0.00568541
0.00521518
0.0174004
0.00230934
0.00501947
0.00766397
0.00261906
0.00361022
0.00608353
0.00358262
0.00536128
0.00211558
0.00516444
0.00595846
0.00481308
0.00360716
0.00926302
0.00546496
0.00176125
0.00507987
0.00748189
0.00429489
0.0036348
0.00229661
0.00482014
0.00362154
0.00484369
0.00482329
0.00340896
0.0024455
0.00483328
0.00377129
0.00394455
0.00220769
0.00255096
0.00367814
0.00566766
0.00526934
0.0059469
0.005321
0.00219369
0.00276799
0.00603386
0.00374154
0.00198867
0.00514818
0.00450461
0.0046632
0.00450519
0.00457845
0.00564627
0.00475774
0.00467235
0.00473816
0.0057926
0.00879301
0.0024369
0.00241741
0.0057935
0.00409725
0.00423935
0.00200748
0.00596046
0.00439548
0.00204128
0.00618458
0.00615309
0.00565816
0.00334988
0.00217992
0.00534804
0.0151861
0.0020334
0.00557272
0.00750003
0.00565854
0.00547555
0.00217105
0.00458536
0.00318637
0.00531821
0.00482295
0.00416559
0.00300598
0.00522344
0.00532524
0.00533605
0.00229227
0.00330461
0.00333857
0.00213214
0.00582891
0.00365396
0.00355556
0.00439169
0.00202763
0.00565128
0.00578735
0.00192439
0.005482
0.00515615
0.00358164
0.0057149
0.00462249
0.00569317
0.00530666
0.00407547
0.00684947
0.00525793
0.00195417
0.00203851
0.00508695
0.00853773
0.00434015
0.00538347
0.0018996
0.00783773
0.00557473
0.00218847
0.00479795
0.00254929
0.00243588
0.00218178
0.00766276
0.00174698
0.00439027
0.00427924
0.00613195
0.00555624
0.00321667
0.00401102
0.00535944
0.00189886
0.003054
0.00570138
0.00235366
0.00386689
0.00564073
0.00324641
0.00393228
0.00223463
0.00219192
0.00748283
0.00243164
0.00230854
0.00536541
0.00234566
0.00555821
0.00413303
0.00201005
0.00537352
0.00796151
0.00549137
0.00242714
0.00359788
0.0021601
0.00301792
0.00735046
0.00428567
0.00352946
0.00366982
0.00918611
0.00534952
0.00582258
0.00327388
0.00531952
0.00251746
0.00366571
0.00353917
0.00561927
0.00216546
0.00548566
0.00294416
0.00396377
0.00253521
0.00807737
0.00237598
0.00329516
0.0056304
0.00591411
0.00351291
0.00205597
0.00623159
0.00405652
0.00400717
0.00521238
0.00336643
0.00228167
0.00631176
0.00423392
0.00275579
0.00804007
0.00519983
0.00474645
0.00446332
0.00230047
0.00408628
0.00387969
0.00466229
0.00669101
0.00248873
0.00248108
0.00394977
0.00571475
0.00228627
0.00305037
0.00584001
0.00578031
0.00343673
0.00270493
0.00761604
0.00766044
0.00439996
0.00278363
0.00408867
0.00192834
0.00283178
0.0034758
0.00482439
0.00388223
0.0029794
0.00338616
0.00304599
0.00221741
0.00574444
0.00740769
0.00485529
0.0019285
0.00184385
0.00434789
0.00412398
0.00556931
0.00439739
0.00521599
0.00574311
0.00815595
0.00499816
0.00503427
0.00640763
0.00797119
0.00521294
0.00217484
0.00822193
0.00257925
0.00520664
0.00408193
0.00516684
0.00282285
0.00405786
0.00740877
0.00513932
0.00542411
0.00481829
0.00183338
0.00387946
0.00380586
0.00388617
0.00497566
0.0031155
0.00876135
0.00297925
0.00237448
0.00203754
0.00412527
0.00799201
0.00570155
0.00510996
0.0019536
0.00509928
0.00197001
0.00295716
0.00541057
0.00437536
0.0173965
0.00186492
0.00316625
0.00182294
0.00357026
0.00243832
0.00198386
0.00293762
0.00217057
0.00343352
0.004415
0.0023973
0.00393805
0.00776404
0.00432499
0.00598613
0.00236207
0.00246566
0.00251463
0.00735373
0.00321622
0.00350268
0.0077745
0.00762279
0.00272244
0.00504906
0.00251716
0.00262064
0.00245707
0.00202487
0.00639328
0.00538196
0.00558913
0.00562244
0.00186211
0.00296109
0.00209009
0.00199027
0.00257528
0.00861861
0.00220393
0.0073694
0.00433711
0.00208032
0.00715633
0.00563967
0.00205484
0.00234216
0.00216846
0.00318844
0.00585138
0.00315394
0.00537933
0.00589833
0.0061232
0.00271497
0.00279927
0.00587355
0.004271
0.00547253
0.00455187
0.004459
0.00489773
0.00440034
0.00408523
0.00438091
0.00385063
0.00424064
0.0062077
0.00537893
0.00471675
0.00193449
0.00374791
0.00595326
0.00242006
0.00262469
0.00200079
0.00761409
0.0125962
0.0041082
0.00398378
0.00470357
0.00259779
0.00719856
0.00529369
0.00300065
0.00239081
0.00376734
0.00594501
0.0041125
0.00442497
0.00498912
0.00553359
0.00409993
0.00314459
0.00259552
0.00237039
0.00204629
0.00218192
0.00319811
0.00576334
0.00268413
0.00589343
0.00367771
0.00441354
0.00406979
0.00268662
0.00205491
0.00434237
0.00332342
0.00201466
0.00486235
0.00437898
0.00380386
0.00459063
0.00703816
0.00517987
0.00566826
0.00772691
0.00224299
0.00260367
0.00525787
0.00291178
0.00817129
0.00208848
0.00320534
0.00238245
0.00468197
0.00194715
0.0082327
0.00218628
0.00757447
0.0018496
0.00815628
0.00358857
0.00270371
0.00501228
0.00796259
0.00417684
0.00193155
0.00287419
0.0037609
0.00406008
0.00201492
0.0056328
0.00581907
0.0054606
0.00271978
0.00363039
0.0035943
0.00659164
0.00378017
0.00517783
0.00252249
0.00248818
0.00188355
0.0020879
0.00193413
0.00722616
0.00568162
0.00690399
0.00238665
0.00611293
0.00536261
0.00766261
0.00374479
0.00790106
0.00413006
0.00794214
0.00456591
0.00618943
0.00291146
0.00365353
0.00562424
0.00538374
0.0040035
0.00555232
0.00421886
0.00224234
0.00929676
0.00438498
0.00774464
0.00234809
0.00383661
0.0056203
0.00228926
0.00369845
0.00497509
0.00257098
0.00442308
0.0058859
0.0023524
0.00578744
0.00588852
0.00233445
0.00352856
0.00552426
0.00738661
0.00202646
0.00461083
0.00373171
0.00790377
0.00362558
0.00569374
0.00757123
0.00548486
0.00838331
0.00197752
0.00217374
0.00554362
0.00769448
0.00479636
0.00210872
0.00293165
0.00203496
0.00408848
0.00554105
0.00389561
0.00915347
0.00241779
0.00606253
0.00227309
0.00789083
0.00265888
0.00211826
0.00776104
0.0055747
0.00247832
0.00205835
0.00705559
0.00357039
0.00308709
0.00566391
0.00430591
0.00520461
0.00177688
0.00247037
0.00411267
0.00270208
0.00268476
0.00492056
0.00205551
0.00352109
0.00244218
0.00466989
0.00186736
0.00207749
0.0021544
0.0024216
0.00582749
0.00274556
0.00691465
0.00239965
0.00736138
0.012987
0.0040931
0.00275206
0.00284877
0.00603255
0.00373834
0.00230164
0.0024536
0.00183292
0.00839673
0.00816548
0.00928437
0.00392484
0.00703
0.00355225
0.00536468
0.00244501
0.00580857
0.007212
0.00590228
0.00362581
0.00457928
0.0023221
0.00495966
0.00557876
0.00545753
0.00212965
0.00339445
0.00829027
0.00238389
0.00367436
0.00271098
0.00524596
0.00338373
0.00536017
0.00191218
0.00204302
0.00258455
0.00449626
0.00499976
0.00434693
0.00571124
0.00190551
0.00504401
0.00374757
0.00379801
0.00173906
0.00288695
0.00365879
0.00363706
0.00221885
0.00709839
0.00416999
0.00335535
0.00533342
0.0021998
0.00223295
0.00214609
0.00220292
0.00334751
0.00205332
0.00244042
0.00451742
0.00201067
0.00437315
0.00764609
0.00701119
0.00256473
0.00174689
0.00329807
0.00262503
0.00194392
0.00746098
0.00287001
0.00217162
0.00338442
0.00214252
0.00566486
0.00374352
0.00461803
0.00217852
0.0034375
0.0021499
0.0076742
0.00177677
0.00542971
0.00234106
0.00537969
0.00394336
0.00302328
0.00387892
0.00541756
0.00732819
0.00212496
0.00940147
0.00386163
0.00461909
0.00238012
0.00341912
0.00209772
0.00218264
0.00714868
0.00210322
0.00187103
0.00573695
0.00783668
0.00413556
0.00220001
0.00230307
0.00258941
0.00548857
0.00462814
0.00705358
0.00376346
0.00216341
0.00299319
0.00191062
0.00522946
0.00775111
0.0055366
0.00504721
0.0052907
0.00195615
0.005425
0.00202855
0.00398624
0.00780028
0.00188473
0.00330912
0.00239794
0.00500791
0.00191976
0.00253393
0.00588716
0.00553423
0.00722857
0.00312928
0.00506667
0.0055094
0.00268978
0.00851599
0.00503641
0.00638885
0.00620062
0.00362816
0.002849
0.00385571
0.00837779
0.00197496
0.00335365
0.00262116
0.00427537
0.00212017
0.00506082
0.0029346
0.00462662
0.00630671
0.00355912
0.00339175
0.0051204
0.00423092
0.00237595
0.00277248
0.00356315
0.00418513
0.00510991
0.00551035
0.00590453
0.00391238
0.00754126
0.00238736
0.00521926
0.00366424
0.00771088
0.00517066
0.00381614
0.00287904
0.00260851
0.0051582
0.00722808
0.003037
0.00266218
0.0049492
0.00212466
0.00735781
0.00231879
0.00550986
0.00191862
0.00382416
0.0035974
0.00382159
0.00498949
0.0039189
0.00428347
0.00502412
0.00370765
0.00496028
0.00259561
0.00658835
0.0082347
0.00262078
0.00866894
0.00167867
0.00200088
0.00222312
0.00575382
0.00207001
0.0055977
0.00568897
0.00382963
0.00215599
0.00470555
0.00196724
0.00558736
0.00247749
0.00203422
0.00522632
0.00245249
0.00183522
0.0021995
0.00297021
0.00805318
0.00751795
0.0046475
0.00227627
0.00479955
0.00220554
0.00909863
0.00614046
0.00330436
0.00553119
0.00423777
0.00565021
0.00292693
0.00393858
0.00574969
0.00659831
0.00591432
0.00255036
0.00772963
0.00301961
0.00485974
0.00801612
0.00261667
0.00511266
0.00576761
0.00320398
0.00482392
0.00309993
0.00489366
0.00199287
0.00189922
0.00495647
0.00323871
0.00783179
0.00552441
0.00193967
0.00437655
0.0021555
0.00777649
0.00765929
0.0028731
0.00676181
0.00325721
0.00421189
0.00534855
0.00522356
0.00352889
0.00486256
0.00226859
0.00351963
0.00251617
0.00359589
0.00756396
0.00482026
0.00797227
0.00455469
0.00544776
0.00505259
0.0042241
0.0059669
0.00325867
0.00198294
0.00198888
0.00213243
0.00444311
0.00421998
0.00382987
0.00516889
0.00452224
0.00416648
0.00554152
0.00255506
0.00798461
0.00236143
0.00520807
0.00379227
0.00267784
0.00946523
0.00708657
0.00200269
0.00401149
0.00786172
0.00315796
0.00740661
0.00375923
0.00472936
0.00409398
0.00578395
0.00517161
0.00201777
0.00375511
0.00561862
0.00403246
0.00409716
0.00488552
0.00514969
0.00256503
0.00194553
0.00590768
0.00437674
0.00440592
0.00401575
0.00591564
0.00770086
0.00502624
0.00199204
0.00578147
0.00278571
0.00489999
0.00499235
0.00348805
0.00185126
0.00261089
0.00221055
0.0036358
0.00353297
0.00780658
0.00359024
0.00217787
0.00370382
0.00216917
0.0075803
0.00363806
0.00495437
0.00817955
0.00207105
0.00232087
0.00402178
0.0100492
0.00861492
0.00628003
0.00374513
0.00337844
0.00802942
0.00749676
0.00878868
0.00224769
0.00432678
0.00322444
0.00406856
0.00254464
0.00776306
0.00352357
0.00214743
0.0078522
0.007952
0.00747302
0.00266146
0.00705557
0.00373794
0.00501104
0.00575926
0.00291615
0.00486504
0.00202229
0.00360996
0.00558918
0.00282191
0.00369535
0.00499919
0.00394882
0.00196975
0.00330165
0.00414253
0.00772574
0.00236516
0.00197223
0.00174828
0.00189328
0.00486978
0.00352038
0.00535981
0.00828137
0.0018613
0.00590166
0.00543521
0.00397451
0.00461308
0.00172257
0.00398166
0.00177743
0.00446984
0.00483293
0.00481462
0.00480527
0.0033713
0.00384341
0.00413466
0.00268081
0.00313062
0.0029652
0.00209815
0.00210295
0.00311771
0.00243877
0.00538829
0.00206432
0.00253023
0.00775511
0.00512203
0.00874627
0.00185797
0.00216349
0.00224095
0.00371356
0.0029079
0.00464389
0.00348348
0.0075025
0.00188589
0.00498509
0.00466244
0.00750662
0.00457563
0.00435024
0.00749583
0.00496777
0.00489772
0.00546585
0.00714905
0.0054893
0.00358973
0.00582796
0.0052985
0.00295713
0.00200515
0.00362208
0.00233354
0.00214187
0.00535339
0.00541457
0.00266231
0.00250736
0.00218447
0.00266695
0.00443341
0.00294247
0.00226748
0.00397431
0.00515984
0.00374952
0.00462844
0.00802234
0.00493111
0.00758276
0.00305986
0.0033149
0.0042217
0.00405728
0.00375296
0.00810021
0.00391908
0.00590272
0.00498521
0.00264724
0.00411769
0.00610159
0.00255846
0.00390413
0.00464368
0.00201724
0.0075852
0.00311686
0.00180552
0.00437082
0.00508216
0.00451666
0.00460398
0.00323126
0.00293099
0.00194102
0.00465978
0.004919
0.00301535
0.00252248
0.00719953
0.00749819
0.00239109
0.00185244
0.00488121
0.00496938
0.0075189
0.00219087
0.00243886
0.00270983
0.00226853
0.00397278
0.00254015
0.0026795
0.00536634
0.00181136
0.00217399
0.0048168
0.00203232
0.00272258
0.0076152
0.00196499
0.00317729
0.00264229
0.00343281
0.00503065
0.00608524
0.00424478
0.00249623
0.00438236
0.00231732
0.00452943
0.00188557
0.0023806
0.00190116
0.00767967
0.00185326
0.00510085
0.00558681
0.00274332
0.00723467
0.0050408
0.0037815
0.00472713
0.00367564
0.00218859
0.00757205
0.00234661
0.00519931
0.00208647
0.0033463
0.0035485
0.00473132
0.00329218
0.00365679
0.00560704
0.00395193
0.00388158
0.00373405
0.00541368
0.0026808
0.00573453
0.00529571
0.0037769
0.00284346
0.0041753
0.00459927
0.00740275
0.0028185
0.00797696
0.00536605
0.00738673
0.00504105
0.00241893
0.00225878
0.00279785
0.00204459
0.00658107
0.00442089
0.00733322
0.00676721
0.00321145
0.00409374
0.00217568
0.00217334
0.00361271
0.00775515
0.00365156
0.00552549
0.00480725
0.00436607
0.00339906
0.00315854
0.00225312
0.00359384
0.00518432
0.00703993
0.00291054
0.00401553
0.0053122
0.0033755
0.00498341
0.00474581
0.00189912
0.00551193
0.00305328
0.00508334
0.00228156
0.00250583
0.00507079
0.00251459
0.00394068
0.00315731
0.00381131
0.00348423
0.00541108
0.00313607
0.00560621
0.00422697
0.00545639
0.00340824
0.00196037
0.00562809
0.0108175
0.00395487
0.0049323
0.00221505
0.00224462
0.00503515
0.00178572
0.00436318
0.00375228
0.00226487
0.00365472
0.00376442
0.00220297
0.00520479
0.0052836
0.0081412
0.00246047
0.00430987
0.00536836
0.00267925
0.0028221
0.00297731
0.0043444
0.00208557
0.00500229
0.00529284
0.0058098
0.00606525
0.00602869
0.0084104
0.00798254
0.0032482
0.00396126
0.00528086
0.00527299
0.00236842
0.00347544
0.00467949
0.00782264
0.00624004
0.00448366
0.00466301
0.00566314
0.00373301
0.00431264
0.00175712
0.00502575
0.00391398
0.00290256
0.002227
0.00339491
0.00211848
0.0032066
0.00202752
0.0054913
0.00202445
0.00249798
0.00497567
0.00322115
0.00531964
0.00473216
0.00556015
0.00381745
0.00574037
0.00214141
0.00593058
0.00494126
0.00265708
0.00483702
0.00566882
0.00569433
0.00422477
0.00230967
0.00472613
0.00352303
0.00437287
0.00317185
0.00244486
0.00342093
0.00339309
0.00257136
0.00377063
0.00533125
0.0022671
0.00481388
0.00279314
0.00220219
0.00236322
0.00756819
0.00248849
0.00752072
0.00234266
0.0031139
0.00299907
0.00464756
0.00344401
0.00555218
0.00551762
0.0043569
0.00211481
0.00416141
0.00226531
0.00519903
0.0045166
0.00229128
0.00361061
0.00207978
0.00426297
0.00211843
0.00397157
0.00517089
0.00507763
0.00585219
0.00559171
0.00355223
0.002231
0.00228069
0.00593128
0.00578237
0.00574148
0.00344107
0.0022441
0.00218806
0.00228826
0.00523397
0.00442504
0.00543881
0.00351583
0.00519369
0.00394189
0.00367798
0.0033805
0.0071515
0.00215112
0.00490908
0.00875546
0.00786432
0.0033561
0.00186461
0.00496463
0.00353877
0.00565085
0.00609043
0.00202579
0.00322189
0.00386288
0.00384943
0.00808659
0.0023915
0.00412969
0.00411279
0.00296205
0.00219681
0.00475061
0.00366597
0.00454814
0.0026726
0.00771662
0.00222785
0.00386875
0.00337568
0.00603858
0.00243556
0.00279498
0.00279421
0.00188197
0.00736964
0.00218455
0.00209246
0.00486037
0.00266709
0.00357211
0.00296443
0.0039518
0.00240403
0.00536005
0.00385509
0.0038029
0.00297234
0.00443845
0.00262586
0.00319338
0.00395739
0.00365686
0.00292104
0.00557815
0.00294262
0.00586319
0.00634608
0.00211712
0.00636571
0.00239504
0.00330305
0.00509552
0.00328796
0.00497957
0.00739203
0.00753902
0.00586246
0.00527714
0.00441382
0.00217907
0.00500165
0.0020959
0.00386408
0.00414169
0.00555901
0.00397019
0.00777016
0.00248399
0.00191029
0.00170139
0.00355876
0.00720633
0.00546483
0.00255759
0.00745679
0.00524426
0.00534959
0.00220625
0.00308695
0.00583257
0.00595946
0.00401672
0.005365
0.00732406
0.00555297
0.00308044
0.00345157
0.00746468
0.00203159
0.00220758
0.00725499
0.00220691
0.00652799
0.00204566
0.00291829
0.00545801
0.0041
0.010168
0.00191573
0.00571531
0.0051886
0.00351527
0.00234453
0.00406491
0.00230362
0.00195847
0.00638159
0.00307564
0.00207479
0.00593135
0.00531215
0.00372395
0.00783342
0.00407436
0.00380615
0.0050701
0.00318346
0.00279886
0.0082817
0.00744807
0.00516336
0.00499757
0.00595416
0.00184797
0.00802103
0.00516499
0.00334439
0.00370988
0.00540034
0.00565077
0.00272978
0.00384525
0.00542473
0.00368793
0.00268534
0.00385723
0.00200123
0.00219016
0.00367596
0.00515277
0.00508526
0.00808105
0.00335642
0.00233058
0.00351332
0.00644469
0.00509659
0.00466795
0.00200179
0.00355657
0.00842744
0.00190803
0.00231721
0.00806303
0.00344392
0.00390863
0.0031834
0.00466929
0.00473455
0.00479334
0.00533033
0.00347752
0.00750492
0.00460076
0.00407147
0.00341076
0.0026987
0.00413244
0.00423852
0.00480172
0.00394327
0.00730693
0.00453575
0.0031244
0.00265895
0.00397309
0.00389667
0.00252342
0.00406583
0.00339847
0.00306218
0.00628721
0.0017413
0.00364701
0.00250013
0.00542647
0.00613301
0.00456377
0.0038079
0.00473652
0.00604383
0.0022079
0.00315992
0.00311582
0.00792831
0.00219988
0.0041948
0.00452689
0.00351602
0.00287496
0.00192019
0.00579473
0.00263396
0.00425919
0.00231708
0.00749469
0.00819872
0.00228101
0.00212806
0.00334036
0.00359487
0.00474501
0.00389556
0.00519476
0.00414548
0.00353262
0.00477906
0.00211951
0.00392251
0.00416581
0.00208307
0.0041184
0.00203205
0.00694102
0.00196634
0.00283477
0.00245461
0.0020952
0.00239434
0.00213529
0.00532517
0.0027812
0.00395445
0.00319163
0.00190124
0.00536824
0.00420103
0.00181182
0.00828127
0.00304659
0.00569876
0.00212405
0.00316446
0.00256907
0.0023825
0.00156985
0.00520558
0.00773667
0.0103153
0.00547929
0.00520959
0.00351702
0.00419071
0.00509108
0.00584125
0.00180638
0.00493693
0.00224141
0.00205758
0.00259934
0.00564475
0.00401125
0.0081241
0.00429554
0.00542365
0.00819553
0.00320114
0.00321134
0.00406641
0.00380273
0.00489712
0.00228802
0.0023274
0.00314138
0.00369151
0.00283358
0.00435598
0.00648281
0.00229444
0.00349983
0.00234409
0.00551654
0.00210759
0.00207943
0.00335447
0.00363615
0.00375915
0.00235476
0.00210734
0.0026502
0.00203409
0.00271695
0.00213935
0.00215598
0.00572271
0.00282434
0.0025455
0.00322215
0.00482916
0.0025622
0.00473
0.00536521
0.001962
0.00341772
0.00445577
0.00334258
0.0021077
0.00547781
0.00462484
0.00268013
0.0074601
0.00212546
0.0035
0.00447179
0.00339492
0.00425918
0.00244814
0.00204764
0.00261262
0.00199637
0.00279699
0.00338181
0.00825759
0.00250064
0.00345368
0.00408045
0.00208333
0.00302451
0.00342433
0.0124376
0.005571
0.0050859
0.00256068
0.00443882
0.00384192
0.00261526
0.00214987
0.00243434
0.0048246
0.00724524
0.00417537
0.00372835
0.00911547
0.00511068
0.00272768
0.00295887
0.00419747
0.00173862
0.00231121
0.0022037
0.00277021
0.00782414
0.00291851
0.00245707
0.00536254
0.00371605
0.00353518
0.00206944
0.00734463
0.00563903
0.0020652
0.00375111
0.00222679
0.00416873
0.00230412
0.00556363
0.00620483
0.00199181
0.00717007
0.00417045
0.00253598
0.00724559
0.00306989
0.00446959
0.00348472
0.00411305
0.00494768
0.00589073
0.00580302
0.00245546
0.00372668
0.00239104
0.00399822
0.00304336
0.00212199
0.00216109
0.00350537
0.00215167
0.00568363
0.00198301
0.00470718
0.0032717
0.00212117
0.00422702
0.00922508
0.0021701
0.00211759
0.00351592
0.00614759
0.00175708
0.00856336
0.00232006
0.00244907
0.00472377
0.00417058
0.00176701
0.0032954
0.0084232
0.00549219
0.0039376
0.00226649
0.00561413
0.00348675
0.00347474
0.00257022
0.00358097
0.00663211
0.00335196
0.00424107
0.00385847
0.00336158
0.00233722
0.00214946
0.0078329
0.0035811
0.00819765
0.00511399
0.00201403
0.00336939
0.00253261
0.00641567
0.0043071
0.00366431
0.00214054
0.00350406
0.00233238
0.0056176
0.00320372
0.00227403
0.00223641
0.00210761
0.00568919
0.00290244
0.00733804
0.0025607
0.00571077
0.00224564
0.00766741
0.00438787
0.00297053
0.00373629
0.00200338
0.0033197
0.0032076
0.00202812
0.00400083
0.00485316
0.00511107
0.00812667
0.00355317
0.00626161
0.00408826
0.001999
0.00323813
0.0051935
0.00298072
0.00450206
0.00416361
0.00475298
0.00238881
0.00806585
0.00772429
0.00592891
0.00761156
0.00359261
0.00548985
0.00465042
0.00263325
0.00225574
0.00454502
0.00621731
0.00400126
0.00394628
0.00270172
0.00565321
0.00368546
0.0018677
0.00258128
0.00339399
0.00516169
0.00594724
0.0033714
0.00396108
0.00365943
0.00217409
0.00213262
0.00495194
0.00486505
0.00155585
0.00229393
0.00400656
0.00523321
0.00410279
0.00220008
0.00177586
0.00254519
0.00307216
0.00423482
0.00487862
0.00505387