/*--------------------------------*- C++ -*----------------------------------*\
| =========                 |                                                 |
| \\      /  F ield         | OpenFOAM: The Open Source CFD Toolbox           |
|  \\    /   O peration     | Version:  2406                                  |
|   \\  /    A nd           | Website:  www.openfoam.com                      |
|    \\/     M anipulation  |                                                 |
\*---------------------------------------------------------------------------*/
FoamFile
{
    version     2.0;
    format      ascii;
    arch        "LSB;label=32;scalar=64";
    class       volVectorField;
    location    "28";
    object      momentum:angularVelocity;
}
// * * * * * * * * * * * * * * * * * * * * * * * * * * * * * * * * * * * * * //

dimensions      [0 1 -1 0 0 0 0];

internalField   nonuniform List<vector> 
59516
(
(0.000642798 -0.000492061 0.111089)
(0.000299225 -6.17616e-05 0.103218)
(-0.000135917 0.00160965 0.118158)
(-0.00270858 0.000421951 0.131048)
(-0.00436934 0.000181476 0.113986)
(-0.0104373 0.00558026 0.101097)
(-0.000290765 -0.00152751 0.132144)
(-0.000354494 -0.000853848 0.108754)
(-0.000843815 5.74342e-05 0.117495)
(0.00239226 0.00090047 0.0607734)
(-0.000908726 -0.00071259 0.147941)
(-0.00223765 -0.00224427 0.0644812)
(-0.00081757 -0.000615137 0.124888)
(0.000129651 -0.000219961 0.0223689)
(-0.000159124 -0.00361087 0.0670286)
(-0.0012338 0.00398078 0.0571364)
(0.000531677 -0.00025863 0.156322)
(-0.00508049 -0.00166996 0.0709813)
(-0.00399039 -0.00159291 0.116474)
(-0.000280468 0.000676975 0.154881)
(-0.000752069 0.000376367 0.0567142)
(0.000384419 -0.000104046 0.147398)
(0.000399707 -0.000543911 0.151266)
(0.0010067 0.00061616 0.0377712)
(0.000756044 0.00152728 0.155743)
(-0.00044633 0.00142057 0.0719173)
(-0.000667114 0.00287167 0.0468936)
(-0.0032354 -0.00166315 0.0456985)
(-0.00149607 -0.00114692 0.0688655)
(0.00256934 0.00199461 0.0199734)
(-0.0213122 0.00122148 0.108329)
(-0.00278642 0.0021213 0.0469834)
(-0.000594619 -0.000521759 0.134869)
(-0.00227573 -0.000647783 0.116851)
(-0.0030921 -0.000366819 0.137471)
(0.000296248 0.000386978 0.145613)
(-0.0027511 0.00149858 0.0193895)
(-0.00655885 -0.00217511 0.0709092)
(-0.00258598 0.000366639 0.0993938)
(0.00217576 -0.00121034 0.15193)
(3.55833e-05 -0.000919901 0.107621)
(-0.0084402 -7.54072e-05 0.142806)
(-0.000789664 0.000391801 0.146656)
(-0.000788369 0.000304531 0.114641)
(-0.00119718 0.000633696 0.143663)
(0.00159113 0.000421494 0.0607669)
(-0.00191203 -6.18367e-05 0.133907)
(-0.000907762 0.00020704 0.154752)
(-0.0151651 0.0014814 0.111814)
(-0.00491825 -0.000157606 0.145995)
(-0.0178255 0.000548597 0.104029)
(-0.00374189 -0.00193416 0.0493144)
(0.000454567 -0.002142 0.125482)
(-0.000402083 -4.90708e-05 0.131341)
(-0.002548 0.000665262 0.0507897)
(-0.000410732 0.000271508 0.13116)
(-0.00966493 -0.000201229 0.141749)
(-0.00451148 -0.00185974 0.0538232)
(0.000737033 0.000844095 0.155979)
(-0.00734653 -0.000201904 0.134019)
(0.000332533 0.000487166 0.146747)
(-0.00150217 0.00217964 0.0216114)
(0.000911464 -0.000211679 0.151242)
(-0.000176979 0.000684232 0.152638)
(-0.000704497 2.63844e-05 0.129495)
(-0.00256856 0.000420845 0.143208)
(0.000217701 0.00330383 0.0298649)
(-8.05324e-05 0.00019527 0.0455692)
(-0.0224469 0.000492291 0.121224)
(0.000224372 -0.00134224 0.136793)
(-0.000706597 -0.000940785 0.0412666)
(-0.000600657 0.000188481 0.152093)
(0.00394354 -0.00153403 0.0261156)
(0.000577766 0.000283918 0.141269)
(-0.000808664 0.000533627 0.158636)
(0.00031449 -0.000174663 0.152683)
(-0.000121239 -0.000432384 0.15496)
(-0.000698134 3.08832e-05 0.145063)
(0.00190959 0.00116789 0.0507832)
(-0.00441778 0.000943516 0.145864)
(-0.0023413 0.000231674 0.0433871)
(-0.0036168 0.000680593 0.142533)
(-0.00292514 0.000578295 0.137795)
(-0.0028749 0.00148891 0.0228858)
(-0.003469 0.000910257 0.142713)
(-0.000425912 0.000456025 0.156481)
(0.000736839 0.00121734 0.0364376)
(0.00053274 0.000455155 0.147909)
(-0.00233331 -0.00128135 0.0598505)
(-0.00893642 -0.0025198 0.107969)
(-0.0101498 -0.000207492 0.131002)
(-0.00103648 0.000805225 0.135971)
(0.000239761 -0.000168778 0.155586)
(5.32121e-05 0.000668199 0.135409)
(0.0001805 -0.000410546 0.148124)
(-0.0111647 0.000116227 0.110004)
(-0.00128974 -0.000973732 0.139445)
(0.0020089 0.00414497 0.0582529)
(-0.00173388 -0.00110989 0.0670049)
(0.00130759 0.000764855 0.145268)
(-0.00122717 0.00119294 0.0419999)
(0.00312212 0.00144518 0.0279151)
(0.00335495 0.00170341 0.0261371)
(-0.00192909 0.00236367 0.060142)
(0.000685247 -5.61809e-05 0.137096)
(-0.000419548 0.000656711 0.141113)
(0.0019429 -0.00347653 0.0449836)
(-0.000611338 -0.000336401 0.111824)
(-0.000627757 0.000371934 0.107228)
(-0.0015775 0.002514 0.0721184)
(-0.0177867 -0.00029063 0.124798)
(0.00264785 -0.00217784 0.0351118)
(-0.00243608 0.00321988 0.0724901)
(-0.0187087 -6.8723e-05 0.118066)
(-0.000344926 0.000241334 0.151806)
(0.000641376 -0.00112861 0.107648)
(-0.00208708 -0.00112144 0.059509)
(-0.000843406 -0.000468184 0.13454)
(-0.0005763 -0.00105292 0.0244556)
(-0.0011568 0.00146544 0.14427)
(0.000151358 2.93775e-05 0.15811)
(0.000713726 0.000295815 0.15375)
(0.000102114 0.000239296 0.152875)
(9.70684e-06 0.000333274 0.152266)
(-0.0163347 0.00135203 0.131988)
(-0.00196658 -9.88203e-05 0.0927445)
(-0.00213046 -0.00089257 0.0331863)
(-0.011001 0.00203618 0.137793)
(-0.0129663 0.00308545 0.0898991)
(0.000748136 0.000229449 0.156309)
(0.0011606 -0.000772057 0.156399)
(0.00136713 0.0020686 0.119224)
(-0.000729031 -0.00217606 0.0261972)
(0.000371836 0.000654338 0.146642)
(0.000817203 0.000426535 0.108221)
(-0.00130329 0.00140925 0.122555)
(-0.0149329 0.00137837 0.107845)
(0.000367539 0.000654048 0.13422)
(-0.000363301 0.00285056 0.0444512)
(-0.00133749 0.000883763 0.104943)
(-0.0010766 0.00232093 0.0492202)
(0.000218595 6.01411e-05 0.158125)
(-0.0010773 -0.00184401 0.0208361)
(-0.000466627 0.00135763 0.129705)
(-0.000158698 0.000325304 0.154405)
(-0.00118336 0.000899198 0.14007)
(-0.00163826 0.000966892 0.141273)
(-0.00141307 0.00119324 0.122732)
(0.000968767 -0.00179771 0.0621799)
(-0.000285305 0.00103844 0.112581)
(-0.000152173 -0.000815129 0.110275)
(0.00021196 0.00137825 0.0398085)
(0.00105814 0.000658044 0.155361)
(0.00120097 1.32791e-05 0.149944)
(-0.000224865 -0.00182793 0.0961372)
(-0.00209198 0.00113364 0.0213772)
(0.000497908 -0.000125075 0.119998)
(-0.000786628 0.000660873 0.119412)
(-0.00104121 0.000698357 0.0890057)
(-0.00325404 -0.00214954 0.0218758)
(0.00270589 0.00243664 0.0699932)
(0.00368578 -0.00206252 0.0720615)
(-0.000855988 0.00173308 0.0389938)
(-0.000224107 -0.00055415 0.0286938)
(0.0026688 0.000254457 0.107057)
(-0.000861994 0.00056275 0.157755)
(0.00059207 -0.000209902 0.066997)
(-0.000480323 -0.000230789 0.155743)
(0.00140054 0.00251626 0.0219527)
(-0.000376648 -0.00021781 0.134005)
(-0.00139001 -0.00117385 0.0902435)
(-0.000883851 0.000604629 0.056736)
(3.30896e-05 -0.00207232 0.0698486)
(0.000703467 -0.000978443 0.137423)
(0.000611819 0.000856126 0.0549826)
(-0.00210455 -0.000853735 0.135866)
(-0.000946504 -5.95056e-05 0.154072)
(-0.00231083 0.000370155 0.147943)
(0.000576406 -0.00385392 0.0730664)
(0.000445144 9.81475e-05 0.0451441)
(-0.000450132 -0.00188127 0.143786)
(0.000977595 0.00316575 0.0371491)
(-0.00108791 -0.00228741 0.0322274)
(0.000508184 0.00186408 0.0699138)
(0.000465759 -0.000917421 0.15563)
(-0.000368248 0.000683792 0.0638326)
(-0.00287958 0.000741571 0.039118)
(0.000153837 0.000302893 0.0259495)
(-0.000170068 -0.00040534 0.125956)
(0.00136396 0.00058326 0.106723)
(-0.00267527 -0.000549758 0.135199)
(-0.00078053 -0.00314339 0.0569026)
(-0.000366513 -0.000288424 0.153033)
(0.00190541 -0.00187869 0.0620822)
(-0.000357674 0.000531548 0.149979)
(0.000436223 0.000763346 0.0323719)
(0.00084419 -7.06285e-05 0.0622306)
(0.000221498 -0.00101402 0.0450588)
(-0.00437869 -0.000208061 0.115794)
(0.000247148 0.000260448 0.148881)
(-0.00174083 -0.00210499 0.0871861)
(0.000199196 -0.000192145 0.156651)
(0.000367777 0.000948487 0.109344)
(0.00195518 -0.0020343 0.0216646)
(0.00140778 0.00121826 0.133077)
(0.000153787 6.96884e-05 0.143816)
(6.33412e-05 0.000223266 0.156899)
(-6.65909e-05 -0.000106657 0.144471)
(0.000190648 -0.000675747 0.0252492)
(0.00151902 0.000862919 0.119338)
(-0.000326517 0.00471241 0.0552934)
(-0.00397388 0.000860964 0.0249156)
(-0.00109615 0.000861876 0.143767)
(-5.35348e-05 0.00145275 0.0609524)
(-0.000671051 -0.000616677 0.12159)
(-0.000975138 -0.000335381 0.156253)
(-0.000835914 0.000440739 0.138776)
(-0.000683559 0.00070436 0.152225)
(-0.00195264 0.00305451 0.0591979)
(0.00051334 0.000572479 0.151453)
(-0.00148797 -0.00268066 0.0606291)
(-0.00038223 0.000819841 0.108606)
(-0.000904134 -0.00121006 0.151128)
(0.000459382 -0.00088016 0.0447565)
(-0.00152939 -0.000595072 0.152418)
(0.000420936 0.000679455 0.15451)
(-0.00118012 -0.00120781 0.0308344)
(-0.00280406 0.000557838 0.0514087)
(-0.000955582 0.000997704 0.15378)
(-0.00196323 0.00349687 0.0596174)
(0.000495849 0.00095713 0.157051)
(-0.000827032 0.000431631 0.154808)
(-0.000819402 -0.00116177 0.154432)
(-0.00139082 -0.0022605 0.0278693)
(-0.00144281 -0.00133978 0.0362199)
(-0.00166906 -4.89164e-05 0.0378191)
(0.000696352 -0.000521544 0.0687176)
(-0.00171632 -0.000485664 0.103503)
(-0.00153701 -0.000201889 0.148094)
(0.00164325 -0.000273652 0.0622331)
(0.00114431 0.000126337 0.155894)
(0.00279186 0.00181335 0.0228967)
(0.00058502 0.000505776 0.0588773)
(0.00264609 0.00151135 0.028025)
(0.000692781 0.000517834 0.155417)
(-0.000166436 -0.000703516 0.0996506)
(-0.000642056 -0.000101348 0.142162)
(-0.000131715 0.00117394 0.0710274)
(0.000617661 0.000536583 0.156251)
(-0.000332545 -0.000163275 0.110163)
(0.00214628 -0.00114738 0.155215)
(-0.000845135 0.000166009 0.139567)
(0.00100952 0.000578274 0.155396)
(-4.39691e-05 0.000455105 0.1425)
(-0.000345247 0.00116394 0.143527)
(-0.00015386 0.000560656 0.149877)
(-0.000172176 -0.000170154 0.060442)
(-0.00136138 -0.000213711 0.147361)
(0.00125238 0.00225666 0.0465286)
(-0.000214606 0.00219973 0.064839)
(-0.00101498 0.000206977 0.133646)
(-0.000940228 0.00126004 0.151392)
(0.00227632 0.00105865 0.120151)
(-0.000325534 0.0013985 0.156229)
(0.00221662 0.000413145 0.10528)
(0.000297168 -0.00291038 0.0634205)
(0.000279133 -0.000969222 0.151702)
(0.00177257 0.000269383 0.0997581)
(-0.000570404 -0.00115365 0.0509156)
(-0.000155235 0.00152975 0.0567642)
(-0.00148685 0.00191152 0.102337)
(-0.000764559 -0.000571804 0.153776)
(-0.00123223 0.00165472 0.105822)
(-0.000395628 0.00126596 0.100491)
(-0.00160058 0.000695723 0.152867)
(0.000261584 0.00281932 0.099519)
(-0.00145886 -0.00290419 0.0239166)
(0.000159512 0.00148135 0.153167)
(0.0024261 -0.00176707 0.0285301)
(0.00176683 0.00101618 0.0450735)
(-0.000854701 -0.00102989 0.154024)
(3.47703e-05 0.00076838 0.140185)
(-0.00381456 0.00177361 0.0280124)
(-0.00060881 -0.000528424 0.126081)
(-0.0010354 -0.00153818 0.130178)
(0.000656291 0.000471889 0.153921)
(0.00016323 -0.000489122 0.154886)
(0.00240713 -0.00221373 0.0274686)
(-0.00135175 0.000295286 0.154264)
(-0.00077945 -0.00159059 0.153867)
(-0.000391613 -0.00130357 0.15336)
(-0.00109792 -0.000682741 0.136017)
(-0.00142204 0.000626092 0.135489)
(-0.000518734 -0.00034193 0.101921)
(0.000206069 -0.000786176 0.157904)
(6.35265e-05 0.00180548 0.0316042)
(0.00129487 -0.00161522 0.148973)
(0.00124088 0.00101831 0.141397)
(-0.000761133 -0.0014205 0.15563)
(0.000252162 -0.00160394 0.150713)
(0.000979934 -0.000230656 0.122304)
(0.000958676 -0.00115659 0.0657787)
(-0.000891107 -0.00167535 0.0258447)
(0.000899371 0.000575554 0.032049)
(-0.00108257 0.0013317 0.15681)
(-0.00337051 0.00124416 0.0234105)
(-0.000778154 -0.000868288 0.0692234)
(-0.000890457 0.0030504 0.056892)
(0.00119593 -0.000454297 0.154558)
(-0.000106198 -0.000592757 0.158725)
(0.000386202 0.000458007 0.151592)
(0.00138898 0.000387021 0.0642997)
(0.00219818 -0.000179518 0.109009)
(0.00015938 0.00460007 0.044802)
(0.00112129 -0.00183066 0.0582092)
(0.000435058 -0.000895293 0.147039)
(0.000853284 -0.00147009 0.105156)
(-0.0127202 -0.00164136 0.107706)
(0.000279393 -0.00214378 0.095673)
(-0.000565673 -5.86312e-06 0.0483144)
(0.00209308 -7.27976e-05 0.0700745)
(-0.000140641 -0.00156646 0.113503)
(-5.56047e-05 -0.000107776 0.156774)
(-0.000685216 -6.45864e-05 0.157813)
(-0.00100762 0.000892144 0.157021)
(2.9127e-05 0.00186777 0.15404)
(-0.00483288 -0.000838511 0.0985859)
(-0.0012472 0.000563295 0.129239)
(-0.000653163 0.00140877 0.150975)
(-1.82618e-05 -0.000132318 0.151737)
(0.000857366 -0.000156122 0.153768)
(-0.00263191 -0.00251988 0.0615912)
(0.00322318 -0.00125135 0.0250254)
(0.000451082 -0.000371937 0.146231)
(0.00122275 0.00271482 0.0445042)
(-9.22079e-05 -0.000292842 0.0357667)
(-0.0014953 -0.000451237 0.150283)
(0.000675984 0.000448424 0.144746)
(-0.00126606 0.00251669 0.0621802)
(-0.00085906 -0.00072048 0.154371)
(0.000290242 0.00140733 0.155196)
(-0.000959487 -0.000236673 0.156848)
(9.9796e-06 -0.000425315 0.156298)
(-0.000194991 -0.00142503 0.0367037)
(0.000137271 -0.000619722 0.153719)
(-0.00131562 0.000143067 0.154248)
(7.68976e-05 0.000851453 0.0637745)
(0.000112506 -0.00159768 0.155267)
(5.92055e-05 0.000270947 0.15458)
(0.000750618 0.00053019 0.134013)
(0.000357134 0.000294525 0.125972)
(-0.000465258 -0.000993992 0.145292)
(0.000633692 0.00116367 0.142755)
(-0.000470793 0.000136686 0.0761831)
(-0.000601864 0.00165399 0.0354003)
(0.000106477 0.00269855 0.0391704)
(0.000510473 0.000623202 0.102405)
(-0.0122555 0.000114365 0.0864994)
(-0.00725477 0.000771606 0.0747375)
(1.59167e-06 -0.000323001 0.090496)
(0.00135164 -0.00120038 0.120425)
(-4.95972e-05 0.00033008 0.133442)
(-0.00201166 0.000994171 0.149994)
(0.000790866 -0.000144045 0.153116)
(-0.000577571 -0.0002768 0.135505)
(-0.000621518 -0.000478629 0.144999)
(-0.00129367 -7.30116e-05 0.144351)
(-0.000479886 0.000795897 0.0349456)
(-0.0223408 0.000889067 0.113844)
(0.000434689 0.00190242 0.0638098)
(-0.00118475 0.00175723 0.0464612)
(0.000598793 0.000350725 0.0469433)
(-0.000193865 -0.000393353 0.152088)
(-1.32254e-05 0.000316251 0.100698)
(-0.000699447 -4.44962e-05 0.153188)
(-0.00156719 0.00175033 0.0223159)
(0.000242214 -0.000226932 0.129654)
(0.00127329 -0.000566126 0.0497491)
(-0.000329824 0.000902607 0.153212)
(-0.000485006 0.000734038 0.0530065)
(0.00188478 0.000615983 0.0670673)
(0.000865595 0.00226982 0.114135)
(-0.00106628 0.000768702 0.146255)
(0.00307463 -0.000139167 0.0225931)
(0.00010189 0.00285177 0.0598746)
(-0.000421279 -0.000518819 0.134443)
(-7.07488e-05 -0.00246235 0.0265957)
(-0.0068261 6.5292e-05 0.130477)
(0.000215368 -0.00225474 0.120671)
(0.000513821 -0.00145169 0.134473)
(0.00238199 -0.00207789 0.101318)
(0.00204398 0.000506053 0.0950665)
(0.00138557 -0.00088188 0.154496)
(-0.00990122 -0.00329747 0.0774683)
(-0.00158751 -0.000561337 0.157361)
(-0.01177 0.000564057 0.111381)
(-0.0021345 0.00168444 0.0657609)
(-0.000512802 0.00128079 0.068682)
(-0.000320843 -0.00098956 0.157935)
(0.000710585 -0.00141609 0.15986)
(0.00058484 -0.000407182 0.0577152)
(-0.000211409 -0.000704812 0.137769)
(-0.00210602 0.000912088 0.105013)
(0.000816502 -0.000547276 0.156813)
(0.000655008 -0.000975878 0.156312)
(-0.0010779 -0.00366324 0.051504)
(-0.000570264 0.000533006 0.135178)
(0.00163972 -6.91923e-05 0.144416)
(-0.000187682 -0.000107029 0.146515)
(0.00019763 -7.28717e-05 0.151527)
(0.00275216 -0.00143468 0.0246729)
(-0.00308485 -0.000796218 0.0236737)
(-0.00106677 0.00129573 0.129716)
(0.000159758 -0.000254864 0.156614)
(0.000875536 0.00122523 0.15702)
(-0.00242309 0.00118907 0.0391446)
(0.000533342 -0.000722169 0.152523)
(-0.000883366 0.000506663 0.114265)
(-0.00108648 -0.000230478 0.152278)
(0.00131677 0.000670617 0.15799)
(0.000493411 0.000396239 0.157704)
(-0.000311456 -0.00158775 0.156272)
(-0.000103346 -0.00195296 0.156784)
(5.68859e-05 -0.000382349 0.0963078)
(-0.00171909 0.000348875 0.155772)
(-0.00209267 0.00246615 0.0616821)
(0.000340862 0.000558629 0.153636)
(-0.00100206 -0.000967131 0.115963)
(-0.00118053 0.000692379 0.146273)
(-0.000392428 -0.000405679 0.155402)
(-0.000195324 -8.79803e-05 0.147401)
(0.00113812 0.000600676 0.142641)
(0.00200963 0.00273642 0.0449628)
(0.000887049 0.000130014 0.038366)
(-0.00231332 -0.00223561 0.0239987)
(-0.00558469 0.000248649 0.146833)
(-1.53157e-05 3.98938e-05 0.160783)
(-0.00070115 -1.20667e-05 0.137594)
(0.00023279 -0.00190832 0.130563)
(0.00111338 0.000206785 0.0347889)
(0.000921429 -0.00288655 0.0265893)
(-0.000994903 -0.00133322 0.120332)
(-0.000954801 0.000654065 0.145202)
(-0.000718721 -0.000186046 0.155768)
(0.000557197 -0.000685392 0.150798)
(-0.00118159 -0.000681836 0.138333)
(-0.00051842 0.000997174 0.158503)
(0.000898068 -0.000628426 0.136967)
(-0.00134911 0.00265551 0.0297112)
(-0.000523576 0.000483475 0.127222)
(0.00270503 -0.0016251 0.0636939)
(-0.00708268 -0.000779821 0.0706291)
(0.000464568 7.2529e-05 0.147124)
(0.000263131 0.000100691 0.101668)
(0.000409411 -0.000414358 0.144132)
(-0.00394165 0.00230255 0.0234288)
(0.00178496 -0.000680699 0.159242)
(-9.39309e-05 2.97094e-05 0.157695)
(-0.00141937 0.000607377 0.154943)
(0.000839207 -0.000568197 0.0993673)
(-0.000392157 -0.000685257 0.146364)
(-0.00101951 -0.000524005 0.154031)
(0.000208165 0.000356056 0.124375)
(-0.000870941 0.000189854 0.154969)
(-0.00374956 -0.000882582 0.101116)
(7.90563e-05 9.67112e-05 0.155749)
(-0.0019653 0.000602951 0.146734)
(0.00180448 -0.00137894 0.0232094)
(-2.05863e-05 0.00112752 0.15705)
(0.00116634 0.00101399 0.12077)
(-0.00299076 -0.00293626 0.0514483)
(-0.000746734 0.00153466 0.0982827)
(0.000630931 0.000655405 0.154046)
(3.18694e-05 -0.000481221 0.133009)
(0.00106356 0.002224 0.0919865)
(-0.00257386 0.00165084 0.0230007)
(-0.000394591 0.000938846 0.156918)
(0.000142431 0.00224299 0.12866)
(-0.000208327 0.000274094 0.152947)
(-0.000744886 9.25159e-05 0.128248)
(-0.00247055 0.000663586 0.0412007)
(0.000640114 3.5022e-05 0.140335)
(-0.00402359 0.000115164 0.0271749)
(-0.000172032 0.000280226 0.151779)
(-0.0119211 0.000593917 0.10227)
(1.56221e-05 0.000322897 0.153698)
(-0.000419233 0.00189758 0.0569018)
(-0.00139315 0.00154061 0.112835)
(-0.000537124 0.00159733 0.101709)
(0.00213182 -0.00223066 0.0386442)
(0.000617981 0.000141827 0.154363)
(-0.000905432 0.000679376 0.151138)
(-0.00249773 -0.000876661 0.0249058)
(0.000967984 -0.00128584 0.14973)
(-0.000553188 -0.00166245 0.154437)
(-0.000523908 0.00206574 0.0412541)
(0.0014761 0.00252031 0.067107)
(-0.00151489 0.00179945 0.0589957)
(-0.000487699 0.00120006 0.14725)
(0.000881175 -0.000321621 0.154436)
(-0.00114761 0.00128422 0.0335954)
(0.00179122 -0.000725492 0.059643)
(-0.000348727 0.00131431 0.062078)
(0.00128171 0.00104684 0.119711)
(0.000836929 -0.000678758 0.154631)
(-0.00309219 -0.0019332 0.0257925)
(0.00117518 0.00105681 0.153118)
(-0.00106966 -0.000391189 0.147699)
(-0.000821933 -0.00075779 0.155349)
(-0.00234031 -0.00482762 0.0901008)
(0.0010869 0.000378268 0.157256)
(0.00139256 -0.00230997 0.0255186)
(-0.000923437 6.61661e-05 0.15387)
(0.000219557 -0.000517466 0.0301112)
(0.000630406 -0.00204754 0.0629963)
(0.000169344 0.000471759 0.149402)
(-0.0010841 0.00174948 0.0657025)
(-0.00323544 0.00185209 0.0231534)
(0.000297301 -0.0016005 0.0409486)
(0.000257655 0.00306753 0.050069)
(0.000913952 -0.001918 0.0639238)
(-0.000738069 0.000314692 0.145032)
(-8.65696e-05 0.00121329 0.0545766)
(0.00104894 -0.00212591 0.0648015)
(-0.0143103 0.000348135 0.12784)
(-0.00108372 0.000249519 0.152019)
(0.00169161 -0.000100223 0.0266305)
(0.000573847 0.000795354 0.112683)
(-0.0080506 -0.00426773 0.0816431)
(0.00182142 0.000282653 0.1551)
(-0.00110265 0.000902108 0.0629186)
(-0.00123708 0.000626447 0.150414)
(0.00177482 0.00264283 0.0625703)
(-0.000772127 0.000251143 0.125671)
(-0.000926817 -0.00072143 0.155824)
(0.0032259 -0.00459515 0.0560666)
(8.26827e-05 0.000132696 0.157706)
(-0.00296539 -0.000985293 0.0481155)
(0.00299788 -0.00183111 0.0215747)
(-0.000446844 -6.84284e-06 0.143006)
(0.000113044 -0.00109954 0.154781)
(-0.00077695 9.44735e-05 0.131797)
(0.000883899 -0.00170843 0.128628)
(0.0018586 -9.63517e-05 0.156711)
(0.0015776 -0.000316993 0.0654683)
(0.00184125 6.61364e-05 0.154729)
(0.00143143 0.00281598 0.0612143)
(-0.000930695 -0.00056805 0.155692)
(0.00185434 0.000607855 0.129685)
(-0.00369284 -0.00238864 0.0313979)
(-0.000174899 0.000735804 0.15047)
(0.00118473 -0.00147135 0.0574284)
(0.00155712 0.00252603 0.0292349)
(-0.000193842 -4.05069e-05 0.148627)
(-0.00159017 5.72449e-05 0.0472469)
(-9.29271e-05 0.000523459 0.137321)
(0.000556133 0.000425054 0.153588)
(-0.000583329 0.00146991 0.131958)
(-6.48678e-05 0.00363857 0.0585837)
(0.00132605 -0.000224181 0.159228)
(0.0015123 0.000307536 0.096037)
(-0.000603402 0.000453928 0.160853)
(0.0005929 7.26179e-05 0.158742)
(0.00113028 0.000623694 0.158757)
(0.000335249 -0.000951529 0.154926)
(0.00296293 -0.00136484 0.0485276)
(0.000705328 0.000393152 0.0560518)
(-0.000844016 0.000402098 0.156993)
(-0.000782531 -0.001206 0.152976)
(0.000431904 0.00261441 0.0354507)
(-0.000310315 -0.00026278 0.150921)
(-8.69695e-05 0.000532699 0.160641)
(0.00105157 0.00136794 0.158027)
(0.0010663 0.00145418 0.158062)
(-0.000754547 0.00074288 0.121412)
(-0.00193327 0.00243796 0.0236751)
(0.000359424 0.000348352 0.159906)
(0.00125674 -0.00174237 0.104918)
(-0.000256256 -0.000539129 0.144037)
(4.37865e-05 -9.77886e-06 0.101542)
(-0.00222883 -0.00108188 0.0327509)
(-0.000854866 0.000750753 0.154349)
(-0.00142845 0.00212203 0.0969445)
(0.00065963 0.000116656 0.136135)
(0.00102811 0.00161374 0.157303)
(-0.000941566 0.00121375 0.140068)
(0.00183443 0.00214913 0.0191645)
(-0.00263417 0.00114739 0.0246426)
(-6.1842e-05 -0.00165671 0.152642)
(-3.98157e-05 -0.000272266 0.150678)
(-0.000223016 0.00156468 0.156761)
(-0.000859729 0.000130424 0.144676)
(-0.000307765 0.00143544 0.0972493)
(-0.000255253 0.00130311 0.145915)
(0.000359694 3.06486e-05 0.156315)
(0.00077287 0.00172877 0.0225851)
(2.09622e-05 -0.00172493 0.152791)
(-0.0128065 0.00107618 0.134684)
(-3.72176e-05 0.00216646 0.0417394)
(-0.000424131 0.0038475 0.058825)
(0.000142987 0.00129136 0.144617)
(0.00162514 -3.04542e-05 0.141593)
(9.97209e-05 -0.000974501 0.138707)
(0.000706956 -0.000201412 0.128859)
(-0.00295266 0.00204498 0.110913)
(-0.000344776 -0.00015639 0.157343)
(0.00117914 -0.00284096 0.103713)
(0.00159322 -0.000614737 0.159147)
(0.000240299 -0.000579708 0.153812)
(0.00175322 -0.00136578 0.159063)
(0.00143786 -0.000878143 0.153772)
(0.00167421 0.00162625 0.044063)
(0.00119736 1.9952e-07 0.154175)
(-0.000373473 -0.00163205 0.0359687)
(-0.0104999 -0.00140894 0.0944814)
(0.00207279 -0.0012504 0.0647309)
(-0.0121751 -0.000146842 0.126892)
(0.000847546 2.88627e-05 0.133362)
(-0.0189327 0.000506958 0.11751)
(0.000204882 8.41679e-05 0.152937)
(0.000144368 9.05769e-05 0.15971)
(-0.00039789 0.000363839 0.147735)
(0.00105704 0.000836032 0.153456)
(-0.000537169 -0.000135577 0.0373259)
(-0.00460498 0.000151324 0.100944)
(-0.0159461 0.00112421 0.112413)
(-0.000254561 -0.000159464 0.154587)
(-0.000489483 0.00256172 0.117647)
(-0.0120802 0.000885134 0.13634)
(-0.00269302 0.00100594 0.149868)
(0.000868169 0.000809526 0.116783)
(-0.00132075 -0.000649341 0.0387036)
(0.00177073 0.00256194 0.0580502)
(-0.000190854 -1.67274e-05 0.0270451)
(0.00152705 0.00128569 0.0256607)
(-0.000299367 -0.000158548 0.0376695)
(-0.00768461 0.000948865 0.134298)
(-0.000560404 9.28372e-05 0.138159)
(-0.00263537 -0.00264945 0.0261352)
(-0.00324022 0.000833911 0.0245239)
(0.000681833 0.000798746 0.156315)
(-0.0146881 0.0032377 0.0962802)
(-0.00181435 -9.71021e-06 0.0402774)
(-0.000151676 -0.000343668 0.145588)
(-0.00170438 0.000808512 0.111479)
(0.00105844 -0.000179873 0.136229)
(0.00143261 0.00209651 0.045437)
(-0.00111487 -0.00138254 0.058004)
(0.000247579 0.00101301 0.11644)
(8.7487e-05 0.00050556 0.153762)
(-0.000221034 0.000879532 0.147346)
(-0.00206214 0.00289647 0.0393385)
(-0.000800737 -0.00218777 0.0261555)
(-0.0188653 0.000234951 0.106237)
(-0.00298738 0.00188773 0.0278981)
(-9.28741e-05 0.00153961 0.136019)
(-0.00393223 -0.00108808 0.0298348)
(0.000525205 0.002272 0.110004)
(-0.00049237 -0.000191875 0.154806)
(0.000982206 0.000853541 0.161133)
(-0.000607066 -0.000949204 0.0472661)
(0.000854974 -0.000901376 0.103936)
(-0.00196087 -0.00037501 0.0381185)
(-0.00385585 -0.000172729 0.0307032)
(0.000283368 -0.000782062 0.155069)
(-0.00298118 0.00131585 0.0207836)
(0.00171136 -0.000798218 0.151373)
(-0.000570294 -0.00248458 0.0517595)
(-0.000116613 0.000687533 0.149235)
(-0.000250457 0.000335778 0.141166)
(0.00346574 0.00137406 0.0238255)
(-0.000930216 -0.00262514 0.0601737)
(0.000221758 0.00020519 0.144832)
(-8.63105e-05 0.00168538 0.0367973)
(0.000367348 -0.000878155 0.148219)
(-0.00130009 0.00392697 0.0579101)
(0.000337988 -0.000189177 0.114066)
(0.00035291 0.000993073 0.156141)
(0.00139318 0.000146016 0.0393951)
(-0.00342459 -0.000657292 0.0254106)
(-0.000861084 -0.000543909 0.0542934)
(-0.0177307 -1.17944e-06 0.110752)
(-0.000606172 0.000191655 0.111166)
(0.000459192 0.00365903 0.0601233)
(0.00161264 -4.18754e-05 0.091463)
(0.000514583 0.00139001 0.0330892)
(0.000546686 0.000925592 0.15609)
(0.00104963 0.00129581 0.025324)
(-0.000230145 0.00187269 0.157274)
(0.000751544 0.000824889 0.145356)
(0.000498072 0.000363112 0.154175)
(-0.00217743 -0.000255618 0.0210567)
(0.00111118 0.000840448 0.148204)
(-6.42435e-05 0.000573878 0.087361)
(0.000313004 0.000934566 0.15074)
(0.000113336 0.00034339 0.0579693)
(-0.0146117 0.000436326 0.108104)
(-0.00104358 0.00119007 0.15338)
(0.000505297 -7.06433e-05 0.0437422)
(-3.2008e-05 0.000331517 0.157)
(-0.0203634 0.00239893 0.108836)
(-0.000426663 -0.000334994 0.121896)
(-0.000766417 -0.00195188 0.0352439)
(-0.00115387 0.00252446 0.0547969)
(0.000135186 0.000131888 0.155765)
(0.000238818 -0.00132296 0.135067)
(-0.0012683 0.00177484 0.0348506)
(-0.000147359 -0.00167484 0.114892)
(0.00193853 0.0008243 0.0641441)
(-0.00192232 0.00209572 0.0267684)
(-2.3846e-05 -0.000114524 0.155907)
(-0.0101841 0.000478886 0.103313)
(-0.00087586 -0.00237218 0.134631)
(0.000184246 0.000110877 0.155048)
(0.000555653 0.000171535 0.155475)
(0.00074131 -3.85206e-06 0.153138)
(0.000764509 0.000659266 0.136003)
(0.00123929 0.000544083 0.0470329)
(-0.000363737 0.00303533 0.0433321)
(0.00166496 6.21454e-05 0.158998)
(-0.0128231 -0.000492543 0.107542)
(0.000239592 0.00112719 0.12627)
(0.000920148 -0.000391498 0.133033)
(0.00183918 -0.000773367 0.0871262)
(-2.07423e-05 0.000220171 0.146163)
(-0.00044928 0.000502164 0.152229)
(-0.00126087 -0.0008019 0.105425)
(-0.00145413 0.00134466 0.110114)
(-0.000999877 0.00233202 0.0399433)
(-0.000810846 -0.000316358 0.0764736)
(-0.00260824 -0.00208102 0.0477986)
(-3.16427e-05 -0.000891139 0.146561)
(-0.000234285 -0.000546476 0.156494)
(0.000127108 0.00286855 0.100717)
(2.85709e-05 -0.000838542 0.10366)
(0.00142769 -0.00198524 0.0227663)
(2.0779e-06 -0.000951996 0.0849293)
(-0.00316925 -0.00141917 0.0621706)
(-0.000777395 0.000461229 0.155663)
(0.000848014 0.000673762 0.155954)
(-0.0113198 -0.000704359 0.104803)
(-0.00112339 0.000377599 0.149848)
(-0.00145099 0.00283808 0.0873841)
(-0.00834007 0.000390678 0.101693)
(-0.000429748 -0.00190887 0.135499)
(0.00225962 0.000833758 0.0292579)
(0.000641 0.000624364 0.155908)
(-0.00019636 0.00151478 0.0538587)
(-0.000905869 -0.000379769 0.138546)
(0.00396041 -0.00179058 0.0310109)
(0.00164407 0.000425202 0.156751)
(-0.00512121 -0.000271174 0.101644)
(-2.34028e-05 -0.000319366 0.150162)
(-3.14495e-05 -0.000603327 0.120931)
(0.000147196 0.000116611 0.143726)
(-5.16159e-05 0.00022622 0.147232)
(0.000378162 0.000493767 0.156364)
(0.000126348 0.00213 0.03751)
(-0.000109533 -0.00152702 0.0512826)
(-0.000397519 0.000731922 0.0313351)
(5.50079e-05 0.000574064 0.154408)
(0.000836124 -0.000407364 0.148698)
(0.00176077 0.000345204 0.137019)
(0.000614201 -6.94441e-06 0.153225)
(0.000246723 -0.000701445 0.0226416)
(-0.000128902 1.23588e-05 0.103981)
(0.00134009 -0.00154895 0.0950031)
(8.75661e-05 0.000409852 0.155104)
(-0.0010888 -0.000273099 0.130234)
(-0.000126557 -0.000246265 0.142489)
(-0.00144221 0.000543297 0.110449)
(5.9239e-05 0.000549539 0.155208)
(-0.00305827 0.00219427 0.0224922)
(0.000354827 0.00339346 0.0909296)
(-0.000107039 0.000355454 0.146029)
(-5.32466e-05 0.00320659 0.0287533)
(0.000236716 0.00225733 0.0475847)
(-0.00105129 -0.000826377 0.0660881)
(-0.00273142 -0.00109782 0.0238149)
(0.0011867 -0.000136137 0.10071)
(-0.0010637 0.000183599 0.153639)
(-0.000489473 0.00234755 0.0636493)
(0.0025968 0.00201841 0.021147)
(-0.000431895 -0.000888663 0.110946)
(0.000485105 6.44323e-05 0.0276051)
(-9.93243e-05 0.00159183 0.104744)
(0.00011531 4.96464e-05 0.154213)
(0.000332613 0.000202563 0.156108)
(0.000152494 0.000490342 0.154405)
(0.0015006 0.000727285 0.153865)
(0.00018516 0.000149566 0.154233)
(-0.000142596 0.00134691 0.132654)
(0.00126997 -0.00104548 0.0504195)
(0.0010439 6.53814e-05 0.154676)
(-0.000132522 -0.000780958 0.12889)
(-0.000665436 -0.00141938 0.0939549)
(-0.00129125 -0.000619055 0.10092)
(0.000132154 -4.79997e-05 0.151339)
(-0.00107606 0.000923912 0.120972)
(0.0010493 0.00149149 0.0707515)
(0.000117972 -0.000831901 0.149049)
(0.000255678 -0.00120751 0.0363346)
(0.000717012 0.000472035 0.0935645)
(0.000276992 -0.00048726 0.10147)
(-0.00096308 0.000534651 0.0658178)
(0.000214465 0.000261765 0.15185)
(-0.0182415 -0.000400252 0.105988)
(-0.0079307 2.56569e-05 0.126948)
(-0.00059828 0.00308908 0.0361542)
(0.00226246 -0.000352569 0.0291558)
(-0.000191255 0.00247666 0.0602527)
(0.00225232 -0.000422395 0.0225106)
(-0.000227682 0.000275089 0.128871)
(-0.00020099 0.00161408 0.145155)
(-0.000681246 0.00161372 0.131818)
(-0.0145704 0.00112552 0.110581)
(-0.000277966 0.000502282 0.132533)
(-0.000138806 0.00132295 0.141096)
(0.00459331 0.00312088 0.0276892)
(-0.000516054 0.00115021 0.146675)
(-0.0125307 2.7582e-05 0.126963)
(-0.00143851 -0.000350644 0.0480687)
(0.00309636 0.00258038 0.0245406)
(-0.000251348 -0.0010693 0.119257)
(-0.00103219 -0.00082899 0.116491)
(-0.00313542 -0.00216136 0.0283049)