/*--------------------------------*- C++ -*----------------------------------*\
| =========                 |                                                 |
| \\      /  F ield         | OpenFOAM: The Open Source CFD Toolbox           |
|  \\    /   O peration     | Version:  2406                                  |
|   \\  /    A nd           | Website:  www.openfoam.com                      |
|    \\/     M anipulation  |                                                 |
\*---------------------------------------------------------------------------*/
FoamFile
{
    version     2.0;
    format      ascii;
    arch        "LSB;label=32;scalar=64";
    class       volVectorField;
    location    "28";
    object      momentum:momentum;
}
// * * * * * * * * * * * * * * * * * * * * * * * * * * * * * * * * * * * * * //

dimensions      [1 1 -1 0 0 0 0];

internalField   nonuniform List<vector> 
59516
(
(2.39819e-07 1.23502e-09 -1.23642e-09)
(1.79666e-07 6.23621e-11 -5.28155e-10)
(2.1619e-07 -2.95334e-09 -1.15643e-10)
(1.77327e-07 3.0269e-09 2.144e-09)
(2.00555e-07 5.41479e-10 -7.6753e-09)
(5.03681e-08 -2.41828e-09 -5.37788e-09)
(2.17892e-07 2.11469e-10 -2.5552e-09)
(2.11761e-07 1.79633e-09 -1.1767e-10)
(1.66381e-07 1.19572e-09 6.82759e-11)
(9.12718e-08 -1.25599e-09 3.6276e-09)
(2.00173e-07 6.43516e-10 -1.42385e-09)
(1.0969e-07 1.08915e-09 -5.28001e-09)
(3.41818e-07 2.79983e-09 -5.24713e-11)
(1.81525e-08 -6.69191e-11 -1.96096e-10)
(1.71873e-07 4.58588e-09 8.0538e-09)
(9.53999e-08 6.07855e-09 -3.38722e-09)
(2.48437e-07 9.21881e-10 -1.8182e-10)
(1.61922e-07 8.65787e-09 -8.59486e-09)
(3.3591e-07 1.18955e-08 3.47003e-09)
(3.48252e-07 -1.32741e-09 9.76092e-10)
(1.04914e-07 8.73859e-10 -1.28711e-09)
(3.15847e-07 9.04378e-11 8.48571e-10)
(3.4392e-07 1.53465e-09 -2.62721e-12)
(4.01976e-08 -1.22369e-09 -2.83576e-10)
(3.02287e-07 -1.58137e-09 2.90517e-09)
(2.25205e-07 3.84169e-09 2.6426e-09)
(6.02021e-08 1.2482e-09 -3.57308e-09)
(7.65019e-08 6.04211e-09 7.61913e-10)
(1.52312e-07 4.139e-09 5.02153e-10)
(1.58793e-08 -2.49376e-09 6.84364e-10)
(1.89407e-07 -3.64596e-08 -7.98753e-09)
(8.63598e-08 6.36299e-09 -9.73323e-10)
(1.77931e-07 -1.03299e-10 1.03854e-09)
(1.84304e-07 -7.25814e-10 3.66073e-09)
(1.31722e-07 2.20332e-09 2.01173e-09)
(3.98365e-07 -1.31822e-09 -1.99929e-10)
(1.54815e-08 -1.46846e-09 -2.02496e-09)
(1.33508e-07 4.94749e-09 -1.20329e-08)
(2.78819e-07 -7.31265e-09 -4.53823e-10)
(2.68204e-07 -4.12917e-09 1.50585e-09)
(2.77332e-07 -2.29245e-09 6.10286e-10)
(4.03478e-07 -1.73602e-08 -1.63503e-08)
(3.39211e-07 -1.86326e-09 -8.27946e-10)
(1.20028e-07 -8.41235e-10 2.74401e-10)
(2.66765e-07 -2.42328e-09 6.73899e-10)
(1.15526e-07 -1.63339e-09 -2.66918e-09)
(3.28423e-07 -2.36987e-09 -4.04944e-09)
(2.41092e-07 -1.4438e-09 -1.39662e-10)
(2.51708e-07 -1.99717e-08 2.78872e-08)
(2.3297e-07 5.84331e-09 5.24541e-09)
(1.63873e-07 1.63967e-08 -2.28119e-08)
(8.81644e-08 -6.34581e-09 4.05469e-09)
(3.33579e-07 2.68833e-09 -5.16307e-09)
(3.12782e-07 -6.11729e-10 -7.45876e-10)
(8.83598e-08 4.5812e-09 -4.2656e-11)
(2.49125e-07 7.11092e-10 -6.07384e-10)
(1.98945e-07 9.2101e-09 9.9628e-09)
(9.1521e-08 6.94904e-09 -4.53435e-09)
(1.87701e-07 -1.33442e-09 1.94219e-10)
(1.44515e-07 4.96881e-09 6.17374e-09)
(2.05084e-07 -5.9281e-11 8.22183e-10)
(1.785e-08 2.04723e-09 -7.67619e-10)
(2.41623e-07 -1.00153e-09 -1.10979e-09)
(3.14455e-07 1.13871e-09 -9.07348e-10)
(3.11565e-07 1.43809e-09 -8.99463e-10)
(2.08977e-07 2.60547e-09 2.76364e-09)
(2.16069e-08 -1.43144e-09 1.92075e-09)
(7.57085e-08 2.59174e-10 -2.36598e-10)
(1.97837e-07 -7.93856e-09 3.57718e-08)
(1.70535e-07 1.62824e-09 4.76502e-10)
(6.03555e-08 1.65837e-09 4.59479e-10)
(1.46782e-07 4.52913e-10 -4.04955e-10)
(2.72854e-08 1.72819e-09 -4.06917e-09)
(1.84321e-07 -6.72505e-10 -5.03233e-10)
(3.31008e-07 -1.89271e-09 7.10349e-10)
(3.48078e-07 7.4336e-10 3.46411e-10)
(2.02837e-07 3.91191e-10 -4.38727e-10)
(2.214e-07 4.99939e-10 -9.42126e-10)
(9.70468e-08 -3.26862e-09 2.75934e-09)
(1.85683e-07 2.74926e-09 5.05085e-09)
(5.94538e-08 3.02744e-09 1.10844e-09)
(1.66392e-07 2.8232e-09 3.23854e-09)
(1.80321e-07 1.65566e-09 3.53331e-09)
(2.14992e-08 -8.52981e-10 2.91935e-09)
(2.09305e-07 3.03656e-09 4.29487e-09)
(3.39955e-07 -1.32609e-09 2.81363e-10)
(3.6524e-08 -1.2897e-09 6.09207e-10)
(4.95936e-07 1.34398e-10 2.34558e-09)
(1.24409e-07 1.59512e-09 5.29845e-09)
(1.68096e-07 1.21583e-08 -7.81927e-09)
(1.8266e-07 -8.2206e-10 -1.41313e-08)
(1.85115e-07 1.78667e-09 -2.77676e-11)
(2.33794e-07 -1.10437e-10 4.26528e-10)
(1.80126e-07 8.03542e-10 -3.86534e-10)
(1.67888e-07 -4.92867e-10 1.2435e-10)
(1.83545e-07 -1.73403e-08 6.81011e-09)
(1.23842e-07 -7.86979e-10 1.20021e-09)
(9.51325e-08 -2.8602e-09 -6.95726e-09)
(1.19847e-07 3.59379e-09 -8.02183e-10)
(2.03548e-07 -7.60102e-10 1.98184e-09)
(7.14854e-08 1.49806e-09 2.49822e-09)
(3.11655e-08 1.42129e-09 -3.56832e-09)
(2.72647e-08 1.03024e-09 3.78731e-09)
(9.66359e-08 -1.49461e-09 -4.66886e-09)
(2.3788e-07 1.14115e-09 -3.47844e-10)
(1.56823e-07 3.97805e-10 7.69276e-10)
(6.46238e-08 5.27744e-09 -2.20988e-09)
(1.48214e-07 3.64137e-10 -8.50158e-10)
(1.88606e-07 -1.176e-09 -5.14029e-10)
(2.11378e-07 1.29134e-09 -8.60263e-09)
(2.79967e-07 2.76331e-08 -2.87923e-08)
(5.09242e-08 4.95396e-09 -4.2777e-10)
(2.08544e-07 2.16983e-09 -1.14111e-08)
(2.19274e-07 3.10711e-08 -1.55525e-08)
(2.09689e-07 -3.59313e-10 4.57188e-10)
(1.48828e-07 1.47841e-09 1.0175e-09)
(1.42631e-07 1.20214e-09 -5.55001e-09)
(1.4563e-07 4.30947e-10 9.51077e-10)
(2.1151e-08 -1.58259e-10 1.02599e-09)
(2.57773e-07 3.27444e-09 6.37217e-10)
(3.55646e-07 -2.51574e-10 2.38723e-10)
(1.6135e-07 7.90559e-10 1.79991e-10)
(1.54206e-07 -2.22027e-10 1.39919e-10)
(1.67257e-07 1.068e-10 3.50323e-10)
(1.32665e-07 -1.62349e-08 2.80091e-09)
(1.4837e-07 1.47505e-09 -2.78336e-09)
(4.12669e-08 -6.588e-10 2.79574e-09)
(2.11412e-07 -1.71432e-08 -8.70727e-10)
(1.63317e-07 -4.91553e-09 2.37091e-08)
(1.40291e-07 4.92501e-10 5.00724e-10)
(2.45928e-07 7.85748e-10 2.04621e-09)
(3.45138e-07 4.12542e-09 5.87399e-09)
(2.62817e-08 1.3812e-09 -1.84203e-09)
(2.52747e-07 -1.97601e-10 1.28203e-09)
(3.38189e-07 2.62221e-09 1.19261e-09)
(2.09691e-07 -1.97794e-09 -2.6219e-09)
(1.52288e-07 1.73246e-08 -1.21777e-08)
(3.24629e-07 -1.05775e-09 1.47439e-09)
(6.02933e-08 3.89547e-09 1.33479e-10)
(1.70531e-07 1.22178e-09 -2.30072e-09)
(8.817e-08 -1.67991e-09 -4.2641e-09)
(2.87798e-07 2.11166e-10 -3.54518e-10)
(1.59979e-08 7.59796e-10 1.45309e-09)
(1.56168e-07 -1.61416e-09 -6.18173e-10)
(1.91251e-07 4.46973e-10 3.47704e-11)
(2.80342e-07 2.95725e-09 -3.21081e-10)
(2.04172e-07 -2.74409e-09 -1.68795e-10)
(2.14333e-07 6.60309e-10 -3.16162e-09)
(6.40866e-08 -1.05938e-09 1.8187e-09)
(2.19436e-07 -1.19856e-09 -1.72324e-09)
(3.41832e-07 -7.36152e-10 -2.46272e-09)
(6.15949e-08 -2.15563e-09 9.24783e-11)
(3.60411e-07 -1.27581e-09 2.59388e-09)
(2.12219e-07 -5.34286e-10 1.61372e-09)
(1.72387e-07 -1.12745e-09 3.10402e-09)
(1.73092e-08 -4.24122e-10 1.87933e-09)
(2.95808e-07 1.12475e-09 -5.801e-10)
(3.47981e-07 2.886e-09 -7.96719e-10)
(1.40044e-07 1.97234e-09 3.43419e-11)
(1.85841e-08 2.15577e-09 -2.51577e-09)
(9.82491e-08 2.18658e-09 -4.61996e-09)
(1.23285e-07 -6.08105e-09 -3.90311e-09)
(4.60416e-08 -2.23278e-09 4.72914e-10)
(2.65476e-08 -1.83126e-10 -5.21843e-10)
(1.76391e-07 2.45304e-09 3.67339e-09)
(3.00785e-07 6.13912e-10 1.86429e-09)
(1.74195e-07 -1.19016e-09 1.11855e-09)
(2.49116e-07 8.51887e-10 2.88899e-11)
(1.9833e-08 -1.14576e-09 2.33581e-09)
(2.11335e-07 -4.05746e-10 5.53351e-10)
(9.46259e-08 1.43432e-09 1.25779e-09)
(7.54538e-08 1.03822e-09 -9.74854e-10)
(1.18862e-07 3.06514e-09 1.74477e-09)
(1.52311e-07 -9.65107e-10 9.2329e-10)
(9.65239e-08 -1.75032e-09 5.90668e-10)
(4.56168e-07 -1.71037e-11 -7.62524e-09)
(2.26609e-07 1.88239e-10 -1.38211e-09)
(3.06776e-07 -4.29677e-09 -2.25565e-09)
(1.66143e-07 -2.44814e-09 8.51588e-09)
(7.13468e-08 -4.16537e-10 -5.87785e-10)
(3.03256e-07 3.27364e-09 2.43467e-09)
(4.93212e-08 -4.03688e-09 -1.74745e-09)
(3.47433e-08 -3.73841e-10 -2.70497e-09)
(1.17132e-07 -3.2367e-09 4.61294e-11)
(1.81392e-07 -1.31009e-10 1.19202e-09)
(1.08491e-07 5.53491e-10 1.19835e-09)
(5.28637e-08 -1.04686e-09 -3.87966e-09)
(2.38184e-08 7.20478e-12 3.11737e-10)
(1.98453e-07 2.50815e-10 6.45567e-10)
(2.43096e-07 -3.37873e-09 4.25032e-11)
(1.58675e-07 -1.00981e-09 3.04221e-09)
(1.30509e-07 7.41476e-09 4.50441e-10)
(2.01586e-07 -5.89844e-10 -1.71825e-10)
(1.06242e-07 4.57259e-09 -2.45584e-10)
(3.29551e-07 -1.34968e-09 -4.00269e-10)
(3.27203e-08 -2.70987e-10 8.46333e-10)
(1.09659e-07 1.31252e-09 -7.1112e-10)
(6.53786e-08 -1.43301e-09 4.63169e-10)
(1.97668e-07 4.56292e-09 5.93104e-09)
(2.56187e-07 2.69278e-10 5.5606e-10)
(8.49351e-08 -2.62501e-09 4.36464e-10)
(1.67871e-07 -1.00527e-10 -2.79032e-10)
(3.36379e-07 -1.56982e-09 2.70733e-09)
(1.85135e-08 2.07143e-09 -1.23402e-09)
(2.30243e-07 -3.06531e-09 -9.89413e-10)
(2.36867e-07 -2.6939e-10 -6.89759e-11)
(3.07441e-07 -4.54555e-10 -1.32741e-11)
(1.87798e-07 -7.37276e-11 1.45874e-10)
(2.07927e-08 -5.49364e-10 1.8032e-10)
(3.18985e-07 -4.66418e-09 -2.26608e-10)
(6.87139e-08 4.54493e-09 3.71525e-09)
(2.64996e-08 -4.27431e-09 -6.57333e-10)
(2.3231e-07 7.35224e-10 -2.12987e-09)
(1.07379e-07 -1.85067e-09 1.77029e-09)
(3.09992e-07 2.30039e-09 -3.27193e-10)
(2.66061e-07 -1.40524e-09 1.05284e-09)
(2.70868e-07 1.81869e-09 3.07254e-10)
(2.01498e-07 -1.15944e-09 5.86242e-10)
(9.3693e-08 3.78028e-09 -4.31647e-09)
(2.12031e-07 -9.79181e-10 4.47225e-10)
(1.34823e-07 5.7077e-09 3.72893e-09)
(2.04172e-07 1.69015e-09 -1.87617e-10)
(1.66355e-07 8.90866e-10 1.40392e-09)
(8.72667e-08 -2.2916e-10 1.92222e-09)
(2.7034e-07 -2.63773e-09 1.23079e-09)
(2.83205e-07 3.91957e-10 -1.41161e-09)
(3.61772e-08 -3.9568e-10 1.94132e-09)
(7.42971e-08 2.42042e-09 -3.34877e-09)
(1.82049e-07 -5.32979e-10 1.54618e-09)
(1.33365e-07 2.97342e-10 -8.96615e-09)
(2.22919e-07 -1.44164e-09 5.12533e-10)
(1.63788e-07 7.11523e-10 -6.84041e-10)
(2.78085e-07 5.87293e-10 2.49173e-09)
(3.10148e-08 -2.43477e-09 -1.67213e-09)
(3.58574e-08 9.89719e-10 -1.67927e-09)
(4.49609e-08 1.2221e-09 -1.56431e-09)
(1.21849e-07 6.00756e-10 1.42091e-09)
(1.8893e-07 -2.9905e-09 1.28759e-09)
(3.98755e-07 1.25274e-09 3.98163e-09)
(9.71313e-08 -1.62248e-09 2.03171e-09)
(2.18557e-07 1.34549e-10 1.6084e-09)
(2.17682e-08 5.07669e-10 3.12401e-09)
(1.2276e-07 -4.79875e-11 1.61171e-09)
(3.1535e-08 3.00507e-10 3.41574e-09)
(1.44675e-07 5.76591e-10 5.61966e-10)
(1.66602e-07 -7.40395e-10 -9.55327e-10)
(1.92438e-07 -1.33548e-10 8.69686e-10)
(2.07982e-07 7.67699e-10 -3.37283e-09)
(2.59074e-07 -5.98296e-10 1.21754e-09)
(2.12196e-07 4.20436e-10 5.76585e-10)
(3.6029e-07 -4.72647e-09 3.09424e-09)
(2.11807e-07 5.0615e-11 1.3061e-09)
(1.67239e-07 3.24594e-10 1.20928e-09)
(2.77852e-07 7.8503e-10 -4.22528e-10)
(2.76521e-07 2.11654e-09 9.95667e-10)
(2.86338e-07 6.57486e-10 8.95219e-10)
(1.25118e-07 4.65215e-10 -1.86201e-10)
(2.73119e-07 3.69802e-10 2.52716e-09)
(9.22087e-08 -6.26233e-10 -5.07623e-09)
(1.08389e-07 9.71207e-10 3.56474e-09)
(2.24691e-07 1.45348e-09 -9.5934e-10)
(2.46489e-07 -1.95823e-09 1.64849e-09)
(2.50978e-07 4.0584e-09 3.32096e-09)
(2.571e-07 -1.51711e-09 1.81164e-09)
(8.00927e-08 -1.86599e-10 1.70517e-09)
(1.20658e-07 4.92054e-09 -2.60124e-09)
(2.90586e-07 1.18971e-09 -1.52226e-09)
(2.33716e-07 3.9586e-09 1.40492e-09)
(6.93442e-08 -1.15983e-09 -1.31415e-09)
(8.36594e-08 -1.29391e-10 -2.26244e-09)
(1.75052e-07 5.33987e-10 -4.10786e-09)
(1.69247e-07 -9.59489e-10 -4.28397e-10)
(3.33935e-07 -6.50156e-09 3.41161e-10)
(1.63002e-07 -1.6205e-09 1.41508e-09)
(3.12409e-07 -3.44121e-09 9.37755e-10)
(2.06156e-07 -9.72806e-10 5.78415e-09)
(2.26124e-08 2.63012e-09 -1.58887e-09)
(2.83339e-07 -1.58608e-09 2.25403e-09)
(3.30056e-08 2.15809e-09 -2.72013e-09)
(5.97097e-08 -2.31196e-09 1.39467e-09)
(3.09067e-07 -2.17314e-10 2.67676e-09)
(2.5165e-07 -1.37303e-09 1.45771e-10)
(3.16865e-08 3.20791e-09 3.5146e-09)
(3.11863e-07 1.93616e-09 -4.76899e-10)
(2.58155e-07 3.67245e-09 -1.83454e-10)
(2.31021e-07 1.19503e-09 -2.09332e-10)
(2.85229e-07 -7.72881e-10 5.51671e-10)
(2.70436e-08 3.12987e-09 7.55294e-10)
(2.4607e-07 -1.25399e-09 1.81621e-09)
(1.28233e-07 -1.47596e-09 -2.72896e-11)
(1.43568e-07 -1.53375e-10 1.26496e-09)
(2.54592e-07 -3.90596e-10 2.38827e-09)
(1.6808e-07 1.3732e-09 1.35264e-09)
(1.90162e-07 9.08591e-10 -7.19846e-10)
(2.46622e-07 1.19421e-09 4.30289e-10)
(4.42675e-08 -1.62498e-09 -1.93978e-09)
(2.64638e-07 -3.64831e-09 4.62453e-10)
(1.92931e-07 -1.90066e-09 -1.08848e-09)
(3.15391e-07 -2.77596e-09 1.72049e-09)
(2.4169e-07 -2.59259e-09 2.40873e-10)
(3.2389e-07 -2.62606e-09 4.59855e-10)
(1.53596e-07 2.02866e-09 2.86169e-09)
(2.26462e-08 -2.78437e-10 1.63928e-09)
(4.06618e-08 -1.13204e-09 7.44136e-10)
(4.89387e-07 -5.35313e-09 -1.79124e-10)
(2.11847e-08 -1.31303e-09 2.97428e-09)
(1.90712e-07 -7.20952e-10 -3.13028e-09)
(8.11905e-08 4.27354e-09 1.5173e-09)
(2.91437e-07 -2.2278e-09 9.25233e-10)
(3.42586e-07 4.69292e-10 -1.21207e-09)
(3.08345e-07 -1.19862e-09 -2.19726e-10)
(1.35526e-07 -8.54424e-10 -2.91655e-09)
(3.12923e-07 3.02492e-09 -5.56175e-09)
(7.67345e-08 -6.02143e-09 5.08841e-09)
(9.33026e-08 1.55685e-09 3.06869e-09)
(1.87023e-07 -1.25523e-09 -1.65385e-10)
(1.67579e-07 2.3639e-09 -1.32272e-09)
(2.69401e-07 3.07845e-08 9.02526e-09)
(2.04289e-07 -4.18793e-09 1.94201e-09)
(7.31442e-08 -4.3611e-10 -7.37076e-10)
(1.13459e-07 -1.53415e-09 3.02412e-09)
(2.1757e-07 -7.21156e-10 -2.92722e-09)
(1.93945e-07 1.04211e-10 -1.07929e-10)
(3.69735e-07 1.4029e-09 7.94968e-10)
(1.96065e-07 -4.76618e-11 1.67978e-09)
(4.65773e-07 -5.5557e-09 1.01841e-09)
(1.69415e-07 4.90144e-09 6.8576e-09)
(3.43324e-07 3.47503e-09 1.06792e-09)
(2.52699e-07 2.59903e-09 -1.48731e-11)
(1.86172e-07 8.69201e-11 1.38936e-10)
(3.17884e-07 -7.34373e-10 1.6451e-09)
(1.13828e-07 2.71013e-09 -6.16463e-09)
(2.63143e-08 -1.69436e-09 -3.21669e-09)
(2.85872e-07 -6.51863e-10 9.38826e-10)
(6.61309e-08 -2.87359e-09 3.36417e-09)
(3.22018e-08 2.71602e-10 -5.13579e-11)
(3.67951e-07 1.49068e-10 3.82124e-09)
(1.98147e-07 -7.29261e-10 8.37451e-10)
(1.10753e-07 -2.87058e-09 -4.11569e-09)
(2.28354e-07 -1.17695e-09 1.16856e-09)
(3.06218e-07 -2.78499e-09 5.3151e-10)
(3.70385e-07 -1.26153e-09 -1.96329e-09)
(2.41899e-07 2.38945e-10 -6.13544e-10)
(3.53649e-08 1.38477e-09 -5.45645e-11)
(3.04837e-07 6.53426e-10 -1.07586e-09)
(1.92927e-07 -1.39748e-09 8.87023e-10)
(1.09996e-07 -1.99947e-10 1.46091e-09)
(2.5703e-07 -6.20129e-10 2.57782e-09)
(2.24233e-07 1.41985e-10 3.7642e-10)
(1.76742e-07 -3.50533e-11 -1.21149e-09)
(2.04416e-07 -1.86103e-11 -7.50942e-10)
(2.64222e-07 -7.13093e-10 1.86412e-09)
(2.00325e-07 -1.80414e-09 4.49868e-10)
(8.52128e-08 -4.54711e-10 -3.06454e-10)
(2.26074e-08 8.65232e-10 -7.17512e-10)
(4.44521e-08 -3.02352e-09 -5.0135e-10)
(2.3717e-07 1.23177e-09 1.40133e-09)
(2.68618e-07 -2.00214e-08 3.23685e-08)
(1.15993e-07 -6.4584e-09 -9.30051e-09)
(1.212e-07 4.32575e-10 4.32271e-12)
(2.59714e-07 2.35926e-10 3.89146e-09)
(3.12358e-07 5.98106e-10 5.02722e-10)
(2.18349e-07 1.47403e-10 3.26318e-09)
(3.49727e-07 1.16496e-09 1.41921e-09)
(3.46372e-07 -1.63165e-09 1.34181e-10)
(2.1743e-07 9.12073e-10 7.42856e-10)
(1.33694e-07 1.13603e-09 3.86782e-10)
(2.6816e-08 -6.46351e-10 -3.014e-10)
(2.40915e-07 -4.69397e-08 5.94479e-09)
(9.60354e-08 2.71783e-09 1.11323e-09)
(7.2464e-08 -3.1751e-09 -9.18999e-10)
(7.6912e-08 9.91009e-10 5.57299e-10)
(1.631e-07 4.14568e-10 2.22034e-10)
(1.85929e-07 -3.37383e-10 4.77219e-10)
(2.24955e-07 7.91593e-10 -6.57757e-10)
(1.91705e-08 1.14256e-09 -1.66372e-09)
(1.7352e-07 -3.51463e-10 2.71651e-10)
(7.2703e-08 1.72452e-09 -1.08305e-09)
(1.7347e-07 -1.0821e-09 -1.13608e-10)
(6.17561e-08 -8.78049e-10 -5.28867e-10)
(1.60657e-07 -3.3905e-09 3.3266e-09)
(2.35017e-07 -4.64052e-09 1.86732e-09)
(1.78547e-07 7.43612e-11 1.60299e-09)
(2.19099e-08 1.86142e-09 -2.33314e-09)
(1.24547e-07 -1.00452e-09 5.85023e-09)
(2.40594e-07 5.06268e-10 1.08355e-09)
(2.89583e-08 -1.77214e-09 -2.01339e-09)
(2.88846e-07 2.65057e-09 1.48778e-08)
(1.89267e-07 -6.96991e-10 3.48352e-09)
(3.09003e-07 9.36516e-10 -3.41243e-09)
(2.14408e-07 4.67201e-09 -4.78718e-09)
(1.01001e-07 -9.74309e-10 2.01382e-09)
(3.76133e-07 3.95312e-09 -6.01306e-10)
(1.42519e-07 -1.40249e-08 -1.31111e-08)
(2.88345e-07 2.95044e-09 9.02601e-10)
(1.55514e-07 1.1147e-08 1.21008e-08)
(1.5768e-07 -6.42537e-09 1.10537e-09)
(1.58552e-07 -4.92837e-10 -3.14651e-09)
(2.42167e-07 1.50644e-09 5.24366e-10)
(4.86678e-07 4.62359e-09 1.3741e-09)
(8.88483e-08 -7.91007e-10 7.60125e-10)
(3.47469e-07 1.45906e-09 -1.14689e-09)
(1.28612e-07 -8.28574e-10 -2.68588e-09)
(3.85446e-07 -1.66556e-09 1.75024e-09)
(2.93997e-07 -8.52548e-10 2.03957e-09)
(7.95718e-08 2.15964e-09 -5.48999e-09)
(2.21772e-07 -1.22372e-09 -3.77425e-10)
(3.78515e-07 -3.31699e-09 2.73877e-09)
(2.25435e-07 2.69192e-10 -1.9506e-10)
(2.14435e-07 1.1999e-11 2.97844e-10)
(2.73986e-08 -8.84139e-10 -3.3312e-09)
(2.25711e-08 1.1112e-09 -2.82702e-09)
(3.00566e-07 1.80542e-09 -3.44448e-09)
(2.55539e-07 4.61436e-10 -1.67197e-10)
(1.94216e-07 -1.42421e-09 -1.20044e-09)
(4.10794e-08 5.00294e-10 -2.788e-09)
(8.08601e-08 -4.10728e-10 2.40482e-10)
(3.24188e-07 -2.88892e-09 4.11629e-11)
(1.47718e-07 6.11897e-10 8.8678e-10)
(2.79563e-07 2.60675e-09 2.05003e-10)
(2.51187e-07 1.00202e-09 -1.09091e-10)
(1.9842e-07 1.75929e-09 1.06089e-09)
(2.13137e-07 2.38175e-09 1.18134e-09)
(1.32759e-07 5.2509e-10 9.06886e-11)
(1.88125e-07 2.10125e-09 2.69448e-10)
(9.79502e-08 -1.805e-09 -4.80851e-09)
(2.65838e-07 -1.10261e-09 -2.57774e-10)
(2.02206e-07 -3.78328e-10 -2.39872e-09)
(2.04718e-07 1.8609e-09 4.53771e-10)
(1.97668e-07 6.67098e-10 -2.65358e-10)
(3.45552e-07 -1.42553e-10 -4.81549e-10)
(2.61941e-07 2.30053e-09 -5.40713e-10)
(7.66267e-08 4.40445e-09 3.75213e-09)
(5.14588e-08 1.08015e-09 5.28427e-10)
(2.24681e-08 1.91733e-09 -2.32275e-09)
(2.22465e-07 4.41739e-09 7.22648e-09)
(2.56401e-07 6.4494e-11 2.2009e-11)
(2.68401e-07 -1.21341e-09 6.31536e-10)
(1.99596e-07 2.729e-09 1.09086e-09)
(3.4277e-08 -7.52042e-11 1.11322e-09)
(2.57584e-08 -5.39508e-10 2.88536e-09)
(1.91179e-07 1.03879e-11 2.64292e-09)
(2.21216e-07 -4.815e-10 1.69621e-09)
(2.77757e-07 3.7877e-10 1.26849e-09)
(3.12074e-07 1.74639e-09 -5.40078e-10)
(2.03259e-07 -6.48378e-10 -1.89673e-09)
(2.96247e-07 2.07279e-09 -3.40518e-10)
(3.82993e-07 3.01828e-09 5.3294e-10)
(3.62714e-08 -8.31334e-10 3.53992e-09)
(1.9029e-07 -1.03756e-09 2.44344e-10)
(8.21846e-08 8.37904e-10 3.98462e-09)
(9.77866e-08 -9.6464e-09 2.06664e-09)
(1.22722e-07 1.12049e-10 -3.75863e-10)
(1.56395e-07 2.87997e-10 3.23871e-10)
(2.48642e-07 8.73578e-10 -4.96626e-10)
(2.24998e-08 -4.06513e-09 -1.64108e-09)
(3.17629e-07 3.79678e-09 3.22133e-10)
(2.35614e-07 -8.26594e-11 -1.21795e-10)
(1.8944e-07 1.83192e-09 4.55044e-10)
(2.21434e-07 2.16501e-09 6.42911e-10)
(1.63404e-07 3.27351e-10 8.18415e-10)
(2.33582e-07 1.17865e-09 1.27768e-09)
(2.53888e-07 7.90085e-10 -2.90872e-10)
(2.62182e-07 1.37752e-09 6.13837e-10)
(1.72386e-07 5.5494e-09 -3.51148e-09)
(2.44679e-07 -1.89638e-10 5.04521e-11)
(2.86144e-07 -3.85764e-09 -1.09057e-09)
(2.13894e-08 -1.48593e-09 1.47392e-09)
(2.70357e-07 -9.10927e-10 -1.71433e-09)
(1.98933e-07 2.51319e-09 -4.05681e-10)
(7.38927e-08 -2.14794e-09 5.62337e-09)
(1.87559e-07 1.08193e-09 -3.07203e-09)
(3.16713e-07 -5.35225e-11 -1.86963e-09)
(2.32274e-07 -3.76827e-10 7.5319e-10)
(1.31008e-07 1.72752e-10 -3.50674e-09)
(2.1057e-08 -1.80475e-09 -2.13996e-09)
(2.31273e-07 -1.15461e-09 -9.59045e-10)
(3.48471e-07 4.81453e-09 -3.72496e-09)
(2.24354e-07 -5.02863e-10 4.65435e-11)
(1.95351e-07 4.19644e-10 1.06355e-09)
(6.60542e-08 2.92184e-09 2.87803e-09)
(2.5061e-07 2.33524e-10 -1.12075e-09)
(2.79305e-08 2.37672e-09 -3.38635e-09)
(1.62294e-07 2.74426e-10 -2.19799e-10)
(2.08643e-07 2.31937e-08 -7.4163e-09)
(2.33604e-07 5.91064e-11 -4.87774e-10)
(9.97894e-08 -2.88182e-10 3.39586e-09)
(1.96265e-07 -2.05146e-09 -2.97398e-09)
(1.25095e-07 6.72307e-10 -1.96064e-09)
(5.43381e-08 3.4618e-09 2.61522e-09)
(3.98624e-07 1.3675e-09 9.00468e-10)
(1.86988e-07 1.28984e-09 5.45561e-10)
(2.07717e-08 8.07133e-10 2.05488e-09)
(2.59303e-07 -2.78651e-09 6.55109e-11)
(2.42072e-07 -2.576e-09 9.51973e-10)
(4.44653e-08 -1.30014e-10 -2.29335e-09)
(1.42681e-07 6.20734e-09 1.83038e-10)
(1.11724e-07 3.41405e-09 2.86136e-09)
(1.82092e-07 1.39794e-09 7.82165e-10)
(2.26191e-07 -1.30203e-09 4.38429e-10)
(3.62433e-08 -8.33543e-10 1.66056e-09)
(1.03681e-07 -3.14761e-09 -1.17418e-09)
(1.14991e-07 2.51881e-09 6.00086e-12)
(1.84721e-07 2.46305e-09 6.73913e-10)
(2.90912e-07 -1.86572e-09 7.93047e-10)
(2.68831e-08 1.29755e-09 -3.57263e-09)
(3.50701e-07 -3.18122e-09 1.72731e-09)
(2.30451e-07 1.77515e-09 -8.26146e-11)
(2.38893e-07 9.54324e-10 1.42997e-09)
(1.14196e-07 4.90122e-09 -4.71319e-09)
(3.10123e-07 2.21447e-09 4.97016e-10)
(2.65913e-08 -1.60754e-10 -2.80604e-09)
(2.77369e-07 -1.64275e-09 -2.94077e-10)
(3.16635e-08 -5.8651e-10 -7.34927e-11)
(1.46071e-07 -4.96762e-09 -4.77543e-12)
(2.19066e-07 -6.5748e-10 3.28439e-10)
(1.53368e-07 -4.63388e-09 -1.26815e-09)
(2.23533e-08 2.65105e-09 2.43442e-09)
(5.83299e-08 1.07247e-09 -2.05595e-09)
(8.66012e-08 -4.60563e-09 2.67158e-09)
(1.47797e-07 3.00079e-09 -3.88921e-09)
(3.22393e-07 -8.21679e-10 -1.58302e-09)
(6.45975e-08 -1.43931e-09 -3.41292e-11)
(1.53488e-07 4.7142e-09 -3.05027e-09)
(2.2507e-07 -1.12181e-08 -2.25671e-08)
(1.91927e-07 1.28957e-09 5.55229e-10)
(3.34286e-08 2.11448e-09 2.31949e-10)
(2.41118e-07 -3.72085e-10 -2.06538e-09)
(1.47962e-07 1.54663e-08 -5.78659e-09)
(1.82893e-07 -2.11732e-09 -4.91029e-10)
(1.10911e-07 -2.86979e-10 -2.49489e-09)
(1.60044e-07 1.36152e-09 5.68455e-10)
(1.19773e-07 -5.31432e-09 -2.98212e-09)
(1.65839e-07 4.07046e-10 9.91139e-10)
(1.42396e-07 1.00001e-09 -3.89767e-10)
(8.22137e-08 4.08037e-09 -7.15046e-09)
(2.66809e-07 1.6789e-10 2.044e-10)
(7.19445e-08 2.92649e-09 3.64229e-09)
(1.8159e-08 2.75322e-09 1.07794e-09)
(3.10256e-07 8.48952e-10 4.68312e-10)
(1.65688e-07 1.16757e-09 1.91806e-10)
(3.00136e-07 1.78232e-09 9.88398e-12)
(2.3532e-07 3.29081e-09 -1.24665e-09)
(4.1023e-07 -4.80014e-09 8.33028e-10)
(1.52601e-07 3.64991e-09 -8.63869e-10)
(3.77557e-07 -4.48338e-09 3.33352e-10)
(1.08318e-07 -3.14335e-09 4.6221e-09)
(1.36484e-07 9.24126e-10 -2.44155e-10)
(3.162e-07 -3.79422e-09 -2.87098e-09)
(3.76771e-08 8.76547e-10 -5.20428e-09)
(2.95974e-07 -6.26361e-10 -1.34936e-09)
(1.29701e-07 3.29046e-10 4.25364e-09)
(3.47843e-08 -2.59267e-09 -2.39661e-09)
(2.77231e-07 -2.25041e-10 -2.92914e-10)
(7.07321e-08 -1.80626e-09 1.55307e-09)
(2.0276e-07 7.52992e-10 2.21841e-10)
(1.92761e-07 5.86733e-10 6.53832e-10)
(3.78025e-07 3.52545e-09 2.84524e-09)
(1.07953e-07 -4.32251e-09 -5.12694e-09)
(2.5925e-07 2.16933e-09 2.97679e-10)
(1.65489e-07 -1.91636e-09 1.84375e-09)
(2.79878e-07 1.36716e-10 1.30668e-09)
(2.86018e-07 8.2642e-10 -6.8946e-10)
(2.5209e-07 1.89845e-09 7.73252e-10)
(1.48029e-07 9.52964e-10 1.45133e-10)
(5.53394e-08 -2.9692e-09 -2.24117e-09)
(7.8395e-08 2.25721e-10 -1.1066e-09)
(1.60612e-07 9.46169e-10 -1.39895e-10)
(2.72268e-07 2.06364e-09 1.51275e-09)
(3.29264e-08 -2.19046e-09 -1.12213e-09)
(2.31955e-07 5.99562e-10 -1.76365e-10)
(4.29542e-07 1.06817e-10 1.4393e-09)
(3.18624e-07 -3.38304e-09 -8.1093e-10)
(3.35952e-07 -3.72035e-09 -9.21069e-10)
(2.62416e-07 -7.99816e-10 -2.14431e-09)
(2.31707e-08 2.20187e-09 2.10352e-09)
(2.08459e-07 5.80607e-10 2.97776e-10)
(1.56842e-07 -1.71378e-09 -2.71604e-09)
(2.53879e-07 -9.97866e-10 3.33599e-10)
(1.73094e-07 -6.65682e-11 -3.76546e-11)
(4.14267e-08 3.08754e-09 -5.3661e-10)
(1.84785e-07 1.35649e-09 1.23198e-10)
(1.62783e-07 3.23883e-09 2.8212e-09)
(2.51366e-07 -1.21482e-09 -2.32503e-10)
(2.39365e-07 -2.88511e-09 -3.92011e-10)
(1.99037e-07 -2.07096e-09 -6.8996e-10)
(1.57695e-08 1.32275e-09 -1.91209e-09)
(2.33843e-08 -1.39747e-09 -2.34112e-09)
(1.66364e-07 -1.79551e-09 -2.02529e-10)
(2.80006e-07 -4.09041e-10 3.06835e-10)
(2.02401e-07 1.79478e-09 9.71061e-10)
(1.74689e-07 5.95781e-10 8.6455e-10)
(1.72648e-07 -2.39211e-09 1.03464e-09)
(2.5076e-07 -2.17639e-09 -6.86148e-10)
(2.61953e-07 5.98902e-10 -8.53985e-11)
(2.26939e-08 1.85733e-09 4.13451e-10)
(1.3139e-07 -1.48343e-09 5.12471e-12)
(1.73737e-07 -1.6578e-08 -6.82531e-11)
(5.38376e-08 -7.96229e-10 2.67901e-09)
(9.44337e-08 -6.02501e-09 1.52057e-09)
(3.08378e-07 -1.89022e-09 -2.0255e-09)
(2.14023e-07 -2.42158e-09 4.15021e-10)
(1.99644e-07 1.16954e-09 -7.87481e-10)
(2.47492e-07 -1.29063e-09 5.72346e-10)
(1.49335e-07 -4.6279e-09 1.40304e-09)
(2.95874e-07 3.24635e-10 -6.33582e-10)
(1.9364e-07 2.63239e-09 -5.10421e-09)
(3.94366e-07 4.22978e-09 1.26652e-10)
(1.99981e-07 -6.41862e-10 -5.03698e-10)
(2.12818e-07 -2.44992e-09 1.68506e-09)
(2.84712e-07 -3.11094e-09 -2.30275e-10)
(5.46559e-08 -9.13565e-10 2.74721e-09)
(5.13047e-07 -3.9309e-09 6.50984e-10)
(3.87781e-08 1.03235e-09 -1.48064e-09)
(1.49021e-07 -1.43785e-08 8.51251e-09)
(1.29722e-07 3.56457e-09 3.29058e-09)
(1.61198e-07 -2.83938e-09 -1.52051e-08)
(2.1993e-07 -1.39576e-09 -8.76761e-11)
(2.9086e-07 -4.57912e-08 -1.00414e-08)
(1.27268e-07 -8.13156e-11 -1.65414e-10)
(2.97846e-07 2.18644e-10 2.30684e-10)
(3.26358e-07 9.50068e-10 -7.18306e-10)
(1.95683e-07 -1.12273e-10 1.71488e-09)
(4.07469e-08 2.17678e-10 -5.64259e-10)
(1.18488e-07 -4.49703e-09 -3.00425e-09)
(2.10153e-07 -3.889e-09 -2.96307e-08)
(1.94537e-07 3.31234e-10 1.82142e-10)
(1.0678e-07 -2.35054e-09 -2.80149e-10)
(2.17259e-07 -1.82592e-08 -6.25697e-09)
(2.27908e-07 -1.64597e-09 4.05005e-09)
(3.29234e-07 3.01047e-09 1.46151e-09)
(5.09874e-08 -1.07159e-09 1.6158e-09)
(6.04959e-08 -2.6484e-09 1.87603e-09)
(3.17895e-08 2.4597e-12 -2.25181e-10)
(2.29402e-08 1.00791e-10 -1.78173e-09)
(5.07924e-08 -3.63052e-10 2.77191e-10)
(2.22701e-07 -1.04687e-08 7.43412e-09)
(1.83153e-07 1.56679e-10 7.36554e-10)
(2.19018e-08 -6.10472e-10 3.07154e-09)
(2.38862e-08 1.7404e-09 2.75516e-09)
(3.11641e-07 2.0915e-09 -9.64595e-11)
(1.66393e-07 -2.14908e-08 1.46224e-08)
(5.34397e-08 2.17623e-09 1.02913e-09)
(2.25482e-07 5.73535e-10 -9.76834e-11)
(1.15465e-07 -1.05066e-09 -1.64735e-09)
(2.06985e-07 6.15242e-11 1.63008e-09)
(5.08684e-08 2.46965e-09 -1.40791e-09)
(1.04311e-07 2.96584e-09 -1.18534e-09)
(2.04274e-07 -1.81658e-09 2.16626e-10)
(2.48693e-07 7.49437e-10 -3.56341e-10)
(3.89584e-07 1.74682e-09 -1.64258e-09)
(5.02012e-08 4.27234e-09 -1.52796e-09)
(2.84757e-08 -2.07e-09 1.4657e-09)
(2.01618e-07 -2.87912e-08 -2.12862e-08)
(3.23427e-08 -4.09551e-09 -1.0338e-10)
(3.16571e-07 -2.29362e-09 -2.76154e-09)
(3.37914e-08 1.72224e-09 -4.28815e-09)
(1.58983e-07 -7.96255e-10 3.27478e-09)
(2.77176e-07 -9.27497e-10 -1.86951e-10)
(3.99349e-07 -2.39507e-09 2.15971e-09)
(6.76836e-08 7.31471e-10 -1.4381e-09)
(1.50852e-07 -9.29385e-10 -1.5452e-09)
(4.4602e-08 1.63794e-09 -1.66551e-09)
(3.39033e-08 3.9782e-09 -1.52925e-09)
(2.36085e-07 -2.52784e-10 -1.24091e-09)
(1.71611e-08 -1.38552e-09 -2.30654e-09)
(1.67639e-07 -2.09018e-09 -6.75932e-11)
(7.03778e-08 1.27787e-09 -3.22201e-09)
(3.15242e-07 -1.45634e-09 -2.21449e-10)
(2.27566e-07 -5.80218e-10 -3.45469e-10)
(2.24834e-08 -5.57583e-10 3.47371e-09)
(1.50631e-07 -6.96337e-09 3.42521e-10)
(2.43058e-07 5.0099e-10 7.80318e-11)
(3.60719e-08 -1.65097e-09 1.05352e-10)
(2.70964e-07 -1.61953e-09 -6.36683e-10)
(9.01534e-08 -3.35455e-09 5.49706e-09)
(2.30136e-07 4.08513e-10 -6.66189e-10)
(2.03057e-07 -3.15184e-10 -1.33386e-09)
(6.42254e-08 1.70715e-09 1.51691e-09)
(2.45413e-08 1.01309e-09 -3.21181e-09)
(1.05867e-07 1.95168e-09 -3.67293e-10)
(2.43545e-07 3.8075e-08 8.39713e-09)
(2.45322e-07 1.19169e-09 7.40415e-10)
(8.78953e-08 -3.30074e-09 4.26259e-09)
(2.03732e-07 4.58308e-10 3.56398e-09)
(2.84139e-08 -1.07017e-09 6.88988e-10)
(1.79436e-07 -1.31891e-10 -1.22871e-09)
(2.69369e-08 -4.32892e-10 -1.72016e-09)
(3.14198e-07 -3.73936e-09 4.74691e-10)
(3.03585e-07 -1.99906e-09 1.1982e-09)
(2.05489e-07 -7.01007e-10 4.28365e-10)
(1.68162e-08 1.74954e-09 6.83777e-11)
(3.37875e-07 -3.02374e-09 9.72442e-10)
(1.69805e-07 8.72039e-10 -7.06674e-10)
(3.44561e-07 1.9982e-09 1.04045e-09)
(7.08867e-08 -4.14058e-10 -1.55198e-10)
(2.22441e-07 -2.67087e-08 1.3835e-08)
(2.53406e-07 -2.60528e-09 2.25948e-10)
(7.73299e-08 6.1703e-10 -6.57906e-10)
(2.22573e-07 4.22616e-10 2.10555e-10)
(2.09998e-07 3.80814e-09 -3.93792e-08)
(1.90096e-07 4.42482e-10 -7.21015e-10)
(3.76514e-08 9.974e-10 -2.00591e-09)
(1.16543e-07 -1.29253e-09 -5.76009e-09)
(1.70551e-07 -1.05306e-10 1.7797e-10)
(2.24008e-07 2.17463e-09 -4.91893e-10)
(3.71078e-08 2.21368e-09 7.03327e-10)
(2.31929e-07 2.22834e-09 -2.56003e-09)
(1.76384e-07 -3.03692e-09 -4.93256e-09)
(2.8899e-08 -2.59922e-09 1.63406e-09)
(1.83233e-07 1.3601e-10 -2.00785e-11)
(1.58274e-07 -1.99694e-09 1.54909e-08)
(3.36841e-07 4.12617e-09 -4.79606e-09)
(1.84296e-07 -1.17285e-10 2.27104e-10)
(1.65313e-07 5.31852e-12 6.18303e-10)
(2.85952e-07 -5.11568e-10 -1.28626e-09)
(2.63735e-07 1.35465e-09 1.41323e-09)
(8.12892e-08 2.14715e-09 9.28374e-10)
(8.35568e-08 -4.43912e-09 -3.87864e-09)
(3.4105e-07 3.54832e-09 4.26122e-10)
(2.24706e-07 -1.95539e-08 1.83464e-08)
(2.1918e-07 -1.78882e-09 8.95144e-10)
(1.96538e-07 -1.44497e-09 3.07461e-10)
(1.40461e-07 2.85416e-09 1.48313e-09)
(3.19655e-07 3.8188e-11 4.82133e-10)
(1.91248e-07 5.56211e-10 -6.38147e-10)
(1.96553e-07 -1.18521e-09 -2.52122e-09)
(2.4271e-07 4.31757e-09 6.45052e-10)
(4.85063e-08 2.43614e-11 -3.0812e-09)
(1.88761e-07 1.55029e-09 -1.4873e-09)
(4.62248e-08 -9.93719e-10 -3.07002e-09)
(3.0394e-07 8.96475e-11 1.84704e-09)
(2.96492e-07 -8.17291e-10 7.75244e-10)
(1.81829e-07 2.0176e-09 -4.77504e-09)
(1.73038e-07 1.11281e-09 -8.50464e-10)
(2.05905e-08 2.18396e-09 -3.48566e-10)
(1.16068e-07 -8.61228e-10 -9.75197e-10)
(8.49055e-08 -3.0112e-09 -3.66367e-09)
(2.38557e-07 -8.17302e-11 -1.38287e-09)
(2.13092e-07 -9.5624e-10 -1.12949e-09)
(2.20525e-07 -2.01341e-08 1.28126e-08)
(2.91712e-07 -8.69818e-10 2.13692e-09)
(9.03846e-08 -2.58784e-09 -2.04275e-09)
(1.36552e-07 -3.41406e-09 1.06788e-08)
(2.50628e-07 -7.41718e-10 3.54231e-09)
(3.2673e-08 -2.68958e-09 2.19777e-11)
(2.1872e-07 -6.38605e-10 -1.08076e-09)
(6.14463e-08 1.73957e-09 -1.03479e-10)
(2.06065e-07 -5.57663e-10 1.35033e-09)
(3.73028e-08 5.22669e-09 -1.26663e-10)
(3.28727e-07 2.66972e-09 -2.35696e-09)
(2.03953e-07 -8.73952e-09 5.43255e-09)