/*--------------------------------*- C++ -*----------------------------------*\
| =========                 |                                                 |
| \\      /  F ield         | OpenFOAM: The Open Source CFD Toolbox           |
|  \\    /   O peration     | Version:  2406                                  |
|   \\  /    A nd           | Website:  www.openfoam.com                      |
|    \\/     M anipulation  |                                                 |
\*---------------------------------------------------------------------------*/
FoamFile
{
    version     2.0;
    format      ascii;
    arch        "LSB;label=32;scalar=64";
    class       volScalarField;
    location    "28";
    object      nut;
}
// * * * * * * * * * * * * * * * * * * * * * * * * * * * * * * * * * * * * * //

dimensions      [0 2 -1 0 0 0 0];

internalField   nonuniform List<scalar> 
59516
(
4.27291e-05
6.68051e-05
5.55317e-05
0.000127694
0.00115357
0.000186227
8.96118e-05
4.98724e-05
4.58826e-05
0.000101459
0.000825417
7.91598e-05
5.09661e-05
0.000165562
9.53124e-05
8.17501e-05
0.000586721
9.97356e-05
5.39812e-05
0.000405603
0.000151495
0.000164342
0.000227296
0.000145911
0.00021908
8.87245e-05
0.000139742
0.000167849
9.64667e-05
0.000146099
0.000243836
0.000160608
0.000111467
8.04666e-05
0.00015674
0.00012813
0.000142793
9.1173e-05
4.65106e-05
0.00026039
4.80283e-05
0.000318533
0.000179574
6.94682e-05
0.000136666
8.28111e-05
7.66601e-05
0.000552235
0.000884712
0.000327267
0.000624934
0.000136637
4.81075e-05
6.32268e-05
0.000162467
8.36301e-05
0.000446397
0.000155587
0.000667089
0.000121384
0.000223002
0.000158131
0.000498932
0.000510561
8.68258e-05
0.000235698
0.000205267
0.0001351
0.000436015
8.77474e-05
0.000225226
0.000443631
0.000181187
0.00016624
0.000792158
0.000324768
0.000542746
0.00019491
0.00013276
0.000348708
0.000135931
0.000253889
0.000155777
0.000166008
0.000240208
0.000680456
0.000133125
0.000160857
8.49241e-05
6.41331e-05
0.000652477
0.000174074
0.000539575
0.000152517
0.000410036
0.00111687
0.000183115
8.36968e-05
8.84751e-05
0.000213372
0.000155688
0.000182585
0.000178818
8.255e-05
0.000110469
0.000266009
0.000147521
4.18971e-05
5.73876e-05
9.39271e-05
0.000267685
0.000198117
9.94404e-05
0.000164715
0.000300707
4.83196e-05
8.46464e-05
0.000122336
0.000167114
0.000184125
0.000974781
0.000510354
0.00029594
0.000511529
0.00028179
4.35492e-05
0.00020025
0.000181844
0.00028169
0.000752589
0.000931543
5.16214e-05
0.000159438
0.000151347
5.38402e-05
4.62207e-05
0.000120616
6.04967e-05
0.00014501
6.59298e-05
0.000138614
0.000854241
0.000141889
9.12272e-05
0.000752751
0.000148496
0.000113551
6.31753e-05
0.000251374
4.9527e-05
5.73796e-05
0.00013108
0.000357828
0.00022362
4.35768e-05
0.000155593
7.49743e-05
4.67072e-05
4.55516e-05
0.000158035
0.000104825
0.000102695
0.000139328
0.000188222
4.79334e-05
0.000513952
8.55174e-05
0.00067741
0.000149215
0.000187519
4.51576e-05
7.76262e-05
7.13237e-05
0.000126662
0.000118452
8.44785e-05
0.00054761
0.000208761
9.49523e-05
0.000117816
0.000161072
0.000133097
0.000211089
6.98341e-05
0.000755361
7.98259e-05
0.000114145
0.000154319
5.33455e-05
5.1735e-05
0.000153261
8.14671e-05
0.000399364
6.053e-05
0.000200601
0.000113565
8.06258e-05
0.000118541
8.69751e-05
0.000187057
7.20899e-05
0.00095641
4.26538e-05
0.000146
8.13956e-05
0.000150675
0.000777742
0.00034561
0.000160165
7.10411e-05
9.30067e-05
0.00018749
0.000167621
8.98687e-05
6.25874e-05
0.00049537
0.000130032
0.000222922
9.14708e-05
0.000273217
9.40837e-05
7.26174e-05
0.000501254
0.000158498
0.000566585
0.000586729
0.000191522
0.000134579
0.000569235
8.67025e-05
0.000546947
0.000616615
0.000982881
0.000173878
0.000131893
0.000115829
7.09502e-05
4.4391e-05
0.000317571
0.000100325
0.000919327
0.00016918
7.78175e-05
0.000188407
0.00082749
3.85404e-05
0.000208011
9.41613e-05
0.000471372
4.33226e-05
0.000376311
0.00015907
0.000987833
0.000199042
0.000173281
0.000296885
9.22162e-05
0.000272455
0.000134043
9.41969e-05
8.37384e-05
0.000370782
6.12193e-05
0.000606263
4.26502e-05
7.24409e-05
0.000345984
4.51173e-05
0.000170982
7.48247e-05
5.98827e-05
0.0006148
3.824e-05
5.06751e-05
0.000439711
4.11425e-05
0.000153343
0.000330152
0.000173042
0.000134437
0.000902308
0.000133924
0.000191754
6.83834e-05
7.24289e-05
0.000589714
0.000811778
0.000194607
0.000855054
0.00104562
0.000652452
0.000119347
0.000150298
4.88127e-05
0.000478897
0.000206527
0.000377334
0.000119342
0.000984785
0.000571616
4.47054e-05
7.34099e-05
0.000166232
0.000178157
0.000286075
0.000165832
0.000128725
9.61477e-05
0.00044122
0.000429901
0.000200691
7.91305e-05
5.99432e-05
0.000149392
8.10316e-05
0.000373299
4.75261e-05
0.00109686
6.01143e-05
0.00012517
0.000101973
6.39134e-05
0.000717056
0.000882481
0.000988422
0.000287835
5.95146e-05
0.00010097
0.000507892
0.000349511
0.000318727
7.97403e-05
0.000175025
0.000227937
0.000128406
0.000135251
0.000407385
0.000171757
8.01218e-05
0.0006226
0.000388598
0.000904182
0.000627973
0.00012143
0.000292724
0.00079212
8.18687e-05
0.00087188
0.000688202
0.000110057
9.63504e-05
0.000265137
0.000155115
4.69425e-05
0.000139896
0.000143736
5.61933e-05
0.000146681
0.000264965
4.8501e-05
7.09587e-05
9.86717e-05
0.000829707
0.000218598
9.04443e-05
0.000235907
0.000242442
0.000141751
0.000290838
9.49075e-05
0.000126843
0.000139067
0.000385549
5.37549e-05
0.000359717
0.000152315
0.000100309
0.000139824
0.000466529
6.97411e-05
8.07739e-05
4.06392e-05
0.000849848
0.000176241
8.43295e-05
0.000132618
0.000167234
0.000103114
6.79326e-05
9.58346e-05
6.04887e-05
5.61305e-05
0.000326988
0.000130772
0.000904021
0.000109662
9.2564e-05
9.14877e-05
0.000767737
0.00070753
7.38376e-05
7.24816e-05
4.63798e-05
0.000810592
0.000758328
0.000147219
0.000109198
0.000175306
0.000180061
0.000278172
0.000178931
0.000167886
7.3824e-05
0.000695173
0.000886996
0.000137454
0.000594625
3.94681e-05
0.000770824
0.000695605
0.000829874
0.000674215
0.000614549
4.08903e-05
0.000845248
8.59193e-05
0.000476592
6.06935e-05
0.000279403
0.000722541
0.000157539
0.000175998
0.00012212
0.000137521
0.000156908
0.000535833
0.000863728
0.000163318
6.8652e-05
0.000122386
0.000168086
7.01074e-05
0.000284608
0.000716086
0.000257748
0.000108162
0.000903334
0.000104596
0.000188251
7.30888e-05
8.24281e-05
0.000255689
0.000302635
4.72676e-05
0.000173758
0.000168087
0.000776058
0.000774472
0.000823244
3.82901e-05
0.000296734
0.000635456
0.000117275
0.000903377
5.17271e-05
0.000563986
0.000195822
0.00015812
0.000795753
7.305e-05
0.000139565
3.4787e-05
0.000493952
9.05801e-05
5.02432e-05
0.000162665
0.000650956
7.24195e-05
0.000302699
8.49199e-05
0.000121262
0.000154218
0.000185081
0.000421439
0.000793487
0.000549261
0.000151452
5.49615e-05
4.28272e-05
0.000102215
0.00100947
0.000728274
0.000184019
0.000427848
0.00100393
0.000156309
9.05675e-05
7.85059e-05
0.000276981
0.000842621
0.000221082
7.86612e-05
7.5445e-05
5.86606e-05
0.000891897
0.0001764
0.000252514
0.000277001
0.000785774
0.000233292
0.000411131
0.000162087
0.00041377
0.000164733
7.16791e-05
0.000267841
7.99184e-05
0.000167674
0.000150012
0.000135901
8.75179e-05
0.000130911
8.2139e-05
7.62595e-05
0.000474992
0.000620901
0.000184601
4.49319e-05
0.000122579
0.000563707
8.36699e-05
0.000550514
9.18596e-05
0.000108578
0.000805571
0.000111145
0.000591418
0.000156962
0.000153426
0.000175647
0.000856844
0.000104321
8.40446e-05
0.000726831
0.000104375
0.000423066
7.74371e-05
0.000728937
8.97156e-05
0.000183814
0.000200482
0.000147979
0.000183488
0.000147405
0.00012205
0.000131724
0.000865332
0.000104812
7.53632e-05
0.000702268
4.81937e-05
0.00086805
0.000723516
0.000835189
0.000863303
0.000129963
9.06448e-05
0.00071337
0.000351531
0.000144468
0.000383949
0.000638785
0.000598761
0.000750176
4.51928e-05
0.000157932
0.000539386
6.59739e-05
0.000302736
4.45698e-05
0.000189312
0.000892703
5.43895e-05
9.40126e-05
0.000851558
0.000145255
0.000128934
0.000167971
0.000771712
0.000524699
0.00100124
0.000295295
4.42882e-05
0.000208504
0.000699708
0.000154426
0.00087812
0.000217872
0.000150129
7.91201e-05
0.000120271
0.000149138
0.000121406
6.41615e-05
4.40331e-05
0.000903977
6.14693e-05
0.000598799
0.000545038
0.000872431
0.000688336
0.000156232
0.000364515
0.000134953
0.000208045
7.79336e-05
0.000642592
0.000111226
0.000167868
0.000631419
0.000508897
0.000232769
0.000604826
0.000134013
0.00148259
0.000720199
0.000788232
4.6685e-05
0.000227399
0.000682673
5.85819e-05
0.000123913
6.76167e-05
0.000173931
0.000182962
0.000201698
0.000101992
0.00015715
0.000176384
0.000169333
0.00107599
0.000211506
0.000137128
0.000174283
4.46511e-05
0.000102693
0.000155
8.17235e-05
5.29453e-05
0.000562771
0.000211472
0.000136039
0.000164419
0.000391401
0.000196503
0.000108516
0.000186397
5.76569e-05
0.000807787
0.000557829
0.000128603
5.69772e-05
0.000119903
0.000193386
0.000728519
0.000150334
0.000490913
0.000154278
0.000284706
0.000161619
0.000162048
8.22559e-05
0.000199927
0.000134099
0.0004323
8.82189e-05
4.00093e-05
0.000919648
0.000129966
0.000167228
0.00013746
0.000672271
4.75298e-05
8.31804e-05
3.38135e-05
0.000122221
0.000943694
0.000174636
0.000381333
0.000113561
0.000522229
0.000155062
0.000147285
4.78206e-05
0.000286225
9.31895e-05
0.000889644
0.000257942
0.000116385
0.00100016
0.000489208
5.77513e-05
0.000129569
0.000155467
0.000864093
7.38372e-05
0.000132749
4.69704e-05
8.21517e-05
0.000175927
0.000763522
0.00124664
7.44032e-05
0.000597376
0.000719686
0.000520748
9.70024e-05
0.000132048
0.000136048
0.000756837
0.000991577
4.77817e-05
9.55397e-05
4.64936e-05
0.000160557
0.000415038
5.25668e-05
4.0504e-05
0.00017033
9.81599e-05
0.000159076
0.000248807
0.000546237
4.43403e-05
4.32483e-05
0.000149134
4.97461e-05
9.22843e-05
0.000725099
0.000740716
0.00118497
0.000413103
4.11226e-05
0.000839652
0.000128185
0.000191047
0.00075713
8.06753e-05
0.000129351
0.000196093
0.000579882
0.00134798
0.000305024
5.12564e-05
0.000224665
0.000172659
0.000909844
0.000144867
0.000159334
0.000114278
0.000734058
0.000310421
0.000137053
0.000272338
0.000143579
6.69795e-05
5.62297e-05
0.00071785
8.83209e-05
0.000212882
6.75108e-05
0.000913384
0.000164687
4.21351e-05
0.000321062
0.000189438
0.000115948
8.42617e-05
0.000165214
7.12938e-05
0.000502647
8.21652e-05
0.000154002
4.57185e-05
0.000173043
4.17726e-05
0.000636581
0.00104602
0.0006173
0.000349845
0.000679131
7.88266e-05
0.000122162
0.000653658
8.84009e-05
4.23333e-05
7.63378e-05
0.000439893
4.99335e-05
7.4187e-05
0.000221981
0.000138599
4.35758e-05
5.30997e-05
9.18208e-05
0.000268433
0.000266611
9.50236e-05
0.000131678
0.000197274
7.87126e-05
0.000158556
7.22186e-05
0.000305307
8.86506e-05
9.79562e-05
0.000139202
0.000254853
0.000174496
0.000332778
0.000684914
0.000117927
0.000173238
5.75506e-05
4.59396e-05
0.000174031
0.000338798
0.000167989
0.000678129
0.000310464
9.52777e-05
0.000229098
0.000282685
5.75272e-05
0.000814006
0.000151703
0.000137261
5.10285e-05
4.8004e-05
0.000150622
0.000180981
0.000377498
0.000619798
0.000518648
5.22479e-05
0.000305489
0.0009661
5.53852e-05
0.000151043
0.000541851
4.2133e-05
0.000155079
0.000372149
0.000754395
0.000236479
4.75216e-05
7.89175e-05
4.42366e-05
5.02814e-05
4.65174e-05
5.66218e-05
7.48137e-05
7.09512e-05
0.000394232
0.000669928
0.00158129
0.000103728
6.21743e-05
9.18553e-05
0.000152951
0.000125913
8.32737e-05
0.000132499
0.000104509
0.000927943
0.000187329
0.000902252
0.000782516
0.000225063
7.64298e-05
0.000682266
0.000165661
0.000126616
0.000251096
0.000130592
0.000270588
0.000762623
5.28074e-05
0.000731459
0.00100793
0.000613564
8.45879e-05
0.00144254
0.000149705
4.39141e-05
0.000656735
0.000181878
8.97806e-05
7.8443e-05
7.66674e-05
0.000117082
0.000266619
0.000601085
0.000593678
0.000254023
5.12721e-05
0.000158126
0.000289678
0.000385442
6.879e-05
5.59489e-05
0.000269858
0.000879687
0.00080233
0.000155345
0.000760097
4.85288e-05
6.26156e-05
0.000155342
8.1542e-05
3.93895e-05
0.000702678
0.00010621
0.000537896
0.000501991
0.000480149
0.000879358
0.000563187
0.000632602
0.000577178
0.000936651
0.00142381
0.000106896
8.80498e-05
0.000146233
8.45883e-05
0.00040548
6.80389e-05
0.000145755
0.00048336
4.976e-05
0.00105942
0.00105539
0.000870106
0.000210343
4.74783e-05
0.00077525
0.000295322
4.33085e-05
0.000845547
0.000168011
0.000787363
0.000131026
4.19738e-05
0.000453097
7.87033e-05
0.000137635
0.000466764
0.000356652
0.000185738
0.000124268
0.00068781
0.000126459
4.96731e-05
7.62781e-05
7.05597e-05
5.10183e-05
0.000962639
8.58289e-05
0.000258566
0.000460139
5.624e-05
0.000891042
0.0009643
5.24077e-05
0.00086562
0.000677749
8.89946e-05
0.0009202
0.000134152
0.000134848
0.000619341
0.000356845
0.000212776
0.000731166
5.08366e-05
3.67608e-05
0.000579491
0.000177038
0.000490013
0.000712687
4.98706e-05
0.000190326
0.00017351
5.45876e-05
0.000133522
0.000118587
9.26288e-05
5.37995e-05
0.000151632
4.48166e-05
0.000475333
0.000386025
0.00102885
0.000838914
7.08832e-05
0.000356117
0.000792466
5.15042e-05
0.000171161
0.000134254
7.26901e-05
0.000312463
0.000916287
7.45276e-05
0.000347586
4.87186e-05
6.32202e-05
0.000160877
8.04949e-05
4.75543e-05
0.000136033
7.69567e-05
0.00015028
0.00036001
5.11281e-05
0.000767354
0.000188574
0.000863957
5.88081e-05
7.13927e-05
4.98537e-05
0.000154032
0.000163056
0.000397087
0.000251936
7.22232e-05
0.000191562
0.000156106
0.000957451
0.000197578
0.000704419
6.72405e-05
6.89613e-05
0.000221633
0.00011364
5.96629e-05
0.000796335
0.000165566
8.47028e-05
0.000125845
0.000185817
4.93124e-05
0.000213639
0.000881776
0.00014117
0.000244532
6.76732e-05
0.000184444
0.000393413
0.000322088
0.000813472
0.000203694
5.43601e-05
0.000189852
0.000436669
0.000145345
0.000184537
0.0001269
0.00013353
0.000511439
5.17808e-05
0.000379176
7.74295e-05
0.000579274
0.000170262
0.000110571
7.66834e-05
0.000383904
0.000861652
9.88626e-05
0.000151039
0.000127514
0.000134275
0.000233778
0.000113941
0.000167784
0.000202108
0.000437226
0.000166148
0.000374508
4.58468e-05
0.000144181
0.000307792
0.000582101
9.39177e-05
7.30402e-05
7.46761e-05
0.000180808
4.37941e-05
0.000133897
0.00018936
0.000629994
4.98593e-05
3.76102e-05
0.000433434
0.000384213
0.000109861
0.000477745
0.000729883
0.00015757
0.000186312
0.000625961
0.000728404
0.000145022
0.000143857
0.000692039
5.56283e-05
0.000193573
4.68832e-05
0.000735204
0.000434066
0.000685923
0.000148866
0.000373211
0.000166599
0.000112519
0.000772481
0.000557003
3.8538e-05
0.00030512
7.67595e-05
8.26592e-05
0.000135963
0.000206133
0.000189849
0.00018675
0.000112633
4.2612e-05
9.68129e-05
0.000166328
0.000925985
0.000747774
5.63099e-05
0.000700294
4.91853e-05
0.000200728
0.000152855
0.000104417
0.000241407
4.63649e-05
0.000176327
4.09761e-05
7.22689e-05
5.2875e-05
5.42682e-05
0.000163424
4.99535e-05
0.000247739
0.00049402
6.86834e-05
8.6142e-05
0.000195973
0.000398082
0.000132712
7.98067e-05
8.85172e-05
5.88771e-05
0.000160226
0.000194451
7.86908e-05
0.000137678
0.000157205
0.000113513
0.000672455
0.00010526
0.000108409
5.42201e-05
5.48418e-05
0.000134614
0.000131989
0.000153092
0.000881365
4.17159e-05
0.000161946
5.68084e-05
4.74332e-05
0.000106472
0.000217019
6.91323e-05
0.00015557
0.000442134
5.81551e-05
0.000161371
0.000895943
4.27016e-05
8.95208e-05
4.2829e-05
6.12625e-05
0.000114283
0.000205282
0.000154244
0.000949128
0.00104265
0.000107014
5.80638e-05
0.000128765
0.000381449
0.00014443
0.000486143
0.000465366
0.000604232
9.88117e-05
0.000391957
0.000424144
0.00032454
0.000396813
0.000120727
0.000148584
0.000521489
5.06149e-05
8.89973e-05
0.00100042
8.98916e-05
0.000111116
4.52479e-05
0.000197819
0.000202951
8.16378e-05
0.000341821
0.000567371
0.000100579
0.000156275
0.000122605
0.000188054
7.92422e-05
9.48757e-05
0.000959476
0.000386191
0.00046197
0.000637125
0.000838056
0.000392788
0.000178153
8.47579e-05
7.74823e-05
5.53611e-05
3.85725e-05
6.80352e-05
0.000884955
0.000105183
0.000143833
7.80051e-05
0.000505237
7.63779e-05
0.000142997
4.74403e-05
0.000442755
0.000218343
5.44081e-05
0.0006569
0.000477533
0.00034738
0.000126516
0.000201465
0.00068858
0.000879768
0.000163147
4.56815e-05
0.000106314
0.000700537
0.000146257
0.000153006
5.09585e-05
0.000162582
4.65841e-05
0.000604893
5.72686e-05
0.000176937
7.47666e-05
0.000169025
3.55712e-05
0.000163122
0.000285905
0.000154502
0.000678519
0.00017344
9.18665e-05
3.46091e-05
0.000174345
7.05426e-05
8.70015e-05
4.19695e-05
0.000831144
0.000145969
0.000863892
0.000169614
8.93557e-05
8.60309e-05
0.000189468
0.000339074
0.000761694
0.00012778
8.57222e-05
4.09009e-05
5.47236e-05
4.00843e-05
0.000159069
0.000124736
0.000186566
5.36931e-05
0.00105858
0.000123062
0.000129806
7.50686e-05
0.000187059
0.000332524
0.000187694
0.000546606
0.00106017
0.00016178
8.88278e-05
0.00077218
0.000127407
9.71907e-05
0.000883004
0.000448091
7.16253e-05
0.00172013
0.000473117
0.000168002
9.38763e-05
0.000306969
0.000748579
5.27893e-05
0.000298915
0.00070071
7.24268e-05
8.15294e-05
0.000128236
6.51065e-05
0.000940806
0.000136977
4.69833e-05
0.000297655
0.000136997
0.000203445
4.88835e-05
8.89011e-05
9.8736e-05
0.000172955
6.83475e-05
0.000143628
0.000146629
0.000138597
0.000170057
5.08358e-05
3.95054e-05
0.000846148
0.000157
0.000595791
7.76361e-05
0.000181934
5.77322e-05
0.000332652
0.00013113
0.000344802
0.00141113
5.64193e-05
0.00104376
8.61665e-05
0.000147397
9.10396e-05
3.93525e-05
0.000210734
0.000124852
0.000106964
4.27883e-05
0.000154928
0.000236776
0.000153803
0.000872448
0.00043867
0.000138389
4.5153e-05
5.51147e-05
0.00029594
0.00012955
0.000129852
0.000589559
4.37441e-05
0.000265898
0.00010286
0.000396496
4.38304e-05
5.70546e-05
6.64347e-05
5.5768e-05
0.000924452
0.000123977
0.000202294
0.000108943
0.000212554
0.000229817
9.14509e-05
0.000131554
0.00014562
0.000776441
0.000288532
7.34207e-05
4.58742e-05
4.67904e-05
0.000176944
0.000187809
0.00022704
8.68704e-05
0.000213046
0.000311015
0.000154242
8.26915e-05
0.000125378
0.000164959
0.000972158
7.77525e-05
0.000455668
8.83669e-05
0.000606511
0.000143128
0.000153997
6.77775e-05
0.000211008
0.000181462
0.000106562
8.14371e-05
8.0469e-05
0.000711885
0.000249189
0.000758994
4.36888e-05
4.70821e-05
5.97327e-05
0.000147155
0.000114602
9.23022e-05
0.000122244
4.74677e-05
0.000625252
0.000106029
8.56139e-05
3.68953e-05
0.000170834
0.000260747
7.72716e-05
8.76006e-05
0.000158347
0.000109649
0.000219271
0.000150966
4.27045e-05
5.20638e-05
6.45334e-05
5.68614e-05
0.000206812
4.14577e-05
6.05609e-05
0.000463912
5.34878e-05
0.00044933
0.00017463
0.000137139
9.96503e-05
3.58593e-05
0.000226917
7.78371e-05
4.20516e-05
0.000149739
0.000135703
7.96061e-05
0.000218575
4.67259e-05
0.000152108
7.98448e-05
0.000105405
7.2617e-05
7.79928e-05
5.59776e-05
0.000173446
4.50393e-05
0.000140467
4.80298e-05
0.000742255
9.11727e-05
0.000195603
0.000323645
0.000133774
0.000179817
6.74936e-05
0.000197696
0.000308358
0.000510861
5.05194e-05
0.00021882
4.47109e-05
6.94737e-05
0.000176642
5.82892e-05
5.1524e-05
0.000944072
0.000148167
0.000383692
7.72398e-05
4.63684e-05
0.000116368
0.000128583
0.000488078
0.000167434
0.000292678
7.56003e-05
0.000165097
6.47037e-05
0.000132028
0.000168307
0.000756284
0.000691235
0.000133975
4.75897e-05
0.000122115
6.92359e-05
9.54264e-05
0.000151419
3.92976e-05
0.000214497
5.27833e-05
0.00069966
5.04174e-05
0.000119704
0.0001414
0.000858224
0.000198383
7.7587e-05
0.000685973
0.000819059
0.000109219
0.000209957
0.000132299
0.0011027
0.00107224
0.000226837
0.00016282
0.000290526
0.000141528
7.41073e-05
0.000179252
0.000109524
9.6017e-05
7.60368e-05
0.000673131
0.000136774
0.00053117
0.00108803
7.53357e-05
0.000234215
0.000126941
0.000350171
5.74871e-05
0.000121317
0.000248963
0.000438404
0.000693289
0.000132632
0.000997545
8.72033e-05
0.000181291
8.71076e-05
0.000152349
0.000281403
0.000169822
0.000147761
7.52153e-05
6.71242e-05
9.92253e-05
0.000105715
0.000188433
0.000158038
6.36678e-05
0.00062716
5.459e-05
0.000159085
4.98405e-05
0.000146258
5.04603e-05
0.000295485
7.21544e-05
0.0002716
0.000655864
0.000332557
0.000426743
0.000654721
0.000295184
0.000623301
0.000135158
0.000202878
0.000176707
0.000118628
0.00019319
4.43335e-05
6.05797e-05
4.316e-05
0.000921695
6.88484e-05
0.000142924
0.000934781
7.17474e-05
5.04939e-05
0.000145202
6.69805e-05
0.000859945
5.30938e-05
4.96136e-05
0.000137234
8.50211e-05
5.04704e-05
4.48035e-05
0.000163584
0.000151248
0.000168863
0.000584477
7.89057e-05
0.000573788
5.63355e-05
0.000171531
0.0010523
7.35505e-05
0.000901407
0.000362332
0.000132158
0.000182565
0.000366882
0.000143358
0.000209824
0.000991627
6.63319e-05
0.000172076
0.000204096
0.000145898
0.000187405
6.6042e-05
0.000705744
0.000920554
0.000189411
0.000535929
0.000180275
0.000643864
5.46557e-05
4.68252e-05
0.000646648
0.000196341
0.000150702
0.000137134
5.67234e-05
0.000452402
6.71948e-05
0.000164414
0.000179397
0.000165911
0.000194889
0.000210936
0.000435251
0.000801794
0.000136275
0.000100934
0.000613443
6.2965e-05
0.000252044
0.000116975
7.78509e-05
0.000202145
0.000624012
0.000194634
0.000153938
0.000125749
0.000131629
0.000439226
0.000977346
0.00019746
5.12516e-05
4.10209e-05
4.76451e-05
0.000492712
0.000332774
8.04364e-05
0.000770814
0.000427898
0.000379067
0.000112605
9.35747e-05
0.000194717
5.35616e-05
0.000141236
0.000309374
0.000129052
0.00116792
0.000160819
3.67803e-05
9.66849e-05
0.000157216
0.000208613
0.0001596
8.09267e-05
0.000568183
0.000395541
0.000943022
0.00012451
5.30785e-05
7.41763e-05
0.00087031
0.000364155
0.000416054
0.000634845
0.000133997
0.000123723
5.35362e-05
0.000981418
0.000444477
0.000478347
0.000378453
0.000971678
0.000164953
0.000122055
5.66808e-05
0.000950666
0.000156289
0.000114258
0.000675506
7.47454e-05
5.56058e-05
0.000133802
4.34511e-05
8.93578e-05
7.59855e-05
0.000147888
0.000257676
9.36795e-05
7.90081e-05
7.14531e-05
0.000151431
0.00027404
0.000698295
0.000190899
6.73308e-05
9.10871e-05
0.000370554
0.000225276
0.000178087
0.000153054
8.90807e-05
7.40318e-05
0.000190862
0.0001809
0.00018542
4.49491e-05
0.000433415
0.000162798
0.000341765
9.31131e-05
0.000165678
0.00028991
6.10394e-05
0.000141577
0.000152548
0.000200846
6.0564e-05
0.000207722
0.000297366
0.000349353
0.000910714
0.000168298
0.000117709
3.84277e-05
0.00026259
0.000857486
0.000153619
0.00033024
0.000604741
8.38866e-05
4.87674e-05
0.000231222
0.000406006
0.000135214
7.92678e-05
5.14801e-05
4.91751e-05
5.29387e-05
0.000644843
7.37166e-05
0.000118946
0.000184801
3.81346e-05
0.00096502
0.000855058
0.000346505
0.000136566
4.07919e-05
8.18151e-05
3.67855e-05
0.000484042
0.000119216
0.000148763
0.000594874
0.000210681
0.000297456
0.000370785
6.38114e-05
6.81789e-05
0.000160389
5.14465e-05
6.45996e-05
0.000170831
9.49425e-05
0.000734698
3.88518e-05
0.000116303
0.000156669
0.000104356
0.000187839
3.81574e-05
6.88345e-05
5.47597e-05
7.03891e-05
0.00017041
0.000109197
7.51862e-05
0.000156742
4.83144e-05
0.000696577
0.000532153
0.000147657
0.000133517
8.91696e-05
0.000171991
0.000150604
0.000649317
0.000854567
0.000168828
0.000141148
7.62464e-05
0.00090717
0.00080053
0.000159515
4.11192e-05
0.000287379
0.000106032
4.81064e-05
0.000132632
0.000836833
0.000129151
0.000117446
7.31073e-05
0.000140231
0.000490874
6.48378e-05
7.87507e-05
0.00010443
0.000505009
0.000349944
0.000526488
0.000143975
0.000592684
0.000176513
0.000225636
0.000232898
0.000430976
0.00037768
7.85748e-05
0.00018794
8.41662e-05
0.000937522
0.000664029
0.000108262
0.000407712
0.000141781
6.15595e-05
0.000336106
0.000589339
5.37493e-05
0.000226287
0.000129128
4.3766e-05
0.000515448
0.000615623
0.000458309
0.000592146
0.000210633
0.000162213
3.65564e-05
0.000536607
0.000631616
0.000179688
5.63948e-05
0.00018014
0.000158261
4.46845e-05
4.38845e-05
0.000650534
0.000658496
0.000183978
6.66879e-05
0.000101514
0.000126912
5.11822e-05
0.000349003
0.000115702
0.000111624
0.000847786
3.92859e-05
8.00568e-05
0.000129272
5.47022e-05
0.00013025
0.000163392
5.96751e-05
0.000207429
0.000118659
0.000254541
0.000671046
0.000129654
0.000431262
5.47128e-05
0.000532495
4.3429e-05
0.000497172
6.00519e-05
5.27246e-05
5.4105e-05
0.000166029
5.58693e-05
0.000136901
0.00014219
0.000134331
0.000158436
0.000675644
0.000336768
0.00061407
6.95567e-05
5.12715e-05
0.00016639
9.77786e-05
0.000120364
4.64592e-05
0.000231065
0.000301958
0.000597277
0.000205838
0.000265981
0.000841023
0.000291399
0.000306649
0.000275324
0.000148577
7.31322e-05
0.000932053
0.000812223
8.69536e-05
0.000158944
0.000416212
0.000550746
0.000155516
0.000135317
0.000177146
0.000808388
0.000184468
0.000118432
8.11525e-05
8.59868e-05
0.000142301
6.19968e-05
0.000159991
0.000448694
0.000190959
0.000164311
0.000206958
9.08997e-05
4.49654e-05
7.93111e-05
0.000278223
0.000163461
8.24079e-05
0.000132755
0.000590263
0.000431291
7.641e-05
0.000207054
4.94012e-05
8.31231e-05
0.000718553
0.000181676
0.000144759
0.000332125
0.000722038
0.000265433
0.000640709
0.000627024
5.4853e-05
0.000896934
0.000191418
0.000649711
6.1082e-05
6.28812e-05
0.000737172
5.04418e-05
0.00032012
0.000186194
0.000289103
0.000220323
0.000813427
0.00016788
0.000143562
0.000387907
0.000831843
7.43983e-05
5.64423e-05
0.000890993
0.000193101
0.000317026
0.000595641
5.18777e-05
8.02953e-05
0.000146715
4.59516e-05
0.000502185
0.000271039
5.16247e-05
8.13983e-05
8.59929e-05
7.57867e-05
0.000135663
0.000130465
0.000211604
0.000113652
0.000490969
0.000823906
0.00012404
0.00016913
0.000157489
0.000115939
5.73673e-05
0.000677132
0.000797746
0.000977846
0.00104689
0.000133188
0.000160528
0.000169211
7.82615e-05
0.00031309
0.000738627
0.000786593
5.21744e-05
0.000228228
0.000531585
0.000169051
0.00106948
0.000424849
0.0006145
0.000807035
0.000100673
9.82604e-05
4.62616e-05
0.000134113
0.000342732
0.000158105
5.66593e-05
0.000235502
4.66232e-05
7.09589e-05
4.67625e-05
0.000855246
3.98488e-05
9.81719e-05
0.000639715
0.000108059
0.000136372
0.000551885
0.000858886
8.38878e-05
0.000152577
4.60759e-05
0.000161589
0.00065874
9.14857e-05
0.000131705
0.000885365
0.00089532
0.000448645
8.19293e-05
0.000490823
0.000282792
0.00042163
0.000173256
5.4474e-05
0.000210096
8.37165e-05
5.55226e-05
7.73146e-05
0.000764345
6.88183e-05
0.00050209
0.000143884
4.97185e-05
6.31362e-05
0.000159268
6.93034e-05
0.000154897
5.4758e-05
0.00016738
0.000195784
0.000569452
0.000255476
0.000130833
0.000163377
0.000449553
3.96848e-05
0.000121191
7.87892e-05
0.000136405
0.000527586
0.000104149
0.000312325
6.0477e-05
0.00046492
6.78774e-05
0.00031016
0.000122377
0.000622688
0.000142121
0.000128834
8.4555e-05
8.42733e-05
7.00601e-05
0.000982992
0.00014006
0.000764117
0.00022734
5.76736e-05
3.839e-05
4.95856e-05
0.000133583
0.000124201
0.000141453
8.27834e-05
0.0007796
8.16091e-05
0.000270662
7.2695e-05
0.000135754
4.87812e-05
0.000120483
0.000167113
0.00016443
0.000182045
4.71402e-05
0.000589058
8.76381e-05
0.000891432
0.00017213
5.56403e-05
6.84267e-05
0.000283561
0.000351053
0.000167033
9.36919e-05
0.000375294
0.00032951
0.000148637
8.05484e-05
0.000557849
0.000293007
0.000482832
0.000129022
0.000204097
4.66175e-05
7.88226e-05
0.00025208
0.000130371
5.32628e-05
0.000163864
5.83362e-05
4.80314e-05
0.000150104
6.27934e-05
5.28701e-05
0.000649777
0.000100083
0.000325249
0.000162281
0.000399058
0.000105275
0.000829997
8.47131e-05
8.1453e-05
0.000186736
0.000445038
0.000118823
0.000201745
0.000364856
0.00026582
0.000166149
0.000135493
0.000194586
0.000955374
0.00016817
7.10163e-05
0.000176135
9.83664e-05
7.69661e-05
0.000135892
0.00024116
0.000119252
0.000181505
0.000148753
0.000136097
0.000129081
0.000492945
6.99766e-05
0.000718285
7.7798e-05
8.79953e-05
0.000397781
0.000843598
0.000366839
0.000169009
0.000120445
5.09194e-05
4.33125e-05
0.000279917
0.00016376
0.000121498
0.000131114
0.000203748
0.000710946
0.00015441
7.53731e-05
7.00848e-05
0.000960761
0.000980898
0.000333917
0.000137138
0.000149692
0.000138035
0.000223845
7.57521e-05
0.00012625
5.55262e-05
4.96103e-05
0.000168003
5.39969e-05
0.000190586
6.78682e-05
0.000159749
0.000788951
0.000332834
0.000187295
4.82877e-05
0.000111132
0.000776825
0.000250058
8.19626e-05
0.000361624
5.28285e-05
5.18366e-05
0.000130164
0.000169487
4.93845e-05
0.000963284
0.000763054
8.06579e-05
0.000148786
0.000432291
0.000322867
0.000643164
6.98161e-05
0.000128248
0.000194819
0.000223084
0.000134532
0.0006104
0.000140456
4.73193e-05
0.000168588
0.000145957
0.000183284
7.44595e-05
0.000126755
0.000129872
0.00015368
0.0002883
0.000774339
7.58791e-05
0.000112539
0.000378285
6.12045e-05
7.15783e-05
0.000268086
0.000663294
0.00068632
0.000185574
0.000233483
6.94997e-05
8.65706e-05
0.000181184
0.000665002
0.000535933
4.48746e-05
0.00023654
0.000181239
5.11713e-05
8.13058e-05
0.000160588
0.000279602
0.000360102
0.000200168
0.000136719
0.000596635
0.000127501
0.000824408
7.59484e-05
0.000160953
0.00056461
0.000390079
7.52821e-05
0.000147167
0.000398253
0.000450439
0.000622599
8.78915e-05
0.000180192
0.000531756
0.000179561
0.000136205
0.000327675
8.10642e-05
0.000111634
9.05961e-05
7.61647e-05
0.0002171
0.00108233
3.61432e-05
0.000270538
9.06487e-05
0.000131803
0.000117405
0.000557295
0.000317894
0.000126754
0.000144043
4.4739e-05
0.000194459
0.00018187
0.000172825
4.94001e-05
0.000396265
0.000516056
0.000269496
0.000157532
4.94288e-05
0.000918022
0.000143521
0.000410949
4.95661e-05
0.000186673
0.000184539
7.02721e-05
5.53839e-05
0.000219081
0.000289373
0.000538345
0.000338745
0.000691134
0.000384055
0.000258832
0.000541198
5.0145e-05
0.000325927
0.000380274
4.483e-05
0.000364829
4.42926e-05
0.000158649
5.62738e-05
0.000129918
0.000101451
7.42694e-05
9.6787e-05
4.58387e-05
0.000157981
0.000148678
0.000328189
0.000185979
5.34871e-05
0.000105179
0.000386261
4.15395e-05
0.000195412
0.000165384
0.000137495
6.78618e-05
0.000188486
0.000117904
0.000100242
3.48969e-05
0.000127009
0.000184329
0.000258597
0.000829511
0.000153235
0.000268499
0.000390694
0.000133947
0.000977975
3.75318e-05
0.000696507
7.14082e-05
6.03915e-05
5.5852e-05
0.000929258
0.000423758
0.000152899
0.000439412
0.000134809
0.000154911
0.000159751
7.27318e-05
0.000421606
0.000316479
0.000639645
5.69694e-05
5.02084e-05
0.000171133
0.00032248
0.00014591
0.000115966
0.00015219
8.0333e-05
0.00025423
7.63652e-05
0.000802094
3.97249e-05
4.44982e-05
0.00026203
0.000324363