/*--------------------------------*- C++ -*----------------------------------*\
| =========                 |                                                 |
| \\      /  F ield         | OpenFOAM: The Open Source CFD Toolbox           |
|  \\    /   O peration     | Version:  2406                                  |
|   \\  /    A nd           | Website:  www.openfoam.com                      |
|    \\/     M anipulation  |                                                 |
\*---------------------------------------------------------------------------*/
FoamFile
{
    version     2.0;
    format      ascii;
    arch        "LSB;label=32;scalar=64";
    class       volScalarField;
    location    "28";
    object      p;
}
// * * * * * * * * * * * * * * * * * * * * * * * * * * * * * * * * * * * * * //

dimensions      [0 2 -2 0 0 0 0];

internalField   nonuniform List<scalar> 
59516
(
0.255321
0.0154204
0.0148533
0.00214313
0.268343
0.289103
0.256257
0.227766
0.0785765
-0.000570051
0.263334
0.257543
0.182953
0.254778
0.239173
0.0792062
0.256764
0.264412
0.260763
0.253518
0.259952
0.227132
0.256008
0.169548
0.0694993
0.164121
0.0981645
0.263278
0.25864
0.23785
0.271958
0.263436
0.124247
0.00169262
0.261027
0.21543
0.0673472
0.267241
0.259302
0.0133537
0.0160431
0.263551
0.260116
0.00158848
0.258721
0.041724
0.259519
0.260076
0.270173
0.261523
0.276241
0.00156591
0.126671
0.231648
0.259552
0.258357
0.264814
0.00190693
0.169398
0.26215
0.00173716
0.211511
0.170173
0.256942
0.00338626
0.25904
0.00830651
0.219306
0.270604
0.258627
0.222744
0.253701
0.0466176
0.254811
0.219989
0.258126
0.259405
0.0295224
0.18587
0.26133
0.00197011
0.26121
0.260286
0.111693
0.261185
0.252791
0.078472
0.253546
0.125593
0.264402
0.266724
0.22392
0.248141
0.221119
0.222
0.269825
0.23772
0.228421
0.260964
0.180825
0.0853833
0.151473
0.233533
0.00892361
0.0467572
0.00651545
0.00626931
0.0737668
0.132343
0.187544
0.268914
0.0915641
0.224286
0.26949
0.24522
0.206264
0.0325528
0.232029
0.232464
0.0328164
0.233739
0.230376
0.0630807
0.231845
0.26747
0.2612
0.245724
0.265132
0.27603
0.247156
0.244427
0.0159378
0.220418
0.247849
0.248428
0.217206
0.267842
0.241441
0.152757
0.251741
0.0932079
0.116253
0.227963
0.092114
0.252596
0.250132
0.259082
0.254559
0.27504
0.248831
0.25246
0.00315886
0.245486
0.00325503
0.247207
0.00562499
0.00420736
0.24814
0.248922
0.239957
0.252807
0.252492
0.239164
0.0048371
0.204614
0.0305767
0.0781939
0.249761
0.250479
0.00416731
0.247323
0.247362
0.242762
0.243261
0.243067
0.260041
0.206976
0.260819
0.0142075
0.205137
0.245256
0.135544
0.159874
0.244799
0.24516
0.0869429
0.119705
0.0666212
0.246364
0.243727
0.000483021
0.13447
0.250016
0.243896
0.251023
0.0208538
0.15342
0.152779
0.00405499
0.242074
-0.00046339
0.0652274
0.229179
0.181295
0.210956
0.135523
0.250525
0.0032811
0.174006
0.235828
0.0434226
0.263041
0.234978
0.211739
0.236233
0.0987831
0.249355
0.020944
0.196928
0.236404
0.236523
0.250181
0.242143
0.00465501
0.238944
0.206393
0.173367
0.182204
0.242175
0.0379646
0.238404
0.133679
0.242327
0.14072
0.147868
0.243082
0.241347
0.0530428
0.240963
0.0558348
0.245841
0.135981
0.132094
0.00350918
0.246898
0.246358
0.243872
0.0126654
0.242662
0.245949
0.0134089
0.243673
0.246204
0.158674
0.245314
0.245908
0.0798131
0.240303
0.190998
0.237231
0.175797
0.239155
0.240672
0.240456
0.215242
0.060415
0.1982
0.0722156
0.238087
0.166845
0.256829
0.210469
0.07664
0.169482
0.239435
0.215391
0.167166
0.238257
0.238531
0.0992508
0.241901
0.182607
0.170789
0.236928
0.235549
0.256062
0.24555
0.00775252
0.240607
0.216149
0.239755
0.23704
0.22143
0.0300484
0.224783
0.131478
0.217092
0.21342
0.237893
0.215868
0.21588
0.0629526
0.103616
0.210461
0.219444
0.163651
0.0208811
0.21536
0.217227
0.0846575
0.0692048
0.216819
0.159643
0.151142
0.259045
0.21841
0.229713
0.270591
0.217637
0.0662444
0.133739
0.228529
0.141896
0.231486
0.182729
0.219087
0.262949
0.229589
0.173336
0.231021
0.0237496
0.252332
0.170426
0.230918
0.193218
0.23754
0.240544
0.21023
0.262467
0.235492
0.212062
0.209774
0.232023
0.0523291
0.109541
0.235313
0.102008
0.239763
0.232133
0.191512
0.24173
0.243257
0.038825
0.126508
0.173419
0.0531552
0.00822269
0.268839
0.273289
0.206141
0.0344995
0.248535
0.26196
0.225053
0.0340771
0.230976
0.230398
0.248846
0.272393
0.234304
0.0900499
0.0882227
0.229992
0.177857
0.202057
0.229969
0.231344
0.226011
0.188305
0.220564
0.249356
0.00139301
0.262524
0.0107324
0.0201109
0.231237
0.00767224
0.26234
0.23057
0.0149757
0.0143669
0.0594218
0.226505
0.267403
0.229003
0.267891
0.0119249
0.0793401
0.226532
0.227294
0.237597
0.224269
0.189708
0.237504
0.238719
0.0637652
0.152351
0.238839
0.237528
0.236552
0.0413755
0.0236017
0.0255745
0.139649
0.211439
0.0107784
0.0378312
0.0737041
0.00477327
0.225739
0.223688
0.22928
0.228869
0.23979
0.228771
0.180569
0.22326
0.157454
0.229359
0.194744
0.232436
0.227875
0.215147
0.140833
0.238147
0.262776
0.0246029
0.232979
0.177368
0.0874792
0.180083
0.197514
0.234637
0.232646
0.229759
0.22831
0.0845243
0.227933
0.181885
0.0299875
0.199787
0.273469
0.156995
0.068141
0.230029
0.193383
0.227306
0.14796
0.227583
0.0669378
0.228491
0.0040942
0.00805584
0.22486
0.260248
0.222753
0.207792
0.0400103
0.210651
0.208813
0.0449529
0.217202
0.208966
0.204738
0.204137
0.106839
0.21123
0.206325
0.144567
0.204567
0.0942674
0.202204
0.263543
0.202684
0.275503
0.203505
0.241627
0.0916175
0.105627
0.179151
0.00422175
0.00293773
0.193077
0.214997
0.218967
0.173099
0.20702
0.0532765
0.22434
0.222518
0.264527
0.153416
0.13532
0.182332
0.222148
0.0224256
0.217268
0.255605
0.00476947
0.295131
0.223393
0.0707448
0.252163
0.191419
0.257771
0.209781
0.184844
0.202716
0.225417
0.188272
0.225663
0.248411
0.0813915
0.0815992
0.267957
0.0031335
0.224158
0.216201
0.267622
0.214709
0.2522
0.00108832
0.217579
0.0922795
0.000522145
0.168209
0.0418833
0.265715
0.231137
0.0754686
0.00293566
0.237813
0.138359
0.216771
0.236883
0.216116
0.249127
0.000822996
0.113347
0.0743988
0.21625
0.0381011
0.162983
0.224394
0.143828
0.22284
0.00263261
0.227136
0.0699405
0.223646
0.180102
0.125348
0.116896
0.225633
0.0023847
0.0461748
0.214977
0.0876114
0.174139
0.196858
0.13255
0.127451
0.214807
0.214311
0.244155
0.213641
0.12632
0.214807
0.212918
0.121151
0.108683
0.000988987
0.213937
0.213855
0.215348
0.104001
0.207175
0.0114603
0.216016
0.00582307
0.225843
0.00067985
0.0260174
0.186489
0.135142
0.0117141
0.216441
0.265944
0.00401568
0.018619
0.213548
0.210527
0.0358513
0.212547
0.213211
0.148556
0.0434954
0.226075
0.218871
0.0151736
0.215064
0.215096
0.162229
0.212146
0.27455
0.215756
0.267731
0.188555
0.270257
0.19094
0.0248518
0.251418
0.00589988
0.00673444
0.27181
0.270494
0.192604
0.21508
0.265352
0.262262
0.138049
0.111778
0.178254
0.067883
0.18878
0.128008
0.262681
0.191782
0.194068
0.209364
0.199101
0.272441
0.181383
0.202399
0.0578454
0.202754
0.153726
0.0191798
0.202587
0.201779
0.203031
0.155313
0.0952244
0.280641
0.131768
0.134908
0.159374
0.237153
0.203364
0.0686903
0.189706
0.158575
0.0141589
0.0711907
0.205029
0.233585
0.165975
0.155729
0.204612
0.204587
0.0849668
0.243142
0.212989
0.144833
0.210418
0.172383
0.219637
0.208346
0.0108474
0.027507
0.191528
0.273047
0.152588
0.142791
0.0036044
0.162644
0.207987
0.123874
0.217074
0.212899
0.094657
0.129519
0.215285
0.252031
0.226009
0.175916
0.27239
0.2154
0.0357914
0.223494
0.275209
0.0230735
0.128747
0.237871
0.204149
0.082163
0.198835
0.0247014
0.018786
0.175634
0.204603
0.272418
0.227754
0.204017
0.203634
0.208821
0.0960428
0.0114313
0.0691766
0.226327
0.271781
0.157369
0.206484
0.142371
0.0613301
0.203607
0.065562
0.204296
0.257077
0.130181
0.00261084
0.231099
0.101674
0.209342
0.0188438
0.0815663
0.160279
0.233801
0.207704
0.209256
0.273081
0.234224
0.0407206
0.275117
0.00357877
-0.000383145
0.208782
0.0439073
0.118202
0.159818
0.113612
0.272578
0.205823
0.230784
0.202024
0.0478686
0.171493
0.054526
0.132979
0.229421
0.201882
0.203207
0.201386
0.0773509
0.246557
0.190467
0.0683407
0.202836
0.201039
0.200544
0.187874
0.202633
0.0206585
0.0126952
0.20154
0.00392176
0.125933
0.143419
0.0112174
0.150428
0.174879
0.254406
0.1924
0.22301
0.17893
0.133418
0.203232
0.204953
0.205004
0.114319
0.204218
0.247079
0.0177147
0.00276705
0.140589
0.120611
0.00332589
0.203791
0.201704
0.203186
0.0194622
0.0316067
0.200941
0.236837
0.030531
0.0405824
0.272672
0.264282
0.206248
0.0417191
0.21494
0.191714
0.219586
0.176063
0.198633
0.266692
0.176218
0.175679
0.091756
0.177352
0.267538
0.0340949
0.196443
0.176196
0.108341
0.213167
0.218641
0.093435
0.211417
0.234674
0.214157
0.176136
0.258055
0.0539568
0.175468
0.229834
0.015869
0.187877
0.0740754
0.173048
0.097398
0.266729
0.179727
0.00320395
0.173701
0.172946
0.183321
0.174927
0.16217
0.0048534
0.0440907
0.212058
0.185665
0.154988
0.214107
0.113816
0.235424
0.0248853
0.18519
0.0845502
0.168872
0.214548
0.0163691
0.187732
0.184472
0.268658
0.0261292
0.219575
0.239201
0.042453
0.181611
0.0439941
0.149091
0.204464
0.218383
0.181104
0.180025
0.179504
0.272548
0.0326136
0.217515
0.11247
0.0198631
0.181879
0.222305
0.191974
0.191228
0.0338391
0.193906
0.195422
0.10564
0.241995
0.271011
0.254513
0.148303
0.195336
0.00425946
0.261626
0.177883
0.193029
0.162597
0.194821
0.193593
0.198277
0.213695
0.198065
0.218434
0.19402
0.251375
0.253042
0.193395
0.210208
0.192336
0.218692
0.219264
0.0141677
0.130873
0.154699
0.0137274
0.204475
0.195818
0.20547
0.111153
0.00658163
0.115835
0.192425
0.208378
0.208558
0.127306
0.146999
0.206371
0.269298
0.196988
0.00854709
0.01952
0.226809
0.19825
0.121573
0.16093
0.196014
0.131594
0.188323
0.188853
0.188566
0.162809
0.210559
0.188231
0.273642
0.0250447
0.187939
0.273936
0.188616
0.241198
0.0431294
0.186776
0.12137
0.0926181
0.18858
0.187942
0.119117
0.121326
0.186893
0.102446
0.185426
0.186303
0.192887
0.113277
0.18401
0.0318844
0.186594
0.186113
0.127762
0.184395
0.184906
0.255485
0.1799
0.153152
0.181106
0.183276
0.129311
0.0620838
0.111948
0.262437
0.18524
0.18607
0.158437
0.0637269
0.262881
0.16088
0.163854
0.159358
0.158739
0.0118093
0.00611424
0.0522696
0.107029
0.1861
0.185555
0.00605123
0.22631
0.176192
0.081988
0.26286
0.155063
0.154022
0.265198
0.156803
0.22011
0.0479755
0.154816
0.214489
0.200853
0.155246
0.116179
0.0417605
0.15579
0.226597
0.205318
0.120676
0.057308
0.0934404
0.162879
0.0967874
0.226325
0.0924407
0.160299
0.170714
0.268947
0.125246
0.0110905
0.0603084
0.0942477
0.157079
0.224431
0.169417
0.169176
0.0215645
0.135646
0.00889943
0.171756
0.171823
0.095272
0.0134473
0.202584
0.0411719
0.245509
0.18977
0.186223
0.261375
0.0935259
0.215665
0.223917
0.154652
0.0167646
0.186359
0.259151
0.184657
0.182514
0.157211
0.0826028
0.185851
0.0180579
0.260418
0.227936
0.127186
0.185646
0.17804
0.225831
0.253944
0.217073
0.030799
0.0834533
0.183188
0.191042
0.212277
0.124028
0.208945
0.264273
0.182116
0.210495
0.0746081
0.188349
0.144084
0.0898301
0.187893
0.188225
0.186829
0.210954
0.184148
0.0428677
0.184978
0.0822452
0.20749
0.0214411
0.183389
0.210625
0.00411127
0.0239148
0.180099
0.0701004
0.0470016
0.0742379
0.0619398
0.112642
0.040187
0.182456
0.180933
0.0321184
0.179983
0.181224
0.209226
0.0106584
0.182385
0.175609
0.00250722
0.02541
0.172771
0.102041
0.00437743
0.0133989
0.173408
0.126001
0.178145
0.257177
0.0175301
0.210336
0.161356
0.177409
0.174577
0.158914
0.199488
0.185048
0.17895
0.164971
0.260074
0.229177
0.178098
0.180758
0.239422
0.0364707
0.226898
0.199766
0.124575
0.117435
0.180469
0.0841009
0.0208291
0.167635
0.172592
0.274605
0.146296
0.172445
0.170564
0.196367
0.0834034
0.170733
0.171669
0.250588
0.172132
0.0789714
0.174939
0.17489
0.141545
0.128645
0.155072
0.174691
0.172037
0.174621
0.119985
0.149882
0.178354
0.156136
0.118627
0.126153
0.126641
0.127312
0.147106
0.172998
0.149762
0.263128
0.240752
0.0450887
0.107309
0.112172
0.148092
0.145594
0.150082
0.189756
0.147168
0.146017
0.0888034
0.111899
0.200386
0.0883548
0.0351327
0.149317
0.148247
0.150929
0.244387
0.0146708
0.00715149
0.104976
0.158959
0.156333
0.227119
0.0356707
0.148754
0.263115
0.0421834
0.157176
0.157334
0.185437
0.00231243
0.155462
0.156187
0.155249
0.167635
0.00519116
0.00755022
0.168183
0.16823
0.164938
0.166439
0.172437
0.16358
0.0830122
0.0164395
0.267774
0.205022
0.168632
0.167358
0.127737
0.255791
0.248394
0.231243
0.00160006
0.231322
0.169426
0.169799
0.167988
0.168837
0.169421
0.168096
0.222631
0.142451
0.21723
0.150015
0.0829169
0.0144946
0.17047
0.128227
0.00488429
0.151891
0.175202
0.259927
0.176468
0.12194
0.118186
0.202442
0.133423
0.173063
0.179409
0.177249
0.145511
0.156296
0.255761
0.172713
0.215689
0.0793059
0.0649165
0.170666
0.0673566
0.0234231
0.17516
0.174481
0.131445
0.0893117
0.102246
0.241059
0.174222
0.0518906
0.00617058
0.15804
0.0288577
0.125432
0.169031
0.205471
0.156528
0.0265756
0.246087
0.015744
0.239361
0.138724
0.227983
0.16172
0.0458628
0.170501
0.154763
0.0991617
0.118868
0.171103
0.171419
0.246684
0.206441
0.217097
0.252144
0.211285
0.204691
0.205212
0.221644
0.167507
0.166593
0.133342
0.0662265
0.0767271
0.0187264
0.228944
0.133828
0.164415
0.16252
0.163526
0.0465431
0.160314
0.218277
0.00545904
0.160135
0.164869
0.186732
0.270093
0.219325
0.218185
0.161407
0.0132893
0.228404
0.163483
0.19469
0.170944
0.197999
0.208449
0.151143
0.225688
0.166315
0.206216
0.170781
0.0212373
0.219876
0.226362
0.136409
0.266142
0.0769394
0.08871
0.0771401
0.149272
0.214307
0.0619822
0.194087
0.0633872
0.167005
0.167076
0.144498
0.173128
0.157717
0.23767
0.199716
0.156026
0.204426
0.162786
0.271144
0.223998
0.162447
0.158196
0.199644
0.233786
0.159958
0.0272569
0.193645
0.237531
0.156869
0.143712
0.160938
0.163849
0.16518
0.166153
0.00410281
0.0772434
0.167328
0.265429
0.166076
0.137502
0.211572
0.13496
0.117688
0.23838
0.265447
0.220471
0.220471
0.222112
0.0362459
0.156268
0.184771
0.263956
0.252369
0.266016
0.269574
0.252284
0.139398
0.136258
0.264373
0.0600325
0.140446
0.203843
0.137561
0.219819
0.209204
0.264183
0.245182
0.219466
0.0768756
0.139494
0.153952
0.148145
0.154948
0.222671
0.205304
0.154401
0.150245
0.152173
0.0165677
0.234138
0.0433038
0.155923
0.182364
0.161297
0.157384
0.152093
0.0434524
0.158649
0.140696
0.158065
0.157109
0.226521
0.14356
0.0827562
0.049705
0.213709
0.113817
0.113047
0.209364
0.0945128
0.0519697
0.0449333
0.0339766
0.206807
0.0709675
0.143326
0.176385
0.0332466
0.231289
0.232016
0.10103
0.098064
0.249576
0.147697
0.0163257
0.171281
0.0338422
0.202749
0.0321396
0.0503437
0.0204776
0.0106735
0.0847117
0.227549
0.0481289
0.0253857
0.0265276
0.154744
0.0306094
0.152671
0.232911
0.156402
0.153665
0.206272
0.0478604
0.159527
0.157923
0.012932
0.077272
0.228352
0.159104
0.159538
0.207874
0.233189
0.222681
0.232168
0.0571506
0.256523
0.264612
0.158967
0.160091
0.0136416
0.239702
0.263378
0.157454
0.120544
0.156801
0.0185204
0.223639
0.00741058
0.0473392
0.148528
0.188406
0.150284
0.123042
0.229725
0.113656
0.218781
0.149081
0.149882
0.0745789
0.141702
0.129041
0.259972
0.229641
0.200711
0.149127
0.234418
0.0832951
0.0471284
0.0684671
0.0142724
0.14931
0.231468
0.148746
0.014532
0.0120498
0.226199
0.150613
0.0715318
0.24088
0.150898
0.151353
0.226595
0.0205709
0.224821
0.152002
0.154907
0.155937
0.163435
0.156277
0.220992
0.218344
0.156143
0.248429
0.166054
0.217922
0.187685
0.154132
0.232319
0.150915
0.122071
0.250704
0.169175
0.153315
0.0123527
0.156934
0.155692
0.118271
0.15019
0.203327
0.06004
0.23017
0.143122
0.211581
0.221037
0.153563
0.16717
0.0111916
0.0719111
0.0579559
0.152026
0.230248
0.020066
0.148936
0.251117
0.0567451
0.210123
0.053822
0.149616
0.180729
0.148236
0.00152745
0.193569
0.230465
0.118382
0.036923
0.0582112
0.11468
0.116366
0.123471
0.228119
0.0116608
0.0370977
0.129357
0.131082
0.217341
0.203154
0.131114
0.137143
0.125611
0.187465
0.252046
0.235941
0.16581
0.0306433
0.214891
0.214135
0.100608
0.0511447
0.19887
0.0952767
0.129285
0.206186
0.165729
0.16997
0.145341
0.125537
0.136434
0.136097
0.133915
0.20929
0.138712
0.183963
0.247958
0.230366
0.204342
0.223466
0.12647
0.0930034
0.229248
0.139533
0.206852
0.164226
0.212449
0.258158
0.131503
0.00730406
0.140647
0.142778
0.149372
0.227538
0.139861
0.146968
0.168436
0.149323
0.16835
0.142625
0.00210123
0.166876
0.146979
0.146126
0.00524211
0.20515
0.254016
0.166739
0.173966
0.133034
0.148558
0.147357
0.0596501
0.252151
0.149075
0.148765
0.150514
0.0364942
0.228135
0.15988
0.134745
0.166592
0.088444
0.114933
0.216821
0.138575
0.135034
0.110248
0.135377
0.14614
0.0924154
0.138742
0.227599
0.156316
0.0802437
0.226868
0.227714
0.121481
0.122383
0.103454
0.138882
0.0609026
0.142329
0.067295
0.273253
0.213674
0.180188
0.0883764
0.0219191
0.236453
0.0196006
0.0226935
0.138231
0.00205981
0.138676
0.0315222
0.18137
0.0977159
0.137314
0.20127
0.182262
0.138428
0.0274149
0.0225549
0.177676
0.136293
0.0400754
0.13912
0.137539
0.156209
0.144631
0.25738
0.20681
0.236194
0.179193
0.202855
0.138245
0.206348
0.180712
0.138374
0.237806
0.261045
0.201805
0.197725
0.138472
0.221792
0.135416
0.236989
0.176499
0.204749
0.0207091
0.0427305
0.195034
0.0109331
0.229848
0.272958
0.239167
0.0128672
0.0583462
0.0199731
0.226607
0.235086
0.00655917
0.182217
0.13122
0.221377
0.186497
0.130716
0.139295
0.0323844
0.198392
0.202009
0.0570956
0.25725
0.235901
0.148348
0.132845
0.267974
0.131678
0.262016
0.200205
0.198317
0.133242
0.244934
0.118585
0.243005
0.22731
0.247437
0.00742803
0.136317
0.254964
0.0718701
0.263864
0.136685
0.248899
0.10386
0.103074
0.109627
0.258321
0.214142
0.246341
0.212828
0.116938
0.254746
0.255472
0.104354
0.256663
0.121207
0.206967
0.11483
0.213805
0.146319
0.0999404
0.139654
0.0972876
0.140311
0.0214612
0.12251
0.112703
0.237298
0.109166
0.200817
0.154556
0.181277
0.119989
0.0401635
0.0898922
0.20268
0.11488
0.237042
0.0777253
0.124769
0.243384
0.205511
0.127124
0.221605
0.12523
0.114756
0.112552
0.144939
0.1196
0.00240283
0.0399351
0.0448105
0.115475
0.116263
0.204746
0.0513772
0.029541
0.109395
0.0728654
0.235398
0.215784
0.0354011
0.127851
0.183762
0.121124
0.128949
0.104509
0.126638
0.215449
0.126188
0.173617
0.000728854
0.232511
0.170865
0.265271
0.130098
0.126347
0.0227701
0.237418
0.0973229
0.130739
0.206714
0.135282
0.13168
0.124001
0.121561
0.0334588
0.134582
0.128781
0.129935
0.124298
0.144517
0.126754
0.232468
0.10561
0.132128
0.234379
0.265074
0.178044
0.109252
0.196275
0.129227
0.118734
0.113148
0.0610597
0.106276
0.0975513
0.252964
0.107689
0.144934
0.142382
0.0354223
0.10648
0.232088
0.12097
0.123822
0.169419
0.160274
0.118613
0.184172
0.145228
0.122131
0.119688
0.135365
0.120083
0.230831
0.222897
0.109016
0.105612
0.115999
0.0468888
0.1225
0.145193
0.203623
0.119428
0.12368
0.11359
0.125227
0.233198
0.104897
0.226311
0.123241
0.119328
0.110855
0.119755
0.0936585
0.116421
0.0954997
0.0831875
0.118238
0.249981
0.134007
0.247829
0.170239
0.0802893
0.0256375
0.103254
0.232384
0.120508
0.119331
0.0884407
0.120949
0.0879704
0.23421
0.232758
0.0917444
0.0925764
0.0967446
0.0972359
0.19066
0.152082
0.0948347
0.0954122
0.071645
0.117706
0.0969989
0.0975163
0.0556212
0.0535704
0.00278986
0.0976746
0.192737
0.0332044
0.15224
0.101209
0.104006
0.108726
0.137871
0.230267
0.122814
0.0894506
0.0128848
0.0210748
0.154161
0.102334
0.0971649
0.132626
0.0346991
0.022853
0.103852
0.231588
0.11528
0.117094
0.0547477
0.108845
0.258852
0.111197
0.109476
0.150838
0.111529
0.115381
0.231596
0.116052
0.130747
0.0209454
0.00453066
0.185946
0.0401926
0.0234717
0.119552
0.0991158
0.231841
0.11738
0.239649
0.239966
0.114122
0.23063
0.00783268
0.110594
0.117538
0.0379937
0.118681
0.24022
0.265499
0.0544671
0.236429
0.117056
0.202957
0.220636
0.11765
0.122514
0.238551
0.115163
0.257759
0.117084
0.141017
0.126667
0.258536
0.236053
0.142351
0.119967
0.116651
0.209901
0.140743
0.210002
0.236203
0.232964
0.120295
0.0138908
0.12066
0.112725
0.208941
0.0919573
0.209805
0.0460869
0.220179
0.000457323
0.232571
0.141481
0.101696
0.111427
0.234856
0.108987
0.232068
0.226121
0.234673
0.0149548
0.0041316
0.211439
0.00406843
0.108867
0.139642
0.184693
0.106503
0.226467
0.159611
0.230457
0.104266
0.228779
0.193306
0.208452
0.266625
0.145548
0.252231
0.103843
0.0111053
0.159329
0.010903
0.26402
0.050533
0.154682
0.208654
0.114286
0.108574
0.0156253
0.0369711
0.110687
0.213578
0.234517
0.00718312
0.240246
0.141974
0.257152
0.0651455
0.216104
0.110519
0.19411
0.236099
0.191524
0.180741
0.20163
0.217573
0.230326
0.178566
0.047456
0.205228
0.112875
0.112955
0.112545
0.0666582
0.251354
0.252361
0.206894
0.122636
0.226439
0.232878
0.122643
0.113531
0.112547
0.108484
0.251366
0.0539446
0.106487
0.16506
0.108823
0.205004
0.191668
0.130047
0.0638142
0.109727
0.10792
0.151438
0.262576
0.173293
0.107916
0.227765
0.0769066
0.0584144
0.246948
0.00541108
0.0764245
0.0157362
0.0765451
0.0769265
0.228974
0.106718
0.192866
0.22751
0.132461
0.113458
0.235918
0.0809847
0.23327
0.102092
0.10548
0.105437
0.208668
0.178994
0.23276
0.212669
0.22416
0.0906236
0.155152
0.236403
0.221788
0.113278
0.220904
0.0791171
0.205803
0.0508655
0.207336
0.108543
0.188821
0.0962952
0.145218
0.221525
0.0767185
0.222087
0.0579758
0.117455
0.0942641
0.0335538
0.099212
0.092764
0.130359
0.232829
0.0971521
0.0442808
0.0198745
0.209534
0.0220883
0.223562
0.00428543
0.101778
0.0549662
0.100704
0.221661
0.225116
0.0512697
0.250093
0.0356399
0.00273298
0.207955
0.189888
0.0994266
0.2224
0.0746358
0.0218464
0.126996
0.00287359
0.159749
0.200551
0.149216
0.101711
0.261156
0.102876
0.163697
0.207853
0.13545
0.224685
0.0992558
0.147265
0.0983438
0.152012
0.249596
0.105399
0.0908264
0.152113
0.0989539
0.168988
0.0979121
0.0633617
0.0976938
0.249506
0.0972902
0.0931051
0.0963196
0.24283
0.122373
0.234354
0.253347
0.251717
0.184489
0.0524475
0.0706031
0.192121
0.222641
0.0245465
0.0677866
0.0963204
0.0947248
0.223531
0.264083
0.00333828
0.0349491
0.0875552
0.2343
0.0349378
0.136615
0.223861
0.0939034
0.0924943
0.0935783
0.0905526
0.0935386
0.18544
0.11553
0.221051
0.0251614
0.0973344
0.0939742
0.244852
0.145558
0.240792
0.255568
0.0502767
0.094457
0.070257
0.242801
0.245514
0.240186
0.238836
0.129612
0.0692715
0.234906
0.0510515
0.0941059
0.21691
0.104899
0.0933292
0.0738867
0.0915683
0.215224
0.213943
0.0937941
0.16338
0.105224
0.104874
0.261535
0.0264688
0.0571377
0.0942491
0.0948863
0.00871863
0.0947038
0.0718791
0.100524
0.211125
0.0948899
0.0179826
0.102273
0.00817941
0.245585
0.238411
0.130765
0.0974325
0.100326
0.115103
0.0856598
0.0780505
0.117512
0.0823869
0.0813459
0.0708786
0.0827536
0.246945
0.221625
0.137129
0.208418
0.0873127
0.214162
0.069208
0.208381
0.175791
0.200616
0.0842535
0.154927
0.0196446
0.214362
0.230336
0.0965101
0.269012
0.0870337
0.0890474
0.147886
0.0232717
0.1157
0.0898806
0.213707
0.0682416
0.0962993
0.0934226
0.0646757
0.181073
0.0645309
0.0632615
0.0654748
0.0661483
0.0650409
0.210555
0.21065
0.21727
0.207924
0.0412444
0.0655357
0.241411
0.0720379
0.0398405
0.0713797
0.0706886
0.0426477
0.0717188
0.070551
0.0710139
0.0901437
0.0869819
0.157545
0.0993554
0.11202
0.143233
0.123848
0.114871
0.0423952
0.0909426
0.0901563
0.0681233
0.0734072
0.0882937
0.171057
0.0180652
0.199985
0.261221
0.159666
0.251
0.0889076
0.0199723
0.0213621
0.021321
0.120244
0.0224237
0.0854796
0.0879049
0.235351
0.268598
0.148443
0.0796798
0.238441
0.13513
0.164855
0.0872872
0.167078
0.0872776
0.172187
0.0734001
0.0385058
0.0466839
0.0831885
0.00177359
0.0896552
0.237216
0.065941
0.19759
0.0261641
0.0805395
0.0827958
0.222489
0.112624
0.172286
0.125468
0.171341
0.0816067
0.0160054
0.239555
0.0984066
0.160315
0.235943
0.235886
0.0842164
0.0711875
0.0852056
0.128117
0.0842769
0.168153
0.222121
0.131406
0.0855159
0.0861824
0.136106
0.153939
0.187458
0.0855267
0.0873549
0.087772
0.23706
0.0867684
0.0879791
0.0311947
0.0771812
0.0401222
0.015793
0.0393565
0.0246502
0.0754409
0.0777266
0.012766
0.0612475
0.0118822
0.23447
0.0794113
0.044507
0.234776
0.184547
0.118267
0.0681439
0.0825639
0.0131052
0.0804907
0.177637
0.126349
0.0791844
0.240252
0.0383194
0.00403719
0.080057
0.276041
0.124782
0.162626
0.0143807
0.0805048
0.0796923
0.18722
0.014377
0.123537
0.157407
0.0738696
0.0801593
0.0825162
0.268304
0.247476
0.240974
0.119831
0.0407439
0.0161728
0.0144501
0.242449
0.0143242
0.0501188
0.0834385
0.264577
0.098014
0.0850898
0.219552
0.242017
0.178173
0.169442
0.0845547
0.0822425
0.234829
0.203837
0.21472
0.0246597
0.200406
0.0537826
0.114018
0.0449274
0.0813641
0.128396
0.247089
0.129155
0.127088
0.256127
0.0764196
0.236491
0.0571456
0.167356
0.194218
0.246672
0.129142
0.239541
0.0720944
0.0597209
0.0360056
0.0764545
0.240024
0.0576347
0.0520007
0.154081
0.0595687
0.0593485
0.0642992
0.020859
0.11785
0.0781635
0.0922691
0.0540463
0.0711209
0.0621686
0.0422599
0.241896
0.173609
0.0575998
0.0802149
0.273147
0.149125
0.076641
0.15952
0.077577
0.142897
0.0753675
0.240596
0.0559128
0.270016
0.0486135
0.0429118
0.155319
0.0587537
0.169095
0.148962
0.177889
0.0242054
-0.000846924
0.0325964
0.027105
0.0483354
0.0173909
0.0532787
0.0497561
0.0490535
0.254357
0.0327782
0.242693
0.242878
0.0386662
0.231558
0.0809585
0.237381
0.221753
0.0556191
0.233969
0.0559196
0.00212621
0.177573
0.116529
0.226201
0.221044
0.126917
0.0194188
0.0350382
0.17954
0.194334
0.057503
0.0556421
0.0755927
0.197569
0.213382
0.161696
0.020297
0.0146458
0.0749108
0.182745
0.199588
0.216173
0.254549
0.0770632
0.226863
0.209039
0.160371
0.27096
0.116411
0.148057
0.184998
0.0722489
0.245039
0.0127796
0.112145
0.209097
0.190738
0.219957
0.24347
0.0229126
0.111838
0.0750432
0.13269
0.07604
0.123014
0.136331
0.131889
0.0963925
0.0756316
0.0748305
0.0722706
0.0978903
0.253392
0.106028
0.0951103
0.101734
0.238744
0.212075
0.0216765
0.244834
0.0754037
0.0720908
0.14895
0.0631307
0.0636122
0.0890322
0.0221309
0.0623668
0.0675856
0.0157558
0.059261
0.0577109
0.0636284
0.084368
0.0700971
0.0708524
0.242687
0.0465275
0.0568154
0.0415961
0.077291
0.0413193
0.0388376
0.0731133
0.0173031
0.0187321
0.10402
0.0428274
0.0373681
0.244215
0.0737185
0.05593
0.0518787
0.0193831
0.0460362
0.0729121
0.075243
0.066643
0.117542
0.158564
0.181401
0.137941
0.018437
0.0661462
0.0642099
0.0662258
0.204713
0.102346
0.0748622
0.260611
0.0651546
0.101827
0.0651546
0.0674004
0.174581
0.180747
0.0646374
0.108751
0.222292
0.221754
0.102494
0.0653202
0.241858
0.0653189
0.140173
0.066038
0.265114
0.0665119
0.20287
0.0650098
0.174549
0.208015
0.23696
0.216429
0.0636419
0.210613
0.156612
0.174051
0.0654357
0.0269904
0.115609
0.159493
0.0654518
0.064799
0.0657879
0.115514
0.0584458
0.255492
0.189064
0.0250683
0.242293
0.0614054
0.236046
0.0253174
0.0561451
0.0598384
0.204138
0.064762
0.178611
0.253325
0.0570018
0.0613575
0.0997351
0.248793
0.204173
0.203645
0.062273
0.213282
0.185395
0.0610022
0.102458
0.0869346
0.0600764
0.0601565
0.178223
0.215696
0.066451
0.105105
0.0852178
0.239928
0.23546
0.239295
0.0649569
0.24141
0.0439781
0.193885
0.22031
0.131271
0.176028
0.065082
0.246053
0.0313032
0.0353107
0.0378966
0.110177
0.0380934
0.118005
0.115816
0.103164
0.127533
0.199829
0.105591
0.154257
0.00931181
0.0437362
0.0898527
0.147149
0.0617466
0.164057
0.223331
0.120465
0.195214
0.188932
0.0118689
0.0375371
0.17301
0.0444145
0.000602671
0.244727
0.205967
0.234942
0.0358276
0.244352
0.0987601
0.232856
0.0939352
0.236069
0.0931217
0.240891
0.041133
0.213538
0.0597579
0.184845
0.0953525
0.190388
0.0986783
0.279299
0.0601783
0.0821547
0.200613
0.18535
0.0581945
0.127114
0.185285
0.0604676
0.167898
0.0240853
0.167524
0.0551683
0.0532175
0.0829431
0.2442
0.0604584
0.0384284
0.0593253
0.0617701
0.111305
0.2067
0.0692275
0.0623107
0.110979
0.110586
0.0050373
0.237726
0.0600461
0.079792
0.142784
0.191924
0.00189194
0.0618301
0.242233
0.0515136
0.0490068
0.155067
0.0290405
0.0435548
0.220249
0.0619208
0.239818
0.115371
0.0391223
0.0482695
0.129329
0.0460174
0.0593502
0.0883323
0.0562205
0.0583364
0.0568353
0.0241738
0.149861
0.0556266
0.0790394
0.0528558
0.0724014
0.0806609
0.0545552
0.051927
0.237308
0.0562876
0.0485892
0.0514222
0.24257
0.0608082
0.0502277
0.0706961
0.183717
0.0762866
0.0547712
0.0612259
0.0532588
0.00321981
0.240273
0.0767135
0.0532825
0.0398124
0.248083
0.102432
0.0272524
0.0515387
0.0109018
0.11123
0.238889
0.0509093
0.237808
0.0473765
0.0313668
0.242122
0.238625
0.246914
0.0386243
0.243401
0.0155534
0.0185681
0.0522271
0.0272657
0.0237055
0.0646542
0.185994
0.243035
0.23337
0.251793
0.231268
0.148454
0.109632
0.0399744
0.0488451
0.0576298
0.141716
0.158058
0.0987093
0.206177
0.0756624
0.0535906
0.17013
0.067581
0.232128
0.23156
0.0297847
0.233611
0.158684
0.213189
0.248292
0.0500227
0.196507
0.161215
0.170259
0.160411
0.0507816
0.124155
0.234402
0.250042
0.0609837
0.229475
0.247727
0.238495
0.201539
0.042517
0.251458
0.045241
0.222944
0.223945
0.044984
0.0497209
0.040193
0.142875
0.2442
0.105275
0.159643
0.0408925
0.176066
0.244645
0.0535856
0.202957
0.0517785
0.206599
0.231758
0.252075
0.230879
0.0881381
0.0969947
0.11515
0.19746
0.0536772
0.217754
0.218167
0.0521221
0.208417
0.124138
0.0519458
0.159788
0.211335
0.0503823
0.23456
0.0421513
0.215169
0.255783
0.0473726
0.135385
0.048066
0.163538
0.0504992
0.0243663
0.244619
0.166124
0.082937
0.112332
0.141335
0.134013
0.0209241
0.128202
0.125498
0.2338
0.169652
0.25881
0.223925
0.0681805
0.238452
0.0257044
0.0266518
0.178106
0.153032
0.208698
0.207768
0.0279066
0.024415
0.123785
0.241457
0.198893
0.223658
0.256238
0.0273077
0.201099
0.166916
0.201788
0.206975
0.157007
0.245902
0.211254
0.21413
0.0631447
0.0673621
0.255316
0.0272822
0.0244231
0.0462364
0.225959
0.241852
0.245273
0.0446705
0.0424579
0.183745
0.0439341
0.0454849
0.189111
0.25038
0.207012
0.071581
0.233083
0.123684
0.2044
0.206057
0.251781
0.0430318
0.154297
0.154512
0.0452357
0.042791
0.0413726
0.0442771
0.164061
0.04557
0.251097
0.201982
0.187375
0.0453746
0.0403473
0.09024
0.196438
0.252796
0.120649
0.109049
0.249689
0.0199071
0.0352269
0.0719038
0.112615
0.0347598
0.0445777
0.0459384
0.08718
0.0465324
0.249538
0.250924
0.0963346
0.249525
0.151657
0.08633
0.0413529
0.068671
0.0640989
0.077152
0.0442421
0.0377154
0.0484145
0.0558693
0.04017
0.0666282
0.0712823
0.197278
0.0404968
0.0442515
0.0784238
0.0262997
0.046326
0.0405426
0.037402
0.0384129
0.0395442
0.249272