/*--------------------------------*- C++ -*----------------------------------*\
| =========                 |                                                 |
| \\      /  F ield         | OpenFOAM: The Open Source CFD Toolbox           |
|  \\    /   O peration     | Version:  2406                                  |
|   \\  /    A nd           | Website:  www.openfoam.com                      |
|    \\/     M anipulation  |                                                 |
\*---------------------------------------------------------------------------*/
FoamFile
{
    version     2.0;
    format      ascii;
    arch        "LSB;label=32;scalar=64";
    class       surfaceScalarField;
    location    "28";
    object      phi;
}
// * * * * * * * * * * * * * * * * * * * * * * * * * * * * * * * * * * * * * //

dimensions      [0 3 -1 0 0 0 0];

oriented        oriented;

internalField   nonuniform List<scalar> 
113358
(
-1.56354e-05
3.27736e-05
-2.26402e-05
5.50241e-06
2.34991e-05
3.15651e-07
-6.40051e-06
-1.74128e-05
-2.68898e-05
2.07422e-05
-3.33787e-06
9.48224e-06
-2.40991e-05
-6.65174e-06
2.4189e-05
6.57464e-06
-1.72931e-05
9.61968e-07
3.01771e-05
-1.38458e-05
1.36176e-05
-1.41967e-05
-7.96039e-06
8.53959e-06
-7.42347e-06
3.56351e-05
-2.56674e-05
-2.54348e-06
-8.72243e-07
-3.3888e-05
1.85213e-05
1.62397e-05
8.90548e-06
5.74731e-07
1.87386e-05
-2.82186e-05
8.38143e-06
4.08134e-06
-1.21028e-05
-3.37492e-07
-6.04966e-06
2.24155e-05
-2.06506e-05
4.2849e-06
-1.57528e-05
-1.35385e-07
-2.9432e-07
1.61829e-05
-4.70738e-05
3.75402e-06
1.29183e-05
3.04008e-05
1.37016e-06
-2.94434e-06
1.57434e-06
2.23162e-06
-1.52187e-06
2.16487e-05
-2.23597e-05
1.14591e-06
3.49477e-07
1.30338e-05
-1.45325e-05
9.91267e-06
3.21548e-05
-2.69231e-05
-1.51442e-05
-1.96591e-05
1.09644e-05
6.94475e-06
1.75017e-06
1.47092e-05
-3.86598e-05
3.30811e-05
-9.13018e-06
2.3638e-05
3.23528e-06
2.66768e-05
-5.35502e-05
1.98111e-05
4.63678e-07
-4.58691e-07
-1.98157e-05
-1.14548e-05
4.5661e-05
4.21502e-06
-3.84228e-05
-4.15268e-07
-4.40968e-05
4.71932e-05
-2.68067e-06
-1.0207e-06
4.97888e-06
3.51099e-07
-4.3081e-06
-4.60022e-05
2.01933e-05
-3.76393e-06
2.95702e-05
-2.44457e-05
5.63818e-06
2.02235e-05
-1.42004e-06
-1.05677e-05
1.02933e-05
-1.6536e-07
4.40196e-07
-2.10437e-06
-7.71519e-06
5.643e-06
4.17683e-06
2.01039e-05
-3.00733e-07
8.2453e-09
-2.57904e-06
2.57091e-06
8.25513e-09
-5.40666e-06
-2.58667e-05
2.74161e-05
3.85748e-06
5.33074e-06
-3.25049e-07
-8.34836e-06
3.34297e-06
2.06333e-05
-1.15816e-06
1.04686e-06
-2.05222e-05
-2.88112e-05
1.28632e-05
-2.97673e-06
1.89459e-05
1.75952e-05
1.91968e-06
-1.99047e-05
3.90063e-07
-3.37209e-05
8.1665e-06
-1.1844e-05
3.73968e-05
-3.12934e-08
-2.5095e-06
2.54068e-06
9.2949e-06
1.10027e-05
1.85984e-06
-2.21573e-05
7.23987e-06
-3.85571e-05
3.16594e-05
-3.41527e-07
-3.34917e-06
4.72389e-06
3.49567e-05
-3.63292e-05
-2.03038e-05
1.68962e-05
-2.10173e-05
2.4425e-05
1.05719e-06
-2.34971e-05
-3.11197e-05
5.356e-05
-5.06161e-07
4.28702e-05
-1.17559e-05
-3.06077e-05
5.61401e-06
-1.95772e-05
-7.89983e-06
-5.44087e-06
3.2628e-05
-5.17736e-07
-2.66691e-05
-2.55758e-06
1.74855e-05
-1.16834e-05
-3.24499e-06
-3.06048e-05
-1.1436e-05
4.1535e-05
-9.9668e-06
3.38687e-05
9.28948e-07
-2.48307e-05
-3.40846e-05
4.26461e-06
-5.52185e-06
3.5342e-05
3.42515e-05
1.48221e-05
-4.55397e-05
-3.53361e-06
2.32112e-05
-1.61715e-05
1.5607e-06
-8.60031e-06
-1.18428e-05
3.56821e-06
1.18463e-05
-3.55776e-06
3.08022e-05
-7.87286e-06
1.73123e-05
-4.02441e-05
-1.04301e-05
-3.92746e-05
4.23049e-05
7.40054e-06
-2.20491e-06
8.24709e-06
-9.38861e-06
3.34667e-06
2.89184e-05
-1.26958e-05
2.04752e-05
-3.66975e-05
-2.07249e-05
4.55324e-06
3.65408e-05
-2.03689e-05
1.35814e-05
-6.70323e-06
5.43398e-06
-1.23092e-05
3.47734e-05
-8.83609e-06
-2.68873e-05
9.4882e-07
-1.25829e-05
-1.47148e-05
7.72758e-06
1.95703e-05
-3.03184e-05
-4.83355e-06
1.44958e-05
2.06474e-05
-3.28775e-06
3.72804e-06
-4.40271e-07
3.26324e-05
-5.41631e-06
-3.18492e-05
4.63374e-06
-1.44083e-05
-3.99278e-05
1.50531e-05
3.92832e-05
-4.32043e-06
4.5652e-06
-3.66673e-05
3.64277e-05
2.07644e-06
2.13816e-05
2.00096e-06
-2.54588e-05
4.11803e-06
-3.40867e-06
-7.07078e-07
-2.57219e-09
6.28051e-08
1.29172e-05
-1.2978e-05
6.18296e-06
-3.00976e-05
3.25786e-05
-8.66381e-06
1.04788e-05
-2.439e-05
2.2834e-05
-8.92248e-06
8.38661e-06
-8.68092e-06
2.95259e-07
-1.81345e-05
-6.05731e-06
3.15635e-05
-7.37151e-06
-2.64177e-07
4.64648e-06
-4.38225e-06
6.98807e-06
-2.91037e-05
9.51888e-06
1.2597e-05
4.15005e-05
-3.27139e-06
-2.84779e-06
-3.53805e-05
-2.67626e-05
-3.13621e-05
3.42851e-05
2.38402e-05
3.00899e-06
-3.54345e-05
5.66295e-06
3.51671e-05
-2.79845e-05
-8.82897e-07
-6.29969e-06
1.06926e-07
1.96599e-07
-1.70365e-05
1.67351e-05
7.12505e-06
7.27626e-06
1.21687e-05
-2.65698e-05
9.0192e-06
-4.77783e-06
3.77596e-06
-7.99105e-06
-1.57571e-05
-1.05349e-05
2.70471e-05
-7.54987e-07
-2.12005e-05
2.60189e-05
-1.83354e-05
1.35171e-05
-3.53583e-06
1.45031e-09
3.53398e-06
-2.98325e-05
3.02976e-05
-3.07108e-05
2.40514e-05
-3.26746e-06
-1.08688e-06
-7.1426e-07
5.06908e-06
6.24717e-05
-6.04025e-05
1.8606e-06
-3.93016e-06
-1.30001e-05
4.03312e-06
1.26047e-05
-3.63889e-06
-4.52726e-06
2.5793e-05
-2.8539e-05
7.2734e-06
-1.77051e-05
-2.11776e-05
3.13344e-05
7.54842e-06
8.8208e-06
-1.25688e-05
1.82509e-05
-1.45024e-05
7.12593e-06
2.23604e-05
-4.68617e-05
1.73753e-05
-3.32559e-05
1.18894e-05
1.42883e-05
7.07893e-06
7.85158e-07
-2.76447e-05
2.2413e-05
4.44645e-06
-2.71136e-05
2.53338e-06
9.64574e-06
1.49346e-05
2.33693e-05
-2.00971e-05
7.04114e-06
-1.03143e-05
1.49278e-06
1.32321e-05
-1.44875e-05
-2.38351e-07
1.79769e-05
-2.41486e-06
-2.86466e-06
-1.26972e-05
1.56353e-05
1.78645e-05
-1.52274e-05
-1.82724e-05
2.67429e-06
-8.28154e-07
4.8396e-06
-6.68527e-06
5.35167e-06
-3.2515e-07
-5.02538e-06
4.66733e-08
4.43486e-06
-4.48143e-06
-5.35057e-07
3.30357e-06
-1.46301e-05
1.18609e-05
-2.02253e-05
4.18146e-05
4.35697e-07
-2.20206e-05
4.65497e-06
-2.10488e-05
1.62767e-05
1.24687e-07
-3.47653e-06
-4.70461e-06
1.29963e-06
6.88088e-06
-6.16318e-06
-1.49522e-05
3.85023e-06
1.72628e-05
-3.16142e-06
2.0992e-05
8.93355e-06
-2.67681e-05
4.55708e-06
4.11063e-06
-1.99378e-05
1.12704e-05
-2.76972e-06
2.81849e-05
-3.22178e-05
6.80298e-06
-8.51004e-06
8.74543e-06
-2.39796e-07
2.01112e-05
-2.48255e-05
3.87345e-06
8.40155e-07
1.8576e-05
1.06696e-05
-3.2419e-05
3.17362e-06
-2.57391e-05
-1.41084e-05
7.09311e-06
3.27547e-05
-2.42524e-06
-2.24403e-05
9.1558e-07
2.39497e-05
1.42098e-05
-1.47541e-05
1.56109e-07
3.87724e-07
1.64246e-05
-2.84504e-05
-5.61072e-06
1.76374e-05
-3.92696e-06
3.11718e-07
3.61508e-06
-4.16449e-06
-1.45846e-06
2.88724e-05
-2.32512e-05
-1.31521e-05
8.23478e-06
4.19608e-05
-3.70439e-05
-9.81076e-06
1.97608e-05
-2.95817e-05
1.96324e-05
1.56326e-06
-2.46496e-05
1.97067e-05
3.38319e-06
-3.59033e-06
-8.48285e-06
3.02773e-05
-1.82039e-05
2.312e-05
-1.00435e-05
-1.00526e-05
-3.02377e-06
-2.61957e-06
-1.28744e-05
1.83532e-05
-2.85897e-06
6.8917e-06
-3.37123e-06
-3.52026e-06
-1.08399e-06
-2.5401e-05
-6.1877e-06
3.2673e-05
-1.47659e-05
2.06328e-05
5.88967e-06
-1.17564e-05
5.00071e-06
-1.24902e-05
2.14429e-05
-1.39534e-05
-4.09391e-05
9.51897e-06
-6.7202e-07
3.20927e-05
-2.62626e-06
-4.42533e-05
3.98978e-05
6.98434e-06
6.40848e-08
-4.49597e-06
4.43306e-06
2.11714e-05
-3.23512e-05
5.7236e-07
1.06076e-05
3.77689e-05
4.27987e-06
-4.05205e-05
-1.52759e-06
1.17717e-05
1.13338e-06
-2.73748e-05
1.44707e-05
-9.36142e-06
1.29516e-05
1.4986e-05
-2.73216e-05
-2.27039e-05
1.30503e-05
3.69743e-05
6.56839e-06
3.36322e-06
-4.57797e-06
7.26836e-06
-5.59135e-06
-2.77912e-05
2.61145e-05
5.20147e-06
1.60451e-05
-7.32444e-06
-1.39214e-05
-6.63114e-06
1.43578e-05
3.00915e-05
-3.78188e-05
1.88782e-07
2.74542e-06
-2.93439e-06
-2.30584e-05
3.66412e-06
1.40825e-05
5.31358e-06
3.09494e-05
-1.65342e-05
-2.09605e-05
6.54556e-06
3.25825e-05
-8.02212e-06
-3.62832e-06
-2.09319e-05
-2.9162e-05
-3.78535e-07
-9.56033e-07
3.04969e-05
2.60439e-05
1.2314e-05
-3.65946e-05
-1.76306e-06
6.92631e-06
4.83738e-06
-1.17636e-05
1.82181e-06
-2.6749e-05
-1.54945e-07
2.50818e-05
4.26784e-05
-3.28332e-05
-3.17214e-06
-6.67199e-06
5.19281e-06
-7.34624e-07
-4.15949e-06
-2.95915e-07
-3.11975e-05
4.41224e-05
1.8064e-05
-3.09882e-05
1.80721e-05
-2.87591e-05
-2.82474e-06
1.35138e-05
-2.56745e-05
2.78654e-05
-9.08283e-07
-1.28163e-06
-3.46622e-06
1.71937e-06
1.74976e-06
3.71408e-05
-4.0465e-06
1.02207e-05
-4.33164e-05
-2.71711e-05
3.6517e-05
-3.50194e-05
1.30118e-07
2.71164e-06
2.02258e-05
-2.30669e-05
3.09556e-06
-2.99021e-06
-1.05405e-07
-1.24644e-05
-6.82253e-06
1.17263e-06
1.81147e-05
-9.2619e-06
2.34995e-05
-1.80686e-05
3.83158e-06
1.77623e-06
-5.54472e-06
3.45274e-06
3.16421e-07
-2.20052e-06
-2.04741e-06
4.25113e-06
-2.46146e-05
2.42739e-05
2.43455e-05
-2.40051e-05
4.7986e-05
-1.22273e-05
-1.04368e-05
-2.53221e-05
1.46011e-05
6.20062e-07
-5.03155e-07
-1.47168e-05
3.19373e-05
-3.89941e-05
5.36268e-06
1.69416e-06
3.55939e-06
-5.40903e-08
-3.50521e-06
-5.71664e-06
2.79951e-05
-2.70457e-05
4.77772e-06
-1.51842e-05
1.58368e-05
-1.76597e-06
1.11361e-06
-1.17877e-05
1.0338e-05
7.15167e-07
7.34579e-07
2.82616e-06
-2.20883e-05
7.82083e-06
1.14413e-05
-1.13022e-05
-1.08117e-05
2.62248e-05
-4.11084e-06
-1.6619e-05
1.62835e-05
3.02696e-07
3.3127e-08
-3.12465e-05
-3.52939e-05
3.5936e-05
-1.07432e-05
3.36234e-05
1.06005e-05
-3.34804e-05
5.7129e-06
3.10522e-05
6.05098e-06
-4.28158e-05
-1.49439e-05
6.47514e-06
2.0403e-05
-1.19361e-05
-1.05324e-08
8.25953e-08
1.20729e-05
-1.21436e-05
1.57494e-06
3.774e-05
-5.60405e-06
-3.37104e-05
-4.45179e-06
-2.93102e-06
4.85348e-06
2.52994e-06
4.91448e-06
-4.62631e-06
-2.87379e-07
-4.0252e-06
-1.36753e-05
1.08177e-06
-2.65694e-05
3.38925e-07
-5.22447e-06
3.14551e-05
-1.67536e-05
1.50229e-05
4.85973e-07
1.2445e-06
-5.00637e-07
9.37901e-06
-1.34868e-07
-8.74458e-06
-3.35859e-06
3.25843e-06
1.02253e-07
3.35848e-06
-8.2373e-07
2.17216e-05
-2.42565e-05
3.0631e-05
3.34084e-06
-2.64661e-05
-7.50518e-06
-3.38697e-06
-1.5464e-05
-1.0236e-05
1.56188e-05
-1.71557e-05
1.12546e-06
4.08944e-07
7.05918e-06
-2.99808e-05
3.54373e-05
-1.25153e-05
1.24432e-05
2.63304e-06
-6.61467e-06
-8.46035e-06
-1.60267e-05
-3.7825e-05
9.29682e-06
4.45547e-05
6.41228e-08
2.99118e-06
-2.36358e-07
-2.81843e-06
1.1074e-05
-6.86237e-07
1.76165e-06
-1.21467e-05
-1.13145e-05
2.45993e-07
1.12004e-05
-1.29964e-07
2.33711e-05
4.07853e-06
-2.96345e-05
2.18412e-06
-3.00205e-05
-1.74059e-05
3.86692e-05
8.75751e-06
-7.56706e-06
3.20759e-06
-7.10797e-06
6.15404e-06
2.57594e-05
-3.30545e-05
1.14007e-06
-2.40592e-05
-2.44659e-05
1.0059e-05
3.84683e-05
-3.17184e-06
3.45595e-06
-2.84301e-07
1.85723e-05
1.06575e-05
-2.21032e-06
-2.70173e-05
-7.10793e-07
-4.35999e-06
-2.88395e-05
3.39086e-05
-1.98336e-05
5.01963e-06
4.83485e-05
-3.35348e-05
2.61179e-05
-1.95487e-05
-1.00049e-05
3.42835e-06
2.99542e-06
-1.07419e-07
-2.88879e-06
4.49334e-05
-2.19368e-05
3.10543e-06
-2.61023e-05
1.06974e-05
-1.14118e-05
1.3974e-06
-6.80165e-07
2.5824e-06
2.44848e-06
-5.03067e-06
-1.63753e-05
-2.14633e-05
4.31118e-06
3.35266e-05
-1.28746e-05
2.43845e-07
1.33115e-05
-6.79352e-07
2.19549e-05
-4.56756e-05
5.89838e-07
2.31311e-05
-1.98594e-05
-2.49692e-05
3.28677e-05
1.19606e-05
-1.31761e-05
1.73264e-05
2.84325e-05
5.29612e-06
2.76076e-05
-2.89802e-05
-3.92333e-06
2.10781e-06
1.58003e-06
-1.4304e-05
1.06167e-05
-3.25917e-05
1.45135e-05
1.15581e-05
6.52065e-06
1.52252e-05
4.00866e-06
-1.718e-06
-1.75172e-05
-3.54204e-06
-2.70218e-05
2.83842e-06
2.77261e-05
6.43311e-06
-2.47275e-06
2.51636e-05
-2.91238e-05
-2.39892e-06
-3.69711e-08
-6.00903e-06
8.45465e-06
7.09358e-07
1.00219e-05
-3.73168e-05
2.65857e-05
-1.3154e-05
-2.65845e-05
-1.10553e-06
4.08434e-05
3.9257e-07
5.71905e-06
-6.11092e-06
8.94469e-08
-2.08247e-07
1.24864e-05
-1.23681e-05
2.48652e-06
1.55462e-05
1.34153e-05
-3.14479e-05
3.14671e-07
-1.64536e-05
1.3769e-07
1.60007e-05
4.01515e-06
-1.95289e-05
-1.4842e-05
3.0356e-05
1.42907e-05
1.75547e-05
-1.51968e-05
-1.66495e-05
2.9405e-05
1.75471e-05
-3.95508e-05
-7.40133e-06
1.14935e-07
-5.01878e-06
4.90405e-06
3.14602e-06
1.51891e-06
-7.07006e-09
-4.65791e-06
2.28454e-06
2.86449e-06
3.77862e-07
-5.52704e-06
2.92798e-06
-3.3787e-06
1.67345e-05
1.79476e-07
-3.06883e-05
1.14399e-05
1.90711e-05
5.5071e-05
5.98946e-06
-1.14753e-05
-4.95861e-05
-9.18521e-06
1.22897e-05
-2.87506e-06
-2.30984e-07
-1.5026e-05
1.43389e-05
-2.41354e-05
2.48229e-05
3.622e-06
5.81713e-08
-3.68114e-06
1.2549e-06
9.5491e-06
-1.82276e-05
7.42385e-06
3.64681e-06
-5.48571e-06
1.83775e-06
2.52081e-05
-1.34612e-05
-6.74608e-06
-1.78032e-05
6.51838e-06
-1.65019e-05
2.7787e-05
3.23149e-05
-3.13634e-05
4.94571e-06
-5.89672e-06
1.61806e-05
5.45312e-06
-1.92958e-05
-2.33987e-06
2.9055e-06
-3.69149e-05
1.24932e-05
2.15163e-05
2.88234e-05
-5.83418e-06
4.87707e-06
4.67612e-05
-5.25507e-05
2.44157e-06
-3.19528e-05
2.46273e-06
3.30975e-05
-3.60737e-06
-2.65521e-05
-1.71411e-05
2.86674e-05
-1.19906e-05
-1.1548e-05
-1.61281e-05
3.96673e-05
-1.25735e-06
4.55922e-06
3.82854e-05
-4.15864e-05
1.45327e-06
2.733e-05
-4.79971e-05
1.92141e-05
-1.33397e-07
9.20227e-08
1.99823e-05
-1.99431e-05
-4.01753e-05
6.68249e-06
3.27605e-06
3.02154e-05
1.37205e-05
-1.37903e-05
4.78149e-06
-4.71008e-06
8.34817e-07
1.24694e-05
-1.58718e-05
2.56751e-06
-2.38906e-05
3.60257e-05
-4.46701e-06
-7.66748e-06
-3.39922e-05
2.51035e-05
1.60086e-06
7.28719e-06
-2.96879e-05
2.90551e-05
3.82825e-05
-3.76489e-05
3.08921e-05
-2.51336e-05
1.29109e-06
-7.0497e-06
-1.41183e-05
1.82633e-05
-1.11029e-05
6.95795e-06
-8.32382e-06
1.93606e-05
1.64321e-06
-1.26762e-05
-3.58471e-05
2.82049e-06
3.92152e-05
-6.18875e-06
-5.00101e-06
-2.66786e-05
3.62717e-07
3.13245e-05
2.69083e-06
-9.39302e-06
7.537e-06
1.06986e-05
8.99001e-07
-1.02314e-05
-1.36527e-06
1.0341e-05
1.97219e-05
-2.30058e-05
-7.05656e-06
-9.73088e-06
1.32463e-05
2.26816e-05
-2.61977e-05
1.00463e-06
4.61008e-06
-3.88258e-05
3.32141e-05
1.8466e-05
-2.79048e-05
9.15592e-06
2.84967e-07
-3.82e-05
-6.24114e-06
1.04494e-05
-3.47725e-06
-9.18462e-07
-2.63007e-05
3.06961e-05
-3.73265e-06
2.75055e-08
3.70555e-06
-4.90107e-06
-6.53087e-06
4.13644e-05
-2.99323e-05
6.02857e-06
-5.72622e-06
-3.01346e-07
2.8365e-07
2.05936e-07
-1.07344e-05
1.02464e-05
-1.7664e-05
1.68849e-05
3.01842e-05
6.02423e-06
3.26653e-05
-2.35932e-05
-1.50956e-05
5.05113e-06
-5.13542e-06
8.3936e-08
-4.59661e-06
5.16174e-05
-2.89242e-05
-1.80949e-05
-2.75654e-05
2.98235e-05
1.96967e-05
-2.19656e-06
2.35257e-05
1.09983e-05
-3.23273e-05
-3.06049e-05
-1.13926e-05
4.08786e-05
1.11921e-06
-5.45902e-06
4.95952e-06
4.99775e-07
2.99352e-05
-3.19475e-05
-1.91328e-07
2.20444e-06
-1.93553e-05
-1.20495e-05
1.73232e-05
1.40818e-05
-3.63365e-06
1.62906e-06
-2.0568e-05
2.25729e-05
-2.84569e-05
-7.76733e-06
8.25813e-07
3.53986e-05
-1.76506e-05
-8.69403e-06
-6.91109e-06
1.68917e-05
-3.84977e-05
-3.41325e-06
2.50139e-05
7.73013e-06
-3.25958e-05
-9.86946e-06
3.47348e-05
8.43111e-06
-8.02655e-06
-4.04628e-07
-2.75886e-05
4.63071e-05
-6.56967e-06
-1.21474e-05
-6.38273e-06
-2.70249e-05
3.06221e-05
2.78585e-06
-4.16139e-05
4.25969e-05
-5.01626e-06
4.03329e-06
-2.488e-05
-6.26383e-06
1.75703e-05
1.3574e-05
-2.75519e-05
-5.83758e-06
3.34513e-05
-5.95306e-08
-4.64897e-07
8.72116e-08
-1.41527e-05
1.45305e-05
3.90379e-06
1.98489e-07
-4.10265e-06
-7.17372e-06
7.26659e-06
-9.33015e-08
4.22921e-05
-3.54474e-05
-4.87586e-05
4.19114e-05
3.34734e-06
1.41553e-07
-3.48862e-06
-3.16859e-05
3.11839e-05
-4.13318e-07
9.14387e-07
-1.16722e-05
9.91918e-06
2.04505e-07
1.54972e-06
4.41647e-06
4.74302e-05
-2.55395e-05
-2.6307e-05
-2.67562e-05
-8.40814e-06
3.47242e-06
3.16874e-05
3.31971e-05
1.46391e-05
-1.47656e-05
-3.30707e-05
1.4249e-05
-5.29409e-06
1.86377e-06
-1.08188e-05
3.84109e-05
-3.50613e-06
-2.76533e-05
-7.25372e-06
-4.51318e-06
6.71542e-06
-7.3604e-06
5.15783e-06
-2.96719e-06
9.12738e-06
3.42539e-06
-9.58528e-06
-1.37419e-05
-6.95043e-06
3.87694e-05
-1.8076e-05
6.88754e-06
2.6163e-05
-2.57179e-05
-7.33254e-06
-2.25243e-05
2.32443e-05
1.49829e-05
-1.57028e-05
2.44145e-05
-2.21623e-05
-2.99479e-06
7.4456e-07
-6.51692e-08
-1.24098e-05
-6.75206e-08
1.25464e-05
-7.90387e-06
1.4855e-05
-1.53799e-06
-5.41317e-06
-3.41648e-05
-1.1914e-05
1.72892e-05
2.8789e-05
2.23145e-05
-1.89247e-05
-3.78567e-06
3.96798e-07
8.58125e-06
-2.9503e-05
-3.32355e-05
5.4158e-05
1.85858e-05
-2.43043e-05
-1.18461e-05
1.75656e-05
-6.21326e-06
-5.24023e-05
1.45214e-05
4.40935e-05
1.82364e-05
-1.63005e-05
2.26414e-06
-4.19977e-06
3.13982e-05
-1.13693e-05
-3.67659e-05
1.67355e-05
1.24461e-05
2.04659e-05
-4.77968e-05
1.48838e-05
-7.67753e-06
2.97967e-05
-2.60661e-05
3.94695e-06
-2.85112e-05
3.19322e-05
3.26427e-05
-3.60638e-05
-1.78179e-07
-1.54368e-05
1.34988e-05
2.11652e-06
4.6352e-06
-4.35351e-06
-2.79792e-07
3.7204e-05
-4.61984e-05
1.31709e-06
-4.54694e-06
6.2709e-06
3.18899e-06
-4.91212e-06
-3.40071e-06
1.37733e-07
-1.63758e-06
4.90106e-06
1.73194e-05
-2.42341e-06
1.81216e-05
-2.73712e-05
1.14879e-06
8.10087e-06
-9.52718e-06
-2.26614e-06
9.17386e-06
2.33488e-05
-3.07831e-05
1.75851e-05
-1.01503e-05
-2.6355e-05
-3.88581e-06
3.1723e-05
-1.4818e-06
-5.10657e-05
-7.93046e-06
4.51815e-05
1.38132e-05
-3.8691e-05
1.04021e-05
8.87988e-07
2.74013e-05
-4.65145e-06
4.11375e-07
9.23635e-07
3.31415e-06
-2.58119e-05
-3.0892e-05
2.39503e-05
3.27548e-05
1.76414e-05
1.53929e-05
-2.64147e-05
-6.619e-06
2.06576e-07
1.59433e-05
-1.35439e-05
-2.60685e-06
-2.41233e-07
-1.75051e-05
3.43403e-05
-1.65939e-05
3.64426e-05
-2.61249e-05
-1.39078e-05
2.83357e-05
-3.20609e-05
6.52953e-06
-2.80518e-06
-3.92842e-06
-2.66857e-05
2.8847e-05
1.76788e-06
3.89381e-05
-2.62672e-06
-4.0239e-05
2.3384e-05
-2.60676e-05
6.26852e-06
-3.58706e-06
1.94633e-06
-1.28619e-05
-1.0635e-06
1.19797e-05
-2.8216e-06
2.70642e-06
-3.28109e-06
3.39638e-06
-2.01524e-06
5.00257e-06
1.6735e-06
-4.66599e-06
-7.82215e-06
-2.0322e-05
-1.43729e-06
2.9584e-05
1.10208e-05
8.57997e-06
-2.98109e-05
1.02105e-05
-1.87291e-05
5.85125e-07
6.6885e-06
1.14556e-05
-1.87991e-06
-1.93818e-05
1.88374e-05
-2.42064e-05
2.84416e-05
8.83151e-06
-1.3064e-05
-3.42778e-05
3.93691e-05
-1.22085e-05
7.11794e-06
-5.49712e-06
-1.90614e-05
2.48182e-06
2.20768e-05
1.38646e-06
3.4041e-05
-3.96746e-05
4.24659e-06
1.74354e-05
-5.58949e-05
1.22371e-05
2.62198e-05
4.92314e-06
-3.72337e-05
2.03708e-05
1.19403e-05
1.49697e-06
2.01697e-05
-6.88886e-06
-1.47775e-05
-4.46076e-06
2.10747e-06
4.37535e-06
-2.02167e-06
-3.89365e-06
7.86826e-06
-2.92614e-05
2.5287e-05
-1.6473e-06
-1.22633e-05
3.45406e-07
1.35651e-05
2.10925e-07
1.26162e-05
-2.2831e-07
-1.26009e-05
1.54056e-07
2.71163e-07
1.29249e-05
-1.33453e-05
-8.97843e-06
-1.53945e-05
2.70528e-05
-2.67919e-06
3.64591e-06
-3.4734e-05
1.86689e-05
1.24208e-05
3.21243e-05
8.39752e-07
2.42716e-06
-3.53916e-05
3.01785e-06
-3.09384e-06
7.60901e-08
1.08543e-05
2.20813e-05
-2.80122e-05
-1.23981e-05
4.61579e-08
1.29387e-07
1.22237e-05
2.02141e-06
-2.59983e-05
9.39446e-06
1.45826e-05
9.87552e-07
8.14573e-06
-8.25195e-06
-8.81695e-07
-6.1504e-06
-1.31381e-05
2.49598e-05
-5.67058e-06
3.01144e-05
-3.26563e-05
2.81257e-05
-2.55788e-05
1.87216e-05
-8.51501e-06
-3.16062e-05
2.13997e-05
-2.20115e-06
-2.10872e-06
4.3097e-06
1.28285e-05
2.79601e-06
-3.71263e-06
-1.19123e-05
-2.50288e-05
3.73799e-05
3.2903e-06
2.73694e-06
-6.02615e-06
1.55594e-06
-3.05152e-05
-1.57149e-07
2.91166e-05
-3.08476e-07
6.834e-07
2.17068e-05
-1.13468e-06
2.32408e-05
-4.52565e-05
2.31484e-05
-7.53841e-06
-2.17678e-05
-3.15212e-06
3.24608e-05
5.95226e-06
-9.95963e-06
1.02523e-05
-6.24596e-06
-7.00642e-06
-3.38708e-05
-4.22463e-06
4.5103e-05
1.98598e-05
3.63118e-06
-2.27929e-05
-6.97901e-07
5.84099e-06
2.82338e-05
-4.67756e-05
1.27006e-05
-2.34759e-06
-1.43427e-05
-8.27723e-06
2.49677e-05
-2.0788e-05
-6.6624e-06
1.07442e-05
1.67088e-05
-1.161e-06
-1.21543e-06
-1.42746e-05
1.66505e-05
3.61792e-05
-1.51392e-05
-8.80414e-06
-1.22354e-05
-2.25119e-05
5.49653e-05
-3.06404e-05
-1.81292e-06
1.23324e-05
3.18344e-07
3.25927e-07
-1.29776e-05
3.04343e-05
-3.60606e-05
3.6333e-05
-3.07071e-05
-5.57398e-06
1.75243e-05
-1.42388e-05
2.2888e-06
1.32905e-05
-4.88258e-05
2.07825e-06
3.34573e-05
9.176e-06
4.31632e-05
-3.70867e-05
-1.52522e-05
7.16691e-06
-7.01057e-06
-1.13264e-05
1.11723e-05
-2.29913e-05
-1.36232e-05
4.047e-05
-3.85717e-06
3.52481e-05
-2.79227e-05
-4.26746e-05
3.53484e-05
1.76917e-05
1.51546e-05
-9.27168e-06
-2.35732e-05
2.20667e-07
-1.51206e-05
9.40452e-08
4.39253e-06
-4.48404e-06
-3.76277e-06
3.64568e-06
1.16344e-07
2.61933e-05
-2.49046e-05
-2.30446e-05
2.17548e-05
-6.77398e-06
8.51601e-06
-2.4387e-05
2.26433e-05
3.57498e-05
-2.80028e-05
-5.82285e-06
-1.92405e-06
-5.36427e-06
1.31349e-06
3.51449e-06
-8.04349e-06
2.8252e-05
-7.72896e-06
-1.24791e-05
-4.47058e-05
1.18579e-06
1.52169e-05
2.82968e-05
1.36643e-05
-5.77083e-06
-1.35399e-05
5.6478e-06
7.58672e-06
3.50705e-05
-3.27506e-05
-9.90581e-06
-1.99618e-05
-4.08677e-06
3.82104e-05
-1.41613e-05
2.16304e-06
2.24568e-05
4.85122e-06
-2.9471e-05
7.68831e-06
2.47494e-05
-3.02748e-05
2.04695e-05
-1.51479e-05
-7.8625e-06
2.5405e-06
2.0855e-05
-2.6852e-05
1.1838e-05
-1.43498e-05
9.26369e-06
8.41815e-06
-3.33198e-06
8.94629e-06
1.09035e-05
2.1376e-05
-4.12249e-05
4.63266e-06
-2.8378e-05
-4.42154e-06
2.81641e-05
5.59761e-07
2.62601e-05
2.43083e-06
-2.925e-05
1.17638e-05
2.24953e-05
-3.73666e-05
3.10733e-06
-5.55529e-05
4.59619e-05
-8.39156e-07
4.81604e-08
3.82189e-05
-3.03264e-06
-3.52353e-05
-3.72283e-06
8.15636e-06
-1.11932e-05
6.7608e-06
-9.31457e-07
-3.98204e-06
2.97024e-07
4.61785e-06
-3.86347e-06
3.72498e-06
1.38406e-07
-5.13659e-06
-7.56978e-06
3.6386e-05
-2.36795e-05
-2.78311e-05
4.14886e-06
-1.21488e-05
3.58306e-05
4.31621e-05
-1.06e-05
-1.38843e-05
-1.86762e-05
3.61018e-06
-3.25812e-05
1.15738e-05
1.73986e-05
3.86321e-06
-3.49837e-06
-1.33123e-06
9.64332e-07
-4.46544e-06
4.30123e-06
1.64884e-07
2.00367e-06
2.82765e-05
-5.09076e-06
-2.51884e-05
-5.23335e-06
2.53827e-05
-3.32462e-05
1.30977e-05
1.11298e-05
1.85776e-05
-4.29667e-05
1.32595e-05
-2.19879e-06
2.5701e-05
1.87971e-05
-4.22994e-05
-4.22544e-05
2.22288e-05
2.48703e-05
-4.84461e-06
3.53611e-05
-3.59718e-05
7.09223e-06
-6.48074e-06
-3.16927e-05
-7.35808e-07
-9.82548e-06
2.39667e-07
5.95521e-06
-6.19506e-06
3.0716e-05
4.20328e-06
-2.53229e-05
-9.60013e-06
-2.04435e-06
-2.99476e-06
1.41758e-05
-9.13655e-06
3.0178e-06
5.34779e-07
1.00052e-05
-1.35577e-05
-3.26944e-05
1.44077e-05
1.59391e-05
2.34753e-06
1.4582e-05
-2.2971e-05
-3.363e-06
1.17482e-05
-2.43543e-05
5.78031e-06
3.98516e-05
-2.12773e-05
-3.54062e-06
-2.09468e-07
3.74853e-06
-1.38709e-05
3.54824e-05
2.45686e-05
-4.61801e-05
3.07102e-05
8.34659e-07
-4.90044e-05
1.74602e-05
-2.21626e-06
3.14696e-05
-2.79703e-06
-2.64561e-05
1.99265e-05
-1.56514e-05
1.19515e-05
-1.62202e-05
-1.28936e-06
-2.32064e-05
2.62043e-05
-1.7084e-06
-1.97321e-05
-3.0879e-06
-1.38278e-05
3.66434e-05
-8.10772e-06
-8.47173e-06
-1.50665e-05
3.16389e-05
-1.20007e-06
3.23309e-05
-3.51466e-06
-2.7616e-05
2.38471e-05
-2.34881e-05
2.81536e-07
-6.40377e-07
3.54067e-05
5.91839e-08
-2.44481e-05
-1.10172e-05
-8.59302e-06
-4.16118e-06
-2.44474e-05
3.72012e-05
-3.45991e-07
-3.51214e-06
3.8567e-06
-2.90292e-05
4.35278e-05
-3.39073e-06
-1.11075e-05
2.73394e-06
1.94555e-05
6.25076e-06
-2.84416e-05
-4.78774e-06
1.1158e-05
4.00068e-06
-1.03738e-05
-1.71213e-05
-4.26215e-06
1.78258e-05
3.55976e-06
1.94288e-05
1.412e-05
-4.95503e-05
1.60016e-05
1.24828e-05
-9.52051e-06
3.16508e-05
-3.46122e-05
-2.63083e-06
2.1237e-05
1.77263e-06
-2.03783e-05
3.37813e-06
-3.33183e-06
-4.65013e-08
2.41767e-06
3.00166e-05
1.362e-06
-3.37964e-05
2.92188e-05
-4.74085e-06
-2.78639e-05
3.38704e-06
-5.21215e-06
6.50088e-06
-2.96211e-05
2.83351e-05
-2.92813e-05
-4.52053e-06
2.29201e-05
1.08846e-05
1.18039e-05
-1.11991e-05
-9.60025e-08
-5.10405e-07
-4.20779e-05
2.70524e-05
-1.64891e-06
1.66749e-05
-5.04338e-06
4.28146e-06
7.61991e-07
1.30956e-05
-1.12828e-05
1.70625e-05
-1.88758e-05
1.95545e-05
1.6411e-05
-8.54926e-06
1.36095e-05
-3.68947e-05
-1.61569e-05
3.94413e-05
1.29833e-07
-1.70963e-05
1.71985e-05
-2.32321e-07
9.1184e-06
-1.51285e-05
-1.73229e-05
2.33355e-05
1.5026e-05
6.4208e-06
-2.42644e-06
-1.90197e-05
-4.74232e-06
1.14632e-06
6.02231e-06
-2.42616e-06
-3.97641e-06
5.04917e-05
-1.71876e-05
-2.93201e-05
1.387e-05
1.62175e-05
-6.11888e-07
-2.94749e-05
1.50815e-07
3.40521e-06
-3.55571e-06
-1.17539e-06
5.39198e-06
3.08851e-05
-3.51007e-05
3.70549e-05
4.90072e-06
-1.78316e-05
-2.41236e-05
-1.16537e-06
6.29926e-06
-4.97809e-06
-1.5639e-07
1.49789e-05
-1.34276e-06
-1.62407e-05
2.60637e-06
-4.51218e-06
-1.42502e-05
7.20141e-06
1.15633e-05
-5.75894e-06
2.67144e-05
4.43487e-06
-2.53906e-05
2.73629e-05
-3.53125e-06
-2.99301e-05
6.09887e-06
-3.08897e-06
5.99234e-06
-2.90331e-06
2.84727e-06
-1.25133e-05
1.11404e-05
-1.47482e-06
7.38432e-07
1.18725e-05
-1.24989e-05
-1.12789e-07
1.13035e-05
1.31507e-05
-1.45326e-06
-2.3001e-05
1.9429e-05
2.59976e-05
-1.80636e-05
-1.49951e-07
4.42708e-06
-4.27763e-06
-3.91176e-05
1.95908e-05
3.61691e-05
-1.66435e-05
3.90836e-05
6.7815e-06
-4.08429e-05
-5.02214e-06
2.53598e-05
-1.68318e-05
-2.8257e-05
8.34074e-06
1.43278e-05
-3.29681e-05
-1.84198e-06
-7.21048e-06
4.20209e-05
-8.16013e-08
4.36886e-06
-4.28863e-06
3.70218e-05
-1.43088e-06
-4.13245e-06
-3.14584e-05
4.61782e-06
-4.62437e-06
7.3476e-09
-1.30455e-05
3.33899e-06
-8.19184e-06
1.78988e-05
-2.12921e-05
-1.74732e-05
1.60581e-05
2.27077e-05
2.25916e-05
-1.73868e-05
-4.64426e-06
-5.59075e-07
-5.07974e-08
3.53591e-06
-3.48613e-06
-7.78628e-07
-4.64976e-06
5.43285e-09
5.42373e-06
8.61382e-06
3.36348e-06
-5.96848e-06
-6.00901e-06
-1.33005e-05
1.4339e-05
-1.81677e-06
-1.58218e-07
4.13209e-05
-1.27808e-06
-3.98843e-05
-8.18594e-06
-8.01627e-07
1.07124e-05
-1.72579e-06
3.83103e-06
-1.55065e-05
1.22674e-05
-5.92257e-07
1.07947e-05
-2.03012e-05
1.41882e-05
-4.68151e-06
8.09576e-06
1.87546e-05
3.02667e-06
-2.98731e-05
6.32679e-06
-6.48604e-06
1.59115e-07
1.64641e-05
-1.33872e-05
-3.41912e-05
3.11124e-05
9.88021e-07
1.23243e-06
1.60589e-05
-1.82792e-05
3.85424e-06
1.77401e-05
-2.24167e-05
8.22357e-07
1.29972e-05
-5.87592e-07
-2.02511e-06
-1.03842e-05
9.92773e-06
2.06641e-05
-3.05908e-05
-3.65628e-09
1.5847e-05
-1.01691e-07
-1.37152e-06
-1.43736e-05
-2.64182e-05
9.64226e-06
1.28292e-06
1.54905e-05
-1.13285e-05
-1.04939e-05
-1.34279e-06
1.12721e-05
-1.95588e-05
1.46783e-05
-6.39348e-06
-4.06684e-06
-1.66353e-05
-2.51325e-05
4.5834e-05
-6.18883e-06
7.75084e-06
-1.79985e-06
2.38106e-07
5.22574e-08
2.95263e-06
-3.00515e-06
-7.50373e-06
3.92741e-05
1.21902e-05
-4.39638e-05
2.78127e-05
1.16138e-05
-1.03875e-05
-2.90437e-05
2.76789e-05
-2.36398e-05
2.75994e-05
-3.16381e-05
3.60885e-05
-3.99319e-05
4.55941e-06
-7.15865e-07
-5.20454e-05
2.253e-05
9.45192e-06
2.00635e-05
-1.31847e-05
-1.62687e-06
1.44425e-05
3.69199e-07
3.20964e-05
-4.29853e-05
1.51118e-05
-4.22266e-06
1.18576e-05
-1.30211e-05
4.10538e-06
-2.94152e-06
-1.6064e-05
1.44814e-05
-9.74242e-06
-1.51674e-05
4.97815e-05
5.57215e-06
-4.01817e-05
-6.15742e-06
1.43765e-07
6.01247e-06
-4.77858e-06
1.05294e-05
-3.94725e-05
-2.22727e-05
-4.26983e-07
2.33379e-07
2.2465e-05
5.32887e-06
1.16549e-07
-5.44331e-06
8.30356e-06
-5.00918e-07
-3.06304e-05
2.28283e-05
-6.03294e-08
-2.02885e-07
1.1894e-05
-1.16323e-05
8.50132e-06
1.79071e-05
-3.02344e-05
3.82674e-06
2.41617e-05
1.72774e-06
1.61627e-06
-2.7501e-05
-2.97914e-06
6.05636e-06
3.99755e-05
-4.3052e-05
-9.89703e-06
-1.25917e-06
-3.44393e-07
1.1502e-05
-8.72659e-06
7.44799e-06
-2.94985e-05
3.07767e-05
-1.58669e-06
2.70207e-05
-2.34679e-05
-1.96494e-06
3.49691e-05
1.06501e-05
-1.60649e-05
-2.95532e-05
7.57322e-06
-4.17064e-05
2.75019e-05
-3.52721e-05
4.5042e-05
-2.1831e-06
1.94447e-05
-7.54304e-06
1.59083e-05
-1.52376e-05
-3.8192e-06
7.45286e-06
1.16036e-05
-7.97887e-06
8.43637e-07
7.30188e-06
-1.67436e-07
-1.15197e-05
2.84509e-05
-1.99024e-05
2.96956e-06
-3.27133e-05
2.87626e-05
3.05102e-05
-2.65595e-05
-3.81993e-06
3.49873e-06
1.87175e-07
1.34446e-07
3.18706e-05
-4.70842e-05
-1.7464e-05
3.26754e-05
-4.21746e-05
-1.65954e-05
2.83526e-05
3.04172e-05
3.77582e-05
4.02409e-06
2.11669e-06
-4.38993e-05
3.23208e-05
-2.14656e-05
2.6903e-05
-4.00847e-05
-3.76222e-06
1.59698e-05
2.78783e-05
3.69564e-06
3.09814e-07
-4.00503e-06
3.60987e-05
-3.34124e-05
-1.1381e-05
8.69447e-06
-2.16643e-05
-7.63366e-06
6.41109e-06
2.28857e-05
1.52615e-05
2.56668e-05
-1.45751e-05
-2.63534e-05
7.36924e-06
2.34676e-05
-2.27771e-05
-8.05769e-06
5.5045e-07
-7.35697e-06
6.80704e-06
-1.635e-05
-1.41087e-05
1.39711e-05
1.64912e-05
1.83452e-06
2.14757e-05
-5.08913e-06
-1.82217e-05
-3.55721e-05
3.57634e-05
-6.57485e-06
-2.88827e-06
3.52412e-05
-3.43418e-05
1.98917e-06
2.01862e-05
4.19879e-06
1.12084e-05
-3.55918e-05
-7.30935e-08
-2.55643e-06
2.63007e-06
-3.73975e-06
3.71732e-06
2.3685e-08
-2.32132e-05
-1.14093e-05
1.36819e-05
2.09411e-05
-3.00029e-05
-8.29e-07
3.65428e-05
-5.70713e-06
-8.94395e-06
3.27114e-05
-3.39325e-05
1.01651e-05
-2.52697e-05
2.05455e-05
-9.12788e-06
1.38506e-05
3.37777e-07
2.22112e-05
-2.48842e-05
2.33396e-06
-3.53543e-05
8.09464e-06
2.28684e-05
4.39119e-06
1.99844e-06
4.42268e-05
-1.67521e-05
-2.94747e-05
2.53263e-06
-4.73356e-06
-2.12534e-05
-1.07797e-05
8.81982e-06
2.00921e-05
-1.36763e-06
3.80927e-06
-2.25336e-05
-2.26e-06
-5.35307e-06
6.71259e-06
9.07516e-07
1.50487e-05
-4.55405e-06
-1.07013e-05
2.08202e-07
1.30039e-05
-4.37631e-05
4.20707e-05
-1.13102e-05
-1.73146e-05
3.0179e-05
4.31283e-06
-1.71763e-05
-3.73554e-06
4.09939e-06
2.85771e-05
-2.89424e-05
-3.95343e-05
2.93745e-06
3.75419e-07
3.6224e-05
-2.24719e-05
2.78505e-06
1.79095e-05
1.77822e-06
-2.38984e-05
1.47873e-05
3.36559e-05
-2.45437e-05
-1.52656e-05
-2.8141e-05
7.89651e-06
3.55132e-05
4.83962e-06
-3.89757e-05
-4.418e-06
3.85548e-05
-2.92629e-05
4.05412e-06
-1.5619e-06
2.67704e-05
-3.01031e-05
-1.98584e-06
-2.19679e-06
3.42868e-05
6.91247e-06
-3.61711e-06
3.27639e-05
-3.60586e-05
7.96333e-06
-4.57962e-06
-2.74541e-08
-3.3557e-06
4.56872e-06
-4.74488e-05
-7.34389e-06
5.02239e-05
-4.61186e-06
2.93929e-06
2.32594e-06
-6.53912e-07
-2.88029e-05
-7.556e-06
1.58224e-05
2.05366e-05
-1.61681e-06
1.55147e-05
2.90329e-06
-1.68008e-05
-1.31098e-05
-1.4122e-05
9.52688e-06
-6.22066e-06
2.51614e-06
3.23731e-05
-2.86673e-05
2.49375e-05