/*--------------------------------*- C++ -*----------------------------------*\
| =========                 |                                                 |
| \\      /  F ield         | OpenFOAM: The Open Source CFD Toolbox           |
|  \\    /   O peration     | Version:  2406                                  |
|   \\  /    A nd           | Website:  www.openfoam.com                      |
|    \\/     M anipulation  |                                                 |
\*---------------------------------------------------------------------------*/
FoamFile
{
    version     2.0;
    format      ascii;
    arch        "LSB;label=32;scalar=64";
    class       volVectorField;
    location    "28";
    object      U;
}
// * * * * * * * * * * * * * * * * * * * * * * * * * * * * * * * * * * * * * //

dimensions      [0 1 -1 0 0 0 0];

internalField   nonuniform List<vector> 
59516
(
(0.111089 0.000572088 -0.000572737)
(0.103218 3.5827e-05 -0.000303425)
(0.118158 -0.00161414 -6.32045e-05)
(0.131048 0.00223695 0.00158446)
(0.113986 0.000307751 -0.00436227)
(0.101097 -0.00485389 -0.0107943)
(0.132144 0.000128249 -0.00154964)
(0.108754 0.000922535 -6.04313e-05)
(0.117495 0.000844392 4.82152e-05)
(0.0607734 -0.000836299 0.00241544)
(0.147941 0.000475601 -0.00105232)
(0.0644812 0.000640258 -0.00310385)
(0.124888 0.00102296 -1.91712e-05)
(0.0223689 -8.24631e-05 -0.000241645)
(0.0670286 0.00178844 0.00314089)
(0.0571364 0.00364053 -0.00202865)
(0.156322 0.00058007 -0.000114405)
(0.0709813 0.00379533 -0.00376771)
(0.116474 0.00412467 0.0012032)
(0.154881 -0.000590348 0.000434105)
(0.0567142 0.000472387 -0.00069578)
(0.147398 4.22052e-05 0.000396008)
(0.151266 0.000674984 -1.15552e-06)
(0.0377712 -0.00114982 -0.000266459)
(0.155743 -0.000814748 0.00149679)
(0.0719173 0.00122681 0.000843892)
(0.0468936 0.00097227 -0.0027832)
(0.0456985 0.00360926 0.000455129)
(0.0688655 0.00187139 0.000227041)
(0.0199734 -0.00313672 0.00086081)
(0.108329 -0.0208526 -0.00456837)
(0.0469834 0.00346174 -0.00052953)
(0.134869 -7.82986e-05 0.000787193)
(0.116851 -0.000460175 0.00232095)
(0.137471 0.00229948 0.00209953)
(0.145613 -0.000481845 -7.30793e-05)
(0.0193895 -0.00183914 -0.00253612)
(0.0709092 0.00262773 -0.00639098)
(0.0993938 -0.00260682 -0.00016178)
(0.15193 -0.00233906 0.000853022)
(0.107621 -0.000889606 0.000236827)
(0.142806 -0.0061444 -0.00578696)
(0.146656 -0.00080557 -0.000357957)
(0.114641 -0.000803478 0.000262085)
(0.143663 -0.00130503 0.00036292)
(0.0607669 -0.000859167 -0.00140399)
(0.133907 -0.00096626 -0.00165107)
(0.154752 -0.000926748 -8.96466e-05)
(0.111814 -0.00887185 0.0123881)
(0.145995 0.00366181 0.00328713)
(0.104029 0.0104088 -0.0144813)
(0.0493144 -0.00354951 0.00226797)
(0.125482 0.00101127 -0.00194219)
(0.131341 -0.000256872 -0.000313202)
(0.0507897 0.0026333 -2.45189e-05)
(0.13116 0.000374379 -0.000319778)
(0.141749 0.0065622 0.00709851)
(0.0538232 0.00408671 -0.00266664)
(0.155979 -0.0011089 0.000161396)
(0.134019 0.00460792 0.00572533)
(0.146747 -4.24184e-05 0.00058831)
(0.0216114 0.00247863 -0.000929377)
(0.151242 -0.000626904 -0.000694669)
(0.152638 0.000552736 -0.00044043)
(0.129495 0.000597709 -0.000373841)
(0.143208 0.00178547 0.00189386)
(0.0298649 -0.00197852 0.00265484)
(0.0455692 0.000155998 -0.00014241)
(0.121224 -0.00486432 0.021919)
(0.136793 0.00130608 0.000382223)
(0.0412666 0.00113387 0.000314158)
(0.152093 0.000469301 -0.000419607)
(0.0261156 0.00165409 -0.0038947)
(0.141269 -0.000515427 -0.000385692)
(0.158636 -0.000907083 0.000340435)
(0.152683 0.000326071 0.000151952)
(0.15496 0.000298856 -0.000335171)
(0.145063 0.000327564 -0.00061729)
(0.0507832 -0.00171043 0.00144393)
(0.145864 0.00215969 0.00396771)
(0.0433871 0.00220931 0.000808896)
(0.142533 0.00241837 0.00277416)
(0.137795 0.0012652 0.00270003)
(0.0228858 -0.000907997 0.00310764)
(0.142713 0.00207046 0.00292843)
(0.156481 -0.000610399 0.000129511)
(0.0364376 -0.00128665 0.000607766)
(0.147909 4.00833e-05 0.000699551)
(0.0598505 0.00076738 0.00254898)
(0.107969 0.00780929 -0.00502234)
(0.131002 -0.000589574 -0.0101348)
(0.135971 0.00131235 -2.03959e-05)
(0.155586 -7.34946e-05 0.000283849)
(0.135409 0.000604059 -0.000290576)
(0.148124 -0.000434847 0.000109712)
(0.110004 -0.0103926 0.00408151)
(0.139445 -0.00088613 0.00135143)
(0.0582529 -0.0017514 -0.00426017)
(0.0670049 0.00200924 -0.000448491)
(0.145268 -0.000542468 0.0014144)
(0.0419999 0.000880157 0.00146778)
(0.0279151 0.00127306 -0.00319617)
(0.0261371 0.000987638 0.00363069)
(0.060142 -0.000930181 -0.0029057)
(0.137096 0.000657671 -0.000200472)
(0.141113 0.000357954 0.000692212)
(0.0449836 0.00367354 -0.00153826)
(0.111824 0.000274732 -0.000641421)
(0.107228 -0.000668587 -0.00029224)
(0.0721184 0.00044058 -0.00293506)
(0.124798 0.0123177 -0.0128345)
(0.0351118 0.00341572 -0.000294944)
(0.0724901 0.000754233 -0.00396651)
(0.118066 0.01673 -0.00837415)
(0.151806 -0.000260126 0.000330984)
(0.107648 0.00106934 0.000735962)
(0.059509 0.000501563 -0.0023156)
(0.13454 0.000398129 0.000878648)
(0.0244556 -0.000182985 0.00118628)
(0.14427 0.00183263 0.000356635)
(0.15811 -0.000111843 0.00010613)
(0.15375 0.000753323 0.000171513)
(0.152875 -0.000220111 0.000138712)
(0.152266 9.72276e-05 0.000318924)
(0.131988 -0.016152 0.00278661)
(0.0927445 0.000922035 -0.00173985)
(0.0331863 -0.000529799 0.0022483)
(0.137793 -0.0111734 -0.000567516)
(0.0898991 -0.00270579 0.0130508)
(0.156309 0.000548733 0.000557895)
(0.156399 0.000499699 0.0013013)
(0.119224 0.00142509 0.00202911)
(0.0261972 0.00137676 -0.0018361)
(0.146642 -0.000114647 0.000743825)
(0.108221 0.00083911 0.000381637)
(0.122555 -0.00115602 -0.00153238)
(0.107845 0.0122687 -0.00862384)
(0.13422 -0.000437333 0.000609594)
(0.0444512 0.00287193 9.84074e-05)
(0.104943 0.000751869 -0.00141584)
(0.0492202 -0.000937795 -0.0023804)
(0.158125 0.000116021 -0.000194782)
(0.0208361 0.000989576 0.00189254)
(0.129705 -0.00134063 -0.000513422)
(0.154405 0.000360859 2.80715e-05)
(0.14007 0.00147755 -0.000160424)
(0.141273 -0.00189872 -0.000116794)
(0.122732 0.00037811 -0.00181042)
(0.0621799 -0.00102786 0.00176459)
(0.112581 -0.000614914 -0.000884099)
(0.110275 -0.000237483 -0.000794477)
(0.0398085 -0.00139317 5.97683e-05)
(0.155361 -0.000549959 0.00111813)
(0.149944 -0.0003775 0.00114018)
(0.0961372 -0.000628761 0.00173105)
(0.0213772 -0.000523801 0.00232102)
(0.119998 0.000456266 -0.000235324)
(0.119412 0.000990348 -0.000273399)
(0.0890057 0.00125354 2.18262e-05)
(0.0218758 0.00253762 -0.00296138)
(0.0699932 0.00155773 -0.00329129)
(0.0720615 -0.00355445 -0.00228141)
(0.0389938 -0.001891 0.000400522)
(0.0286938 -0.00019793 -0.000564031)
(0.107057 0.00148883 0.00222949)
(0.157755 0.000321983 0.000977777)
(0.066997 -0.000457745 0.000430204)
(0.155743 0.000532586 1.80615e-05)
(0.0219527 -0.00126822 0.00258547)
(0.134005 -0.000257279 0.000350874)
(0.0902435 0.00136789 0.00119954)
(0.056736 0.000780671 -0.000733023)
(0.0698486 0.00180121 0.0010253)
(0.137423 -0.000870776 0.000833046)
(0.0549826 -0.00099703 0.00033646)
(0.135866 -5.09419e-06 -0.00227112)
(0.154072 0.000127984 -0.000939698)
(0.147943 -0.00207211 -0.00108779)
(0.0730664 -0.00107664 0.0037451)
(0.0451441 -0.00026356 -0.000371916)
(0.143786 0.00155217 0.00115438)
(0.0371491 -0.00304061 -0.00131619)
(0.0322274 -0.000346769 -0.00250909)
(0.0699138 -0.00193192 2.75337e-05)
(0.15563 -0.000112402 0.00102272)
(0.0638326 0.000325658 0.000705071)
(0.039118 -0.000774651 -0.00287086)
(0.0259495 7.84943e-06 0.00033963)
(0.125956 0.00015919 0.000409735)
(0.106723 -0.00148332 1.86596e-05)
(0.135199 -0.000860405 0.0025921)
(0.0569026 0.00323289 0.000196395)
(0.153033 -0.000447778 -0.00013044)
(0.0620822 0.00267197 -0.000143506)
(0.149979 -0.00061424 -0.000182163)
(0.0323719 -0.000268102 0.000837323)
(0.0622306 0.000744842 -0.000403553)
(0.0450588 -0.000987628 0.000319215)
(0.115794 0.00267296 0.0034744)
(0.148881 0.000156489 0.00032315)
(0.0871861 -0.00269457 0.000448031)
(0.156651 -9.3808e-05 -0.000260382)
(0.109344 -0.00051029 0.000880052)
(0.0216646 0.002424 -0.00144406)
(0.133077 -0.00177171 -0.000571868)
(0.143816 -0.000163563 -4.18794e-05)
(0.156899 -0.000231978 -6.77433e-06)
(0.144471 -5.67177e-05 0.000112219)
(0.0252492 -0.000667108 0.000218967)
(0.119338 -0.00174496 -8.47782e-05)
(0.0552934 0.00365726 0.00298963)
(0.0249156 -0.00401883 -0.000618043)
(0.143767 0.000454999 -0.00131809)
(0.0609524 -0.00105051 0.00100489)
(0.12159 0.000902291 -0.000128337)
(0.156253 -0.000825268 0.00061831)
(0.138776 0.000931785 0.000157418)
(0.152225 -0.000875916 0.000442884)
(0.0591979 0.00238849 -0.00272727)
(0.151453 -0.000699428 0.000319452)
(0.0606291 0.00256672 0.00167688)
(0.108606 0.000899043 -9.97994e-05)
(0.151128 0.000809324 0.00127542)
(0.0447565 -0.000117529 0.00098585)
(0.152418 -0.00148715 0.000693922)
(0.15451 0.000213842 -0.000770141)
(0.0308344 -0.000337244 0.00165461)
(0.0514087 0.00167477 -0.00231713)
(0.15378 -0.000450217 0.00130608)
(0.0596174 0.000132919 -0.00400808)
(0.157051 -0.00101567 0.000361091)
(0.154808 0.000672514 -0.000646539)
(0.154432 0.000326146 0.00138375)
(0.0278693 -0.00218784 -0.00150254)
(0.0362199 0.000999726 -0.00169625)
(0.0378191 0.00102798 -0.00131583)
(0.0687176 0.0003388 0.00080133)
(0.103503 -0.00163831 0.00070539)
(0.148094 0.000465259 0.00147875)
(0.0622331 -0.00103954 0.00130174)
(0.155894 9.59722e-05 0.00114726)
(0.0228967 0.000533988 0.00328597)
(0.0588773 -2.30155e-05 0.000773)
(0.028025 0.00026706 0.00303556)
(0.155417 0.000619401 0.000603689)
(0.0996506 -0.000442856 -0.000571414)
(0.142162 -9.86574e-05 0.000642475)
(0.0710274 0.000262175 -0.00115185)
(0.156251 -0.00036084 0.000734316)
(0.110163 0.000218271 0.000299337)
(0.155215 -0.00203619 0.00133301)
(0.139567 3.33521e-05 0.000860639)
(0.155396 0.000301608 0.00112364)
(0.1425 0.000402611 -0.000216698)
(0.143527 0.00109858 0.000516797)
(0.149877 0.000344148 0.000468584)
(0.060442 0.000224735 -8.99499e-05)
(0.147361 0.000199527 0.00136353)
(0.0465286 -0.000315997 -0.00256147)
(0.064839 0.000580981 0.00213244)
(0.133646 0.000864532 -0.000570615)
(0.151392 -0.00120274 0.0010125)
(0.120151 0.00194288 0.00158985)
(0.156229 -0.000921886 0.00110086)
(0.10528 -0.00024528 0.00224141)
(0.0634205 0.00258635 -0.00136727)
(0.151702 0.000621093 -0.000794701)
(0.0997581 0.00168967 0.000599667)
(0.0509156 -0.000851599 -0.000964906)
(0.0567642 -8.77935e-05 -0.0015351)
(0.102337 0.000312174 -0.0024015)
(0.153776 -0.000871783 -0.000389237)
(0.105822 -0.0020603 0.000108111)
(0.100491 -0.000999044 0.0008724)
(0.152867 -0.00168385 0.00045886)
(0.099519 -0.000469608 0.00279221)
(0.0239166 0.00278181 -0.00168051)
(0.153167 -0.000857403 0.00121848)
(0.0285301 0.00186546 -0.00235129)
(0.0450735 -0.00174525 0.00105281)
(0.154024 -0.000108299 0.00133397)
(0.140185 -0.000764867 8.12041e-05)
(0.0280124 0.00283595 0.00310708)
(0.126081 0.000782757 -0.000192803)
(0.130178 0.00185189 -9.25095e-05)
(0.153921 0.000796206 -0.000139471)
(0.154886 -0.000419692 0.00029957)
(0.0274686 0.00317905 0.000767162)
(0.154264 -0.000786138 0.0011386)
(0.153867 -0.001771 -3.27447e-05)
(0.15336 -0.000163836 0.00135123)
(0.136017 -0.000208677 0.00127594)
(0.135489 0.00110693 0.00109036)
(0.101921 0.000486977 -0.000385816)
(0.157904 0.000764616 0.0002755)
(0.0316042 -0.00116014 -0.00138488)
(0.148973 -0.00205375 0.000260329)
(0.141397 -0.00139297 -0.000797734)
(0.15563 -0.00136981 0.000848983)
(0.150713 -0.00161668 0.000150203)
(0.122304 -0.000991625 0.000173646)
(0.0657787 0.000868793 0.00122555)
(0.0258447 -0.000317763 0.0018708)
(0.032049 -0.00089226 0.000586517)
(0.15681 -0.00171526 -5.73953e-05)
(0.0234105 -0.00145099 0.00328678)
(0.0692234 -0.000261686 -0.00113621)
(0.056892 0.00299457 0.0010632)
(0.154558 -0.00118147 0.00049068)
(0.158725 0.00021743 -0.000561571)
(0.151592 -0.000589282 -0.000108024)
(0.0642997 -0.000405377 -0.00138374)
(0.109009 0.00105376 -0.00193748)
(0.044802 -0.00351565 0.0029709)
(0.0582092 0.00097128 0.00191448)
(0.147039 -0.000986873 -0.000130027)
(0.105156 0.00148335 -0.000830008)
(0.107706 0.0123076 0.00360829)
(0.095673 -0.0019613 0.000909488)
(0.0483144 -0.000288066 -0.000486866)
(0.0700745 -0.00094752 0.00186775)
(0.113503 -0.000376219 -0.0015271)
(0.156774 8.42385e-05 -8.72438e-05)
(0.157813 0.000598797 0.000339314)
(0.157021 -3.81706e-05 0.00134527)
(0.15404 -0.00183738 0.000336808)
(0.0985859 0.00285224 0.00399056)
(0.129239 0.00130813 0.000402002)
(0.150975 0.00155279 -8.88597e-06)
(0.151737 7.08429e-05 0.000113237)
(0.153768 -0.000355234 0.000795776)
(0.0615912 0.00146642 -0.00333562)
(0.0250254 -0.00161137 -0.00305913)
(0.146231 -0.000333446 0.000480235)
(0.0445042 -0.00193384 0.00226399)
(0.0357667 0.00030167 -5.70436e-05)
(0.150283 6.08842e-05 0.00156072)
(0.144746 -0.000532723 0.000611755)
(0.0621802 -0.00161164 -0.00231069)
(0.154371 -0.000795634 0.000789963)
(0.155196 -0.00141147 0.000269378)
(0.156848 -0.000534226 -0.000831404)
(0.156298 0.00015439 -0.000396429)
(0.0367037 0.00143719 -5.66301e-05)
(0.153719 0.0003295 -0.000542521)
(0.154248 -0.00111731 0.000709186)
(0.0637745 -0.000115928 0.000847022)
(0.155267 -0.000374607 0.00155721)
(0.15458 9.78811e-05 0.000259494)
(0.134013 -2.65789e-05 -0.000918598)
(0.125972 -1.14687e-05 -0.000462772)
(0.145292 -0.000392119 0.00102505)
(0.142755 -0.00128566 0.000320582)
(0.0761831 -0.000406527 -0.00027398)
(0.0354003 0.00135484 -0.00112353)
(0.0391704 -0.00266427 -0.000441781)
(0.102405 0.000531848 0.000605063)
(0.0864994 -0.00644721 0.0104232)
(0.0747375 -0.00416131 -0.00599255)
(0.090496 0.000322989 3.22762e-06)
(0.120425 0.000109395 0.0018044)
(0.133442 0.000255516 0.000214767)
(0.149994 0.000101258 0.00224163)
(0.153116 0.000510039 0.000621352)
(0.135505 -0.000638319 5.2493e-05)
(0.144999 0.00060824 0.000495393)
(0.144351 0.00122659 0.000417614)
(0.0349456 -0.000842301 -0.000392773)
(0.113844 -0.0221813 0.0028092)
(0.0638098 0.00180583 0.000739673)
(0.0464612 -0.00203575 -0.000589227)
(0.0469433 0.000604864 0.000340148)
(0.152088 0.000386579 0.000207044)
(0.100698 -0.000182725 0.000258459)
(0.153188 0.000539053 -0.000447914)
(0.0223159 0.00133003 -0.0019367)
(0.129654 -0.000262614 0.000202978)
(0.0497491 0.00118005 -0.000741108)
(0.153212 -0.000955727 -0.00010034)
(0.0530065 -0.000753647 -0.000453937)
(0.0670673 -0.00141539 0.00138871)
(0.114135 -0.00225365 0.000906857)
(0.146255 6.09122e-05 0.00131307)
(0.0225931 0.00191947 -0.0024059)
(0.0598746 -0.000482909 0.00281243)
(0.134443 0.000282902 0.000605488)
(0.0265957 -0.00162755 -0.00184912)
(0.130477 0.00119731 0.00672059)
(0.120671 -0.00044438 0.00222099)
(0.134473 0.000407555 -0.00148503)
(0.101318 0.00220774 -0.00226216)
(0.0950665 -0.000917065 0.0018955)
(0.154496 0.00162373 -0.000246985)
(0.0774683 -0.00762347 -0.00712672)
(0.157361 0.00161017 0.000492584)
(0.111381 0.00798363 0.00866671)
(0.0657609 -0.00267972 0.000460998)
(0.068682 -0.000213488 -0.00136301)
(0.157935 0.000982457 0.000341977)
(0.15986 0.00151872 0.000451355)
(0.0577152 -0.000513833 0.000493772)
(0.137769 0.000578507 -0.000454734)
(0.105013 -0.000676542 -0.00219306)
(0.156813 -0.00067761 0.000712061)
(0.156312 -0.000453281 0.00108439)
(0.051504 0.00139786 -0.00355348)
(0.135178 -0.000745902 -0.000230055)
(0.144416 -0.00126554 0.00104493)
(0.146515 0.000174953 -0.000126773)
(0.151527 8.47889e-06 0.000210467)
(0.0246729 -0.000796182 -0.0029998)
(0.0236737 0.00116548 -0.00296511)
(0.129716 0.00077917 -0.00148654)
(0.156614 0.000282803 -0.000102471)
(0.15702 -0.00115144 -0.000970529)
(0.0391446 0.000476731 -0.00265669)
(0.152523 -0.000774739 0.00045361)
(0.114265 -0.00101825 1.45085e-05)
(0.152278 0.000630786 0.000914155)
(0.15799 0.00147316 0.000115854)
(0.157704 0.000629102 -6.84912e-05)
(0.156272 0.00138558 0.000835534)
(0.156784 0.00175203 0.000868995)
(0.0963078 0.000380919 6.57887e-05)
(0.155772 0.00173988 0.000223109)
(0.0616821 -0.00113666 -0.00302806)
(0.153636 -0.000637228 -0.000148975)
(0.115963 -0.000216967 -0.00137564)
(0.146273 0.00132963 0.000324225)
(0.155402 0.000524456 -0.000208618)
(0.147401 -6.08081e-05 -0.000205413)
(0.142641 0.00125276 -0.000294447)
(0.0449628 0.00258443 0.00220166)
(0.038366 0.00080532 0.000393978)
(0.0239987 0.00204795 -0.00248099)
(0.146833 0.0029156 0.00476969)
(0.160783 4.04427e-05 1.38013e-05)
(0.137594 -0.000622045 0.000323753)
(0.130563 0.00178513 0.000713567)
(0.0347889 -7.63273e-05 0.00112985)
(0.0265893 -0.000556911 0.00297843)
(0.120332 6.5384e-06 0.00166351)
(0.145202 -0.000316047 0.00111336)
(0.155768 0.000212416 0.000711373)
(0.150798 0.000843875 -0.000260972)
(0.138333 -0.00044127 -0.00129087)
(0.158503 0.00110902 -0.000182189)
(0.136967 0.00107941 0.000190592)
(0.0297112 -0.000680975 0.00289968)
(0.127222 -0.000693681 0.000163361)
(0.0636939 0.000649383 0.00308812)
(0.0706291 -0.00696738 0.00149269)
(0.147124 0.000134329 -0.000450599)
(0.101668 0.000187218 0.000210538)
(0.144132 0.000506393 -0.000287882)
(0.0234288 -0.00423299 -0.00170884)
(0.159242 0.00190351 0.000161501)
(0.157695 -5.53234e-05 -8.15168e-05)
(0.154943 0.00149833 0.000372181)
(0.0993673 0.000971536 0.000288502)
(0.146364 0.000293214 0.000733069)
(0.154031 0.000777238 0.000842543)
(0.124375 0.000387046 -0.000142492)
(0.154969 0.000814213 0.000362822)
(0.101116 0.0032551 -0.00205972)
(0.155749 -0.000120713 3.2115e-05)
(0.146734 -0.00197819 -0.000559239)
(0.0232094 -0.00161237 0.00159934)
(0.15705 -0.000529156 -0.000995852)
(0.12077 0.00152573 -0.000246285)
(0.0514483 -0.00149552 0.00391531)
(0.0982827 0.000566943 -0.00160977)
(0.154046 -2.60328e-05 -0.000909369)
(0.133009 -0.000215786 0.000431307)
(0.0919865 0.000121297 -0.00246224)
(0.0230007 -0.00197134 -0.00233749)
(0.156918 -0.000783398 -0.000650708)
(0.12866 0.00177759 -0.00137531)
(0.152947 -0.000342813 3.17298e-05)
(0.128248 0.000275498 0.000698223)
(0.0412007 0.00182247 0.00179515)
(0.140335 0.000130768 -0.000627592)
(0.0271749 0.00231242 -0.00329474)
(0.151779 0.000256646 -0.000205558)
(0.10227 0.0113688 -0.00363523)
(0.153698 3.88886e-05 -0.000320927)
(0.0569018 -0.000164327 0.00193638)
(0.112835 -0.00117941 -0.00170978)
(0.101709 0.000546621 -0.0015941)
(0.0386442 0.00246197 0.0018599)
(0.154363 0.000529552 0.000348698)
(0.151138 0.00104255 0.000440965)
(0.0249058 0.000967773 0.00246386)
(0.14973 -0.00160902 3.78281e-05)
(0.154437 -0.00164344 0.000607341)
(0.0412541 -0.000120625 -0.00212773)
(0.067107 0.00291949 8.6088e-05)
(0.0589957 0.00180278 0.00151093)
(0.14725 0.00113045 0.000632504)
(0.154436 -0.000888989 0.000299347)
(0.0335954 -0.000772646 0.00153924)
(0.059643 -0.00181068 -0.000675453)
(0.062078 0.00135979 3.23957e-06)
(0.119711 0.00159621 0.000436738)
(0.154631 -0.000991701 0.000421535)
(0.0257925 0.00124491 -0.0034277)
(0.153118 -0.00138893 0.000754151)
(0.147699 0.00113771 -5.29486e-05)
(0.155349 0.000620583 0.000929891)
(0.0901008 0.00386706 -0.00371871)
(0.157256 0.00112291 0.000252025)
(0.0255186 -0.000154268 -0.00269284)
(0.15387 -0.000911317 -0.00016314)
(0.0301112 -0.000557756 -6.98897e-05)
(0.0629963 -0.00214239 -2.0595e-06)
(0.149402 -0.000448398 0.000223994)
(0.0657025 -0.00198515 -0.000543273)
(0.0231534 0.00274593 0.00252154)
(0.0409486 0.000752894 -0.00144331)
(0.050069 -0.00266277 0.00154459)
(0.0639238 0.00129787 -0.00168212)
(0.145032 -0.000369642 -0.00071214)
(0.0545766 -0.00121603 -2.88348e-05)
(0.0648015 0.0019903 -0.0012878)
(0.12784 -0.00637188 -0.0128181)
(0.152019 0.00102142 0.000439779)
(0.0266305 0.00168447 0.000184779)
(0.112683 -0.000173888 -0.000965221)
(0.0816431 0.00853409 -0.00319295)
(0.1551 -0.00179557 -0.000416411)
(0.0629186 -0.0001628 -0.00141532)
(0.150414 0.0012796 0.000534252)
(0.0625703 -0.00277625 -0.00155789)
(0.125671 0.000308454 0.000751072)
(0.155824 0.00109432 -0.000426523)
(0.0560666 0.00278266 -0.00487634)
(0.157706 9.92368e-05 0.000120817)
(0.0481155 0.0019572 0.00243592)
(0.0215747 0.00327109 0.0012807)
(0.143006 0.000391308 0.000215859)
(0.154781 0.00109071 0.00017918)
(0.131797 0.00078266 4.34028e-06)
(0.128628 0.00179879 -0.000681432)
(0.156711 -0.00183369 0.000318223)
(0.0654683 0.00156587 -0.000370614)
(0.154729 -0.00183736 0.000136613)
(0.0612143 -0.00177641 0.00261211)
(0.155692 0.00105418 -0.000278516)
(0.129685 -0.00155614 -0.00117749)
(0.0313979 0.000730464 -0.00433695)
(0.15047 -0.000318435 -0.000686)
(0.0574284 0.000145694 0.00188341)
(0.0292349 -0.00217904 -0.00201426)
(0.148627 -0.000120647 -0.000157034)
(0.0472469 -0.00120653 0.0010374)
(0.137321 0.000509972 0.000150244)
(0.153588 0.000467498 0.000520961)
(0.131958 0.00123064 0.000993196)
(0.0585837 -0.00234572 -0.00278226)
(0.159228 0.00133238 0.000182831)
(0.096037 -0.00111211 0.00106997)
(0.160853 7.85743e-05 0.00075098)
(0.158742 0.00045867 -0.000382656)
(0.158757 0.00119557 0.000486965)
(0.154926 0.00099736 0.000151895)
(0.0485276 -0.00260371 -0.0019653)
(0.0560518 0.000161389 -0.000791208)
(0.156993 0.000924849 -0.000136743)
(0.152976 0.00115947 0.00084995)
(0.0354507 -0.00235839 -0.00120816)
(0.150921 0.000390103 -0.000114751)
(0.160641 3.99478e-05 0.000538272)
(0.158027 -0.00167788 -0.000402196)
(0.158062 -0.00175038 -0.000433353)
(0.121412 -0.000370051 -0.000992106)
(0.0236751 0.0022498 0.00214931)
(0.159906 0.000445376 0.00022842)
(0.104918 -0.00114641 -0.00181686)
(0.144037 -0.000566133 0.000189265)
(0.101542 -3.90506e-05 -2.20892e-05)
(0.0327509 0.00244093 -0.00042423)
(0.154349 0.00113307 0.000102906)
(0.0969445 0.00192887 0.00168015)
(0.136135 -0.000657925 -0.00012592)
(0.157303 -0.001896 -0.000257616)
(0.140068 -0.00145739 -0.000485544)
(0.0191645 0.00160752 -0.00232374)
(0.0246426 -0.00147267 -0.0024671)
(0.152642 -0.00164742 -0.000185824)
(0.150678 -0.000220115 0.000165116)
(0.156761 0.00139008 0.000752098)
(0.144676 0.000493422 0.000716015)
(0.0972493 -0.00134743 0.000582796)
(0.145915 -0.00126643 -0.000399265)
(0.156315 0.000357383 -5.09599e-05)
(0.0225851 0.00184842 0.000411469)
(0.152791 -0.00172505 5.95943e-06)
(0.134684 -0.0128516 -5.29112e-05)
(0.0417394 -0.000617302 0.00207699)
(0.058825 -0.00375312 0.0009472)
(0.144617 -0.000886438 -0.00094988)
(0.141593 -0.00160206 0.000274569)
(0.138707 0.000812562 -0.00054712)
(0.128859 -0.000671975 0.000297997)
(0.110913 -0.00343718 0.00104205)
(0.157343 0.000172638 -0.000336934)
(0.103713 0.0014099 -0.00273379)
(0.159147 0.00170694 5.11105e-05)
(0.153812 -0.000493678 -0.000387411)
(0.159063 -0.0018311 0.00125944)
(0.153772 -0.00168021 -0.000124371)
(0.044063 -0.000736506 0.00221477)
(0.154175 -0.00118127 0.000195626)
(0.0359687 0.00095756 -0.00137337)
(0.0944814 -0.00911618 0.00539705)
(0.0647309 0.00177871 0.00164199)
(0.126892 -0.00223509 -0.0119691)
(0.133362 -0.000846369 -5.31655e-05)
(0.11751 -0.0185 -0.0040568)
(0.152937 -9.7717e-05 -0.000198777)
(0.15971 0.000117241 0.000123697)
(0.147735 0.000430076 -0.000325162)
(0.153456 -8.80455e-05 0.00134482)
(0.0373259 0.000199402 -0.000516885)
(0.100944 -0.00383119 -0.00255944)
(0.112413 -0.00208027 -0.0158498)
(0.154587 0.000263213 0.000144738)
(0.117647 -0.00258974 -0.000308658)
(0.13634 -0.0114585 -0.00392655)
(0.149868 -0.00108235 0.00266323)
(0.116783 0.00106785 0.000518414)
(0.0387036 -0.000813421 0.00122652)
(0.0580502 -0.00254133 0.00180019)
(0.0270451 2.0926e-06 -0.000191574)
(0.0256607 0.000112744 -0.00199303)
(0.0376695 -0.000269253 0.000205575)
(0.134298 -0.00631311 0.0044831)
(0.138159 0.000118189 0.00055561)
(0.0261352 -0.000728472 0.00366525)
(0.0245239 0.00178686 0.00282871)
(0.156315 0.00104907 -4.8383e-05)
(0.0962802 -0.0124352 0.00846095)
(0.0402774 0.00164022 0.000775653)
(0.145588 0.000370318 -6.30718e-05)
(0.111479 -0.00101439 -0.00159048)
(0.136229 4.04926e-05 0.00107285)
(0.045437 0.00220595 -0.00125758)
(0.058004 0.00164921 -0.000659128)
(0.11644 -0.00103549 0.000123481)
(0.153762 0.000463362 -0.000220319)
(0.147346 0.000660671 -0.000621246)
(0.0393385 0.00334788 -0.00119733)
(0.0261555 -0.00190133 0.00134627)
(0.106237 -0.0151708 -0.0112162)
(0.0278981 -0.00353271 -8.91732e-05)
(0.136019 -0.000985483 -0.00118653)
(0.0298348 0.00152059 -0.00378605)
(0.110004 -0.000550947 0.00226589)
(0.154806 -0.000518017 -0.000104414)
(0.161133 -0.000966383 0.000871416)
(0.0472661 0.000510815 -0.00100428)
(0.103936 -0.000640338 -0.00106463)
(0.0381185 0.00139984 -0.0014234)
(0.0307032 0.0036027 -0.00138491)
(0.155069 -0.000166038 -0.000815077)
(0.0207836 -0.00167799 -0.00279343)
(0.151373 -0.00188737 -6.10347e-05)
(0.0517595 0.000939809 -0.00236963)
(0.149235 -0.000689428 -0.000104833)
(0.141166 -0.000359928 -0.000214306)
(0.0238255 -0.000590867 0.00368107)
(0.0601737 -0.00278171 0.00013683)
(0.144832 0.000298526 4.6497e-05)
(0.0367973 -0.00168416 0.000107471)
(0.148219 -0.000885894 -0.00034827)
(0.0579101 -0.0021548 0.00353104)
(0.114066 0.000202477 -0.000330192)
(0.156141 -0.00024236 -0.00102567)
(0.0393951 0.00104714 0.000930456)
(0.0254106 0.00104897 -0.00332558)
(0.0542934 0.00100091 -0.000188364)
(0.110752 0.0173147 0.0038186)
(0.111166 0.000540006 0.000335515)
(0.0601233 -0.00225782 0.00291575)
(0.091463 0.000205752 0.00160001)
(0.0330892 -0.00124625 0.000802356)
(0.15609 -0.00011473 -0.00106884)
(0.025324 -0.000406973 -0.00161717)
(0.157274 -0.00187176 0.000237609)
(0.145356 -0.000957149 0.000573695)
(0.154175 -0.000525956 0.000321397)
(0.0210567 0.00219071 8.56201e-05)
(0.148204 -0.00132632 0.000426548)
(0.087361 0.000448644 -0.000363568)
(0.15074 0.000874183 0.000455181)
(0.0579693 -0.000338606 -0.000126917)
(0.108104 -0.0129802 0.00672366)
(0.15338 -0.0015769 0.00013676)
(0.0437422 0.000349028 -0.000372149)
(0.157 0.000298109 0.000148523)
(0.108836 0.00197364 -0.0204091)
(0.121896 0.000283734 -0.000462339)
(0.0352439 0.000933625 -0.00187765)
(0.0547969 -0.00060773 -0.00270832)
(0.155765 -9.61769e-05 0.000162541)
(0.135067 0.00131121 -0.000296591)
(0.0348506 0.00207902 0.000660544)
(0.114892 0.00110387 -0.00126818)
(0.0641441 -0.00110441 -0.00179378)
(0.0267684 -0.00240758 0.00151358)
(0.155907 0.000115726 -1.70842e-05)
(0.103313 -0.00130351 0.0101117)
(0.134631 0.00164917 -0.00191692)
(0.155048 -9.86713e-05 0.000191061)
(0.155475 5.002e-06 0.000581506)
(0.153138 -0.000273964 -0.000688839)
(0.136003 0.000698567 0.000728772)
(0.0470329 0.00124232 0.000537145)
(0.0433321 -0.0023021 -0.00201144)
(0.158998 0.00165423 0.000198658)
(0.107542 -0.00935836 0.00878045)
(0.12627 -0.00103055 0.000515696)
(0.133033 -0.000978075 0.000208116)
(0.0871262 0.0017704 0.000919969)
(0.146163 1.74615e-05 0.000220456)
(0.152229 0.00044273 -0.000507949)
(0.105425 -0.000635707 -0.0013523)
(0.110114 0.00195881 0.00029265)
(0.0399433 2.00607e-05 -0.00253726)
(0.0764736 0.000628076 -0.000602555)
(0.0477986 -0.00102755 -0.00317454)
(0.146561 4.32284e-05 0.000890652)
(0.156494 -0.000431382 0.000409189)
(0.100717 0.00111757 -0.00264495)
(0.10366 0.000666634 -0.000509477)
(0.0227663 0.00241473 -0.000385399)
(0.0849293 -0.000630175 -0.000713568)
(0.0621706 -0.0022049 -0.00268266)
(0.155663 -5.33305e-05 -0.000902348)
(0.155954 -0.000699836 -0.000826628)
(0.104803 -0.00956858 0.0060891)
(0.149848 -0.000446812 0.0010977)
(0.0873841 -0.00250193 -0.00197494)
(0.101693 -0.00254251 0.00795268)
(0.135499 -0.000401002 0.00191511)
(0.0292579 -0.00240846 1.96805e-05)
(0.155908 -0.00045521 -0.000770386)
(0.0538587 0.00152476 -9.07007e-05)
(0.138546 -0.000374939 0.000907879)
(0.0310109 0.00434511 -0.000105299)
(0.156751 0.00127304 -0.0011239)
(0.101644 -0.00435549 0.00270741)
(0.150162 4.38835e-05 -0.000317201)
(0.120931 0.000603674 2.388e-05)
(0.143726 0.000184662 3.41271e-05)
(0.147232 0.000182036 0.000143884)
(0.156364 -0.000201323 -0.000588457)
(0.03751 -0.00213109 -0.000106373)
(0.0512826 0.000812545 -0.00129752)
(0.0313351 -0.000775363 -0.00030421)
(0.154408 -8.20487e-05 0.000570827)
(0.148698 0.000179062 -0.000912681)
(0.137019 0.00167988 -0.000630463)
(0.153225 0.00060224 -0.000120824)
(0.0226416 0.000444619 0.000595997)
(0.103981 0.000103082 -7.83738e-05)
(0.0950031 0.000746345 -0.00190737)
(0.155104 -0.00018558 0.000375774)
(0.130234 -0.0010225 -0.000463215)
(0.142489 -0.000180579 -0.000209892)
(0.110449 -0.000354506 0.00149982)
(0.155208 -0.000100381 0.000543531)
(0.0224922 -0.00257666 -0.00274384)
(0.0909296 -0.00338128 0.000456542)
(0.146029 1.08333e-05 0.000371063)
(0.0287533 -0.00234812 0.00218435)
(0.0475847 -0.000700994 -0.00215874)
(0.0660881 -0.00126249 0.000440712)
(0.0238149 0.00140862 -0.00258489)
(0.10071 0.000283582 -0.00116034)
(0.153639 0.00107738 -6.63316e-05)
(0.0636493 -0.00181775 -0.00156409)
(0.021147 -0.00275488 -0.00179666)
(0.110946 0.000372965 -0.000914961)
(0.0276051 0.000228019 0.000432996)
(0.104744 0.00146038 -0.000641163)
(0.154213 7.39351e-05 -0.000101464)
(0.156108 -3.14475e-05 -0.000388168)
(0.154405 0.000274805 -0.000433788)
(0.153865 0.00144495 -0.00083239)
(0.154233 0.000145787 -0.000188149)
(0.132654 0.000582653 0.00122271)
(0.0504195 0.00117894 -0.00114715)
(0.154676 0.000610922 0.000848989)
(0.12889 -6.23664e-05 0.000789663)
(0.0939549 0.0005864 -0.00145381)
(0.10092 -0.000948014 0.00107323)
(0.151339 -2.24329e-05 -0.0001388)
(0.120972 -0.0013644 -0.000387213)
(0.0707515 0.000101831 0.00182077)
(0.149049 -0.000377661 0.000750566)
(0.0363346 0.00117023 0.000392434)
(0.0935645 3.84988e-05 0.000857578)
(0.10147 -0.000281043 0.000484934)
(0.0658178 0.000139962 0.0010926)
(0.15185 -0.000102648 0.000322459)
(0.105988 -0.0124133 0.0133725)
(0.126948 0.0064957 0.00455001)
(0.0361542 0.000621526 -0.00308449)
(0.0291558 -0.00204105 0.00103785)
(0.0602527 0.00220831 -0.00113746)
(0.0225106 -0.00136829 -0.00183825)
(0.128871 0.000195374 -0.000298901)
(0.145155 0.00155144 -0.000488532)
(0.131818 0.00174159 -0.000187199)
(0.110581 0.00961694 -0.0110035)
(0.132533 0.000564425 0.000104771)
(0.141096 0.00131091 -0.000225804)
(0.0276892 -0.00210642 0.00513823)
(0.146675 0.00125845 -7.47641e-05)
(0.126963 -0.00350571 0.0120304)
(0.0480687 0.000827821 -0.00122759)
(0.0245406 -0.00391982 0.000938521)
(0.119257 8.91887e-05 0.00109482)
(0.116491 -0.000896736 -0.000973914)
(0.0283049 -0.00195731 0.00326669)
(0.153683 -0.00112066 -0.000314586)
(0.0256624 -0.00277613 0.00203123)
(0.155942 -0.000983308 -0.000340933)