/*--------------------------------*- C++ -*----------------------------------*\
| =========                 |                                                 |
| \\      /  F ield         | OpenFOAM: The Open Source CFD Toolbox           |
|  \\    /   O peration     | Version:  2406                                  |
|   \\  /    A nd           | Website:  www.openfoam.com                      |
|    \\/     M anipulation  |                                                 |
\*---------------------------------------------------------------------------*/
FoamFile
{
    version     2.0;
    format      ascii;
    arch        "LSB;label=32;scalar=64";
    class       volScalarField;
    location    "38";
    object      epsilon;
}
// * * * * * * * * * * * * * * * * * * * * * * * * * * * * * * * * * * * * * //

dimensions      [0 2 -3 0 0 0 0];

internalField   nonuniform List<scalar> 
59516
(
0.0135655
0.0129058
0.0103849
0.00967368
0.00935694
0.345231
0.00918118
0.0124907
0.0111929
0.0271526
0.00789326
0.0272545
0.010663
0.0853145
0.0233779
0.0272934
0.00654296
0.0391945
0.0144439
0.00630446
0.0348181
0.00734377
0.00692082
0.0377781
0.00638434
0.0210449
0.0371952
0.0448187
0.0246533
0.0650977
0.0458675
0.0401795
0.00843958
0.0115636
0.00992445
0.00722946
0.0624636
0.0448903
0.0175431
0.00654597
0.0127249
0.00999509
0.00822871
0.0141695
0.00819985
0.0279275
0.0101153
0.00714024
0.012689
0.00877184
0.0271267
0.0308431
0.00983894
0.00964454
0.0288111
0.0105464
0.00996613
0.0324293
0.00650305
0.0117326
0.0073535
0.04949
0.00684541
0.00683467
0.00956284
0.00851824
0.0624292
0.0308887
0.0201048
0.00923646
0.0302295
0.00696555
0.0492074
0.00822102
0.00611037
0.00716136
0.00701612
0.00746744
0.0284536
0.00878401
0.0358872
0.00906035
0.00981617
0.0546765
0.00922607
0.00629993
0.0382704
0.00695689
0.0256504
0.0261663
0.0101722
0.00868439
0.00603668
0.00882403
0.0071945
0.0107156
0.00843072
0.0284984
0.0316262
0.00760208
0.0311238
0.0478522
0.0475314
0.0251933
0.00859344
0.00813263
0.0352441
0.0122729
0.013229
0.0204487
0.0200336
0.0264159
0.0223542
0.0302721
0.00655869
0.0148609
0.0244182
0.00914213
0.045856
0.00756186
0.00627462
0.00709469
0.00665148
0.00700992
0.0156591
0.0200689
0.0458105
0.0130194
0.0818813
0.00601555
0.00613581
0.011259
0.0463393
0.00687329
0.0130295
0.0102262
0.0368377
0.00816141
0.0327198
0.0145901
0.0292682
0.00602334
0.0624058
0.00987446
0.00655155
0.0076744
0.00882187
0.0115014
0.252978
0.0116486
0.0138401
0.0354455
0.00600759
0.00678607
0.0157675
0.0702736
0.0106776
0.0103698
0.0182332
0.0603527
0.0210766
0.0199052
0.0385956
0.0714239
0.0138688
0.006197
0.0217698
0.00617578
0.0547669
0.00914481
0.017531
0.0301862
0.0191424
0.00823404
0.0284251
0.0101985
0.00685359
0.00831188
0.0196778
0.0372749
0.00721419
0.0452081
0.0617155
0.0240514
0.00610286
0.0260958
0.0389939
0.0562355
0.0098107
0.0138917
0.00903297
0.0283434
0.00640533
0.0248516
0.00656286
0.0439348
0.0275961
0.0348731
0.0121742
0.00660774
0.0191952
0.00634544
0.0125769
0.0594057
0.0090034
0.00757852
0.00604411
0.00776925
0.0603074
0.0111891
0.0311443
0.0618181
0.00782802
0.0263702
0.0109151
0.00623152
0.00783391
0.00633928
0.0272553
0.00690893
0.0275287
0.0124141
0.00696035
0.0320475
0.00657472
0.00655133
0.0314698
0.0282779
0.00633745
0.0256652
0.00615317
0.00650567
0.00636146
0.0385927
0.0395825
0.0360679
0.0248968
0.0128691
0.00706449
0.0296728
0.00607368
0.0557486
0.027215
0.0488273
0.00612793
0.0156695
0.00764933
0.0196137
0.00596943
0.012443
0.00621529
0.00800892
0.0061535
0.0077631
0.00749273
0.00653342
0.0288035
0.00720693
0.0284332
0.0234023
0.00884965
0.00655934
0.0110665
0.00599368
0.0140721
0.0267749
0.0068704
0.0155867
0.0254257
0.0293072
0.0153131
0.00655636
0.0128139
0.0152954
0.0063624
0.0152816
0.045384
0.00635377
0.0356915
0.0308502
0.00637513
0.00821415
0.0428413
0.0104209
0.00959265
0.00662266
0.00615437
0.0441283
0.00636366
0.00653335
0.00660294
0.00888554
0.00877851
0.0145642
0.00613984
0.0271342
0.00687835
0.00738356
0.00630555
0.00662758
0.010149
0.0244721
0.0465585
0.0269513
0.00606729
0.0580786
0.0187907
0.0295046
0.00631496
0.00574641
0.00641541
0.0246224
0.0129396
0.0331092
0.0318607
0.00722963
0.0141331
0.0117578
0.0163357
0.033727
0.0216343
0.0127984
0.00634042
0.0062555
0.00638776
0.00650241
0.0206243
0.00930014
0.00691637
0.00696643
0.00636692
0.0245128
0.0481201
0.00744528
0.0285652
0.0390462
0.00676625
0.00779841
0.0304868
0.00658463
0.00617725
0.00628875
0.00652636
0.0362418
0.00670621
0.00673636
0.027217
0.00638426
0.00674716
0.00909278
0.00958382
0.00731238
0.00738253
0.0227796
0.0440587
0.0325281
0.0140981
0.052783
0.0971295
0.0199365
0.0114273
0.00855276
0.00762113
0.00652595
0.00857279
0.0074818
0.00776188
0.037634
0.0360969
0.0271939
0.0323645
0.0335514
0.00713024
0.0142992
0.00681137
0.052457
0.00939265
0.0331177
0.00675495
0.0325917
0.0226891
0.0118815
0.00801023
0.0553215
0.0250003
0.0087236
0.0424687
0.013157
0.011444
0.00816789
0.0151563
0.0153876
0.00659095
0.0676212
0.00637154
0.0285348
0.0212872
0.0217773
0.00631465
0.00606562
0.0295365
0.00843828
0.0146443
0.00624991
0.00626319
0.0256689
0.00928162
0.00739059
0.00732482
0.00685312
0.0462684
0.0480862
0.00877831
0.00621652
0.00620171
0.0356663
0.00689447
0.0113694
0.00669123
0.00625521
0.0061351
0.00651462
0.00647348
0.0156789
0.00650593
0.0221939
0.00676755
0.0124777
0.00744913
0.00653786
0.00742411
0.00803077
0.0317168
0.0389886
0.0504289
0.00866754
0.00568492
0.00855612
0.00905768
0.0393854
0.0513364
0.0112199
0.00765865
0.00646685
0.00683817
0.00785658
0.00600701
0.00795281
0.0357265
0.0097553
0.0260601
0.115251
0.00732192
0.0141281
0.00787861
0.0542254
0.00620735
0.00625486
0.00662282
0.0160517
0.00759887
0.00655207
0.0101987
0.00661256
0.0174313
0.00648369
0.00732018
0.0485015
0.0062224
0.0108026
0.0269506
0.0149308
0.00641479
0.009119
0.0186891
0.0512085
0.00609184
0.00900218
0.00655991
0.00934152
0.0346842
0.007957
0.0590135
0.00687452
0.0169978
0.00669817
0.0249881
0.0124857
0.0141623
0.0349707
0.00632787
0.00689722
0.056929
0.00666896
0.00647803
0.0337709
0.0223758
0.0242797
0.00722947
0.006647
0.0878789
0.0279256
0.0264921
0.0115619
0.00655106
0.0438044
0.00654902
0.0073313
0.00637633
0.114214
0.00609444
0.0403254
0.00644269
0.049798
0.0247908
0.00732549
0.0241843
0.0526856
0.036328
0.025043
0.0265727
0.00708452
0.0299607
0.0220759
0.0125931
0.00681448
0.0330284
0.0116684
0.0682478
0.0062175
0.0285409
0.0071909
0.0273604
0.0100091
0.00649492
0.0263331
0.00631199
0.0547923
0.0634445
0.00716179
0.00633085
0.00924284
0.00962267
0.00605658
0.0243189
0.00620483
0.0238999
0.00659732
0.00928565
0.034538
0.00663591
0.0255352
0.0343263
0.0071732
0.0331764
0.0084786
0.00644703
0.00893186
0.0249675
0.00603152
0.0169927
0.0057742
0.00591328
0.00627169
0.00639058
0.0305044
0.0282428
0.00626805
0.00663054
0.0422411
0.00684553
0.00567252
0.00585571
0.00591926
0.010542
0.054489
0.00584325
0.0132982
0.0075014
0.0135666
0.0313433
0.00653669
0.0163828
0.00793104
0.00602134
0.00797103
0.0634742
0.0483798
0.00655787
0.00694915
0.00645997
0.00793334
0.0164856
0.00783625
0.00642804
0.0426716
0.00657706
0.014086
0.0345528
0.022459
0.00723714
0.00785333
0.00842162
0.00966409
0.0132483
0.00628251
0.0153138
0.00613366
0.0064264
0.00583881
0.00633735
0.0318959
0.00648072
0.0418987
0.0950024
0.0235506
0.0110772
0.00839811
0.0300731
0.0067449
0.00570531
0.00692392
0.00643908
0.0376898
0.010435
0.0143458
0.00649758
0.0113108
0.0129288
0.00787146
0.0112192
0.0332062
0.028554
0.0312857
0.0545071
0.0347367
0.012073
0.00837849
0.0604774
0.0525178
0.00641726
0.0658594
0.036865
0.00780288
0.0118778
0.00884872
0.0363496
0.0272682
0.01155
0.00655154
0.00727424
0.0390171
0.0404907
0.0596294
0.0415342
0.00822196
0.0393574
0.0133043
0.00655262
0.00569645
0.0312489
0.0137433
0.0381833
0.0431214
0.00654267
0.0599986
0.00687053
0.0260467
0.00717472
0.00813724
0.0520239
0.0265575
0.00749
0.0350329
0.00716572
0.0289101
0.0123176
0.0064339
0.0354277
0.0480433
0.0270627
0.0190871
0.0132133
0.0285722
0.0189144
0.0462823
0.00646115
0.0347085
0.00594473
0.00723479
0.00672628
0.0615051
0.00688318
0.0168177
0.0068638
0.0299773
0.0141258
0.0062995
0.0345611
0.00623983
0.0295261
0.0097144
0.0408923
0.0250525
0.00651226
0.00859834
0.0382729
0.0107419
0.0239241
0.0424424
0.00649083
0.0121403
0.0085791
0.00663031
0.00656706
0.00659247
0.00843476
0.0275482
0.0311403
0.00619485
0.0126113
0.0108568
0.00906587
0.0200403
0.00723831
0.00691374
0.0133994
0.0130905
0.0378747
0.0167565
0.037469
0.00733669
0.00606149
0.0157704
0.0135469
0.0540177
0.019838
0.027858
0.00660813
0.00636989
0.0127886
0.0071454
0.0192716
0.0160119
0.00859732
0.0506463
0.00642734
0.0311652
0.00827263
0.0442384
0.00612405
0.0106439
0.00709067
0.0111296
0.00795998
0.0072954
0.00640816
0.0333572
0.0245557
0.0473806
0.00674774
0.0071068
0.00892975
0.00630302
0.0749861
0.013648
0.0161357
0.006629
0.00945865
0.00820258
0.0135352
0.00660511
0.0511655
0.0177891
0.00782571
0.0329368
0.029717
0.0225984
0.051695
0.0161258
0.00674762
0.023097
0.0576594
0.0123953
0.0301287
0.0131367
0.00651657
0.00648303
0.00665588
0.00633643
0.00660514
0.00884781
0.0390399
0.00636223
0.00911049
0.017167
0.0139315
0.00675791
0.0107564
0.0210482
0.00660507
0.0360595
0.0163399
0.015425
0.0231872
0.00695958
0.0424801
0.0158803
0.0391362
0.0452568
0.0247283
0.0522963
0.00942584
0.00769411
0.00940189
0.0305591
0.00924
0.0081644
0.0494076
0.00743755
0.0105387
0.0317957
0.0507889
0.0111377
0.0114717
0.040408
0.00659754
0.0485761
0.00629571
0.00734909
0.0101539
0.00688141
0.00721921
0.0131912
0.0065031
0.0717756
0.038567
0.0138462
0.0136106
0.0596237
0.00798866
0.0129964
0.00616617
0.00690727
0.0201905
0.00760149
0.00625105
0.0163391
0.0270892
0.00668988
0.0139803
0.0329842
0.00689484
0.00682561
0.00662813
0.0146564
0.00876775
0.0121735
0.0177166
0.0133257
0.0140016
0.00826354
0.0248676
0.00745581
0.0064209
0.00935731
0.00730862
0.0119189
0.010008
0.0358219
0.0245038
0.00970685
0.00791945
0.00850134
0.00630091
0.00704027
0.00619934
0.00590814
0.228523
0.0109893
0.00615436
0.0461316
0.00748197
0.00765944
0.0462262
0.00696395
0.00654082
0.0132888
0.00639363
0.0065151
0.00631186
0.0232476
0.0106383
0.0306996
0.0114286
0.00670476
0.0410888
0.0355339
0.0261339
0.0102781
0.0314151
0.00757569
0.00657148
0.00654703
0.00648529
0.0170845
0.0235071
0.00725871
0.00644105
0.0109185
0.0175092
0.00709379
0.00660107
0.00604603
0.0376951
0.00599201
0.0150299
0.0193402
0.0367615
0.0263062
0.0162377
0.00656806
0.0289123
0.0067594
0.00635004
0.00679688
0.00640415
0.00657741
0.005743
0.00637356
0.00646366
0.00967827
0.00827719
0.0102501
0.0362045
0.0303437
0.00710348
0.00881096
0.0373202
0.00667203
0.0129764
0.00661737
0.00651917
0.006482
0.00778072
0.0164289
0.00638143
0.122848
0.0143181
0.0064701
0.0702575
0.0067896
0.0355107
0.0175834
0.00729429
0.0195878
0.0330984
0.00720229
0.00751116
0.00699373
0.0353131
0.00687887
0.0357751
0.0157594
0.0223926
0.0249594
0.0135833
0.00636199
0.0232666
0.00718673
0.00671268
0.0116408
0.00634667
0.00627931
0.0109546
0.00599
0.00674009
0.0206363
0.00635026
0.0257961
0.037496
0.00719196
0.00884908
0.0270327
0.00641832
0.0122297
0.0185167
0.00844762
0.0565664
0.00632321
0.00679681
0.0113113
0.0420579
0.0276985
0.0139804
0.0267569
0.00840902
0.00892193
0.0132733
0.0561553
0.0112218
0.0062978
0.00947499
0.00663015
0.00663414
0.028513
0.00715794
0.00629707
0.0110592
0.00793913
0.0376317
0.0111824
0.00729689
0.00596823
0.0223138
0.00695945
0.0159396
0.0118404
0.0475559
0.0109115
0.0173376
0.0332919
0.010342
0.0326116
0.00699688
0.0123169
0.00638158
0.066666
0.00581185
0.0149722
0.0278047
0.0139779
0.00838496
0.0465723
0.0070273
0.00743049
0.0289755
0.0666535
0.0291879
0.00621198
0.00739009
0.00665576
0.0133497
0.0304392
0.0076785
0.044528
0.0125527
0.00652459
0.00927245
0.0282183
0.00736144
0.0485032
0.0173818
0.00689514
0.00630839
0.0420881
0.00720465
0.00967643
0.0267157
0.00625329
0.0071217
0.00560124
0.00925461
0.0148058
0.026299
0.0064777
0.0070602
0.0477029
0.0335299
0.0256006
0.00621713
0.0148387
0.00668951
0.0299796
0.00613186
0.0361078
0.00837907
0.0162962
0.00632311
0.00653746
0.00753939
0.00844314
0.0450468
0.0394096
0.00779729
0.0086316
0.0454714
0.0374832
0.00674285
0.00668263
0.00685195
0.0130164
0.00857307
0.00568641
0.0066625
0.0245235
0.0177461
0.0224127
0.00749643
0.0170813
0.0384519
0.0363842
0.00605846
0.0116638
0.0147525
0.0069602
0.006769
0.044742
0.00646277
0.00647655
0.0327543
0.0467617
0.00660807
0.0058547
0.0466348
0.0637215
0.00623735
0.0134966
0.0496099
0.0216813
0.00612096
0.00584065
0.00656232
0.00805237
0.00643147
0.0442242
0.0379728
0.00647087
0.00653888
0.0138295
0.00731808
0.0295996
0.0270485
0.0291229
0.00819439
0.0610518
0.00681845
0.00767435
0.014816
0.0256342
0.0523377
0.00637736
0.00580295
0.010313
0.0061895
0.0125281
0.00642848
0.0303854
0.0259094
0.211133
0.0121534
0.00813107
0.0132511
0.0279164
0.0161091
0.010729
0.00765854
0.0146739
0.00700936
0.00601489
0.0129217
0.0275762
0.0421812
0.0068572
0.0451216
0.0106743
0.010065
0.0168451
0.0466004
0.00776784
0.023544
0.0608776
0.0506556
0.00886214
0.00607116
0.0091803
0.00901918
0.0177539
0.0120784
0.0548511
0.0357913
0.0319587
0.00627863
0.0132195
0.00774103
0.012405
0.0127285
0.00893119
0.049631
0.0104059
0.0486607
0.00668397
0.0119227
0.0432181
0.00631565
0.0152603
0.00896867
0.0165395
0.0275831
0.0497458
0.0068451
0.0301259
0.0067741
0.00652763
0.0101633
0.0221386
0.04465
0.00935318
0.0327992
0.00696534
0.00693917
0.00648703
0.0293673
0.00682296
0.00699234
0.0070652
0.00693897
0.0514691
0.0305711
0.00670477
0.0120417
0.0229706
0.00653642
0.00979542
0.00955018
0.0136265
0.0358759
0.132891
0.0314971
0.00717472
0.0065431
0.00998627
0.0458522
0.036105
0.00729873
0.010768
0.0218576
0.00641476
0.00691274
0.00675196
0.00656148
0.00623536
0.00673169
0.00802674
0.0115563
0.0109624
0.0115841
0.0197231
0.023186
0.00629003
0.00922259
0.0379338
0.0271404
0.00594527
0.0355744
0.00728259
0.014311
0.00639595
0.00761861
0.0113304
0.00600565
0.00628725
0.00623303
0.0267786
0.0308288
0.00663379
0.0061894
0.0488029
0.0171704
0.0100288
0.00659235
0.00826704
0.0614397
0.0132254
0.00882819
0.0183069
0.00606898
0.0104012
0.0531201
0.00963905
0.044511
0.0153645
0.0597773
0.00686517
0.00685239
0.00618931
0.051648
0.0273484
0.0170805
0.00665879
0.0303436
0.0295038
0.0152294
0.00662145
0.0373273
0.00590658
0.00684098
0.0225897
0.0235856
0.0300374
0.00633605
0.00607525
0.00739314
0.010363
0.0139644
0.0133569
0.014122
0.0418349
0.0418993
0.0341835
0.0157214
0.00656908
0.0384899
0.0626578
0.029084
0.0457919
0.00743354
0.0439421
0.00637542
0.00668108
0.00761122
0.0223812
0.00700809
0.0372233
0.0242512
0.00629037
0.00650249
0.0103291
0.00990321
0.00648702
0.0497666
0.00890977
0.00713459
0.0067736
0.0152784
0.00704572
0.00598817
0.0130128
0.0346979
0.0451432
0.0132599
0.00650339
0.0410171
0.0178232
0.00586206
0.0345254
0.0375151
0.0138074
0.0458921
0.020903
0.0519066
0.0295856
0.0371663
0.0543065
0.035357
0.0572122
0.0125471
0.0183914
0.006512
0.0540472
0.00609649
0.00920053
0.00720222
0.0107908
0.00747427
0.0389059
0.00669447
0.0107297
0.0154192
0.00645645
0.00891421
0.0643664
0.0111089
0.0171089
0.0390965
0.0411794
0.00799336
0.0155406
0.0443026
0.00781363
0.00837108
0.00643855
0.00664581
0.0301749
0.010568
0.01719
0.0115137
0.00810747
0.00790217
0.0066061
0.0153657
0.00698032
0.00874744
0.010921
0.0126769
0.0123715
0.0103872
0.0164228
0.00652825
0.0089922
0.0448313
0.00791377
0.0490913
0.120494
0.0274956
0.0079886
0.00842922
0.0084917
0.00716475
0.0109976
0.0193842
0.0114522
0.0573556
0.0480813
0.0563842
0.0268766
0.0282086
0.00611139
0.0298667
0.011044
0.0436902
0.0406328
0.00629336
0.0271746
0.00726234
0.00940473
0.00689538
0.0356857
0.0308274
0.00970276
0.00754379
0.0547953
0.00810064
0.0252481
0.0127742
0.00633
0.00711094
0.00640999
0.0137818
0.0142853
0.0172036
0.0220588
0.0359334
0.0306031
0.0417527
0.0119771
0.00650244
0.0198751
0.0251217
0.0135128
0.00689632
0.00730661
0.0268914
0.00832619
0.0441893
0.0226024
0.00749098
0.0297333
0.0180113
0.0147783
0.0102803
0.0127661
0.0076754
0.0152696
0.0136184
0.00672166
0.0118976
0.00676415
0.048616
0.0497574
0.00957624
0.0129464
0.00748236
0.0122087
0.0141703
0.0542391
0.00885689
0.00905158
0.00793437
0.0157807
0.033201
0.02602
0.0318524
0.00985125
0.0233671
0.0128524
0.0494043
0.0105583
0.032196
0.0186027
0.00669498
0.026859
0.00707161
0.00711419
0.0350579
0.043551
0.0105601
0.0715175
0.00741194
0.00680099
0.0170993
0.00782487
0.0191763
0.0106267
0.0396015
0.0123743
0.0098085
0.00618374
0.0614305
0.00682156
0.00950768
0.0183188
0.0085764
0.0369538
0.00703791
0.0393684
0.00762449
0.00991459
0.00799591
0.0083539
0.0325587
0.0484846
0.00737504
0.0062211
0.0334421
0.0125221
0.0397534
0.00911391
0.0252571
0.0539042
0.0146498
0.00773404
0.0166494
0.00622083
0.0110743
0.00772726
0.0406844
0.00640797
0.0372426
0.0190698
0.0064322
0.00648823
0.00990631
0.0501762
0.030009
0.00678309
0.00662049
0.00820372
0.0073314
0.00748666
0.0700909
0.00784343
0.00834682
0.00903723
0.0285066
0.00893302
0.00643779
0.00930592
0.00644506
0.00686078
0.0258486
0.00697447
0.0309266
0.00752208
0.0150998
0.00915915
0.00721937
0.00619111
0.00652626
0.0364916
0.00619491
0.0270558
0.0433569
0.00946835
0.0286596
0.00716882
0.0523158
0.0280045
0.02872
0.0183324
0.00995378
0.0398845
0.039578
0.00819181
0.0151741
0.0062499
0.0134851
0.0487216
0.0167198
0.0336597
0.0117635
0.00760426
0.0275934
0.00774927
0.00626603
0.00677219
0.00677044
0.00619185
0.00677594
0.00615264
0.00721119
0.0259795
0.0566315
0.00769007
0.0582436
0.00980205
0.0100872
0.0176398
0.00637411
0.00917932
0.0346231
0.00622642
0.0322164
0.0142508
0.0238298
0.00843875
0.00612956
0.0181939
0.0126326
0.0323325
0.00981333
0.0100912
0.0164314
0.00812815
0.0620847
0.0435696
0.00583561
0.00957157
0.00654528
0.0133224
0.0705719
0.00648096
0.0232301
0.00596849
0.00724894
0.0383544
0.00690122
0.00619083
0.037203
0.0265936
0.00631259
0.0141073
0.047818
0.00666207
0.0269453
0.0473177
0.0150559
0.00628386
0.00638274
0.00801779
0.00671909
0.00757882
0.00633185
0.0112813
0.0127907
0.00627274
0.00761394
0.0556587
0.0355504
0.00995793
0.00657545
0.0105987
0.0495696
0.04338
0.00757602
0.0315225
0.00725778
0.00661012
0.00625511
0.0313498
0.0185493
0.00642504
0.0116986
0.00767009
0.00800073
0.0259932
0.0388916
0.00645541
0.0433707
0.0213668
0.0379826
0.0317876
0.00645439
0.00658062
0.00767017
0.0125324
0.0152019
0.0157405
0.00645395
0.00769778
0.0279234
0.00573168
0.00710059
0.00688758
0.045082
0.00982693
0.0458071
0.015727
0.0306344
0.00681032
0.00774635
0.0117479
0.0393561
0.0174771
0.0233574
0.0595809
0.0071325
0.0468898
0.0264949
0.00646775
0.00652362
0.00637345
0.0350449
0.0122555
0.0291687
0.00644858
0.00700281
0.00632347
0.0063972
0.0324186
0.00748834
0.0107906
0.00651489
0.00640808
0.00646377
0.00671237
0.00642986
0.0539612
0.033621
0.010998
0.00626728
0.00765373
0.0332209
0.00636213
0.0251529
0.00980836
0.00788882
0.0170378
0.0235668
0.0254228
0.0595507
0.0069592
0.00734431
0.0265377
0.0103312
0.0558535
0.00733252
0.00576126
0.0501621
0.0101963
0.00901606
0.00653311
0.0919327
0.0584952
0.040454
0.0219889
0.0242875
0.0471828
0.0400187
0.0559582
0.0173863
0.00666689
0.00879192
0.00712273
0.00970441
0.050599
0.00663285
0.0109862
0.0615673
0.0602706
0.0399511
0.0163125
0.0317714
0.00699886
0.0151124
0.0063682
0.00912704
0.0320721
0.0167592
0.00710236
0.0063297
0.00736331
0.0064709
0.0066787
0.0292392
0.0123096
0.00712796
0.00673185
0.0668308
0.0141558
0.0124996
0.00925368
0.0107229
0.00615942
0.0259238
0.0397839
0.051994
0.0138326
0.00623462
0.00586347
0.00713245
0.0234742
0.0120623
0.0297494
0.0139243
0.00671154
0.031926
0.0244797
0.00637466
0.00766064
0.00708932
0.00658612
0.0163476
0.0215206
0.00738017
0.0133573
0.00998232
0.0080605
0.00900716
0.00677548
0.0180466
0.00782173
0.054687
0.0418861
0.0601488
0.01495
0.0106876
0.013393
0.0314181
0.00698789
0.0309451
0.025641
0.0533445
0.0103467
0.00585913
0.00646594
0.0528176
0.0249819
0.030994
0.0456286
0.0259952
0.00595876
0.00592782
0.0401782
0.034947
0.0263716
0.00667459
0.00587041
0.00785588
0.0149314
0.00697204
0.00747297
0.0143068
0.03596
0.00590492
0.00794265
0.00769855
0.0100481
0.00738406
0.00619744
0.0200603
0.0101402
0.0215762
0.0099854
0.0062004
0.00602981
0.0627304
0.00662197
0.046385
0.00645589
0.00722873
0.00647979
0.00668993
0.027624
0.0489206
0.0276183
0.00678056
0.00613876
0.00946536
0.00617537
0.044084
0.0157144
0.00663008
0.00614901
0.0117461
0.0325381
0.0154359
0.0115873
0.00615551
0.00681832
0.00671852
0.00581756
0.00695492
0.00741414
0.0164833
0.00642698
0.0064907
0.00762649
0.0163767
0.0367068
0.0496805
0.0198904
0.0125106
0.00606451
0.00607882
0.0422671
0.0118888
0.00815586
0.00855931
0.014705
0.00653947
0.00762535
0.00918133
0.00585904
0.0134041
0.00853592
0.0286176
0.011769
0.00771107
0.0471561
0.00931975
0.00710205
0.00856658
0.00649153
0.00603487
0.0477404
0.00648133
0.0175737
0.0059254
0.0198025
0.00627549
0.00890047
0.015414
0.00980131
0.0484001
0.00924053
0.0311201
0.0348351
0.00744685
0.0440219
0.00654027
0.00669788
0.00605972
0.0298011
0.0135672
0.04962
0.00868464
0.035701
0.014391
0.00688736
0.00600834
0.00617856
0.00753319
0.00715735
0.006558
0.00758978
0.00693223
0.00718615
0.0308966
0.0142381
0.00611391
0.00597794
0.0252365
0.00729323
0.00650887
0.00611285
0.0476909
0.00865708
0.0483037
0.00600367
0.04098
0.0350823
0.0109845
0.00857256
0.00824531
0.0108117
0.0377108
0.00681343
0.0381754
0.0381443
0.00712959
0.0287343
0.0174172
0.00888893
0.00669194
0.0515714
0.0249158
0.0382313
0.00646141
0.00698642
0.0229557
0.00668935
0.0154638
0.0237494
0.00682593
0.0342133
0.00860414
0.00751659
0.00670987
0.00619546
0.00633249
0.00587916
0.0100239
0.00572048
0.00705663
0.0066099
0.0125194
0.0142956
0.00588998
0.0190548
0.00741357
0.00754387
0.0070763
0.00807013
0.00606063
0.00844036
0.0346475
0.00699407
0.0060723
0.0249713
0.00995122
0.00616607
0.107663
0.00718562
0.00674081
0.0149779
0.0093058
0.0284039
0.0110564
0.00579117
0.00733954
0.014764
0.0260339
0.0244345
0.00924347
0.0325149
0.0358061
0.0420042
0.00787373
0.00594513
0.00592434
0.00868977
0.00727504
0.00816816
0.0241272
0.0121391
0.0060835
0.00594551
0.00610556
0.00623081
0.0442649
0.064492
0.0557932
0.0214541
0.0075731
0.00651268
0.00613858
0.0163815
0.00716805
0.00663764
0.0517552
0.00661353
0.00704433
0.00601599
0.0066751
0.020473
0.0280915
0.0100631
0.0294383
0.00667688
0.0076434
0.0141738
0.00731287
0.0147888
0.023272
0.0133904
0.00619746
0.0167618
0.00950911
0.00643763
0.0196342
0.0331311
0.00653372
0.00629121
0.0265425
0.0346674
0.0155586
0.0393784
0.00611088
0.0110793
0.0276238
0.00617023
0.00634088
0.00613719
0.00940074
0.00695992
0.00690987
0.0071105
0.00790044
0.0168504
0.00773793
0.0210132
0.0188859
0.0279005
0.00638068
0.0110993
0.00717532
0.00825413
0.0151388
0.0132096
0.0515655
0.0133312
0.0522718
0.0152652
0.00801559
0.00661455
0.00618301
0.00680529
0.0373123
0.0298237
0.00660423
0.018639
0.0222661
0.00921341
0.0316328
0.00588431
0.00728829
0.00642496
0.0109259
0.00644314
0.0101666
0.00729074
0.0349727
0.00668864
0.0379281
0.039416
0.0228652
0.00832022
0.0105043
0.00641346
0.0387975
0.0079691
0.00724425
0.0135064
0.0180554
0.0161534
0.0337789
0.0247282
0.0334732
0.0227225
0.00578818
0.0281214
0.00724464
0.0246122
0.0552315
0.0148876
0.0319744
0.0656994
0.0501653
0.00843597
0.0109072
0.00677791
0.0228034
0.00616849
0.0366725
0.0114517
0.0246157
0.00753016
0.00649175
0.0543722
0.0087851
0.00704607
0.00725099
0.0089129
0.00886389
0.00673094
0.00681789
0.00680109
0.00781555
0.0358488
0.0160347
0.0295937
0.00684818
0.0451883
0.0162176
0.00683311
0.0203101
0.0120607
0.0540065
0.011591
0.0132182
0.00594384
0.00996488
0.00612382
0.00833275
0.00609614
0.00823324
0.00580547
0.0274249
0.0277889
0.00665969
0.00699245
0.00828385
0.00710471
0.00651005
0.00781636
0.00724777
0.0378639
0.00681331
0.00635554
0.0389055
0.0095167
0.0383765
0.0089415
0.0218597
0.0306175
0.00653499
0.0333078
0.0376612
0.0502896
0.0419631
0.0364257
0.0060664
0.0113488
0.00594295
0.00850005
0.0247971
0.00679305
0.0062904
0.00639137
0.0509276
0.00721683
0.0115904
0.0107001
0.0070602
0.041873
0.0396531
0.00722364
0.0356202
0.00624943
0.0298775
0.00992738
0.0214668
0.00602255
0.00627787
0.00680204
0.032496
0.0492
0.0360637
0.00653042
0.0248774
0.0647941
0.0109296
0.0147949
0.0410973
0.0141401
0.0252003
0.00892447
0.0072001
0.00638624
0.00765505
0.0994798
0.0120994
0.048586
0.00607801
0.0072397
0.00992329
0.00698214
0.0155309
0.0116689
0.0497238
0.00766652
0.0136186
0.00648143
0.00633453
0.0257939
0.0595038
0.00595712
0.006588
0.00650169
0.0223188
0.00821497
0.0490207
0.0339305
0.0306971
0.00656734
0.04087
0.0113461
0.0570126
0.0290928
0.00785232
0.028398
0.0362974
0.0380197
0.00718452
0.00742203
0.00658671
0.0274552
0.00926176
0.00594969
0.010065
0.0103492
0.0076843
0.00659
0.00644868
0.049236
0.00721048
0.0143813
0.0214676
0.0303819
0.00632413
0.00634367
0.0141325
0.00790691
0.0592517
0.0110174
0.00935221
0.0543548
0.00641657
0.00645927
0.00760633
0.0254306
0.00615386
0.0278174
0.00590493
0.0249941
0.0510276
0.0060824
0.0063552
0.0227868
0.0072957
0.0063643
0.00615543
0.00603179
0.0258838
0.0396716
0.00646629
0.00758607
0.00742222
0.00688469
0.0284936
0.0084203
0.0261951
0.0225729
0.00632129
0.00672594
0.0133098
0.00752649
0.0105424
0.0347328
0.0660695
0.00603389
0.00700111
0.0284112
0.04158
0.0167141
0.00758186
0.00787929
0.051327
0.0154175
0.00706121
0.00630092
0.00658721
0.00717298
0.0112086
0.00629606
0.00674399
0.00650659
0.0161781
0.0386517
0.0500976
0.0103918
0.012243
0.00747803
0.00681317
0.00647864
0.00646293
0.00637168
0.00682442
0.00680462
0.00655526
0.0134275
0.00696114
0.00718364
0.0147246
0.00681697
0.0142153
0.0392365
0.00980212
0.00848219
0.00866049
0.00933584
0.00863872
0.0155315
0.0281031
0.00737495
0.00730747
0.00788665
0.0103518
0.0444015
0.00830391
0.0130215
0.0478522
0.00822642
0.0386778
0.00997698
0.00698467
0.00758613
0.00825116
0.0113876
0.0342496
0.0457277
0.0674145
0.00638795
0.0285704
0.00676592
0.00670656
0.031396
0.00624965
0.0143091
0.00601978
0.0104967
0.00994873
0.0194157
0.00596135
0.00579004
0.0595073
0.0069118
0.0351643
0.0605588
0.00859587
0.0224961
0.00612711
0.0062912
0.00627361
0.013027
0.0173895
0.00762323
0.00642287
0.00746451
0.0264244
0.0446433
0.0102741
0.00700096
0.0114671
0.00643751
0.0169812
0.0141426
0.00631565
0.00604674
0.0062852
0.0153938
0.0121075
0.0164839
0.00855499
0.00746016
0.0114217
0.0128921
0.0356239
0.00709515
0.00753263
0.00665239
0.0068105
0.00730255
0.00602656
0.0336058
0.00949615
0.0187397
0.0265227
0.00676345
0.0180101
0.0061315
0.00634326
0.0073253
0.0491026
0.0135059
0.00777025
0.00605341
0.0241201
0.006955
0.0182006
0.00860594
0.0174437
0.0113713
0.00671767
0.00609787
0.0613006
0.00802602
0.00595128
0.00693472
0.0149305
0.00697899
0.00663299
0.132407
0.00583788
0.0310747
0.00727675
0.00611384
0.00632164
0.01093
0.0145916
0.0192998
0.0246581
0.035623
0.00607931
0.0059198
0.0890974
0.0330357
0.00737245
0.00811657
0.0269787
0.0125314
0.00754954
0.00790534
0.00761312
0.0526468
0.00647
0.0212203
0.0309952
0.00620551
0.0263401
0.0165344
0.0455597
0.0301711
0.0169011
0.0268717
0.00994637
0.0258901
0.0112684
0.0368855
0.047871
0.00956709
0.0398095
0.0241865
0.00746704
0.0417335
0.0073426
0.0254736
0.0209932
0.0266727
0.00612072
0.0410374
0.0378211
0.00880192
0.00760972
0.00947002
0.0291674
0.0089154
0.0162563
0.00951482
0.0222256
0.013601
0.00607149
0.014032
0.0061304
0.00857642
0.00843389
0.00623695
0.0622791
0.00926678
0.0105201
0.00692011
0.0429642
0.0101687
0.0625286
0.0138146
0.0143566
0.00659186
0.00716735
0.0109625
0.0072584
0.0206956
0.00640954
0.00665613
0.0177397
0.00592532
0.0219583
0.00675479
0.00879064
0.0238402
0.0150974
0.0218549
0.00616869
0.00782487
0.0233154
0.00868399
0.0101064
0.054099
0.00643843
0.0501803
0.0302412
0.0112796
0.00726202
0.00800976
0.0265565
0.00622711
0.00659909
0.0131245
0.0253141
0.0163969
0.0385007
0.00771817
0.0155899
0.00857628
0.0152966
0.00650504
0.00806371
0.0353325
0.00871325
0.00643526
0.0151262
0.0624789
0.0218839
0.0076445
0.0263463
0.0157799
0.0248195
0.00813524
0.0157951
0.0288396
0.0281475
0.00622752
0.0483233
0.00715669
0.0419768
0.00611966
0.0135562
0.00690478
0.0365025
0.00782074
0.00584854
0.00668184
0.00634975
0.0141009
0.0553211
0.0546595
0.0313698
0.0621727
0.00727782
0.0359021
0.00605057
0.0068532
0.00941751
0.00700127
0.046322
0.0244124
0.0269031
0.00692207
0.0395577
0.00769002
0.0137418
0.0080252
0.0234834
0.0355255
0.0416398
0.00689865
0.0267331
0.0061648
0.00938715
0.00949227
0.0269044
0.0267475
0.00976641
0.0136093
0.0306308
0.00657334
0.00718017
0.0174231
0.0138265
0.00761381
0.00637352
0.00705475
0.00627394
0.00671804
0.0131513
0.0166962
0.00683519
0.0635072
0.0404282
0.00922622
0.0069994
0.00624611
0.0420054
0.0298576
0.00611125
0.0136882
0.00595314
0.0337499
0.00610221
0.00594358
0.00739013
0.0244118
0.0168593
0.044205
0.0489007
0.0102197
0.0527359
0.00924909
0.0188266
0.00921441
0.00871621
0.00659963
0.0452293
0.0692377
0.00616348
0.00901621
0.0369071
0.00644682
0.00719429
0.0373608
0.0516586
0.0554736
0.0312121
0.0188888
0.0499309
0.0162668
0.00615471
0.0361258
0.0507299
0.0095082
0.00698348
0.00657116
0.00777547
0.0141713
0.0659179
0.00616614
0.0341464
0.00659193
0.0294534
0.0127563
0.00942649
0.0123396
0.0109793
0.0389773
0.00642673
0.0107254
0.0062043
0.0480723
0.0100671
0.0272824
0.0132442
0.0214532
0.0441787
0.0115833
0.0120388
0.0104004
0.0188075
0.00705561
0.0283458
0.0366023
0.0291807
0.00854267
0.0110363
0.00873669
0.0368953
0.011256
0.0453147
0.0671191
0.0076842
0.00587497
0.0274714
0.035109
0.0149197
0.00656787
0.0101926
0.00698267
0.00953727
0.00823459
0.0064813
0.00790608
0.00609269
0.0264897
0.0513806
0.00939738
0.00645921
0.00628722
0.0152036
0.0611337
0.0141182
0.00635239
0.0255345
0.0130426
0.0100548
0.0135434
0.0060109
0.00671117
0.0062259
0.0402778
0.00928178
0.0069448
0.00781093
0.00594262
0.0109699
0.026645
0.00655476
0.0145777
0.0528427
0.00592916
0.00579752
0.0112338
0.0161048
0.00735596
0.00639159
0.00777727
0.00602941
0.0105961
0.014978
0.0343104
0.0278807
0.00674005