/*--------------------------------*- C++ -*----------------------------------*\
| =========                 |                                                 |
| \\      /  F ield         | OpenFOAM: The Open Source CFD Toolbox           |
|  \\    /   O peration     | Version:  2406                                  |
|   \\  /    A nd           | Website:  www.openfoam.com                      |
|    \\/     M anipulation  |                                                 |
\*---------------------------------------------------------------------------*/
FoamFile
{
    version     2.0;
    format      ascii;
    arch        "LSB;label=32;scalar=64";
    class       volScalarField;
    location    "38";
    object      k;
}
// * * * * * * * * * * * * * * * * * * * * * * * * * * * * * * * * * * * * * //

dimensions      [0 2 -2 0 0 0 0];

internalField   nonuniform List<scalar> 
59516
(
0.000921361
0.00139898
0.000720762
0.00129782
0.00763598
0.0173753
0.000876797
0.000996356
0.000730158
0.00354289
0.00417996
0.00296458
0.000801214
0.00796147
0.00297109
0.00305064
0.00236031
0.00430013
0.00119579
0.0017942
0.00479828
0.00109878
0.00126816
0.00477396
0.00113417
0.00265175
0.00464487
0.00578213
0.00318354
0.0067433
0.00703563
0.00541901
0.000877691
0.00120486
0.00150141
0.000967078
0.00653226
0.004311
0.00145328
0.00141318
0.00091409
0.00297656
0.00138377
0.00131469
0.00104831
0.00312913
0.000952259
0.002555
0.00762122
0.00221435
0.0090184
0.00422972
0.000623624
0.000791441
0.00446935
0.000976095
0.00369507
0.00457019
0.00249245
0.00151608
0.00140811
0.00632519
0.00236914
0.00223748
0.00104361
0.00150967
0.00783079
0.004189
0.00618128
0.000774846
0.00609196
0.00206135
0.00664453
0.00126081
0.00286175
0.00171434
0.00241187
0.00129977
0.00403392
0.00225385
0.00459016
0.00175723
0.00134492
0.00662748
0.00175278
0.00265135
0.00458587
0.00104759
0.00296394
0.00249109
0.00553636
0.00151922
0.00212223
0.00127188
0.00213561
0.00782895
0.00135205
0.0030729
0.00351287
0.00138569
0.00461685
0.00664997
0.00651023
0.00296256
0.000954029
0.00187674
0.0047742
0.000725093
0.00113023
0.00275921
0.00470803
0.0054716
0.00303855
0.00457248
0.00158218
0.0010618
0.00290314
0.00113667
0.00622962
0.001323
0.00334418
0.00244969
0.00143728
0.00236394
0.00408265
0.00162789
0.0070123
0.00264688
0.0105334
0.00268031
0.00310846
0.000780092
0.00623738
0.000961143
0.0012145
0.000651714
0.00448777
0.000565469
0.00445442
0.00148321
0.00412446
0.00287882
0.00659437
0.00100263
0.00291684
0.00112041
0.000974423
0.000945518
0.0198409
0.000902623
0.00133027
0.0044358
0.0015517
0.00132238
0.00124546
0.00708179
0.00105508
0.000731162
0.00152161
0.00668691
0.00286853
0.0027131
0.00477685
0.0079126
0.00104576
0.00227573
0.00274785
0.00264273
0.00644126
0.00163001
0.00142835
0.00312938
0.00217156
0.00091686
0.00370896
0.0010469
0.00242318
0.00157256
0.00265476
0.00430295
0.00104894
0.00514149
0.00791982
0.00246133
0.00264899
0.00292063
0.00426917
0.00668167
0.000729482
0.00113043
0.00138736
0.00313151
0.00189239
0.00240506
0.00112154
0.00470891
0.00292022
0.00416231
0.00133583
0.00117727
0.00204608
0.00332293
0.000947038
0.00661297
0.000800578
0.00112806
0.00284275
0.00202578
0.00691821
0.00106991
0.00355882
0.00769408
0.00114913
0.00315327
0.000885233
0.00200722
0.00106173
0.00111802
0.00322678
0.00147386
0.003274
0.00143095
0.00221201
0.00462075
0.00229645
0.00247922
0.00567692
0.00398292
0.0023484
0.00309082
0.00215727
0.00249092
0.00331416
0.00589934
0.00472517
0.00421777
0.00257695
0.000861947
0.0017338
0.00342623
0.00309407
0.00680491
0.00288896
0.00688042
0.00292175
0.00115921
0.0014335
0.00277612
0.00184101
0.000862615
0.00166867
0.00127141
0.00328611
0.00142131
0.0012047
0.00151934
0.00326625
0.00157648
0.00409015
0.00292677
0.00080253
0.00183232
0.000952227
0.0023388
0.000901527
0.0028117
0.00185602
0.00126609
0.00423362
0.00299407
0.00144146
0.00246535
0.000899538
0.00137172
0.00189512
0.00116511
0.00591042
0.00159149
0.00582356
0.00418502
0.00317353
0.00107184
0.0063557
0.000926799
0.000814574
0.00241237
0.00285576
0.00664075
0.00314098
0.00362386
0.0026404
0.0010707
0.0012813
0.00123936
0.00199978
0.00550336
0.0019316
0.000867069
0.0033846
0.00248125
0.000655475
0.00269386
0.00631426
0.00510255
0.00130958
0.00673249
0.00309696
0.00349951
0.0020252
0.0019526
0.00107712
0.00276835
0.00117369
0.00470589
0.00325362
0.00198388
0.00117536
0.00823887
0.00155666
0.00417283
0.00299056
0.00113835
0.00259634
0.00314007
0.00334474
0.0014975
0.0019243
0.00101487
0.00233341
0.00179057
0.00152667
0.00280166
0.00645443
0.00142344
0.00388795
0.00463523
0.00190674
0.00110194
0.0031829
0.00257646
0.00162094
0.00308137
0.00252501
0.00429331
0.00159641
0.00305297
0.00302497
0.00316494
0.00281925
0.00109182
0.00107225
0.00160029
0.00100313
0.00187732
0.00495413
0.00448217
0.00132158
0.00605841
0.0111389
0.00162763
0.00102611
0.0010443
0.00376421
0.00125739
0.000877874
0.00142629
0.00156969
0.00470925
0.00683098
0.00326649
0.00417267
0.00446054
0.00196395
0.00135079
0.00174083
0.00625928
0.000972074
0.00442251
0.00217933
0.00303287
0.00273223
0.000760029
0.00442782
0.0067991
0.0029634
0.00108231
0.00616441
0.00155449
0.00101426
0.000764146
0.00144231
0.00140851
0.00172558
0.00651591
0.00314291
0.00357737
0.00281061
0.00281443
0.00286519
0.00260098
0.00293683
0.000697472
0.00106504
0.00294189
0.00283743
0.00393407
0.00108531
0.00114863
0.00117611
0.00146245
0.0064659
0.00622906
0.00074513
0.00255516
0.00307614
0.00458939
0.00252871
0.000757315
0.0030772
0.00268221
0.00298614
0.00260873
0.00249329
0.00107216
0.00304259
0.00272949
0.00219308
0.00107282
0.00166721
0.00279167
0.00107337
0.00138046
0.00404303
0.00478535
0.00629948
0.00319645
0.00277363
0.00131528
0.00072533
0.00452028
0.00668074
0.00100386
0.00173964
0.00275879
0.00142918
0.000877739
0.00320702
0.00086911
0.00595857
0.000932135
0.00287425
0.0118314
0.00178589
0.00123722
0.00132055
0.00673002
0.00284838
0.00292726
0.00303116
0.00109521
0.00171236
0.00265453
0.00126626
0.00336079
0.00150806
0.00232381
0.00117789
0.00622378
0.00277481
0.000987365
0.00392957
0.000988526
0.00215662
0.000927499
0.0016043
0.0062717
0.0022942
0.000774291
0.00158436
0.000920905
0.00418481
0.00117681
0.00740781
0.00207555
0.00951694
0.00238004
0.00397745
0.000989242
0.00101976
0.00392867
0.00346692
0.00298127
0.0070026
0.00200331
0.00350001
0.00466675
0.00277646
0.00276489
0.0016803
0.00318704
0.00999094
0.00295711
0.002845
0.000850527
0.00326844
0.0061471
0.00139639
0.00145197
0.00296744
0.0136555
0.00182057
0.00583444
0.00188871
0.0066919
0.00260781
0.00142565
0.00278121
0.00650207
0.00476925
0.00369155
0.00308124
0.000863755
0.00316532
0.00254478
0.00491547
0.00267548
0.00577408
0.000843664
0.00627948
0.0023189
0.00314978
0.002525
0.00330417
0.00116538
0.00292842
0.00346178
0.00233959
0.00631625
0.00684282
0.00113787
0.00304148
0.00102059
0.000928648
0.00274125
0.00321733
0.00192891
0.002744
0.00274431
0.000919679
0.00576912
0.00121163
0.00402903
0.00581443
0.00103536
0.00406407
0.00116527
0.00317034
0.00108775
0.00280718
0.00260522
0.0014087
0.0027352
0.00254184
0.00300113
0.00304567
0.00403068
0.00321882
0.00266164
0.00161601
0.00508726
0.00193489
0.00226657
0.00226172
0.00270593
0.000631962
0.00657246
0.00202769
0.00133201
0.00170894
0.000977118
0.00565946
0.00331352
0.00145902
0.000755381
0.00303284
0.00108007
0.00637947
0.00624928
0.00293377
0.00244058
0.0034801
0.00191666
0.00130159
0.00135909
0.00273885
0.00586975
0.00318448
0.00326162
0.00467849
0.00261705
0.000871128
0.00110413
0.00100976
0.000730171
0.000917764
0.0032851
0.00145855
0.00239588
0.00233031
0.00279413
0.00265254
0.00451632
0.00188203
0.00486019
0.0101839
0.00264958
0.00561242
0.00100752
0.00462115
0.00267738
0.00193929
0.00138627
0.00253499
0.00455428
0.00960126
0.00732207
0.00298585
0.000706232
0.00309141
0.00341961
0.000905613
0.00419814
0.00270453
0.00532792
0.0070032
0.00618859
0.00163012
0.00129875
0.00713953
0.00648643
0.00359209
0.00809587
0.00469093
0.0012372
0.000736674
0.000999158
0.00480601
0.00303148
0.000844577
0.00240719
0.00143651
0.00477355
0.00588489
0.0100858
0.00638332
0.000981058
0.00608576
0.00114046
0.00297809
0.00198665
0.00407373
0.00120842
0.00440268
0.00641544
0.0028597
0.00650768
0.00227581
0.00407939
0.00165515
0.00120073
0.00646487
0.00300532
0.00124567
0.00436325
0.00212544
0.0032945
0.000777673
0.00318958
0.00447548
0.00626749
0.00395104
0.00783888
0.000956685
0.00311335
0.00126218
0.00493986
0.0032872
0.00574113
0.00172356
0.00072961
0.00225664
0.00662723
0.00103616
0.0014443
0.00160885
0.00340848
0.00837842
0.00127681
0.00417491
0.00343145
0.00801838
0.000671092
0.00475599
0.00396496
0.00316357
0.000740254
0.00462461
0.000726634
0.00278634
0.00617039
0.00288621
0.00908994
0.000715971
0.00251474
0.00279538
0.00230744
0.000852058
0.00390982
0.00428768
0.00281243
0.00851377
0.000708305
0.000929497
0.00168854
0.00114047
0.00206022
0.00117606
0.000861636
0.00524227
0.00245904
0.00498279
0.00146564
0.00224006
0.00124645
0.000952219
0.00644731
0.00165861
0.00328428
0.00273073
0.0027632
0.00887526
0.00200724
0.00139791
0.00955282
0.00116593
0.00709169
0.00281469
0.00324265
0.00105614
0.00681971
0.00220964
0.0095007
0.00164461
0.000768213
0.00141524
0.00116312
0.0031416
0.00442122
0.00405783
0.00474993
0.00293885
0.00173667
0.00120927
0.00129951
0.00728302
0.00148387
0.00146146
0.00276831
0.000938121
0.00151024
0.00142332
0.00326224
0.00633105
0.00131026
0.00187264
0.00578762
0.00379135
0.0026796
0.00637418
0.00173001
0.00218272
0.00271567
0.00652174
0.000887436
0.00535365
0.000877306
0.00263379
0.00354137
0.0026108
0.00158032
0.00281866
0.000914279
0.00445659
0.00255595
0.000856773
0.00131751
0.00160434
0.0020973
0.000772013
0.00236772
0.00126024
0.00455546
0.00133582
0.0012448
0.00285056
0.00155471
0.00729117
0.00203608
0.00469795
0.00666155
0.00274807
0.00653974
0.00088659
0.0017347
0.000941511
0.00355795
0.00126819
0.00162331
0.0067623
0.00186993
0.00576517
0.00396332
0.00660385
0.000807633
0.000834991
0.00605432
0.00167695
0.00644163
0.00250927
0.00171708
0.00110122
0.00130368
0.00147254
0.00118888
0.00298167
0.00714141
0.00462754
0.00106916
0.00102422
0.00665201
0.0011862
0.00442259
0.00247099
0.00244825
0.00174143
0.00175669
0.00336073
0.00146531
0.00411443
0.00241439
0.000949802
0.00467552
0.00184134
0.00301359
0.00122061
0.00117655
0.000791704
0.000839703
0.001508
0.000948544
0.00130449
0.000749518
0.00259257
0.00217199
0.00272061
0.00882735
0.00074733
0.0010589
0.00109024
0.00475149
0.00353921
0.000944277
0.00104424
0.000920133
0.00337658
0.00121778
0.00312526
0.00274268
0.0173338
0.00106586
0.00270195
0.00636053
0.000880735
0.00153808
0.00507997
0.00160181
0.00293627
0.0010933
0.00277481
0.0034596
0.00261057
0.00275313
0.00923013
0.00446604
0.000803721
0.00269834
0.00622835
0.00377338
0.00289227
0.00104596
0.00393011
0.00162074
0.0025241
0.0023916
0.00134695
0.00154579
0.00386718
0.00171919
0.00185063
0.000958129
0.00160018
0.00149894
0.0032502
0.00285677
0.00488603
0.00256351
0.00128002
0.00175429
0.00491657
0.00294169
0.00117994
0.00277815
0.00362997
0.0023883
0.0020902
0.00229668
0.0030409
0.00223516
0.00231487
0.00245853
0.00330003
0.00869415
0.000935383
0.00106318
0.00477738
0.00324093
0.00205235
0.000616289
0.00489014
0.00214102
0.000968562
0.00370639
0.00368347
0.00319445
0.00136261
0.0012664
0.00293994
0.0151218
0.00112908
0.00310614
0.00743049
0.00315652
0.00447919
0.00137766
0.00230088
0.00240419
0.00436766
0.00248444
0.00198864
0.0010629
0.00430161
0.00291523
0.00440661
0.00133748
0.0025028
0.00254954
0.00117168
0.00331807
0.00283602
0.00157127
0.002141
0.000890196
0.00317978
0.0033214
0.000746205
0.00299067
0.0026672
0.00272066
0.00319702
0.00375026
0.00471795
0.00272779
0.00249139
0.00564129
0.0028889
0.0009204
0.00129511
0.00349971
0.00709456
0.00218856
0.00307284
0.000765177
0.00655553
0.00453173
0.00120937
0.00389056
0.00105943
0.00106046
0.00117576
0.00645157
0.000741257
0.00199325
0.00275897
0.00361636
0.00307345
0.00277331
0.00194829
0.00297479
0.000813824
0.00130119
0.00467204
0.00102984
0.00181389
0.00297995
0.00244964
0.0018681
0.00135988
0.000972271
0.00626943
0.00109607
0.00138805
0.00438576
0.000900668
0.00458111
0.00185436
0.00100751
0.00282761
0.00778682
0.00280913
0.00139529
0.00282273
0.00122347
0.0012945
0.00617761
0.00203217
0.00154013
0.00288636
0.00771615
0.00433982
0.0031775
0.00121405
0.00273601
0.00140055
0.00288657
0.0014503
0.00466504
0.00100183
0.00307395
0.00153341
0.00314016
0.000964149
0.00679305
0.00146869
0.00127499
0.00315665
0.00507521
0.00153779
0.000779571
0.00515375
0.00177617
0.00188728
0.00260419
0.00158578
0.00119384
0.00521273
0.0020336
0.000986717
0.00672074
0.00426428
0.00384245
0.00225378
0.00135577
0.001887
0.00304314
0.00217973
0.00559418
0.000913411
0.00172795
0.00177567
0.00309298
0.000739802
0.00118804
0.00487787
0.00476214
0.00142619
0.00102587
0.00628263
0.00632005
0.00209075
0.000985329
0.00186473
0.000906713
0.00114699
0.00128117
0.0023892
0.00297887
0.00195306
0.00261829
0.00123
0.00143097
0.00474411
0.00618127
0.00235298
0.000806794
0.000947328
0.00204301
0.00185723
0.00466963
0.00211561
0.00271744
0.00469454
0.00677269
0.00254628
0.0025481
0.0053321
0.00674746
0.00256787
0.00114459
0.00683759
0.00174546
0.00256553
0.00179064
0.00267397
0.00106552
0.00168427
0.00614154
0.0042204
0.00290629
0.0022741
0.000839673
0.00173174
0.00300258
0.00305907
0.00403703
0.00148145
0.00737319
0.00110511
0.000871689
0.00114329
0.00314449
0.0067413
0.00321815
0.00240331
0.000712748
0.00269321
0.000909709
0.00102906
0.0044279
0.00340926
0.0173403
0.000893119
0.0012883
0.000848324
0.00284964
0.00150241
0.000741919
0.00104815
0.00130762
0.00129909
0.00197079
0.00116179
0.00309482
0.00650843
0.00203514
0.00495007
0.000951579
0.00104578
0.00150399
0.00613796
0.00135963
0.00264802
0.00650297
0.00638999
0.00106846
0.00258532
0.00101961
0.00111308
0.00152204
0.0010098
0.00582209
0.00441374
0.00457722
0.00326951
0.000909857
0.00125171
0.00100816
0.00091987
0.00100407
0.00725059
0.000947395
0.00618383
0.00198318
0.000985308
0.00591214
0.00307706
0.00108121
0.000931545
0.00125166
0.00252026
0.00484957
0.00133202
0.00439921
0.00348802
0.00364879
0.00119587
0.00207982
0.0048834
0.00309781
0.00448086
0.00231342
0.00224655
0.00250389
0.00350071
0.00193151
0.00215984
0.00175347
0.00197628
0.00513192
0.00439343
0.00231853
0.000892607
0.00290044
0.00346825
0.000924397
0.00107033
0.00110095
0.00629718
0.0123999
0.00325148
0.00178331
0.00236849
0.00116331
0.00602228
0.00437307
0.00114652
0.00105271
0.00288856
0.00330763
0.00179565
0.00211975
0.00250227
0.00297343
0.00186441
0.00137961
0.00123502
0.00104635
0.000894484
0.00146406
0.00244453
0.00316009
0.00105895
0.00481896
0.00291049
0.00193902
0.00335745
0.000931051
0.00104534
0.00200125
0.00140737
0.000858858
0.00238691
0.00212082
0.00166624
0.0037257
0.00581738
0.00262702
0.00305915
0.00643949
0.00138542
0.00114557
0.00266053
0.00111926
0.00685907
0.000962202
0.00133807
0.00152567
0.00231301
0.000790504
0.00687697
0.00086953
0.00632491
0.0010331
0.00681842
0.00159818
0.000883109
0.00246135
0.00661264
0.00329061
0.00116665
0.000970297
0.00297859
0.00319294
0.00115397
0.00303344
0.00479063
0.00287325
0.000978923
0.00276542
0.00275143
0.00544905
0.00159544
0.00267999
0.000816919
0.00102016
0.000961728
0.00112231
0.000981761
0.00596109
0.00471132
0.00574104
0.00144973
0.00358473
0.00444435
0.00641771
0.002936
0.00659794
0.0018482
0.00661765
0.00236701
0.00364146
0.00128512
0.00277604
0.00320947
0.00443217
0.00310099
0.00321225
0.00208704
0.000916681
0.00925464
0.00210622
0.00646551
0.00101277
0.00153892
0.00302673
0.00141696
0.00158496
0.0024317
0.00141635
0.00353511
0.00490157
0.00117037
0.00332686
0.00484976
0.00141594
0.00131272
0.00454439
0.00613255
0.00102453
0.00422581
0.00282285
0.00665526
0.00286509
0.00466721
0.0063136
0.00454704
0.00706323
0.000957732
0.00137188
0.00304177
0.00643641
0.00221919
0.000760042
0.001077
0.000906039
0.00176104
0.00457912
0.00181436
0.00911975
0.00146618
0.00358613
0.000857986
0.00660376
0.00122923
0.00126384
0.0065439
0.00462478
0.000846407
0.00111827
0.0058918
0.00156421
0.00119968
0.00310162
0.00193917
0.0041938
0.00062961
0.00150472
0.00329708
0.000991537
0.00104972
0.00248524
0.00119213
0.00141617
0.000904239
0.0038831
0.000912855
0.00103377
0.00095766
0.00147684
0.00333044
0.00105503
0.00647376
0.000825087
0.00696457
0.0128112
0.00323976
0.00102575
0.00109857
0.00476338
0.00168712
0.00104111
0.00164314
0.000770862
0.00703777
0.00682507
0.00885567
0.00309115
0.00581489
0.00136889
0.00435544
0.00106086
0.00483259
0.00599581
0.00338029
0.00284855
0.00220841
0.000920827
0.00256103
0.00463028
0.00446921
0.000791252
0.00145689
0.0069411
0.000980746
0.00285181
0.00149927
0.00265678
0.00154318
0.00278631
0.00099721
0.00114842
0.00155422
0.00358619
0.00413154
0.00345903
0.00468621
0.000868258
0.00246012
0.0027665
0.00293439
0.000922869
0.00104641
0.00145589
0.00285855
0.000769079
0.00591739
0.00322548
0.00129534
0.00436156
0.00139034
0.00127361
0.000861045
0.00124039
0.00148327
0.00117299
0.0013977
0.00211979
0.000911176
0.00199384
0.0063873
0.00589584
0.00107149
0.000882138
0.00140824
0.00138136
0.00101311
0.00628701
0.00119014
0.000829665
0.00148817
0.00123994
0.00461128
0.00289568
0.00373421
0.000841789
0.00264936
0.0010612
0.00640154
0.000604334
0.0044592
0.00145966
0.0029487
0.00307914
0.00118713
0.00178432
0.00444663
0.00615657
0.000896146
0.00861129
0.00184442
0.0022491
0.00145049
0.00140257
0.00142158
0.000957692
0.00596532
0.00104427
0.000683099
0.00325632
0.0065555
0.00178946
0.000896584
0.00141919
0.00107982
0.00452185
0.00218871
0.00583959
0.00166297
0.000953365
0.00127938
0.000576194
0.00428766
0.00646587
0.00317676
0.00259027
0.0043323
0.000918994
0.0044715
0.000829948
0.00307543
0.00649179
0.0009554
0.00143261
0.00144444
0.0027094
0.000723737
0.000981729
0.00486892
0.00319588
0.0060264
0.00238123
0.00278495
0.0031617
0.00109007
0.00715338
0.00411179
0.0039487
0.00369249
0.00149231
0.0011026
0.00160856
0.00706047
0.00060146
0.00134469
0.00110059
0.00337114
0.00078151
0.00262034
0.00121123
0.00225236
0.00394232
0.00279992
0.00147163
0.0041668
0.00196666
0.00136151
0.00104725
0.00149677
0.00187245
0.00276108
0.00451998
0.00329467
0.00308015
0.00629907
0.00090705
0.00425753
0.00159477
0.0064289
0.00418205
0.00303737
0.00188035
0.00105706
0.00425995
0.00604332
0.00134697
0.00163185
0.00245947
0.00101436
0.00618357
0.00142709
0.00453476
0.000878548
0.00175261
0.00279788
0.00174997
0.00245861
0.0016418
0.00205764
0.00245505
0.00152845
0.00237035
0.000927912
0.00539197
0.00687201
0.00099408
0.00732637
0.000596414
0.00080365
0.00142376
0.00326047
0.000748639
0.00460557
0.00329997
0.00303218
0.0012793
0.00382948
0.00064057
0.00311127
0.00173085
0.000950414
0.00425908
0.00100347
0.000701088
0.00135599
0.00114537
0.00669909
0.00627813
0.00206106
0.00093749
0.00241943
0.00114049
0.00755455
0.00357573
0.00251099
0.0030407
0.00203361
0.00467
0.00109256
0.00159359
0.00470026
0.00547487
0.00333608
0.00144569
0.00648079
0.00108204
0.00399793
0.00672828
0.00157981
0.00259569
0.00312109
0.00137794
0.00243576
0.0012118
0.00260962
0.000840247
0.000893522
0.00243923
0.00124266
0.00650706
0.00454206
0.000764367
0.00212648
0.00100855
0.0064983
0.00635913
0.00107466
0.00564469
0.00140022
0.00204035
0.00299127
0.00428747
0.00262789
0.00257052
0.000964218
0.00153016
0.000949606
0.00283075
0.00626765
0.00244589
0.00663392
0.00369922
0.00447771
0.00415055
0.00195268
0.00348247
0.00130508
0.000922828
0.00113591
0.00115158
0.00210592
0.00194413
0.00304529
0.00259543
0.00215749
0.00198257
0.00460099
0.0010702
0.00666089
0.00138432
0.00427378
0.00158391
0.000977069
0.00945542
0.00585854
0.00119236
0.00308511
0.00659636
0.00119618
0.00620113
0.00298863
0.00234971
0.00190237
0.00325118
0.00429449
0.000967433
0.00293531
0.00312691
0.00185934
0.0018799
0.00248745
0.00423518
0.000855973
0.000745329
0.00342174
0.00192693
0.00207565
0.0018361
0.00339628
0.00647837
0.0042022
0.0008677
0.0032313
0.00106693
0.00396946
0.00253586
0.00272004
0.000690321
0.001016
0.00135628
0.00287607
0.00272555
0.00647779
0.00156702
0.000694062
0.00287086
0.000861124
0.00634554
0.00158305
0.00236795
0.00684793
0.000931495
0.000963583
0.00177521
0.00997522
0.00720662
0.00513696
0.00286338
0.00263212
0.0067238
0.00620408
0.00722975
0.00138002
0.00212003
0.00138521
0.00193372
0.00115619
0.00648772
0.00151987
0.000803723
0.00655567
0.00665731
0.00634025
0.00160635
0.00588183
0.00167809
0.0046403
0.00342567
0.00149445
0.00395817
0.00122771
0.00161679
0.00303215
0.00101457
0.00163429
0.00250313
0.00317656
0.000917236
0.00140295
0.00182796
0.00649994
0.00161205
0.000937516
0.000603275
0.000867413
0.00258297
0.00274847
0.00451955
0.00686834
0.000989997
0.0033321
0.00283668
0.00174447
0.00371234
0.000817292
0.0031901
0.000845983
0.00216145
0.00397587
0.0038397
0.00248735
0.00131194
0.00171556
0.00174233
0.00164933
0.00240588
0.00098227
0.0010232
0.000808295
0.00132547
0.000937319
0.00284888
0.00127353
0.000877405
0.00647924
0.00426168
0.00728961
0.000974891
0.000946778
0.00120011
0.00296602
0.00121979
0.00375096
0.00269669
0.00628035
0.00066734
0.00240644
0.0021528
0.00626948
0.00368158
0.00344057
0.00629345
0.00403853
0.00237706
0.00282416
0.0059297
0.00452687
0.00280552
0.00331076
0.00265675
0.00112712
0.00112215
0.00154328
0.000794309
0.00114235
0.00442323
0.00307854
0.00111242
0.000862637
0.000893544
0.00089911
0.0019417
0.00200614
0.000951887
0.00299933
0.00430928
0.00167147
0.00207834
0.00677431
0.00248196
0.00631673
0.00119779
0.00137346
0.00198333
0.00193986
0.00295994
0.00678976
0.00305694
0.00342676
0.00263121
0.00113902
0.00173897
0.00506557
0.00155114
0.00173203
0.0024005
0.000904367
0.00624113
0.00257904
0.000806051
0.00210196
0.00269937
0.00220981
0.00214221
0.00121623
0.00107271
0.00105905
0.00214085
0.00254799
0.00124326
0.00148672
0.00599132
0.00623302
0.0015552
0.000822882
0.00224247
0.00224238
0.00625822
0.00102076
0.000809704
0.00113678
0.00132442
0.00168903
0.000846366
0.00105039
0.00276416
0.000813571
0.00077707
0.00392378
0.000854829
0.000988892
0.00638942
0.000640288
0.00127044
0.00105353
0.0012919
0.00227053
0.00504712
0.00190989
0.00155136
0.002241
0.00157279
0.00193783
0.000641302
0.00143411
0.000668092
0.00639396
0.000643997
0.00418124
0.00459973
0.000959576
0.00603443
0.00265355
0.00172496
0.00224825
0.00294866
0.00119857
0.00639134
0.000886997
0.00429591
0.00115276
0.00136051
0.00135534
0.00230778
0.00132371
0.00156513
0.0030494
0.00172835
0.00161183
0.00152092
0.00442765
0.00154446
0.00303937
0.00266185
0.00289707
0.0009839
0.00181063
0.00205345
0.00622882
0.00112095
0.00662732
0.00269845
0.00610235
0.00418433
0.00115611
0.000835786
0.00111288
0.000946641
0.00547602
0.00205235
0.00610389
0.00567032
0.00127112
0.00324498
0.00129686
0.000812182
0.00147769
0.00646865
0.00283779
0.00457747
0.00249644
0.002045
0.00258948
0.00122674
0.00136909
0.00281565
0.0027811
0.00583199
0.0012065
0.00192498
0.00272037
0.00133952
0.00254367
0.00222272
0.000754026
0.00281569
0.00124513
0.00269925
0.00110682
0.00140536
0.00253223
0.00155343
0.00181029
0.00121566
0.00165848
0.00145464
0.00278794
0.00131572
0.0045836
0.00194828
0.0028723
0.00263073
0.000716192
0.00314093
0.0104809
0.00172781
0.00238989
0.00126939
0.000883011
0.00411103
0.000733172
0.00185647
0.00159982
0.00128653
0.00290888
0.0029821
0.000806652
0.0042643
0.00446291
0.00678426
0.00084058
0.00191595
0.00276673
0.0009958
0.00101343
0.00102492
0.00334758
0.000989021
0.00246216
0.00265312
0.00312953
0.00335167
0.00500137
0.00705652
0.00670535
0.00245128
0.00180823
0.00282604
0.00280943
0.00141544
0.00149151
0.00224864
0.0065377
0.00374708
0.00222936
0.00236223
0.00311768
0.00285373
0.00337144
0.000604234
0.00405997
0.00182035
0.00110446
0.00116484
0.00151467
0.0012485
0.00247179
0.00109363
0.00308142
0.00117345
0.00112132
0.00257189
0.0027091
0.00438243
0.00242222
0.00313127
0.00297387
0.00472015
0.00128022
0.00536738
0.0024108
0.00112626
0.00390537
0.00296432
0.003285
0.00179152
0.000866702
0.00231982
0.00142994
0.00202715
0.00139852
0.00148068
0.00137989
0.00253249
0.00172655
0.00294728
0.00284934
0.00106755
0.00233024
0.00114225
0.00124998
0.00128748
0.00631942
0.00141487
0.00632115
0.00140858
0.00129628
0.00109125
0.00217089
0.00134838
0.00458313
0.00454196
0.00212719
0.00136247
0.00334062
0.000936264
0.00427276
0.00193295
0.000819479
0.00145531
0.000868322
0.00209762
0.000919387
0.00185382
0.00424972
0.00268861
0.00484448
0.00460493
0.00269383
0.000736762
0.000994268
0.00354372
0.00478492
0.00404881
0.00150994
0.00119999
0.00133745
0.00137188
0.0043554
0.00358875
0.00446454
0.00267562
0.00258644
0.00311702
0.00147143
0.00260702
0.00596047
0.00125234
0.00401018
0.00735053
0.00653462
0.00143449
0.000696484
0.00252507
0.0027148
0.00332575
0.00504045
0.000870987
0.00248298
0.00175662
0.00154152
0.0068465
0.000887072
0.00197378
0.00183497
0.00125836
0.000738362
0.00244999
0.00146922
0.00222712
0.0010485
0.00639024
0.00135755
0.00303268
0.00129404
0.00504633
0.00152345
0.000905411
0.00195886
0.000908918
0.00620392
0.00090787
0.000960448
0.00234539
0.00105356
0.00155874
0.00123265
0.00166785
0.000885406
0.00272229
0.00301804
0.00300171
0.00115133
0.00223347
0.000980303
0.00125926
0.00175948
0.00164065
0.00120861
0.00461593
0.00118121
0.00322084
0.00518236
0.000841497
0.00524653
0.000913018
0.00252947
0.00418013
0.00123343
0.00408675
0.006082
0.00629624
0.00484877
0.00436878
0.00209374
0.00106622
0.00264413
0.000775979
0.00296868
0.00193211
0.0030678
0.00172819
0.00653969
0.000822847
0.000919908
0.000672726
0.00164801
0.00598688
0.00451324
0.000853719
0.00621814
0.00259875
0.00438061
0.000830135
0.00235504
0.00312083
0.00331983
0.00167568
0.00437999
0.00612129
0.00455106
0.00117909
0.00270025
0.00627275
0.000917344
0.0013123
0.00603685
0.00123847
0.00532071
0.000701812
0.00102918
0.00279613
0.0019619
0.00953614
0.000884129
0.00478502
0.00274557
0.00145952
0.000974216
0.00186342
0.00136916
0.000891267
0.0053053
0.00117467
0.00103292
0.00328078
0.00288361
0.00288861
0.00650786
0.00171852
0.00153731
0.00240646
0.00241161
0.00111948
0.0069162
0.00616999
0.00423122
0.00240823
0.00492752
0.000757732
0.00668091
0.00422482
0.00139321
0.00291172
0.00445714
0.0046418
0.00095114
0.00158892
0.00290469
0.00293597
0.00100183
0.00156684
0.00085114
0.00093028
0.00159666
0.00252701
0.00273757
0.00673715
0.00149835
0.00152007
0.00265702
0.0053905
0.00246237
0.00213773
0.00105762
0.00143291
0.00707116
0.000830202
0.000844678
0.00676334
0.00128056
0.00181444
0.00134561
0.00377064
0.00229991
0.0038767
0.00271517
0.00268267
0.00625919
0.00241991
0.00173596
0.00259252
0.000917064
0.00183939
0.00193213
0.00232451
0.00308808
0.00610671
0.00222431
0.00126025
0.00100294
0.00176009
0.00306436
0.000901733
0.00317581
0.00258129
0.00120499
0.00381354
0.000831522
0.0015753
0.00110273
0.00441687
0.00598209
0.00241675
0.00181989
0.0038406
0.00500745
0.00130503
0.00140698
0.00127472
0.00661328
0.00132516
0.00186823
0.00207616
0.00148626
0.00104476
0.00081662
0.00316611
0.000942379
0.00190493
0.00140988
0.00614849
0.00681112
0.000930198
0.00105079
0.0013333
0.00156101
0.00226318
0.00168014
0.00261309
0.00184007
0.0014086
0.00229545
0.00103509
0.00169175
0.00198525
0.00117126
0.00186751
0.00111824
0.00572376
0.000718086
0.00100952
0.00085122
0.000831777
0.000947351
0.00119426
0.00436389
0.00104357
0.00186594
0.00125393
0.000720209
0.0044012
0.00221099
0.000876108
0.00699535
0.00131765
0.00472539
0.000824619
0.0011461
0.000804152
0.000820809
0.00065363
0.00429049
0.00644222
0.0099459
0.00318111
0.00426946
0.00144524
0.00198107
0.00414048
0.00344084
0.000908057
0.00270287
0.000895877
0.000747458
0.00181851
0.00301541
0.00179395
0.00676237
0.00215639
0.00443857
0.00685512
0.00136727
0.00250503
0.00174702
0.00156447
0.00253065
0.00119207
0.00144258
0.00113852
0.0014429
0.00104832
0.003517
0.00536768
0.000949989
0.00161307
0.00109443
0.00302517
0.00131181
0.00116886
0.00131731
0.00150191
0.00157904
0.0013985
0.00103081
0.00165688
0.000729331
0.00104831
0.000982361
0.00113714
0.00467164
0.00107887
0.000968652
0.00134283
0.00240937
0.000915526
0.00239616
0.00441691
0.000719878
0.0025369
0.00363855
0.00137655
0.00136391
0.00278204
0.00211938
0.000957638
0.00623547
0.00116828
0.00150123
0.0019885
0.00264731
0.00199724
0.0015932
0.000770602
0.00169041
0.00091014
0.000964918
0.00127294
0.00689914
0.000898431
0.00128106
0.00181072
0.00113467
0.00120626
0.00136869
0.0124024
0.00282627
0.00414763
0.000876516
0.00206254
0.00163592
0.00123827
0.00119852
0.00157827
0.00387005
0.00602585
0.00177226
0.00156911
0.00893314
0.00420199
0.000997326
0.00114572
0.00329598
0.000788232
0.000792762
0.000700412
0.000992173
0.00660596
0.00107906
0.001947
0.00439433
0.00163072
0.0027482
0.00118317
0.00612146
0.00459929
0.00124705
0.00295941
0.000888583
0.0033097
0.00104456
0.00464352
0.00516774
0.000811791
0.00596341
0.00323032
0.000842975
0.00606328
0.00128208
0.00360083
0.00265616
0.00325032
0.00236895
0.00485269
0.00481135
0.00096858
0.00172774
0.000983903
0.00318962
0.00125252
0.00128171
0.000839876
0.00266955
0.001099
0.00317817
0.00107664
0.00222002
0.00132378
0.000775685
0.00187353
0.00776555
0.000842963
0.000882146
0.00144009
0.00509114
0.000638641
0.00720148
0.00135798
0.00136971
0.00231235
0.00193584
0.000795813
0.00129162
0.00839425
0.00315246
0.00164128
0.00138493
0.00289933
0.00261411
0.00137159
0.000945907
0.00281151
0.00645372
0.0025027
0.0018325
0.00169715
0.00261737
0.000864972
0.000925119
0.00654954
0.00142597
0.0067985
0.00424062
0.000888878
0.00134582
0.000878144
0.00530925
0.00199226
0.00153212
0.00115352
0.0027266
0.00138744
0.00466813
0.00128418
0.00132407
0.000732152
0.00114206
0.00320135
0.00116853
0.00609079
0.00099799
0.00322799
0.00125274
0.00642764
0.00350281
0.00117658
0.00290691
0.00112662
0.00250366
0.00134401
0.00120179
0.00315626
0.00394711
0.00247441
0.00678532
0.00151066
0.00516042
0.00167702
0.000992022
0.00121772
0.00427195
0.0012249
0.00216924
0.00182743
0.00221805
0.00128561
0.00671352
0.00646575
0.00584061
0.00639237
0.00161842