/*--------------------------------*- C++ -*----------------------------------*\
| =========                 |                                                 |
| \\      /  F ield         | OpenFOAM: The Open Source CFD Toolbox           |
|  \\    /   O peration     | Version:  2406                                  |
|   \\  /    A nd           | Website:  www.openfoam.com                      |
|    \\/     M anipulation  |                                                 |
\*---------------------------------------------------------------------------*/
FoamFile
{
    version     2.0;
    format      ascii;
    arch        "LSB;label=32;scalar=64";
    class       volVectorField;
    location    "38";
    object      momentum:momentum;
}
// * * * * * * * * * * * * * * * * * * * * * * * * * * * * * * * * * * * * * //

dimensions      [1 1 -1 0 0 0 0];

internalField   nonuniform List<vector> 
59516
(
(2.29423e-07 5.34874e-11 -1.10633e-09)
(1.71888e-07 -2.29399e-10 -7.15028e-10)
(2.08837e-07 -1.96701e-09 -5.5861e-10)
(1.75207e-07 2.31099e-09 2.58924e-09)
(2.00244e-07 3.86659e-10 -7.97659e-09)
(5.03648e-08 -2.40832e-09 -5.37964e-09)
(2.13242e-07 -6.37294e-10 -2.74818e-09)
(2.02161e-07 1.67245e-09 7.58805e-12)
(1.6058e-07 1.31155e-09 1.37762e-10)
(8.36285e-08 -1.46601e-09 3.27852e-09)
(2.06825e-07 -5.95944e-11 -2.59567e-09)
(1.0398e-07 7.84314e-10 -5.96325e-09)
(3.29659e-07 2.8661e-09 -3.41784e-10)
(1.64056e-08 -7.00124e-11 -1.79478e-10)
(1.58921e-07 3.87025e-09 8.27404e-09)
(8.81152e-08 6.05856e-09 -2.9135e-09)
(2.62721e-07 -2.69632e-10 -6.2007e-10)
(1.60255e-07 9.01815e-09 -9.66524e-09)
(3.31552e-07 1.56229e-08 2.48844e-09)
(3.64567e-07 -7.05212e-10 1.23941e-09)
(1.0096e-07 1.39074e-09 -2.03168e-09)
(3.18312e-07 -8.5535e-10 7.58949e-10)
(3.50602e-07 7.25424e-10 -1.85366e-09)
(3.64829e-08 -1.11573e-09 -2.40773e-10)
(3.08592e-07 -9.77991e-10 1.94825e-09)
(2.09066e-07 4.35869e-09 2.31116e-09)
(5.47064e-08 1.09235e-09 -3.59981e-09)
(7.47217e-08 6.19268e-09 4.69597e-10)
(1.46647e-07 5.37229e-09 -6.63357e-10)
(1.42831e-08 -2.2177e-09 5.86513e-10)
(1.89427e-07 -3.67609e-08 -8.08879e-09)
(8.4342e-08 6.5256e-09 -1.01771e-09)
(1.76088e-07 1.77528e-10 1.15507e-09)
(1.78435e-07 -1.17742e-09 3.71413e-09)
(1.33197e-07 4.13952e-09 3.23933e-09)
(3.99522e-07 -2.55806e-10 -4.24597e-10)
(1.37917e-08 -1.33746e-09 -1.92678e-09)
(1.32028e-07 5.0383e-09 -1.25872e-08)
(2.69981e-07 -9.42947e-09 -6.16798e-10)
(2.7654e-07 -2.15667e-09 -6.34402e-10)
(2.64403e-07 -1.83157e-09 1.20572e-10)
(4.06298e-07 -2.25073e-08 -2.07284e-08)
(3.42729e-07 -6.47e-09 -5.09134e-09)
(1.14101e-07 -7.81033e-10 3.8935e-10)
(2.66109e-07 -6.42839e-09 1.45876e-10)
(1.06411e-07 -1.52107e-09 -2.56346e-09)
(3.26095e-07 -5.69074e-09 -8.73212e-09)
(2.51072e-07 -5.26751e-09 -7.59632e-10)
(2.51837e-07 -2.03338e-08 2.79947e-08)
(2.39249e-07 9.21702e-09 7.70532e-09)
(1.63903e-07 1.65018e-08 -2.28852e-08)
(8.01178e-08 -6.49452e-09 4.36798e-09)
(3.2166e-07 2.45688e-09 -5.80322e-09)
(3.05811e-07 -1.09351e-09 -5.60705e-11)
(8.3782e-08 4.90166e-09 6.65071e-11)
(2.47265e-07 3.58996e-09 -1.04878e-09)
(2.02568e-07 1.11023e-08 1.16854e-08)
(8.21653e-08 6.76605e-09 -4.71601e-09)
(2.00299e-07 1.13285e-10 -9.38693e-11)
(1.4552e-07 6.34408e-09 8.10702e-09)
(2.07605e-07 -3.31913e-10 5.32796e-10)
(1.61363e-08 1.96698e-09 -6.91164e-10)
(2.56588e-07 8.27292e-10 -3.22288e-10)
(3.33584e-07 3.15784e-09 1.52797e-09)
(2.99638e-07 7.83687e-10 -1.39077e-09)
(2.13818e-07 4.30187e-09 5.86485e-09)
(1.92787e-08 -1.29815e-09 1.75566e-09)
(6.92626e-08 3.43746e-10 -3.21999e-10)
(1.98206e-07 -8.25636e-09 3.62829e-08)
(1.69964e-07 1.52933e-09 -2.17383e-09)
(5.50257e-08 1.55178e-09 4.55488e-10)
(1.54196e-07 9.41739e-10 1.52269e-10)
(2.45598e-08 1.54199e-09 -3.76533e-09)
(1.86056e-07 1.11131e-10 3.11271e-10)
(3.5743e-07 -4.2608e-10 3.40286e-11)
(3.57795e-07 -2.63186e-09 -3.29061e-09)
(2.11879e-07 -1.75065e-09 -2.80263e-09)
(2.24907e-07 -2.97943e-11 -5.00076e-10)
(8.9146e-08 -3.01705e-09 2.7371e-09)
(1.914e-07 3.5586e-09 8.44896e-09)
(5.35984e-08 3.21389e-09 1.438e-09)
(1.70277e-07 4.11275e-09 5.8626e-09)
(1.82286e-07 2.22688e-09 6.30867e-09)
(1.92312e-08 -7.48846e-10 2.67118e-09)
(2.13865e-07 4.2243e-09 7.82475e-09)
(3.65181e-07 -4.68173e-10 1.28393e-09)
(3.32022e-08 -1.19992e-09 5.28333e-10)
(5.02534e-07 1.43323e-09 2.39395e-09)
(1.14741e-07 1.40558e-09 5.04124e-09)
(1.67095e-07 1.29305e-08 -8.78888e-09)
(1.83343e-07 -1.15319e-09 -1.56707e-08)
(1.87983e-07 2.48829e-09 -2.40114e-10)
(2.4967e-07 -9.90316e-11 -1.76563e-10)
(1.82007e-07 1.63473e-09 -3.33812e-10)
(1.77247e-07 4.64359e-10 7.04473e-11)
(1.83465e-07 -1.76554e-08 6.66065e-09)
(1.24448e-07 -5.2597e-10 7.25651e-10)
(8.8612e-08 -2.84425e-09 -6.86214e-09)
(1.16386e-07 4.09991e-09 -1.57622e-09)
(2.06479e-07 -1.22293e-09 2.05699e-09)
(6.48906e-08 1.09619e-09 2.41076e-09)
(2.79281e-08 1.36204e-09 -3.19159e-09)
(2.47183e-08 8.68636e-10 3.41389e-09)
(8.89155e-08 -1.32931e-09 -4.62926e-09)
(2.3564e-07 1.06955e-09 -4.01158e-10)
(1.61308e-07 -3.79647e-11 4.02692e-10)
(5.8436e-08 5.04889e-09 -2.09274e-09)
(1.41487e-07 4.6535e-10 -8.79837e-10)
(1.80389e-07 -1.27564e-09 5.68651e-11)
(1.96596e-07 1.23101e-09 -7.96834e-09)
(2.80214e-07 2.87718e-08 -3.01737e-08)
(4.54673e-08 4.62528e-09 -6.11803e-10)
(1.95241e-07 2.38435e-09 -1.1787e-08)
(2.19229e-07 3.21348e-08 -1.61416e-08)
(2.17364e-07 -5.37135e-11 -1.444e-10)
(1.41689e-07 1.50115e-09 1.42559e-09)
(1.31774e-07 1.31702e-09 -5.16071e-09)
(1.45026e-07 1.06832e-10 8.85077e-10)
(1.94044e-08 -2.64013e-10 9.39242e-10)
(2.61058e-07 2.55426e-09 6.96942e-10)
(3.8722e-07 -1.03074e-09 7.58801e-10)
(1.70511e-07 5.85827e-12 3.50235e-10)
(1.58038e-07 -4.03833e-10 6.17102e-10)
(1.76974e-07 -4.71289e-10 5.77647e-10)
(1.32944e-07 -1.76138e-08 2.80604e-09)
(1.4496e-07 1.85478e-09 -4.25632e-09)
(3.78248e-08 -6.25722e-10 2.47464e-09)
(2.12013e-07 -2.01888e-08 -1.41904e-09)
(1.63213e-07 -5.01569e-09 2.38448e-08)
(1.52092e-07 4.92589e-10 8.20278e-11)
(2.68144e-07 6.99688e-10 8.90804e-10)
(3.31419e-07 4.60725e-09 5.43486e-09)
(2.39588e-08 1.39703e-09 -1.64136e-09)
(2.55423e-07 -1.42717e-10 1.10949e-09)
(3.24103e-07 3.43473e-09 8.94984e-10)
(2.01878e-07 -1.41494e-09 -3.15387e-09)
(1.51892e-07 1.79428e-08 -1.25888e-08)
(3.18108e-07 -7.5921e-10 1.25805e-09)
(5.4629e-08 3.6786e-09 1.4912e-10)
(1.63392e-07 6.70013e-10 -2.05842e-09)
(7.98557e-08 -1.62262e-09 -3.99782e-09)
(3.12709e-07 -6.59989e-10 5.27107e-10)
(1.46305e-08 6.5965e-10 1.27948e-09)
(1.52806e-07 -1.48096e-09 -4.75948e-10)
(2.0739e-07 5.56166e-10 2.03475e-10)
(2.83331e-07 2.90694e-09 -1.9031e-11)
(2.03537e-07 -5.85264e-09 -1.74182e-09)
(2.08725e-07 1.69089e-09 -3.99249e-09)
(6.40375e-08 -1.03734e-09 1.7853e-09)
(2.11797e-07 -1.56279e-09 -1.64567e-09)
(3.27538e-07 -6.7754e-11 -2.6047e-09)
(5.54117e-08 -2.0347e-09 4.54847e-11)
(3.7771e-07 -1.98424e-09 2.45997e-09)
(2.16651e-07 -6.37905e-10 8.75943e-10)
(1.63952e-07 -7.9183e-10 3.52582e-09)
(1.55272e-08 -3.23505e-10 1.68059e-09)
(2.84235e-07 2.38247e-11 -3.51084e-10)
(3.37704e-07 3.35366e-09 -6.92344e-10)
(1.33057e-07 1.83587e-09 1.75175e-10)
(1.67473e-08 2.01827e-09 -2.18403e-09)
(9.23053e-08 2.10157e-09 -4.71997e-09)
(1.15853e-07 -6.12836e-09 -4.01921e-09)
(4.18923e-08 -1.71458e-09 4.24547e-10)
(2.37894e-08 -2.04594e-10 -4.65206e-10)
(1.67697e-07 2.94771e-09 3.89697e-09)
(3.17608e-07 5.38508e-10 2.09646e-09)
(1.60894e-07 -1.80702e-09 8.39776e-10)
(2.69458e-07 8.76849e-10 -1.70917e-10)
(1.81367e-08 -1.10111e-09 2.09863e-09)
(2.13916e-07 -7.83675e-10 2.75879e-10)
(8.97762e-08 1.39347e-09 1.21319e-09)
(7.00143e-08 9.89184e-10 -1.06109e-09)
(1.10321e-07 2.69652e-09 1.52639e-09)
(1.52221e-07 -7.17519e-10 7.1755e-10)
(8.88826e-08 -1.46434e-09 5.21112e-10)
(4.54242e-07 -3.81278e-09 -1.46498e-08)
(2.40676e-07 -2.15707e-10 -1.49606e-09)
(3.09576e-07 -9.25211e-09 -5.48004e-09)
(1.54094e-07 -2.0465e-09 7.17952e-09)
(6.54728e-08 -2.42242e-10 -8.93777e-10)
(3.06833e-07 3.91002e-09 1.66772e-09)
(4.47201e-08 -3.8685e-09 -1.72515e-09)
(3.13861e-08 -3.94694e-10 -2.49149e-09)
(1.0894e-07 -2.8879e-09 3.08559e-10)
(1.96417e-07 -1.58654e-10 6.31537e-10)
(1.00587e-07 5.36076e-10 1.17653e-09)
(4.80087e-08 -8.54156e-10 -3.71412e-09)
(2.12634e-08 2.71002e-11 2.74228e-10)
(1.94074e-07 1.63125e-10 1.5987e-11)
(2.3193e-07 -4.03052e-09 -3.82962e-10)
(1.58635e-07 -8.5469e-10 3.26328e-09)
(1.19726e-07 7.2116e-09 1.51207e-10)
(2.10885e-07 -6.63197e-10 -2.67674e-10)
(9.83266e-08 3.9537e-09 5.17384e-11)
(3.37846e-07 -4.53109e-10 -3.54786e-10)
(2.98728e-08 -2.51151e-10 8.26029e-10)
(1.01131e-07 1.3173e-09 -3.40673e-10)
(5.93531e-08 -1.57781e-09 4.20064e-10)
(1.90189e-07 4.77529e-09 6.3074e-09)
(2.62415e-07 1.07188e-09 -4.3867e-10)
(7.97491e-08 -2.68638e-09 3.64359e-10)
(1.8332e-07 -6.00796e-10 3.3644e-10)
(3.21008e-07 -2.09387e-09 2.78375e-09)
(1.68035e-08 1.81287e-09 -1.20257e-09)
(2.23929e-07 -2.4096e-09 -8.45702e-10)
(2.38371e-07 1.47935e-10 2.83444e-10)
(3.34228e-07 5.54427e-11 1.09449e-10)
(1.95478e-07 -1.21489e-09 -1.15009e-10)
(1.89832e-08 -5.60454e-10 1.75181e-10)
(3.08562e-07 -5.09415e-09 -4.44549e-11)
(6.29158e-08 4.45502e-09 3.81955e-09)
(2.54497e-08 -4.14277e-09 -6.65035e-10)
(2.32784e-07 6.36531e-10 -2.22781e-09)
(9.90365e-08 -1.91683e-09 1.31477e-09)
(2.99768e-07 3.30207e-09 4.5016e-10)
(2.81167e-07 -6.00773e-10 8.21696e-11)
(2.7308e-07 1.81378e-09 3.62527e-10)
(2.06214e-07 -1.56291e-09 6.4594e-10)
(8.6479e-08 3.49497e-09 -4.48531e-09)
(2.17342e-07 -5.14928e-10 1.0355e-09)
(1.24198e-07 4.8971e-09 3.98309e-09)
(1.98791e-07 8.65321e-10 -1.35164e-10)
(1.75588e-07 8.22088e-10 1.08975e-09)
(7.82861e-08 -3.64532e-10 1.42243e-09)
(2.88159e-07 -1.35223e-09 3.92449e-10)
(3.01025e-07 -3.00386e-10 -1.41944e-09)
(3.31431e-08 -3.38399e-10 1.68992e-09)
(6.81683e-08 2.17824e-09 -3.19161e-09)
(1.93858e-07 3.24923e-10 9.64355e-10)
(1.22137e-07 4.14276e-10 -8.93198e-09)
(2.35859e-07 -9.46928e-10 5.06762e-10)
(1.74586e-07 4.28595e-10 -4.56805e-10)
(3.04639e-07 1.01332e-09 1.70784e-09)
(2.79884e-08 -2.20668e-09 -1.5617e-09)
(3.25583e-08 8.61737e-10 -1.56502e-09)
(4.09846e-08 1.00204e-09 -1.42906e-09)
(1.13206e-07 6.15331e-10 6.94702e-10)
(1.79121e-07 -2.40789e-09 1.18747e-09)
(4.13754e-07 2.46069e-09 3.27338e-09)
(8.95874e-08 -1.90292e-09 2.22427e-09)
(2.39433e-07 -1.55401e-10 9.49692e-10)
(1.96626e-08 3.48738e-10 2.90188e-09)
(1.13648e-07 8.61464e-11 1.87982e-09)
(2.82676e-08 2.18175e-10 3.10215e-09)
(1.57643e-07 6.40207e-10 2.9034e-10)
(1.5746e-07 -8.25013e-10 -6.90224e-10)
(1.96041e-07 2.24315e-10 1.06279e-09)
(1.92499e-07 1.9811e-09 -4.20458e-09)
(2.72446e-07 -1.11367e-10 2.49436e-10)
(2.04184e-07 4.50024e-10 7.6652e-10)
(3.75453e-07 -2.74583e-09 7.35968e-10)
(2.13273e-07 1.9134e-10 1.00275e-09)
(1.8386e-07 2.38865e-10 7.54693e-10)
(2.80894e-07 6.32702e-10 -7.74984e-10)
(2.81614e-07 2.3816e-09 1.43477e-09)
(2.96561e-07 5.4277e-10 1.06543e-09)
(1.15475e-07 2.60572e-10 -4.99494e-10)
(2.81435e-07 1.44542e-09 2.62679e-09)
(8.39655e-08 -6.86264e-10 -4.61031e-09)
(1.0129e-07 7.75338e-10 3.56388e-09)
(2.20829e-07 1.40533e-09 -1.51392e-09)
(2.57688e-07 -9.44644e-10 1.21543e-09)
(2.43349e-07 5.64582e-09 3.15539e-09)
(2.75682e-07 -1.66499e-10 1.18925e-09)
(7.6441e-08 -6.45467e-11 1.66665e-09)
(1.10751e-07 4.48419e-09 -2.86589e-09)
(3.0032e-07 -8.77922e-11 -1.73839e-09)
(2.20281e-07 4.26875e-09 1.29783e-09)
(6.39338e-08 -1.04896e-09 -8.81431e-10)
(7.68674e-08 1.53392e-10 -2.09233e-09)
(1.67704e-07 9.31242e-10 -4.79843e-09)
(1.80962e-07 -7.85449e-10 -2.92602e-10)
(3.15058e-07 -7.13215e-09 2.36342e-10)
(1.53172e-07 -1.99063e-09 1.44722e-09)
(3.28018e-07 -2.38506e-09 -7.15312e-11)
(1.95586e-07 -1.2209e-09 5.42025e-09)
(2.03905e-08 2.40642e-09 -1.38492e-09)
(2.93907e-07 -7.53443e-11 1.99056e-09)
(3.00613e-08 1.91731e-09 -2.51528e-09)
(5.41308e-08 -2.21141e-09 1.45174e-09)
(3.3789e-07 5.13617e-10 2.03394e-09)
(2.51298e-07 -6.37191e-10 -5.02726e-10)
(2.88059e-08 3.12534e-09 3.09203e-09)
(3.02876e-07 2.37e-09 9.9649e-10)
(2.50579e-07 4.6326e-09 1.96239e-10)
(2.44673e-07 4.38651e-10 9.92368e-10)
(3.11034e-07 -1.10618e-09 3.24585e-12)
(2.42291e-08 2.85973e-09 5.76235e-10)
(2.67975e-07 1.52228e-10 1.07346e-09)
(1.41339e-07 -8.98852e-10 1.56904e-10)
(1.54174e-07 1.88215e-11 9.15091e-10)
(2.54071e-07 3.44266e-10 1.64071e-09)
(1.69903e-07 1.74843e-09 1.18985e-09)
(1.80896e-07 8.4534e-10 -6.52953e-10)
(2.60011e-07 1.8461e-09 3.27344e-10)
(4.00702e-08 -1.4292e-09 -1.84779e-09)
(2.7679e-07 -2.1523e-09 8.78293e-10)
(1.91319e-07 -1.31102e-09 -7.51428e-10)
(3.44732e-07 -1.41805e-09 1.25382e-09)
(2.58753e-07 -9.34626e-10 8.81021e-10)
(3.1256e-07 -1.89139e-09 1.56334e-09)
(1.40559e-07 2.21519e-09 3.08744e-09)
(2.04795e-08 -3.04008e-10 1.42682e-09)
(3.69532e-08 -8.78378e-10 6.19523e-10)
(5.05186e-07 -3.9261e-09 -1.77705e-09)
(1.90117e-08 -1.08327e-09 2.76899e-09)
(1.77438e-07 -8.65292e-10 -2.98524e-09)
(7.54761e-08 4.10109e-09 1.71033e-09)
(3.06469e-07 -3.98346e-10 1.52881e-09)
(3.61966e-07 -3.56275e-10 -1.056e-09)
(3.11912e-07 -4.2687e-10 -7.74446e-10)
(1.26104e-07 -2.72839e-10 -2.71744e-09)
(3.0037e-07 4.02749e-09 -6.04316e-09)
(7.00384e-08 -5.74107e-09 4.72359e-09)
(8.86362e-08 1.841e-09 2.18136e-09)
(1.9556e-07 2.44772e-10 5.9151e-11)
(1.59485e-07 1.90272e-09 -1.4452e-09)
(2.69478e-07 3.09983e-08 8.82831e-09)
(1.95313e-07 -4.09698e-09 2.03276e-09)
(6.62824e-08 -3.45523e-10 -7.10732e-10)
(1.05611e-07 -1.53262e-09 3.13169e-09)
(2.10002e-07 -1.46186e-09 -3.13116e-09)
(2.07476e-07 -1.76575e-11 -1.03597e-10)
(4.01462e-07 -7.06971e-10 1.22443e-09)
(2.135e-07 -2.99449e-10 1.27541e-09)
(4.81906e-07 -3.87676e-09 9.07181e-10)
(1.67195e-07 5.98869e-09 7.76928e-09)
(3.39817e-07 2.62257e-09 1.87919e-09)
(2.68476e-07 2.68305e-09 1.17499e-09)
(1.93748e-07 -6.37203e-10 1.80721e-11)
(3.30771e-07 -1.02229e-09 1.85006e-09)
(1.06461e-07 2.37575e-09 -5.88524e-09)
(2.39926e-08 -1.50045e-09 -2.85524e-09)
(2.91996e-07 -1.79211e-09 5.82931e-10)
(6.03242e-08 -2.80778e-09 3.26755e-09)
(2.93616e-08 1.60792e-10 7.76704e-11)
(3.85436e-07 1.21224e-09 3.67182e-09)
(1.99848e-07 -7.71749e-10 6.51202e-10)
(1.07428e-07 -2.53472e-09 -5.02344e-09)
(2.44736e-07 -1.54967e-09 8.32845e-10)
(3.21089e-07 -2.9231e-09 7.44255e-10)
(4.02537e-07 -2.07799e-09 -1.26967e-09)
(2.58054e-07 -1.12863e-09 -5.9575e-10)
(3.20658e-08 1.50241e-09 2.94834e-11)
(3.12787e-07 3.64531e-10 -2.89273e-10)
(2.08913e-07 -1.44997e-09 1.16261e-09)
(1.01361e-07 1.62911e-11 1.33226e-09)
(2.79855e-07 -1.12453e-10 2.20475e-09)
(2.40969e-07 -5.46366e-10 6.59953e-10)
(1.74814e-07 1.04385e-10 -1.1862e-09)
(2.01143e-07 1.74241e-10 -1.42258e-09)
(2.72617e-07 -1.45466e-09 2.17243e-09)
(2.01056e-07 -1.82457e-09 7.85082e-10)
(7.9453e-08 -3.89426e-10 -2.31788e-10)
(2.06597e-08 8.52789e-10 -6.68679e-10)
(4.03245e-08 -2.88793e-09 -2.31119e-10)
(2.24012e-07 1.14629e-09 1.67077e-10)
(2.67969e-07 -2.09396e-08 3.28653e-08)
(1.15822e-07 -6.5289e-09 -9.41823e-09)
(1.14102e-07 4.59299e-10 4.29326e-10)
(2.50804e-07 2.21943e-10 4.18836e-09)
(3.09886e-07 5.10957e-10 1.26858e-09)
(2.28789e-07 -1.35819e-09 5.25645e-09)
(3.56438e-07 -1.05453e-10 1.75758e-09)
(3.39743e-07 -1.55779e-09 -4.1161e-10)
(2.22018e-07 3.49504e-10 8.37789e-10)
(1.37152e-07 9.64541e-10 3.89952e-10)
(2.46684e-08 -7.32509e-10 -2.58785e-10)
(2.41015e-07 -4.74821e-08 5.87312e-09)
(8.95125e-08 2.36537e-09 8.31315e-10)
(6.57299e-08 -3.00437e-09 -7.06847e-10)
(6.9429e-08 1.41871e-09 5.02091e-10)
(1.69973e-07 -2.99233e-10 -2.94574e-10)
(1.76571e-07 -8.17704e-10 4.68615e-11)
(2.32516e-07 7.9908e-10 -1.34182e-09)
(1.75627e-08 9.77969e-10 -1.48996e-09)
(1.71077e-07 -5.42765e-10 2.62485e-10)
(6.65602e-08 1.59218e-09 -1.27522e-09)
(1.82236e-07 -6.28821e-10 -1.38979e-10)
(5.70836e-08 -7.14868e-10 -5.47758e-10)
(1.50998e-07 -3.5454e-09 3.00863e-09)
(2.23151e-07 -5.38505e-09 1.71113e-09)
(1.84261e-07 -9.7752e-10 1.57338e-09)
(1.9555e-08 1.61707e-09 -2.09368e-09)
(1.15228e-07 -1.21128e-09 5.04519e-09)
(2.3972e-07 -1.2095e-10 1.08078e-09)
(2.59854e-08 -1.61984e-09 -2.00631e-09)
(2.89391e-07 2.7756e-09 1.94365e-08)
(1.84534e-07 -1.09816e-09 3.92293e-09)
(3.05146e-07 -2.70499e-10 -4.5815e-09)
(2.03566e-07 4.46958e-09 -5.77392e-09)
(9.55973e-08 -1.11871e-09 2.06214e-09)
(3.87923e-07 2.52412e-09 -1.26835e-10)
(1.42097e-07 -1.44488e-08 -1.31678e-08)
(3.13827e-07 1.62683e-09 4.03109e-10)
(1.55477e-07 1.18875e-08 1.256e-08)
(1.45418e-07 -6.31289e-09 8.39926e-10)
(1.46869e-07 -8.87745e-10 -3.49366e-09)
(2.61015e-07 1.26586e-09 3.57494e-10)
(5.20353e-07 3.34536e-09 1.21488e-09)
(8.26752e-08 -7.92095e-10 9.4112e-10)
(3.40802e-07 1.58442e-09 -1.43152e-09)
(1.22287e-07 -6.6179e-10 -2.82061e-09)
(4.16731e-07 -6.71865e-10 1.71561e-09)
(3.17955e-07 -4.82528e-10 1.99497e-09)
(7.20038e-08 2.06646e-09 -5.35492e-09)
(2.19077e-07 -1.5571e-09 -2.00316e-11)
(3.80783e-07 -4.33581e-09 3.86031e-09)
(2.2755e-07 8.34759e-10 -3.24839e-10)
(2.19832e-07 7.27425e-10 7.41214e-10)
(2.44228e-08 -8.43224e-10 -3.12309e-09)
(2.04358e-08 1.05758e-09 -2.56619e-09)
(2.95297e-07 2.45835e-09 -3.64417e-09)
(2.73278e-07 1.97779e-10 7.99205e-12)
(2.10619e-07 -1.88238e-09 -8.38709e-10)
(3.71701e-08 3.96499e-10 -2.66056e-09)
(8.61786e-08 -7.25705e-10 3.03895e-10)
(3.07921e-07 -2.83971e-09 -1.39207e-09)
(1.60326e-07 4.69474e-11 8.29584e-10)
(2.98458e-07 1.82956e-09 7.75548e-10)
(2.71942e-07 1.41114e-09 -4.33617e-10)
(2.11522e-07 1.15728e-09 7.19547e-10)
(2.26105e-07 2.14648e-09 7.8118e-10)
(1.25207e-07 7.92944e-10 4.63637e-10)
(2.0407e-07 1.46238e-09 -1.97301e-11)
(9.09436e-08 -1.8256e-09 -4.55962e-09)
(2.80325e-07 3.61567e-10 -5.88789e-10)
(1.93643e-07 -6.58717e-10 -1.95246e-09)
(2.11785e-07 1.15701e-09 1.04239e-09)
(2.12205e-07 3.92414e-10 -2.36736e-10)
(3.4956e-07 -7.3053e-10 3.1025e-10)
(2.64616e-07 1.03096e-09 -1.73497e-09)
(7.04635e-08 4.00567e-09 3.71606e-09)
(4.63941e-08 1.1075e-09 3.81383e-10)
(2.04232e-08 1.75133e-09 -2.03424e-09)
(2.3001e-07 5.81784e-09 1.03524e-08)
(2.79422e-07 1.14264e-10 -1.16216e-10)
(2.71009e-07 -1.65428e-09 1.2084e-09)
(1.95339e-07 1.83042e-09 4.85935e-10)
(3.10036e-08 -7.0437e-11 1.12494e-09)
(2.34776e-08 -4.1551e-10 2.69263e-09)
(1.84219e-07 -6.26308e-10 2.78785e-09)
(2.2888e-07 -5.36708e-10 2.15708e-09)
(2.98143e-07 -8.01427e-10 1.32076e-09)
(3.17639e-07 1.23394e-09 -7.98587e-11)
(2.0048e-07 -1.35854e-09 -1.53276e-09)
(3.23307e-07 1.37825e-09 9.28205e-11)
(3.7802e-07 2.52528e-09 1.99615e-09)
(3.2999e-08 -7.30949e-10 3.10482e-09)
(1.85279e-07 -4.92259e-10 7.92563e-10)
(7.58134e-08 7.46951e-10 3.86634e-09)
(9.75952e-08 -9.73805e-09 2.08651e-09)
(1.26425e-07 1.95666e-10 1.08415e-10)
(1.46374e-07 5.7735e-10 1.54193e-10)
(2.51499e-07 2.6793e-11 -1.48177e-11)
(2.0328e-08 -3.78156e-09 -1.38754e-09)
(3.40295e-07 2.53194e-09 -3.32417e-10)
(2.53951e-07 8.0093e-11 -3.47493e-10)
(2.05477e-07 1.31337e-09 4.95348e-10)
(2.07678e-07 2.12932e-09 3.17088e-10)
(1.69038e-07 -2.47485e-10 1.36136e-09)
(2.50683e-07 5.04703e-10 1.53273e-09)
(2.49536e-07 7.97398e-10 1.73186e-10)
(2.86766e-07 2.00666e-09 3.84629e-10)
(1.68284e-07 6.3901e-09 -4.9799e-09)
(2.5939e-07 9.62834e-10 -3.08184e-10)
(2.89296e-07 -4.6172e-09 -1.19422e-09)
(1.92941e-08 -1.25692e-09 1.36101e-09)
(2.91433e-07 -8.07766e-10 -7.64984e-10)
(1.93812e-07 3.38358e-09 -4.98661e-11)
(6.71331e-08 -1.91394e-09 5.44695e-09)
(1.7665e-07 1.27744e-09 -2.93273e-09)
(3.33746e-07 -3.35717e-10 -9.62606e-10)
(2.2732e-07 -5.55501e-10 1.31172e-09)
(1.22846e-07 3.30653e-10 -3.51503e-09)
(1.90245e-08 -1.74752e-09 -1.92124e-09)
(2.46966e-07 -1.11999e-09 -6.50075e-10)
(3.40516e-07 4.63223e-09 -4.74784e-09)
(2.31842e-07 -6.128e-10 -4.80352e-10)
(1.90851e-07 6.05471e-11 1.10369e-09)
(5.98496e-08 2.713e-09 2.73858e-09)
(2.51433e-07 -1.29361e-11 -9.26389e-10)
(2.68545e-08 2.17568e-09 -3.40354e-09)
(1.69934e-07 2.19663e-10 -6.15732e-10)
(2.08663e-07 2.32619e-08 -7.4552e-09)
(2.47297e-07 -1.01657e-09 -9.09367e-10)
(9.20864e-08 -7.95025e-11 3.19422e-09)
(1.8738e-07 -2.22201e-09 -2.72575e-09)
(1.18643e-07 4.13058e-10 -1.59569e-09)
(4.96253e-08 2.90502e-09 2.45353e-09)
(4.37422e-07 6.33439e-10 1.51622e-09)
(2.02008e-07 3.89714e-10 9.88628e-10)
(1.86733e-08 6.61184e-10 1.81706e-09)
(2.72584e-07 -1.6445e-09 5.08076e-10)
(2.65992e-07 -7.84712e-10 1.08735e-09)
(4.05547e-08 -9.07864e-11 -2.33767e-09)
(1.32389e-07 5.73948e-09 -3.05631e-11)
(1.0255e-07 3.72944e-09 2.742e-09)
(1.87837e-07 9.14762e-10 8.07696e-10)
(2.45959e-07 1.37286e-10 4.42175e-10)
(3.5247e-08 -9.01841e-10 1.62105e-09)
(9.48121e-08 -3.17178e-09 -1.06045e-09)
(1.05832e-07 2.06484e-09 -7.90883e-11)
(1.79118e-07 2.16031e-09 4.15227e-10)
(3.17389e-07 1.65665e-10 7.68047e-10)
(2.4442e-08 1.29221e-09 -3.2284e-09)
(3.60732e-07 -1.87959e-09 2.00822e-09)
(2.35637e-07 3.42924e-09 1.57383e-10)
(2.59333e-07 -1.12465e-11 1.80456e-09)
(1.14194e-07 4.89879e-09 -4.72241e-09)
(3.24241e-07 2.20755e-09 5.92788e-10)
(2.39637e-08 -2.43414e-10 -2.59694e-09)
(2.90161e-07 -8.77448e-10 -3.64582e-10)
(2.90076e-08 -4.8344e-10 -6.23962e-11)
(1.38716e-07 -4.13838e-09 1.1021e-09)
(2.24865e-07 -1.51354e-09 2.27162e-10)
(1.42632e-07 -4.15157e-09 -1.40721e-09)
(2.01903e-08 2.31851e-09 2.09513e-09)
(5.31121e-08 9.7395e-10 -1.66077e-09)
(7.93114e-08 -4.09161e-09 2.64746e-09)
(1.36963e-07 2.63079e-09 -3.76332e-09)
(3.25622e-07 -3.17936e-10 -1.69044e-09)
(5.97408e-08 -1.35454e-09 -3.37733e-12)
(1.41016e-07 4.6248e-09 -2.66673e-09)
(2.25639e-07 -1.23628e-08 -2.39497e-08)
(2.05331e-07 5.12691e-10 1.02128e-09)
(3.04709e-08 1.93612e-09 3.4582e-10)
(2.30534e-07 2.86191e-10 -2.23579e-09)
(1.47413e-07 1.59718e-08 -6.27592e-09)
(1.94227e-07 -1.59603e-09 -1.389e-10)
(1.0367e-07 -3.45296e-10 -2.35386e-09)
(1.70044e-07 6.63147e-10 1.18381e-09)
(1.10618e-07 -4.53431e-09 -3.10955e-09)
(1.63036e-07 6.06508e-10 9.17382e-10)
(1.53593e-07 4.8372e-10 -5.05117e-10)
(7.55744e-08 3.47747e-09 -6.73842e-09)
(2.84674e-07 -4.22655e-11 1.59527e-10)
(7.12793e-08 3.23403e-09 3.63421e-09)
(1.63738e-08 2.49746e-09 9.29893e-10)
(3.14247e-07 1.64405e-09 -3.09688e-10)
(1.8009e-07 5.15088e-10 2.2405e-10)
(2.96972e-07 2.12317e-09 -8.2386e-10)
(2.3025e-07 2.98911e-09 -1.12804e-09)
(4.42028e-07 -3.67606e-09 1.00096e-09)
(1.4266e-07 3.83179e-09 -4.14561e-10)
(3.96554e-07 -3.37901e-09 1.11331e-09)
(1.01634e-07 -3.13187e-09 4.41385e-09)
(1.46424e-07 5.38519e-10 1.30641e-11)
(3.09353e-07 -3.66565e-09 -3.1158e-09)
(3.38864e-08 8.34389e-10 -4.72096e-09)
(3.00229e-07 5.93323e-10 -1.50455e-09)
(1.18488e-07 2.41188e-10 3.78706e-09)
(3.13349e-08 -2.25625e-09 -2.18255e-09)
(2.77695e-07 -1.34928e-09 -5.00036e-10)
(6.50313e-08 -1.79725e-09 1.61909e-09)
(2.03453e-07 7.3244e-10 1.97747e-10)
(2.09825e-07 1.67525e-10 1.11337e-09)
(3.7574e-07 1.95491e-09 1.40485e-09)
(9.91242e-08 -4.44678e-09 -4.7452e-09)
(2.78022e-07 2.65883e-09 4.46287e-10)
(1.56582e-07 -2.28787e-09 1.90064e-09)
(3.03742e-07 7.26033e-10 5.98369e-10)
(3.08378e-07 1.0034e-10 4.34043e-10)
(2.71572e-07 1.37831e-09 1.11451e-09)
(1.60513e-07 3.85999e-10 4.73083e-11)
(5.04573e-08 -2.75029e-09 -2.31725e-09)
(7.24368e-08 3.08826e-10 -7.27329e-10)
(1.72803e-07 1.23593e-10 3.75117e-12)
(2.83325e-07 1.43724e-09 2.62215e-09)
(2.97524e-08 -2.03219e-09 -9.90117e-10)
(2.42366e-07 9.09376e-11 5.03604e-10)
(4.60191e-07 3.71393e-10 8.18043e-10)
(3.40429e-07 -2.46451e-09 -5.85006e-10)
(3.63354e-07 -3.09711e-09 -4.81847e-10)
(2.53194e-07 -5.72882e-10 -3.05109e-09)
(2.11712e-08 2.11315e-09 1.84821e-09)
(2.22059e-07 8.71271e-10 -1.28958e-10)
(1.50813e-07 -1.41013e-09 -2.04093e-09)
(2.62649e-07 1.76831e-10 8.76336e-10)
(1.64164e-07 2.49612e-10 -2.99663e-12)
(3.71597e-08 2.65846e-09 -1.96029e-10)
(2.01719e-07 6.96657e-10 6.26773e-10)
(1.54762e-07 3.72145e-09 3.70633e-09)
(2.46701e-07 -6.76154e-10 4.24046e-10)
(2.60832e-07 -2.07618e-09 3.3862e-11)
(2.00091e-07 -2.21881e-09 -6.9906e-10)
(1.43569e-08 1.26814e-09 -1.68975e-09)
(2.10756e-08 -1.26138e-09 -2.06354e-09)
(1.8086e-07 -7.58112e-10 1.5747e-10)
(2.99869e-07 -1.5819e-09 -2.61638e-10)
(2.21211e-07 1.54058e-09 1.1784e-09)
(1.80619e-07 -3.67046e-11 1.36778e-09)
(1.64032e-07 -2.42184e-09 9.97296e-10)
(2.55326e-07 -1.85714e-09 -8.57855e-10)
(2.80109e-07 1.70836e-10 8.03758e-10)
(2.0393e-08 1.77277e-09 3.99255e-10)
(1.43482e-07 -5.83588e-10 3.8399e-10)
(1.74019e-07 -1.88839e-08 -3.68136e-10)
(4.84438e-08 -7.99484e-10 2.49867e-09)
(8.763e-08 -5.56865e-09 1.44613e-09)
(3.07712e-07 -1.08257e-09 -1.92941e-09)
(2.1316e-07 -2.65564e-09 1.33178e-09)
(1.98209e-07 9.30641e-10 -1.66981e-10)
(2.39868e-07 -1.46051e-09 1.15125e-09)
(1.42451e-07 -4.87888e-09 1.49624e-09)
(3.21118e-07 4.53123e-10 -4.35017e-10)
(1.83531e-07 1.96299e-09 -5.22792e-09)
(4.18614e-07 3.09257e-09 -5.27304e-11)
(2.14091e-07 6.70159e-10 -1.53059e-10)
(2.32333e-07 -1.55364e-09 4.27596e-10)
(3.06967e-07 -2.29316e-09 3.99914e-10)
(4.98523e-08 -4.92669e-10 2.39489e-09)
(5.32593e-07 -3.56347e-09 1.02475e-09)
(3.50894e-08 1.03441e-09 -1.43594e-09)
(1.48938e-07 -1.45001e-08 8.54762e-09)
(1.2065e-07 3.74881e-09 2.90601e-09)
(1.6161e-07 -3.17087e-09 -1.63471e-08)
(2.16264e-07 -1.28444e-09 -8.95183e-10)
(2.90724e-07 -4.69969e-08 -1.03778e-08)
(1.35867e-07 8.6407e-11 -3.63257e-10)
(3.16027e-07 -4.04311e-10 -2.52397e-10)
(3.36426e-07 9.99856e-10 -4.22729e-10)
(2.08894e-07 -2.82607e-10 1.40508e-09)
(3.67862e-08 2.34447e-10 -6.06406e-10)
(1.18484e-07 -4.47306e-09 -2.99528e-09)
(2.10276e-07 -3.93443e-09 -2.99583e-08)
(2.0988e-07 4.04578e-10 5.70759e-11)
(1.02865e-07 -2.18901e-09 -4.78686e-10)
(2.1798e-07 -2.08137e-08 -7.18947e-09)
(2.3638e-07 -4.44808e-09 6.08664e-09)
(3.15158e-07 2.64875e-09 2.13798e-09)
(4.60607e-08 -9.52505e-10 1.61022e-09)
(5.60463e-08 -2.73215e-09 1.57152e-09)
(2.84287e-08 1.63025e-10 -2.86328e-10)
(2.07134e-08 1.46562e-10 -1.59379e-09)
(4.60923e-08 -1.32886e-10 2.65328e-10)
(2.21754e-07 -1.44719e-08 8.75503e-09)
(1.83542e-07 -3.17016e-10 1.06478e-09)
(1.96981e-08 -6.64235e-10 2.72132e-09)
(2.1677e-08 1.5354e-09 2.40261e-09)
(3.40474e-07 9.09584e-10 8.24398e-11)
(1.66157e-07 -2.17788e-08 1.47893e-08)
(4.89046e-08 2.11179e-09 8.45979e-10)
(2.28009e-07 3.71236e-10 -4.41671e-10)
(1.10197e-07 -9.84359e-10 -1.64789e-09)
(2.05015e-07 1.93832e-10 1.83814e-09)
(4.63259e-08 2.37714e-09 -1.32916e-09)
(9.63946e-08 2.97369e-09 -1.09533e-09)
(1.96965e-07 -2.04991e-09 2.17229e-10)
(2.64414e-07 2.95156e-10 -8.51552e-10)
(3.98641e-07 6.92768e-10 -2.06184e-09)
(4.5109e-08 3.65926e-09 -1.26141e-09)
(2.56776e-08 -2.017e-09 1.25244e-09)
(2.01614e-07 -2.88191e-08 -2.13718e-08)
(2.92131e-08 -3.81141e-09 9.41358e-11)
(3.13476e-07 -2.1586e-09 -2.65753e-09)
(3.0434e-08 1.68809e-09 -3.80153e-09)
(1.52129e-07 -6.1856e-10 3.22714e-09)
(2.98835e-07 -1.16688e-09 -3.3179e-10)
(4.22266e-07 -1.38982e-09 2.75821e-09)
(6.19215e-08 9.1417e-10 -1.28429e-09)
(1.43279e-07 -5.03065e-10 -1.42507e-09)
(4.04372e-08 1.49622e-09 -1.60724e-09)
(3.01742e-08 3.55226e-09 -1.33021e-09)
(2.54603e-07 -1.88216e-10 -1.18481e-09)
(1.55501e-08 -1.31267e-09 -2.00509e-09)
(1.76891e-07 -1.18062e-09 -6.84752e-10)
(6.41195e-08 1.28039e-09 -2.9872e-09)
(3.2406e-07 -2.04969e-09 -4.28427e-10)
(2.28138e-07 -6.90669e-10 -2.18363e-10)
(2.02112e-08 -5.46865e-10 3.20306e-09)
(1.40324e-07 -6.7694e-09 4.25944e-10)
(2.47789e-07 5.47421e-10 8.20386e-10)
(3.27837e-08 -1.55117e-09 7.30592e-11)
(2.84067e-07 -1.20786e-09 -9.84168e-10)
(8.26895e-08 -3.21482e-09 5.13198e-09)
(2.20427e-07 5.81857e-10 -1.08758e-10)
(2.20492e-07 -9.03438e-10 -9.32881e-10)
(5.79643e-08 1.71498e-09 1.33604e-09)
(2.22315e-08 9.55893e-10 -2.91363e-09)
(9.69096e-08 1.79097e-09 -8.28475e-10)
(2.43617e-07 3.82793e-08 8.2504e-09)
(2.32517e-07 8.32882e-10 8.44373e-10)
(8.05242e-08 -3.5285e-09 3.91318e-09)
(1.90287e-07 7.31891e-10 2.96988e-09)
(2.57717e-08 -1.00272e-09 6.39892e-10)
(1.95342e-07 -7.60782e-10 -1.03928e-09)
(2.42113e-08 -3.93867e-10 -1.72168e-09)
(3.29732e-07 -2.1286e-09 -5.26668e-10)
(3.03352e-07 -8.10216e-10 6.67271e-10)
(2.15986e-07 -2.95004e-10 1.08193e-10)
(1.51377e-08 1.53455e-09 7.47761e-11)
(3.4206e-07 -1.44266e-09 1.26443e-09)
(1.60869e-07 1.09045e-09 -8.46885e-11)
(3.54638e-07 9.48601e-10 2.81424e-10)
(6.54932e-08 -5.39206e-10 -2.58077e-10)
(2.22533e-07 -2.68217e-08 1.38001e-08)
(2.61434e-07 -2.65331e-09 -4.23143e-10)
(6.90296e-08 9.80178e-10 -7.32864e-10)
(2.43793e-07 1.13475e-09 3.36104e-10)
(2.10046e-07 3.87729e-09 -3.95583e-08)
(1.84371e-07 4.6255e-10 -1.09778e-09)
(3.42416e-08 8.74114e-10 -1.85471e-09)
(1.06071e-07 -9.79327e-10 -5.36386e-09)
(1.84735e-07 -1.19469e-10 -1.32425e-10)
(2.2008e-07 2.22275e-09 9.39661e-11)
(3.36072e-08 1.57727e-09 6.37257e-10)
(2.22841e-07 2.46995e-09 -3.0646e-09)
(1.6367e-07 -1.84095e-09 -5.16768e-09)
(2.59481e-08 -2.27468e-09 1.48974e-09)
(1.97399e-07 8.49737e-11 -4.388e-10)
(1.58311e-07 -1.98847e-09 1.5428e-08)
(3.30032e-07 3.73076e-09 -4.98182e-09)
(1.9615e-07 -3.10225e-10 -4.6148e-11)
(1.77243e-07 -6.86511e-11 5.56289e-10)
(3.02842e-07 -1.0441e-09 -5.64182e-10)
(2.58336e-07 1.42622e-09 4.29703e-10)
(7.374e-08 1.97468e-09 6.28233e-10)
(7.51388e-08 -3.67502e-09 -3.62832e-09)
(3.65919e-07 2.31741e-09 8.09032e-10)
(2.2477e-07 -1.96766e-08 1.83022e-08)
(2.12984e-07 -2.17016e-09 9.98598e-10)
(1.91481e-07 -2.16099e-09 8.93898e-10)
(1.31115e-07 2.92294e-09 1.46473e-09)
(3.21476e-07 -3.98287e-10 2.05582e-09)
(1.99662e-07 -3.85726e-12 -1.10216e-09)
(1.85921e-07 -8.41236e-10 -2.46481e-09)
(2.31729e-07 4.28104e-09 5.42716e-10)
(4.48143e-08 3.58415e-10 -2.80001e-09)
(1.76142e-07 1.51386e-09 -1.15917e-09)
(4.13236e-08 -1.10349e-09 -3.08342e-09)
(3.10872e-07 -1.0669e-09 2.02649e-09)
(3.15508e-07 -3.92013e-10 -5.54272e-11)
(1.71172e-07 2.77337e-09 -4.17843e-09)
(1.64891e-07 1.35397e-09 -8.31609e-10)
(1.85679e-08 1.94963e-09 -3.89867e-10)
(1.08538e-07 -5.11225e-10 -7.99983e-10)
(7.86355e-08 -2.72886e-09 -3.39221e-09)
(2.55575e-07 -3.70718e-10 -1.65299e-09)
(2.28943e-07 -1.71436e-09 -7.73897e-10)
(2.20554e-07 -2.01778e-08 1.2773e-08)
(3.06521e-07 -1.25074e-09 2.34287e-09)
(8.47437e-08 -2.46574e-09 -1.9557e-09)
(1.36569e-07 -3.43062e-09 1.06724e-08)
(2.47575e-07 -2.24226e-09 3.76536e-09)
(2.89399e-08 -2.2431e-09 -1.44459e-10)
(2.35063e-07 -1.27468e-09 -4.8866e-10)
(5.59834e-08 1.62575e-09 -5.8259e-11)
(2.0657e-07 -6.57814e-10 1.8615e-09)
(3.36768e-08 4.785e-09 -3.39197e-10)
(3.49226e-07 1.19377e-09 -1.77388e-09)
(2.0396e-07 -8.72457e-09 5.37711e-09)