/*--------------------------------*- C++ -*----------------------------------*\
| =========                 |                                                 |
| \\      /  F ield         | OpenFOAM: The Open Source CFD Toolbox           |
|  \\    /   O peration     | Version:  2406                                  |
|   \\  /    A nd           | Website:  www.openfoam.com                      |
|    \\/     M anipulation  |                                                 |
\*---------------------------------------------------------------------------*/
FoamFile
{
    version     2.0;
    format      ascii;
    arch        "LSB;label=32;scalar=64";
    class       volScalarField;
    location    "38";
    object      momentum:cyl_theta;
}
// * * * * * * * * * * * * * * * * * * * * * * * * * * * * * * * * * * * * * //

dimensions      [0 0 0 0 0 0 0];

internalField   nonuniform List<scalar> 
59516
(
-0.132618
-1.24972
1.52569
-2.37077
1.68274
1.63919
0.270674
1.8989
-3.01659
1.5441
1.33027
0.987345
2.47782
-0.861473
2.66801
-2.37973
0.258015
2.04227
3.04562
0.543976
2.63124
1.72894
0.935334
2.82007
0.95814
-1.27268
-3.03377
2.79221
2.60827
2.21363
0.272922
-2.64269
-2.19188
-1.65238
-2.5197
2.37469
1.44215
1.64067
0.202821
-2.98364
-1.86964
0.746515
0.87872
0.0533169
0.215591
-2.37891
1.00898
0.320674
-0.851931
-2.4421
2.22478
-1.04564
0.270945
0.762449
-2.89551
3.01878
-2.33777
2.17245
2.14405
-2.27595
0.670921
-2.53296
-2.07677
-2.4967
2.6201
-2.16434
0.706252
-2.70185
-1.33049
1.68986
2.48527
2.7161
-0.798192
-2.95593
0.224254
0.943054
1.00156
2.10287
1.89158
-1.85885
-2.69199
-2.10178
-1.81382
-0.808664
-1.92961
0.610454
1.6738
0.806537
-2.36541
2.29523
1.49225
-2.49665
2.43752
-1.93969
-2.23216
-0.363816
-1.63711
-3.08034
2.35258
1.40776
-1.3397
-1.62527
0.835385
2.14727
-0.21407
-1.04575
0.66462
1.47242
0.946948
2.7302
2.31931
0.602171
2.6818
2.67383
-0.294197
1.65681
1.29104
-2.503
-2.48775
-2.04683
2.19069
-0.169054
1.4118
-0.266794
-0.0882604
2.00791
-1.73611
0.233767
-1.13275
0.49609
1.79116
-0.0282866
0.966659
0.669685
-0.0542008
1.74893
2.62096
1.13429
-1.66331
2.64287
2.33198
-1.30207
-3.09465
1.60548
-1.94704
-2.59996
0.594612
2.47794
-3.10842
2.26575
-0.105903
1.68052
1.47155
1.87947
-2.67078
-0.852234
-0.230066
-2.71221
-2.53338
1.69551
-1.86183
-2.06079
0.903312
0.0468122
0.88696
-1.31054
2.7279
2.72758
0.963926
-1.4624
-3.12296
2.98763
2.07232
-2.9574
1.86582
1.18318
1.64337
0.642253
-3.01012
-2.40432
2.44512
2.27883
0.306609
1.8227
2.78128
-0.926689
1.55929
0.446835
-3.1149
2.72492
-1.45298
1.87486
-0.383266
0.724682
1.2668
0.829046
-0.413054
-2.09847
-2.27403
0.308226
-1.04457
-1.14921
0.895368
0.267951
2.74046
2.96678
1.87643
-2.11549
-2.16293
2.67353
-0.954684
0.36595
2.5695
0.770757
2.25711
-0.974262
-2.48902
0.332247
-2.99111
1.87334
2.65623
-2.11761
-3.06534
2.77921
-0.807648
-2.3161
-2.16672
2.39302
-0.431885
2.66317
1.7072
2.8569
-2.75879
-0.417434
1.35498
2.20469
1.81363
-0.682329
-2.00623
2.40968
1.37738
0.833667
0.887684
0.964098
0.130672
-0.427015
-1.57499
-3.02952
1.31227
-2.65725
3.05288
-1.41557
0.788364
-2.16087
-1.41944
-0.901303
1.98138
-1.87181
-2.75769
-0.363245
2.75936
0.230008
0.250481
0.468445
1.49552
0.98274
0.382976
0.190217
-0.263917
2.98333
2.60978
-0.222222
0.878285
0.55007
0.143985
0.259143
1.49287
0.720449
-0.2706
2.07685
-2.36788
1.51025
-1.87538
2.18526
2.11335
-0.796789
-2.51281
0.980362
-0.751444
-1.09666
-2.7291
-1.96501
-1.949
1.8888
1.66028
2.47944
-2.37264
2.97449
-1.63374
-1.81938
-3.08378
1.83281
-2.48451
1.9908
0.921675
-0.801449
0.50434
-1.51366
3.11099
0.546686
2.45264
-2.12752
-0.991179
0.903816
2.12253
-1.89213
0.534746
-2.98474
-2.1346
1.02616
2.07504
-0.152009
1.24418
-2.72003
-0.817741
1.40509
-2.36314
-2.41922
-2.01066
2.7197
2.17077
1.22133
-1.68528
2.86724
1.1301
1.68895
-1.90287
1.70154
2.06647
-1.47971
1.5856
0.757832
0.34792
1.6674
0.327821
-0.457245
0.226089
-2.97582
-0.145567
-2.21469
-2.28519
-2.33845
1.82509
0.875593
-2.61212
1.77455
-0.0348017
-1.00752
1.06979
1.57586
2.23644
-1.02097
-1.15694
1.06363
-0.52896
-3.11433
-2.86981
1.46454
-0.086202
-0.957404
1.25933
-0.0175741
2.52041
0.573598
2.38474
3.01312
-3.04676
-0.142406
1.32506
1.52903
2.04983
1.55255
-0.992526
-0.852156
0.205761
-2.89667
-0.69303
-1.73754
-3.03935
-0.0723393
-0.0802536
1.77871
0.415856
0.43025
3.0986
-2.26731
0.497724
2.60539
2.2193
1.3946
2.98429
1.19603
1.68027
2.9219
2.94639
0.660955
1.05081
2.49356
1.99627
1.88379
-1.34969
1.69272
2.93559
0.663252
2.89159
2.20455
-2.73661
0.506504
-2.38383
-0.392569
-0.785049
2.30714
2.0841
1.59412
-2.81383
2.07884
2.34833
0.6467
-2.37198
1.961
0.859773
-0.716473
-0.23176
0.309453
1.49255
-2.07497
-1.60849
-0.497094
1.82968
1.45461
3.01745
-2.50443
-0.693597
-2.11427
0.588277
0.718035
-2.21305
0.78533
-0.239394
0.514314
1.90452
-0.32071
-1.43594
0.478489
0.274471
0.912379
0.44897
1.28086
-2.49378
0.883827
-3.0023
-2.79067
-1.3945
-2.50776
2.34625
1.99606
0.573195
3.01276
2.63492
-0.875676
-1.98214
3.02736
-2.40384
-2.74383
-2.6463
1.44047
1.86605
-2.16587
0.828598
-1.82304
-2.10134
-1.42003
2.21138
-2.79669
2.88189
-2.97266
-0.132777
1.80257
-3.13564
1.45503
0.356717
-2.09773
-2.28262
-2.2396
-1.60356
2.83658
-1.01149
-1.57299
-1.44669
-3.11643
-0.264061
-2.39971
-1.82777
-0.417801
-2.8621
1.36044
1.91175
2.74448
-2.9041
1.25635
-0.114133
-0.599737
0.248669
-1.84741
-1.86851
1.45215
1.28317
-1.87886
0.29715
1.12896
0.21248
1.49505
1.52327
0.538146
1.13379
-2.50873
0.168436
-2.69483
2.29613
-3.06767
2.14197
-2.27733
2.67354
-1.64601
2.10852
-0.0935265
-0.130412
-2.56844
0.921499
-2.65281
1.63117
-3.01505
0.731224
3.02156
-0.0341126
3.03147
1.06751
2.3353
-2.8106
1.16351
2.47363
2.38649
2.86933
0.709691
-0.674188
-1.45998
0.186842
-1.26955
2.42329
0.303846
2.17488
-1.03009
-0.817165
-0.117439
1.38319
-2.06336
-1.87809
-2.84379
2.77894
2.20794
2.15286
-0.235913
2.46144
2.4462
1.99139
-1.47869
-0.295865
-1.18776
-1.44972
-2.40708
2.51761
-2.33037
-1.44668
-3.12753
2.2731
1.23261
-1.82984
1.44344
-1.42116
-2.06917
-1.21643
-2.02363
0.951364
1.68277
-0.226639
-0.931353
-1.5864
0.087954
0.271718
1.21379
2.50101
2.99059
0.876222
3.00174
0.311371
1.61846
0.0827393
0.398179
-1.29838
-3.08227
-2.51943
1.12097
2.97731
0.833829
-0.667928
1.28825
1.37412
-3.1129
0.242641
-2.41748
0.251864
-3.04823
0.966996
1.69175
0.62181
1.51068
3.08473
1.50062
0.403275
-0.827294
-0.298497
-1.44215
1.55925
1.4943
-2.21409
-1.13914
-0.494635
-1.61622
-2.16266
-1.88229
-0.910287
-0.380491
-2.70521
1.81773
1.44599
1.7014
-1.48948
1.86921
1.69181
-1.84328
-2.57166
-2.53296
-1.83605
0.64909
0.588783
2.38824
1.68275
0.465693
-0.172692
1.6924
1.03953
-1.30048
2.15888
2.72983
-0.54858
1.44553
-2.67284
0.603202
1.55369
1.46696
1.35249
-1.2794
-0.592097
1.4559
-1.59243
0.228209
-0.510449
-3.03218
0.622034
1.68672
2.3922
-2.92459
-2.27942
0.783748
1.46886
1.35334
-2.71502
-2.70731
1.32224
1.76974
1.96312
3.0638
2.18288
-2.36331
-0.767555
2.2482
-0.448087
0.764377
-0.678543
-1.20483
1.78447
1.4556
0.83559
2.49213
1.33205
1.16975
-1.88362
0.803996
-2.52473
0.26729
1.62951
-1.3956
1.06415
1.50577
1.26277
-1.94414
0.0949429
-0.0055918
2.16965
0.0822104
-0.79194
1.31626
-2.94898
0.877284
-0.172974
3.12862
0.564898
-2.24699
2.74445
2.00494
0.584317
3.12859
-1.92478
-2.69753
0.884177
0.789065
-0.7256
0.461821
2.04724
-2.94471
-0.628873
-0.859974
1.76641
-1.21455
-2.71375
2.77994
-2.87674
-1.75912
-1.57612
0.400386
-0.97634
-0.609058
0.210621
1.66241
-0.48723
-1.12626
-2.81765
1.67992
0.63109
1.44714
0.238289
-0.923703
-0.552633
-0.18669
2.16243
2.58711
-0.340249
0.669212
0.179609
-0.235756
-0.978421
0.290009
1.43917
1.54077
-0.321684
0.804913
2.93209
-1.00204
1.68758
-1.21688
-3.03216
2.07577
3.05877
0.839456
0.954042
-2.04681
-1.34764
-2.19865
-2.27539
-0.973939
-1.59104
-0.550168
-0.0829866
0.884495
-2.89469
0.821789
-1.29432
-1.38264
0.985996
0.557218
-2.81628
1.6857
0.94372
-3.13326
-1.19142
0.994589
-0.844521
-2.52732
-3.13406
2.82577
-2.12351
-2.02528
3.02914
-1.99974
-2.07734
2.36615
-1.89271
-1.84591
1.36306
-2.05188
-1.28504
1.925
2.21183
-2.99201
0.149982
-1.63452
2.03667
-3.13688
0.481272
-1.1729
-1.47702
2.77979
2.63646
2.33743
-2.13247
2.3003
1.45577
0.879472
1.80997
-3.09346
-2.06495
0.375863
1.31425
-0.253924
-0.443497
-2.01348
-2.64396
-0.0531057
2.50037
0.150522
1.58716
-2.29182
0.161603
-2.35517
1.12945
-2.3883
1.19651
0.799118
-2.41529
1.61576
-2.81967
-3.0121
0.696365
-2.06219
-2.58067
1.2633
0.119397
2.3012
-1.78691
2.83768
1.88276
2.2262
0.770682
0.780966
-3.08912
2.99228
-2.56869
2.80912
1.48711
2.65746
2.9908
2.68131
0.513155
-2.1553
3.05586
2.89666
2.94849
-2.46851
1.36071
1.01806
-1.5116
0.482896
1.38621
0.379701
0.184642
-3.10245
1.64602
2.14057
1.06572
-1.77306
-3.02422
-2.15445
-2.38808
1.52572
2.82753
-2.40129
2.51439
-2.50552
0.161877
2.69403
-2.36305
0.341462
1.52196
1.47018
2.19295
-0.639534
1.00112
1.77091
-0.210975
3.00204
0.82236
-2.44154
1.56607
0.215018
-1.6802
1.66576
2.50098
2.15224
0.596172
2.82906
2.94157
0.318845
0.80309
-0.564558
2.7306
-2.12105
-0.201225
0.483666
-2.53031
-0.0961581
1.60457
-1.39723
-0.269301
1.57694
0.349756
-1.8805
2.31028
1.0713
2.07944
1.9042
0.137373
-2.26978
1.77495
-1.53872
-2.14178
2.60772
0.723077
-1.94086
-2.30397
-0.171353
0.732333
-2.08345
2.17753
1.86125
1.90493
1.54466
2.23193
1.25934
-0.657896
2.14692
2.05783
1.31347
1.6032
1.86024
1.448
2.76741
1.74362
1.2108
1.66351
-1.1164
-0.459175
-1.99433
-0.817231
2.47806
-2.70936
1.85161
1.49369
-0.731276
2.29436
2.37207
-2.1598
1.69351
-2.20241
-2.2213
-1.75467
2.60376
2.36945
2.47285
-3.04642
-1.89221
1.14193
-3.10458
-1.34509
0.618795
-1.10093
-1.89897
-1.37759
2.787
1.13737
-1.56255
1.35408
-0.401469
-1.42361
1.2855
0.860882
-1.93337
-1.55123
1.93562
-0.760167
-0.933385
1.80472
-2.29287
1.50291
-0.950359
1.93587
-2.44769
-1.69046
-1.09207
2.01878
-0.417594
-2.46788
0.495881
-0.107429
-1.88598
-2.14938
-2.65076
1.61922
-0.557076
-1.22596
-2.22062
1.87626
1.37057
-1.24097
0.88593
0.259912
3.0642
1.78645
-2.3945
1.2131
1.0515
-3.04302
2.86192
-0.377346
-1.36081
2.10281
-2.65534
1.99415
2.02266
-0.209524
2.31322
1.91228
-1.08256
-1.38185
-2.07716
2.48027
2.27178
2.41688
0.10332
0.778028
2.68714
-0.845546
1.95547
-2.77737
1.50892
2.95495
1.65125
-3.11093
2.62312
2.9362
-0.6548
1.06361
1.55351
1.78513
-2.29032
1.68349
1.12603
-2.32418
0.307768
1.32623
-1.81869
1.59721
1.73573
-1.78763
-0.622473
1.02534
-1.58837
-2.06157
0.260685
1.25548
0.549329
1.78804
0.626386
2.74043
-0.020335
1.78505
1.0365
0.203193
0.913493
0.851534
0.464965
-1.44177
-1.29344
0.723993
1.09041
-1.08849
1.30773
2.77981
-1.4723
3.09658
-0.842511
2.51981
0.430496
-0.78197
-2.08446
1.90503
0.608117
-0.671427
-1.30879
-3.11227
1.63914
-1.82981
1.82818
1.93443
0.501152
0.407231
-0.458838
2.49147
2.03312
1.26037
2.2358
-1.29949
0.822105
0.439415
-0.790266
1.52431
1.46614
-0.86891
2.02326
2.67592
0.273586
-0.0336933
-2.69393
1.626
3.01025
1.98749
1.51584
1.43901
-0.0380871
1.52144
0.0400236
-2.29799
-2.36956
2.12562
1.84001
1.68788
-2.83797
-2.42575
-2.66652
1.35347
1.98576
-2.47257
-0.422172
-1.67559
1.83417
2.00765
1.97512
2.5755
-2.67245
-1.58905
-2.00673
1.68089
-0.198495
0.730025
0.900823
-2.61473
-1.51352
-2.09184
0.812723
2.82242
-1.62679
1.30725
0.973287
-1.70991
-2.52483
-0.371228
-2.14541
-1.88149
-2.49247
0.781073
-0.836638
2.92472
2.49722
-0.762094
-2.51733
-2.74483
-0.666325
-3.12891
-0.10686
-2.29305
-0.84149
-0.699061
-0.206157
-2.64099
0.0923878
-0.542668
-0.0942641
-3.01334
-0.840058
-2.27054
-2.88965
2.85099
2.30246
-2.76564
2.88128
-1.43605
1.02174
2.5155
1.64562
1.59844
-2.84038
2.65851
2.06387
1.49363
2.16416
1.64558
-2.9899
-0.153364
2.61528
2.73302
2.85408
2.21464
-1.06225
2.24871
-2.96741
2.54294
-1.96516
-3.00184
2.98668
-2.40146
-1.73686
1.5706
0.188711
0.549431
2.06694
1.52049
1.6646
-0.656849
-2.09852
-0.763654
1.44206
0.377977
1.49361
1.37373
1.12978
1.10908
2.69928
-2.02851
-2.48327
-2.48202
-1.44007
-3.12145
-0.701157
2.16601
-3.13383
-2.35317
1.26967
2.79612
0.287165
0.400186
-0.182387
-2.76316
1.64516
1.69692
2.14796
0.467975
0.625937
2.03565
0.470941
0.202551
1.50133
1.534
-0.421257
1.01739
2.92996
-0.0364216
-1.57768
-0.455286
1.04959
-1.76201
-2.59009
-0.115263
-0.713894
1.63025
1.85695
1.72249
-1.44691
1.88805
2.06809
0.828304
1.97064
0.195872
2.63535
1.45445
0.791245
1.59005
-0.0324794
-2.55401
2.68678
2.36955
-1.44054
2.35456
0.477468
-2.12627
1.67884
-0.946673
2.32879
2.17393
0.823458
2.78097
1.73666
0.833421
2.55315
-1.69962
-3.00793
2.72047
2.14679
0.592674
-1.24915
0.778508
1.69429
3.00743
2.55506
1.69072
1.45557
-0.886428
-0.461342
-2.50933
1.31929
-2.05913
-2.3849
-1.42766
0.893828
-2.19334
1.63869
0.726279
-0.598215
-0.397094
1.26413
-2.55023
0.832961
1.49797
1.25187
1.70526
0.622664
1.55133
1.45513
1.20401
-1.49031
2.15151
1.13393
0.999027
0.825734
-0.242397
1.29788
-2.01637
2.11025
1.57858
1.3355
1.49294
0.43232
-0.173866
-0.709772
-0.081215
0.877942
1.67492
0.423953
2.72232
0.594802
3.11995
-1.99646
-2.63368
-1.8862
2.00786
1.8912
0.266962
2.00534
2.22045
-0.163836
3.08474
-0.475681
1.10036
1.65636
1.01254
0.968534
0.28171
-1.69821
-2.20973
-3.09065
-0.894961
-2.30378
0.878525
-2.94068
2.14407
-1.3246
1.15181
-2.20886
2.53095
-0.309119
0.646104
1.9559
3.06453
-0.419798
0.957381
0.732506
2.35117
2.07519
2.16647
-2.58889
0.0820567
1.74884
2.8622
0.303169
-2.87399
-2.37328
2.58367
2.66908
-2.43777
2.98149
-2.22282
-2.40365
-2.3317
-1.10393
-2.07306
0.168399
3.13314
3.11485
-1.45093
-1.18786
-0.454221
0.899957
0.823766
1.53599
0.133844
1.97948
-0.423762
0.028926
1.54896
-0.141971
0.839006
2.38427
2.16478
-1.18711
-1.12181
1.25227
-1.26241
1.02698
2.29198
1.61973
1.36048
0.955
-1.17706
1.00361
-0.366939
2.65759
3.04859
1.69806
2.99699
1.24739
-3.09552
0.404401
-2.52004
-2.36741
1.8703
-2.67323
2.92932
0.220939
1.35406
1.56682
0.395669
-0.484502
0.0148601
0.718745
1.14492
-1.65833
2.82541
1.6962
0.411888
0.913726
-1.12874
0.046102
-1.85401
-0.586346
1.69844
0.319284
1.78663
0.459306
1.17195
0.917289
1.43874
2.92627
-2.9769
1.33572
2.55129
-2.28536
-2.73715
1.11686
-2.02474
2.83487
-3.11317
1.21638
-3.13893
0.0737997
-1.41402
1.50907
-3.03239
-2.95456
1.02791
2.25712
0.227438
1.82536
1.64004
-0.367635
0.172318
0.947824
1.57367
-3.06997
-2.19713
1.0851
2.53957
0.63655
0.305176
0.383632
-2.36314
2.82417
-0.0959011
2.61036
-1.73533
1.52651
1.31292
1.68729
2.16574
1.13503
1.38546
-1.7369
0.461402
-0.81718
0.985351
2.0505
2.32888
-1.14846
1.62143
-2.84612
-0.0900276
2.25924
-0.212285
1.41227
1.02589
-2.68177
1.81426
2.1633
-2.79591
1.85679
-1.96482
0.72977
2.03685
1.0435
3.0594
-1.2301
2.97645
-0.990195
1.30211
1.56754
1.78211
-1.55861
-2.12067
2.77116
0.851735
-1.46635
-1.59233
-1.12406
-2.72391
-0.484716
1.4848
-0.763921
-1.72649
-1.41805
-1.0437
-1.67686
-1.53435
2.58894
1.24333
-1.06997
-0.808012
-2.32841
1.10965
0.623474
-2.21819
-1.87476
2.61611
-2.64421
-0.149599
-3.025
-0.638717
2.68452
-0.932205
1.26267
-2.90204
-0.295392
1.78542
2.11091
-2.63705
-2.35605
-2.1344
-1.05313
-0.809708
-1.2943
-0.107837
0.520922
0.38057
-0.666914
-2.65026
-2.23623
1.83687
3.10186
-0.917486
1.36045
1.61654
-0.818977
2.1877
0.745369
-0.127352
2.31978
-1.48197
2.62175
1.13945
0.398913
-0.353347
-2.19672
-1.4379
-0.668262
-1.45157
-1.30752
-3.10915
0.629522
-2.59349
0.416317
-1.42019
0.172858
0.720965
-2.05435
-0.947493
2.61912
0.78376
0.025768
1.41397
-2.33052
2.76943
1.6568
1.46612
2.17696
-1.90517
1.57154
1.50469
1.84595
2.56305
-0.706177
-2.90351
-2.99123
0.63827
-1.08617
-0.466184
0.201603
1.31783
2.07438
1.88281
1.71172
-1.98713
1.70559
0.487889
-2.59486
-1.87352
0.332073
-2.24502
-0.780929
1.03551
-1.25982
-2.60101
-0.0331054
-0.205633
0.438093
-2.92428
0.00173263
2.3285
1.52764
-2.79726
3.06652
1.55621
1.82678
0.145807
1.98449
1.09699
2.85474
-1.37854
1.29996
1.62695
-2.59105
-1.38519
2.24095
2.75221
1.99709
1.29336
1.48233
-2.44065
-2.16187
-0.957624
-0.919616
2.38479
1.7847
-1.37745
-0.371973
2.68832
1.62135
1.56974
-0.972568
0.219436
1.65752
-1.06857
1.34195
2.67826
1.29224
1.44686
-0.958075
1.24965
1.82072
2.00752
3.061
1.6651
-1.18241
2.73358
2.63772
-3.00177
1.35706
0.04557
0.412912
-0.327928
2.67716
1.21161
2.72878
1.99714
0.698433
1.89463
2.68225
-2.14576
-0.988772
2.40764
0.835378
-1.42068
1.55863
1.30748
-0.55444
-1.37295
0.474378
-1.08901
1.4119
2.8084
1.43148
1.87465
1.24504
0.740584
0.82669
-0.622305
-2.26084
-0.314571
-2.18869
0.220228
1.2715
0.319014
1.68141
2.21547
-0.279387
-0.516101
1.21594
-2.71304
-3.12041
-1.81909
-1.73005
2.86476
1.00455
-0.586906
0.514858
2.90154
-2.13158
-2.21773
0.98461
1.1312
-3.03437
-1.78419
1.13276
-2.31545
-1.77311
2.40706
-1.05779
0.564032
-0.167792
-0.0740609
-1.5379
1.89497
-2.23104
1.46469
2.52737
1.49088
-2.43487
-1.63709
1.58254
-2.59264
-2.06906
2.66304
-0.043083
1.60305
0.0204866
1.97297
1.04043
1.45106
0.887354
2.79358
2.14161
-1.83652
0.663651
0.36455
-0.755985
-0.205279
-2.8136
1.7649
0.269331
-0.23634
0.4608
-2.77685
-0.361529
1.92312
1.2278
-1.38138
-3.05171
0.558195
-2.20088
-0.44726
2.89153
-1.13425
-2.10526
-1.01673
1.6594
0.768373
2.43635
2.37657
2.96254
-1.77118
-1.43441
0.965922
-2.97968
1.45361
-1.19323
-0.491263
-2.76111
2.88305
0.778896
-1.43143
-2.99904
1.14885
1.40373
2.00388
1.24648
-1.43838
1.87275
1.30412
0.49422
1.21989
2.47778
-0.484682
1.96493
-0.75358
-1.49987
1.64939
0.62359
0.766005
1.27146
1.34985
1.96349
-0.156157
0.761498
-1.5403
-1.62649
1.69957
1.58677
1.67067
-1.30028
-1.17907
1.44853
-0.106086
-0.406799
-1.3034
-2.1284
3.13495
1.51219
-1.94834
1.29858
1.59294
-0.444477
0.730629
1.5556
-2.63086
0.445053
0.719527
-2.19103
1.9018
0.135984
-0.526844
1.45214
2.10424
-2.65135
-0.348456
-0.625012
-1.27075
0.568352
-3.03583
0.18769
3.05976
0.759841
1.14078
1.70375
1.09349
1.30887
-2.25682
-1.4864
-0.0281857
2.90873
2.65562
-1.96343
2.87306
0.823108
0.786337
-2.68473
0.743056
2.8347
2.72111
2.71332
1.08297
-2.00499
-2.45311
-2.32371
2.60403
-1.21356
2.9664
3.10192
1.82153
1.19024
-2.59759
-0.2743
1.30695
-0.924243
-0.154861
-0.0710995
-2.90312
0.747058
-1.31902
2.89101
1.80366
2.65705
-3.09034
2.71082
0.306022
-1.88062
2.54544
-0.921124
-0.682306
3.01637
-2.85186
1.78748
1.28763
1.68894
1.90547
-2.88247
0.974734
2.92028
-0.310645
-0.47813
3.06461
-0.754383
-2.22584
-0.922206
1.77378
2.43936
2.56784
0.459318
-2.97837
0.561688
2.9477
-1.70707
-2.39785
-1.20214
1.13362
1.53504
-1.48386
-1.66276
-0.843008
-3.10295
-1.16309
-1.78809
-0.644678
2.96235
-1.35558
0.221733
1.17599
-0.0731189
-1.9827
2.97491
-0.939588
-1.46811
1.22819
-1.77173
0.680937
0.911546
-0.109563
-1.01734
-1.29543
2.13216
0.780207
-0.231688
-1.23472
-0.0298566
1.25181
1.59162
0.907579
0.745769
1.21545
1.46773
-0.16927
-0.753243
2.65184
-2.84935
-0.5319
-0.309755
-0.888164
-0.809248
-0.888184
2.09064
-2.00956
0.247006
1.35509
-1.4727
-2.94577
2.27483
-0.893092
1.22697
-0.899791
1.1604
-0.72697
-3.12491
0.195636
2.21906
-1.20605
-1.15635
0.664174
-0.757571
0.872005
1.0226
-1.75207
0.764895
0.923976
1.32727
-1.61533
-2.6407
-1.89071
-0.129989
-1.18968
1.34325
0.105186
0.72904
2.21149
1.11643
2.00957
1.77582
-2.80904
0.928888
-0.558362
0.778947
-1.93126
1.70017
-0.622412
0.278107
-3.05781
-3.12221
2.40823
2.07644
-1.60321
0.466518
0.39884
-1.86806
0.0064149
2.36918
0.391363
2.68544
-0.471133
-0.989732
-2.01452
0.273133
0.157348
2.74996
2.83296
2.1282
3.0642
-1.0958
-2.6843
-0.718501
1.91314
0.469618
0.199035
0.295115
2.62881
2.61182
0.89854
-0.039926
-0.17672
1.67705
2.945
1.08368
-1.45208
1.3516
2.26058
1.65901
0.572573
0.404513
2.38788
-0.382572
-1.10998
0.620406
1.28818
-2.01092
0.730093
0.613077
2.92895
-2.13955
-2.84125
-1.82531
-1.53283
1.23674
3.06442
-0.0973315
1.2407
0.31116
1.82227
-1.44356
-2.25472
-1.40152
2.12419
-0.108494
-2.6154
0.621678
1.25008
-1.52167
0.778755
-1.48546
-2.61669
-2.07557
0.341707
-2.27992
-0.242366
-2.74954
-2.29657
1.63191
-2.49248
-1.32071
0.213478
1.51861
2.20482
-0.891371
1.90887
1.59753
2.21918
-2.10924
-1.88204
1.46413
1.45411
0.43625
1.64686
-0.95504
-1.61923
3.01627
0.662578
-2.78784
-0.944315
-1.57943
0.996277
-0.120129
2.04959
-0.00708906
2.93899
-2.14732
0.00796263
0.195742
0.584978
1.81333
2.61682
-0.416804
0.314495
-3.1365
0.529056
2.61873
-1.81848
-0.351333
-2.35386
-0.938034
-0.462223
-0.360106
-1.09689
2.95887
-0.282204
1.75915
-1.00241
-1.04959
2.1236
2.2316
2.35025
2.42759
0.475929
1.17416
-1.66522
1.31429
-0.562275
2.57323
-1.34984
-2.2044
2.82886
1.98196
-3.01214
0.795822
-3.10267
-0.995944
2.63203
0.971123
-2.69977
1.13942
0.710585
0.78795
-1.76781
0.93394
2.33702
-2.81197
-0.946236
1.19449
2.36804
-0.098935
-2.5722
1.69328
1.50073
0.929662
2.39744
2.23322
-1.98825
-1.55789
-1.8697
2.29166
-0.894136
2.27004
1.76285
0.838369
-1.48025
-2.45437
-3.1347
1.64269
2.06541
-1.97424
0.470006
-0.210942
0.81436
-0.296246
-2.76551
-0.22561
0.798163
2.31216
-2.61869
0.150345
0.198616
-0.39295
0.71958
1.35892
1.45116
-1.89336
-1.87325
-1.76496
-2.06268
1.10579
2.65084
-2.1216
-1.3726
-1.92613
1.35044
-2.59705
-1.51277
-0.900577
2.62594
-1.88271
-2.28953
-2.45125
1.27187
-1.74144
0.833852
2.6555
-0.634309
-1.29729
0.498181
2.93396
-2.70344
1.13377
2.02195
-2.7557
2.80212
2.41082
-0.55526
-0.537989
2.72507
0.60116
1.54144
-1.9744
2.97954
2.44246
2.66547
-2.01328
-2.70234
-0.312049
2.63764
-0.895297
1.60105
0.734167
0.237666
1.22048
1.19461
-0.195888
-0.347575
-1.20551
2.67817
-2.40967
2.12812
0.830474
0.260197
-2.08547
-1.38085
-0.479445
0.347327
-2.20854
1.44485
0.416115
1.11872
-2.54962
2.0359
3.09807
2.92717
-1.76419
2.39666
-2.47865
-2.40247
2.73531
2.73194
-1.83752
0.854502
-2.30807
-0.337775
-2.2882
1.39239
-2.01287
-2.0596
0.72208
-2.07346
1.3444
-2.10869
-1.63254
-2.37654
1.50731
0.163108
1.8262
1.19428
-1.86124
-1.992
0.858559
2.38911
-2.4612
-0.0335261
2.45484
-1.40795
3.11191
1.65527
1.55859
-2.56054
-2.03226
-0.787005
-1.60718
1.35592
1.17257
1.12361
0.156431
1.09804
0.938373
0.720711
-2.58835
1.10116
-0.424232
2.51062
2.18213
1.97386
-1.66821
-1.5925
1.30509
1.17183
2.96965
1.90568
-2.02514
3.06757
1.07487
-0.277059
0.125805
-3.03039
0.785444
-2.545
1.0505
2.27016
1.64545
-1.48678
-2.71753
-2.51286
-1.44888
1.01088
1.98401
1.13256
0.414152
-2.72295
-2.81008
-2.7509
-2.55879
2.96536
-2.77243
2.49447
-0.983258
2.72541
-2.47942
-2.94806
-0.0260769
2.06133
1.84162
0.618361
-1.5538
1.77513
1.97584
2.49278
2.1774
-2.30318
2.6412
2.09908
1.83408
2.04604
-1.19912
1.012
2.47776
1.48564
-2.21218
-2.98939
0.707543
-0.758033
-2.39712
-2.45946
3.04025
0.885444
-2.40829
2.92108
2.40844
-1.62989
2.07767
1.20853
0.847323
-0.460973
1.2183
1.40143
3.0317
1.90203
2.33215
-0.847138
-3.03437
-0.477168
-2.40696
1.01996
-0.934898
-0.951671
-1.95983
1.34804
0.286386
1.13171
-1.09323
0.230294
1.01766
-1.91587
1.90757
2.29187
-1.3652
0.202051
1.12678
1.16685
1.73649
1.74269
-1.72419
0.800775
0.436187
1.12633
1.53606
0.700512
1.4844
3.06132
2.4709
-3.02211
-3.07481
-2.07825
-1.27917
-0.990478
-1.68782
3.05305
-1.8836
-2.28828
-0.100308
-2.97752
0.968736
-2.51545
1.03125
1.05495
2.42196
2.38772
1.36372
0.397837
-2.58097
-1.17321
-2.32644
0.996561
-3.11772
-2.42143
2.0139
-2.83155
-1.75214
1.42217
1.26418
2.01157
1.43287
1.08476
1.95224
0.402578
-3.00678
-1.14552
2.62264
0.836479
1.24311
0.107281
2.59792
-0.859763
-2.13305
-1.39188
0.982991
-2.62705
2.22539
2.00842
-2.11664
-0.70749
-2.78607
-2.99811
-2.86864
-3.00357
1.05793
2.15076
-2.73181
-1.4917
2.1482
1.23469
0.141142
-0.0654159
-2.7209
-1.62025
-3.10623
1.24345
0.653752
-2.85476
1.64254
-2.91371
-2.04386
-2.08984
-2.269
1.53526
-2.41783
0.0651241
0.247138
-1.79324
1.65661
-2.2145
2.6166
-2.89636
2.68211
-3.00234
0.487789
-2.41407
-1.34118
2.38557
1.87639
2.29235
1.49543
1.56774
-1.12269
0.740853
-2.6807
-2.82118
-1.30102
-0.756545
-2.32332
2.27181
0.841848
1.78667
-2.51885
1.88402
2.34584
0.945063
2.06465
-2.87041
2.71975
1.45261
-0.755906
-2.80864
-1.43332
-0.79181
-0.785556
2.79644
0.640732
-0.503565
-2.39479
2.18115
-2.69035
-1.75348
1.40785
-3.12404
-2.19212
0.464605
-2.47053
0.505533
-0.677018
0.831518
0.285488
2.05799
-0.101473
0.0296932
1.2156
-1.66671
-0.799995
-0.823843
-1.7159
1.48805
-2.08811
-1.86429
1.66175
0.54292
-0.594524
1.26229
-0.877691
-0.416658
-1.81129
-2.2314
0.540738
-1.79325
1.3526
0.812198
-0.625666
2.02524
-2.53913
-1.98282
1.87504
-2.7762
0.454083
1.27655
-0.21537
-1.12664
1.66075
-0.123171
-3.09488
-2.04121
0.81317
0.770091
0.625395
0.123475
2.53704
0.604267
2.0472
-2.77546
0.28692
2.47052
1.69274
2.1933
1.84344
-2.20961
1.91803
-1.42992
0.297485
1.30646
3.01478
2.82169
2.16998
2.52312
2.25658
0.714939
0.313375
-3.09995
2.21842
1.00759
-1.95103
-2.06936
3.00892
0.786385
-2.83106
-3.03197
1.95142
-2.90518
0.423166
-2.94208
0.861479
-2.79258
0.665371
-2.16683
-2.19674
-2.15981
0.267027
0.702221
-1.46205
-0.132855
-2.83489
-0.806462
0.788117
-1.82564
-1.28106
-1.53453
1.29249
0.130398
-1.43811
-2.97379
1.21116
0.940218
1.05508
-1.34101
-2.7123
2.15568
0.785909
1.48321
1.04348
-3.03896
2.94482
-1.61766
-3.09322
-2.71897
-1.18264
3.00875
-0.0744133
0.732765
2.60961
-0.0486229
1.29728
0.43657
-1.8248
2.00697
-0.530741
1.45812
1.68667
0.808871
0.766815
2.51329
1.03104
0.964588
1.53457
2.79745
1.64418
0.993587
-0.554249
-0.906409
-2.91071
-0.710416
2.73193
-0.749588
-1.58527
-0.0515804
-2.26283
-1.29396
2.49086
2.32917
2.43512
-1.25468
-2.64088
2.98214
-1.23437
2.24875
-1.5935
-1.25155
-3.02691
-0.014585
0.504007
1.47512
-0.877511
-2.98969
-1.23949
-0.890013
0.44854
3.0564
2.66599
3.06011
-1.40886
-0.890542
0.586385
1.31873
-1.28239
1.44907
-2.80474
-0.0998616
1.36742
0.834216
0.988915
-2.43878
-0.268874
0.6565
1.46679
1.06567
1.82945
0.587797
-2.99114
-2.37
-1.48412
2.25845
1.31394
1.26614
-2.36529
0.107682
-1.19103
-1.90359
1.22622
-2.44659
2.29535
2.46075
-0.384845
1.4865
-1.15055
-0.174959
2.8098
-0.233395
-2.60257
-2.73343
1.46875
-3.13696
-1.46146
1.82786
-2.32407
0.657632
-0.761095
-0.716935
-3.03941
0.608767
1.53607
-0.46485
0.843865
-0.251893
-0.411775
2.70075
1.6191
2.36631
-0.368315
-1.82175
-0.596252
-0.070816
2.41057
0.916028
-3.13259
1.62136
-1.65166
3.02043
2.67491
-0.834867
2.28477
2.87861
1.2398
2.54408
3.05963
-2.67656
2.41133
1.72843
2.04671
-3.05764
2.47762
1.31378
0.930268
-2.76339
0.263194
0.698018
-3.04975
-0.937291
0.752197
-1.10481
1.69434
-2.9244
1.02318
0.5822
-2.92428
1.35928
1.65195
-0.040787
-1.28596
2.45722
-1.4908
-1.36902
-0.559049
-1.64782
-2.20364
1.10649
1.475
-3.12062
-0.656065
-2.01283
-1.5153
1.26442
0.900493
-2.12708
0.602666
-1.8509
-2.72572
0.967298
2.00819
0.657646
0.813751
0.784244
2.77405
1.68981
-2.84583
1.85487
-2.48248
-0.00340622
-2.82755
0.947697
0.671134
0.749396
0.649534
-1.06159
-1.17886
-1.19068
-0.398598
0.728962
-2.59374
3.01332
0.662982
0.519452
-2.32041
1.03457
1.8234
2.73702
0.778184
0.990823
1.94852
1.05906
-1.05171
2.68109
0.752899
1.19065
0.143357
-0.150744
-0.679921
1.15177
-0.815991
0.400513
0.776509
0.726328
-0.87037
1.35418
1.4585
-2.99022
-1.65262
-2.80337
1.17542
2.17481
-0.560655
0.730605
1.08446
-2.89486
0.542594
3.05824
-0.0352249
3.1364
-1.01014
-3.07149
0.956576
0.929414
1.50557
-2.16889
1.55193
0.940679
-0.554848
-0.144004
0.837221
-1.31986
-1.11421
-2.75259
-0.743606
1.70898
-1.45364
-0.416693
1.68462
1.12537
2.02748
1.4212
-2.08742
-0.256912
-2.70292
-1.92526
-0.942492
-1.63449
-1.15627
-2.92603
-0.895288
-3.04183
-1.98886
2.89372
-2.12289
-0.18413
2.39187
-2.00537
-1.60504
1.48511
-0.898693
-1.8187
0.916444
1.13492
-1.63321
-2.59709
2.74886
1.6544
1.29817
-1.36143
-2.24874
-1.83244
0.637102
0.203871
1.22262
1.2967
-2.58582
-2.69304
-3.13598
1.8261
2.3701
1.35793
-2.59079
-2.50058
2.4207
1.14223
0.825045
1.15256
-3.02118
2.73269
1.15817
-2.47178
0.303541
2.26353
-0.541273
-2.56708
-2.35228
-1.86718
1.30765
2.84361
-1.19113
-1.51334
-2.97444
0.264781
-1.14236
2.88315
-0.633792
2.47203
-0.148057
0.11691
-0.605626
-2.08685
1.28703
0.92424
2.51657
-1.73467
2.29917
-1.03302
-1.57889
1.03125
1.16827
0.1348
1.57195
0.300252
2.99523
-2.20276
-2.26573
-0.278528
1.11155
-1.13513
0.848737
-2.6932
0.44113
-0.0361631
2.8562
0.272448
1.57913
-0.334301
-2.06628
1.06247
1.98665
2.04649
-2.05713
1.69877
2.87114
-3.02475
2.53239
0.605075
-2.71171
0.755844
-1.44271
-0.368552
0.735243
-0.876911
2.58803
1.92741
2.60074
-2.81973
2.97166
-2.1303
2.83586
0.902014
-2.78679
3.06365
-3.13441
1.33777
-0.4242
3.07577
-2.06659
-3.05924
1.60945
0.831189
-0.176505
-1.11701
-0.92333
-2.62186
-2.74604
-2.19661
1.80877
2.02774
0.97029
2.73055
-0.675108
-2.78314
0.268273
0.726112
-0.998037
1.83095
1.06526
-2.34461
0.252354
-3.02563
-1.82568
-2.71952
0.146152
-2.42885
-0.70426
0.670289
0.0641192
1.03487
0.124455
-0.373411
-2.02671
2.51642
0.786821
2.03519
1.1421
1.78457
0.554691
0.970473
0.733589
1.59398
0.652507
0.466449
2.19832
1.06763
0.908838
-1.09171
0.641527
2.30226
-1.94014
0.322496
2.21459
2.72885
2.05659
0.738405
-0.400375
0.221428
1.0654
0.82135
2.16943
2.04693
-1.86389
0.721243
-0.51196
0.728517
-2.74612
-0.234626
-0.945339
1.26574
0.0148773
0.23654
1.93438
-0.110445
2.72041
-2.92333
-2.9212
-2.86286
-2.98154
-2.99117
-2.69834
-0.513806
2.07421
1.41079
-2.46816
-2.74804
0.657256
3.04393
0.818639
0.955117
1.50944
3.0208
-1.05644
3.12374
-3.03568
-0.388309
-2.12596
-0.683458
-3.11783
3.10227
-2.69656
0.179468
2.43347
-2.69824
-0.231487
-2.94497
1.95704
1.26307
-2.77209
2.58471
-3.01097
-0.739583
-1.61268
2.95247
1.1135
2.69597
-1.04363
2.58301
1.04635
0.722152
-1.49836
2.92977
-1.97263
1.06998
-1.26753
0.834375
-0.35463
1.14162
-0.0252702
1.1895
1.31334
1.79201
-1.98569
-0.559161
-1.94701
0.735146
1.57491
-2.77817
-2.09037
-1.64112
-3.13187
0.00151277
2.48931
-0.75837
1.18799
-1.57899
-2.53005
-2.58744
2.48793
0.112511
3.07705
0.291657
-0.749388
-1.00527
-3.08162
-2.60243
2.68258
0.976644
2.75653
2.72664
-2.19663
-0.622007
-2.82323
1.86745
0.980573
0.409765
-2.85012
-1.60714
0.648632
-3.0879
3.03343
0.544666
-3.10583
-3.12277
2.02738
-0.414212
2.47822
2.30683
2.21123
1.89001
-3.12112
-2.20715
2.8322
0.416403
-2.88807
2.09272
-2.99993
-1.10045
2.68647
-3.00377
2.0012
2.82768
2.92032
2.21096
-3.02719
-2.73523
-1.96568
0.658138
-0.94461
0.782757
-0.520322
0.622129
-1.88399
0.303362
-2.11672
0.61724
2.21493
-2.0194
-1.12324
2.2965
-1.97723
-2.54895
-2.69861
-2.49827
-2.2131
1.6842
-0.639383