/*--------------------------------*- C++ -*----------------------------------*\
| =========                 |                                                 |
| \\      /  F ield         | OpenFOAM: The Open Source CFD Toolbox           |
|  \\    /   O peration     | Version:  2406                                  |
|   \\  /    A nd           | Website:  www.openfoam.com                      |
|    \\/     M anipulation  |                                                 |
\*---------------------------------------------------------------------------*/
FoamFile
{
    version     2.0;
    format      ascii;
    arch        "LSB;label=32;scalar=64";
    class       volVectorField;
    location    "38";
    object      momentum:angularMomentum;
}
// * * * * * * * * * * * * * * * * * * * * * * * * * * * * * * * * * * * * * //

dimensions      [1 1 -1 0 0 0 0];

internalField   nonuniform List<vector> 
59516
(
(1.99307e-10 -1.08954e-09 2.29423e-07)
(6.06091e-10 -4.43331e-10 1.71888e-07)
(-6.46728e-10 1.93982e-09 2.08837e-07)
(-3.46175e-09 -2.47227e-10 1.75207e-07)
(-7.96985e-09 5.06809e-10 2.00244e-07)
(-5.20247e-09 2.77035e-09 5.03648e-08)
(-1.3489e-09 -2.47772e-09 2.13242e-07)
(-5.31761e-10 -1.58567e-09 2.02161e-07)
(-1.31849e-09 2.68281e-11 1.6058e-07)
(3.23823e-09 1.55299e-09 8.36285e-08)
(-2.53514e-09 -5.60455e-10 2.06825e-07)
(-4.54464e-09 -3.93976e-09 1.0398e-07)
(-2.46812e-09 -1.49657e-09 3.29659e-07)
(9.0588e-11 -1.70023e-10 1.64056e-08)
(3.29295e-10 -9.12854e-09 1.58921e-07)
(-2.37259e-09 6.29011e-09 8.81152e-08)
(-4.18924e-10 -5.30745e-10 2.62721e-07)
(-1.27068e-08 -3.6443e-09 1.60255e-07)
(-1.53125e-08 -3.97405e-09 3.31552e-07)
(3.80288e-11 1.42549e-09 3.64567e-07)
(-2.20596e-09 1.09344e-09 1.0096e-07)
(8.84187e-10 7.25149e-10 3.18312e-07)
(-1.06125e-09 -1.68406e-09 3.50602e-07)
(9.82466e-10 5.81015e-10 3.64829e-08)
(1.03152e-09 1.92044e-09 3.08592e-07)
(-9.28984e-10 4.84527e-09 2.09066e-07)
(-6.98621e-10 3.69645e-09 5.47064e-08)
(-5.65779e-09 -2.5611e-09 7.47217e-08)
(-4.96345e-09 -2.16003e-09 1.46647e-07)
(1.79888e-09 1.42346e-09 1.42831e-08)
(-3.75806e-08 2.11938e-09 1.89427e-07)
(-5.24324e-09 4.01592e-09 8.4342e-08)
(-1.04266e-09 -5.27784e-10 1.76088e-07)
(-3.60583e-09 -1.47617e-09 1.78435e-07)
(-5.25166e-09 -2.21255e-10 1.33197e-07)
(-1.10435e-10 4.83242e-10 3.99522e-07)
(-2.08244e-09 1.07922e-09 1.37917e-08)
(-1.29083e-08 -4.14718e-09 1.32028e-07)
(-9.36043e-09 1.29526e-09 2.69981e-07)
(2.22962e-09 2.87259e-10 2.7654e-07)
(4.24013e-10 -1.78588e-09 2.64403e-07)
(-3.05981e-08 6.84778e-11 4.06298e-07)
(-8.04869e-09 1.73243e-09 3.42729e-07)
(-7.59174e-10 4.30419e-10 1.14101e-07)
(-6.24836e-09 1.51769e-09 2.66109e-07)
(2.87071e-09 8.02482e-10 1.06411e-07)
(-1.04215e-08 1.64156e-10 3.26095e-07)
(-5.23843e-09 9.39441e-10 2.51072e-07)
(-3.4458e-08 3.13306e-09 2.51837e-07)
(-1.20135e-08 3.83653e-11 2.39249e-07)
(-2.82021e-08 8.25342e-10 1.63903e-07)
(-7.03538e-09 -3.4295e-09 8.01178e-08)
(8.14061e-10 -6.24907e-09 3.2166e-07)
(-8.29498e-10 7.14736e-10 3.05811e-07)
(-4.7702e-09 1.12956e-09 8.3782e-08)
(-3.6914e-09 6.01116e-10 2.47265e-07)
(-1.61182e-08 -1.15438e-10 2.02568e-07)
(-7.71751e-09 -2.90862e-09 8.21653e-08)
(-1.40306e-10 -4.42633e-11 2.00299e-07)
(-1.02855e-08 -4.23492e-10 1.4552e-07)
(7.12726e-11 6.23665e-10 2.07605e-07)
(-1.2186e-09 1.69167e-09 1.61363e-08)
(-1.19047e-10 8.79835e-10 2.56588e-07)
(-3.44211e-09 6.77112e-10 3.33584e-07)
(-1.37236e-09 8.15486e-10 2.99638e-07)
(-7.2678e-09 2.85855e-10 2.13818e-07)
(1.5177e-10 2.17819e-09 1.92787e-08)
(-1.73967e-10 4.37699e-10 6.92626e-08)
(-3.72053e-08 6.16398e-10 1.98206e-07)
(-2.3401e-09 -1.26028e-09 1.69964e-07)
(-9.51442e-10 -1.30777e-09 5.50257e-08)
(-7.94918e-10 -5.27412e-10 1.54196e-07)
(3.77265e-09 -1.524e-09 2.45598e-08)
(-1.66681e-10 -2.85408e-10 1.86056e-07)
(-4.07844e-10 1.27928e-10 3.5743e-07)
(-4.20901e-09 1.97476e-10 3.57795e-07)
(-3.30427e-09 -3.59928e-11 2.11879e-07)
(-4.15829e-10 2.79375e-10 2.24907e-07)
(3.54879e-09 2.00011e-09 8.9146e-08)
(-9.1118e-09 1.01171e-09 1.914e-07)
(-3.51946e-09 1.01688e-10 5.35984e-08)
(-7.138e-09 5.77735e-10 1.70277e-07)
(-6.65915e-09 6.43355e-10 1.82286e-07)
(-2.44929e-09 1.30267e-09 1.92312e-08)
(-8.80984e-09 1.20755e-09 2.13865e-07)
(3.52383e-10 1.32041e-09 3.65181e-07)
(6.4891e-10 1.13924e-09 3.32022e-08)
(2.71998e-09 6.21979e-10 5.02534e-07)
(-4.5347e-09 -2.61272e-09 1.14741e-07)
(-1.5151e-08 -3.85883e-09 1.67095e-07)
(-1.57128e-08 -7.99945e-11 1.83343e-07)
(-1.84413e-09 1.68773e-09 1.87983e-07)
(-3.88108e-11 1.98685e-10 2.4967e-07)
(-2.78104e-10 1.64512e-09 1.82007e-07)
(-3.408e-10 3.23184e-10 1.77247e-07)
(-1.88699e-08 -5.7874e-11 1.83465e-07)
(-6.89204e-10 -5.72898e-10 1.24448e-07)
(3.25898e-09 6.67516e-09 8.8612e-08)
(-4.00716e-09 -1.799e-09 1.16386e-07)
(1.83121e-09 1.54059e-09 2.06479e-07)
(-2.09559e-09 1.61922e-09 6.48906e-08)
(3.1127e-09 1.53378e-09 2.79281e-08)
(3.11435e-09 1.64621e-09 2.47183e-08)
(-3.15655e-09 3.63776e-09 8.89155e-08)
(1.13036e-09 -1.64788e-10 2.3564e-07)
(-3.6748e-10 1.68999e-10 1.61308e-07)
(2.68352e-09 -4.76126e-09 5.8436e-08)
(-8.29879e-10 -5.49514e-10 1.41487e-07)
(-6.99027e-10 1.06857e-09 1.80389e-07)
(-4.31469e-09 6.81125e-09 1.96596e-07)
(-4.16889e-08 -5.46268e-10 2.80214e-07)
(3.46518e-09 -3.1241e-09 4.54673e-08)
(-7.36731e-09 9.5048e-09 1.95241e-07)
(-3.59609e-08 -8.14536e-11 2.19229e-07)
(-9.53375e-12 -1.53771e-10 2.17364e-07)
(1.29136e-09 -1.61807e-09 1.41689e-07)
(-4.59643e-09 -2.69079e-09 1.31774e-07)
(-6.13346e-10 -6.46979e-10 1.45026e-07)
(-3.61722e-10 -9.0611e-10 1.94044e-08)
(-1.78996e-09 1.9509e-09 2.61058e-07)
(1.21643e-09 3.98139e-10 3.8722e-07)
(-5.31524e-11 3.46228e-10 1.70511e-07)
(5.45383e-10 4.96441e-10 1.58038e-07)
(-6.06906e-10 4.3296e-10 1.76974e-07)
(-1.77926e-08 1.24254e-09 1.32944e-07)
(-4.6413e-09 1.21422e-10 1.4496e-07)
(-2.33792e-09 -1.02443e-09 3.78248e-08)
(-1.99684e-08 3.29616e-09 2.12013e-07)
(-2.3721e-08 5.57212e-09 1.63213e-07)
(4.72252e-10 -1.62328e-10 1.52092e-07)
(7.16323e-10 -8.77483e-10 2.68144e-07)
(4.45169e-09 5.56299e-09 3.31419e-07)
(-5.57245e-10 -2.08212e-09 2.39588e-08)
(5.76813e-10 9.58451e-10 2.55423e-07)
(3.3812e-09 1.07974e-09 3.24103e-07)
(-2.85324e-09 1.9514e-09 2.01878e-07)
(-2.18275e-08 1.99546e-09 1.51892e-07)
(8.19108e-10 1.2199e-09 3.18108e-07)
(-4.88319e-10 3.64909e-09 5.4629e-08)
(-1.57295e-09 1.48723e-09 1.63392e-07)
(-1.77527e-09 3.93241e-09 7.98557e-08)
(-6.83419e-10 -4.96352e-10 3.12709e-07)
(-7.18967e-10 -1.24712e-09 1.46305e-08)
(-4.2431e-10 1.49657e-09 1.52806e-07)
(-3.93594e-10 4.42501e-10 2.0739e-07)
(-2.48105e-09 1.51495e-09 2.83331e-07)
(-5.82387e-09 1.83571e-09 2.03537e-07)
(-3.79136e-09 2.1035e-09 2.08725e-07)
(9.77557e-10 -1.81873e-09 6.40375e-08)
(-2.63285e-10 2.25415e-09 2.11797e-07)
(2.07955e-10 -2.59727e-09 3.27538e-07)
(2.68009e-10 2.01749e-09 5.54117e-08)
(2.25126e-09 2.21822e-09 3.7771e-07)
(1.02834e-09 3.41649e-10 2.16651e-07)
(-8.93652e-10 -3.5014e-09 1.63952e-07)
(-1.47803e-09 8.62818e-10 1.55272e-08)
(1.03259e-10 -3.36401e-10 2.84235e-07)
(-2.76099e-09 2.02566e-09 3.37704e-07)
(-1.60674e-09 9.05253e-10 1.33057e-07)
(-2.41812e-09 -1.73092e-09 1.67473e-08)
(3.91844e-09 3.36757e-09 9.23053e-08)
(6.43044e-09 -3.51572e-09 1.15853e-07)
(-7.27914e-10 1.6094e-09 4.18923e-08)
(-2.2614e-10 -4.55122e-10 2.37894e-08)
(4.88303e-09 1.77058e-10 1.67697e-07)
(-1.88728e-09 1.05985e-09 3.17608e-07)
(1.99217e-09 -4.25203e-11 1.60894e-07)
(-8.71524e-10 -1.9627e-10 2.69458e-07)
(1.09593e-09 2.10134e-09 1.81367e-08)
(-3.59041e-10 -7.4923e-10 2.13916e-07)
(-1.41584e-09 -1.18702e-09 8.97762e-08)
(-1.14021e-09 8.96837e-10 7.00143e-08)
(4.20345e-11 -3.09827e-09 1.10321e-07)
(5.73957e-10 -8.3683e-10 1.52221e-07)
(9.2437e-10 1.24956e-09 8.88826e-08)
(-1.50041e-08 -2.00752e-09 4.54242e-07)
(-1.47648e-09 3.23624e-10 2.40676e-07)
(-1.06912e-08 1.15389e-09 3.09576e-07)
(1.08769e-09 -7.38584e-09 1.54094e-07)
(7.80193e-10 4.98816e-10 6.54728e-08)
(-1.92954e-09 -3.78767e-09 3.06833e-07)
(1.20534e-09 4.06061e-09 4.47201e-08)
(-1.12829e-09 -2.25617e-09 3.13861e-08)
(1.01861e-09 2.71985e-09 1.0894e-07)
(3.71124e-10 -5.35049e-10 1.96417e-07)
(-6.18891e-10 1.13516e-09 1.00587e-07)
(-3.7237e-09 8.1137e-10 4.80087e-08)
(1.42937e-10 2.35594e-10 2.12634e-08)
(-1.63494e-10 -1.16279e-11 1.94074e-07)
(3.53069e-09 1.98142e-09 2.3193e-07)
(-3.34112e-09 -4.65191e-10 1.58635e-07)
(-2.01486e-09 -6.92606e-09 1.19726e-07)
(-5.14984e-10 -4.96257e-10 2.10885e-07)
(2.99447e-09 -2.58216e-09 9.83266e-08)
(-4.7415e-10 3.26133e-10 3.37846e-07)
(4.39348e-10 7.43219e-10 2.98728e-08)
(1.34327e-09 2.16755e-10 1.01131e-07)
(4.31538e-10 -1.57471e-09 5.93531e-08)
(-7.89911e-09 -4.36579e-10 1.90189e-07)
(8.88283e-10 -7.4317e-10 2.62415e-07)
(-1.66436e-09 -2.13992e-09 7.97491e-08)
(-5.52833e-10 -4.10516e-10 1.8332e-07)
(8.63387e-10 3.37463e-09 3.21008e-07)
(1.42979e-09 -1.63963e-09 1.68035e-08)
(1.88811e-09 1.71943e-09 2.23929e-07)
(-9.6383e-11 -3.04853e-10 2.38371e-07)
(8.76944e-11 -8.58063e-11 3.34228e-07)
(7.27869e-10 -9.7949e-10 1.95478e-07)
(1.67452e-10 -5.62812e-10 1.89832e-08)
(4.52618e-09 2.33796e-09 3.08562e-07)
(-5.42849e-10 5.84307e-09 6.29158e-08)
(-4.10642e-09 8.61433e-10 2.54497e-08)
(-1.74129e-09 1.52847e-09 2.32784e-07)
(-4.59126e-10 2.27861e-09 9.90365e-08)
(-1.74424e-09 -2.8397e-09 2.99768e-07)
(-4.05479e-10 -4.50851e-10 2.81167e-07)
(-1.66123e-09 8.13355e-10 2.7308e-07)
(-1.26675e-09 1.12039e-09 2.06214e-07)
(-2.78307e-09 4.95856e-09 8.6479e-08)
(1.1419e-09 1.83008e-10 2.17342e-07)
(-2.4733e-09 -5.8077e-09 1.24198e-07)
(-3.34487e-10 8.09424e-10 1.98791e-07)
(-9.02716e-10 -1.02395e-09 1.75588e-07)
(8.45111e-10 -1.20082e-09 7.82861e-08)
(-1.21827e-09 -7.05946e-10 2.88159e-07)
(1.24684e-09 7.41909e-10 3.01025e-07)
(-1.20869e-09 -1.22858e-09 3.31431e-08)
(-3.7681e-09 8.55879e-10 6.81683e-08)
(-1.08575e-10 1.01181e-09 1.93858e-07)
(-4.47986e-09 7.7384e-09 1.22137e-07)
(6.30819e-10 8.69222e-10 2.35859e-07)
(-5.39642e-10 3.18042e-10 1.74586e-07)
(-1.57789e-09 -1.20573e-09 3.04639e-07)
(-1.38406e-09 -2.32222e-09 2.79884e-08)
(-1.34418e-09 -1.17689e-09 3.25583e-08)
(-1.74492e-09 3.90495e-11 4.09846e-08)
(5.26359e-10 -7.64323e-10 1.13206e-07)
(-2.6176e-09 -5.96817e-10 1.79121e-07)
(-4.00586e-09 8.5037e-10 4.13754e-07)
(2.90205e-09 -3.82934e-10 8.95874e-08)
(9.02113e-10 3.35048e-10 2.39433e-07)
(2.38297e-09 1.69234e-09 1.96626e-08)
(1.51239e-09 1.11975e-09 1.13648e-07)
(2.67292e-09 1.58948e-09 2.82676e-08)
(6.7258e-10 2.04446e-10 1.57643e-07)
(-4.65072e-10 -9.6993e-10 1.5746e-07)
(-1.06372e-09 2.19861e-10 1.96041e-07)
(-1.49846e-09 4.39976e-09 1.92499e-07)
(2.12675e-10 1.71436e-10 2.72446e-07)
(-7.55175e-10 -4.68813e-10 2.04184e-07)
(2.80023e-09 -4.89812e-10 3.75453e-07)
(-9.61114e-10 3.44069e-10 2.13273e-07)
(7.0363e-10 3.6266e-10 1.8386e-07)
(2.9188e-10 9.56931e-10 2.80894e-07)
(-1.05928e-09 2.5707e-09 2.81614e-07)
(-4.98609e-10 1.0868e-09 2.96561e-07)
(-5.61986e-10 -3.95438e-11 1.15475e-07)
(-2.93723e-09 6.01625e-10 2.81435e-07)
(2.36308e-09 4.01768e-09 8.39655e-08)
(-5.41532e-10 3.60682e-09 1.0129e-07)
(-1.8686e-09 8.80496e-10 2.20829e-07)
(-6.42668e-10 1.39878e-09 2.57688e-07)
(6.25176e-09 1.65749e-09 2.43349e-07)
(3.88381e-10 1.13631e-09 2.75682e-07)
(1.65708e-09 1.897e-10 7.6441e-08)
(1.03107e-10 -5.32077e-09 1.10751e-07)
(-7.31037e-10 -1.57965e-09 3.0032e-07)
(4.43714e-09 4.67327e-10 2.20281e-07)
(-7.82711e-10 -1.12455e-09 6.39338e-08)
(-4.81225e-10 2.042e-09 7.68674e-08)
(-3.2359e-09 3.66348e-09 1.67704e-07)
(-7.01646e-10 -4.58517e-10 1.80962e-07)
(-4.37178e-09 5.64012e-09 3.15058e-07)
(-9.4046e-10 2.27434e-09 1.53172e-07)
(-2.37064e-09 2.71436e-10 3.28018e-07)
(2.08814e-10 5.55212e-09 1.95586e-07)
(-1.1934e-09 -2.50693e-09 2.03905e-08)
(1.2566e-09 1.54563e-09 2.93907e-07)
(2.5199e-09 -1.91123e-09 3.00613e-08)
(2.34172e-09 1.23054e-09 5.41308e-08)
(-1.78871e-09 -1.09601e-09 3.3789e-07)
(-5.40363e-10 6.05601e-10 2.51298e-07)
(-3.88699e-09 2.05419e-09 2.88059e-08)
(-5.52133e-10 -2.51099e-09 3.02876e-07)
(-2.22386e-09 -4.06865e-09 2.50579e-07)
(-4.03038e-10 1.00736e-09 2.44673e-07)
(8.92712e-10 -6.53234e-10 3.11034e-07)
(2.07075e-09 -2.05477e-09 2.42291e-08)
(-6.21613e-10 8.88307e-10 2.67975e-07)
(-5.49982e-10 -7.28061e-10 1.41339e-07)
(-3.84101e-10 -8.3079e-10 1.54174e-07)
(-1.64709e-09 -3.1231e-10 2.54071e-07)
(-1.75137e-09 1.18552e-09 1.69903e-07)
(-8.84526e-10 -5.988e-10 1.80896e-07)
(1.6106e-10 -1.86796e-09 2.60011e-07)
(-8.87458e-12 2.336e-09 4.00702e-08)
(9.35976e-10 -2.12785e-09 2.7679e-07)
(1.16778e-09 9.59015e-10 1.91319e-07)
(-1.16214e-09 -1.49411e-09 3.44732e-07)
(-6.23997e-10 -1.12265e-09 2.58753e-07)
(1.79789e-09 -1.67002e-09 3.1256e-07)
(2.40827e-09 -2.93931e-09 1.40559e-07)
(-6.30809e-10 -1.31542e-09 2.04795e-08)
(9.23848e-10 5.49419e-10 3.69532e-08)
(-3.7889e-09 2.05339e-09 5.05186e-07)
(-2.74274e-09 1.14811e-09 1.90117e-08)
(-2.20011e-09 -2.19542e-09 1.77438e-07)
(-1.47334e-09 4.19207e-09 7.54761e-08)
(4.4494e-10 -1.51591e-09 3.06469e-07)
(-8.53321e-10 -7.16879e-10 3.61966e-07)
(-1.62828e-10 8.69178e-10 3.11912e-07)
(2.45125e-09 1.20429e-09 1.26104e-07)
(7.26202e-09 5.9829e-11 3.0037e-07)
(1.59775e-10 7.43281e-09 7.00384e-08)
(8.92703e-10 -2.71122e-09 8.86362e-08)
(-1.3343e-10 2.13562e-10 1.9556e-07)
(9.00589e-10 -2.21312e-09 1.59485e-07)
(-3.19968e-08 -3.87755e-09 2.69478e-07)
(4.71278e-10 -4.5492e-09 1.95313e-07)
(-7.86918e-10 -7.27069e-11 6.62824e-08)
(3.4824e-09 -1.71186e-10 1.05611e-07)
(-9.70867e-10 -3.31641e-09 2.10002e-07)
(-1.03786e-10 -1.65138e-11 2.07476e-07)
(1.44051e-10 -1.40652e-09 4.01462e-07)
(-1.13533e-09 6.53739e-10 2.135e-07)
(2.55302e-10 3.97329e-09 4.81906e-07)
(-9.71937e-09 -1.32662e-09 1.67195e-07)
(-3.21001e-09 3.24126e-10 3.39817e-07)
(-2.20563e-09 1.92732e-09 2.68476e-07)
(5.8873e-10 2.44439e-10 1.93748e-07)
(2.10415e-09 -2.0084e-10 3.30771e-07)
(-4.71608e-09 -4.24721e-09 1.06461e-07)
(3.00796e-09 -1.16445e-09 2.39926e-08)
(1.88301e-09 -7.56089e-11 2.91996e-07)
(1.75763e-09 3.93335e-09 6.03242e-08)
(5.81741e-11 -1.68827e-10 2.93616e-08)
(-3.86641e-09 -5.10003e-11 3.85436e-07)
(7.46255e-10 6.80267e-10 1.99848e-07)
(-3.2133e-09 4.61892e-09 1.07428e-07)
(-9.70353e-10 -1.46749e-09 2.44736e-07)
(7.87444e-10 2.91176e-09 3.21089e-07)
(-2.38201e-09 5.06106e-10 4.02537e-07)
(-1.26412e-09 -1.75256e-10 2.58054e-07)
(-1.1557e-10 -1.49824e-09 3.20658e-08)
(2.51978e-10 -3.9124e-10 3.12787e-07)
(-1.81429e-09 4.03043e-10 2.08913e-07)
(3.14525e-10 1.2947e-09 1.01361e-07)
(-2.5291e-10 -2.19308e-09 2.79855e-07)
(-6.36316e-10 5.73721e-10 2.40969e-07)
(8.86014e-10 7.95574e-10 1.74814e-07)
(9.60594e-10 1.06365e-09 2.01143e-07)
(-5.52969e-10 -2.55533e-09 2.72617e-07)
(1.21882e-09 1.5684e-09 2.01056e-07)
(-4.27439e-10 1.5058e-10 7.9453e-08)
(-3.98288e-10 1.00784e-09 2.06597e-08)
(3.58038e-10 2.87495e-09 4.03245e-08)
(1.13979e-09 2.06861e-10 2.24012e-07)
(-3.89688e-08 -1.55944e-10 2.67969e-07)
(-1.13966e-08 1.20284e-09 1.15822e-07)
(4.26994e-10 -4.61467e-10 1.14102e-07)
(3.15716e-09 -2.76114e-09 2.50804e-07)
(-8.14622e-10 1.09853e-09 3.09886e-07)
(-5.35887e-09 8.70329e-10 2.28789e-07)
(1.48512e-09 9.45838e-10 3.56438e-07)
(-1.13718e-09 -1.14148e-09 3.39743e-07)
(-3.72212e-10 -8.27951e-10 2.22018e-07)
(-1.03382e-09 -1.16711e-10 1.37152e-07)
(-3.35009e-10 7.00933e-10 2.46684e-08)
(-4.78115e-08 1.76333e-09 2.41015e-07)
(6.81848e-10 2.41271e-09 8.95125e-08)
(-1.59355e-09 2.64319e-09 6.57299e-08)
(1.40967e-09 5.26945e-10 6.9429e-08)
(7.18941e-11 4.13698e-10 1.69973e-07)
(-6.61404e-10 4.83095e-10 1.76571e-07)
(-1.50227e-09 4.26834e-10 2.32516e-07)
(-1.1608e-09 1.35238e-09 1.75627e-08)
(5.15473e-10 -3.12699e-10 1.71077e-07)
(1.75705e-09 -1.03634e-09 6.65602e-08)
(-2.87777e-10 5.76122e-10 1.82236e-07)
(-5.77126e-10 6.91376e-10 5.70836e-08)
(4.30413e-09 1.75959e-09 1.50998e-07)
(1.61262e-09 5.41536e-09 2.23151e-07)
(-1.85186e-09 4.13916e-11 1.84261e-07)
(2.64054e-09 -1.61226e-10 1.9555e-08)
(-1.54941e-10 5.18624e-09 1.15228e-07)
(-1.44729e-10 -1.07785e-09 2.3972e-07)
(3.56095e-11 -2.57835e-09 2.59854e-08)
(-1.96276e-08 -4.88767e-10 2.89391e-07)
(6.92015e-10 -4.01453e-09 1.84534e-07)
(6.13418e-11 -4.58907e-09 3.05146e-07)
(4.91807e-09 -5.39702e-09 2.03566e-07)
(2.24865e-09 6.68956e-10 9.55973e-08)
(2.25775e-09 -1.1357e-09 3.87923e-07)
(-1.86243e-08 -5.94116e-09 1.42097e-07)
(-1.608e-09 -4.72661e-10 3.13827e-07)
(-1.7261e-08 1.061e-09 1.55477e-07)
(-5.14595e-09 3.75196e-09 1.45418e-07)
(-1.02166e-09 3.45687e-09 1.46869e-07)
(-4.79648e-10 -1.2248e-09 2.61015e-07)
(1.78248e-09 -3.08061e-09 5.20353e-07)
(9.29745e-10 -8.05417e-10 8.26752e-08)
(-7.52183e-10 -1.99847e-09 3.40802e-07)
(-2.73142e-09 9.65985e-10 1.22287e-07)
(1.0296e-09 -1.52795e-09 4.16731e-07)
(8.60319e-10 -1.86348e-09 3.17955e-07)
(-1.65595e-09 -5.49574e-09 7.20038e-08)
(-7.91058e-10 1.34133e-09 2.19077e-07)
(5.78697e-09 -4.60549e-10 3.80783e-07)
(-6.40424e-10 -6.26259e-10 2.2755e-07)
(4.81221e-10 -9.2031e-10 2.19832e-07)
(2.86214e-09 -1.50762e-09 2.44228e-08)
(-2.67576e-09 -7.3763e-10 2.04358e-08)
(-3.15179e-09 3.06426e-09 2.95297e-07)
(1.60769e-10 -1.15471e-10 2.73278e-07)
(1.61636e-09 1.27834e-09 2.10619e-07)
(-2.3787e-09 1.25602e-09 3.71701e-08)
(5.47264e-10 -5.65245e-10 8.61786e-08)
(-3.15849e-09 1.60315e-10 3.07921e-07)
(-6.04275e-10 -5.70321e-10 1.60326e-07)
(1.39369e-09 1.41647e-09 2.98458e-07)
(1.30468e-09 6.90754e-10 2.71942e-07)
(-2.44072e-10 -1.3407e-09 2.11522e-07)
(-3.73545e-10 -2.25346e-09 2.26105e-07)
(4.45016e-10 -8.03543e-10 1.25207e-07)
(-1.37818e-09 4.89453e-10 2.0407e-07)
(-3.09564e-09 3.81313e-09 9.09436e-08)
(-6.73247e-10 1.55377e-10 2.80325e-07)
(-1.70217e-09 -1.1613e-09 1.93643e-07)
(-1.5563e-09 5.64895e-11 2.11785e-07)
(-3.68206e-10 -2.72868e-10 2.12205e-07)
(-2.41676e-10 7.5599e-10 3.4956e-07)
(1.91688e-09 -6.31328e-10 2.64616e-07)
(3.04502e-09 4.53677e-09 7.04635e-08)
(1.17104e-09 2.59927e-11 4.63941e-08)
(-1.89113e-09 -1.90498e-09 2.04232e-08)
(-1.18748e-08 9.28456e-11 2.3001e-07)
(1.11828e-10 1.18563e-10 2.79422e-07)
(-2.03032e-09 2.73264e-10 2.71009e-07)
(1.15168e-12 -1.89382e-09 1.95339e-07)
(1.10919e-09 2.00366e-10 3.10036e-08)
(7.45727e-10 -2.62046e-09 2.34776e-08)
(-1.15512e-09 -2.61344e-09 1.84219e-07)
(-1.79174e-09 1.31557e-09 2.2888e-07)
(-7.16037e-10 -1.36893e-09 2.98143e-07)
(9.82195e-10 -7.51181e-10 3.17639e-07)
(-2.03153e-09 -2.60531e-10 2.0048e-07)
(-8.99901e-10 1.04802e-09 3.23307e-07)
(3.19716e-09 -3.73937e-10 3.7802e-07)
(-1.4463e-09 2.84295e-09 3.2999e-08)
(-3.86842e-11 9.3219e-10 1.85279e-07)
(3.40836e-09 -1.9722e-09 7.58134e-08)
(-9.89928e-09 -1.0897e-09 9.75952e-08)
(-8.11249e-11 2.08465e-10 1.26425e-07)
(5.83505e-10 -1.28958e-10 1.46374e-07)
(2.17739e-11 -2.15249e-11 2.51499e-07)
(-3.4113e-09 2.14208e-09 2.0328e-08)
(2.13673e-09 -1.39843e-09 3.40295e-07)
(-3.10092e-10 -1.76095e-10 2.53951e-07)
(-1.34621e-09 3.9755e-10 2.05477e-07)
(1.59557e-09 -1.44523e-09 2.07678e-07)
(5.60704e-11 -1.38254e-09 1.69038e-07)
(-1.00085e-09 -1.26582e-09 2.50683e-07)
(-3.0652e-11 8.15412e-10 2.49536e-07)
(-1.84469e-09 8.7849e-10 2.86766e-07)
(-8.02949e-09 -1.07704e-09 1.68284e-07)
(-6.77965e-10 -7.49926e-10 2.5939e-07)
(-4.52689e-09 1.50065e-09 2.89296e-07)
(1.42136e-09 -1.18825e-09 1.92941e-08)
(3.35054e-10 1.06086e-09 2.91433e-07)
(2.20541e-09 2.56658e-09 1.93812e-07)
(-4.22733e-09 -3.93218e-09 6.71331e-08)
(-1.60339e-09 2.76801e-09 1.7665e-07)
(8.959e-10 4.86497e-10 3.33746e-07)
(4.02652e-12 -1.42449e-09 2.2732e-07)
(1.37974e-09 3.24978e-09 1.22846e-07)
(-2.13206e-09 1.48301e-09 1.90245e-08)
(-2.96043e-10 1.26069e-09 2.46966e-07)
(1.33501e-09 6.49748e-09 3.40516e-07)
(-7.6821e-10 1.2695e-10 2.31842e-07)
(-1.08387e-09 -2.16829e-10 1.90851e-07)
(-3.7349e-09 9.54318e-10 5.98496e-08)
(9.13937e-10 -1.5193e-10 2.51433e-07)
(-4.0291e-09 2.89825e-10 2.68545e-08)
(1.45531e-12 6.5374e-10 1.69934e-07)
(-2.43963e-08 1.23175e-09 2.08663e-07)
(1.15499e-09 7.25508e-10 2.47297e-07)
(-5.01677e-10 3.15558e-09 9.20864e-08)
(-2.14246e-09 2.78871e-09 1.8738e-07)
(-4.03554e-10 1.59812e-09 1.18643e-07)
(2.77265e-09 -2.60218e-09 4.96253e-08)
(1.12303e-09 1.19957e-09 4.37422e-07)
(-1.0505e-09 -1.60317e-10 2.02008e-07)
(-1.80772e-09 -6.86304e-10 1.86733e-08)
(6.21043e-10 -1.60525e-09 2.72584e-07)
(-1.06107e-09 -8.19905e-10 2.65992e-07)
(-6.15417e-10 2.25704e-09 4.05547e-08)
(3.07124e-09 4.84871e-09 1.32389e-07)
(-2.75019e-09 3.72341e-09 1.0255e-07)
(-6.88244e-10 1.00771e-09 1.87837e-07)
(-1.48368e-10 -4.38581e-10 2.45959e-07)
(-1.29368e-09 1.32948e-09 3.5247e-08)
(3.05475e-09 -1.36133e-09 9.48121e-08)
(-4.48294e-10 2.01714e-09 1.05832e-07)
(1.80601e-09 1.25606e-09 1.79118e-07)
(-3.71117e-10 -6.92541e-10 3.17389e-07)
(-2.88741e-09 -1.93785e-09 2.4442e-08)
(2.52112e-09 1.09988e-09 3.60732e-07)
(-3.10151e-09 -1.47141e-09 2.35637e-07)
(-4.13617e-10 -1.75656e-09 2.59333e-07)
(-2.97569e-09 -6.1192e-09 1.14194e-07)
(2.12567e-09 8.4034e-10 3.24241e-07)
(1.26485e-09 -2.28112e-09 2.39637e-08)
(-9.40187e-10 -1.37416e-10 2.90161e-07)
(1.92053e-10 -4.48022e-10 2.90076e-08)
(1.60309e-10 -4.27961e-09 1.38716e-07)
(4.64138e-11 1.52979e-09 2.24865e-07)
(-2.52712e-09 3.58183e-09 1.42632e-07)
(-2.6995e-09 1.57409e-09 2.01903e-08)
(4.45e-10 -1.87315e-09 5.31121e-08)
(6.4364e-10 4.83074e-09 7.93114e-08)
(1.778e-09 -4.23348e-09 1.36963e-07)
(-1.70965e-09 1.89104e-10 3.25622e-07)
(-6.77208e-11 1.35285e-09 5.97408e-08)
(2.60431e-09 -4.66023e-09 1.41016e-07)
(-2.69313e-08 1.06491e-09 2.25639e-07)
(-1.01744e-09 -5.20259e-10 2.05331e-07)
(1.96669e-09 1.63526e-11 3.04709e-08)
(7.07879e-10 2.14e-09 2.30534e-07)
(-1.52916e-08 -7.78805e-09 1.47413e-07)
(1.60193e-09 2.06378e-11 1.94227e-07)
(-1.79355e-09 1.56303e-09 1.0367e-07)
(-1.33094e-09 -2.64129e-10 1.70044e-07)
(2.64378e-09 4.82076e-09 1.10618e-07)
(-9.60363e-10 5.35858e-10 1.63036e-07)
(-6.81585e-10 -1.56746e-10 1.53593e-07)
(4.09158e-09 -6.38421e-09 7.55744e-08)
(-6.2652e-11 1.52676e-10 2.84674e-07)
(-4.68799e-09 -1.29969e-09 7.12793e-08)
(2.2507e-09 -1.42701e-09 1.63738e-08)
(-1.30612e-09 1.04539e-09 3.14247e-07)
(1.92563e-10 -5.27668e-10 1.8009e-07)
(-2.00221e-09 1.08524e-09 2.96972e-07)
(1.47168e-09 -2.83574e-09 2.3025e-07)
(3.76947e-09 -5.53556e-10 4.42028e-07)
(3.8437e-09 -2.83633e-10 1.4266e-07)
(3.48089e-09 -7.35219e-10 3.96554e-07)
(2.35601e-09 4.87236e-09 1.01634e-07)
(-3.63323e-10 -3.97706e-10 1.46424e-07)
(4.47926e-09 1.7554e-09 3.09353e-07)
(-4.00428e-09 -2.63618e-09 3.38864e-08)
(-1.39771e-09 8.1371e-10 3.00229e-07)
(2.41988e-09 -2.92304e-09 1.18488e-07)
(1.58623e-09 2.70889e-09 3.13349e-08)
(-1.34934e-09 4.99882e-10 2.77695e-07)
(-2.41478e-09 1.42901e-10 6.50313e-08)
(-1.15538e-10 7.49815e-10 2.03453e-07)
(3.71424e-10 1.06287e-09 2.09825e-07)
(-7.61548e-10 2.28371e-09 3.7574e-07)
(2.25253e-10 6.49924e-09 9.91242e-08)
(2.67056e-09 -3.69656e-10 2.78022e-07)
(2.8638e-09 8.03393e-10 1.56582e-07)
(-1.39286e-10 9.30467e-10 3.03742e-07)
(-2.47846e-10 3.70181e-10 3.08378e-07)
(1.23823e-09 1.26833e-09 2.71572e-07)
(1.18472e-10 -3.70402e-10 1.60513e-07)
(3.34235e-09 -1.32756e-09 5.04573e-08)
(5.99845e-10 5.1436e-10 7.24368e-08)
(-1.19253e-10 3.26792e-11 1.72803e-07)
(-4.13531e-10 -2.96148e-09 2.83325e-07)
(4.13111e-10 2.22249e-09 2.97524e-08)
(3.70681e-10 -3.52819e-10 2.42366e-07)
(1.69904e-10 8.8219e-10 4.60191e-07)
(1.54818e-09 2.00478e-09 3.40429e-07)
(2.06925e-09 2.35424e-09 3.63354e-07)
(-2.55126e-09 1.76873e-09 2.53194e-07)
(-1.64601e-09 2.27419e-09 2.11712e-08)
(8.71015e-10 1.30679e-10 2.22059e-07)
(1.36602e-09 -2.07072e-09 1.50813e-07)
(-8.48564e-10 2.81378e-10 2.62649e-07)
(-1.83244e-10 1.69519e-10 1.64164e-07)
(-2.27203e-09 -1.39417e-09 3.71597e-08)
(-9.34219e-10 7.35582e-11 2.01719e-07)
(-3.21713e-09 4.15165e-09 1.54762e-07)
(6.70125e-10 -4.33511e-10 2.46701e-07)
(1.36701e-09 1.563e-09 2.60832e-07)
(-1.39561e-09 1.86121e-09 2.00091e-07)
(1.30853e-09 1.65867e-09 1.43569e-08)
(-2.20704e-09 9.89069e-10 2.10756e-08)
(-2.68727e-10 -7.26165e-10 1.8086e-07)
(9.85963e-10 -1.26441e-09 2.99869e-07)
(-5.70608e-10 1.85376e-09 2.21211e-07)
(-1.21387e-09 -6.31429e-10 1.80619e-07)
(-5.94051e-10 2.55089e-09 1.64032e-07)
(-6.44964e-10 1.94136e-09 2.55326e-07)
(-1.41399e-11 8.21591e-10 2.80109e-07)
(7.37527e-10 1.66078e-09 2.0393e-08)
(-3.74836e-10 -5.89509e-10 1.43482e-07)
(-1.88432e-08 1.29206e-09 1.74019e-07)
(-9.95424e-11 2.62157e-09 4.84438e-08)
(-5.91138e-10 5.72291e-09 8.763e-08)
(-2.852e-10 2.19391e-09 3.07712e-07)
(2.82575e-09 -9.17149e-10 2.1316e-07)
(4.67369e-10 -8.21914e-10 1.98209e-07)
(1.60674e-09 -9.36415e-10 2.39868e-07)
(-4.18589e-09 2.91901e-09 1.42451e-07)
(-4.5611e-10 -4.31883e-10 3.21118e-07)
(1.52421e-09 -5.37226e-09 1.83531e-07)
(2.83019e-09 -1.24772e-09 4.18614e-07)
(3.27724e-10 6.04265e-10 2.14091e-07)
(1.52556e-09 -5.18952e-10 2.32333e-07)
(1.63041e-09 -1.66141e-09 3.06967e-07)
(1.94243e-09 1.48499e-09 4.98523e-08)
(3.68308e-09 -4.2816e-10 5.32593e-07)
(-3.68154e-10 -1.73101e-09 3.50894e-08)
(-1.66782e-08 -2.27003e-09 1.48938e-07)
(3.83595e-09 -2.78997e-09 1.2065e-07)
(-1.66516e-08 -8.45994e-11 1.6161e-07)
(1.30959e-09 8.57967e-10 2.16264e-07)
(-4.81136e-08 1.21795e-09 2.90724e-07)
(1.75919e-10 3.29354e-10 1.35867e-07)
(-4.54454e-10 -1.43676e-10 3.16027e-07)
(-9.56094e-10 5.14099e-10 3.36426e-07)
(9.9618e-10 1.0304e-09 2.08894e-07)
(-6.30264e-10 -1.59564e-10 3.67862e-08)
(-5.38059e-09 1.70954e-10 1.18484e-07)
(-3.01406e-08 2.12734e-09 2.10276e-07)
(-4.0068e-10 -7.99785e-11 2.0988e-07)
(-6.30995e-10 2.15006e-09 1.02865e-07)
(-2.19654e-08 1.55524e-09 2.1798e-07)
(-7.49116e-09 8.45619e-10 2.3638e-07)
(1.90288e-09 2.82239e-09 3.15158e-07)
(-1.71912e-09 -7.38049e-10 4.60607e-08)
(1.53987e-09 2.75011e-09 5.60463e-08)
(-2.73032e-10 -1.84431e-10 2.84287e-08)
(1.18732e-09 1.07327e-09 2.07134e-08)
(-2.96587e-10 -9.69017e-12 4.60923e-08)
(-1.68934e-08 8.3571e-10 2.21754e-07)
(-1.04929e-09 -3.65039e-10 1.83542e-07)
(-1.88783e-09 -2.06951e-09 1.96981e-08)
(-2.75756e-09 7.2515e-10 2.1677e-08)
(4.92946e-10 7.68858e-10 3.40474e-07)
(-2.57136e-08 5.64352e-09 1.66157e-07)
(-2.27145e-09 1.25868e-10 4.89046e-08)
(-5.19015e-10 -2.52017e-10 2.28009e-07)
(-1.75761e-09 7.71569e-10 1.10197e-07)
(1.79724e-09 -4.31576e-10 2.05015e-07)
(1.51786e-09 2.26131e-09 4.63259e-08)
(-1.9212e-09 -2.52023e-09 9.63946e-08)
(4.631e-10 2.00869e-09 1.96965e-07)
(7.407e-10 5.13442e-10 2.64414e-07)
(5.2925e-10 2.10974e-09 3.98641e-07)
(-2.28096e-09 3.12707e-09 4.5109e-08)
(-6.79863e-10 -2.27479e-09 2.56776e-08)
(-3.58767e-08 3.94559e-10 2.01614e-07)
(-3.11735e-09 2.19495e-09 2.92131e-08)
(-2.43488e-10 3.41507e-09 3.13476e-07)
(-3.96632e-09 -1.25281e-09 3.0434e-08)
(8.96434e-10 3.16125e-09 1.52129e-07)
(-1.09251e-09 -5.27366e-10 2.98835e-07)
(2.90643e-09 1.04498e-09 4.22266e-07)
(-6.44126e-10 -1.43882e-09 6.19215e-08)
(1.23899e-09 -8.65339e-10 1.43279e-07)
(-2.16729e-09 -3.53207e-10 4.04372e-08)
(-3.78773e-09 -2.02663e-10 3.01742e-08)
(4.5725e-10 -1.10911e-09 2.54603e-07)
(-2.15338e-09 1.05188e-09 1.55501e-08)
(1.36262e-09 7.75156e-11 1.76891e-07)
(-6.40152e-10 -3.18637e-09 6.41195e-08)
(-4.63433e-10 2.04206e-09 3.2406e-07)
(-2.88772e-10 6.64317e-10 2.28138e-07)
(3.00861e-09 1.22758e-09 2.02112e-08)
(-2.35276e-09 -6.36166e-09 1.40324e-07)
(-3.62457e-12 9.8625e-10 2.47789e-07)
(-1.05249e-10 1.54932e-09 3.27837e-08)
(1.01006e-09 -1.18629e-09 2.84067e-07)
(-1.97045e-09 5.72622e-09 8.26895e-08)
(5.60821e-10 1.89383e-10 2.20427e-07)
(9.99902e-10 8.28651e-10 2.20492e-07)
(2.17225e-09 8.64901e-11 5.79643e-08)
(-3.00463e-09 -6.12484e-10 2.22315e-08)
(-1.87553e-09 -6.13465e-10 9.69096e-08)
(-3.91578e-08 1.84667e-10 2.43617e-07)
(-1.18313e-09 8.2865e-11 2.32517e-07)
(2.63326e-10 5.2625e-09 8.05242e-08)
(3.02894e-09 -4.25892e-10 1.90287e-07)
(4.08487e-10 1.11716e-09 2.57717e-08)
(1.12261e-09 6.31373e-10 1.95342e-07)
(1.08172e-09 1.39613e-09 2.42113e-08)
(-1.03412e-09 1.93362e-09 3.29732e-07)
(8.14235e-10 6.62361e-10 3.03352e-07)
(2.12764e-10 2.31223e-10 2.15986e-07)
(-1.52409e-09 -1.93811e-10 1.51377e-08)
(1.86379e-09 4.5424e-10 3.4206e-07)
(-7.17077e-10 8.25867e-10 1.60869e-07)
(4.87209e-10 8.61203e-10 3.54638e-07)
(1.36867e-10 5.81906e-10 6.54932e-08)
(-3.01526e-08 8.17419e-10 2.22533e-07)
(-2.20805e-09 1.53089e-09 2.61434e-07)
(1.22305e-09 4.46924e-11 6.90296e-08)
(9.22273e-11 1.17988e-09 2.43793e-07)
(-3.94809e-08 4.59913e-09 2.10046e-07)
(-1.03734e-09 -5.85661e-10 1.84371e-07)
(-7.89321e-10 -1.89235e-09 3.42416e-08)
(-2.46389e-09 4.86409e-09 1.06071e-07)
(-1.56921e-10 8.47631e-11 1.84735e-07)
(9.54233e-10 -2.0097e-09 2.2008e-07)
(-1.09173e-09 1.30461e-09 3.36072e-08)
(-4.93187e-10 -3.90502e-09 2.22841e-07)
(4.49106e-09 3.1503e-09 1.6367e-07)
(-1.80044e-09 2.03762e-09 2.59481e-08)
(-4.4303e-10 -5.90768e-11 1.97399e-07)
(-1.55384e-08 7.31021e-10 1.58311e-07)
(-2.54566e-09 -5.6795e-09 3.30032e-07)
(-6.62077e-11 3.06571e-10 1.9615e-07)
(5.09292e-10 2.34076e-10 1.77243e-07)
(9.0613e-10 -7.66399e-10 3.02842e-07)
(1.46054e-09 2.92561e-10 2.58336e-07)
(1.97114e-09 6.39265e-10 7.374e-08)
(-9.25352e-10 5.08077e-09 7.51388e-08)
(2.37602e-09 6.15998e-10 3.65919e-07)
(-2.68481e-08 -1.14753e-09 2.2477e-07)
(4.19985e-10 2.35168e-09 2.12984e-07)
(1.94991e-09 -1.29104e-09 1.91481e-07)
(2.99485e-09 -1.31144e-09 1.31115e-07)
(-7.46176e-10 1.95659e-09 3.21476e-07)
(-1.04371e-11 1.10212e-09 1.99662e-07)
(-2.03003e-09 -1.63155e-09 1.85921e-07)
(-3.10248e-09 2.99941e-09 2.31729e-07)
(-1.41353e-09 2.44346e-09 4.48143e-08)
(-1.68841e-09 -8.85836e-10 1.76142e-07)
(-2.62132e-09 -1.96313e-09 4.13236e-08)
(1.09317e-09 -2.01244e-09 3.10872e-07)
(1.87878e-10 -3.48495e-10 3.15508e-07)
(-7.09311e-10 4.96465e-09 1.71172e-07)
(2.15154e-10 -1.57433e-09 1.64891e-07)
(1.09685e-09 -1.65831e-09 1.85679e-08)
(1.48408e-10 -9.3771e-10 1.08538e-07)
(-3.95449e-09 -1.82092e-09 7.86355e-08)
(-1.29887e-09 1.08753e-09 2.55575e-07)
(1.83262e-09 4.23597e-10 2.28943e-07)
(-2.38312e-08 -1.53983e-09 2.20554e-07)
(-2.59155e-09 5.8078e-10 3.06521e-07)
(-1.43915e-09 2.79884e-09 8.47437e-08)
(-1.11988e-08 5.06843e-10 1.36569e-07)
(4.77851e-10 -4.3563e-09 2.47575e-07)
(2.04689e-09 9.28772e-10 2.89399e-08)
(1.35815e-09 1.37951e-10 2.35063e-07)
(-2.47135e-10 1.60791e-09 5.59834e-08)
(-1.85797e-09 -6.67718e-10 2.0657e-07)
(4.27434e-09 -2.17744e-09 3.36768e-08)
(2.13815e-09 -4.49398e-12 3.49226e-07)