/*--------------------------------*- C++ -*----------------------------------*\
| =========                 |                                                 |
| \\      /  F ield         | OpenFOAM: The Open Source CFD Toolbox           |
|  \\    /   O peration     | Version:  2406                                  |
|   \\  /    A nd           | Website:  www.openfoam.com                      |
|    \\/     M anipulation  |                                                 |
\*---------------------------------------------------------------------------*/
FoamFile
{
    version     2.0;
    format      ascii;
    arch        "LSB;label=32;scalar=64";
    class       volScalarField;
    location    "38";
    object      nut;
}
// * * * * * * * * * * * * * * * * * * * * * * * * * * * * * * * * * * * * * //

dimensions      [0 2 -1 0 0 0 0];

internalField   nonuniform List<scalar> 
59516
(
1.42785e-05
2.95131e-05
1.15507e-05
3.87876e-05
0.00109695
0.000186198
1.93054e-05
1.75815e-05
1.09311e-05
8.29208e-05
0.000469654
6.54657e-05
1.37417e-05
0.000154426
7.5776e-05
6.72959e-05
0.000188111
9.35189e-05
2.29433e-05
0.000115757
0.00013815
3.66213e-05
5.10224e-05
0.000130549
4.45523e-05
6.5905e-05
0.000124397
0.00015855
7.87776e-05
0.000135191
0.000242382
0.000150613
2.05786e-05
2.77978e-05
4.81339e-05
2.85245e-05
0.000131728
8.50919e-05
2.5607e-05
6.47579e-05
1.49394e-05
0.000196212
5.23528e-05
2.77872e-05
2.98815e-05
6.73805e-05
2.01017e-05
0.000205344
0.000865706
0.000121503
0.000623811
0.000119769
9.0627e-06
1.41411e-05
0.000145177
2.11378e-05
0.000288032
0.000136161
0.00021891
4.47189e-05
5.8038e-05
0.000144709
0.000166559
0.000160397
2.54961e-05
6.01568e-05
0.000189018
0.000119338
0.000425987
1.49622e-05
0.00020714
0.000130515
0.000167164
4.07298e-05
0.000319669
9.10494e-05
0.000187281
4.99035e-05
0.000115391
0.00012612
0.000121306
7.57257e-05
4.19432e-05
0.000153471
7.52634e-05
0.000252162
0.000119321
3.45286e-05
6.83024e-05
5.19752e-05
0.000555124
5.1551e-05
0.000172996
4.01634e-05
0.000134594
0.0010916
4.89388e-05
6.77063e-05
7.7058e-05
5.52489e-05
0.000138791
0.000168387
0.000165165
6.74578e-05
2.43825e-05
8.53035e-05
0.000130538
9.84446e-06
2.17953e-05
7.32782e-05
0.000248109
0.000181108
7.82352e-05
0.000155633
8.20698e-05
1.80062e-05
6.81795e-05
3.03377e-05
0.000153777
4.82867e-05
0.000433906
0.000178558
7.04058e-05
0.000175653
0.000242655
2.71607e-05
0.000184843
0.000121294
0.0002811
0.000283032
0.000382754
1.23925e-05
0.000146875
3.00775e-05
2.39691e-05
9.46001e-06
0.000113384
9.12394e-06
0.000128763
3.17712e-05
0.000121245
0.000324065
0.000131138
2.17538e-05
0.000299286
3.59156e-05
2.4641e-05
1.77586e-05
0.00025111
1.56076e-05
2.66209e-05
0.000117109
8.7598e-05
5.52217e-05
2.14041e-05
0.000143868
2.34586e-05
1.18303e-05
2.72522e-05
0.000146201
8.03852e-05
7.81826e-05
0.000124995
0.000173794
1.82772e-05
0.000182523
6.75052e-05
0.000252249
0.000137879
6.10258e-05
2.57607e-05
6.54941e-05
5.19789e-05
2.3225e-05
0.000102732
2.45136e-05
0.000186125
6.89251e-05
7.16437e-05
0.000104959
3.41123e-05
0.000120691
0.000195731
5.30909e-05
0.000264689
6.53819e-05
0.000101507
0.000142069
1.20986e-05
2.03715e-05
4.65004e-05
6.81051e-05
0.000123809
4.82616e-05
4.34192e-05
0.000102875
6.48003e-05
0.000105099
3.29675e-05
4.59347e-05
4.46328e-05
0.000409438
1.58517e-05
0.000134678
1.62788e-05
3.66538e-05
0.000316817
0.000112778
0.000148079
2.27398e-05
7.79289e-05
0.000179856
3.78682e-05
7.29309e-05
1.64837e-05
0.000144773
3.05779e-05
4.34311e-05
7.50565e-05
6.8601e-05
7.6999e-05
3.28995e-05
0.000156495
0.000140772
0.000188836
0.00020596
0.000175302
0.000118809
0.00020103
7.13642e-05
0.00017282
0.00021275
0.000420288
0.000159841
0.000118206
0.000103226
5.51027e-05
1.35039e-05
9.13576e-05
8.11695e-05
0.000384407
0.000156192
6.30894e-05
0.000172845
0.000329585
1.90849e-05
5.63749e-05
7.32039e-05
0.000132006
1.36205e-05
9.86586e-05
4.23454e-05
0.000426686
5.64272e-05
4.22248e-05
8.02568e-05
7.85614e-05
7.4943e-05
0.000117947
7.27596e-05
1.64547e-05
0.000107341
1.88952e-05
0.000210535
1.34943e-05
5.93172e-05
0.00010389
2.1988e-05
0.000148271
6.29423e-05
2.79766e-05
0.000202807
1.4119e-05
2.49935e-05
0.000129572
1.97433e-05
0.000141387
8.5174e-05
0.000158543
0.000118154
0.000368103
2.9917e-05
0.00017704
1.82945e-05
1.59735e-05
0.000193421
0.000314468
0.000178817
0.000361244
0.00048514
0.000230919
2.86998e-05
4.06408e-05
2.22324e-05
0.000149689
0.000188841
0.000117224
2.27419e-05
0.000437053
0.00020223
9.65691e-06
5.90114e-05
0.000153025
0.00016244
6.49517e-05
0.000153247
0.000105617
8.00731e-05
0.000137866
0.000137604
4.1453e-05
6.25153e-05
2.30881e-05
0.000132626
6.79046e-05
0.000113502
2.12059e-05
0.00108284
3.11401e-05
0.000111347
7.96851e-05
2.33914e-05
0.000248136
0.000366834
0.000427206
7.51067e-05
3.75681e-05
2.46635e-05
0.000171127
0.000101052
8.0546e-05
6.39847e-05
0.000162032
5.86362e-05
0.000112972
0.000121404
0.000121201
3.38932e-05
6.8466e-05
0.000221149
9.35295e-05
0.000354644
0.000225632
0.000108103
8.06463e-05
0.000315299
6.64799e-05
0.00037
0.000263186
2.91327e-05
2.58838e-05
7.32974e-05
3.10221e-05
3.128e-05
0.000125793
0.00012841
2.63559e-05
0.000143556
0.000263829
2.77667e-05
2.08772e-05
2.77171e-05
0.000403209
5.29287e-05
1.99466e-05
5.92167e-05
6.55429e-05
0.000127754
0.000288209
7.79109e-05
0.000112954
0.000123724
0.000116133
2.64307e-05
0.000101238
0.000140862
2.28108e-05
0.000124495
0.000152905
5.8763e-05
6.21877e-05
1.12971e-05
0.000491015
0.000162499
6.87795e-05
3.01585e-05
0.000153438
4.2545e-05
1.94047e-05
1.6453e-05
2.87963e-05
2.75776e-05
9.45981e-05
0.000128517
0.000367987
9.95534e-05
7.3291e-05
7.17597e-05
0.000302346
0.000263435
6.02556e-05
1.35247e-05
1.7875e-05
0.000320926
0.000293159
0.000128404
2.80162e-05
4.06311e-05
4.0368e-05
6.89583e-05
0.000165062
0.000155122
1.44133e-05
0.000245894
0.000364994
0.000122818
0.000207164
1.16694e-05
0.000315782
0.000265141
0.000339761
0.000246879
0.000223552
1.68363e-05
0.000334042
6.86185e-05
0.000157786
2.12432e-05
7.69666e-05
0.000279848
3.49214e-05
4.89805e-05
0.000107654
0.00012279
0.000144747
0.000262407
0.000327264
4.33109e-05
1.31403e-05
0.000110108
0.000154827
2.03146e-05
8.44796e-05
0.000265043
6.62926e-05
2.27206e-05
0.000409327
2.1833e-05
0.000172368
1.95597e-05
6.44827e-05
0.00025454
9.37717e-05
2.24119e-05
4.74205e-05
0.000155609
0.000315967
0.000321194
0.000318268
1.66504e-05
8.21197e-05
0.000237896
3.51282e-05
0.000385823
2.73827e-05
0.000186834
4.23431e-05
0.000145847
0.000284273
2.00498e-05
0.000121863
1.49126e-05
0.000161106
2.19387e-05
3.0276e-05
0.000150456
0.000198535
1.53163e-05
7.94831e-05
2.09162e-05
0.00010705
3.87943e-05
0.000177091
0.000137952
0.000792333
0.000191138
0.000132116
1.76112e-05
1.67424e-05
9.11235e-05
0.000454778
0.000295756
0.000169748
0.000132867
0.000453353
0.000138702
7.10115e-05
6.3657e-05
8.18468e-05
0.00034673
0.000215764
6.40342e-05
6.15421e-05
1.40404e-05
0.000381333
0.000162737
6.54146e-05
6.5739e-05
0.000324592
0.000233251
0.0001205
0.000149041
0.000125534
0.000151591
5.60684e-05
6.09101e-05
6.28221e-05
0.00015516
0.000134037
0.000116821
7.09785e-05
2.37783e-05
6.74707e-05
5.97042e-05
0.000406604
0.000233815
0.000169335
1.43136e-05
0.00012005
0.000200621
6.92937e-05
0.000201786
7.56353e-05
2.96639e-05
0.000299039
9.49052e-05
0.00019053
0.000151009
0.000142074
3.91242e-05
0.000344837
2.54099e-05
1.96418e-05
0.000284723
8.17811e-05
0.000134268
6.21308e-05
0.000257356
2.08711e-05
0.000168284
4.89229e-05
0.000128454
0.000168397
3.28692e-05
0.000108215
3.43981e-05
0.000367308
2.92835e-05
6.13314e-05
0.000258606
2.58376e-05
0.000312042
0.000257508
0.000327959
0.000343804
0.000114777
7.4785e-05
0.000257958
8.83718e-05
0.000130091
0.0001244
0.000212585
0.00020177
0.000296021
8.898e-06
0.000145929
0.00015521
2.82927e-05
8.67821e-05
1.62051e-05
0.000173723
0.000374503
2.83936e-05
1.70434e-05
0.000366065
3.14434e-05
0.000119231
0.000154431
0.000301094
0.000184396
0.000443128
9.5963e-05
2.32126e-05
5.21005e-05
0.000262895
0.000141939
0.00036116
0.000166483
0.000132859
6.25657e-05
2.32852e-05
3.26972e-05
2.70112e-05
1.2607e-05
1.4733e-05
0.000414117
3.00338e-05
0.000205552
0.00018443
0.000324998
0.000255835
0.00013845
0.000118867
0.000120668
0.000207601
6.07105e-05
0.000559625
2.67224e-05
0.000160832
0.000237446
0.000147654
6.09455e-05
0.000218705
0.000119912
0.00148271
0.000704656
0.000314213
9.99645e-06
0.000166513
0.000327939
1.70415e-05
0.000110159
5.43539e-05
0.000159717
0.000168479
0.000185157
4.95101e-05
4.32534e-05
0.000162961
0.000156862
0.000496124
0.000209687
0.000121022
4.36734e-05
1.07857e-05
2.40176e-05
0.00013854
6.61009e-05
1.39732e-05
0.000192694
6.0955e-05
0.000121787
0.00015099
0.000391291
0.000181438
2.629e-05
0.000171153
2.17507e-05
0.000317846
0.000162247
0.000113071
2.36476e-05
0.00010718
0.000178088
0.000283139
0.000139251
0.000167937
0.000134193
8.08235e-05
3.91753e-05
0.000149384
6.78012e-05
4.56892e-05
0.00011966
0.000136139
7.31639e-05
1.14747e-05
0.000370666
0.000116606
0.00015467
0.000120131
0.00066802
1.59197e-05
7.00289e-05
1.86456e-05
0.000110834
0.000400428
0.00015923
0.000107292
1.65784e-05
0.000166071
0.000143576
3.35735e-05
2.65956e-05
8.30464e-05
7.67811e-05
0.00088264
5.77454e-05
0.000103396
0.0004625
0.000487214
1.08072e-05
0.000116729
0.00013477
0.000352041
1.44106e-05
0.000118867
1.14104e-05
6.59198e-05
0.000162099
0.000300032
0.00124475
1.37556e-05
0.000211323
0.000278367
0.000176869
1.95696e-05
0.000114947
0.000121231
0.000298555
0.000984968
1.04705e-05
2.22852e-05
2.89822e-05
3.83093e-05
0.000132492
2.22051e-05
1.31139e-05
0.000154265
7.1425e-05
0.000142825
6.42981e-05
0.000184227
2.17753e-05
1.53354e-05
0.000137608
2.97311e-05
7.52359e-05
0.000255705
0.000273571
0.0011814
0.000129439
2.3197e-05
0.000839446
3.53824e-05
0.0001751
0.000284509
6.84666e-05
2.86887e-05
0.000180215
0.000175647
0.00134728
8.50124e-05
1.22099e-05
5.68625e-05
3.97505e-05
0.000361466
0.000129835
0.000138449
0.000103284
0.000288686
9.37799e-05
3.50709e-05
6.09816e-05
0.000133218
3.34054e-05
2.85118e-05
0.000270786
2.08e-05
5.88908e-05
3.05103e-05
0.000385205
0.000152351
2.13426e-05
9.63105e-05
0.000172576
0.000101412
6.5026e-05
0.000152162
3.83265e-05
0.000153977
6.45186e-05
0.000142601
1.46181e-05
0.000158864
1.37854e-05
0.000232883
0.000467741
0.000232387
8.73291e-05
0.000259761
2.09147e-05
0.00011006
0.000236571
1.89254e-05
2.18427e-05
3.84885e-05
0.000145439
1.26346e-05
5.54769e-05
5.05483e-05
0.000123444
2.28948e-05
2.19271e-05
7.30374e-05
7.12768e-05
0.000264672
5.9436e-05
0.000118095
0.000182038
6.25778e-05
0.000145754
1.85177e-05
8.45615e-05
2.07986e-05
8.80976e-05
3.55034e-05
7.01939e-05
0.00016034
9.78761e-05
0.000603303
0.000103257
0.000159715
1.33072e-05
1.41208e-05
0.000160032
9.64581e-05
0.00015441
0.000225112
8.85258e-05
2.60754e-05
5.12438e-05
6.77369e-05
2.28578e-05
0.000315501
0.000140577
0.000123468
1.84013e-05
1.72091e-05
0.000139115
3.92069e-05
0.000326102
0.000221815
0.000183585
3.26225e-05
8.84041e-05
0.000445455
2.80127e-05
0.000133102
0.000191396
1.48168e-05
0.000137795
0.000109265
0.000296151
5.01353e-05
2.0828e-05
1.6233e-05
1.33218e-05
2.74937e-05
1.53524e-05
2.56675e-05
1.56147e-05
5.62514e-05
0.000133235
0.000255155
0.00156077
1.7508e-05
2.14013e-05
2.58783e-05
0.00013731
0.000108489
2.04938e-05
3.08408e-05
2.28546e-05
0.000439755
4.59809e-05
0.000379301
0.000300728
0.000224726
2.38041e-05
0.000264527
0.000152133
2.29505e-05
6.73843e-05
0.000119131
7.72905e-05
0.00029789
2.00675e-05
0.000284133
0.000447194
0.00024123
6.58509e-05
0.00143785
0.000132567
1.30318e-05
0.000245091
0.000167569
8.02773e-05
6.44563e-05
2.33213e-05
0.000103388
7.70403e-05
0.000214867
0.000203803
5.95411e-05
2.86316e-05
0.000136603
8.57946e-05
0.000120742
1.89831e-05
3.08884e-05
6.66757e-05
0.000371048
0.000314212
0.000138881
0.000255632
2.32297e-05
3.46423e-05
0.000137839
6.66037e-05
1.93239e-05
0.000268994
9.21253e-05
0.000188204
0.000154371
0.000159
0.000340946
0.000174261
0.000221383
0.000211415
0.000405145
0.00140246
2.39421e-05
2.52173e-05
0.000130163
6.94099e-05
0.000134182
1.01076e-05
0.000130255
0.000159792
1.62129e-05
0.000497352
0.000502417
0.000363759
5.25457e-05
2.22041e-05
0.000305896
0.000294826
1.91217e-05
0.000349674
0.000166547
0.000315117
0.000116837
2.31529e-05
0.00015685
5.98065e-05
0.00012269
0.000165423
0.000116219
3.63224e-05
0.000110329
0.000272438
0.000112714
2.39865e-05
5.84703e-05
5.49907e-05
2.19971e-05
0.000420561
6.85095e-05
7.47008e-05
0.000155266
1.58633e-05
0.00038014
0.000431996
1.1714e-05
0.000364448
0.000243579
6.82692e-05
0.000385134
0.00011687
0.000121068
0.000217917
0.000159272
0.000194689
0.000286556
1.61718e-05
2.018e-05
0.000314351
0.000163224
0.000171441
0.000300162
1.19181e-05
0.0001751
0.000152538
2.35798e-05
0.000116722
3.05162e-05
2.63669e-05
2.23728e-05
0.000140359
1.15315e-05
0.000140007
0.000188801
0.000485032
0.000332689
5.77921e-05
0.000115762
0.000319927
1.38547e-05
4.63786e-05
0.000119481
2.06429e-05
9.7574e-05
0.00036185
5.59252e-05
0.00010955
2.4763e-05
1.81651e-05
0.000148321
2.43165e-05
2.41319e-05
0.000120985
1.73976e-05
0.000133145
0.000105602
1.83567e-05
0.000287174
0.000186075
0.00032083
2.80824e-05
5.77959e-05
2.2714e-05
4.24372e-05
0.000150755
0.000126029
7.09084e-05
5.85924e-05
0.000177327
0.000135278
0.000392022
4.21667e-05
0.000245597
3.01697e-05
5.61182e-05
5.69067e-05
0.000102863
1.86189e-05
0.000338362
5.7245e-05
6.95448e-05
2.76374e-05
0.000171871
2.6219e-05
4.8274e-05
0.000373522
0.000128548
6.99818e-05
1.4491e-05
0.000169024
0.00010947
0.000103346
0.000286321
6.10172e-05
2.11351e-05
0.000173391
0.000142207
2.97704e-05
0.000170376
0.000112641
0.000117361
0.000172627
2.55616e-05
0.000116726
6.31549e-05
0.000178913
0.000156903
2.27607e-05
4.28118e-05
0.000111811
0.00033701
1.63371e-05
3.57513e-05
0.000115605
0.000120399
6.01599e-05
2.57905e-05
0.00015326
0.00018537
0.000138566
3.21316e-05
0.000111553
1.45902e-05
3.51173e-05
6.35941e-05
0.000195945
7.33861e-05
4.34843e-05
5.9097e-05
4.45523e-05
2.5163e-05
0.000119638
0.000174009
0.000207235
1.29071e-05
1.40602e-05
0.000135112
0.000110412
9.9589e-05
0.000156758
0.000268174
0.000139173
0.000170905
0.000222232
0.000252881
0.000131203
0.000133302
0.000236527
2.17926e-05
0.000178517
2.92295e-05
0.000252067
0.000119649
0.000251137
3.12048e-05
9.43878e-05
0.000153334
9.94969e-05
0.000297512
0.000177428
1.17008e-05
8.78234e-05
6.31842e-05
6.79135e-05
0.000118611
6.14295e-05
0.000176509
3.97498e-05
2.27967e-05
1.91491e-05
7.53319e-05
0.000154072
0.00038752
0.000233393
1.13121e-05
0.000262724
1.52601e-05
3.79861e-05
0.000135743
8.47138e-05
0.000241108
1.51153e-05
4.41728e-05
1.26569e-05
6.03825e-05
2.82889e-05
1.15077e-05
3.2244e-05
2.51448e-05
5.40214e-05
0.000141627
2.33319e-05
6.96565e-05
0.000180963
0.00012784
0.000118592
1.94401e-05
2.36753e-05
2.9493e-05
0.000147433
5.1216e-05
6.00257e-05
0.000126875
0.000144909
2.71477e-05
0.000250926
2.60579e-05
2.94397e-05
2.88021e-05
1.93882e-05
0.000127437
0.000118001
0.000135056
0.000405014
1.42653e-05
4.32896e-05
1.88911e-05
1.47647e-05
2.49944e-05
0.000201122
1.88758e-05
0.000143595
0.000131155
1.87384e-05
0.000147792
0.000352686
1.69365e-05
2.13087e-05
2.02288e-05
5.04686e-05
0.000103137
5.47209e-05
0.000136393
0.000429367
0.00049769
3.07813e-05
4.23762e-05
0.000116598
0.00022982
0.000128178
0.000171231
0.000158882
0.000214506
8.27346e-05
0.000120777
0.000141862
9.57413e-05
0.000122979
0.000108628
0.000130716
0.00017359
1.54457e-05
7.09663e-05
0.000444156
1.99031e-05
2.72934e-05
1.95896e-05
0.000180515
0.000201724
6.71722e-05
9.81662e-05
0.000193271
3.02023e-05
0.00014419
0.000109236
4.1533e-05
2.27946e-05
7.39009e-05
0.000408874
0.000103369
0.000146291
0.000213949
0.000329672
0.000112806
5.02248e-05
2.84155e-05
2.20899e-05
1.56043e-05
2.35488e-05
5.27467e-05
0.000359317
2.55628e-05
0.000127997
6.36513e-05
0.00014173
6.51026e-05
2.68015e-05
1.74407e-05
0.000134191
5.79381e-05
1.46302e-05
0.000217769
0.000156435
9.84766e-05
0.000110219
0.000184489
0.00023327
0.000348429
0.000149948
2.43749e-05
2.98383e-05
0.000247599
3.31897e-05
0.000141044
1.58182e-05
4.25357e-05
2.62098e-05
0.000201019
1.38877e-05
0.000163512
1.77001e-05
0.000155116
1.55937e-05
0.000150369
8.18402e-05
2.60206e-05
0.000221691
0.00015997
7.49245e-05
1.7412e-05
3.13169e-05
5.82912e-05
7.09082e-05
1.93824e-05
0.00031976
0.00012982
0.000328179
3.32124e-05
6.92303e-05
6.69362e-05
0.000173591
8.66659e-05
0.000280274
2.10483e-05
2.17532e-05
1.52465e-05
2.18887e-05
1.50375e-05
0.000145589
0.000112224
0.000171913
2.79749e-05
0.000470059
0.000110197
0.000119684
6.10817e-05
0.000172531
9.69485e-05
0.00017264
0.000196662
0.000470254
4.6748e-05
6.82206e-05
0.000317948
0.000114014
7.78979e-05
0.000397593
0.000149653
1.80634e-05
0.00171315
0.000155493
0.000155248
2.60068e-05
7.43389e-05
0.00029163
2.83102e-05
8.06229e-05
0.000225244
3.16677e-05
6.8792e-05
0.00011525
2.31194e-05
0.000408426
0.000122521
2.42908e-05
6.416e-05
0.000122447
0.000187096
1.77297e-05
8.10528e-05
7.61921e-05
0.000159732
5.57347e-05
0.000128412
0.000135001
0.000124009
0.000157514
1.70211e-05
2.17857e-05
0.000330702
0.000144915
0.000173921
1.50268e-05
3.74077e-05
1.68087e-05
9.09992e-05
0.000117194
0.000106634
0.001406
2.88301e-05
0.000491704
1.85873e-05
0.000136388
2.85204e-05
1.96234e-05
0.000195045
0.000112061
1.97807e-05
1.7883e-05
0.00014267
6.72029e-05
3.60781e-05
0.000354452
0.000124501
0.000120735
8.65612e-06
2.87557e-05
0.000208853
2.68668e-05
3.002e-05
0.000206181
2.07094e-05
6.38594e-05
2.14308e-05
0.000296869
1.5059e-05
2.0123e-05
1.92747e-05
2.89451e-05
0.000399183
2.8037e-05
0.000194646
1.97946e-05
0.000206062
0.000228554
7.53443e-05
2.84518e-05
3.24719e-05
0.000520358
8.72778e-05
2.23758e-05
2.80537e-05
1.21067e-05
0.000163965
0.0001731
0.000222435
7.10772e-05
0.000195116
6.97398e-05
0.00013537
2.31344e-05
0.000113303
0.000151577
0.000442498
6.30019e-05
0.000147933
2.04189e-05
0.000217249
0.000128393
0.000136107
1.44379e-05
5.67761e-05
0.000168074
2.65409e-05
6.55602e-05
3.56679e-05
0.000241458
7.43392e-05
0.000274734
1.67247e-05
2.08294e-05
3.02499e-05
0.00012518
0.000102157
7.65088e-05
0.000110091
1.4419e-05
0.000203569
7.7289e-05
6.77325e-05
1.45442e-05
3.52495e-05
6.18767e-05
6.28117e-05
1.64258e-05
0.000145792
8.813e-05
4.97384e-05
0.000133285
2.34695e-05
2.40399e-05
1.58825e-05
2.56264e-05
5.97418e-05
1.91694e-05
2.84185e-05
0.000142305
1.5983e-05
0.000133951
0.000160978
0.000126647
2.64982e-05
1.31835e-05
6.0172e-05
3.16509e-05
1.62699e-05
0.000138567
3.52268e-05
1.75278e-05
6.15311e-05
2.17075e-05
0.000135025
6.38537e-05
9.15503e-05
1.63757e-05
6.16816e-05
1.95764e-05
0.000160073
7.99019e-06
0.000124887
2.56667e-05
0.000290939
7.36979e-05
4.48986e-05
9.71822e-05
0.000118758
0.000166133
1.75535e-05
0.000190491
9.87593e-05
0.000169942
2.61342e-05
5.57609e-05
2.42577e-05
1.94008e-05
0.000162672
2.04801e-05
1.05963e-05
0.000422738
0.000136905
0.000106297
1.91464e-05
2.44987e-05
2.99661e-05
0.000114638
0.000153254
0.000153576
8.26299e-05
2.11635e-05
4.44256e-05
9.20616e-06
0.000117189
0.000154917
0.000302643
0.000245074
0.00011847
1.52828e-05
0.000109557
1.72795e-05
7.52577e-05
0.000139095
1.42803e-05
5.85878e-05
2.66443e-05
0.000276789
1.07796e-05
2.72627e-05
0.00012677
0.000375427
0.000182866
6.01169e-05
0.000274859
0.000367862
2.68939e-05
0.000194131
0.000116983
0.000557224
0.000495637
5.81252e-05
3.65824e-05
7.5507e-05
0.000131326
1.07521e-05
4.38216e-05
2.92354e-05
7.93715e-05
1.5591e-05
0.000246511
3.48655e-05
0.000176601
0.000535021
6.13214e-05
6.48915e-05
0.000111941
0.000108701
2.70232e-05
2.66757e-05
6.51378e-05
0.000125468
0.000266966
0.00011805
0.0004288
7.11583e-05
0.000167171
1.93777e-05
0.000134146
7.69314e-05
0.000156913
0.000128133
6.27413e-05
3.96266e-05
2.50123e-05
9.43215e-05
0.000173814
4.61581e-05
3.37506e-05
0.000215855
1.77665e-05
0.000147245
2.62465e-05
0.000129714
1.52769e-05
8.94249e-05
5.82682e-05
8.26823e-05
0.000220993
8.57253e-05
0.000139333
0.000220262
7.49566e-05
0.000197848
2.67414e-05
0.000184714
0.000163001
2.67684e-05
0.000179064
8.43145e-06
1.45123e-05
2.42805e-05
0.000400944
1.38868e-05
0.000127521
0.000424877
5.87251e-05
2.50712e-05
0.000126587
1.11754e-05
0.000371704
3.53995e-05
1.59565e-05
0.000121356
2.19527e-05
1.10405e-05
2.37658e-05
3.68235e-05
0.000139471
0.000155078
0.000165706
2.01079e-05
0.000192736
2.17402e-05
0.000158284
0.000482945
5.67183e-05
0.000381215
0.000117535
0.000118004
3.83306e-05
8.89512e-05
0.000127493
0.000192509
0.000429545
3.07264e-05
0.000158769
4.03175e-05
0.000128421
0.00017299
3.41837e-05
0.000246992
0.000353079
5.17737e-05
0.000184566
4.19372e-05
0.000246473
1.43796e-05
1.48011e-05
0.000212639
4.44684e-05
0.000138337
0.000122253
1.32552e-05
0.000149622
2.14258e-05
0.000151793
0.00016527
3.48011e-05
0.000179066
5.8199e-05
0.000144433
0.000327626
0.000121087
7.57108e-05
0.000231146
1.71304e-05
6.89223e-05
2.57243e-05
6.31567e-05
0.00018593
0.000212262
0.000179233
0.00013427
0.000112255
0.000116774
0.000131935
0.000439636
4.71885e-05
1.58655e-05
1.88091e-05
1.95548e-05
0.000154749
0.000101508
6.70332e-05
0.000273733
0.000137949
0.000118559
0.000101255
2.52139e-05
0.00017974
2.59772e-05
0.000125146
7.95437e-05
2.68962e-05
0.00116672
0.00014761
1.80247e-05
7.6892e-05
0.000145178
4.5659e-05
0.000147059
6.73304e-05
0.000193364
0.000121082
0.000406907
0.000111519
1.74766e-05
5.98336e-05
0.000362475
0.000107651
0.000125204
0.000221438
0.000119149
2.18755e-05
1.1716e-05
0.00043437
0.000124315
0.000150102
0.000110663
0.000440359
0.000152722
0.000108597
1.56828e-05
0.000409465
3.44132e-05
9.97318e-05
0.000236611
6.0209e-05
1.14134e-05
2.99942e-05
2.30016e-05
7.06224e-05
6.02533e-05
0.000136089
7.14205e-05
1.49942e-05
6.31017e-05
1.68206e-05
0.00013978
7.43482e-05
0.000224217
0.00017628
1.96429e-05
2.34858e-05
0.000105445
0.000224044
0.000164729
0.000136058
6.97061e-05
5.92873e-05
0.000176402
0.000165862
0.000170009
2.36369e-05
0.000143612
4.5038e-05
0.000107394
2.8554e-05
0.00015277
7.669e-05
1.31555e-05
0.000130703
0.000140668
0.000186894
3.15362e-05
0.000190843
8.74092e-05
0.000312517
0.000435852
5.62099e-05
0.000103352
1.96197e-05
7.67179e-05
0.000344823
3.09249e-05
9.21332e-05
0.000209301
7.11015e-05
1.54746e-05
6.22435e-05
0.000112031
0.00012488
4.26217e-05
1.65538e-05
8.97701e-06
1.60821e-05
0.000247885
5.93876e-05
0.000107217
0.000170284
1.55062e-05
0.000425619
0.000334958
9.55756e-05
0.000117362
1.29896e-05
6.84719e-05
1.19362e-05
0.000160003
0.000105271
0.000127359
0.000216496
4.97199e-05
8.64619e-05
9.76649e-05
3.42186e-05
5.40228e-05
2.86906e-05
1.76432e-05
1.45602e-05
4.56631e-05
2.16684e-05
0.000271859
2.02017e-05
2.192e-05
0.000144438
9.33615e-05
0.000173734
1.46794e-05
1.9428e-05
2.2961e-05
5.8182e-05
4.51452e-05
9.49742e-05
5.9439e-05
0.000145033
9.52613e-06
0.000224262
0.000154069
0.000136091
0.000115051
7.39382e-05
0.000158871
0.000131541
0.000209476
0.000325579
0.000155242
0.000125705
6.14289e-05
0.000370308
0.000288294
3.5559e-05
1.82727e-05
7.57948e-05
1.90121e-05
1.97602e-05
0.000118067
0.000392715
3.38175e-05
2.19427e-05
1.81267e-05
2.506e-05
0.000137335
4.16362e-05
2.0505e-05
7.97873e-05
0.000382015
0.000100414
0.000156183
0.000133209
0.000207857
0.000162307
5.18132e-05
5.85634e-05
0.000132165
0.000122646
6.44624e-05
0.000173239
6.81767e-05
0.000417972
0.0002645
3.03695e-05
0.000107114
0.00012753
3.17072e-05
9.55745e-05
0.000215612
1.58661e-05
0.00020701
9.62116e-05
1.27025e-05
0.000167574
0.000230291
0.000155943
0.00017919
4.64192e-05
3.37364e-05
1.52505e-05
0.000158034
0.000221661
4.50324e-05
2.78889e-05
0.000165324
0.000145303
2.59567e-05
1.25269e-05
0.000195748
0.000192994
0.000169429
2.07111e-05
1.78745e-05
3.35268e-05
2.4861e-05
9.22221e-05
2.0661e-05
2.60169e-05
0.000315162
1.14299e-05
1.57543e-05
0.000113488
1.42502e-05
2.75116e-05
0.000150537
1.00744e-05
4.93533e-05
2.86035e-05
5.46155e-05
0.000195561
0.000116927
0.000126378
2.94478e-05
0.000190417
2.69445e-05
0.000134104
1.06778e-05
2.71318e-05
1.03315e-05
0.000152909
1.02818e-05
0.000120529
0.000126695
2.6449e-05
0.000145885
0.000251897
9.9565e-05
0.000191011
5.83848e-05
2.21187e-05
0.000154
2.09312e-05
0.000108025
2.03186e-05
5.80302e-05
6.75716e-05
0.000193022
5.02425e-05
7.2702e-05
0.00032903
8.14304e-05
7.90219e-05
6.94028e-05
0.000132077
3.44955e-05
0.000366157
0.000288603
6.84073e-05
2.99116e-05
0.000114684
0.000155938
0.000143479
3.23233e-05
0.000162676
0.000289801
0.000169598
0.000105773
2.68713e-05
1.81508e-05
3.40734e-05
1.92002e-05
0.000147683
0.000137226
0.000175603
0.000151282
4.95293e-05
7.46036e-05
2.18846e-05
1.68958e-05
7.08528e-05
0.000150633
6.5675e-05
0.000119042
0.000217362
0.000134415
5.91989e-05
4.83209e-05
2.56029e-05
6.77624e-05
0.000257913
0.000166475
3.72234e-05
0.000109442
0.000255539
6.25207e-05
0.000227957
0.000189929
1.3021e-05
0.000341497
4.76061e-05
0.000249446
2.12629e-05
2.8668e-05
0.000250724
2.69829e-05
9.67063e-05
4.26195e-05
7.99919e-05
5.74181e-05
0.000297228
4.47518e-05
0.000127341
0.00011755
0.000324254
5.83425e-05
1.16476e-05
0.000385964
0.000190926
8.99444e-05
0.000195453
2.39437e-05
1.87438e-05
0.000128304
1.14128e-05
0.00013398
7.43218e-05
2.38157e-05
6.60504e-05
7.135e-05
1.57787e-05
0.000120138
0.000117547
0.00019477
2.06272e-05
0.000140784
0.000309281
2.62615e-05
3.31883e-05
2.91137e-05
9.13667e-05
1.84499e-05
0.000225462
0.000279667
0.00039135
0.000443155
0.00011978
0.000148366
0.000156618
5.91958e-05
9.30461e-05
0.000282498
0.000298452
2.61558e-05
6.29897e-05
0.00017037
0.000156003
0.000520211
0.000145724
0.000219916
0.000324299
7.89055e-05
7.98857e-05
8.38007e-06
0.000115424
0.000106813
3.53378e-05
2.19244e-05
6.90953e-05
2.28103e-05
5.55229e-05
1.95208e-05
0.000371556
1.87144e-05
2.88149e-05
0.000229864
8.18908e-05
0.000121386
0.000196456
0.000370673
6.79368e-05
0.000135765
2.31828e-05
0.000151644
0.000218342
2.51158e-05
0.000115158
0.000338703
0.00041388
0.000117253
1.7912e-05
0.000161634
6.87135e-05
0.000129147
5.00635e-05
2.81195e-05
5.22747e-05
6.2529e-05
3.35879e-05
6.26007e-05
0.000283904
2.24604e-05
0.000164131
3.56641e-05
2.26846e-05
2.70212e-05
0.000147174
3.19485e-05
0.000143134
2.77268e-05
4.35755e-05
3.95717e-05
0.000170176
5.92892e-05
0.000117868
0.000145367
0.000145773
2.22067e-05
0.000103436
2.04422e-05
0.00012075
0.000139341
2.07267e-05
7.37556e-05
1.55959e-05
0.000154668
1.89358e-05
9.52106e-05
0.000109431
0.000235299
0.000127034
0.000115294
6.45559e-05
1.46018e-05
2.01844e-05
0.000482337
0.000125114
0.000427145
6.50121e-05
2.36608e-05
2.01674e-05
2.49196e-05
0.000119693
0.000108593
0.000125868
6.37523e-05
0.000270817
6.69927e-05
6.59429e-05
5.74793e-05
0.000125251
2.30224e-05
0.000106267
0.000154595
0.000150902
5.0449e-05
9.97481e-06
0.000204108
6.90215e-05
0.000438489
0.000156838
1.51508e-05
5.3063e-05
8.43747e-05
8.39942e-05
0.000154953
1.99711e-05
0.000118257
9.60347e-05
3.98344e-05
1.41051e-05
0.000203267
7.10627e-05
0.000159175
3.06673e-05
0.000186638
2.43317e-05
6.40073e-05
5.62745e-05
0.000117918
2.91409e-05
2.73698e-05
3.8688e-05
1.5821e-05
0.000138727
1.61291e-05
1.61666e-05
0.000213685
2.4092e-05
8.85664e-05
4.12316e-05
0.000103264
2.17625e-05
0.000298826
6.83542e-05
6.59884e-05
4.2506e-05
0.000153196
2.57619e-05
4.80943e-05
0.000104254
7.658e-05
4.30404e-05
0.000120767
4.6434e-05
0.00039243
0.000150568
1.67543e-05
0.000158165
2.17265e-05
6.03716e-05
0.000120429
5.14703e-05
0.000105438
0.000165633
0.000136699
0.000121835
0.000115143
0.000157279
2.21984e-05
0.000277808
1.61448e-05
6.90038e-05
0.000120281
0.000346835
0.000101127
0.000156864
2.12062e-05
1.68118e-05
9.94655e-06
8.55434e-05
0.000150378
0.000108739
2.31446e-05
0.000187348
0.0002419
0.000137187
1.60756e-05
5.37663e-05
0.000386485
0.000431575
8.76975e-05
0.000121329
0.000137828
0.000122153
4.93628e-05
6.10614e-05
0.0001171
1.68027e-05
2.48597e-05
0.000154669
2.40477e-05
0.000171904
1.24887e-05
3.1604e-05
0.000284811
0.000108363
0.000182935
1.48886e-05
0.000100962
0.000291203
6.32025e-05
2.13762e-05
0.00010574
2.59905e-05
1.56258e-05
0.000117403
3.84063e-05
1.75151e-05
0.000390984
0.000304342
6.46796e-05
0.00013738
0.000113239
7.78996e-05
0.000207084
5.36015e-05
3.15639e-05
0.00018034
0.000205339
0.000118886
0.00019356
0.000126001
1.1766e-05
0.000155724
0.000128954
4.93694e-05
6.04127e-05
0.000113451
0.000116464
2.86254e-05
7.28452e-05
0.000300088
6.26718e-05
2.43356e-05
9.47902e-05
1.63915e-05
1.8987e-05
7.44191e-05
0.000226665
0.000261083
0.000171365
6.78956e-05
3.52837e-05
6.59935e-05
0.000166984
0.000219847
0.000159869
1.7805e-05
5.75768e-05
0.000167696
1.42511e-05
1.67957e-05
0.000147983
5.89515e-05
0.000110376
5.27554e-05
0.000119371
0.000191178
0.000111381
0.000305007
6.00283e-05
0.000148316
0.000214099
0.000106083
5.82867e-05
2.65938e-05
0.000114498
0.000133122
0.000207188
7.15428e-05
0.000165641
0.000174796
4.41433e-05
3.01486e-05
9.35641e-05
6.6318e-05
2.20249e-05
7.34079e-05
5.86347e-05
5.1532e-05
0.000527719
1.18823e-05
7.41277e-05
2.61498e-05
0.000115988
0.000114621
0.0002092
0.000101291
0.000110393
0.000128813
2.20449e-05
5.66588e-05
4.53294e-05
0.000158959
2.49617e-05
0.000113061
0.000157705
7.1716e-05
3.25323e-05
1.34393e-05
0.00037001
2.88113e-05
0.000119422
2.58817e-05
0.000170876
0.000170104
1.77243e-05
1.96986e-05
5.32208e-05
7.96221e-05
0.000170202
9.19486e-05
0.000243716
0.000108781
6.22667e-05
0.000174846
1.76676e-05
8.80412e-05
0.000120771
2.03249e-05
0.000108043
1.90209e-05
0.000145138
1.1645e-05
2.64337e-05
1.8875e-05
1.73082e-05
2.29448e-05
2.04962e-05
0.000140055
3.2587e-05
0.000102371
4.34967e-05
1.1468e-05
9.34515e-05
0.000135615
1.37307e-05
0.000181372
4.58033e-05
0.000123434
1.55621e-05
3.96312e-05
1.88245e-05
1.8504e-05
8.73044e-06
0.000113534
0.000169838
0.000254707
0.000371802
0.000135639
6.79796e-05
0.000119751
0.000117455
0.000453054
1.33925e-05
0.000286263
1.72612e-05
1.26065e-05
3.69949e-05
0.000371809
0.000120824
0.000140519
0.000150366
0.000119203
0.00014287
4.39084e-05
5.78576e-05
0.000113776
8.07158e-05
0.000236936
2.27805e-05
2.64992e-05
3.59128e-05
7.40203e-05
3.11365e-05
0.000100193
0.000137938
2.05828e-05
7.76018e-05
2.42317e-05
0.000315942
2.13784e-05
2.02983e-05
6.03608e-05