/*--------------------------------*- C++ -*----------------------------------*\
| =========                 |                                                 |
| \\      /  F ield         | OpenFOAM: The Open Source CFD Toolbox           |
|  \\    /   O peration     | Version:  2406                                  |
|   \\  /    A nd           | Website:  www.openfoam.com                      |
|    \\/     M anipulation  |                                                 |
\*---------------------------------------------------------------------------*/
FoamFile
{
    version     2.0;
    format      ascii;
    arch        "LSB;label=32;scalar=64";
    class       volScalarField;
    location    "38";
    object      p;
}
// * * * * * * * * * * * * * * * * * * * * * * * * * * * * * * * * * * * * * //

dimensions      [0 2 -2 0 0 0 0];

internalField   nonuniform List<scalar> 
59516
(
0.266
0.0153516
0.0145651
0.00201309
0.279475
0.299998
0.266868
0.236747
0.0765417
-0.000510726
0.274172
0.268158
0.185112
0.265278
0.249177
0.0775871
0.267318
0.275104
0.271436
0.264156
0.270588
0.236218
0.266772
0.170416
0.0680571
0.164295
0.0960443
0.273891
0.269271
0.248237
0.282827
0.274051
0.122817
0.0015976
0.271659
0.222989
0.0659121
0.277958
0.269891
0.0133231
0.0158097
0.274254
0.270766
0.00155402
0.269306
0.0415258
0.270124
0.270645
0.281124
0.271989
0.287134
0.00134903
0.125266
0.24138
0.270082
0.269123
0.27545
0.00172586
0.170157
0.272736
0.00166979
0.21794
0.171237
0.267704
0.00338711
0.269598
0.00836528
0.227128
0.281453
0.269165
0.231179
0.264241
0.0461745
0.265444
0.228512
0.268757
0.270122
0.02942
0.188694
0.271842
0.00154148
0.27182
0.270842
0.109454
0.271801
0.263509
0.0767414
0.264293
0.123896
0.275074
0.277647
0.232658
0.259004
0.229666
0.230603
0.280839
0.248281
0.237518
0.271556
0.182896
0.0832393
0.151498
0.243761
0.00904243
0.0460191
0.00691231
0.00644868
0.0721339
0.130778
0.190306
0.279748
0.0899274
0.23322
0.280282
0.25627
0.211814
0.0322547
0.241817
0.242175
0.0325301
0.243681
0.240035
0.0619307
0.241688
0.27825
0.271724
0.25655
0.27585
0.286896
0.258028
0.255503
0.0157065
0.228298
0.258627
0.25932
0.225054
0.278612
0.251983
0.152607
0.262563
0.0910119
0.114418
0.236938
0.090343
0.263211
0.260822
0.26966
0.265106
0.285912
0.259652
0.263077
0.00319616
0.256456
0.00318752
0.25815
0.00556962
0.00422137
0.25894
0.259598
0.250125
0.263318
0.263045
0.249485
0.00461101
0.209959
0.0304337
0.0765799
0.260607
0.261279
0.00438405
0.258236
0.258261
0.25338
0.254337
0.253785
0.270662
0.213054
0.271451
0.0142691
0.210445
0.256258
0.134561
0.16006
0.255545
0.256111
0.0849215
0.117733
0.0652588
0.257381
0.254689
0.000410808
0.133382
0.260508
0.254671
0.261798
0.0207917
0.153329
0.152728
0.00411261
0.252846
-0.000486057
0.0641953
0.238413
0.184003
0.217785
0.13442
0.26133
0.00352837
0.17537
0.246008
0.0432734
0.273675
0.244909
0.219
0.246154
0.0966676
0.260001
0.0207351
0.201167
0.246482
0.246325
0.260924
0.253233
0.00466203
0.249411
0.212393
0.174643
0.183971
0.252947
0.0376333
0.248702
0.13237
0.253417
0.139515
0.146996
0.253616
0.252057
0.0523013
0.25186
0.0557371
0.256672
0.134782
0.130459
0.00346446
0.257813
0.257291
0.254813
0.0127534
0.253475
0.256953
0.0132153
0.254803
0.25712
0.159016
0.256106
0.256823
0.0780538
0.25117
0.194307
0.247818
0.177319
0.249689
0.251338
0.251099
0.222708
0.0592778
0.202132
0.0706328
0.248587
0.167431
0.26741
0.217362
0.0751093
0.170678
0.249797
0.223105
0.167732
0.248503
0.249486
0.0972562
0.252991
0.184686
0.171632
0.247076
0.245344
0.266623
0.256643
0.00771854
0.251445
0.224038
0.250507
0.247543
0.230126
0.0300177
0.233497
0.129999
0.225081
0.220421
0.248237
0.223818
0.223471
0.0622426
0.101687
0.217268
0.227426
0.163914
0.020611
0.223331
0.224725
0.0828864
0.067965
0.224537
0.160044
0.150602
0.269505
0.226542
0.239058
0.281529
0.225792
0.0651236
0.132538
0.237896
0.141065
0.241136
0.18489
0.227168
0.273542
0.239098
0.174631
0.240508
0.0235352
0.263068
0.171682
0.240453
0.196716
0.247695
0.251381
0.216743
0.272903
0.245735
0.219066
0.21665
0.241662
0.0520002
0.107652
0.245567
0.0999517
0.250503
0.241931
0.194841
0.252796
0.2545
0.0385038
0.124927
0.174662
0.0530429
0.00811562
0.279615
0.284193
0.211656
0.0344373
0.259278
0.272631
0.233875
0.0339421
0.240517
0.23993
0.259732
0.283253
0.244271
0.088206
0.0866108
0.239484
0.179542
0.206755
0.23914
0.240939
0.235165
0.191367
0.228865
0.26025
0.00138127
0.273384
0.0107269
0.0200121
0.240869
0.00787113
0.272913
0.24019
0.0147305
0.0142869
0.0586635
0.235483
0.278217
0.238354
0.278686
0.0118751
0.077647
0.235394
0.236481
0.247579
0.233193
0.19267
0.247932
0.249197
0.062647
0.152042
0.249365
0.247677
0.24664
0.0413919
0.0233353
0.0253871
0.138514
0.218468
0.0107443
0.0374376
0.0721456
0.00502627
0.234887
0.232483
0.238694
0.238318
0.250198
0.238083
0.182361
0.231973
0.157623
0.238718
0.198591
0.242268
0.237118
0.222983
0.140101
0.248113
0.27333
0.0241595
0.242922
0.178868
0.0857745
0.181897
0.201822
0.244746
0.242613
0.239216
0.23748
0.0827862
0.237205
0.183946
0.0298081
0.204144
0.284348
0.157098
0.066801
0.239635
0.196411
0.23664
0.147339
0.23674
0.0658402
0.23771
0.0043354
0.00817789
0.233717
0.2708
0.231293
0.213792
0.0395673
0.217306
0.215358
0.0444177
0.22478
0.215349
0.210262
0.209599
0.104649
0.217937
0.212145
0.143793
0.21
0.092117
0.207372
0.274037
0.207562
0.286381
0.20868
0.252325
0.0896987
0.103425
0.181
0.00435753
0.00323801
0.196528
0.222642
0.227168
0.174211
0.21289
0.052639
0.233321
0.23108
0.275201
0.153319
0.134242
0.184761
0.230787
0.0219937
0.22515
0.266359
0.00503572
0.306048
0.232099
0.0692397
0.262816
0.19487
0.268286
0.21643
0.187421
0.207623
0.234523
0.190927
0.234776
0.25926
0.0794828
0.079812
0.27891
0.00332255
0.233167
0.223854
0.278424
0.222038
0.262883
0.00104594
0.225819
0.0903622
0.000467459
0.1694
0.0415724
0.27638
0.24115
0.0738875
0.00280782
0.248036
0.137138
0.224619
0.247111
0.223857
0.259958
0.000884528
0.111384
0.0727159
0.223775
0.0378188
0.163386
0.233198
0.142999
0.231677
0.00284386
0.236389
0.0689751
0.232473
0.181975
0.123718
0.115081
0.23451
0.00246969
0.0457288
0.222553
0.0855014
0.175446
0.201203
0.131223
0.125963
0.222231
0.221608
0.254951
0.220603
0.124843
0.222351
0.220094
0.119569
0.106616
0.000998312
0.22139
0.221065
0.222945
0.101772
0.213561
0.0111379
0.223832
0.00602617
0.234888
0.000881681
0.0258672
0.18905
0.133769
0.0117183
0.224337
0.276673
0.00381967
0.0183144
0.220796
0.217155
0.0355429
0.219457
0.220407
0.147929
0.0426605
0.234966
0.227253
0.0147801
0.222527
0.222801
0.162552
0.218747
0.285453
0.223259
0.278696
0.19137
0.281107
0.194275
0.0245346
0.262078
0.00594597
0.00651144
0.282799
0.281469
0.196188
0.222541
0.276139
0.272939
0.136774
0.109491
0.180254
0.0664813
0.192122
0.126814
0.273214
0.19519
0.197582
0.215254
0.20335
0.283318
0.183384
0.207341
0.0570394
0.207805
0.153704
0.0191651
0.207753
0.206709
0.208124
0.155
0.0931604
0.291551
0.130044
0.133616
0.159024
0.247661
0.208461
0.0673977
0.192451
0.158927
0.014113
0.0701386
0.210907
0.243128
0.166735
0.155421
0.210096
0.210007
0.0834631
0.254194
0.220308
0.143736
0.217147
0.17392
0.228017
0.214625
0.0108999
0.0272402
0.194872
0.283935
0.152477
0.1422
0.00356332
0.163072
0.214216
0.12223
0.224914
0.219885
0.0927577
0.127925
0.222954
0.262605
0.235089
0.177479
0.283308
0.222893
0.0358934
0.232286
0.28609
0.0228887
0.127013
0.248053
0.20946
0.0804789
0.203204
0.0245543
0.0185211
0.176994
0.209923
0.283366
0.236953
0.209335
0.208887
0.215192
0.0940715
0.0114759
0.068194
0.235298
0.282726
0.157424
0.212274
0.141636
0.0604372
0.208601
0.0644704
0.209591
0.267569
0.128698
0.00235866
0.240686
0.0994709
0.215813
0.0186841
0.0798952
0.160646
0.244032
0.213806
0.215791
0.28402
0.244235
0.0404686
0.286012
0.00364825
-0.000582745
0.215115
0.0435118
0.116283
0.160417
0.111662
0.283547
0.211504
0.240391
0.207038
0.047345
0.172495
0.0542203
0.131455
0.238739
0.206724
0.208752
0.206328
0.0755578
0.257428
0.193798
0.0671964
0.207763
0.205981
0.205237
0.191047
0.207701
0.0201923
0.0125964
0.206458
0.00380714
0.124383
0.142832
0.011014
0.150282
0.176269
0.264955
0.196192
0.231605
0.180686
0.132179
0.208456
0.210447
0.210773
0.112343
0.209745
0.257882
0.0175366
0.00299408
0.1397
0.119034
0.00327865
0.209331
0.206409
0.207973
0.0191604
0.0315019
0.205645
0.24721
0.030199
0.0400358
0.283529
0.274991
0.212033
0.0412162
0.222248
0.195814
0.227656
0.177615
0.203079
0.277479
0.177769
0.1772
0.0901399
0.179195
0.278501
0.0339573
0.200891
0.177743
0.106315
0.219672
0.226765
0.0915355
0.218494
0.244625
0.221438
0.177667
0.268767
0.0537516
0.177182
0.239108
0.0156659
0.190583
0.0724905
0.174242
0.0954364
0.277548
0.181552
0.0033464
0.175224
0.174243
0.185711
0.176383
0.162431
0.00502932
0.043762
0.218808
0.188358
0.154749
0.221445
0.111806
0.245648
0.0247772
0.187742
0.0828861
0.16979
0.221866
0.0161513
0.190786
0.186934
0.279808
0.0260116
0.227863
0.249998
0.0418144
0.183514
0.0436474
0.148533
0.209956
0.226528
0.183217
0.182058
0.181403
0.283436
0.0324872
0.225363
0.110631
0.0196716
0.184163
0.230848
0.195463
0.194471
0.033694
0.197509
0.199281
0.1037
0.252662
0.28203
0.265071
0.147915
0.199507
0.00419312
0.272221
0.179508
0.196434
0.162879
0.198826
0.197174
0.202383
0.220841
0.202604
0.226606
0.197754
0.262233
0.263708
0.197026
0.216976
0.195996
0.226654
0.227402
0.0139554
0.129362
0.154332
0.0136679
0.209494
0.199674
0.211281
0.109129
0.00676695
0.113941
0.195842
0.214695
0.214833
0.126077
0.146185
0.21213
0.280394
0.201101
0.00882819
0.0196224
0.235792
0.202411
0.120028
0.161069
0.199801
0.130313
0.191517
0.192
0.191723
0.163173
0.217129
0.191138
0.284561
0.0249468
0.190862
0.284792
0.191536
0.251632
0.0429321
0.189633
0.119547
0.0908361
0.191805
0.191018
0.117512
0.119895
0.189836
0.100488
0.187869
0.188689
0.196024
0.11151
0.186375
0.0319734
0.189207
0.188729
0.126443
0.186895
0.18743
0.266107
0.181834
0.152925
0.183363
0.185388
0.128115
0.061152
0.110141
0.27299
0.1878
0.188834
0.158557
0.0626277
0.273484
0.161464
0.16439
0.159887
0.158807
0.011826
0.00627562
0.0517251
0.105028
0.1889
0.188271
0.00608739
0.235791
0.177698
0.0801725
0.273531
0.154961
0.153752
0.275895
0.156838
0.228341
0.0473219
0.154665
0.22214
0.205537
0.155127
0.114
0.0411481
0.155788
0.235782
0.210941
0.119242
0.0564479
0.0914337
0.163048
0.0948071
0.235469
0.0905767
0.160423
0.171784
0.279742
0.123716
0.0110128
0.0596555
0.0923332
0.157437
0.233837
0.170398
0.170096
0.0212755
0.134294
0.00870477
0.172916
0.172889
0.0936399
0.0133245
0.207522
0.0405922
0.256474
0.192571
0.189049
0.271998
0.0917178
0.22313
0.232586
0.154641
0.0164532
0.189096
0.269662
0.187162
0.184787
0.157378
0.0808021
0.188622
0.0177013
0.27101
0.237278
0.125714
0.18825
0.179824
0.235009
0.264598
0.224628
0.0306074
0.0817803
0.185591
0.194141
0.21913
0.122389
0.215334
0.274948
0.184261
0.217638
0.0731669
0.191191
0.14318
0.0879176
0.190775
0.191008
0.190021
0.217893
0.186458
0.0425967
0.187389
0.0804564
0.213651
0.0209786
0.18546
0.217028
0.00408956
0.0238036
0.181997
0.0686454
0.0467662
0.0726983
0.0609404
0.110989
0.0399367
0.184785
0.182929
0.0321327
0.181931
0.183229
0.215838
0.0104285
0.184592
0.177143
0.00230758
0.0253226
0.174005
0.100155
0.00388072
0.0132736
0.17456
0.124464
0.180043
0.267666
0.017222
0.216093
0.161743
0.179207
0.176056
0.159009
0.203967
0.187215
0.181386
0.165504
0.270626
0.238591
0.179832
0.182722
0.249772
0.0362905
0.236246
0.204255
0.122877
0.115745
0.182442
0.082425
0.0205754
0.168358
0.173399
0.285479
0.145685
0.173684
0.171552
0.200104
0.0817403
0.171742
0.172816
0.261201
0.173296
0.0772238
0.176391
0.176196
0.140868
0.12749
0.154649
0.17616
0.17319
0.176053
0.118407
0.149338
0.179828
0.156573
0.11706
0.124766
0.125478
0.125902
0.146254
0.174269
0.149417
0.27368
0.251238
0.0441192
0.105361
0.110078
0.147456
0.145256
0.149721
0.192777
0.146211
0.14552
0.0870077
0.109948
0.205373
0.0863779
0.0348847
0.148876
0.147681
0.150681
0.255029
0.0144817
0.00717712
0.103104
0.15938
0.156266
0.236349
0.0357415
0.148147
0.27379
0.0419874
0.157598
0.157591
0.188214
0.00189698
0.155633
0.156138
0.155289
0.168423
0.00531283
0.00786725
0.168962
0.168898
0.165632
0.167335
0.173653
0.16397
0.0813133
0.016515
0.278619
0.210548
0.169379
0.168075
0.12649
0.266326
0.259173
0.240908
0.00148053
0.241232
0.170314
0.170473
0.168797
0.169664
0.170445
0.168894
0.231322
0.141475
0.225196
0.149387
0.0808319
0.0145161
0.171557
0.127022
0.00467421
0.15122
0.176592
0.270386
0.1779
0.120437
0.116484
0.207642
0.13196
0.17438
0.18125
0.178915
0.144905
0.156604
0.266437
0.17386
0.223342
0.077525
0.0639717
0.171599
0.0663003
0.0233683
0.176745
0.176022
0.129988
0.0872053
0.100236
0.251886
0.175601
0.0514882
0.00605175
0.157492
0.028868
0.123804
0.169924
0.210348
0.15689
0.0263881
0.256776
0.0155964
0.24973
0.137425
0.237219
0.161827
0.0456617
0.171682
0.154631
0.0971925
0.117216
0.172287
0.172637
0.257595
0.21213
0.225025
0.262639
0.21812
0.210131
0.210523
0.229871
0.168573
0.167588
0.131726
0.06529
0.0750025
0.018411
0.238407
0.13239
0.165028
0.162965
0.164091
0.0458074
0.160767
0.226567
0.00524856
0.160552
0.165473
0.189546
0.281129
0.227634
0.226419
0.161588
0.0131625
0.237704
0.163793
0.198463
0.172043
0.202495
0.214991
0.150564
0.234741
0.167127
0.212077
0.171763
0.0207975
0.228144
0.235257
0.134965
0.276767
0.0752049
0.0867587
0.0755852
0.148845
0.222112
0.0608329
0.197713
0.0623769
0.16792
0.167859
0.144127
0.174377
0.157818
0.247871
0.204194
0.155852
0.209726
0.163315
0.282155
0.232764
0.163022
0.158366
0.203791
0.243886
0.160146
0.0270494
0.197251
0.247644
0.156998
0.142854
0.161506
0.164499
0.166063
0.166967
0.00401418
0.0754883
0.168152
0.276066
0.166731
0.13623
0.218705
0.133614
0.115749
0.248643
0.276247
0.228821
0.228864
0.230588
0.0359201
0.156172
0.187552
0.274736
0.263096
0.276807
0.280437
0.262873
0.138428
0.135075
0.275203
0.0591774
0.139547
0.209231
0.136302
0.228289
0.214865
0.274967
0.256152
0.227944
0.074985
0.138652
0.153627
0.147539
0.155144
0.231119
0.21033
0.154284
0.149642
0.15189
0.0163924
0.244152
0.0428513
0.155797
0.184215
0.1616
0.15727
0.151652
0.0431392
0.158885
0.139806
0.158088
0.157148
0.235511
0.142977
0.0810103
0.0487133
0.221036
0.111868
0.111006
0.215651
0.092482
0.0514472
0.0443872
0.033568
0.212576
0.0696129
0.142258
0.17797
0.0330836
0.240935
0.241829
0.0989774
0.0959725
0.26026
0.147187
0.0159278
0.172313
0.0335846
0.20743
0.031966
0.0497162
0.0200095
0.0105616
0.0830015
0.2368
0.0478126
0.0253692
0.0265502
0.154546
0.0305324
0.152321
0.242675
0.156392
0.153667
0.211902
0.0473132
0.159505
0.15812
0.0125483
0.0755694
0.237683
0.15943
0.159959
0.214059
0.243134
0.23156
0.242051
0.0566929
0.267126
0.275203
0.159439
0.160523
0.013517
0.250447
0.274052
0.157592
0.11912
0.156948
0.0181944
0.232354
0.0070009
0.0470998
0.147865
0.191116
0.149603
0.121482
0.239103
0.111408
0.227088
0.148241
0.149296
0.0729895
0.140861
0.127617
0.27045
0.23915
0.205195
0.148393
0.244265
0.0813757
0.046319
0.0672584
0.0141106
0.14873
0.241234
0.148084
0.0142941
0.0119491
0.235226
0.150391
0.0706062
0.251444
0.150591
0.151106
0.235726
0.0206605
0.233894
0.151644
0.154727
0.155888
0.163843
0.156059
0.229764
0.226215
0.156103
0.25913
0.166973
0.226014
0.190632
0.153907
0.242127
0.150565
0.120367
0.261409
0.170543
0.153041
0.0122516
0.156802
0.155525
0.116419
0.149573
0.208188
0.0591206
0.239371
0.142552
0.218449
0.229577
0.153338
0.167602
0.0109442
0.0708249
0.0571218
0.151551
0.239983
0.0198357
0.148567
0.261655
0.0562717
0.216319
0.0531901
0.14938
0.183216
0.147569
0.00150739
0.196876
0.240019
0.116555
0.0367364
0.0574804
0.112728
0.114505
0.122258
0.237378
0.0114375
0.0372449
0.128073
0.129471
0.225207
0.20847
0.130001
0.135851
0.124128
0.190738
0.262786
0.246214
0.166273
0.0305509
0.222615
0.221452
0.0985856
0.0506849
0.203175
0.093319
0.127924
0.211923
0.166476
0.170477
0.144974
0.123902
0.134831
0.134547
0.132666
0.215962
0.137474
0.185825
0.258802
0.239877
0.209605
0.232055
0.124944
0.0909468
0.238428
0.138357
0.212529
0.164254
0.219257
0.26867
0.129711
0.00733411
0.139698
0.141787
0.148918
0.236767
0.138986
0.14624
0.169534
0.148783
0.169295
0.14172
0.00191196
0.167999
0.146259
0.145471
0.0053403
0.210714
0.264704
0.167563
0.175227
0.131766
0.147987
0.146569
0.0594356
0.26263
0.148431
0.148088
0.150101
0.0361428
0.23724
0.159598
0.133303
0.167698
0.0862954
0.11308
0.22442
0.137448
0.133616
0.108091
0.134137
0.145525
0.0904311
0.137537
0.237019
0.156174
0.0784453
0.236049
0.23708
0.119839
0.120755
0.101556
0.13767
0.0600342
0.14132
0.0661341
0.284181
0.2205
0.18202
0.0862833
0.0216634
0.24654
0.0195955
0.0225448
0.137012
0.00216771
0.137522
0.031544
0.183326
0.0955149
0.136059
0.206182
0.184442
0.137273
0.0273512
0.0223265
0.179461
0.13497
0.0397829
0.138125
0.136477
0.156138
0.143602
0.267799
0.21284
0.246313
0.181044
0.207533
0.137076
0.212303
0.182544
0.137403
0.248109
0.271526
0.206403
0.201352
0.137463
0.230216
0.134143
0.247131
0.177486
0.21026
0.020156
0.042033
0.199095
0.0108723
0.239306
0.283823
0.249859
0.012787
0.0579158
0.0194611
0.235257
0.24511
0.0066911
0.184456
0.129928
0.229816
0.189334
0.129401
0.138501
0.032231
0.202605
0.206448
0.0563085
0.267683
0.246154
0.147747
0.131476
0.278789
0.130505
0.27267
0.20475
0.202618
0.1318
0.255752
0.116793
0.253657
0.23653
0.258162
0.00731006
0.134983
0.265789
0.0706125
0.274482
0.135517
0.259737
0.101776
0.10092
0.107544
0.268718
0.221314
0.257096
0.22014
0.114856
0.265536
0.265971
0.102376
0.267238
0.119457
0.212969
0.112782
0.22113
0.145727
0.0980105
0.138581
0.0951026
0.139393
0.0213465
0.120965
0.110559
0.247528
0.10727
0.205599
0.154332
0.183238
0.118337
0.0399575
0.087989
0.207288
0.11287
0.247046
0.0758415
0.123346
0.254273
0.211227
0.125566
0.229696
0.123682
0.112614
0.110281
0.144138
0.118247
0.0022266
0.0400154
0.0438629
0.113266
0.114013
0.209604
0.0502874
0.0292041
0.107517
0.0714362
0.245455
0.223491
0.0354187
0.126374
0.185976
0.119515
0.127766
0.102405
0.125189
0.222834
0.124704
0.174854
0.000709417
0.242186
0.171812
0.276113
0.128763
0.124734
0.0226582
0.247794
0.0952314
0.129445
0.21286
0.133951
0.13041
0.122399
0.120378
0.0330005
0.133298
0.127749
0.12862
0.122888
0.143804
0.125242
0.242294
0.103515
0.130739
0.244564
0.275814
0.179706
0.107316
0.200294
0.128177
0.116981
0.111293
0.0598262
0.104207
0.0953143
0.263604
0.105631
0.144275
0.141989
0.0354266
0.104324
0.241821
0.119277
0.122353
0.170368
0.160671
0.116907
0.186885
0.144588
0.120559
0.117876
0.134162
0.118314
0.240402
0.231632
0.107173
0.103431
0.114116
0.0464362
0.12102
0.144379
0.208861
0.117719
0.12213
0.111561
0.124055
0.242994
0.102867
0.235386
0.121742
0.117608
0.108721
0.118129
0.091654
0.114533
0.0935678
0.0817369
0.116529
0.260734
0.132899
0.258597
0.171358
0.078422
0.0255926
0.101296
0.241968
0.119146
0.117637
0.0864335
0.119493
0.0859891
0.24401
0.242466
0.0901042
0.0907297
0.0947855
0.0952936
0.193747
0.151987
0.0928917
0.0934459
0.0702408
0.115859
0.0949708
0.0953274
0.0547687
0.0530051
0.00251651
0.0955956
0.195858
0.033061
0.152141
0.0990864
0.101949
0.106669
0.136783
0.239645
0.121306
0.0872938
0.0128459
0.0207079
0.154188
0.100317
0.0951705
0.131567
0.0343708
0.0226799
0.101644
0.241193
0.113179
0.115117
0.0537567
0.106807
0.269543
0.109509
0.107502
0.150784
0.109684
0.113494
0.241203
0.114106
0.129294
0.0205171
0.00457898
0.188612
0.0399992
0.0231157
0.11778
0.0970111
0.241594
0.115566
0.250324
0.250669
0.112333
0.240305
0.00798933
0.108511
0.115614
0.0374263
0.116881
0.250749
0.276241
0.0538922
0.246546
0.115086
0.207811
0.228904
0.115829
0.120925
0.248996
0.113369
0.268146
0.115208
0.140138
0.125263
0.26893
0.246444
0.141557
0.118212
0.11467
0.216564
0.139762
0.216548
0.24655
0.242857
0.118519
0.0135722
0.119084
0.110689
0.215146
0.0899455
0.215842
0.0456092
0.228508
0.000375106
0.24247
0.140628
0.0996006
0.109613
0.245202
0.107112
0.242014
0.235139
0.244798
0.0148265
0.00393261
0.21818
0.00414322
0.106921
0.138468
0.187471
0.104603
0.23558
0.159773
0.239819
0.10208
0.237928
0.197076
0.214732
0.277336
0.145122
0.262751
0.101652
0.0112018
0.159875
0.0109065
0.274685
0.0499731
0.154483
0.215011
0.112185
0.106642
0.0153375
0.0368375
0.108836
0.220982
0.244717
0.00741656
0.251065
0.140904
0.267656
0.0640027
0.22344
0.108623
0.197698
0.246483
0.194945
0.182727
0.20641
0.225188
0.239872
0.180362
0.0467128
0.211034
0.110655
0.11087
0.110523
0.0661367
0.261921
0.262981
0.212926
0.121094
0.235537
0.242724
0.120937
0.111534
0.110319
0.106553
0.262018
0.052964
0.104218
0.165646
0.106886
0.210771
0.194714
0.128423
0.0628827
0.107888
0.105925
0.150935
0.273243
0.174695
0.106068
0.237123
0.0752064
0.0573033
0.257767
0.0054302
0.0748231
0.0154574
0.0750315
0.0751624
0.238256
0.104568
0.196418
0.236744
0.131058
0.111566
0.246115
0.0792765
0.243096
0.10015
0.103307
0.103544
0.214837
0.18063
0.242614
0.219869
0.233182
0.0886882
0.155009
0.246796
0.230326
0.111476
0.229484
0.077166
0.211382
0.0505334
0.213723
0.106551
0.191468
0.0943056
0.144659
0.229893
0.0750044
0.230634
0.057622
0.11522
0.092288
0.0333906
0.0971468
0.0909936
0.128929
0.242704
0.0951352
0.0438203
0.0195477
0.215721
0.0216396
0.232336
0.00456802
0.0996359
0.0540202
0.0985435
0.230332
0.234225
0.050165
0.260877
0.0353056
0.00243355
0.214206
0.193202
0.0972501
0.23068
0.0732627
0.0212234
0.125629
0.00289674
0.160327
0.20524
0.148707
0.0995252
0.271723
0.100912
0.164038
0.21424
0.134162
0.233407
0.0971586
0.146519
0.0962628
0.151552
0.260409
0.103411
0.0891686
0.152175
0.0969295
0.17006
0.0957331
0.0625999
0.095556
0.260301
0.0952343
0.0914102
0.0943248
0.253607
0.120775
0.244127
0.264073
0.262355
0.186843
0.051787
0.0692643
0.195485
0.231036
0.0241591
0.0666353
0.0943405
0.0927869
0.232472
0.274802
0.00324316
0.0344445
0.0853789
0.244122
0.0348476
0.135642
0.232809
0.0918244
0.0904506
0.091405
0.0886257
0.0917139
0.188021
0.113424
0.228728
0.0246849
0.0952073
0.0919053
0.255467
0.14484
0.251156
0.265956
0.0500311
0.0923843
0.0690366
0.253689
0.256393
0.250688
0.249487
0.128133
0.0681392
0.245051
0.0503387
0.0921834
0.224853
0.102997
0.0912359
0.072401
0.0895447
0.222917
0.221473
0.092028
0.163867
0.103409
0.102778
0.272168
0.0265847
0.0567792
0.0921766
0.0929291
0.00853067
0.0927913
0.0705467
0.0983964
0.218089
0.0931123
0.0178059
0.100113
0.0084094
0.256286
0.248691
0.129589
0.0954912
0.098334
0.113237
0.083918
0.0762854
0.115568
0.080733
0.0794175
0.069586
0.0810038
0.257844
0.229756
0.136104
0.214813
0.0854368
0.221854
0.0678324
0.214526
0.177597
0.205479
0.0824273
0.154859
0.0193542
0.222079
0.239867
0.0946215
0.279835
0.0851702
0.0873617
0.14722
0.0226717
0.113978
0.0881823
0.220923
0.0668927
0.0943458
0.0916109
0.0636118
0.182987
0.0637016
0.062653
0.0643298
0.0651509
0.0638801
0.216924
0.217683
0.224359
0.214005
0.0407738
0.0644322
0.252191
0.070763
0.0394171
0.0700769
0.0694607
0.042059
0.0704792
0.0690793
0.0697269
0.088457
0.0850007
0.157415
0.0972937
0.10996
0.142342
0.12246
0.112837
0.0418409
0.0891282
0.0882364
0.0667775
0.0720535
0.0863644
0.172195
0.0178593
0.204443
0.271857
0.159746
0.261559
0.0872196
0.0195769
0.0212362
0.0210692
0.118597
0.0222746
0.0837846
0.0861969
0.245227
0.27941
0.147863
0.0779139
0.248959
0.133746
0.165252
0.0854392
0.167989
0.0855154
0.173157
0.0718019
0.0383754
0.0464022
0.0812534
0.00160859
0.087927
0.247288
0.0648677
0.201921
0.0261199
0.0786616
0.0809728
0.231281
0.110547
0.173495
0.12401
0.172363
0.0799372
0.0156572
0.250169
0.0962934
0.16053
0.246167
0.246187
0.0821111
0.0697358
0.0830587
0.12657
0.0823686
0.168953
0.230648
0.129924
0.0836504
0.0843153
0.134524
0.15389
0.190351
0.0835638
0.0854822
0.0859336
0.2474
0.0846048
0.0860542
0.0310096
0.0754768
0.0400695
0.0153165
0.0392592
0.0245264
0.073935
0.0758894
0.0125413
0.060046
0.012129
0.244546
0.0774673
0.0438573
0.244911
0.187097
0.116403
0.0668906
0.0808741
0.0127237
0.0788045
0.1791
0.125129
0.0773469
0.250999
0.038182
0.00391147
0.0781905
0.28691
0.123204
0.162712
0.0141427
0.0786404
0.0778685
0.190275
0.0141893
0.12197
0.157436
0.0723577
0.0782002
0.0806294
0.279073
0.258413
0.251558
0.118187
0.0398898
0.0157887
0.014121
0.253242
0.014193
0.0494938
0.0816881
0.275288
0.0960423
0.083253
0.227735
0.252652
0.179438
0.170223
0.0823917
0.080138
0.245062
0.20956
0.222312
0.0241124
0.205205
0.0533886
0.111824
0.0439595
0.079426
0.12682
0.258104
0.127605
0.125618
0.266625
0.0747496
0.246759
0.0562361
0.167944
0.197749
0.257778
0.127516
0.250298
0.0705928
0.0590177
0.0353798
0.0748842
0.250653
0.0568125
0.0513766
0.153888
0.0583858
0.0584919
0.0630086
0.0204933
0.116152
0.0764234
0.0905656
0.0533259
0.0693534
0.0614816
0.0422307
0.253041
0.174916
0.0566286
0.078408
0.284049
0.148503
0.0750141
0.159899
0.0757462
0.141861
0.0737711
0.251295
0.0550901
0.280918
0.0479878
0.0426727
0.155225
0.0577907
0.170097
0.148531
0.17989
0.0236188
-0.00101043
0.0323066
0.0268872
0.0479168
0.0173291
0.0529086
0.049209
0.048574
0.264886
0.0324915
0.25364
0.253841
0.0382058
0.241385
0.079299
0.247913
0.230229
0.0550667
0.243649
0.0553217
0.00206221
0.179285
0.11428
0.23521
0.229348
0.12533
0.0192221
0.0347293
0.181605
0.198117
0.0567323
0.054967
0.07394
0.201769
0.220475
0.162156
0.0200719
0.0145907
0.0732547
0.184991
0.204041
0.223764
0.265325
0.0753779
0.235888
0.215766
0.160814
0.281794
0.114141
0.147503
0.18778
0.0709115
0.255882
0.0125646
0.110113
0.215354
0.193957
0.228586
0.254431
0.022623
0.109855
0.0734344
0.131452
0.0743415
0.121711
0.135063
0.130468
0.0942131
0.0739764
0.0730349
0.0707123
0.0959703
0.26383
0.103813
0.0930891
0.0995795
0.249302
0.218983
0.021434
0.255497
0.0736321
0.0706189
0.148525
0.0621803
0.0627733
0.0870361
0.0218945
0.0613852
0.0661962
0.0154286
0.0582135
0.056995
0.0627052
0.0824114
0.0688117
0.0694648
0.253388
0.0460979
0.055901
0.0412349
0.0755826
0.0407818
0.0381996
0.0716334
0.0169965
0.0182599
0.102112
0.04185
0.0371056
0.254792
0.0721678
0.0554829
0.0511674
0.0195159
0.0458275
0.071438
0.0737276
0.0655344
0.115487
0.1589
0.183432
0.136782
0.0184998
0.0653043
0.0636693
0.065671
0.210228
0.100255
0.073121
0.271124
0.0643791
0.099565
0.063905
0.066232
0.17615
0.182644
0.0636709
0.106595
0.230905
0.229632
0.100522
0.0644264
0.252487
0.0643813
0.13916
0.0649905
0.275869
0.0654511
0.207406
0.0639485
0.175828
0.214149
0.247309
0.22472
0.0625763
0.217169
0.156616
0.175421
0.0644338
0.0267664
0.113416
0.159568
0.0643171
0.0638095
0.0647237
0.113373
0.0578124
0.266077
0.191689
0.0248024
0.253166
0.0607706
0.246043
0.024809
0.0557066
0.059311
0.209615
0.0641087
0.180291
0.264025
0.0564728
0.0603688
0.0976772
0.25941
0.209763
0.208727
0.0614686
0.220434
0.18759
0.0598486
0.100351
0.0847631
0.0588452
0.0589755
0.179974
0.223234
0.0653067
0.102925
0.0831642
0.250648
0.245461
0.249983
0.0641718
0.252077
0.0436398
0.197531
0.228755
0.130086
0.177411
0.0640627
0.257071
0.031206
0.0350581
0.0376236
0.108138
0.0377426
0.116131
0.113892
0.101048
0.125938
0.204182
0.103281
0.153964
0.00915799
0.0435639
0.0876318
0.146873
0.0613434
0.164605
0.232253
0.118797
0.199528
0.192149
0.0116173
0.0375494
0.174197
0.0441233
0.00045076
0.255595
0.211137
0.244869
0.0357337
0.25538
0.0965928
0.242709
0.0922008
0.246392
0.0913089
0.251774
0.0408804
0.220984
0.0589345
0.187316
0.0934464
0.193431
0.0964224
0.290174
0.0596378
0.0804154
0.204882
0.187861
0.0574824
0.125721
0.188042
0.0596545
0.168595
0.0239563
0.168114
0.0546666
0.0529113
0.0812599
0.255194
0.059768
0.0382264
0.0588812
0.0607608
0.109376
0.212729
0.0681105
0.0612431
0.108915
0.109025
0.00480751
0.248147
0.0590865
0.0779815
0.141803
0.195336
0.00195043
0.0608583
0.253347
0.0505439
0.0487096
0.155059
0.0290707
0.0431641
0.228939
0.0610841
0.250558
0.113611
0.0388976
0.0479638
0.127778
0.0455473
0.0588978
0.0866165
0.055858
0.0573709
0.0564869
0.0238463
0.149446
0.0548497
0.0773773
0.0524426
0.0706467
0.0787802
0.054242
0.0511832
0.247686
0.0555797
0.0482036
0.0511196
0.253095
0.05966
0.049977
0.069198
0.186288
0.0743406
0.0542191
0.0606044
0.0528202
0.00291484
0.250968
0.0751431
0.0529362
0.039287
0.258948
0.100234
0.0270352
0.0512818
0.0109765
0.109298
0.249688
0.0503983
0.248197
0.0470202
0.0311488
0.252686
0.249041
0.257801
0.0379309
0.254166
0.0152732
0.0183553
0.0517399
0.0271855
0.0233176
0.0635734
0.188629
0.253635
0.243264
0.262469
0.240867
0.148076
0.107501
0.0397726
0.0484226
0.0567385
0.14055
0.158357
0.0965442
0.21145
0.0740796
0.0530064
0.171082
0.0668462
0.241785
0.24149
0.0297473
0.243308
0.159011
0.220298
0.258941
0.0495205
0.20045
0.161348
0.171421
0.160767
0.0501853
0.12266
0.244489
0.260766
0.0601399
0.238788
0.258736
0.249054
0.206478
0.0422527
0.262245
0.0448017
0.232073
0.232691
0.0445965
0.0494822
0.0398822
0.142123
0.255027
0.103133
0.159975
0.0406324
0.177661
0.255388
0.0530313
0.208428
0.0511657
0.212569
0.241617
0.262471
0.240586
0.086145
0.0952283
0.113276
0.201261
0.0531664
0.225847
0.226461
0.0514307
0.214465
0.122723
0.0514466
0.160018
0.218176
0.050007
0.244705
0.0422004
0.222741
0.26628
0.0470199
0.134644
0.047749
0.164205
0.0500647
0.0239272
0.255463
0.166749
0.081073
0.110159
0.14054
0.133053
0.0203611
0.126346
0.124203
0.243664
0.170558
0.269469
0.232583
0.0669961
0.248786
0.0253455
0.0262705
0.179842
0.152817
0.214653
0.213966
0.0278322
0.0239898
0.122064
0.252003
0.203322
0.232262
0.266856
0.0272477
0.205809
0.168003
0.206462
0.213
0.156819
0.256493
0.217455
0.221681
0.0618911
0.0666218
0.265698
0.0273411
0.0242337
0.0458177
0.235332
0.25266
0.256149
0.0444628
0.0422039
0.186614
0.0438356
0.0451093
0.192314
0.261181
0.212743
0.0696807
0.242678
0.122193
0.209857
0.211891
0.262473
0.0427769
0.15382
0.154484
0.0450145
0.0426388
0.0408965
0.0434154
0.164554
0.0449888
0.261771
0.206877
0.190241
0.0448766
0.0398133
0.0884467
0.200476
0.263239
0.119241
0.106976
0.26053
0.0196884
0.0348911
0.0704354
0.110644
0.0344412
0.0442283
0.0456772
0.0853118
0.0460818
0.260427
0.261679
0.0940677
0.260414
0.150984
0.084687
0.0413311
0.0674912
0.0631582
0.075335
0.0440542
0.0376383
0.0478559
0.0551634
0.0399949
0.065519
0.0700508
0.201543
0.0402256
0.0436579
0.0764788
0.0262303
0.0456037
0.0402578
0.0373645
0.0381911
0.0392109
0.259988