/*--------------------------------*- C++ -*----------------------------------*\
| =========                 |                                                 |
| \\      /  F ield         | OpenFOAM: The Open Source CFD Toolbox           |
|  \\    /   O peration     | Version:  2406                                  |
|   \\  /    A nd           | Website:  www.openfoam.com                      |
|    \\/     M anipulation  |                                                 |
\*---------------------------------------------------------------------------*/
FoamFile
{
    version     2.0;
    format      ascii;
    arch        "LSB;label=32;scalar=64";
    class       surfaceScalarField;
    location    "38";
    object      phi;
}
// * * * * * * * * * * * * * * * * * * * * * * * * * * * * * * * * * * * * * //

dimensions      [0 3 -1 0 0 0 0];

oriented        oriented;

internalField   nonuniform List<scalar> 
113358
(
-1.491e-05
3.12709e-05
-2.18009e-05
5.44019e-06
2.25257e-05
2.97796e-07
-6.07748e-06
-1.67465e-05
-2.61137e-05
1.98569e-05
-3.15884e-06
9.41506e-06
-2.40334e-05
-6.42616e-06
2.3792e-05
6.66951e-06
-1.73049e-05
9.27476e-07
3.01664e-05
-1.37891e-05
1.36164e-05
-1.41964e-05
-7.96065e-06
8.54066e-06
-7.23193e-06
3.46555e-05
-2.50721e-05
-2.35099e-06
-7.84869e-07
-3.23825e-05
1.76888e-05
1.54781e-05
8.49717e-06
5.93899e-07
1.83264e-05
-2.74173e-05
7.62356e-06
3.82342e-06
-1.11358e-05
-3.08001e-07
-6.12479e-06
2.30035e-05
-2.15137e-05
4.63496e-06
-1.49747e-05
1.18592e-08
-3.20928e-07
1.52837e-05
-4.56519e-05
3.56611e-06
1.23478e-05
2.97381e-05
1.25256e-06
-2.67687e-06
1.42445e-06
2.04551e-06
-1.46325e-06
2.00878e-05
-2.06709e-05
1.08926e-06
3.34791e-07
1.20888e-05
-1.35104e-05
1.01651e-05
3.43189e-05
-2.84584e-05
-1.60254e-05
-1.95384e-05
1.08284e-05
6.75978e-06
1.95031e-06
1.49541e-05
-3.8117e-05
3.21405e-05
-8.9777e-06
2.49467e-05
3.41702e-06
2.77251e-05
-5.60896e-05
1.91267e-05
4.0248e-07
-4.803e-07
-1.90488e-05
-1.16142e-05
4.63737e-05
4.31316e-06
-3.90732e-05
-5.50784e-07
-4.52833e-05
4.8723e-05
-2.88792e-06
-9.49231e-07
4.55173e-06
3.32075e-07
-3.93515e-06
-4.71851e-05
2.06843e-05
-3.91735e-06
3.04204e-05
-2.28715e-05
5.3546e-06
1.88485e-05
-1.32889e-06
-9.77846e-06
9.48535e-06
-1.83595e-07
4.76202e-07
-1.93831e-06
-7.50653e-06
5.40462e-06
4.04021e-06
1.92012e-05
-3.58418e-07
2.84314e-07
-2.34537e-06
2.33945e-06
6.15323e-09
-5.43758e-06
-2.58594e-05
2.74554e-05
3.8415e-06
5.13417e-06
-2.69533e-07
-8.13316e-06
3.26853e-06
2.04974e-05
-1.12781e-06
1.17084e-06
-2.05403e-05
-2.807e-05
1.27852e-05
-2.9814e-06
1.82699e-05
1.75536e-05
2.34563e-06
-1.98748e-05
-2.41574e-08
-3.39879e-05
8.42257e-06
-1.18754e-05
3.74401e-05
-3.87097e-08
-2.27611e-06
2.31511e-06
9.3339e-06
1.08224e-05
1.78025e-06
-2.19365e-05
7.27725e-06
-3.74104e-05
3.06957e-05
-5.63215e-07
-3.51717e-06
4.62034e-06
3.61832e-05
-3.72841e-05
-1.93461e-05
1.62625e-05
-2.02786e-05
2.3361e-05
3.38339e-07
-2.39303e-05
-3.1068e-05
5.466e-05
-1.01009e-06
4.33158e-05
-1.21608e-05
-3.01458e-05
5.33978e-06
-1.87671e-05
-7.54105e-06
-5.91877e-06
3.25837e-05
-4.36562e-07
-2.62285e-05
-2.34057e-06
1.62396e-05
-1.08714e-05
-3.02762e-06
-3.04795e-05
-1.18647e-05
4.13339e-05
-1.1052e-05
3.52564e-05
1.3304e-06
-2.5535e-05
-3.40972e-05
4.27483e-06
-5.53504e-06
3.53575e-05
3.52762e-05
1.55521e-05
-4.6716e-05
-4.11211e-06
2.32251e-05
-1.61786e-05
1.55207e-06
-8.59854e-06
-1.08672e-05
3.20065e-06
1.09294e-05
-3.26095e-06
2.97187e-05
-7.76136e-06
1.68096e-05
-3.87652e-05
-1.03364e-05
-3.84373e-05
4.15854e-05
7.18906e-06
-2.08185e-06
7.74724e-06
-8.92849e-06
3.26302e-06
2.83527e-05
-1.23219e-05
2.02147e-05
-3.62457e-05
-2.12699e-05
4.89796e-06
3.72424e-05
-2.08705e-05
1.23194e-05
-6.04072e-06
4.84369e-06
-1.11219e-05
3.70594e-05
-9.50642e-06
-2.87362e-05
1.18388e-06
-1.28949e-05
-1.47782e-05
8.05348e-06
1.96196e-05
-3.07367e-05
-4.94706e-06
1.45963e-05
2.10859e-05
-2.98894e-06
3.41318e-06
-4.24393e-07
3.43236e-05
-5.78855e-06
-3.38056e-05
5.26974e-06
-1.533e-05
-4.21853e-05
1.63412e-05
4.11743e-05
-4.2086e-06
4.45837e-06
-3.52582e-05
3.50096e-05
1.81736e-06
2.16907e-05
2.62596e-06
-2.6134e-05
3.70649e-06
-3.06725e-06
-6.38578e-07
-1.30227e-08
6.29738e-08
1.19784e-05
-1.20282e-05
6.24191e-06
-3.01793e-05
3.26343e-05
-8.69692e-06
1.00568e-05
-2.4339e-05
2.32082e-05
-8.92619e-06
7.69265e-06
-7.9488e-06
2.56495e-07
-1.90933e-05
-6.40411e-06
3.32068e-05
-7.70963e-06
-2.55327e-07
4.27528e-06
-4.02036e-06
7.27277e-06
-2.93991e-05
9.31551e-06
1.28112e-05
4.48738e-05
-3.41679e-06
-2.94564e-06
-3.85115e-05
-2.7377e-05
-3.25053e-05
3.54221e-05
2.44604e-05
3.49751e-06
-3.69088e-05
6.03426e-06
3.61154e-05
-2.88756e-05
-8.98053e-07
-6.34228e-06
1.12168e-07
1.8522e-07
-1.58348e-05
1.55371e-05
6.69347e-06
8.08165e-06
1.27326e-05
-2.75075e-05
8.21592e-06
-4.31592e-06
3.37283e-06
-7.26889e-06
-1.6039e-05
-1.09909e-05
2.73237e-05
-2.93814e-07
-2.12242e-05
2.61109e-05
-1.86941e-05
1.38073e-05
-3.21358e-06
5.95371e-09
3.20784e-06
-3.05698e-05
3.2516e-05
-3.33374e-05
2.57678e-05
-3.00467e-06
-9.98623e-07
-6.44589e-07
4.64762e-06
6.37136e-05
-6.17298e-05
1.91324e-06
-3.89839e-06
-1.21297e-05
3.78741e-06
1.17322e-05
-3.38893e-06
-4.61443e-06
2.57577e-05
-2.8334e-05
7.19068e-06
-1.7943e-05
-2.12838e-05
3.14682e-05
7.75857e-06
9.04455e-06
-1.28146e-05
1.84002e-05
-1.46297e-05
7.46195e-06
2.41013e-05
-5.00168e-05
1.84538e-05
-3.36583e-05
1.19929e-05
1.46203e-05
7.04451e-06
8.69432e-07
-2.92358e-05
2.38332e-05
4.53286e-06
-2.71065e-05
2.49507e-06
9.67511e-06
1.49363e-05
2.34808e-05
-2.02837e-05
7.02668e-06
-1.02241e-05
1.38211e-06
1.23553e-05
-1.35173e-05
-2.19911e-07
1.73424e-05
-2.42149e-06
-2.61077e-06
-1.231e-05
1.58281e-05
1.82374e-05
-1.56836e-05
-1.83822e-05
2.47876e-06
-7.89867e-07
4.4699e-06
-6.15889e-06
4.88356e-06
-2.94165e-07
-4.58982e-06
4.01602e-08
4.05287e-06
-4.09299e-06
-4.93174e-07
3.08664e-06
-1.34991e-05
1.09059e-05
-2.03699e-05
4.1616e-05
4.28061e-07
-2.16773e-05
4.80581e-06
-2.17347e-05
1.67959e-05
1.34918e-07
-3.17894e-06
-4.24056e-06
1.18382e-06
6.23588e-06
-5.87578e-06
-1.43267e-05
3.72291e-06
1.64813e-05
-3.08519e-06
2.00954e-05
8.66587e-06
-2.56738e-05
4.25395e-06
3.82426e-06
-1.85135e-05
1.04358e-05
-2.73283e-06
2.83443e-05
-3.2265e-05
6.6536e-06
-7.72955e-06
7.94819e-06
-2.16397e-07
1.8783e-05
-2.32689e-05
3.69449e-06
7.90816e-07
1.84364e-05
1.08161e-05
-3.24395e-05
3.18695e-06
-2.63272e-05
-1.47782e-05
7.38014e-06
3.37251e-05
-2.27933e-06
-2.15205e-05
9.09528e-07
2.28902e-05
1.32252e-05
-1.37294e-05
9.35655e-08
4.10827e-07
1.63197e-05
-2.8458e-05
-5.49972e-06
1.76384e-05
-3.61488e-06
2.81563e-07
3.33306e-06
-4.33437e-06
-1.40169e-06
2.93578e-05
-2.36209e-05
-1.42233e-05
8.89961e-06
4.56714e-05
-4.03475e-05
-1.04247e-05
2.11562e-05
-3.12077e-05
2.04763e-05
1.63362e-06
-2.53106e-05
2.02441e-05
3.43015e-06
-3.72679e-06
-8.96626e-06
3.18798e-05
-1.91869e-05
2.31636e-05
-9.86103e-06
-1.02486e-05
-3.05385e-06
-2.75857e-06
-1.24143e-05
1.81461e-05
-2.97279e-06
6.31984e-06
-3.08654e-06
-3.2332e-06
-1.08023e-06
-2.51075e-05
-6.50942e-06
3.26975e-05
-1.47465e-05
2.0627e-05
5.87237e-06
-1.17528e-05
5.48506e-06
-1.3557e-05
2.31845e-05
-1.51126e-05
-4.4667e-05
1.05701e-05
-7.41273e-07
3.48385e-05
-2.59208e-06
-4.30328e-05
3.89196e-05
6.70734e-06
5.49738e-08
-4.1238e-06
4.06903e-06
2.11213e-05
-3.25725e-05
6.18764e-07
1.08325e-05
3.63286e-05
4.15774e-06
-3.91273e-05
-1.3595e-06
1.1225e-05
1.18537e-06
-2.63778e-05
1.39676e-05
-9.4047e-06
1.29802e-05
1.4861e-05
-2.66959e-05
-2.22387e-05
1.30658e-05
3.58685e-05
5.99353e-06
3.15151e-06
-4.26224e-06
6.99796e-06
-5.25543e-06
-2.67781e-05
2.50353e-05
4.70223e-06
1.47449e-05
-6.66352e-06
-1.27841e-05
-7.33418e-06
1.58684e-05
3.252e-05
-4.10532e-05
1.84395e-07
2.52181e-06
-2.7059e-06
-2.26974e-05
3.60256e-06
1.3947e-05
5.1461e-06
3.33924e-05
-1.79343e-05
-2.25898e-05
7.13193e-06
3.28374e-05
-8.18611e-06
-3.61692e-06
-2.10344e-05
-2.88845e-05
-8.34456e-07
-8.5908e-07
3.05779e-05
2.56979e-05
1.18059e-05
-3.56765e-05
-1.82749e-06
6.92764e-06
4.83142e-06
-1.1759e-05
1.79228e-06
-2.57211e-05
-2.04373e-07
2.41328e-05
4.072e-05
-3.13004e-05
-2.92045e-06
-6.49813e-06
4.70432e-06
-6.6636e-07
-3.76474e-06
-2.72504e-07
-3.22919e-05
4.57875e-05
1.9157e-05
-3.26521e-05
1.82415e-05
-2.93553e-05
-2.95222e-06
1.40667e-05
-2.45596e-05
2.66674e-05
-8.84585e-07
-1.22275e-06
-3.17413e-06
1.5696e-06
1.60516e-06
3.5702e-05
-3.93829e-06
9.99904e-06
-4.17616e-05
-2.65088e-05
3.58027e-05
-3.38533e-05
7.97009e-08
2.51132e-06
1.926e-05
-2.18509e-05
2.81458e-06
-2.71818e-06
-9.668e-08
-1.15938e-05
-6.49023e-06
1.11265e-06
1.69718e-05
-8.81084e-06
2.20215e-05
-1.68137e-05
3.60319e-06
1.64771e-06
-5.0599e-06
3.16436e-06
2.47541e-07
-2.00199e-06
-1.86717e-06
3.86977e-06
-2.3237e-05
2.31329e-05
2.31924e-05
-2.30878e-05
5.08739e-05
-1.28659e-05
-1.10588e-05
-2.69499e-05
1.35343e-05
5.92532e-07
-4.425e-07
-1.36852e-05
3.45501e-05
-4.21891e-05
5.83683e-06
1.80208e-06
3.2486e-06
-5.61661e-08
-3.19225e-06
-5.89944e-06
2.86058e-05
-2.74807e-05
4.77626e-06
-1.44513e-05
1.50804e-05
-1.67065e-06
1.04142e-06
-1.09215e-05
9.56114e-06
6.59596e-07
7.00656e-07
2.60132e-06
-2.05946e-05
7.42923e-06
1.05642e-05
-1.14401e-05
-1.07938e-05
2.63192e-05
-4.08507e-06
-1.54332e-05
1.51226e-05
2.77366e-07
3.32269e-08
-3.05792e-05
-3.57798e-05
3.58802e-05
-1.12728e-05
3.56488e-05
1.13321e-05
-3.57082e-05
5.88354e-06
3.06749e-05
6.7266e-06
-4.32853e-05
-1.39479e-05
6.16188e-06
1.88501e-05
-1.10643e-05
-1.83601e-08
7.56788e-08
1.11758e-05
-1.12334e-05
1.44517e-06
3.8316e-05
-5.64391e-06
-3.4117e-05
-4.10839e-06
-2.66564e-06
4.44575e-06
2.32813e-06
4.49508e-06
-4.24609e-06
-2.49437e-07
-3.70301e-06
-1.27641e-05
1.03394e-06
-2.88575e-05
4.44879e-07
-5.65173e-06
3.40646e-05
-1.55996e-05
1.4017e-05
4.33596e-07
1.14903e-06
-4.64821e-07
8.66198e-06
-1.37208e-07
-8.05956e-06
-3.04624e-06
2.97929e-06
6.55154e-08
3.20302e-06
-8.20645e-07
2.13935e-05
-2.3776e-05
2.93035e-05
3.28455e-06
-2.55127e-05
-7.07526e-06
-3.37381e-06
-1.56507e-05
-1.01895e-05
1.44092e-05
-1.5854e-05
1.05395e-06
3.92079e-07
7.46417e-06
-3.13285e-05
3.69638e-05
-1.30996e-05
1.15523e-05
2.40296e-06
-6.07761e-06
-7.87692e-06
-1.65359e-05
-3.84268e-05
9.67226e-06
4.52908e-05
5.02633e-08
2.74785e-06
-2.09956e-07
-2.59009e-06
1.02684e-05
-6.70188e-07
1.62139e-06
-1.12206e-05
-1.04419e-05
2.17144e-07
1.03172e-05
-9.30905e-08
2.28885e-05
3.87453e-06
-2.8823e-05
2.05988e-06
-3.09991e-05
-1.7701e-05
3.97462e-05
8.95392e-06
-7.23158e-06
3.07844e-06
-6.71284e-06
6.7302e-06
2.8141e-05
-3.62132e-05
1.34227e-06
-2.30571e-05
-2.33481e-05
9.44944e-06
3.69562e-05
-2.90364e-06
3.16922e-06
-2.65447e-07
1.80685e-05
1.03746e-05
-2.13586e-06
-2.63075e-05
-7.29681e-07
-4.40972e-06
-2.92381e-05
3.43783e-05
-2.15716e-05
5.48906e-06
5.25256e-05
-3.64432e-05
2.72433e-05
-2.03076e-05
-1.06257e-05
3.68835e-06
2.76006e-06
-9.50438e-08
-2.66462e-06
4.34786e-05
-2.15238e-05
2.99416e-06
-2.49486e-05
9.85631e-06
-1.06093e-05
1.33145e-06
-5.80098e-07
2.46065e-06
2.345e-06
-4.80573e-06
-1.65273e-05
-2.13423e-05
4.3137e-06
3.35552e-05
-1.19282e-05
2.29274e-07
1.23448e-05
-6.45547e-07
2.13809e-05
-4.40519e-05
5.30731e-07
2.21405e-05
-2.12264e-05
-2.61364e-05
3.4707e-05
1.2656e-05
-1.31201e-05
1.76432e-05
2.83141e-05
5.39684e-06
2.85175e-05
-2.98433e-05
-4.07018e-06
1.9701e-06
1.48474e-06
-1.3252e-05
9.79621e-06
-3.33976e-05
1.47406e-05
1.19314e-05
6.72575e-06
1.40502e-05
3.69093e-06
-1.60093e-06
-1.61415e-05
-3.38299e-06
-2.6268e-05
2.69036e-06
2.69605e-05
6.69572e-06
-2.55751e-06
2.67051e-05
-3.08433e-05
-2.15353e-06
-6.60676e-08
-5.39046e-06
7.61217e-06
7.01715e-07
1.06097e-05
-3.96551e-05
2.8344e-05
-1.4052e-05
-2.85381e-05
-1.07708e-06
4.3667e-05
3.72901e-07
5.28697e-06
-5.6597e-06
8.88243e-08
-2.02605e-07
1.15706e-05
-1.14567e-05
2.64465e-06
1.65522e-05
1.43002e-05
-3.34969e-05
2.92801e-07
-1.51867e-05
1.34025e-07
1.47599e-05
4.19637e-06
-2.05642e-05
-1.56966e-05
3.20648e-05
1.51829e-05
1.87866e-05
-1.63557e-05
-1.7613e-05
3.22659e-05
1.92985e-05
-4.3376e-05
-8.18834e-06
1.34966e-07
-4.6228e-06
4.48749e-06
2.87768e-06
1.40535e-06
-6.86086e-09
-4.27629e-06
2.07317e-06
2.65256e-06
3.41776e-07
-5.06771e-06
2.65836e-06
-3.13864e-06
1.56029e-05
1.80004e-07
-2.9319e-05
1.09639e-05
1.81733e-05
5.75901e-05
6.01298e-06
-1.20713e-05
-5.15323e-05
-8.44719e-06
1.13863e-05
-2.7785e-06
-1.59308e-07
-1.64107e-05
1.56186e-05
-2.64621e-05
2.72547e-05
3.30365e-06
6.38126e-08
-3.36695e-06
1.2004e-06
8.87607e-06
-1.69588e-05
6.882e-06
3.29005e-06
-4.96256e-06
1.67214e-06
2.74554e-05
-1.4681e-05
-7.28944e-06
-1.68222e-05
6.11508e-06
-1.5586e-05
2.62932e-05
3.30167e-05
-3.21157e-05
5.08893e-06
-5.99002e-06
1.49324e-05
5.03688e-06
-1.785e-05
-2.11893e-06
3.20856e-06
-3.88416e-05
1.32659e-05
2.23679e-05
2.76694e-05
-5.67167e-06
4.66978e-06
4.93879e-05
-5.50888e-05
2.18533e-06
-3.23974e-05
2.52143e-06
3.34574e-05
-3.58173e-06
-2.91599e-05
-1.8753e-05
3.15026e-05
-1.20277e-05
-1.1883e-05
-1.64349e-05
4.03454e-05
-1.32058e-06
4.60141e-06
3.92942e-05
-4.25749e-05
1.47631e-06
2.85381e-05
-4.96686e-05
1.96539e-05
-1.09562e-07
6.8336e-08
1.86782e-05
-1.86352e-05
-4.16765e-05
7.03759e-06
3.20143e-06
3.14369e-05
1.26651e-05
-1.27355e-05
4.35899e-06
-4.2888e-06
7.84072e-07
1.16214e-05
-1.48064e-05
2.40138e-06
-2.34341e-05
3.55964e-05
-4.60567e-06
-7.55717e-06
-3.55664e-05
2.63045e-05
1.66742e-06
7.59329e-06
-2.83599e-05
2.82739e-05
3.70176e-05
-3.69319e-05
3.32809e-05
-2.71411e-05
1.1966e-06
-7.33618e-06
-1.35457e-05
1.7472e-05
-1.05253e-05
6.59957e-06
-7.76785e-06
1.79557e-05
1.53307e-06
-1.17231e-05
-3.70579e-05
3.0096e-06
4.05273e-05
-6.47911e-06
-4.6476e-06
-2.53778e-05
3.8927e-07
2.96304e-05
2.50343e-06
-8.66034e-06
6.94153e-06
9.87567e-06
8.14852e-07
-9.43315e-06
-1.25724e-06
9.98125e-06
1.88511e-05
-2.20131e-05
-6.8186e-06
-1.02896e-05
1.42121e-05
2.43175e-05
-2.82395e-05
9.41013e-07
4.38718e-06
-3.70358e-05
3.17061e-05
1.74039e-05
-2.64068e-05
8.73514e-06
2.66695e-07
-4.00346e-05
-6.43708e-06
1.09068e-05
-3.3512e-06
-8.85275e-07
-2.50446e-05
2.92802e-05
-3.42519e-06
4.48175e-08
3.3801e-06
-5.18713e-06
-6.64107e-06
4.29805e-05
-3.11525e-05
5.51756e-06
-5.24736e-06
-2.69663e-07
2.60978e-07
2.12626e-07
-9.92942e-06
9.45406e-06
-1.92107e-05
1.86075e-05
3.28693e-05
5.9014e-06
3.286e-05
-2.36027e-05
-1.51588e-05
4.6717e-06
-4.74069e-06
6.91622e-08
-4.48537e-06
5.00102e-05
-2.76915e-05
-1.78327e-05
-2.67808e-05
2.86914e-05
1.94705e-05
-2.18685e-06
2.50312e-05
1.12495e-05
-3.4094e-05
-3.34291e-05
-1.24187e-05
4.4593e-05
1.2548e-06
-4.95086e-06
4.49177e-06
4.58665e-07
3.26516e-05
-3.47859e-05
-3.92607e-07
2.52709e-06
-2.12775e-05
-1.33262e-05
1.91783e-05
1.54256e-05
-3.91601e-06
1.78808e-06
-2.21695e-05
2.42976e-05
-2.85476e-05
-7.58021e-06
7.33427e-07
3.53946e-05
-1.78609e-05
-8.95026e-06
-6.8476e-06
1.6126e-05
-3.68899e-05
-3.18906e-06
2.39557e-05
8.21541e-06
-3.42078e-05
-1.0427e-05
3.64196e-05
7.76053e-06
-7.38876e-06
-3.7183e-07
-2.89305e-05
4.85403e-05
-6.88185e-06
-1.27284e-05
-6.39566e-06
-2.68378e-05
3.03636e-05
2.86994e-06
-4.54024e-05
4.65308e-05
-5.36909e-06
4.24067e-06
-2.67956e-05
-6.68615e-06
1.91268e-05
1.43544e-05
-2.6767e-05
-5.73142e-06
3.25667e-05
-6.78667e-08
-3.67481e-07
1.02475e-07
-1.30893e-05
1.33537e-05
3.59122e-06
1.74144e-07
-3.76511e-06
-6.57954e-06
6.6449e-06
-6.52893e-08
4.32112e-05
-3.68258e-05
-5.01775e-05
4.37912e-05
3.06898e-06
1.21595e-07
-3.19067e-06
-2.97265e-05
2.92509e-05
-3.78755e-07
8.53963e-07
-1.09223e-05
9.24472e-06
2.20453e-07
1.45721e-06
4.85101e-06
5.00354e-05
-2.69833e-05
-2.7903e-05
-2.84774e-05
-8.89081e-06
3.53619e-06
3.38354e-05
3.35618e-05
1.50546e-05
-1.50852e-05
-3.35321e-05
1.33135e-05
-4.95817e-06
1.67481e-06
-1.00302e-05
3.71463e-05
-3.5157e-06
-2.68e-05
-6.82874e-06
-4.14324e-06
6.16226e-06
-6.81015e-06
4.79083e-06
-2.69669e-06
8.64902e-06
3.19904e-06
-9.15104e-06
-1.44383e-05
-7.37552e-06
4.06e-05
-1.87858e-05
6.4726e-06
2.50623e-05
-2.45384e-05
-6.99686e-06
-2.25465e-05
2.32413e-05
1.50004e-05
-1.56951e-05
2.35165e-05
-2.12838e-05
-2.85219e-06
6.19574e-07
-6.89508e-08
-1.14701e-05
-4.42792e-08
1.15815e-05
-7.34682e-06
1.38266e-05
-1.486e-06
-4.99372e-06
-3.30944e-05
-1.14164e-05
1.64702e-05
2.80403e-05
2.39555e-05
-2.02197e-05
-4.09916e-06
3.62671e-07
9.27472e-06
-3.17281e-05
-3.6308e-05
5.87619e-05
2.03461e-05
-2.6451e-05
-1.29227e-05
1.90275e-05
-6.23253e-06
-5.45535e-05
1.48083e-05
4.5978e-05
1.78149e-05
-1.58337e-05
2.39324e-06
-4.37448e-06
3.08946e-05
-1.10514e-05
-3.67554e-05
1.69115e-05
1.29766e-05
2.1985e-05
-5.07922e-05
1.58305e-05
-7.75975e-06
3.10691e-05
-2.73592e-05
4.05019e-06
-2.9314e-05
3.33776e-05
3.39238e-05
-3.79873e-05
-1.53134e-07
-1.43844e-05
1.25752e-05
1.96271e-06
4.2852e-06
-4.02429e-06
-2.61242e-07
3.80732e-05
-4.72002e-05
1.3673e-06
-4.24548e-06
5.74715e-06
2.99764e-06
-4.49965e-06
-3.09957e-06
1.35056e-07
-1.50672e-06
4.47181e-06
1.83455e-05
-2.43193e-06
1.81054e-05
-2.75382e-05
1.14552e-06
8.28701e-06
-9.24898e-06
-2.28808e-06
8.77905e-06
2.51138e-05
-3.28694e-05
1.86942e-05
-1.09385e-05
-2.78053e-05
-4.00072e-06
3.33649e-05
-1.55899e-06
-5.57386e-05
-8.50968e-06
4.93327e-05
1.4916e-05
-4.12854e-05
1.13132e-05
9.48155e-07
2.90243e-05
-4.29417e-06
3.45783e-07
8.87395e-07
3.06218e-06
-2.65246e-05
-3.19415e-05
2.44581e-05
3.40074e-05
1.91455e-05
1.66668e-05
-2.86786e-05
-7.13302e-06
1.69472e-07
1.47743e-05
-1.253e-05
-2.4128e-06
-3.3685e-07
-1.90317e-05
3.73524e-05
-1.79838e-05
3.92626e-05
-2.80667e-05
-1.49228e-05
2.82662e-05
-3.18292e-05
6.37528e-06
-2.81261e-06
-3.97577e-06
-2.61588e-05
2.83725e-05
1.76265e-06
4.02951e-05
-2.75557e-06
-4.15145e-05
2.34069e-05
-2.61458e-05
6.37833e-06
-3.63852e-06
1.82558e-06
-1.21299e-05
-1.00086e-06
1.13046e-05
-2.61543e-06
2.51747e-06
-3.02819e-06
3.12612e-06
-1.85546e-06
4.6341e-06
1.51789e-06
-4.29396e-06
-7.33653e-06
-1.94066e-05
-1.45107e-06
2.81943e-05
1.0944e-05
8.72883e-06
-2.97813e-05
1.01086e-05
-1.87083e-05
5.94157e-07
6.6973e-06
1.14168e-05
-1.75303e-06
-1.83935e-05
1.78672e-05
-2.32541e-05
2.7453e-05
8.67225e-06
-1.2873e-05
-3.36303e-05
3.89688e-05
-1.23728e-05
7.03448e-06
-5.91719e-06
-1.97115e-05
2.20979e-06
2.34189e-05
1.45546e-06
3.46038e-05
-4.04531e-05
4.39371e-06
1.73873e-05
-5.50755e-05
1.18418e-05
2.58482e-05
4.97403e-06
-3.80574e-05
2.08008e-05
1.22824e-05
1.57282e-06
2.08177e-05
-7.14368e-06
-1.52471e-05
-4.08288e-06
1.95995e-06
4.00373e-06
-1.88059e-06
-3.95792e-06
7.89398e-06
-2.92698e-05
2.53338e-05
-1.57233e-06
-1.1355e-05
3.00515e-07
1.26264e-05
1.66473e-07
1.1671e-05
-1.86888e-07
-1.16502e-05
1.76073e-07
2.55194e-07
1.18706e-05
-1.23056e-05
-9.32057e-06
-1.59138e-05
2.81695e-05
-2.93462e-06
3.3697e-06
-3.31165e-05
1.7844e-05
1.19022e-05
3.31138e-05
8.4237e-07
2.59924e-06
-3.65556e-05
2.7753e-06
-2.84205e-06
6.68089e-08
1.07389e-05
2.1713e-05
-2.7478e-05
-1.1462e-05
4.67565e-08
1.33926e-07
1.12823e-05
2.13705e-06
-2.74204e-05
9.95124e-06
1.53323e-05
9.0842e-07
7.54002e-06
-7.63341e-06
-8.15398e-07
-5.76164e-06
-1.22234e-05
2.33992e-05
-5.41454e-06
2.86503e-05
-3.14718e-05
2.70866e-05
-2.4264e-05
1.90718e-05
-8.7229e-06
-3.24823e-05
2.21333e-05
-2.00629e-06
-1.90421e-06
3.90943e-06
1.19404e-05
2.56301e-06
-3.45323e-06
-1.10503e-05
-2.48325e-05
3.71439e-05
2.97218e-06
2.50463e-06
-5.47607e-06
2.17911e-06
-3.09313e-05
-3.21254e-07
2.90735e-05
-2.17897e-07
5.98347e-07
2.13324e-05
-1.30588e-06
2.26254e-05
-4.478e-05
2.34596e-05
-7.24639e-06
-2.07856e-05
-2.95654e-06
3.09893e-05
5.75905e-06
-9.48877e-06
9.78186e-06
-6.05187e-06
-7.18959e-06
-3.50321e-05
-4.39085e-06
4.66126e-05
1.97567e-05
3.71951e-06
-2.27454e-05
-7.30899e-07
6.47127e-06
3.07035e-05
-5.08128e-05
1.36375e-05
-2.41634e-06
-1.42358e-05
-8.31238e-06
2.49645e-05
-1.93429e-05
-6.18167e-06
1.01442e-05
1.53814e-05
-1.12415e-06
-1.1647e-06
-1.32035e-05
1.54926e-05
3.91004e-05
-1.63027e-05
-9.46848e-06
-1.33292e-05
-2.42082e-05
5.89427e-05
-3.25569e-05
-2.17673e-06
1.14793e-05
2.95496e-07
3.06146e-07
-1.20817e-05
2.98945e-05
-3.57196e-05
3.56799e-05
-2.9855e-05
-5.36578e-06
1.68299e-05
-1.36093e-05
2.14439e-06
1.44628e-05
-5.28105e-05
2.09196e-06
3.62561e-05
9.7884e-06
4.68141e-05
-4.00794e-05
-1.65228e-05
6.54298e-06
-6.37003e-06
-1.04821e-05
1.03083e-05
-2.26482e-05
-1.37406e-05
4.02001e-05
-3.81026e-06
3.5448e-05
-2.86134e-05
-4.23208e-05
3.5486e-05
1.80644e-05
1.50642e-05
-9.44867e-06
-2.36788e-05
1.37817e-07
-1.54707e-05
9.29464e-08
3.99003e-06
-4.08429e-06
-3.46711e-06
3.35632e-06
1.11303e-07
2.61515e-05
-2.46393e-05
-2.26307e-05
2.1121e-05
-7.20649e-06
9.17418e-06
-2.61991e-05
2.42331e-05
3.8816e-05
-3.02959e-05
-6.33354e-06
-2.18653e-06
-4.88035e-06
1.20606e-06
3.18089e-06
-8.53175e-06
3.01342e-05
-8.18241e-06
-1.34203e-05
-4.25399e-05
1.0688e-06
1.46573e-05
2.68176e-05
1.48615e-05
-6.33562e-06
-1.45724e-05
6.04661e-06
8.26679e-06
3.72237e-05
-3.48954e-05
-1.0595e-05
-2.17582e-05
-4.35392e-06
4.13844e-05
-1.5272e-05
2.16765e-06
2.3966e-05
5.30365e-06
-3.14374e-05
8.12499e-06
2.62167e-05
-3.21741e-05
1.92834e-05
-1.42268e-05
-7.46353e-06
2.40633e-06
2.26408e-05
-2.89764e-05
1.28069e-05
-1.33946e-05
8.56121e-06
7.95061e-06
-3.11727e-06
9.61196e-06
1.12795e-05
2.2548e-05
-4.34396e-05
4.45502e-06
-2.74195e-05
-4.28424e-06
2.72501e-05
4.24276e-07
2.73921e-05
2.48837e-06
-3.03046e-05
1.27132e-05
2.40712e-05
-4.00905e-05
3.30628e-06
-5.64041e-05
4.68018e-05
-7.33639e-07
1.82437e-07
3.873e-05
-3.01148e-06
-3.59016e-05
-3.41356e-06
7.58906e-06
-1.03959e-05
6.22087e-06
-8.34664e-07
-3.65746e-06
2.49221e-07
4.24169e-06
-3.52112e-06
3.39447e-06
1.26451e-07
-4.94082e-06
-8.14646e-06
3.76868e-05
-2.45994e-05
-3.03033e-05
4.51851e-06
-1.33072e-05
3.90924e-05
4.37018e-05
-1.06238e-05
-1.41405e-05
-1.89377e-05
3.45473e-06
-3.20567e-05
1.15657e-05
1.70355e-05
3.54314e-06
-3.20866e-06
-1.23279e-06
8.99057e-07
-4.09444e-06
3.94387e-06
1.50275e-07
1.93123e-06
2.73258e-05
-4.8955e-06
-2.43618e-05
-5.39467e-06
2.63641e-05
-3.43346e-05
1.33652e-05
1.18106e-05
1.99771e-05
-4.60976e-05
1.431e-05
-2.02433e-06
2.58679e-05
1.90975e-05
-4.29409e-05
-4.16372e-05
2.22569e-05
2.42562e-05
-4.87607e-06
3.85471e-05
-3.93864e-05
7.83957e-06
-7.0009e-06
-3.15255e-05
-6.198e-07
-9.49184e-06
2.40997e-07
5.44855e-06
-5.6892e-06
3.00481e-05
4.04593e-06
-2.48246e-05
-9.26668e-06
-1.91397e-06
-2.77008e-06
1.31356e-05
-8.45182e-06
3.03512e-06
5.32363e-07
9.97501e-06
-1.35424e-05
-3.37024e-05
1.50212e-05
1.63336e-05
2.34794e-06
1.37562e-05
-2.18018e-05
-3.13024e-06
1.11789e-05
-2.47256e-05
5.65908e-06
4.05417e-05
-2.14753e-05
-3.22368e-06
-1.96387e-07
3.42011e-06
-1.47757e-05
3.76576e-05
2.65549e-05
-4.94365e-05
3.32192e-05
9.33899e-07
-5.27973e-05
1.86433e-05
-2.33677e-06
3.40898e-05
-2.9756e-06
-2.87774e-05
1.88393e-05
-1.46469e-05
1.13072e-05
-1.55044e-05
-1.31896e-06
-2.41771e-05
2.7193e-05
-1.69696e-06
-2.14169e-05
-3.36915e-06
-1.46233e-05
3.9408e-05
-7.98678e-06
-8.46492e-06
-1.47925e-05
3.12419e-05
-1.27122e-06
3.52291e-05
-3.80287e-06
-3.01554e-05
2.31285e-05
-2.29819e-05
6.17594e-07
-7.64157e-07
3.73484e-05
8.73706e-08
-2.58717e-05
-1.15637e-05
-8.62148e-06
-4.3535e-06
-2.46259e-05
3.7601e-05
-3.05018e-07
-3.22241e-06
3.52801e-06
-3.15229e-05
4.70107e-05
-3.61106e-06
-1.18768e-05
2.75289e-06
1.90359e-05
6.13558e-06
-2.79245e-05
-4.45525e-06
1.03252e-05
3.64934e-06
-9.51743e-06
-1.61087e-05
-4.0063e-06
1.67375e-05
3.37761e-06
2.0757e-05
1.46859e-05
-5.22771e-05
1.68343e-05
1.23414e-05
-9.5526e-06
3.09556e-05
-3.37445e-05
-2.46564e-06
2.00988e-05
1.66142e-06
-1.92944e-05
3.11311e-06
-3.06222e-06
-5.08187e-08
2.55223e-06
3.20222e-05
1.37535e-06
-3.59499e-05
2.86842e-05
-4.53003e-06
-2.75414e-05
3.38719e-06
-5.40391e-06
6.63966e-06
-3.07718e-05
2.95333e-05
-2.87273e-05
-4.44962e-06
2.23288e-05
1.08471e-05
1.09526e-05
-1.03691e-05
-9.69776e-08
-4.85587e-07
-4.23593e-05
2.74996e-05
-1.64388e-06
1.65043e-05
-4.85423e-06
4.09366e-06
7.60667e-07
1.36206e-05
-1.16614e-05
1.79668e-05
-1.99264e-05
1.95604e-05
1.64091e-05
-8.55319e-06
1.43171e-05
-3.87137e-05
-1.73727e-05
4.17696e-05
1.40854e-07
-1.58955e-05
1.59643e-05
-2.10147e-07
8.85072e-06
-1.44429e-05
-1.66712e-05
2.22619e-05
1.4266e-05
6.19198e-06
-2.37441e-06
-1.8084e-05
-4.36375e-06
1.03171e-06
5.55591e-06
-2.22362e-06
-4.48923e-06
5.55099e-05
-1.88486e-05
-3.21698e-05
1.51752e-05
1.74043e-05
-8.23838e-07
-3.17558e-05
1.44701e-07
3.11607e-06
-3.26061e-06
-1.0174e-06
5.45493e-06
3.23223e-05
-3.67601e-05
4.07827e-05
5.32875e-06
-1.98582e-05
-2.62534e-05
-1.10193e-06
5.79187e-06
-4.56652e-06
-1.23017e-07
1.39053e-05
-1.26243e-06
-1.51168e-05
2.47374e-06
-4.18683e-06
-1.32696e-05
6.79112e-06
1.06643e-05
-6.06053e-06
2.77104e-05
4.50472e-06
-2.61549e-05
2.99948e-05
-4.03132e-06
-3.25948e-05
6.6314e-06
-2.99652e-06
5.80123e-06
-2.80464e-06
2.6169e-06
-1.14648e-05
1.02348e-05
-1.3866e-06
6.97521e-07
1.09584e-05
-1.15652e-05
-9.04738e-08
1.09443e-05
1.27324e-05
-1.44946e-06
-2.22273e-05
2.09949e-05
2.85765e-05
-1.95772e-05
-1.38131e-07
4.07929e-06
-3.94053e-06
-4.03013e-05
1.99681e-05
3.75156e-05
-1.71821e-05
3.98071e-05
7.0058e-06
-4.1711e-05
-5.10232e-06
2.76014e-05
-1.84608e-05
-3.05567e-05
8.34054e-06
1.4328e-05
-3.45335e-05
-2.0078e-06
-7.451e-06
4.39921e-05
-1.04034e-07
4.02176e-06
-3.91662e-06
3.86074e-05
-1.50483e-06
-4.50367e-06
-3.25995e-05
4.23836e-06
-4.23615e-06
-2.08431e-09
-1.24312e-05
3.117e-06
-7.66111e-06
1.69755e-05
-2.16428e-05
-1.82069e-05
1.6387e-05
2.34627e-05
2.11552e-05
-1.6193e-05
-4.43183e-06
-5.31107e-07
-4.35288e-08
3.24041e-06
-3.1972e-06
-7.26161e-07
-4.233e-06
1.4503e-08
4.94472e-06
7.92312e-06
3.1445e-06
-5.55658e-06
-5.51116e-06
-1.22786e-05
1.32856e-05
-1.73329e-06
-2.74922e-07
4.2154e-05
-1.20866e-06
-4.06702e-05
-7.59517e-06
-7.56035e-07
9.9578e-06
-1.60588e-06
3.62113e-06
-1.43795e-05
1.13467e-05
-5.87714e-07
1.0783e-05
-2.02092e-05
1.44016e-05
-4.97533e-06
8.6512e-06
2.00491e-05
3.38624e-06
-3.2086e-05
5.80534e-06
-5.95895e-06
1.53541e-07
1.58886e-05
-1.29428e-05
-3.27025e-05
2.97571e-05
1.08744e-06
1.19006e-06
1.5972e-05
-1.82493e-05
4.23311e-06
1.86643e-05
-2.3793e-05
8.95618e-07
1.20944e-05
-5.42393e-07
-1.90983e-06
-9.64228e-06
1.06189e-05
2.21409e-05
-3.25855e-05
-1.74827e-07
1.46802e-05
-9.98296e-08
-1.26599e-06
-1.33143e-05
-2.60837e-05
9.46201e-06
1.30636e-06
1.53166e-05
-1.21267e-05
-1.1382e-05
-1.53439e-06
1.03454e-05
-1.81067e-05
1.36299e-05
-5.86819e-06
-4.35898e-06
-1.78517e-05
-2.68509e-05
4.90619e-05
-6.11152e-06
7.57397e-06
-1.7408e-06
2.78253e-07
4.5732e-08
2.69479e-06
-2.74077e-06
-7.76402e-06
4.02215e-05
1.21085e-05
-4.45635e-05
3.01423e-05
1.26257e-05
-1.11862e-05
-3.15827e-05
2.7759e-05
-2.33859e-05
2.70098e-05
-3.13824e-05
3.54233e-05
-3.90911e-05
4.39637e-06
-7.28661e-07
-5.60987e-05
2.44265e-05
1.04097e-05
2.12624e-05
-1.22394e-05
-1.5195e-06
1.34453e-05
3.13767e-07
3.39381e-05
-4.53127e-05
1.58657e-05
-4.49091e-06
1.10569e-05
-1.21235e-05
3.8494e-06
-2.78278e-06
-1.71153e-05
1.55353e-05
-1.0546e-05
-1.45298e-05
4.89202e-05
5.38755e-06
-3.97809e-05
-5.68092e-06
1.51986e-07
5.52986e-06
-4.79769e-06
1.07287e-05
-3.99188e-05
-2.0697e-05
-3.54436e-07
2.02998e-07
2.08491e-05
4.8441e-06
1.15636e-07
-4.96088e-06
8.43606e-06
-5.31747e-07
-3.05454e-05
2.2641e-05
-5.85702e-08
-2.0985e-07
1.10784e-05
-1.08089e-05
8.45796e-06
1.81377e-05
-3.04254e-05
3.82985e-06
2.64349e-05
1.84461e-06
1.73185e-06
-3.001e-05
-2.75701e-06
6.33446e-06
3.94459e-05
-4.30237e-05
-9.14842e-06
-1.10805e-06
-3.81146e-07
1.06369e-05
-9.22782e-06
7.97309e-06
-3.18074e-05
3.30616e-05
-1.4439e-06
2.56564e-05
-2.23806e-05
-1.83193e-06
3.798e-05
1.16512e-05
-1.73291e-05
-3.2303e-05
8.28118e-06
-4.50229e-05
2.94081e-05
-3.80672e-05
4.86387e-05
-2.30503e-06
2.11091e-05
-8.26409e-06
1.72968e-05
-1.40583e-05
-3.47948e-06
6.82402e-06
1.07141e-05
-7.41365e-06
7.82528e-07
6.765e-06
-1.33182e-07
-1.22408e-05
3.06928e-05
-2.14997e-05
3.04898e-06
-3.36243e-05
2.98936e-05
3.18522e-05
-2.81217e-05
-3.4807e-06
3.19805e-06
1.81241e-07
1.01709e-07
3.35569e-05
-4.9158e-05
-1.83062e-05
3.39094e-05
-4.50339e-05
-1.79963e-05
3.0184e-05
3.28464e-05
4.06304e-05
4.28602e-06
2.08692e-06
-4.70028e-05
3.4775e-05
-2.33119e-05
2.91673e-05
-3.88578e-05
-3.72857e-06
1.52302e-05
2.73564e-05
3.38953e-06
2.84047e-07
-3.67364e-06
3.85358e-05
-3.56426e-05
-1.21148e-05
9.22142e-06
-2.08854e-05
-7.36994e-06
6.11665e-06
2.21385e-05
1.55788e-05
2.67794e-05
-1.5343e-05
-2.70151e-05
7.08313e-06
2.23625e-05
-2.17375e-05
-7.7098e-06
4.88042e-07
-6.70364e-06
6.2151e-06
-1.773e-05
-1.55877e-05
1.52393e-05
1.8079e-05
1.66395e-06
2.06545e-05
-4.83079e-06
-1.74879e-05
-3.48092e-05
3.4965e-05
-6.55229e-06
-2.98997e-06
3.84362e-05
-3.75029e-05
2.05679e-06
2.05188e-05
4.2141e-06
1.1193e-05
-3.59273e-05
-6.05322e-08
-2.34273e-06
2.40324e-06
-3.41344e-06
3.39403e-06
2.03057e-08
-2.53891e-05
-1.22209e-05
1.46892e-05
2.29205e-05
-3.24119e-05
-7.8446e-07
3.92591e-05
-6.06194e-06
-9.75237e-06
3.57908e-05
-3.70656e-05
1.10271e-05
-2.61083e-05
2.12995e-05
-9.50954e-06
1.43179e-05
3.73511e-07
2.12524e-05
-2.38189e-05
2.19318e-06
-3.61096e-05
8.08888e-06
2.3539e-05
4.48154e-06
2.27627e-06
4.72268e-05
-1.78568e-05
-3.16448e-05
2.30731e-06
-4.3136e-06
-2.31564e-05
-1.19461e-05
9.71334e-06
2.04191e-05
-1.32065e-06
3.46719e-06
-2.25655e-05
-2.0632e-06
-4.83519e-06
6.08562e-06
8.14197e-07
1.40578e-05
-4.26839e-06
-9.98773e-06
1.98976e-07
1.30231e-05
-4.40666e-05
4.22185e-05
-1.11748e-05
-1.69958e-05
2.99385e-05
4.31641e-06
-1.7259e-05
-3.57166e-06
4.22489e-06
2.82346e-05
-2.88871e-05
-3.83636e-05
2.84463e-06
3.82888e-07
3.51361e-05
-2.15513e-05
2.56752e-06
1.73174e-05
1.66613e-06
-2.59026e-05
1.60041e-05
3.6617e-05
-2.67196e-05
-1.45808e-05
-2.69388e-05
7.39894e-06
3.41187e-05
5.19605e-06
-4.13557e-05
-4.9062e-06
4.10656e-05
-3.1554e-05
4.20764e-06
-1.39027e-06
2.87368e-05
-3.2872e-05
-2.34618e-06
-2.26639e-06
3.74855e-05
7.28219e-06
-3.93981e-06
3.56135e-05
-3.89557e-05
7.33276e-06
-4.19511e-06
-1.75089e-08
-3.12021e-06
4.74937e-06
-4.9762e-05
-7.57959e-06
5.25927e-05
-4.22528e-06
2.67717e-06
2.16224e-06
-6.13842e-07
-2.87882e-05
-7.55508e-06
1.58096e-05
2.05337e-05
-1.49062e-06
1.44668e-05
2.73242e-06
-1.5708e-05
-1.31035e-05
-1.41932e-05
9.35372e-06
-6.17692e-06
2.47092e-06
3.19756e-05
-2.82701e-05
2.48035e-05
-3.39983e-05