/*--------------------------------*- C++ -*----------------------------------*\
| =========                 |                                                 |
| \\      /  F ield         | OpenFOAM: The Open Source CFD Toolbox           |
|  \\    /   O peration     | Version:  2406                                  |
|   \\  /    A nd           | Website:  www.openfoam.com                      |
|    \\/     M anipulation  |                                                 |
\*---------------------------------------------------------------------------*/
FoamFile
{
    version     2.0;
    format      ascii;
    arch        "LSB;label=32;scalar=64";
    class       volVectorField;
    location    "38";
    object      U;
}
// * * * * * * * * * * * * * * * * * * * * * * * * * * * * * * * * * * * * * //

dimensions      [0 1 -1 0 0 0 0];

internalField   nonuniform List<vector> 
59516
(
(0.106273 2.47765e-05 -0.000512472)
(0.0987493 -0.00013179 -0.000410783)
(0.11414 -0.00107506 -0.000305307)
(0.129482 0.00170787 0.00191351)
(0.113809 0.000219758 -0.00453351)
(0.101091 -0.00483391 -0.0107979)
(0.129324 -0.000386497 -0.00166668)
(0.103823 0.000858912 3.89697e-06)
(0.113398 0.000926193 9.72851e-05)
(0.0556841 -0.000976144 0.00218301)
(0.152858 -4.40442e-05 -0.00191837)
(0.0611244 0.000461058 -0.00350549)
(0.120446 0.00104717 -0.000124876)
(0.0202163 -8.62748e-05 -0.000221167)
(0.0619772 0.00150935 0.00322678)
(0.0527735 0.00362856 -0.00174494)
(0.165311 -0.000169659 -0.000390163)
(0.0702505 0.00395327 -0.00423693)
(0.114962 0.00541709 0.000862842)
(0.162137 -0.000313634 0.000551214)
(0.0545766 0.000751798 -0.00109828)
(0.148549 -0.000399172 0.000354184)
(0.154205 0.000319063 -0.000815295)
(0.0342807 -0.00104838 -0.00022624)
(0.158992 -0.000503876 0.00100377)
(0.0667635 0.00139191 0.000738049)
(0.0426128 0.000850872 -0.00280402)
(0.0446351 0.0036992 0.000280514)
(0.0663042 0.002429 -0.000299927)
(0.0179657 -0.00278948 0.000737731)
(0.10834 -0.0210249 -0.00462628)
(0.0458857 0.0035502 -0.000553677)
(0.133472 0.000134563 0.000875525)
(0.11313 -0.000746498 0.00235481)
(0.13901 0.00432019 0.00338071)
(0.146036 -9.35039e-05 -0.000155201)
(0.0172731 -0.00167507 -0.00241315)
(0.0701231 0.00267597 -0.00668538)
(0.0962433 -0.00336143 -0.000219877)
(0.156652 -0.0012217 -0.000359371)
(0.102604 -0.000710754 4.67889e-05)
(0.143804 -0.00796617 -0.00733656)
(0.148177 -0.00279727 -0.00220121)
(0.108979 -0.000745978 0.000371874)
(0.14331 -0.00346193 7.85601e-05)
(0.0559724 -0.000800083 -0.00134838)
(0.132958 -0.00232027 -0.00356032)
(0.161158 -0.00338111 -0.000487593)
(0.111872 -0.00903274 0.0124359)
(0.149929 0.005776 0.00482867)
(0.104047 0.0104755 -0.0145278)
(0.0448136 -0.00363268 0.00244321)
(0.120999 0.000924203 -0.002183)
(0.128414 -0.000459179 -2.35447e-05)
(0.0481583 0.0028175 3.82286e-05)
(0.130181 0.00189006 -0.000552169)
(0.14433 0.00791041 0.00832587)
(0.0483211 0.00397909 -0.00277347)
(0.166448 9.414e-05 -7.80053e-05)
(0.13495 0.0058833 0.00751819)
(0.148551 -0.000237499 0.000381241)
(0.0195366 0.00238148 -0.00083681)
(0.16061 0.000517839 -0.000201734)
(0.161923 0.00153282 0.000741682)
(0.124538 0.000325721 -0.000578039)
(0.146525 0.00294798 0.00401906)
(0.0266468 -0.00179429 0.00242666)
(0.0416894 0.000206902 -0.000193813)
(0.12145 -0.00505906 0.0222322)
(0.136336 0.00122674 -0.00174372)
(0.0376225 0.00106099 0.000311429)
(0.159776 0.000975814 0.000157779)
(0.0235068 0.00147588 -0.00360389)
(0.142599 8.51741e-05 0.000238567)
(0.171298 -0.000204199 1.63082e-05)
(0.156945 -0.00115445 -0.00144341)
(0.161868 -0.00133743 -0.00214111)
(0.147361 -1.95215e-05 -0.000327654)
(0.0466489 -0.00157878 0.00143229)
(0.150355 0.00279547 0.0066371)
(0.039114 0.00234537 0.0010494)
(0.14586 0.00352301 0.00502194)
(0.139296 0.0017017 0.00482087)
(0.0204716 -0.000797146 0.00284347)
(0.145823 0.00288031 0.00533526)
(0.168093 -0.0002155 0.000590991)
(0.0331236 -0.00119709 0.000527083)
(0.149877 0.000427451 0.000713979)
(0.0551998 0.000676195 0.00242524)
(0.107325 0.00830532 -0.00564512)
(0.131492 -0.000827059 -0.0112389)
(0.138078 0.0018277 -0.000176369)
(0.166152 -6.59041e-05 -0.0001175)
(0.136823 0.0012289 -0.000250942)
(0.156381 0.000409695 6.21543e-05)
(0.109956 -0.0105814 0.00399193)
(0.140127 -0.000592237 0.000817076)
(0.0542602 -0.00174163 -0.00420192)
(0.0650701 0.00229221 -0.000881248)
(0.147359 -0.000872775 0.00146803)
(0.0381253 0.000644048 0.0014164)
(0.0250154 0.00121999 -0.00285873)
(0.023696 0.000832713 0.0032727)
(0.0553372 -0.000827306 -0.00288105)
(0.135805 0.000616408 -0.000231197)
(0.145149 -3.41615e-05 0.000362352)
(0.0406763 0.00351445 -0.00145672)
(0.106748 0.000351094 -0.000663814)
(0.102556 -0.000725236 3.23294e-05)
(0.0670749 0.000419997 -0.00271865)
(0.124908 0.0128253 -0.0134502)
(0.0313493 0.00318909 -0.000421833)
(0.067866 0.000828801 -0.00409716)
(0.118043 0.0173027 -0.00869133)
(0.157362 -3.88862e-05 -0.000104539)
(0.102484 0.00108579 0.00103113)
(0.0549792 0.000549491 -0.00215317)
(0.133982 9.86962e-05 0.000817675)
(0.0224361 -0.000305262 0.00108598)
(0.146108 0.00142956 0.000390062)
(0.172147 -0.00045824 0.000337342)
(0.16248 5.58234e-06 0.000333738)
(0.156674 -0.000400349 0.000611778)
(0.161112 -0.000429048 0.000525873)
(0.132266 -0.0175239 0.00279172)
(0.0906128 0.0011594 -0.00266058)
(0.0304183 -0.000503198 0.00199007)
(0.138184 -0.0131585 -0.00092489)
(0.0898417 -0.00276092 0.0131255)
(0.169457 0.000548831 9.13935e-05)
(0.170527 0.000444969 0.00056651)
(0.114485 0.00159153 0.00187742)
(0.0238817 0.00139253 -0.00163608)
(0.148195 -8.28032e-05 0.00064372)
(0.103713 0.00109912 0.000286395)
(0.117989 -0.000826969 -0.00184329)
(0.107565 0.0127065 -0.00891496)
(0.131524 -0.0003139 0.000520148)
(0.0402752 0.00271205 0.000109939)
(0.10055 0.000412319 -0.00126673)
(0.0445788 -0.000905815 -0.00223175)
(0.171811 -0.000362617 0.000289608)
(0.0190552 0.000859145 0.00166643)
(0.126913 -0.00123001 -0.000395298)
(0.167434 0.000449015 0.000164273)
(0.141563 0.00145242 -9.50863e-06)
(0.140834 -0.00404962 -0.00120522)
(0.119521 0.000968246 -0.00228621)
(0.0621323 -0.00100648 0.00173219)
(0.108661 -0.00080178 -0.000844301)
(0.105664 -2.18575e-05 -0.000840279)
(0.0358124 -0.00131502 2.93966e-05)
(0.162818 -0.000855335 0.00106041)
(0.153075 -0.000450713 0.000618899)
(0.0914333 -0.000441589 0.00196628)
(0.0191764 -0.000399537 0.00207557)
(0.115303 9.66476e-06 -0.000142421)
(0.115885 0.00115083 -0.000237582)
(0.0845653 0.0011668 0.000111333)
(0.0197136 0.00237576 -0.00257087)
(0.0657589 0.00149717 -0.00336253)
(0.0677176 -0.0035821 -0.00234928)
(0.0354796 -0.00145212 0.00035956)
(0.0257126 -0.000221134 -0.000502814)
(0.10178 0.00178906 0.00236519)
(0.166578 0.000282435 0.00109954)
(0.0618814 -0.000694998 0.000322986)
(0.168461 0.000548191 -0.000106854)
(0.0200752 -0.00121879 0.00232294)
(0.135642 -0.00049692 0.000174932)
(0.0856185 0.00132894 0.00115701)
(0.0526459 0.000743798 -0.000797865)
(0.0648292 0.00158459 0.000896968)
(0.137342 -0.000647387 0.000647416)
(0.0506299 -0.00083413 0.000296839)
(0.135293 -0.00113561 -0.00436334)
(0.163636 -0.000146659 -0.00101717)
(0.149293 -0.00446182 -0.00264275)
(0.0677675 -0.00090001 0.0031574)
(0.0414273 -0.000153277 -0.00056553)
(0.145482 0.0018539 0.000790735)
(0.0336835 -0.00291378 -0.0012994)
(0.0291133 -0.000366113 -0.00231107)
(0.0650242 -0.00172373 0.000184173)
(0.168521 -0.000136121 0.000541843)
(0.0591825 0.000315411 0.000692236)
(0.0355254 -0.000632056 -0.00274836)
(0.0231659 2.9525e-05 0.000298765)
(0.123177 0.000103534 1.01468e-05)
(0.101821 -0.00176946 -0.000168126)
(0.135164 -0.000728236 0.00278046)
(0.0522014 0.0031443 6.59273e-05)
(0.160092 -0.000503464 -0.000203204)
(0.0574568 0.00231033 3.02331e-05)
(0.153754 -0.00020621 -0.000161464)
(0.0295547 -0.000248477 0.000817234)
(0.0573909 0.000747557 -0.000193328)
(0.040906 -0.00108742 0.000289507)
(0.111413 0.00279736 0.00369487)
(0.152501 0.000622913 -0.00025493)
(0.0818626 -0.00275757 0.000374015)
(0.171068 -0.000560641 0.000313954)
(0.104348 -0.00068064 0.000904891)
(0.0196635 0.00212143 -0.00140726)
(0.129428 -0.00139272 -0.000488805)
(0.144729 8.98201e-05 0.000172096)
(0.17057 2.82946e-05 5.58564e-05)
(0.150379 -0.000934601 -8.84748e-05)
(0.0230518 -0.000680575 0.000212727)
(0.115439 -0.00190582 -1.66314e-05)
(0.0506277 0.00358491 0.00307355)
(0.0239286 -0.00389515 -0.000625285)
(0.14406 0.000393922 -0.0013787)
(0.0562169 -0.00108807 0.000746316)
(0.117579 0.00129519 0.000176568)
(0.165124 -0.000352822 4.82566e-05)
(0.139909 0.000929269 0.000185736)
(0.155787 -0.00118072 0.000487985)
(0.0546399 0.00220822 -0.00283394)
(0.155247 -0.000367812 0.00073966)
(0.0558513 0.0022022 0.00179117)
(0.105743 0.000460292 -7.18981e-05)
(0.159516 0.000746841 0.000990001)
(0.0401507 -0.000186958 0.000729522)
(0.162464 -0.000762388 0.000221263)
(0.164232 -0.000163884 -0.000774412)
(0.0282484 -0.000288422 0.00144034)
(0.047168 0.0015072 -0.00220838)
(0.163755 0.000274468 0.000814609)
(0.0545983 0.000185191 -0.00399281)
(0.166168 -0.000667132 0.000357025)
(0.165015 0.000405097 -0.000431761)
(0.169178 0.000562735 0.000948429)
(0.0251498 -0.00198288 -0.00140331)
(0.0328875 0.000870449 -0.00158084)
(0.0344745 0.000842869 -0.00120206)
(0.063843 0.00034702 0.000391781)
(0.0981292 -0.00131913 0.000650541)
(0.153665 0.000913879 0.00121571)
(0.0573997 -0.00121922 0.00142512)
(0.170785 -0.000110846 0.000677406)
(0.0206819 0.000366817 0.00305232)
(0.054507 4.1317e-05 0.00090159)
(0.0251214 0.000193892 0.00275687)
(0.169348 0.000687739 0.000311897)
(0.0941821 -0.000493469 -0.000412847)
(0.144824 0.000165711 0.000785129)
(0.0657398 0.00067656 -0.0014359)
(0.164316 -6.71668e-05 0.000150438)
(0.106003 0.000233632 0.000397942)
(0.161747 -0.00118292 0.000317059)
(0.140533 0.000126081 0.000660751)
(0.17084 0.00022195 0.000701249)
(0.144059 0.000324488 -0.000397459)
(0.14617 0.00123616 0.000744713)
(0.155229 0.000284102 0.00055768)
(0.0557836 0.000125877 -0.000241295)
(0.151848 0.000779877 0.00141728)
(0.042369 -0.000346289 -0.00232636)
(0.060592 0.000463811 0.00213193)
(0.131349 0.000835893 -0.00090048)
(0.158271 -0.000580196 0.000746509)
(0.116499 0.00270283 0.00151058)
(0.167521 -0.000101175 0.000722657)
(0.10048 -8.48453e-05 0.00219078)
(0.0582135 0.002357 -0.00150638)
(0.156783 -4.58322e-05 -0.00090753)
(0.0940235 0.00182205 0.000553961)
(0.0469431 -0.000770197 -0.000647186)
(0.0521557 0.000104079 -0.00141967)
(0.0980418 0.000544414 -0.00280521)
(0.16442 -0.000713651 -0.000265855)
(0.0998395 -0.00226013 7.48951e-05)
(0.0944313 -0.00122723 0.000892217)
(0.160505 -0.00116705 -3.50015e-05)
(0.0944166 -0.000589374 0.00261655)
(0.0215666 0.00254522 -0.0014648)
(0.15888 -4.07295e-05 0.00107605)
(0.0259851 0.00165733 -0.00217421)
(0.0408621 -0.00166934 0.00109589)
(0.168388 0.000255962 0.00101362)
(0.139989 -0.000354956 -0.000280051)
(0.0254658 0.00276296 0.00273351)
(0.122448 0.000958154 0.000402865)
(0.126358 0.00233605 9.8956e-05)
(0.163017 0.000292258 0.000661179)
(0.168899 -0.000600682 1.76257e-06)
(0.0246098 0.00290466 0.00058529)
(0.167996 9.54329e-05 0.000672963)
(0.169593 -0.00107853 0.000188269)
(0.164689 2.01051e-05 0.000977503)
(0.135738 0.000183925 0.000876552)
(0.136958 0.0014094 0.000959129)
(0.0969545 0.000453076 -0.000349963)
(0.166477 0.001182 0.000209588)
(0.0286076 -0.00102036 -0.00131921)
(0.155813 -0.00121159 0.000494417)
(0.140215 -0.000960827 -0.000550712)
(0.170109 -0.00069974 0.000618703)
(0.161353 -0.000582813 0.000549386)
(0.118026 -0.000714207 0.000590333)
(0.0601956 0.000948674 0.00132222)
(0.023372 -0.000346944 0.00162834)
(0.029126 -0.000692324 0.000488299)
(0.161872 -0.00125801 -0.000569406)
(0.0210091 -0.00119708 0.00305992)
(0.0644052 -0.000314078 -0.00108356)
(0.0528878 0.00287373 0.00119847)
(0.16253 -0.000211255 0.000810777)
(0.167705 -0.000165068 -0.000489263)
(0.153346 -0.000209863 -0.000380742)
(0.0598295 -0.000129447 -0.00128928)
(0.104637 0.00140301 -0.00210519)
(0.0408924 -0.00335196 0.0027579)
(0.0552979 0.00114855 0.0013609)
(0.153751 0.000192442 4.6505e-05)
(0.100077 0.00119396 -0.000906867)
(0.107737 0.0123931 0.00352955)
(0.0914693 -0.00191871 0.000951986)
(0.043782 -0.000228231 -0.000469465)
(0.0652272 -0.000946571 0.00193419)
(0.109555 -0.000762633 -0.00163349)
(0.167712 -1.42733e-05 -8.37422e-05)
(0.171355 -0.000301755 0.000522623)
(0.170984 -0.000239818 0.00102143)
(0.159376 -0.00128212 0.000300023)
(0.0972937 0.00348493 0.00452108)
(0.127919 0.000987231 0.000707394)
(0.160402 0.00160299 0.000702001)
(0.157911 -0.000519342 1.47294e-05)
(0.160002 -0.000494508 0.000894918)
(0.0576047 0.00128549 -0.00318444)
(0.0228174 -0.00142695 -0.00271539)
(0.149364 -0.000916712 0.000298185)
(0.0405964 -0.00188955 0.00219896)
(0.0326122 0.000178593 8.62691e-05)
(0.157424 0.000495117 0.00149969)
(0.145988 -0.00056376 0.000475701)
(0.0603136 -0.00142307 -0.00282032)
(0.165445 -0.0010476 0.000563017)
(0.162733 -0.00148147 0.0003772)
(0.170464 -0.000879976 -0.000537673)
(0.166736 -0.000729241 -0.000384932)
(0.0332796 0.00155928 3.05995e-05)
(0.157727 0.00018382 -0.00014587)
(0.167028 -0.00115927 0.000929518)
(0.058768 9.44541e-06 0.000772429)
(0.169055 -6.79308e-05 0.00133185)
(0.166118 -0.000376651 0.000454955)
(0.132551 7.91491e-05 -0.000899423)
(0.123955 0.000107377 -0.000876675)
(0.149908 -0.000799894 0.00119459)
(0.143275 -0.00130021 0.000559461)
(0.0710337 -0.00034816 -0.000207226)
(0.0323504 0.00133536 -0.00104706)
(0.0355332 -0.00254479 -0.000203658)
(0.0967234 0.000494943 7.214e-05)
(0.0862903 -0.00674289 0.0105832)
(0.0746269 -0.00420674 -0.0060684)
(0.085196 0.000342942 0.000320563)
(0.116294 0.000102911 0.00194207)
(0.132386 0.000218285 0.000541949)
(0.157166 -0.000933008 0.0036109)
(0.156054 -4.61691e-05 0.000769495)
(0.132911 -0.000609428 -0.000161027)
(0.148059 0.000233076 0.000558702)
(0.148086 0.00104143 0.000421038)
(0.032147 -0.000954579 -0.000337239)
(0.113892 -0.0224376 0.00277534)
(0.0594757 0.00157165 0.00055236)
(0.0421435 -0.00192629 -0.000453203)
(0.0423761 0.000865912 0.000306452)
(0.158498 -0.000279031 -0.000274686)
(0.09563 -0.000442864 2.53799e-05)
(0.158337 0.000544152 -0.000913743)
(0.0204443 0.00113843 -0.00173442)
(0.127829 -0.000405555 0.000196129)
(0.0455457 0.0010895 -0.000872604)
(0.160954 -0.000555385 -0.000122749)
(0.048996 -0.000613586 -0.000470152)
(0.0630352 -0.00148005 0.00125597)
(0.108373 -0.00261523 0.000831007)
(0.150936 -0.000800725 0.00128882)
(0.0201647 0.0016675 -0.00215897)
(0.0553947 -0.00058231 0.00242541)
(0.133955 -6.7587e-05 0.000603939)
(0.0238653 -0.00148768 -0.00184262)
(0.130723 0.00125379 0.00877982)
(0.117653 -0.000700151 0.00250114)
(0.132794 -0.000117716 -0.00199379)
(0.0961946 0.00211208 -0.00272845)
(0.0899807 -0.00105298 0.00194098)
(0.159338 0.00103677 -5.20972e-05)
(0.0772391 -0.00785389 -0.00715758)
(0.171268 0.000887827 0.000219992)
(0.111355 0.008514 0.0089956)
(0.0606472 -0.00263281 0.000350294)
(0.0636211 -0.000384555 -0.00151339)
(0.170226 0.000825558 0.000233148)
(0.170922 0.00109886 0.000399054)
(0.0537053 -0.00051454 0.000611346)
(0.135125 0.00062821 -0.000567587)
(0.0998494 -0.00054036 -0.00230306)
(0.169541 -0.000273339 0.000697972)
(0.16905 -0.00025655 0.00106068)
(0.0466055 0.00133754 -0.00346605)
(0.133535 -0.000949108 -1.221e-05)
(0.145281 -0.00165426 0.00147284)
(0.14789 0.000542527 -0.000211119)
(0.155341 0.000514023 0.000523767)
(0.0219931 -0.000759338 -0.0028124)
(0.021434 0.00110924 -0.00269154)
(0.127442 0.00106096 -0.00157272)
(0.167485 0.000121214 4.89814e-06)
(0.170281 -0.00152186 -0.000678077)
(0.0354195 0.000377824 -0.00253526)
(0.162555 -0.00136887 0.000573224)
(0.108532 -0.0010009 -0.000490659)
(0.165275 4.83966e-05 0.000855193)
(0.168668 0.00103394 0.000438287)
(0.170735 0.000885959 -0.00027224)
(0.166591 0.000911452 0.000566701)
(0.166324 0.00157896 0.000574639)
(0.0908299 0.00057523 0.000336339)
(0.168975 0.00121089 -1.63369e-05)
(0.0572698 -0.00114963 -0.00287132)
(0.162008 0.00020896 -0.000340278)
(0.111052 -0.000377767 -0.00111972)
(0.151323 0.0008267 0.000744798)
(0.16683 0.000308506 -0.000186116)
(0.14911 -0.000311619 0.000132342)
(0.144097 0.000561412 -0.000944784)
(0.0413464 0.00235043 0.0021805)
(0.0345899 0.000825714 0.000284347)
(0.0218145 0.00187064 -0.00217283)
(0.151813 0.00383994 0.00683287)
(0.175219 7.16524e-05 -7.28766e-05)
(0.138931 -0.000848058 0.000619478)
(0.127778 0.00119734 0.000317867)
(0.0314666 -7.1489e-05 0.00114174)
(0.0242349 -0.000428913 0.00277949)
(0.115952 -0.000394212 0.00175474)
(0.150232 -0.000352284 0.00141586)
(0.1672 -0.000449445 0.000740687)
(0.153487 0.000596253 -3.85886e-05)
(0.136442 -0.00092459 -0.00104316)
(0.172981 0.00073741 4.96622e-05)
(0.135189 0.0009031 0.000713869)
(0.0270307 -0.000598747 0.00254327)
(0.123872 -0.000329109 0.000529882)
(0.0587561 0.000578894 0.00299645)
(0.0704909 -0.00703358 0.00150704)
(0.151564 0.000234572 0.000129973)
(0.0951534 0.000375317 0.000100236)
(0.145788 1.55313e-05 -8.58946e-06)
(0.0211674 -0.00393771 -0.00144484)
(0.170606 0.00126938 -0.000166656)
(0.169968 5.36058e-05 -0.000232575)
(0.16806 0.00107421 0.000405146)
(0.0931945 0.000955517 0.000142291)
(0.15141 -0.000221677 0.0012194)
(0.165308 0.000332816 0.00101073)
(0.122242 0.000390628 8.48403e-05)
(0.1695 0.00118608 0.000227344)
(0.09871 0.00374823 -0.00292106)
(0.165113 0.000612886 -0.000196173)
(0.14835 -0.00236768 -0.00061239)
(0.0209358 -0.00136387 0.00147682)
(0.169293 -0.00046923 -0.000444378)
(0.117661 0.00205414 -3.02732e-05)
(0.0467419 -0.00133259 0.00379247)
(0.0925665 0.00066939 -0.00153678)
(0.16233 -0.000163289 -0.000468201)
(0.130173 -0.000318102 0.000751145)
(0.0862559 0.000232166 -0.00246806)
(0.0207806 -0.00190883 -0.00209858)
(0.167565 -0.000759907 -0.000441073)
(0.125723 0.00171028 -0.00175297)
(0.158052 -0.00041776 -0.000327467)
(0.125294 3.97493e-05 0.000724576)
(0.0373306 0.00169221 0.00170817)
(0.140796 -7.24388e-06 -0.000518755)
(0.0261279 0.00211682 -0.00331146)
(0.158924 0.000205431 -0.000575839)
(0.10228 0.0114022 -0.00365429)
(0.162707 -0.000668841 -0.000598311)
(0.0525094 -4.53338e-05 0.0018214)
(0.107727 -0.00127747 -0.00156707)
(0.0964628 0.000335838 -0.00129738)
(0.0352925 0.00206599 0.0017449)
(0.169387 0.000245293 0.00058714)
(0.163279 0.000314997 0.000799086)
(0.0223898 0.000792776 0.0021787)
(0.157399 -0.000949586 0.000293379)
(0.169698 -0.000500632 0.00069371)
(0.0376259 -8.42299e-05 -0.00216885)
(0.0622663 0.00269944 -1.43747e-05)
(0.0541511 0.00196932 0.0014479)
(0.151896 0.00073973 0.000653149)
(0.167933 9.37346e-05 0.000301904)
(0.0326719 -0.000835954 0.00150262)
(0.0545413 -0.00182459 -0.000610029)
(0.0571337 0.00111471 -4.26959e-05)
(0.116079 0.00140002 0.000269093)
(0.168705 8.8057e-05 0.000408246)
(0.0234504 0.00123979 -0.00309743)
(0.157497 -0.000820637 0.000876796)
(0.151023 0.00219784 0.000100869)
(0.16864 -7.31342e-06 0.00117348)
(0.0900994 0.00386515 -0.00372598)
(0.164415 0.00111939 0.000300588)
(0.022997 -0.000233594 -0.00249217)
(0.160967 -0.000486765 -0.000202252)
(0.0275855 -0.000459739 -5.93372e-05)
(0.059824 -0.00178476 0.000475305)
(0.153357 -0.00103223 0.000154923)
(0.0611035 -0.00177853 -0.000602846)
(0.0209129 0.00240149 0.00217012)
(0.0372856 0.000683729 -0.00116589)
(0.0458544 -0.00236559 0.00153064)
(0.0592378 0.00113785 -0.00162768)
(0.146485 -0.000143027 -0.000760464)
(0.0504732 -0.00114441 -2.85341e-06)
(0.0595359 0.00195256 -0.00112587)
(0.128163 -0.00702209 -0.0136035)
(0.162636 0.000406085 0.000808921)
(0.0242742 0.00154238 0.000275492)
(0.107737 0.000133747 -0.00104486)
(0.0813405 0.00881303 -0.00346296)
(0.164712 -0.0013535 -0.000117792)
(0.0588106 -0.000195882 -0.00133532)
(0.159813 0.000623247 0.00111258)
(0.0577879 -0.00236877 -0.00162446)
(0.123546 0.000459604 0.00069518)
(0.168077 0.000529335 -0.00055275)
(0.0515389 0.0023715 -0.00459534)
(0.168265 -2.49824e-05 9.42934e-05)
(0.0476706 0.00216288 0.00243051)
(0.0194536 0.00296722 0.0011048)
(0.144846 0.000757791 -0.000142744)
(0.168235 0.00048118 0.000209301)
(0.130407 0.000932332 -0.000361776)
(0.125857 0.00163388 -0.000616598)
(0.168858 -0.00140428 0.000382374)
(0.0612034 0.0016439 -0.000177853)
(0.162515 -0.00138477 0.000456252)
(0.0574369 -0.00176993 0.00249442)
(0.167031 0.000614309 1.49027e-05)
(0.126876 -0.00150341 -0.0012779)
(0.028239 0.000695332 -0.00393418)
(0.152633 0.000301639 -0.000764898)
(0.0524638 0.000106792 0.00167682)
(0.0263358 -0.0018963 -0.00183435)
(0.148875 -0.000723365 -0.000268075)
(0.0434389 -0.00120051 0.00108151)
(0.13779 0.000496053 0.000133926)
(0.167185 0.000133481 0.000887111)
(0.13116 0.000682405 0.000490395)
(0.0537923 -0.00241316 -0.00257511)
(0.170758 0.00163302 0.000274104)
(0.0908683 -0.00132771 0.00110299)
(0.174568 0.000417269 0.000343898)
(0.171152 5.56895e-05 0.000240898)
(0.171025 0.000868005 0.000701878)
(0.167991 0.000403982 4.95123e-05)
(0.0442465 -0.00241175 -0.00203201)
(0.0517918 0.000220808 -0.000520035)
(0.168909 0.000120808 3.66665e-06)
(0.159189 0.000807527 0.00147328)
(0.0320334 -0.00218799 -0.00106603)
(0.157695 5.91684e-05 0.000327668)
(0.172103 0.000138894 0.000305933)
(0.168842 -0.00122232 -0.000290144)
(0.170954 -0.00145716 -0.000226704)
(0.117145 -0.000265055 -0.00141165)
(0.0216321 0.00215916 0.00188845)
(0.170338 0.00066834 -9.89218e-05)
(0.100885 -0.000943289 -0.00136526)
(0.149012 0.000100324 0.000497183)
(0.0963029 0.000146429 -1.7579e-06)
(0.0293775 0.00210171 -0.000154975)
(0.168494 0.00058191 0.000523538)
(0.0921675 0.00221629 0.00220729)
(0.133609 -0.000366192 0.000229655)
(0.17141 -0.0013644 2.2253e-05)
(0.14081 -0.00156144 -0.000491948)
(0.0174478 0.00154115 -0.00205353)
(0.0222098 -0.00132926 -0.00217458)
(0.165942 -0.000695581 0.000144482)
(0.161367 -0.00085126 -0.000140794)
(0.17133 0.00119319 0.000912684)
(0.149587 -3.03986e-05 0.00113279)
(0.0923963 -0.00136418 0.000561758)
(0.148572 -0.00108065 -0.00049918)
(0.167149 0.000101943 0.000479626)
(0.0202953 0.00176428 0.000397341)
(0.166852 -0.000678644 0.000446535)
(0.134903 -0.0146391 -0.000285387)
(0.0375576 -0.000619826 0.00193717)
(0.0545868 -0.00346885 0.000900827)
(0.144305 -0.000507683 -0.000904819)
(0.141022 -0.00175691 0.000881076)
(0.13771 0.000646583 -0.000116014)
(0.124889 -0.000760428 0.00059941)
(0.1058 -0.00362359 0.00111127)
(0.170768 0.000240967 -0.000231338)
(0.0982984 0.00105137 -0.00280005)
(0.168932 0.00124801 -2.12795e-05)
(0.164665 0.000515442 -0.000117723)
(0.173649 -0.00116122 0.000319591)
(0.165792 -0.00123853 0.000215992)
(0.0401904 -0.000397185 0.00193074)
(0.160048 -0.00107085 0.000307945)
(0.0325472 0.000959471 -0.00133191)
(0.0944291 -0.0091933 0.00541932)
(0.0602042 0.00187064 0.00145009)
(0.127216 -0.00249604 -0.0128681)
(0.131139 -0.000778866 -0.000542826)
(0.117454 -0.018987 -0.00419272)
(0.163271 0.000103835 -0.000436525)
(0.169459 -0.000216799 -0.00013534)
(0.152293 0.000452614 -0.000191361)
(0.163816 -0.000221622 0.00110187)
(0.0336977 0.000214763 -0.000555493)
(0.100941 -0.00381077 -0.00255179)
(0.112479 -0.00210457 -0.016025)
(0.16678 0.000321495 4.53549e-05)
(0.113333 -0.00241178 -0.000527399)
(0.136793 -0.0130616 -0.00451174)
(0.155439 -0.00292497 0.00400245)
(0.11179 0.000939541 0.000758366)
(0.0349638 -0.000723029 0.00122229)
(0.0537805 -0.0026217 0.00150799)
(0.0241859 0.000138695 -0.000243595)
(0.0231698 0.000163943 -0.0017828)
(0.0341837 -9.85528e-05 0.000196777)
(0.133727 -0.00872719 0.00527967)
(0.138453 -0.000239137 0.000803203)
(0.0235057 -0.000792628 0.00324733)
(0.0222557 0.00157639 0.00246675)
(0.170778 0.000456237 4.13509e-05)
(0.0961436 -0.0126019 0.00855757)
(0.0368593 0.00159165 0.000637612)
(0.14722 0.000239698 -0.000285176)
(0.106393 -0.000950379 -0.00159101)
(0.134932 0.000127572 0.00120979)
(0.0413795 0.00212332 -0.00118724)
(0.0536018 0.00165357 -0.000609079)
(0.112274 -0.00116849 0.000123825)
(0.163482 0.000182489 -0.000526499)
(0.150772 0.000262015 -0.000779816)
(0.0353482 0.00286746 -0.000988465)
(0.0235853 -0.00185266 0.00115039)
(0.106235 -0.0151855 -0.0112613)
(0.0251986 -0.00328764 8.11996e-05)
(0.134689 -0.000927469 -0.00114184)
(0.0268705 0.00149043 -0.00335641)
(0.105261 -0.000427995 0.00223293)
(0.166903 -0.000651714 -0.000185309)
(0.17038 -0.000560778 0.00111291)
(0.0432422 0.0006384 -0.000896868)
(0.0987177 -0.000346607 -0.00098186)
(0.0345591 0.00127872 -0.00137361)
(0.0273261 0.00321696 -0.00120466)
(0.167232 -0.000123627 -0.000778225)
(0.0188326 -0.00158976 -0.00242834)
(0.159727 -0.00106606 -0.000618312)
(0.0471568 0.000941666 -0.00219694)
(0.153409 -0.000970315 -0.000202816)
(0.141521 -0.000428444 -0.000135458)
(0.0214176 -0.000579509 0.00339426)
(0.0560562 -0.00270423 0.000170155)
(0.14765 0.000326193 0.000488845)
(0.033443 -0.00158237 7.45284e-05)
(0.155386 -0.000660709 -0.000538347)
(0.0531157 -0.00206504 0.00329653)
(0.109253 0.000288394 -5.39054e-05)
(0.169547 -0.000694697 -0.000717337)
(0.0355546 0.00105195 0.000819511)
(0.023019 0.000989753 -0.00301684)
(0.0496996 0.000918491 -0.000424879)
(0.110785 0.0174075 0.00375188)
(0.105364 0.000377416 0.000382623)
(0.0550812 -0.00241361 0.00267674)
(0.0854271 0.000328574 0.00133329)
(0.0300122 -0.00116771 0.000745181)
(0.169926 -0.000661797 -0.000904059)
(0.0227616 -0.000370284 -0.00161859)
(0.165049 -0.00106548 -0.000263627)
(0.145245 -0.000387931 0.000319489)
(0.162051 -0.000221337 8.11755e-05)
(0.0189549 0.0019215 9.36319e-05)
(0.15004 -0.000632802 0.000554625)
(0.0827634 0.000561012 -4.35703e-05)
(0.155149 0.000414999 0.000123119)
(0.0535586 -0.000440949 -0.000211049)
(0.108149 -0.0130351 0.0067067)
(0.158239 -0.00160598 -0.000256117)
(0.0390471 0.000554444 -0.00041455)
(0.171969 0.00080044 0.000237085)
(0.108861 0.00200948 -0.0205019)
(0.118225 0.000296602 -0.000703931)
(0.0320522 0.000818222 -0.00173612)
(0.0498733 -0.000460466 -0.00252201)
(0.16872 -0.000109111 -0.000120944)
(0.132699 0.00134023 5.66577e-05)
(0.0315629 0.00148132 0.000598493)
(0.11039 0.00122355 -0.00151813)
(0.0595206 -0.000669482 -0.00187929)
(0.024035 -0.00210698 0.0013799)
(0.167961 7.23013e-05 -0.000373361)
(0.103338 -0.00129797 0.0100707)
(0.131909 0.00149114 -0.00199117)
(0.16502 -0.000260991 -3.88241e-05)
(0.166695 -6.45655e-05 0.000523183)
(0.162184 -0.000559154 -0.000302141)
(0.133219 0.000735476 0.000221589)
(0.042665 0.00114252 0.000363487)
(0.0389665 -0.00190584 -0.00188163)
(0.170592 0.00108038 0.000377171)
(0.107573 -0.00941707 0.00875928)
(0.122701 -0.00125024 0.000575295)
(0.129611 -0.00146274 0.000605066)
(0.0813292 0.00181307 0.000908557)
(0.146995 -0.000182117 0.000940025)
(0.158926 -3.07028e-06 -0.000877292)
(0.0997219 -0.000451212 -0.00132205)
(0.105132 0.00194224 0.000246222)
(0.036903 0.000295142 -0.00230572)
(0.0713613 0.000613316 -0.00046962)
(0.0427305 -0.00114106 -0.0031884)
(0.149904 -0.000514466 0.000977183)
(0.166531 -0.000206912 -2.92555e-05)
(0.0948143 0.0015362 -0.00231448)
(0.0987793 0.000811103 -0.000498182)
(0.0205299 0.00215565 -0.000431064)
(0.079419 -0.000374073 -0.000585362)
(0.0575795 -0.00199816 -0.00248389)
(0.166767 -0.0002419 -0.0010786)
(0.167555 -0.00125467 -0.000566386)
(0.104817 -0.00958936 0.00607029)
(0.157455 -0.000642486 0.0012035)
(0.0819304 -0.00238388 -0.00189078)
(0.101705 -0.00255484 0.00794791)
(0.133849 -0.00121226 0.0020357)
(0.025915 -0.00200864 -0.000129359)
(0.167558 -0.000908618 -0.000348327)
(0.0490703 0.001425 -5.10649e-05)
(0.138885 -0.000442275 0.00125156)
(0.0279966 0.00397791 -0.000281985)
(0.166525 0.000569239 -0.000845859)
(0.101647 -0.00434804 0.00267978)
(0.154928 -7.16358e-05 -0.000429902)
(0.116738 0.00045694 0.000378415)
(0.145536 3.40464e-05 0.000308869)
(0.148637 0.000815141 0.000319827)
(0.170741 0.000818914 -0.00021126)
(0.0338483 -0.00193418 -3.63363e-05)
(0.0468948 0.000635225 -0.00101584)
(0.0284921 -0.000731323 -0.000250654)
(0.166007 -0.000168589 0.00069031)
(0.153564 0.000350316 -0.000899832)
(0.136626 0.00175927 -0.000530063)
(0.157207 0.000711045 -0.000922212)
(0.0206916 0.000366761 0.000556192)
(0.0987226 -0.000132503 -0.000207064)
(0.0895334 0.000881043 -0.00178535)
(0.166207 -0.000125937 -8.14604e-05)
(0.127483 -0.000976233 -0.000260965)
(0.144474 -0.000168767 -0.00042501)
(0.106439 -0.000231108 0.00139288)
(0.168083 -7.62833e-05 0.000228394)
(0.020332 -0.00234287 -0.00248431)
(0.0856693 -0.00339895 0.000471487)
(0.150043 -0.000171669 0.000376196)
(0.0258063 -0.00227473 0.00196432)
(0.0437825 -0.000739707 -0.00202396)
(0.0614777 -0.00102787 0.000622117)
(0.021426 0.00135217 -0.0022685)
(0.0953873 0.000498346 -0.00126544)
(0.162857 0.000717962 0.000106708)
(0.0594503 -0.00185239 -0.00149422)
(0.0189902 -0.0024499 -0.00173186)
(0.105588 0.000424974 -0.000777169)
(0.0253274 0.000201315 0.000374542)
(0.099229 0.0012447 -0.000679221)
(0.164842 0.000180148 -2.41263e-05)
(0.170916 1.19161e-05 -0.000403153)
(0.164626 -4.08459e-05 -0.000365352)
(0.159738 0.00102338 -0.000332337)
(0.165289 9.36872e-05 -0.000107399)
(0.130504 0.000602444 0.00169509)
(0.0462111 0.000983361 -0.00115653)
(0.165755 0.000579035 0.00077913)
(0.124999 -0.000271147 0.000859752)
(0.0882085 0.000488912 -0.00152687)
(0.0963134 -0.000962512 0.0013056)
(0.158347 -4.37165e-05 1.68126e-05)
(0.116564 -0.00126376 -0.000499598)
(0.0656232 0.000134592 0.00182503)
(0.15242 0.000407838 0.000955313)
(0.0329748 0.00116382 0.000480703)
(0.0880683 4.58435e-05 0.000802119)
(0.096948 -0.000275285 0.000236602)
(0.0608097 0.000283279 0.00106184)
(0.156985 -4.83429e-05 0.000299547)
(0.105991 -0.01259 0.0134369)
(0.127162 0.00771976 0.00516489)
(0.0326091 0.000580897 -0.00273925)
(0.026234 -0.00169475 0.000871275)
(0.0558905 0.00204015 -0.00098716)
(0.0203674 -0.00131126 -0.00159271)
(0.126283 0.000543843 -0.000515147)
(0.150757 0.00114632 -0.000564391)
(0.129553 0.00154706 0.000151746)
(0.110301 0.00999937 -0.0114881)
(0.133016 0.000165713 0.000380488)
(0.144731 0.000846625 -0.000308514)
(0.0249264 -0.0020006 0.0048089)
(0.153196 0.000900609 2.67835e-05)
(0.127497 -0.00400702 0.0125362)
(0.0437988 0.000789037 -0.00113844)
(0.0220787 -0.00363172 0.000747639)
(0.115775 0.000248509 0.000869659)
(0.110113 -0.00110226 -0.000737518)
(0.0257278 -0.00174235 0.00290104)
(0.159257 -0.000654436 -0.000576985)