/*--------------------------------*- C++ -*----------------------------------*\
| =========                 |                                                 |
| \\      /  F ield         | OpenFOAM: The Open Source CFD Toolbox           |
|  \\    /   O peration     | Version:  2406                                  |
|   \\  /    A nd           | Website:  www.openfoam.com                      |
|    \\/     M anipulation  |                                                 |
\*---------------------------------------------------------------------------*/
FoamFile
{
    version     2.0;
    format      ascii;
    arch        "LSB;label=32;scalar=64";
    class       volVectorField;
    location    "38";
    object      U:Transformed;
}
// * * * * * * * * * * * * * * * * * * * * * * * * * * * * * * * * * * * * * //

dimensions      [0 1 -1 0 0 0 0];

internalField   nonuniform List<vector> 
59516
(
(9.23229e-05 -0.000504696 0.106273)
(0.000348199 -0.000254694 0.0987493)
(-0.000353468 0.00106021 0.11414)
(-0.00255832 -0.000182707 0.129482)
(-0.00452968 0.000288046 0.113809)
(-0.0104422 0.00556057 0.101091)
(-0.000818064 -0.00150265 0.129324)
(-0.000273095 -0.000814349 0.103823)
(-0.000931095 1.89455e-05 0.113398)
(0.00215618 0.00103406 0.0556841)
(-0.00187364 -0.000414213 0.152858)
(-0.00267156 -0.00231598 0.0611244)
(-0.000901766 -0.000546794 0.120446)
(0.00011163 -0.000209516 0.0202163)
(0.000128421 -0.00356003 0.0619772)
(-0.00142098 0.00376724 0.0527735)
(-0.000263598 -0.000333958 0.165311)
(-0.00557025 -0.00159754 0.0702505)
(-0.00530948 -0.00137796 0.114962)
(1.69128e-05 0.00063397 0.162137)
(-0.00119249 0.000591086 0.0545766)
(0.000412629 0.00033841 0.148549)
(-0.000466767 -0.0007407 0.154205)
(0.000923162 0.000545944 0.0342807)
(0.000531454 0.000989442 0.158992)
(-0.000296663 0.0015473 0.0667635)
(-0.000544181 0.0028793 0.0426128)
(-0.00337969 -0.00152988 0.0446351)
(-0.00224415 -0.000976623 0.0663042)
(0.00226267 0.00179046 0.0179657)
(-0.0214937 0.00121215 0.10834)
(-0.00285255 0.00218483 0.0458857)
(-0.000790323 -0.000400051 0.133472)
(-0.00228614 -0.000935913 0.11313)
(-0.00548087 -0.000230911 0.13901)
(-4.03668e-05 0.000176638 0.146036)
(-0.0026081 0.00135165 0.0172731)
(-0.0068559 -0.00220267 0.0701231)
(-0.00333682 0.000461736 0.0962433)
(0.00126302 0.000162724 0.156652)
(0.000164542 -0.000693027 0.102604)
(-0.0108298 2.42368e-05 0.143804)
(-0.0034798 0.000749006 0.148177)
(-0.0007251 0.0004111 0.108979)
(-0.00336498 0.000817333 0.14331)
(0.00151 0.000422106 0.0559724)
(-0.00424913 6.69308e-05 0.132958)
(-0.00336244 0.000603009 0.161158)
(-0.015307 0.00139178 0.111872)
(-0.00752846 2.40422e-05 0.149929)
(-0.017903 0.000523937 0.104047)
(-0.00393521 -0.00191828 0.0448136)
(0.000306225 -0.00235071 0.120999)
(-0.000348316 0.000300126 0.128414)
(-0.00274194 0.000649277 0.0481583)
(-0.00194346 0.000316478 0.130181)
(-0.0114842 -8.22498e-05 0.14433)
(-0.00453864 -0.00171055 0.0483211)
(-0.000116594 -3.67827e-05 0.166448)
(-0.00953845 -0.000392733 0.13495)
(5.09989e-05 0.000446262 0.148551)
(-0.00147539 0.00204815 0.0195366)
(-7.4517e-05 0.000550728 0.16061)
(-0.00167081 0.000328673 0.161923)
(-0.00057039 0.000338938 0.124538)
(-0.00498046 0.00019589 0.146525)
(0.000209775 0.00301067 0.0266468)
(-0.000104711 0.000263453 0.0416894)
(-0.0227974 0.000377696 0.12145)
(-0.0018771 -0.00101092 0.136336)
(-0.000650526 -0.000894154 0.0376225)
(-0.00082368 -0.000546496 0.159776)
(0.0036109 -0.00145865 0.0235068)
(-0.000127749 -0.000218745 0.142599)
(-0.000195459 6.13095e-05 0.171298)
(-0.00184626 8.66219e-05 0.156945)
(-0.00252434 -2.74972e-05 0.161868)
(-0.000272455 0.000183049 0.147361)
(0.00185703 0.00104663 0.0466489)
(-0.00715781 0.000794752 0.150355)
(-0.00256837 7.42078e-05 0.039114)
(-0.00611446 0.000494892 0.14586)
(-0.0050887 0.00049163 0.139296)
(-0.00260727 0.00138669 0.0204716)
(-0.00600694 0.00082336 0.145823)
(0.000162202 0.000607784 0.168093)
(0.000647375 0.00113655 0.0331236)
(0.000811215 0.000185501 0.149877)
(-0.00218155 -0.00125693 0.0551998)
(-0.00973153 -0.00247854 0.107325)
(-0.0112691 -5.73714e-05 0.131492)
(-0.00135455 0.00123968 0.138078)
(-2.5828e-05 0.000132222 0.166152)
(-0.000209064 0.00123671 0.136823)
(-0.000300681 0.000285139 0.156381)
(-0.0113093 -3.46857e-05 0.109956)
(-0.000776037 -0.000645077 0.140127)
(0.00199558 0.00408743 0.0542602)
(-0.00224035 -0.0010058 0.0650701)
(0.00130689 0.00109949 0.147359)
(-0.00123123 0.000951341 0.0381253)
(0.00278807 0.00137381 0.0250154)
(0.00298555 0.00157813 0.023696)
(-0.0019645 0.00226398 0.0553372)
(0.000651454 -9.49714e-05 0.135805)
(-0.000330667 0.000152069 0.145149)
(0.00186795 -0.00331423 0.0406763)
(-0.000626121 -0.000414593 0.106748)
(-0.000397417 0.000607514 0.102556)
(-0.00147209 0.00232388 0.0670749)
(-0.0185833 -0.000243504 0.124908)
(0.00238921 -0.00215404 0.0313493)
(-0.00256088 0.00330387 0.067866)
(-0.0193629 -4.38581e-05 0.118043)
(-6.90201e-06 -0.000111324 0.157362)
(0.000934043 -0.00117036 0.102484)
(-0.00191774 -0.00112266 0.0549792)
(-0.000566637 -0.000597709 0.133982)
(-0.000418235 -0.00104768 0.0224361)
(-0.0010018 0.00109187 0.146108)
(0.00054079 0.000177002 0.172147)
(-5.06488e-05 0.00032992 0.16248)
(0.000540677 0.000492158 0.156674)
(-0.00055251 0.000394154 0.161112)
(-0.0177018 0.00123619 0.132266)
(-0.00290123 7.58998e-05 0.0906128)
(-0.00188013 -0.000823836 0.0304183)
(-0.0130149 0.00214835 0.138184)
(-0.0130574 0.00306721 0.0898417)
(0.000526172 -0.000180862 0.169457)
(0.000455548 -0.000558039 0.170527)
(0.00153779 0.00192168 0.114485)
(-0.000555452 -0.00207542 0.0238817)
(0.000334663 0.000556087 0.148195)
(0.00108199 0.000345519 0.103713)
(-0.00166759 0.0011405 0.117989)
(-0.0154575 0.00141312 0.107565)
(0.000338665 0.000504374 0.131524)
(-0.000360013 0.00269029 0.0402752)
(-0.000967977 0.000915225 0.10055)
(-0.00099103 0.00219524 0.0445788)
(-0.00037549 -0.00027271 0.171811)
(-0.0009364 -0.00162427 0.0190552)
(-0.00035241 0.00124298 0.126913)
(-0.000317764 0.000357249 0.167434)
(-0.00123963 0.000756925 0.141563)
(-0.00402972 0.00127018 0.140834)
(-0.00217103 0.00120452 0.119521)
(0.000948474 -0.00176462 0.0621323)
(-0.000135077 0.00115648 0.108661)
(6.70865e-05 -0.000837882 0.105664)
(0.000173213 0.00130389 0.0358124)
(0.000970439 0.000956198 0.162818)
(0.000726572 0.000241393 0.153075)
(-0.000498374 -0.00195266 0.0914333)
(-0.00182541 0.0010656 0.0191764)
(4.18881e-05 -0.000136465 0.115303)
(-0.000947452 0.000695117 0.115885)
(-0.00102118 0.000575339 0.0845653)
(-0.00284643 -0.00203751 0.0197136)
(0.00279152 0.00239908 0.0657589)
(0.00375867 -0.00205498 0.0677176)
(-0.000616488 0.00136304 0.0354796)
(-0.000244421 -0.000491915 0.0257126)
(0.00296367 0.000107462 0.10178)
(-0.000989836 0.000555868 0.166578)
(0.000766208 -1.63537e-05 0.0618814)
(-0.000544862 -0.000122705 0.168461)
(0.00121307 0.00232593 0.0200752)
(-0.000227664 -0.000475079 0.135642)
(-0.00135027 -0.00113204 0.0856185)
(-0.000857358 0.000674359 0.0526459)
(2.47013e-05 -0.00182068 0.0648292)
(0.000517857 -0.000755037 0.137342)
(0.000526545 0.000711784 0.0506299)
(-0.00446887 -0.000597923 0.135293)
(-0.00100386 0.000220032 0.163636)
(-0.00515581 0.000556463 0.149293)
(0.000478341 -0.00324814 0.0677675)
(0.000493661 0.000315621 0.0414273)
(-0.000914875 -0.00179589 0.145482)
(0.000907871 0.00305848 0.0336835)
(-0.00104658 -0.00209279 0.0291133)
(0.000607989 0.00162342 0.0650242)
(0.000318415 -0.000459058 0.168521)
(-0.000364137 0.000667891 0.0591825)
(-0.00275545 0.000600395 0.0355254)
(0.000155727 0.000256674 0.0231659)
(-0.000103768 -7.38011e-06 0.123177)
(0.00155003 0.000869873 0.101821)
(-0.00284679 -0.000396364 0.135164)
(-0.000878492 -0.00301981 0.0522014)
(-0.000390948 -0.000376732 0.160092)
(0.00174981 -0.00150888 0.0574568)
(-0.000215786 0.000148424 0.153754)
(0.00043467 0.000735306 0.0295547)
(0.00076229 0.000123006 0.0573909)
(0.000297415 -0.00108529 0.040906)
(-0.0046273 -0.000255748 0.111413)
(0.000516219 -0.000431888 0.152501)
(-0.00170847 -0.00219664 0.0818626)
(-0.000515884 -0.000383078 0.171068)
(0.000280655 0.00109696 0.104348)
(0.00167315 -0.0019187 0.0196635)
(0.0010913 0.000993806 0.129428)
(-5.85199e-05 -0.000185095 0.144729)
(4.4754e-05 -4.37904e-05 0.17057)
(0.00055994 -0.000753508 0.150379)
(0.000203342 -0.000683438 0.0230518)
(0.00169333 0.000874675 0.115439)
(-0.000436825 0.00470186 0.0506277)
(-0.00386098 0.000809944 0.0239286)
(-0.00107761 0.000945903 0.14406)
(-0.000260618 0.00129343 0.0562169)
(-0.000684153 -0.00111383 0.117579)
(-0.00023813 -0.000264776 0.165124)
(-0.000851111 0.000416712 0.139909)
(-0.000956984 0.000846411 0.155787)
(-0.00175842 0.00313296 0.0546399)
(0.000815655 0.000130722 0.155247)
(-0.00111223 -0.00261169 0.0558513)
(-0.000177924 0.000430559 0.105743)
(-0.000820089 -0.000930229 0.159516)
(0.000433433 -0.000615867 0.0401507)
(-0.000686861 -0.000398012 0.162464)
(0.000680246 0.000404768 0.164232)
(-0.00103018 -0.00104714 0.0282484)
(-0.00260727 0.000592212 0.047168)
(-9.17153e-05 0.000854698 0.163755)
(-0.0020026 0.00345925 0.0545983)
(0.000444426 0.000612387 0.166168)
(-0.000510056 0.000300605 0.165015)
(-0.000876264 -0.000669589 0.169178)
(-0.00124369 -0.0020867 0.0251498)
(-0.00135777 -0.00118878 0.0328875)
(-0.00146775 3.28467e-05 0.0344745)
(0.000296843 -0.000431044 0.063843)
(-0.00143402 -0.000326958 0.0981292)
(-0.00148774 0.00031582 0.153665)
(0.00185937 -0.00024535 0.0573997)
(0.000643468 0.000238986 0.170785)
(0.0025065 0.00178007 0.0206819)
(0.000725364 0.000537047 0.054507)
(0.00237542 0.00141257 0.0251214)
(0.000722516 0.000219625 0.169348)
(-0.000278176 -0.000580149 0.0941821)
(-0.000785816 0.000162421 0.144824)
(-0.000511735 0.00150255 0.0657398)
(0.000128267 0.000103395 0.164316)
(-0.000392053 -0.000243387 0.106003)
(0.00120635 -0.000211013 0.161747)
(-0.000633314 0.00022672 0.140533)
(0.000653802 0.000336978 0.17084)
(0.000149694 0.000490772 0.144059)
(-0.000549814 0.00133431 0.14617)
(-0.000260987 0.000568864 0.155229)
(-0.000271483 -1.91028e-05 0.0557836)
(-0.00158478 0.000324606 0.151848)
(0.00119241 0.00202732 0.042369)
(-0.000323947 0.00215762 0.060592)
(-0.00111144 0.000523719 0.131349)
(-0.000394723 0.000859125 0.158271)
(0.00299291 0.000793494 0.116499)
(0.000236003 0.000690487 0.167521)
(0.00217819 0.000249357 0.10048)
(5.41957e-05 -0.00279672 0.0582135)
(-0.00038164 -0.000824659 0.156783)
(0.00189392 0.000199471 0.0940235)
(-0.000574702 -0.000825694 0.0469431)
(-0.000326519 0.00138553 0.0521557)
(-0.00189174 0.00214171 0.0980418)
(-0.000637509 -0.000416604 0.16442)
(-0.00138539 0.00178731 0.0998395)
(-0.000579797 0.00140214 0.0944313)
(-0.00116 0.000132819 0.160505)
(0.000100802 0.00268021 0.0944166)
(-0.00126223 -0.00265152 0.0215666)
(0.000679288 0.000835535 0.15888)
(0.00217821 -0.00165207 0.0259851)
(0.00176771 0.000928906 0.0408621)
(-0.000891406 -0.000546198 0.168388)
(-0.000301017 0.000337359 0.139989)
(-0.00343629 0.00181601 0.0254658)
(-0.000223219 -0.00101515 0.122448)
(-0.00112141 -0.00205167 0.126358)
(-0.00026853 0.000671167 0.163017)
(0.000484763 -0.000354721 0.168899)
(0.00210329 -0.00208706 0.0246098)
(-0.000389695 0.000556888 0.167996)
(-0.000659923 -0.0008736 0.169593)
(-0.000410298 -0.000887452 0.164689)
(-0.000879962 -0.000166853 0.135738)
(-0.00141177 0.000955643 0.136958)
(-0.000474079 -0.000320938 0.0969545)
(0.000103122 -0.001196 0.166477)
(-6.33589e-06 0.00166775 0.0286076)
(0.000526889 -0.00119783 0.155813)
(0.000855848 0.00070285 0.140215)
(-0.00057346 -0.000737274 0.170109)
(-0.000389111 -0.000700063 0.161353)
(0.000678901 -0.000630616 0.118026)
(0.00103136 -0.00125879 0.0601956)
(-0.000719902 -0.0015012 0.023372)
(0.000728163 0.000433044 0.029126)
(-0.00121405 0.00065795 0.161872)
(-0.00303091 0.00126874 0.0210091)
(-0.000798581 -0.000796878 0.0644052)
(-0.0010324 0.00293748 0.0528878)
(0.000235966 -0.000803933 0.16253)
(-0.000395357 -0.000332142 0.167705)
(-8.00512e-05 0.000427316 0.153346)
(0.00116298 0.000571367 0.0598295)
(0.00252978 2.08419e-05 0.104637)
(9.32857e-05 0.0043397 0.0408924)
(0.000556935 -0.00169146 0.0552979)
(-0.000104904 0.000167904 0.153751)
(0.000565122 -0.00138874 0.100077)
(-0.0127923 -0.00155024 0.107737)
(0.00022071 -0.00213049 0.0914693)
(-0.000519788 -4.80256e-05 0.043782)
(0.00215079 -0.000105728 0.0652272)
(-0.00050649 -0.00173013 0.109555)
(-8.38946e-05 -1.33489e-05 0.167712)
(6.14849e-05 -0.000600341 0.171355)
(-0.000909243 0.000523556 0.170984)
(8.44334e-05 0.00131405 0.159376)
(-0.00565588 -0.000771985 0.0972937)
(-0.00120836 0.000122013 0.127919)
(-0.00131776 0.00115148 0.160402)
(0.000479836 0.000199226 0.157911)
(0.00101783 -9.7151e-05 0.160002)
(-0.00255182 -0.00229812 0.0576047)
(0.00286062 -0.00110741 0.0228174)
(0.000963213 -3.8676e-05 0.149364)
(0.00118283 0.00264703 0.0405964)
(6.46144e-05 -0.000187518 0.0326122)
(-0.00157917 -2.08302e-05 0.157424)
(0.000545137 0.000496933 0.145988)
(-0.00180405 0.00259322 0.0603136)
(-0.000655974 -0.000992044 0.165445)
(0.000399089 0.00147573 0.162733)
(-0.00100872 0.000214323 0.170464)
(-0.000816787 -0.000113239 0.166736)
(-0.000119945 -0.00155496 0.0332796)
(0.000127064 -0.000197289 0.157727)
(-0.00145054 0.000322238 0.167028)
(0.000182359 0.000750654 0.058768)
(-0.000152778 -0.0013248 0.169055)
(-0.00043866 0.000395509 0.166118)
(0.000671812 0.000603237 0.132551)
(0.000591971 0.000655483 0.123955)
(-0.000304069 -0.00140514 0.149908)
(0.000868551 0.00111766 0.143275)
(-0.000382145 0.000134623 0.0710337)
(-0.000623668 0.00157815 0.0323504)
(0.000315496 0.00253335 0.0355332)
(0.000492133 8.93177e-05 0.0967234)
(-0.0125486 -5.02165e-05 0.0862903)
(-0.00734313 0.000775019 0.0746269)
(0.000318822 -0.000344562 0.085196)
(0.00146392 -0.0012803 0.116294)
(-0.000348013 0.000469302 0.132386)
(-0.00368126 0.00059787 0.157166)
(0.00065021 0.000414103 0.156054)
(-0.000444879 -0.000446559 0.132911)
(-0.000248219 -0.000552141 0.148059)
(-0.00111623 -0.000126014 0.148086)
(-0.000436571 0.000913431 0.032147)
(-0.0225933 0.000833259 0.113892)
(0.000453047 0.0016031 0.0594757)
(-0.00102172 0.00169472 0.0421435)
(0.000860393 0.000321622 0.0423761)
(6.70402e-05 0.000385767 0.158498)
(-0.000358212 0.000261641 0.09563)
(-0.00102301 0.000290662 0.158337)
(-0.00135126 0.00157428 0.0204443)
(0.000385162 -0.000233649 0.127829)
(0.00120231 -0.000709143 0.0455457)
(-0.000254169 0.000508839 0.160954)
(-0.000495359 0.000593422 0.048996)
(0.00179679 0.00073455 0.0630352)
(0.000783161 0.00262995 0.108373)
(-0.00151693 3.39055e-05 0.150936)
(0.00272288 -0.000166254 0.0201647)
(-7.4486e-05 0.00249322 0.0553947)
(-8.08744e-05 -0.000602304 0.133955)
(3.27042e-05 -0.00236799 0.0238653)
(-0.00886614 -0.000220785 0.130723)
(0.000441208 -0.00255954 0.117653)
(2.66949e-05 -0.00199708 0.132794)
(0.00232402 -0.00255034 0.0961946)
(0.00211653 0.000629652 0.0899807)
(0.000927365 -0.000466486 0.159338)
(-0.0101235 -0.00322941 0.0772391)
(-0.00087755 -0.000257949 0.171268)
(-0.0123625 0.000759904 0.111355)
(-0.00214614 0.00156477 0.0606472)
(-0.000442567 0.00149745 0.0636211)
(-0.000312813 -0.000798782 0.170226)
(0.000585495 -0.0010119 0.170922)
(0.000603956 -0.000523194 0.0537053)
(-0.000298234 -0.000792375 0.135125)
(-0.00223024 0.00078874 0.0998494)
(0.000418878 -0.000621628 0.169541)
(0.000457413 -0.000990774 0.16905)
(-0.00107184 -0.0035572 0.0466055)
(-0.000482179 0.000817593 0.133535)
(0.00220792 -0.000175715 0.145281)
(-0.000416224 -0.000407018 0.14789)
(0.000340047 -0.000650323 0.155341)
(0.0025774 -0.00135764 0.0219931)
(-0.00280646 -0.000773662 0.021434)
(-0.00136023 0.00132245 0.127442)
(9.85316e-05 -7.07696e-05 0.167485)
(0.00130679 0.00103351 0.170281)
(-0.00226667 0.00119686 0.0354195)
(0.00103228 -0.0010662 0.162555)
(-0.00111326 5.65058e-05 0.108532)
(-0.000622929 -0.000587927 0.165275)
(0.000787619 0.000800495 0.168668)
(0.000819122 0.000433679 0.170735)
(-0.000192226 -0.00105591 0.166591)
(-0.000274781 -0.00165765 0.166324)
(0.00032283 -0.000582918 0.0908299)
(-0.00114117 0.000405278 0.168975)
(-0.00194942 0.00240124 0.0572698)
(-0.000389089 8.97972e-05 0.162008)
(-0.000976178 -0.000665993 0.111052)
(-0.00111199 4.03624e-05 0.151323)
(-0.000289474 -0.000214522 0.16683)
(-0.000103091 0.00032248 0.14911)
(0.00104384 -0.000343792 0.144097)
(0.00178675 0.00266208 0.0413464)
(0.000873087 1.93793e-05 0.0345899)
(-0.00201996 -0.00203475 0.0218145)
(-0.0078377 6.12807e-05 0.151813)
(7.01244e-05 7.4348e-05 0.175219)
(-0.00104083 0.000140087 0.138931)
(7.53355e-07 -0.00123881 0.127778)
(0.00112576 0.000203358 0.0314666)
(0.000769782 -0.00270499 0.0242349)
(-0.000727056 -0.00164496 0.115952)
(-0.00117606 0.000863511 0.150232)
(-0.000401557 -0.000767704 0.1672)
(0.000474608 -0.000362979 0.153487)
(-0.00138261 -0.000177311 0.136442)
(-0.000481479 0.00056073 0.172981)
(0.00114338 -0.000133728 0.135189)
(-0.00118472 0.00232877 0.0270307)
(-2.58631e-05 0.000623233 0.123872)
(0.00264151 -0.00152847 0.0587561)
(-0.00715003 -0.000787069 0.0704909)
(-9.72557e-05 0.000249916 0.151564)
(0.000379318 -8.38317e-05 0.0951534)
(1.26218e-05 -1.24775e-05 0.145788)
(-0.00355216 0.00223053 0.0211674)
(0.00107124 -0.000701099 0.170606)
(-0.000207542 -0.00011786 0.169968)
(-0.00110106 0.000325157 0.16806)
(0.000716002 -0.000648538 0.0931945)
(5.02233e-05 -0.00123836 0.15141)
(-0.000659988 -0.000834718 0.165308)
(-1.50158e-05 0.000399453 0.122242)
(-0.00109034 0.000519251 0.1695)
(-0.00470985 -0.000631755 0.09871)
(-0.000431555 -0.000477361 0.165113)
(-0.00232137 0.000769527 0.14835)
(0.0015423 -0.00128936 0.0209358)
(0.000194632 0.000616252 0.169293)
(0.00133888 0.00155814 0.117661)
(-0.00294331 -0.00273781 0.0467419)
(-0.000840194 0.00145046 0.0925665)
(0.000435756 0.000236627 0.16233)
(2.30575e-06 -0.000815722 0.130173)
(0.000968778 0.00228182 0.0862559)
(-0.00232886 0.0016199 0.0207806)
(-0.000200864 0.00085537 0.167565)
(0.000492905 0.00239896 0.125723)
(-0.000523706 8.65444e-05 0.158052)
(-0.000711566 -0.000142349 0.125294)
(-0.00232961 0.000595248 0.0373306)
(0.000511782 -8.50769e-05 0.140796)
(-0.0039201 0.000281984 0.0261279)
(1.36102e-06 0.000611384 0.158924)
(-0.0119583 0.000603765 0.10228)
(0.000759914 0.000477343 0.162707)
(-0.000286065 0.00179937 0.0525094)
(-0.00123173 0.00160327 0.107727)
(-0.000328111 0.00129936 0.0964628)
(0.00197185 -0.00185062 0.0352925)
(0.000434881 0.000464522 0.169387)
(-0.0008491 -0.000129581 0.163279)
(-0.0021675 -0.000822896 0.0223898)
(0.00035861 -0.000926922 0.157399)
(-0.00067694 -0.000523084 0.169698)
(-0.000570972 0.00209404 0.0376259)
(0.0014445 0.00228049 0.0622663)
(-0.00145223 0.00196613 0.0541511)
(-0.000556554 0.000814894 0.151896)
(-0.000101302 -0.00029945 0.167933)
(-0.00119917 0.00123235 0.0326719)
(0.00175726 -0.000783117 0.0545413)
(-0.000242012 0.00108895 0.0571337)
(0.00117041 0.000814006 0.116079)
(-0.000197263 -0.000368112 0.168705)
(-0.00277027 -0.00185923 0.0234504)
(0.00110073 0.000480213 0.157497)
(-0.00198779 -0.000943046 0.151023)
(-0.000268969 -0.00114226 0.16864)
(-0.00234782 -0.00482805 0.0900994)
(0.00107788 0.000426116 0.164415)
(0.00121382 -0.00218909 0.022997)
(-0.00052157 -7.62315e-05 0.160967)
(0.000182637 -0.000426057 0.0275855)
(6.91366e-05 -0.00184567 0.059824)
(3.1654e-05 0.00104331 0.153357)
(-0.00108261 0.00153445 0.0611035)
(-0.00279612 0.00163043 0.0209129)
(0.000312397 -0.00131498 0.0372856)
(0.000372124 0.00279292 0.0458544)
(0.000769004 -0.00183103 0.0592378)
(-0.000769107 8.50708e-05 0.146485)
(-5.72153e-05 0.00114298 0.0504732)
(0.00109952 -0.00196752 0.0595359)
(-0.015297 0.000604867 0.128163)
(-0.000805884 -0.00041208 0.162636)
(0.00156674 1.30271e-05 0.0242742)
(0.000330816 0.00100009 0.107737)
(-0.00843769 -0.00429733 0.0813405)
(0.0013585 1.75016e-05 0.164712)
(-0.00101746 0.000886688 0.0588106)
(-0.00125086 -0.000248237 0.159813)
(0.00138114 0.00251841 0.0577879)
(-0.00072775 0.000406066 0.123546)
(-0.00074586 -0.000171528 0.168077)
(0.0027903 -0.00435378 0.0515389)
(-3.70324e-05 9.02439e-05 0.168265)
(-0.00313527 -0.000869216 0.0476706)
(0.00267405 -0.00169543 0.0194536)
(-0.000602031 0.000481853 0.144846)
(0.000179887 -0.000492932 0.168235)
(-0.000879218 0.000476552 0.130407)
(0.000804438 -0.00155004 0.125857)
(0.00143997 -0.000211462 0.168858)
(0.00164901 -0.000121683 0.0612034)
(0.00142653 -0.000301305 0.162515)
(0.00133146 0.00275354 0.0574369)
(-0.000414455 -0.000453678 0.167031)
(0.0018371 0.000719952 0.126876)
(-0.00333693 -0.00219684 0.028239)
(-0.000710579 0.000413681 0.152633)
(0.00107147 -0.00129425 0.0524638)
(0.00133317 0.00227672 0.0263358)
(-0.000723396 0.000267992 0.148875)
(-0.001613 9.54536e-05 0.0434389)
(-7.8249e-05 0.00050782 0.13779)
(0.000295944 0.000846876 0.167185)
(-0.000265835 0.000797179 0.13116)
(0.00012224 0.00352698 0.0537923)
(0.00164023 -0.000227038 0.170758)
(0.00166193 0.000466227 0.0908683)
(-8.0051e-05 0.000534763 0.174568)
(-0.000137557 0.000205454 0.171152)
(0.000779788 0.000798747 0.171025)
(0.000123991 -0.000387658 0.167991)
(0.00293094 -0.00116415 0.0442465)
(0.000428885 0.000367764 0.0517918)
(-0.000116566 3.19429e-05 0.168909)
(-0.000232346 -0.00166393 0.159189)
(0.000444782 0.00239288 0.0320334)
(0.000241183 -0.000229561 0.157695)
(6.3541e-05 0.000329923 0.172103)
(0.000767848 0.000994309 0.168842)
(0.000973561 0.00110765 0.170954)
(-0.00118039 0.000818335 0.117145)
(-0.00168184 0.00232371 0.0216321)
(0.000668143 0.000100242 0.170338)
(0.000913783 -0.00138518 0.100885)
(-0.000481427 0.000159638 0.149012)
(-0.000107496 9.94445e-05 0.0963029)
(-0.00179621 -0.00110219 0.0293775)
(-0.000780344 6.14425e-05 0.168494)
(-0.00191595 0.0024725 0.0921675)
(0.000362927 -0.000234781 0.133609)
(0.000898352 0.00102715 0.17141)
(-0.000982128 0.00130978 0.14081)
(0.00159024 0.00201576 0.0174478)
(-0.00232581 0.00104229 0.0222098)
(-0.000246562 -0.00066627 0.165942)
(0.000530571 -0.000680412 0.161367)
(-0.000441942 0.00143575 0.17133)
(-0.00100532 -0.000522946 0.149587)
(-0.000334618 0.00143687 0.0923963)
(-0.0003753 0.00112967 0.148572)
(-8.4377e-06 0.000490268 0.167149)
(0.000733991 0.00165282 0.0202953)
(-0.00043589 -0.000685529 0.166852)
(-0.0146076 0.00100163 0.134903)
(-7.71735e-05 0.00203246 0.0375576)
(-0.000368234 0.00356494 0.0545868)
(-0.000133747 0.00102886 0.144305)
(0.00186946 -0.000606767 0.141022)
(0.000324715 -0.000571042 0.13771)
(0.000836562 -0.000487552 0.124889)
(-0.0031089 0.00216797 0.1058)
(-0.000242556 -0.000229672 0.170768)
(0.000816362 -0.00287736 0.0982984)
(0.00114213 -0.00050352 0.168932)
(0.000252064 0.000464761 0.164665)
(0.00114023 -0.000387872 0.173649)
(0.000880576 -0.000897322 0.165792)
(0.00156597 0.00119718 0.0401904)
(0.00110679 -0.000128665 0.160048)
(-0.000341481 -0.0016056 0.0325472)
(-0.0105742 -0.00143923 0.0944291)
(0.00191413 -0.00139219 0.0602042)
(-0.0131078 -6.65946e-05 0.127216)
(0.000794118 0.000520258 0.131139)
(-0.0194382 0.00049206 0.117454)
(0.000211402 0.000395784 0.163271)
(-0.000243687 -7.70418e-05 0.169459)
(-0.000432803 0.000232722 0.152293)
(0.000781209 0.000808049 0.163816)
(-0.000577348 -0.000146167 0.0336977)
(-0.00458393 0.000145642 0.100941)
(-0.0161225 0.00113794 0.112479)
(-0.000318397 -6.35543e-05 0.16678)
(-0.000695208 0.00236886 0.113333)
(-0.0137843 0.000975985 0.136793)
(-0.00492604 0.000556062 0.155439)
(0.000674971 0.00100113 0.11179)
(-0.00130495 -0.000560239 0.0349638)
(0.00147762 0.00263893 0.0537805)
(-0.000232283 -0.000156905 0.0241859)
(0.00132813 0.00120055 0.0231698)
(-0.000219959 -7.18659e-06 0.0341837)
(-0.0101875 0.00050397 0.133727)
(-0.000791515 -0.000275363 0.138453)
(-0.00225274 -0.00246953 0.0235057)
(-0.00283118 0.000744509 0.0222557)
(0.000247256 0.00038565 0.170778)
(-0.0148787 0.00326552 0.0961436)
(-0.00171199 9.48663e-05 0.0368593)
(-0.000335116 -0.000162721 0.14722)
(-0.00169694 0.000744935 0.106393)
(0.00118287 -0.000284045 0.134932)
(0.00135579 0.00201986 0.0413795)
(-0.00106831 -0.00140142 0.0536018)
(0.000263976 0.00114499 0.112274)
(0.000457961 0.000317451 0.163482)
(0.00020017 0.000797933 0.150772)
(-0.0017874 0.00245042 0.0353482)
(-0.000624467 -0.00208944 0.0235853)
(-0.0189043 0.000207902 0.106235)
(-0.00268897 0.00189332 0.0251986)
(-0.000104618 0.00146733 0.134689)
(-0.00350191 -0.00110612 0.0268705)
(0.000620262 0.00218734 0.105261)
(-0.000610178 -0.00029454 0.166903)
(0.00117271 0.000421639 0.17038)
(-0.000449818 -0.00100478 0.0432422)
(0.000853651 -0.00059621 0.0987177)
(-0.00185224 -0.000301863 0.0345591)
(-0.00343021 -0.000183534 0.0273261)
(0.000300339 -0.000728502 0.167232)
(-0.00260793 0.00127392 0.0188326)
(0.00123041 6.99944e-05 0.159727)
(-0.000470801 -0.00234342 0.0471568)
(-0.000219387 0.000966703 0.153409)
(-0.000179135 0.000412097 0.141521)
(0.0031882 0.00130086 0.0214176)
(-0.000939876 -0.00254134 0.0560562)
(-2.15978e-06 0.000587679 0.14765)
(-0.000107366 0.00158048 0.033443)
(0.00055251 -0.000648911 0.155386)
(-0.00126572 0.00367824 0.0531157)
(0.000277967 9.38666e-05 0.109253)
(0.000768873 0.000637189 0.169547)
(0.00133243 5.3052e-05 0.0355546)
(-0.00311106 -0.000634179 0.023019)
(-0.000961857 -0.000314612 0.0496996)
(-0.0178071 8.39773e-05 0.110785)
(-0.000536128 3.75498e-05 0.105364)
(0.000180124 0.00359972 0.0550812)
(0.00135981 -0.000191199 0.0854271)
(0.0004757 0.00130098 0.0300122)
(0.00097655 0.000549225 0.169926)
(0.00101695 0.00131254 0.0227616)
(-0.000517634 0.000967886 0.165049)
(0.000389855 0.000317138 0.145245)
(0.000159634 0.000173484 0.162051)
(-0.00190841 -0.000242683 0.0189549)
(0.000817526 0.000199246 0.15004)
(-0.00036892 0.00042489 0.0827634)
(0.000213147 0.000376764 0.155149)
(0.000111927 0.000475868 0.0535586)
(-0.0146539 0.000397258 0.108149)
(-0.00133647 0.000926608 0.158239)
(0.000691824 2.52806e-05 0.0390471)
(6.50562e-05 0.000832275 0.171969)
(-0.0204618 0.00238359 0.108861)
(-0.000665175 -0.000375545 0.118225)
(-0.000738851 -0.00177135 0.0320522)
(-0.00115849 0.00228703 0.0498733)
(-0.000143317 7.74147e-05 0.16872)
(0.000575363 -0.00121177 0.132699)
(-0.00102532 0.00122525 0.0315629)
(-0.000244313 -0.00193445 0.11039)
(0.00163323 0.00114565 0.0595206)
(-0.0016677 0.00188739 0.024035)
(-0.00037696 -5.02665e-05 0.167961)
(-0.0101427 0.000477174 0.103338)
(-0.00101747 -0.00227002 0.131909)
(-5.57002e-05 0.000257917 0.16502)
(0.000478983 0.000220146 0.166695)
(0.000485267 -0.000410436 0.162184)
(0.00075317 0.000150868 0.133219)
(0.00114047 0.00036987 0.042665)
(-0.000479882 0.00263485 0.0389665)
(0.0011077 0.000287179 0.170592)
(-0.0128493 -0.000549199 0.107573)
(0.000241955 0.00135481 0.122701)
(0.00131987 -0.000873886 0.129611)
(0.00185767 -0.000813471 0.0813292)
(-0.00034119 0.000894653 0.146995)
(-8.30765e-06 0.000877258 0.158926)
(-0.00108884 -0.00087511 0.0997219)
(-0.00140755 0.00136079 0.105132)
(-0.00116399 0.0020121 0.036903)
(-0.000684034 -0.000358883 0.0713613)
(-0.00271056 -0.00202997 0.0427305)
(0.000527129 -0.00097041 0.149904)
(9.91655e-05 -0.000183942 0.166531)
(-0.000392895 0.00274998 0.0948143)
(0.000128889 -0.000943113 0.0987793)
(0.00121275 -0.00183354 0.0205299)
(0.000108593 -0.000686139 0.079419)
(-0.00289561 -0.00133334 0.0575795)
(-0.000847539 0.000709633 0.166767)
(0.00134123 0.000310015 0.167555)
(-0.0113256 -0.000731792 0.104817)
(-0.00133124 0.000298337 0.157455)
(-0.00139137 0.00270593 0.0819304)
(-0.0083399 0.000377455 0.101705)
(0.000258345 -0.00235519 0.133849)
(0.00183294 0.000831694 0.025915)
(0.000968116 9.83346e-05 0.167558)
(-0.000216618 0.00140936 0.0490703)
(-0.00124919 -0.000448934 0.138885)
(0.00355339 -0.00181017 0.0279966)
(0.00101956 -2.14292e-06 0.166525)
(-0.00509929 -0.000289572 0.101647)
(-0.000159931 -0.000405425 0.154928)
(0.000335023 -0.000489644 0.116738)
(-0.000114522 0.000288867 0.145536)
(6.18032e-05 0.000873456 0.148637)
(-0.000709074 0.000460938 0.170741)
(0.000174524 0.00192664 0.0338483)
(-8.65005e-05 -0.00119497 0.0468948)
(-0.00033894 0.000694825 0.0284921)
(-8.83943e-07 0.000710598 0.166007)
(0.000929117 -0.000262986 0.153564)
(0.00177564 0.000472332 0.136626)
(0.000869859 -0.000774212 0.157207)
(0.000257107 -0.000614621 0.0206916)
(3.63173e-06 0.000245803 0.0987226)
(0.00142634 -0.00138898 0.0895334)
(-0.000149309 1.42372e-05 0.166207)
(-0.00100715 -8.23674e-05 0.127483)
(-6.48255e-05 -0.000452674 0.144474)
(-0.00128459 0.000585962 0.106439)
(-7.7862e-06 0.00024067 0.168083)
(-0.0027703 0.00199656 0.020332)
(0.000369234 0.00341157 0.0856693)
(-0.000281803 0.000302623 0.150043)
(-0.000160962 0.00300117 0.0258063)
(0.000302613 0.00213354 0.0437825)
(-0.00107777 -0.000530984 0.0614777)
(-0.0024106 -0.00107863 0.021426)
(0.00135973 2.88894e-05 0.0953873)
(-0.000725321 -2.76591e-05 0.162857)
(-0.000411565 0.00234407 0.0594503)
(0.00229823 0.0019286 0.0189902)
(-0.000294604 -0.000835346 0.105588)
(0.000421975 5.2407e-05 0.0253274)
(3.33377e-05 0.00141757 0.099229)
(6.33974e-05 0.000170342 0.164842)
(0.000319269 0.000246459 0.170916)
(0.000304809 0.000205528 0.164626)
(0.000850066 0.000659658 0.159738)
(0.000105481 9.58419e-05 0.165289)
(-0.000372696 0.00175993 0.130504)
(0.00107584 -0.00107104 0.0462111)
(0.000969654 4.57801e-05 0.165755)
(5.27966e-05 -0.000899948 0.124999)
(-0.000785322 -0.00139773 0.0882085)
(-0.00151875 -0.000569574 0.0963134)
(-2.46931e-05 -3.98001e-05 0.158347)
(-0.00111421 0.000777959 0.116564)
(0.00107936 0.00147778 0.0656232)
(-0.000691767 -0.000774863 0.15242)
(0.0003441 -0.00121126 0.0329748)
(0.000676413 0.000433546 0.0880683)
(0.000273303 -0.000238888 0.096948)
(-0.000881425 0.000656383 0.0608097)
(0.000224841 0.000203745 0.156985)
(-0.018407 -0.000489652 0.105991)
(-0.00928539 0.000228694 0.127162)
(-0.000560252 0.00274354 0.0326091)
(0.00188155 -0.000301792 0.026234)
(-0.00023089 0.00225464 0.0558905)
(0.00200667 -0.000478948 0.0203674)
(-0.000598217 0.000450864 0.126283)
(3.64928e-05 0.0012772 0.150757)
(-0.000883255 0.00127918 0.129553)
(-0.0151827 0.00120386 0.110301)
(-0.000413372 3.68185e-05 0.133016)
(6.69198e-05 0.000898597 0.144731)
(0.00429289 0.00294942 0.0249264)
(-0.000440488 0.000785992 0.153196)
(-0.0131573 -0.000310826 0.127497)
(-0.00134144 -0.00034519 0.0437988)
(0.00277108 0.00246363 0.0220787)
(-0.000375335 -0.000822914 0.115775)