/*--------------------------------*- C++ -*----------------------------------*\
| =========                 |                                                 |
| \\      /  F ield         | OpenFOAM: The Open Source CFD Toolbox           |
|  \\    /   O peration     | Version:  2406                                  |
|   \\  /    A nd           | Website:  www.openfoam.com                      |
|    \\/     M anipulation  |                                                 |
\*---------------------------------------------------------------------------*/
FoamFile
{
    version     2.0;
    format      ascii;
    arch        "LSB;label=32;scalar=64";
    class       volScalarField;
    location    "62";
    object      epsilon;
}
// * * * * * * * * * * * * * * * * * * * * * * * * * * * * * * * * * * * * * //

dimensions      [0 2 -3 0 0 0 0];

internalField   nonuniform List<scalar> 
59516
(
0.0101056
0.0086089
0.00655698
0.00532765
0.00921911
0.345174
0.00621292
0.00829762
0.00728445
0.0191021
0.00699257
0.0231392
0.0069106
0.0685692
0.0165963
0.0197935
0.00404322
0.038049
0.0129079
0.0031825
0.0312956
0.0037767
0.00434245
0.0276361
0.00301352
0.0148508
0.0272573
0.0419029
0.0216788
0.0480362
0.0457918
0.0373996
0.00473385
0.00705168
0.00831668
0.00395284
0.0464087
0.0437641
0.0153042
0.00298357
0.00874232
0.00944105
0.00682601
0.00914122
0.0062258
0.0203668
0.00856975
0.0057297
0.0126259
0.00755772
0.0271113
0.0221693
0.00633995
0.00588855
0.0247794
0.00859157
0.00940143
0.023075
0.0022985
0.0106206
0.00357539
0.0358128
0.0025866
0.00418363
0.00582305
0.00624121
0.0453668
0.022681
0.0200262
0.00709342
0.021982
0.00350005
0.0364902
0.00506001
0.00207996
0.00525835
0.0052726
0.00369515
0.0203084
0.00733087
0.0257254
0.00733185
0.00797764
0.0406018
0.0076393
0.00277587
0.0284463
0.00408883
0.0186023
0.0253755
0.00987312
0.00441609
0.00235713
0.00466536
0.00297215
0.0106329
0.00434657
0.020452
0.0289816
0.00376768
0.0231155
0.0351117
0.0348385
0.0179558
0.00485801
0.00372982
0.024966
0.00807185
0.00873493
0.0145647
0.0198597
0.0189593
0.0157919
0.0300813
0.00301612
0.0098972
0.0178536
0.00494992
0.0332554
0.00375504
0.00191957
0.00270816
0.00299477
0.00270288
0.0154337
0.0180944
0.0337812
0.0125269
0.0817459
0.00211441
0.001959
0.00752654
0.0343637
0.00368896
0.00896803
0.00649061
0.0364471
0.00501254
0.0237407
0.0099666
0.0211504
0.00183405
0.0459423
0.00562035
0.00271073
0.00419569
0.00703064
0.00807689
0.252762
0.00776875
0.00970912
0.0257643
0.0025961
0.00328864
0.0109544
0.0513477
0.0065222
0.00668521
0.0129297
0.0442841
0.014877
0.0141071
0.0283352
0.0522202
0.00933993
0.00230883
0.0159874
0.00231894
0.0415312
0.00467842
0.0123944
0.0221872
0.013612
0.00456162
0.0207507
0.0087571
0.00253131
0.00708627
0.0140846
0.0270265
0.0038107
0.0335354
0.0456508
0.0174339
0.00209901
0.0189261
0.0289878
0.0415707
0.00614093
0.00941711
0.00481719
0.0208028
0.0028627
0.0182721
0.0033932
0.033243
0.0198411
0.0251501
0.00744733
0.00332256
0.0131493
0.00186144
0.00850428
0.0439317
0.00534296
0.00400047
0.00229472
0.00340124
0.044956
0.00699416
0.0225983
0.0572347
0.00405562
0.0190553
0.0068393
0.00243221
0.0043134
0.00306839
0.0194174
0.00312402
0.0197676
0.00802913
0.00276509
0.0229071
0.00251046
0.00243565
0.0229552
0.0205275
0.00245587
0.0185331
0.00228965
0.00240351
0.0020069
0.0282284
0.0291153
0.0263605
0.0179663
0.00849929
0.0031612
0.0216314
0.00195585
0.0410942
0.0200079
0.0354025
0.00208964
0.0110948
0.00386929
0.0139853
0.00236544
0.0082914
0.00256454
0.00424845
0.00194728
0.00389682
0.00390947
0.00306955
0.0214245
0.00335245
0.0203046
0.0166091
0.00522251
0.00279879
0.00721194
0.00215666
0.00936902
0.0196243
0.00301955
0.0109162
0.0181144
0.0214857
0.0116821
0.00240476
0.00903099
0.010394
0.00262242
0.0107696
0.0332134
0.00282532
0.0258858
0.022437
0.00205332
0.0044068
0.0318534
0.0063841
0.00577083
0.00373722
0.00206699
0.0321963
0.00210354
0.00210569
0.00233098
0.00491187
0.00462293
0.00990551
0.00238835
0.0195798
0.00296637
0.00410143
0.00197156
0.00253121
0.00649516
0.01777
0.0343699
0.0193967
0.00278319
0.0425855
0.0136601
0.0215768
0.00258808
0.00223804
0.00316162
0.0178323
0.00843897
0.0240626
0.0267631
0.00313882
0.00964884
0.0117134
0.0112677
0.0248735
0.0152968
0.00831074
0.00229046
0.00196373
0.00205834
0.00295568
0.0189732
0.00533682
0.0026277
0.00299079
0.00277924
0.0183637
0.0358774
0.00355959
0.0206972
0.028277
0.00284757
0.0039684
0.0276962
0.00235267
0.00255682
0.00197875
0.00232327
0.0268818
0.0029664
0.0022744
0.0199465
0.00201694
0.00233944
0.00507763
0.00566175
0.00339511
0.00384666
0.0164797
0.0323634
0.0239077
0.00946113
0.0524113
0.096826
0.0138549
0.00715394
0.00512726
0.00641908
0.00315122
0.00489145
0.00353285
0.003634
0.0277111
0.0360371
0.0196211
0.0235823
0.0245127
0.00298516
0.00982091
0.0029734
0.038379
0.00540617
0.0242131
0.00272468
0.0240082
0.0165971
0.00788838
0.00713259
0.0406326
0.0184832
0.00474315
0.0305639
0.0121298
0.00707956
0.00477464
0.0104097
0.0104011
0.00288128
0.0671255
0.00197323
0.0281907
0.015622
0.0159149
0.00208501
0.00206707
0.0212694
0.00509559
0.00983524
0.00200166
0.00205372
0.0185209
0.00525296
0.00380579
0.00364795
0.00309947
0.0344154
0.0364034
0.00526282
0.00221337
0.00201392
0.0256611
0.0025356
0.00779322
0.00219137
0.00217097
0.00202225
0.00225892
0.00230941
0.0107406
0.00210778
0.0159948
0.00265857
0.00813267
0.00334033
0.00230193
0.00384047
0.0040634
0.0233045
0.0285594
0.0368426
0.00768121
0.00176677
0.00446124
0.00544045
0.0288751
0.0378609
0.00690619
0.00349119
0.00219927
0.00317921
0.00443557
0.0018882
0.00453299
0.0259587
0.00591511
0.018297
0.11498
0.00332435
0.00976279
0.0039826
0.0401258
0.00207769
0.00215445
0.0021852
0.0112184
0.00344023
0.0022949
0.00587932
0.00210014
0.0149688
0.00242105
0.00365175
0.0358767
0.00209599
0.00657878
0.0197612
0.0103404
0.00247465
0.00529048
0.012916
0.0379328
0.00222027
0.00533114
0.00296319
0.00550447
0.0252213
0.00422581
0.0539867
0.00285505
0.0169912
0.00255883
0.0181013
0.00793696
0.00950606
0.0259271
0.00189596
0.00238322
0.0414573
0.0027913
0.00210446
0.02438
0.0159649
0.0178592
0.0033242
0.00219659
0.0843343
0.0198795
0.0192727
0.00722117
0.00212285
0.0328989
0.00304426
0.00443443
0.00203843
0.114203
0.00248378
0.0296688
0.00303635
0.0366572
0.02068
0.00341907
0.0173136
0.0386187
0.0266891
0.0179097
0.0193805
0.00389715
0.0220246
0.0162972
0.0123257
0.00245965
0.0241257
0.00776793
0.0677625
0.0023619
0.0213797
0.00278197
0.0197993
0.00566653
0.0022074
0.0188841
0.00220496
0.0532836
0.0469426
0.0036078
0.0020709
0.00511701
0.00571788
0.00211127
0.0173116
0.00255691
0.0175019
0.00229396
0.00548106
0.0253171
0.00327429
0.0183052
0.0250261
0.00375711
0.0245124
0.00463574
0.00209666
0.00506915
0.0183536
0.00207718
0.0119385
0.00183287
0.00188804
0.00206402
0.00210146
0.0222009
0.0205712
0.0021261
0.00285752
0.0304908
0.00289439
0.00198572
0.00216033
0.00201987
0.00689262
0.040092
0.00213489
0.00872192
0.0034372
0.00926676
0.0225718
0.00210326
0.0112847
0.00458735
0.00197682
0.00416347
0.0467678
0.0353222
0.00229486
0.0025641
0.0020116
0.003625
0.0117328
0.00386646
0.00226963
0.0312738
0.00223119
0.0137305
0.0246893
0.0164075
0.00402973
0.00415737
0.00465453
0.00590682
0.00899354
0.00209665
0.0104155
0.0022288
0.00242172
0.00172579
0.00229972
0.0232725
0.00273223
0.0305437
0.0948995
0.0169311
0.0108272
0.00475445
0.0299444
0.00251692
0.00216031
0.00355091
0.00231691
0.0274377
0.0104261
0.0142706
0.00224688
0.00718701
0.0125067
0.00677512
0.00712644
0.0242922
0.0209466
0.0228261
0.0394258
0.0256639
0.0112915
0.00443616
0.0441633
0.0385133
0.00199887
0.0656708
0.0268499
0.00390344
0.00777945
0.00491271
0.0264515
0.0202151
0.00723507
0.00246782
0.0035166
0.027829
0.0294517
0.0596082
0.0309662
0.00466874
0.0282212
0.00883207
0.00222493
0.00202595
0.0225921
0.0091023
0.0283222
0.0321718
0.00221291
0.0441839
0.00268516
0.0185008
0.00322959
0.00419643
0.038481
0.0195402
0.00370751
0.0258297
0.00297168
0.0208713
0.00833729
0.00203382
0.026253
0.03624
0.0195633
0.0190523
0.00867933
0.0208449
0.0135984
0.0339723
0.00202051
0.0254372
0.00247502
0.00399853
0.00259943
0.0465974
0.00362014
0.0120893
0.00313807
0.0216141
0.0140938
0.00298187
0.025328
0.00193615
0.0294962
0.00616547
0.0305036
0.017832
0.00209676
0.00515352
0.0276776
0.00709789
0.0178951
0.0311069
0.00216303
0.0121221
0.00512575
0.00242005
0.00226727
0.00252067
0.00496953
0.0198005
0.023164
0.00209556
0.0125807
0.00686304
0.00518564
0.0143554
0.00368022
0.00282467
0.0089618
0.00880817
0.0308061
0.0116299
0.0268522
0.00343074
0.00228467
0.0108095
0.00934986
0.0407245
0.0138227
0.0198852
0.00226105
0.0022025
0.012768
0.00295909
0.0135766
0.0160048
0.00469749
0.0359662
0.00220346
0.0232273
0.00442788
0.0320006
0.00218045
0.010634
0.0031511
0.00712765
0.00390761
0.00366542
0.00196909
0.0245099
0.0174603
0.0349213
0.00234992
0.00323066
0.00480308
0.00294041
0.0567152
0.0091588
0.0109955
0.00231605
0.00545973
0.00402429
0.00889012
0.00213488
0.0385352
0.0123282
0.00351326
0.0233622
0.0220942
0.0161896
0.0377299
0.0108361
0.00259501
0.0172513
0.0427348
0.00828427
0.0223379
0.00883561
0.00236414
0.00196184
0.00243529
0.0026802
0.00234025
0.00549953
0.0291168
0.00221994
0.00534012
0.0122322
0.00911089
0.00275902
0.00689871
0.0149671
0.00313959
0.0264454
0.0113955
0.0101526
0.016947
0.00316383
0.042397
0.0152891
0.0281172
0.0333792
0.0179
0.0380951
0.00564626
0.00345872
0.00546727
0.0301662
0.00491684
0.00384235
0.0363322
0.00323189
0.0103089
0.0232399
0.0369486
0.00695161
0.00755976
0.0294059
0.0029174
0.0356528
0.00222409
0.00329415
0.00597572
0.00323638
0.005106
0.00886155
0.00211156
0.0528088
0.0285052
0.00919775
0.00903934
0.0445033
0.00413393
0.0127685
0.00222593
0.00266216
0.0142106
0.00339785
0.00199995
0.0111545
0.0194264
0.00251583
0.00952871
0.0235798
0.00297978
0.00246511
0.00311784
0.00998165
0.00520322
0.00822463
0.012281
0.00881496
0.0092918
0.00494201
0.0184375
0.00316288
0.00230241
0.00930257
0.0040638
0.00772899
0.00598485
0.026206
0.0177444
0.00584085
0.00429253
0.0047961
0.00205166
0.00347849
0.00200101
0.00195339
0.228157
0.00682756
0.00220283
0.0339485
0.00417066
0.00365547
0.0343521
0.00324592
0.00231304
0.00874893
0.00229725
0.00208852
0.00221156
0.0168555
0.0106162
0.0236782
0.00760066
0.00245932
0.0299051
0.0331325
0.0194828
0.00626416
0.0227645
0.00356003
0.00247825
0.00245983
0.00307961
0.0117708
0.0168129
0.00328351
0.00291156
0.00742808
0.0119322
0.00327527
0.00225153
0.00205698
0.0275586
0.00189101
0.0103608
0.0132107
0.0267209
0.0188063
0.0112584
0.00231112
0.020613
0.00254364
0.0023751
0.00273762
0.00203981
0.00243816
0.00203145
0.00240149
0.0020353
0.00962908
0.00466471
0.00609762
0.0269354
0.0219839
0.00301123
0.00537284
0.0266296
0.00265758
0.00847014
0.00213187
0.00208824
0.00219218
0.00379711
0.0111597
0.0022388
0.122634
0.00984433
0.00221007
0.07008
0.00239679
0.0257188
0.012573
0.00300511
0.0142181
0.024077
0.00288847
0.00325724
0.00346602
0.0264275
0.00252539
0.0265869
0.0107004
0.0159106
0.0177602
0.00931764
0.00206156
0.0166334
0.0032987
0.00269034
0.00759332
0.00210394
0.00203908
0.00761958
0.00192631
0.00246444
0.0147725
0.00209843
0.0188312
0.0276125
0.00257106
0.00790307
0.0195336
0.00225529
0.00799648
0.0132625
0.00765372
0.0414632
0.00246515
0.00241994
0.00720218
0.0307161
0.0194626
0.00947706
0.0192048
0.00467614
0.00517298
0.00879424
0.04153
0.00749927
0.00247744
0.00858806
0.00216642
0.00235377
0.0276838
0.00316141
0.00215064
0.00733724
0.00411817
0.0273972
0.00677097
0.00331481
0.00175261
0.0164151
0.00306969
0.0110956
0.00739291
0.0353232
0.00663706
0.011901
0.0238672
0.0061612
0.0240447
0.00293083
0.00804989
0.00210169
0.0660678
0.00184118
0.0098943
0.0202465
0.00961438
0.00435449
0.0343819
0.00288463
0.0034615
0.0215876
0.0495216
0.0209769
0.00184473
0.00365784
0.00233426
0.00896763
0.0222906
0.00370161
0.032987
0.00803033
0.00226133
0.00815931
0.0206988
0.00401909
0.0359651
0.0119749
0.00335684
0.00210569
0.0366203
0.00334345
0.00587312
0.0192232
0.00258685
0.003057
0.00171673
0.00749093
0.00985473
0.019158
0.00262505
0.00364761
0.0353017
0.0259409
0.0185866
0.00234049
0.0102249
0.00282387
0.0216011
0.00232613
0.0270892
0.00468197
0.0154156
0.00263505
0.00214968
0.00434478
0.00442717
0.0337612
0.0284251
0.003793
0.00476882
0.0324996
0.0272014
0.00271755
0.00342033
0.00291061
0.0087666
0.0045826
0.00248329
0.0025378
0.0174397
0.0118259
0.0166236
0.00383013
0.0122339
0.0284735
0.0270407
0.00207041
0.00761654
0.00999511
0.00289214
0.00289791
0.0332172
0.00255893
0.00230278
0.0235555
0.0339587
0.00244583
0.00192659
0.0340619
0.0487316
0.00208554
0.00911157
0.0359004
0.0156368
0.00205802
0.00232351
0.00233717
0.00524585
0.00268027
0.0322437
0.0276243
0.00221367
0.00240509
0.00919876
0.00333786
0.0213632
0.019479
0.0208874
0.00684454
0.0457581
0.00340462
0.00426232
0.010236
0.0181385
0.0389547
0.00206617
0.00195847
0.00645289
0.00218063
0.0083549
0.0032411
0.0221494
0.0185502
0.210898
0.00807026
0.00410088
0.00897915
0.020298
0.01121
0.00678451
0.00396627
0.0104473
0.00328637
0.00234496
0.0083022
0.0200537
0.0315759
0.00282606
0.0325866
0.00646807
0.00592724
0.0115185
0.0349155
0.00382335
0.0167994
0.0446777
0.0376778
0.00494955
0.00213918
0.0052841
0.00516201
0.0123087
0.00781391
0.0515984
0.0260138
0.0233833
0.00194185
0.0089905
0.00394739
0.00804583
0.0082086
0.0050786
0.0368579
0.00635901
0.0359964
0.00270774
0.00772192
0.0310803
0.00191825
0.0101885
0.00515933
0.0112286
0.020452
0.0369642
0.00334693
0.0218453
0.00222596
0.00211508
0.00587228
0.0159564
0.0326284
0.00874674
0.0239209
0.00276761
0.00279983
0.00240177
0.0208025
0.00291131
0.0028723
0.00315054
0.00285942
0.0373251
0.021939
0.0025202
0.0078917
0.0165484
0.00201165
0.00585995
0.0054039
0.00948425
0.0263257
0.131902
0.0227083
0.00308886
0.00244256
0.00596752
0.0352519
0.0271011
0.00365765
0.00649531
0.0155351
0.00193903
0.00295508
0.00268725
0.00234158
0.00196599
0.00284345
0.00411701
0.00734304
0.00684105
0.00720099
0.0142733
0.0168992
0.00192029
0.00516364
0.0272315
0.0200827
0.00223174
0.0305751
0.0038323
0.00976001
0.00250012
0.00375749
0.007165
0.00205824
0.00240944
0.00265358
0.0195658
0.0222411
0.00366649
0.0018863
0.0361976
0.0119987
0.00594532
0.00227977
0.00438034
0.0466646
0.00865239
0.00458786
0.0128584
0.00214945
0.00668006
0.0393882
0.00580747
0.032859
0.0107381
0.043339
0.003056
0.00361961
0.00215423
0.0374608
0.0196586
0.0122616
0.00340053
0.0223618
0.0213122
0.0105708
0.00216312
0.0269016
0.00178421
0.00354274
0.0160132
0.0169558
0.0221235
0.00271435
0.00199312
0.0040439
0.00605726
0.00946195
0.00932399
0.0096647
0.0298013
0.0308465
0.025088
0.010774
0.00199057
0.0283099
0.0466619
0.0213301
0.0344548
0.00322311
0.0321938
0.00239992
0.00206481
0.00395696
0.0162335
0.00245301
0.0273089
0.0169911
0.00203301
0.00260625
0.0063471
0.00988018
0.00259411
0.0368139
0.00516392
0.00321926
0.00224987
0.010491
0.00317675
0.00202723
0.0084698
0.0251216
0.0330057
0.00845022
0.00205506
0.0295793
0.0123166
0.00256915
0.025293
0.027075
0.0092459
0.0445438
0.0148284
0.0384028
0.0222611
0.0266692
0.0400267
0.026185
0.0420526
0.00823949
0.0128923
0.00211105
0.0402457
0.00217212
0.00544287
0.00364488
0.00696518
0.00329945
0.028396
0.00283823
0.0107063
0.010611
0.0019983
0.00525273
0.047492
0.00663084
0.0118827
0.029618
0.030413
0.00443962
0.0105471
0.0329559
0.00371581
0.0043525
0.0020167
0.00266329
0.0215618
0.00680605
0.0117498
0.0110622
0.00440674
0.00426264
0.00248368
0.0105066
0.00323078
0.00497431
0.0105502
0.00857746
0.00817961
0.00647999
0.0112407
0.00218381
0.00490764
0.043183
0.00465337
0.0475971
0.11972
0.0205238
0.00431385
0.00450867
0.00788218
0.00323594
0.0068175
0.0137111
0.00735728
0.0426309
0.0350527
0.0547808
0.0194227
0.0203934
0.00273854
0.0215903
0.0066439
0.0319879
0.0295092
0.00198894
0.0197355
0.0029953
0.00542958
0.00258845
0.026852
0.0223053
0.00589721
0.00372657
0.0408758
0.00454869
0.0178847
0.00812141
0.00211868
0.00338137
0.00223133
0.0091664
0.00958211
0.0116543
0.0157502
0.0267021
0.0222402
0.0305689
0.00791723
0.00225433
0.0138293
0.0182062
0.00945846
0.00351287
0.00335458
0.0195226
0.00483214
0.0324675
0.0158947
0.00358938
0.0216011
0.0126165
0.0101122
0.0063817
0.00872858
0.00373926
0.0106553
0.00906708
0.0026155
0.00762885
0.00270474
0.0363123
0.0376865
0.00564635
0.00886449
0.00365304
0.00790056
0.00975337
0.040761
0.00483504
0.00538061
0.00392829
0.0109677
0.0235053
0.0184672
0.0227592
0.00605296
0.0166744
0.00840124
0.0365724
0.00679597
0.0235696
0.0128625
0.00230962
0.0192871
0.00349234
0.00311665
0.025343
0.0322508
0.00745664
0.067035
0.0033463
0.00262747
0.0120577
0.00384026
0.0178984
0.00657653
0.0296383
0.00802107
0.00622952
0.00193299
0.0452715
0.0028796
0.00558276
0.0127193
0.00479389
0.0272615
0.0027641
0.0284006
0.00356348
0.00596868
0.00410772
0.00513825
0.0236802
0.0357724
0.00565012
0.00213662
0.0241595
0.00807791
0.0290697
0.00565603
0.0182599
0.0394927
0.0100493
0.00383376
0.0114927
0.00221772
0.00711171
0.0042701
0.0296887
0.00216355
0.0277917
0.0137606
0.00234485
0.00224422
0.00563216
0.0378756
0.0218457
0.00223301
0.00218007
0.00392909
0.00376974
0.00343027
0.05237
0.0046876
0.00418852
0.00519512
0.0202951
0.00544991
0.00235295
0.00513662
0.00239916
0.00231375
0.0191168
0.00345746
0.0223405
0.00328164
0.0100599
0.00502211
0.00340381
0.00243338
0.00234008
0.0264151
0.00179576
0.019624
0.0319314
0.00559573
0.0208826
0.00326945
0.0388436
0.0200843
0.0212749
0.012608
0.00564392
0.0293575
0.0295536
0.00429731
0.0103647
0.00213378
0.00890458
0.0363848
0.011532
0.0247049
0.00754921
0.00346022
0.0196469
0.00357604
0.00213861
0.00293252
0.00273615
0.00209425
0.00298808
0.00219897
0.00382068
0.0183295
0.0418381
0.004213
0.043674
0.00654468
0.00627229
0.0125694
0.00201476
0.00560831
0.0250822
0.00240802
0.0235236
0.00974502
0.0174092
0.00511035
0.00202514
0.0131058
0.00842568
0.0231674
0.00582037
0.0063975
0.0113745
0.00421008
0.0453144
0.0318608
0.00211146
0.00573678
0.00245513
0.00872341
0.0515151
0.00198988
0.0166883
0.00197539
0.00309398
0.0280171
0.00349564
0.00264238
0.026994
0.0194199
0.00197703
0.0092356
0.0349034
0.00339525
0.0219943
0.0354315
0.0100087
0.00222766
0.00214477
0.00403642
0.00255431
0.00389127
0.00232158
0.00730574
0.00831754
0.00220573
0.00382149
0.0404278
0.0258037
0.00607657
0.00266344
0.00675636
0.0365605
0.0337856
0.00394446
0.0230824
0.00357257
0.0027013
0.00214908
0.022754
0.0132622
0.00235303
0.00714964
0.00357379
0.00436138
0.0191452
0.0279704
0.00238343
0.0315163
0.0153557
0.0278752
0.0234258
0.0025999
0.00209367
0.00382905
0.00819665
0.0104968
0.0105696
0.00252182
0.00335037
0.0201631
0.00188453
0.00283862
0.00290687
0.0338795
0.00592519
0.0334952
0.0107302
0.0224207
0.0031212
0.00417449
0.0117398
0.0287423
0.0123524
0.0163671
0.0451198
0.00349379
0.0353778
0.01972
0.00242656
0.00270999
0.00199774
0.0260645
0.00811779
0.0211271
0.00209828
0.00305627
0.00258042
0.00231575
0.0238314
0.00414674
0.00684224
0.00205474
0.00249502
0.0025396
0.00284638
0.00209156
0.0405917
0.0280746
0.00702684
0.00192874
0.00402205
0.0238957
0.00226793
0.0181482
0.00612739
0.00433251
0.0118466
0.0202894
0.0182314
0.0429886
0.00322549
0.00419931
0.0190712
0.00630797
0.0414358
0.00337062
0.00192651
0.037015
0.0064485
0.00544527
0.00273833
0.0917352
0.0433617
0.0295489
0.0156222
0.0178666
0.0346029
0.0288822
0.0401636
0.0120594
0.00272703
0.00455092
0.00316359
0.00574785
0.0376722
0.00299223
0.00672105
0.0451485
0.0448634
0.032497
0.0109999
0.0230216
0.0031249
0.0148849
0.00206052
0.00792878
0.0232114
0.0116945
0.00326925
0.00214436
0.00381549
0.00294945
0.00241321
0.0215733
0.00813112
0.00342707
0.00362326
0.0504633
0.0133896
0.00818237
0.00589111
0.00685408
0.00218865
0.0185886
0.033104
0.0383498
0.00970902
0.00196576
0.00174366
0.00386458
0.0179591
0.00805777
0.0238157
0.00957492
0.00263742
0.0236596
0.017541
0.00241017
0.00379661
0.00318365
0.00279612
0.0111659
0.0157833
0.00379033
0.00883406
0.0061148
0.00406779
0.00505302
0.0024336
0.0128394
0.00429748
0.0405429
0.0309246
0.0435994
0.0103826
0.00661362
0.00913898
0.0234821
0.00361165
0.0220478
0.0188725
0.0396896
0.0066452
0.00193612
0.00243423
0.0389317
0.0183383
0.0222396
0.0339338
0.0189228
0.00203347
0.0018087
0.0293234
0.0254041
0.0191287
0.00203765
0.00180824
0.00407762
0.0104549
0.00317818
0.00413753
0.00962553
0.0267158
0.0019347
0.00421386
0.0042769
0.00616931
0.00398344
0.00238553
0.0138566
0.00615583
0.0154119
0.00957136
0.00265358
0.00227644
0.0480306
0.00237377
0.0340629
0.00306927
0.00344103
0.00261899
0.00284086
0.0204245
0.0363922
0.0197524
0.002217
0.0021554
0.00550214
0.00254226
0.0325582
0.0107936
0.00282497
0.00220052
0.00752298
0.0232034
0.0150552
0.00771853
0.00232468
0.00253682
0.00266855
0.00201661
0.0034055
0.00382735
0.0111598
0.00249955
0.00289297
0.00380975
0.0111525
0.0268415
0.0364329
0.0138999
0.00830166
0.00210966
0.00214254
0.0309665
0.00746432
0.00456011
0.00475459
0.0100736
0.00281209
0.00419701
0.0051319
0.0018132
0.0089267
0.00500257
0.0206395
0.00742529
0.00415056
0.035356
0.00587465
0.00348394
0.00466469
0.00296569
0.00213203
0.034916
0.00264877
0.0120205
0.0022225
0.0142912
0.00239604
0.00553809
0.0105089
0.00613554
0.0357705
0.00582366
0.0229001
0.0254362
0.00395134
0.0326655
0.00232026
0.0030159
0.00216662
0.0221899
0.00925444
0.0369803
0.00492214
0.0265438
0.0100469
0.00320313
0.00265666
0.0021763
0.00367963
0.00327556
0.00213394
0.00335843
0.00310286
0.00334229
0.0223937
0.00943516
0.00186103
0.00191305
0.0180378
0.00378829
0.00273693
0.00229066
0.0354696
0.00468627
0.035015
0.00194964
0.0296934
0.0259403
0.00688864
0.00498789
0.00436673
0.00680081
0.0275802
0.00274364
0.0283577
0.0281296
0.00347698
0.0214312
0.0120474
0.00524978
0.00305479
0.037817
0.0179787
0.0287411
0.00238443
0.00278857
0.0165561
0.00322066
0.0106199
0.0171426
0.00495469
0.0250614
0.00455661
0.00336884
0.00226377
0.00284431
0.00221429
0.00201039
0.00624723
0.00172797
0.00350962
0.00242293
0.00813192
0.00966216
0.00189882
0.0131834
0.00330556
0.00373906
0.00321171
0.00389128
0.00185737
0.00433951
0.0248564
0.00292927
0.00188112
0.0181129
0.0062916
0.00197543
0.105941
0.00306964
0.00250362
0.010308
0.00552455
0.0207872
0.00732057
0.00224135
0.00339579
0.0100474
0.0215791
0.0179098
0.00558501
0.0239344
0.0305312
0.0306442
0.00444424
0.00227297
0.00180271
0.00479794
0.00382452
0.00431744
0.017097
0.00786679
0.00205351
0.00183552
0.0018205
0.00175211
0.03244
0.0477736
0.0412906
0.0154927
0.00342752
0.00228151
0.00200472
0.0113146
0.00340256
0.00251705
0.0378525
0.00189265
0.00282874
0.00215496
0.00223169
0.0145622
0.0199321
0.00650325
0.0209778
0.0028369
0.0039889
0.00941835
0.00340544
0.0103072
0.0166376
0.00906471
0.00199793
0.0116857
0.00551099
0.00229048
0.0192103
0.024298
0.00283868
0.00203616
0.0191625
0.0250843
0.0107209
0.0369618
0.0020873
0.00646547
0.0196898
0.00188839
0.00193418
0.0024063
0.00555388
0.00265867
0.00328281
0.0029378
0.00402284
0.011524
0.00387492
0.0160027
0.0135586
0.0204044
0.0020657
0.00689694
0.00279836
0.00447719
0.0103987
0.0086406
0.0380668
0.00871142
0.0388525
0.0106215
0.00408534
0.00332267
0.00227924
0.00320355
0.0273057
0.022311
0.00304279
0.0132798
0.0163757
0.00551726
0.0231266
0.00224594
0.00411391
0.00290312
0.00677356
0.00283948
0.00632177
0.00317009
0.0257073
0.00234729
0.0275931
0.0286754
0.0165416
0.00485203
0.00634438
0.0019121
0.0281868
0.00709246
0.0033921
0.00881505
0.0125736
0.0112787
0.0251642
0.018096
0.0242423
0.0163823
0.00177725
0.0206883
0.00336836
0.0177745
0.0405022
0.0102051
0.0234212
0.0486695
0.0366522
0.00427493
0.00704786
0.00249992
0.0164082
0.00193308
0.0264007
0.00733018
0.0182222
0.00342217
0.00285935
0.040826
0.00495956
0.00307339
0.00317889
0.00473928
0.00524794
0.00257711
0.00310487
0.00262086
0.00425517
0.0257533
0.0110635
0.0214056
0.00328218
0.0333608
0.011259
0.00356434
0.0144287
0.0079808
0.0405353
0.00718568
0.00855086
0.00211481
0.00564392
0.00267232
0.00438087
0.00253621
0.00477407
0.00180403
0.0197265
0.0207642
0.00331267
0.00280668
0.00453625
0.00348939
0.00278875
0.00366489
0.00371111
0.0278949
0.00356057
0.00192042
0.0273663
0.00572653
0.0276903
0.00518493
0.0157044
0.0227449
0.00315285
0.0246425
0.0264511
0.0366481
0.0303998
0.0267132
0.00233294
0.00984673
0.00201792
0.00503077
0.0175842
0.00284305
0.00202546
0.00270391
0.0377276
0.00396921
0.00763268
0.00713699
0.00319784
0.0303664
0.0288319
0.00394069
0.0260709
0.00217812
0.0216866
0.00595503
0.0156976
0.00184468
0.00187939
0.00293676
0.0236871
0.0369991
0.0260277
0.00356478
0.0184145
0.0484786
0.0069563
0.0103257
0.0300529
0.00946637
0.0180173
0.00538296
0.00376141
0.00211269
0.00337514
0.0953031
0.00791219
0.0359891
0.00198777
0.00338641
0.00602659
0.00300647
0.0106237
0.00759862
0.0364953
0.0039283
0.00896756
0.00200904
0.00220849
0.0185992
0.0442109
0.00242589
0.00292519
0.00230361
0.0162202
0.00447003
0.0363626
0.025623
0.0225131
0.00241706
0.0302672
0.00739811
0.0417514
0.0213124
0.00399099
0.0208435
0.0268105
0.0273998
0.00379512
0.00336592
0.00233564
0.0199195
0.00510878
0.00246525
0.00636436
0.00643026
0.00362574
0.00227043
0.00227687
0.035847
0.00338327
0.0134845
0.0155246
0.0224072
0.00218964
0.0023772
0.00957841
0.00380077
0.0442901
0.00717815
0.00549121
0.0401504
0.00295784
0.00274387
0.00380179
0.0185684
0.00220833
0.0200741
0.00195362
0.0182573
0.0378681
0.00221353
0.00266051
0.0164752
0.0038689
0.00263709
0.00238782
0.00212848
0.0187576
0.0293257
0.00244678
0.0037771
0.00394115
0.00301889
0.0205955
0.00465351
0.0189283
0.0161049
0.00300548
0.00220786
0.00925042
0.0035277
0.00633909
0.0252276
0.0655499
0.00217038
0.00302931
0.0206027
0.0309664
0.0116463
0.0037295
0.00405833
0.037704
0.0108209
0.00303758
0.00236105
0.00296729
0.00368927
0.00728218
0.00188611
0.00357435
0.00258099
0.0110573
0.0278513
0.0370427
0.00619958
0.00823227
0.00360323
0.00315314
0.00236255
0.0027238
0.00212426
0.00281101
0.00315738
0.00238161
0.00893705
0.00301736
0.00296888
0.00989711
0.00288209
0.00999499
0.0281606
0.00615656
0.00460478
0.00497444
0.00576567
0.00496134
0.0104313
0.0203453
0.00384099
0.00316029
0.00395226
0.0065848
0.0323233
0.00686201
0.00859831
0.0363052
0.00420073
0.0288158
0.00630573
0.00349081
0.00413054
0.00478502
0.00759772
0.0251099
0.0330506
0.0660108
0.00222959
0.0211208
0.00307736
0.00280095
0.0225267
0.0019087
0.0096886
0.00201948
0.00641311
0.00614656
0.0137481
0.00175002
0.00231635
0.043268
0.00278648
0.0252947
0.0448888
0.00449777
0.0166384
0.00251692
0.00270419
0.00221841
0.00855963
0.0120948
0.00394494
0.00279957
0.0039865
0.0194756
0.0327711
0.00630634
0.00323578
0.00706088
0.00214415
0.0119823
0.00961237
0.00292816
0.00262322
0.00270576
0.0104343
0.0077752
0.0113221
0.00511947
0.00393569
0.00734153
0.00849344
0.0256431
0.00365672
0.0040825
0.00313646
0.00258515
0.0039016
0.00210861
0.0245956
0.00602538
0.0132736
0.0197341
0.00317057
0.013135
0.00190482
0.00241286
0.0039865
0.0364793
0.00916514
0.0036892
0.00231901
0.0179536
0.00285614
0.0128036
0.00524292
0.0122855
0.00748041
0.00344124
0.00278309
0.0453555
0.00451056
0.00267215
0.00295514
0.0100974
0.00355411
0.00317826
0.132285
0.00181802
0.0223165
0.00397211
0.00240353
0.00278544
0.0065272
0.0100458
0.0137982
0.0176038
0.0260339
0.00247361
0.00250116
0.0884053
0.0246211
0.00392264
0.00427954
0.0195878
0.00852182
0.00425755
0.00462158
0.0040418
0.0395558
0.00321707
0.0203341
0.022621
0.00264395
0.0192298
0.0115581
0.0335925
0.0218882
0.0118627
0.0195507
0.00592607
0.0185316
0.00698834
0.0278096
0.0349512
0.00593704
0.0289824
0.0173815
0.00406543
0.0310683
0.00375905
0.0186148
0.0151612
0.0210001
0.00216748
0.029739
0.0278577
0.00495544
0.00354209
0.00563379
0.0215382
0.00466832
0.0114328
0.00577521
0.0157264
0.00915934
0.00187332
0.00962995
0.00218735
0.00434364
0.0050109
0.00241814
0.0465369
0.00564924
0.00665055
0.00328437
0.0313386
0.00658893
0.046581
0.00944642
0.00967064
0.00253053
0.00305859
0.00726594
0.00357926
0.0206724
0.00219242
0.00285619
0.0122877
0.00180716
0.0155943
0.00310673
0.00489204
0.0174155
0.0149955
0.0155817
0.00241715
0.00365886
0.0169588
0.0050535
0.00624346
0.0397077
0.00290758
0.0360495
0.0224432
0.00738534
0.00349252
0.00447519
0.0192652
0.0024478
0.00295754
0.00935651
0.0184866
0.0113249
0.0284525
0.00382822
0.0106086
0.00500344
0.0103061
0.00214332
0.00419074
0.0254826
0.00482402
0.00209344
0.0102623
0.046733
0.0155145
0.00399131
0.0194118
0.0111851
0.0177143
0.00419508
0.0108853
0.020797
0.0203292
0.002118
0.0351633
0.00336356
0.0305509
0.00252384
0.00918044
0.00332593
0.0265579
0.00399808
0.00219146
0.00345507
0.00235757
0.00923924
0.0405167
0.0400077
0.0312663
0.0465573
0.00333964
0.0262069
0.00216558
0.0036877
0.00574648
0.00281268
0.0336153
0.0172658
0.019641
0.00368078
0.0296301
0.003626
0.00970484
0.00439322
0.0173397
0.0263774
0.0304032
0.00325777
0.0191873
0.00268019
0.00570481
0.00579885
0.0193937
0.0203909
0.0064056
0.00887121
0.0221432
0.00231488
0.00316373
0.0124803
0.00968299
0.00419426
0.00306127
0.00301078
0.00218902
0.00237886
0.00856208
0.0120067
0.00247857
0.0471195
0.03042
0.00540635
0.00334602
0.00191192
0.0313229
0.0216564
0.00183057
0.00946051
0.0017872
0.0246518
0.00189413
0.00221311
0.00318742
0.0174131
0.0118531
0.0332616
0.0369151
0.00641979
0.0391709
0.00540938
0.0137347
0.00562575
0.00484483
0.0027449
0.0339115
0.0525889
0.00261317
0.00535829
0.0267747
0.00291104
0.0030815
0.0274833
0.0382473
0.0418011
0.022816
0.0135449
0.0374823
0.0109217
0.00209845
0.0266576
0.0446511
0.00616107
0.00326618
0.0024662
0.00383623
0.00949693
0.0497339
0.00220187
0.0245631
0.00261232
0.0215017
0.00855028
0.00567684
0.00856876
0.00693471
0.0283053
0.00236803
0.0102261
0.00204085
0.0352782
0.00632693
0.0199911
0.00870353
0.0148256
0.0325063
0.00757352
0.00759388
0.00638444
0.0132175
0.00375596
0.0210159
0.0270782
0.0209791
0.00519036
0.00725686
0.00531008
0.0272721
0.00718418
0.0367424
0.0494364
0.00434451
0.00229069
0.0197745
0.0254875
0.0105384
0.00248464
0.00634095
0.00305373
0.00587039
0.00452888
0.00352094
0.00388179
0.00196961
0.0192365
0.0381046
0.00559748
0.00204875
0.00222914
0.0102563