/*--------------------------------*- C++ -*----------------------------------*\
| =========                 |                                                 |
| \\      /  F ield         | OpenFOAM: The Open Source CFD Toolbox           |
|  \\    /   O peration     | Version:  2406                                  |
|   \\  /    A nd           | Website:  www.openfoam.com                      |
|    \\/     M anipulation  |                                                 |
\*---------------------------------------------------------------------------*/
FoamFile
{
    version     2.0;
    format      ascii;
    arch        "LSB;label=32;scalar=64";
    class       volVectorField;
    location    "62";
    object      momentum:momentum;
}
// * * * * * * * * * * * * * * * * * * * * * * * * * * * * * * * * * * * * * //

dimensions      [1 1 -1 0 0 0 0];

internalField   nonuniform List<vector> 
59516
(
(2.22879e-07 -2.47232e-09 -1.14805e-09)
(1.64462e-07 -1.77953e-10 -6.67441e-10)
(2.01515e-07 -1.03839e-09 -8.74965e-10)
(1.71988e-07 1.66076e-09 2.45883e-09)
(1.9999e-07 3.69441e-10 -8.02667e-09)
(5.03649e-08 -2.40661e-09 -5.37989e-09)
(2.09196e-07 -3.56025e-09 -3.78786e-09)
(1.91936e-07 1.20317e-09 -2.23777e-10)
(1.5505e-07 1.25977e-09 -6.72326e-11)
(7.66746e-08 -1.52655e-09 2.98892e-09)
(2.08457e-07 -4.72092e-10 -3.40372e-09)
(1.01558e-07 3.28055e-10 -6.3797e-09)
(3.17638e-07 3.20708e-09 1.31948e-10)
(1.53829e-08 -9.86518e-11 -1.41747e-10)
(1.46673e-07 3.50502e-09 8.13699e-09)
(8.23003e-08 5.71119e-09 -2.54021e-09)
(2.70244e-07 -4.46122e-09 -2.10637e-09)
(1.59728e-07 9.15664e-09 -1.00083e-08)
(3.29742e-07 1.76537e-08 1.7767e-09)
(3.74134e-07 -4.17043e-09 -1.06693e-09)
(9.9376e-08 1.72314e-09 -2.38741e-09)
(3.17454e-07 -2.07252e-09 5.26391e-10)
(3.51278e-07 -2.72402e-09 -6.33196e-09)
(3.35149e-08 -1.0241e-09 -2.85091e-10)
(3.13388e-07 -1.25639e-09 6.12821e-10)
(1.94845e-07 4.51144e-09 1.90677e-09)
(5.044e-08 1.01108e-09 -3.5475e-09)
(7.40317e-08 6.34022e-09 3.18711e-10)
(1.44314e-07 6.10138e-09 -1.37455e-09)
(1.28465e-08 -2.00115e-09 4.89122e-10)
(1.89463e-07 -3.67872e-08 -8.11169e-09)
(8.36727e-08 6.75326e-09 -1.06136e-09)
(1.73327e-07 1.38894e-10 1.05813e-09)
(1.73151e-07 -1.54529e-09 3.13239e-09)
(1.33664e-07 5.29231e-09 3.80529e-09)
(3.99439e-07 8.3716e-10 -1.41e-09)
(1.2462e-08 -1.21411e-09 -1.73323e-09)
(1.31644e-07 5.05245e-09 -1.2742e-08)
(2.66387e-07 -1.09287e-08 -1.11345e-09)
(2.84001e-07 4.04426e-10 -1.37622e-09)
(2.52646e-07 -1.4192e-09 5.99803e-10)
(4.06997e-07 -2.42559e-08 -2.2592e-08)
(3.43339e-07 -9.72933e-09 -8.11099e-09)
(1.08438e-07 -6.95753e-10 3.23123e-10)
(2.64684e-07 -1.03748e-08 -9.36793e-10)
(9.93167e-08 -1.36348e-09 -2.28888e-09)
(3.24337e-07 -7.51949e-09 -1.12841e-08)
(2.55037e-07 -8.29075e-09 -1.69755e-09)
(2.51869e-07 -2.0251e-08 2.78802e-08)
(2.41309e-07 1.10681e-08 8.62208e-09)
(1.63915e-07 1.65027e-08 -2.28735e-08)
(7.36014e-08 -6.45218e-09 4.41109e-09)
(3.11351e-07 2.77913e-09 -6.07678e-09)
(2.96495e-07 -1.34651e-09 3.2921e-10)
(8.20282e-08 5.27202e-09 -4.25566e-11)
(2.46002e-07 5.92905e-09 -1.83445e-09)
(2.03481e-07 1.17032e-08 1.20097e-08)
(7.39895e-08 6.48734e-09 -4.53648e-09)
(2.14362e-07 8.87297e-11 -3.9589e-10)
(1.45869e-07 6.99549e-09 8.77065e-09)
(2.08903e-07 -7.9403e-10 1.04586e-11)
(1.46672e-08 1.85319e-09 -6.41082e-10)
(2.7338e-07 5.90434e-10 1.34933e-09)
(3.44778e-07 6.05141e-09 4.73444e-09)
(2.85302e-07 6.65639e-10 -1.92792e-09)
(2.15551e-07 5.78872e-09 8.28892e-09)
(1.73338e-08 -1.17805e-09 1.58892e-09)
(6.41881e-08 4.19981e-10 -3.83961e-10)
(1.98342e-07 -8.24589e-09 3.62902e-08)
(1.6891e-07 1.57652e-09 -4.52051e-09)
(5.01015e-08 1.36816e-09 4.15639e-10)
(1.58738e-07 2.68826e-09 -3.65547e-10)
(2.23584e-08 1.39824e-09 -3.40137e-09)
(1.86234e-07 2.32151e-09 1.01183e-09)
(3.9224e-07 -6.61088e-10 -1.12605e-09)
(3.60721e-07 -6.23892e-09 -7.75644e-09)
(2.15245e-07 -3.75168e-09 -5.53819e-09)
(2.26916e-07 -4.60613e-10 6.65779e-10)
(8.18246e-08 -2.69989e-09 2.58342e-09)
(1.93356e-07 4.01335e-09 1.02607e-08)
(4.85591e-08 2.9925e-09 1.44268e-09)
(1.71606e-07 4.95977e-09 7.46205e-09)
(1.82938e-07 2.50908e-09 8.06142e-09)
(1.74017e-08 -6.55103e-10 2.43966e-09)
(2.1531e-07 4.92265e-09 9.84009e-09)
(3.88183e-07 -2.68136e-09 3.42283e-10)
(3.04837e-08 -1.12153e-09 4.88756e-10)
(5.01777e-07 -1.97568e-09 -1.57965e-09)
(1.07276e-07 1.34491e-09 4.17743e-09)
(1.6676e-07 1.32066e-08 -9.07769e-09)
(1.83371e-07 -1.2273e-09 -1.60834e-08)
(1.8968e-07 1.90644e-09 -5.18709e-10)
(2.66154e-07 7.93467e-10 -5.95258e-10)
(1.82349e-07 1.26148e-09 -4.52426e-10)
(1.8675e-07 -3.95474e-11 -1.86296e-11)
(1.83416e-07 -1.75684e-08 6.56348e-09)
(1.24073e-07 -2.7064e-10 3.50797e-10)
(8.20354e-08 -3.06461e-09 -6.52669e-09)
(1.15046e-07 4.37014e-09 -1.90692e-09)
(2.07897e-07 -1.07159e-09 2.52752e-09)
(6.01008e-08 9.08715e-10 2.28148e-09)
(2.52238e-08 1.31776e-09 -2.85113e-09)
(2.2292e-08 7.91804e-10 3.0534e-09)
(8.22583e-08 -1.23496e-09 -4.55094e-09)
(2.32184e-07 1.40804e-09 -3.49359e-10)
(1.64852e-07 -5.72929e-10 -5.3522e-10)
(5.32011e-08 4.69359e-09 -1.94354e-09)
(1.34943e-07 3.76671e-10 -1.07157e-09)
(1.71912e-07 -1.18696e-09 4.34741e-10)
(1.83128e-07 1.13386e-09 -7.35286e-09)
(2.80325e-07 2.90205e-08 -3.0454e-08)
(4.15014e-08 4.21864e-09 -6.96698e-10)
(1.81912e-07 2.35758e-09 -1.14643e-08)
(2.19234e-07 3.2379e-08 -1.62515e-08)
(2.23047e-07 -1.21942e-10 2.26072e-10)
(1.33797e-07 1.50118e-09 1.63072e-09)
(1.22549e-07 1.40806e-09 -4.54803e-09)
(1.42891e-07 -1.10861e-10 7.53371e-10)
(1.76132e-08 -2.58259e-10 8.51087e-10)
(2.62766e-07 1.98607e-09 6.00489e-10)
(4.34172e-07 -6.51289e-11 3.15767e-10)
(1.81321e-07 -3.11958e-10 6.9553e-10)
(1.60324e-07 -6.99645e-11 8.54156e-10)
(1.88186e-07 -3.29244e-10 4.17185e-10)
(1.33088e-07 -1.79416e-08 2.74625e-09)
(1.4362e-07 2.10091e-09 -4.92201e-09)
(3.44509e-08 -6.69589e-10 2.25013e-09)
(2.12293e-07 -2.11885e-08 -1.79283e-09)
(1.63212e-07 -5.00516e-09 2.38744e-08)
(1.66469e-07 2.06387e-10 -1.75496e-10)
(2.98381e-07 2.6006e-10 -1.82664e-10)
(3.18239e-07 5.04609e-09 5.47827e-09)
(2.16984e-08 1.29949e-09 -1.48693e-09)
(2.54391e-07 -7.57941e-10 6.34053e-10)
(3.08962e-07 3.3543e-09 9.00136e-10)
(1.93099e-07 -1.00527e-09 -3.74771e-09)
(1.51778e-07 1.8115e-08 -1.26737e-08)
(3.08948e-07 -9.19832e-10 7.71471e-10)
(4.99444e-08 3.47044e-09 1.71572e-10)
(1.568e-07 1.00733e-09 -2.12037e-09)
(7.3652e-08 -1.45278e-09 -3.79469e-09)
(3.46806e-07 -8.9262e-10 2.96861e-10)
(1.3303e-08 5.59177e-10 1.15913e-09)
(1.48632e-07 -1.12175e-09 -8.04591e-10)
(2.22773e-07 6.973e-10 1.75829e-09)
(2.83863e-07 4.67479e-09 1.20007e-09)
(2.02725e-07 -8.13706e-09 -3.16258e-09)
(2.04303e-07 3.41257e-09 -5.58239e-09)
(6.40331e-08 -1.03588e-09 1.78422e-09)
(2.03877e-07 -9.94947e-10 -1.95551e-09)
(3.141e-07 -1.62611e-09 -2.65465e-09)
(4.99831e-08 -1.92832e-09 1.62784e-11)
(3.92311e-07 -2.12037e-09 2.39405e-09)
(2.18797e-07 -4.74447e-11 -3.94472e-11)
(1.55506e-07 -7.05218e-11 3.95445e-09)
(1.39442e-08 -2.55315e-10 1.49693e-09)
(2.72611e-07 -1.22817e-09 -6.29764e-10)
(3.25621e-07 5.12158e-09 -1.82071e-10)
(1.26471e-07 2.17752e-09 4.85389e-10)
(1.50071e-08 1.78504e-09 -1.95457e-09)
(8.67816e-08 2.25196e-09 -4.31941e-09)
(1.0903e-07 -5.87034e-09 -3.56609e-09)
(3.81226e-08 -1.54559e-09 3.7271e-10)
(2.13562e-08 -1.83005e-10 -4.12407e-10)
(1.5891e-07 2.98806e-09 3.93495e-09)
(3.3852e-07 -5.30688e-10 1.94311e-09)
(1.51382e-07 -2.08509e-09 1.07265e-09)
(2.92649e-07 2.03097e-09 -2.01003e-10)
(1.6677e-08 -1.05374e-09 1.88877e-09)
(2.15298e-07 -8.7053e-10 -4.52094e-10)
(8.50099e-08 1.51189e-09 1.22739e-09)
(6.5054e-08 1.05912e-09 -9.9327e-10)
(1.02425e-07 2.72138e-09 1.24027e-09)
(1.504e-07 -7.18858e-11 5.90873e-10)
(8.19731e-08 -1.19367e-09 3.55195e-10)
(4.52783e-07 -5.7064e-09 -1.88287e-08)
(2.54711e-07 -5.12917e-10 -1.26536e-09)
(3.10066e-07 -1.22792e-08 -7.77408e-09)
(1.44721e-07 -1.71131e-09 6.70651e-09)
(5.95955e-08 -1.7078e-10 -8.20281e-10)
(3.07954e-07 5.41394e-09 1.21775e-09)
(4.09164e-08 -3.65171e-09 -1.69303e-09)
(2.83493e-08 -3.33789e-10 -2.2186e-09)
(1.01393e-07 -2.46507e-09 2.965e-10)
(2.15002e-07 6.77548e-10 9.06434e-10)
(9.42995e-08 5.2447e-10 1.14038e-09)
(4.42533e-08 -6.73316e-10 -3.4707e-09)
(1.93079e-08 1.45308e-11 2.63253e-10)
(1.88553e-07 5.65323e-10 -7.7768e-11)
(2.2059e-07 -3.84122e-09 -2.5702e-10)
(1.58806e-07 -5.34383e-10 3.10626e-09)
(1.1069e-07 6.81871e-09 -1.72431e-10)
(2.18182e-07 -1.93498e-09 1.00348e-10)
(9.0684e-08 3.22939e-09 1.39501e-10)
(3.39861e-07 -5.04394e-10 -1.90331e-09)
(2.76898e-08 -2.39395e-10 7.62531e-10)
(9.34282e-08 1.31498e-09 -6.3004e-11)
(5.42019e-08 -1.56008e-09 3.93953e-10)
(1.81335e-07 5.00567e-09 5.96496e-09)
(2.66502e-07 1.09968e-09 -1.07986e-09)
(7.53443e-08 -2.67043e-09 2.35966e-10)
(2.06107e-07 -4.61708e-10 1.78665e-10)
(3.04724e-07 -2.47312e-09 2.42566e-09)
(1.5226e-08 1.64475e-09 -1.13554e-09)
(2.17085e-07 -1.39767e-09 -9.56029e-10)
(2.38938e-07 8.68043e-10 5.29808e-10)
(3.65525e-07 8.51213e-10 -7.27734e-10)
(2.02408e-07 -2.01402e-09 -1.14559e-09)
(1.74095e-08 -5.73485e-10 1.65282e-10)
(2.96708e-07 -5.53447e-09 -3.70897e-10)
(5.84059e-08 4.13021e-09 3.71862e-09)
(2.50583e-08 -4.13281e-09 -6.84948e-10)
(2.31176e-07 1.84724e-10 -2.45688e-09)
(9.13284e-08 -2.01908e-09 1.24743e-09)
(2.88182e-07 3.95501e-09 1.27247e-10)
(2.96223e-07 2.00314e-10 -7.08309e-10)
(2.72808e-07 3.31747e-09 1.34373e-09)
(2.09074e-07 -1.93944e-09 6.41695e-10)
(7.97289e-08 3.21281e-09 -4.29876e-09)
(2.20526e-07 -1.50403e-10 1.11489e-09)
(1.14083e-07 4.32102e-09 4.1451e-09)
(1.92457e-07 8.45068e-10 4.48534e-10)
(1.84476e-07 8.63052e-10 1.11314e-09)
(7.01075e-08 -2.91477e-10 1.13986e-09)
(3.07356e-07 2.35294e-10 -7.97763e-10)
(3.21942e-07 -5.09869e-10 -7.85768e-10)
(3.05997e-08 -3.64403e-10 1.54919e-09)
(6.26027e-08 2.01475e-09 -2.96206e-09)
(2.06376e-07 6.36385e-10 8.794e-10)
(1.13449e-07 5.88021e-10 -8.71033e-09)
(2.49424e-07 -8.73516e-10 -7.3272e-11)
(1.86664e-07 3.34263e-10 -4.51593e-10)
(3.42199e-07 1.15713e-09 1.30882e-09)
(2.54607e-08 -1.97537e-09 -1.43824e-09)
(2.98199e-08 7.99121e-10 -1.41534e-09)
(3.7334e-08 1.03667e-09 -1.35452e-09)
(1.05111e-07 6.82366e-10 -2.79004e-11)
(1.69604e-07 -2.04803e-09 1.19486e-09)
(4.2622e-07 2.92659e-09 3.63025e-09)
(8.33979e-08 -1.86019e-09 2.34561e-09)
(2.68902e-07 -3.47972e-10 6.79702e-10)
(1.77701e-08 3.13444e-10 2.62689e-09)
(1.05885e-07 8.63663e-11 1.83531e-09)
(2.54635e-08 1.34448e-10 2.82913e-09)
(1.74432e-07 4.57264e-10 5.5742e-10)
(1.48041e-07 -9.68368e-10 -1.6397e-10)
(1.97935e-07 3.90607e-10 1.71739e-09)
(1.8026e-07 3.05623e-09 -4.08695e-09)
(2.8504e-07 3.52483e-10 -1.21265e-09)
(1.95496e-07 8.68087e-10 1.03679e-09)
(3.89282e-07 6.19525e-10 2.50218e-10)
(2.12769e-07 -1.62732e-10 1.19141e-09)
(2.07816e-07 4.56935e-10 7.82097e-10)
(2.82484e-07 1.85482e-09 -1.94274e-09)
(2.84024e-07 2.23205e-09 2.46929e-09)
(3.04836e-07 -2.89095e-10 2.16804e-09)
(1.07592e-07 3.34576e-11 -5.18808e-10)
(2.86854e-07 1.95684e-09 3.62907e-09)
(7.67622e-08 -8.21735e-10 -4.2635e-09)
(9.37887e-08 7.29269e-10 3.25289e-09)
(2.15705e-07 1.44906e-09 -1.8076e-09)
(2.67461e-07 -4.70594e-10 4.49941e-10)
(2.34154e-07 6.8433e-09 3.35892e-09)
(2.98093e-07 5.42798e-10 5.0957e-10)
(7.21565e-08 1.53578e-10 1.56931e-09)
(1.02849e-07 3.91848e-09 -2.88374e-09)
(3.09922e-07 -4.13678e-10 -2.78322e-09)
(2.08606e-07 4.61695e-09 1.12113e-09)
(5.84919e-08 -9.99911e-10 -9.6243e-10)
(7.15307e-08 4.20601e-10 -2.07626e-09)
(1.63476e-07 1.89456e-09 -5.80573e-09)
(1.94587e-07 -1.46878e-11 -2.82601e-10)
(2.99691e-07 -7.8184e-09 1.73361e-10)
(1.44301e-07 -2.51042e-09 1.44797e-09)
(3.42417e-07 -2.13058e-09 -1.32087e-09)
(1.83802e-07 -1.2589e-09 4.68691e-09)
(1.83432e-08 2.20718e-09 -1.23783e-09)
(3.02457e-07 7.16147e-10 1.33962e-09)
(2.72062e-08 1.74682e-09 -2.35433e-09)
(4.9867e-08 -2.04735e-09 1.41376e-09)
(3.78115e-07 1.2255e-09 1.98193e-09)
(2.48461e-07 5.59655e-10 -6.89652e-10)
(2.64619e-08 2.83086e-09 2.81883e-09)
(2.92684e-07 2.03647e-09 1.23853e-09)
(2.41279e-07 4.95405e-09 -1.9564e-10)
(2.53285e-07 -2.58097e-09 3.23107e-09)
(3.44914e-07 -6.88308e-10 5.85786e-10)
(2.19419e-08 2.60607e-09 4.54336e-10)
(2.9839e-07 1.03666e-09 5.4212e-10)
(1.61079e-07 1.08731e-10 1.43643e-11)
(1.66787e-07 1.98822e-10 6.596e-10)
(2.51266e-07 1.7165e-09 1.49477e-09)
(1.70304e-07 8.93787e-10 7.65249e-10)
(1.7185e-07 1.00325e-09 -3.22224e-10)
(2.72907e-07 1.0146e-09 4.27711e-10)
(3.66644e-08 -1.31917e-09 -1.68803e-09)
(2.90121e-07 -3.04232e-10 8.60315e-10)
(1.89517e-07 -3.44178e-10 -8.83261e-10)
(3.89084e-07 7.6688e-10 4.1222e-10)
(2.78735e-07 1.65007e-09 1.15409e-09)
(3.03925e-07 -1.08964e-09 1.66804e-09)
(1.30216e-07 2.1013e-09 2.89728e-09)
(1.87019e-08 -2.90224e-10 1.29317e-09)
(3.34488e-08 -8.14168e-10 5.41632e-10)
(5.1485e-07 -3.48165e-09 -3.29787e-09)
(1.7083e-08 -9.9189e-10 2.45905e-09)
(1.66736e-07 -8.98843e-10 -2.98228e-09)
(7.02772e-08 3.9292e-09 1.53363e-09)
(3.23557e-07 1.62041e-09 1.612e-09)
(3.85581e-07 -9.78092e-10 -6.99998e-10)
(3.16084e-07 -6.83593e-11 -2.00816e-09)
(1.18068e-07 3.16279e-10 -2.73526e-09)
(2.88007e-07 4.83172e-09 -7.02589e-09)
(6.42474e-08 -5.40903e-09 4.33919e-09)
(8.63351e-08 2.10674e-09 1.69489e-09)
(2.03906e-07 1.12845e-09 -9.44101e-12)
(1.51311e-07 1.54246e-09 -1.45548e-09)
(2.69465e-07 3.08739e-08 8.75896e-09)
(1.87133e-07 -4.14803e-09 1.92287e-09)
(6.08902e-08 -2.32e-10 -5.66818e-10)
(9.85575e-08 -1.43657e-09 3.20297e-09)
(2.02425e-07 -1.88723e-09 -3.13401e-09)
(2.24312e-07 -6.22235e-11 -5.76943e-10)
(4.46909e-07 -2.11845e-09 2.10511e-09)
(2.39967e-07 4.73748e-10 1.42803e-09)
(4.94436e-07 -4.37115e-09 1.18837e-09)
(1.66582e-07 6.64075e-09 7.96023e-09)
(3.32531e-07 1.66033e-09 2.34091e-09)
(2.85323e-07 1.11958e-09 1.63165e-09)
(2.00061e-07 -9.9057e-10 1.17405e-10)
(3.43272e-07 -1.99015e-09 1.66456e-09)
(1.0057e-07 2.04052e-09 -6.16438e-09)
(2.19484e-08 -1.48232e-09 -2.56559e-09)
(2.95256e-07 -2.74591e-09 4.0126e-10)
(5.49524e-08 -2.71435e-09 3.02942e-09)
(2.65858e-08 6.68544e-11 3.65703e-11)
(4.01352e-07 1.25163e-09 4.66015e-09)
(1.98565e-07 3.26389e-11 5.01998e-10)
(1.06144e-07 -2.24056e-09 -5.41848e-09)
(2.64113e-07 -9.2521e-10 4.63031e-10)
(3.33833e-07 -1.28906e-09 8.38919e-10)
(4.49533e-07 -5.20962e-10 -1.12038e-09)
(2.77129e-07 -1.99086e-09 -6.84669e-10)
(2.9538e-08 1.43101e-09 6.76466e-11)
(3.18838e-07 -7.9517e-10 1.44385e-10)
(2.29703e-07 -8.04068e-10 6.23772e-10)
(9.41384e-08 2.60796e-10 1.43601e-09)
(3.13069e-07 6.66664e-12 1.65696e-09)
(2.63162e-07 -1.21324e-10 3.49171e-10)
(1.71321e-07 -8.88388e-11 -1.19514e-09)
(1.968e-07 4.93666e-10 -1.64285e-09)
(2.7883e-07 -2.09801e-09 3.10027e-09)
(2.00567e-07 -1.58062e-09 2.99977e-10)
(7.46946e-08 -3.93024e-10 -1.14174e-10)
(1.90311e-08 8.03428e-10 -6.15139e-10)
(3.71914e-08 -2.79389e-09 -1.77139e-10)
(2.11915e-07 1.0228e-09 -8.49855e-10)
(2.67861e-07 -2.1092e-08 3.30084e-08)
(1.15791e-07 -6.52241e-09 -9.4463e-09)
(1.0683e-07 5.38218e-10 5.64986e-10)
(2.41935e-07 2.06337e-10 4.30904e-09)
(3.05589e-07 1.13008e-10 2.74915e-09)
(2.32401e-07 -2.4197e-09 6.1271e-09)
(3.607e-07 -2.12878e-09 2.10872e-09)
(3.33572e-07 -2.33356e-09 -1.39527e-09)
(2.24026e-07 -1.27225e-10 8.20568e-10)
(1.39061e-07 7.99542e-10 2.6962e-10)
(2.25956e-08 -7.13474e-10 -2.66296e-10)
(2.41094e-07 -4.75461e-08 5.8448e-09)
(8.31564e-08 2.08378e-09 6.50122e-10)
(6.0242e-08 -2.65296e-09 -6.09266e-10)
(6.39387e-08 1.40858e-09 5.0757e-10)
(1.75724e-07 -6.36606e-10 -5.46048e-10)
(1.68063e-07 -1.04759e-09 -1.46903e-11)
(2.38455e-07 8.61517e-10 -1.80845e-09)
(1.58731e-08 8.47947e-10 -1.36199e-09)
(1.66628e-07 -4.37752e-10 4.41232e-10)
(6.10548e-08 1.42491e-09 -1.19976e-09)
(1.90799e-07 -1.83648e-10 -7.34488e-11)
(5.25065e-08 -7.27231e-10 -5.71718e-10)
(1.42217e-07 -3.27862e-09 2.50235e-09)
(2.10784e-07 -5.74173e-09 1.47902e-09)
(1.85506e-07 -1.516e-09 1.28588e-09)
(1.76223e-08 1.37074e-09 -1.91144e-09)
(1.07462e-07 -1.18441e-09 4.34011e-09)
(2.36001e-07 -3.37805e-10 9.33957e-10)
(2.3551e-08 -1.4649e-09 -1.91631e-09)
(2.89733e-07 2.91921e-09 2.11451e-08)
(1.77887e-07 -1.30087e-09 4.08868e-09)
(2.99477e-07 -1.50771e-09 -4.84988e-09)
(1.9371e-07 4.26812e-09 -6.17695e-09)
(9.02466e-08 -1.31996e-09 2.21868e-09)
(3.99783e-07 1.05876e-09 7.50393e-10)
(1.42011e-07 -1.45646e-08 -1.32239e-08)
(3.4942e-07 1.81478e-10 -1.24566e-11)
(1.55531e-07 1.20856e-08 1.26051e-08)
(1.35578e-07 -6.30877e-09 8.21342e-10)
(1.37896e-07 -1.06751e-09 -3.13731e-09)
(2.85278e-07 -1.49932e-10 4.99808e-10)
(5.62915e-07 3.80062e-10 9.92645e-10)
(7.63955e-08 -7.72603e-10 9.25787e-10)
(3.31263e-07 7.70169e-10 -1.54304e-09)
(1.1527e-07 -5.49574e-10 -2.69045e-09)
(4.60502e-07 8.0478e-10 9.93406e-10)
(3.50705e-07 -4.99297e-10 1.80637e-09)
(6.61528e-08 1.96025e-09 -5.07393e-09)
(2.14749e-07 -1.84605e-09 3.80703e-10)
(3.81162e-07 -4.76174e-09 4.50914e-09)
(2.27714e-07 9.81232e-10 -1.13933e-09)
(2.23291e-07 1.17493e-09 7.49676e-10)
(2.23094e-08 -7.69927e-10 -2.79805e-09)
(1.88056e-08 9.24373e-10 -2.35267e-09)
(2.89821e-07 2.613e-09 -3.76529e-09)
(2.96135e-07 -1.38935e-10 -2.63286e-10)
(2.33658e-07 -1.42019e-09 -9.12166e-10)
(3.38717e-08 3.60652e-10 -2.55228e-09)
(9.19525e-08 -8.63602e-10 9.68013e-11)
(2.94137e-07 -2.95452e-09 -2.59299e-09)
(1.76699e-07 -3.44463e-11 -2.23248e-10)
(3.22644e-07 -7.0696e-10 2.1657e-09)
(3.00868e-07 -4.65375e-10 -8.56634e-10)
(2.26395e-07 8.97599e-10 9.06036e-10)
(2.40242e-07 2.27089e-09 5.90955e-10)
(1.17362e-07 7.37599e-10 4.13202e-10)
(2.24684e-07 7.61695e-10 -2.84992e-10)
(8.44276e-08 -1.56775e-09 -3.99163e-09)
(2.95577e-07 2.59418e-11 -1.03908e-09)
(1.84723e-07 -6.16264e-10 -1.84944e-09)
(2.16632e-07 5.5998e-10 1.46749e-09)
(2.30355e-07 1.33023e-10 -3.76278e-10)
(3.4917e-07 -1.01504e-09 2.40315e-10)
(2.66863e-07 2.30576e-10 -2.65697e-09)
(6.43017e-08 3.67719e-09 3.48351e-09)
(4.24601e-08 1.13013e-09 2.9624e-10)
(1.83557e-08 1.5915e-09 -1.8082e-09)
(2.32351e-07 6.45809e-09 1.14956e-08)
(3.11052e-07 -3.36519e-10 -3.77184e-10)
(2.71996e-07 -1.24125e-09 1.28728e-09)
(1.89939e-07 1.34503e-09 9.42693e-11)
(2.83012e-08 -1.09531e-10 1.08092e-09)
(2.13196e-08 -3.32013e-10 2.4449e-09)
(1.76661e-07 -1.06458e-09 2.62014e-09)
(2.35328e-07 1.73574e-10 2.17229e-09)
(3.23907e-07 -4.33481e-10 1.20458e-09)
(3.21157e-07 1.1811e-09 5.84967e-10)
(1.96369e-07 -1.69755e-09 -9.51075e-10)
(3.64277e-07 -4.74783e-11 4.78819e-10)
(3.71567e-07 1.88119e-09 3.05761e-09)
(3.00386e-08 -5.82212e-10 2.80979e-09)
(1.79985e-07 -3.01239e-10 1.37503e-09)
(6.96802e-08 6.44842e-10 3.65098e-09)
(9.75822e-08 -9.75268e-09 2.09183e-09)
(1.30011e-07 4.15737e-10 4.61252e-10)
(1.37923e-07 8.9347e-10 -2.45147e-10)
(2.53222e-07 -1.76946e-10 4.21604e-10)
(1.82495e-08 -3.45482e-09 -1.24025e-09)
(3.70539e-07 3.77228e-10 -1.25e-09)
(2.79966e-07 -4.11427e-10 9.39782e-11)
(2.25356e-07 -2.1792e-11 9.37156e-10)
(1.95973e-07 1.96092e-09 9.70735e-11)
(1.72576e-07 -1.08393e-09 1.98646e-09)
(2.70983e-07 3.44604e-10 5.41692e-10)
(2.42971e-07 9.61887e-10 6.44159e-10)
(3.21355e-07 5.09127e-10 3.63518e-10)
(1.66402e-07 6.96759e-09 -5.87252e-09)
(2.75246e-07 1.65164e-10 -6.0599e-10)
(2.9027e-07 -5.66538e-09 -7.04211e-10)
(1.76045e-08 -1.11577e-09 1.2725e-09)
(3.19181e-07 8.48573e-10 3.04822e-10)
(1.88533e-07 3.85462e-09 1.70474e-10)
(6.20074e-08 -1.80657e-09 5.1735e-09)
(1.67428e-07 1.64965e-09 -2.94905e-09)
(3.52397e-07 7.99911e-10 -1.80658e-10)
(2.20669e-07 -6.80523e-10 2.12448e-09)
(1.14576e-07 3.40937e-10 -3.20768e-09)
(1.7266e-08 -1.573e-09 -1.69864e-09)
(2.6458e-07 5.46412e-10 -4.07422e-10)
(3.31525e-07 4.65869e-09 -5.00731e-09)
(2.39213e-07 -5.98426e-10 -8.96703e-10)
(1.85514e-07 -3.46697e-11 1.21242e-09)
(5.49311e-08 2.54209e-09 2.40259e-09)
(2.51194e-07 -2.54358e-11 -3.52866e-10)
(2.64227e-08 2.13563e-09 -3.41209e-09)
(1.7713e-07 2.1879e-10 -8.3473e-10)
(2.08665e-07 2.32545e-08 -7.44761e-09)
(2.62242e-07 -2.3768e-09 -1.0764e-09)
(8.44874e-08 7.78917e-11 3.01194e-09)
(1.78431e-07 -2.00575e-09 -2.84414e-09)
(1.12467e-07 4.27033e-11 -1.44757e-09)
(4.54406e-08 2.53514e-09 2.36959e-09)
(4.98251e-07 4.54525e-10 -3.77736e-10)
(2.20755e-07 -5.04448e-10 5.28176e-10)
(1.67864e-08 5.71208e-10 1.64077e-09)
(2.86377e-07 8.8682e-10 6.02512e-10)
(3.0117e-07 6.88384e-10 8.98641e-10)
(3.71501e-08 -9.12098e-11 -2.28663e-09)
(1.23268e-07 5.43923e-09 -2.44868e-10)
(9.54485e-08 3.56791e-09 2.47955e-09)
(1.92347e-07 -5.18942e-10 9.02177e-10)
(2.73294e-07 -5.72713e-10 7.95159e-10)
(3.49679e-08 -9.38863e-10 1.60206e-09)
(8.69816e-08 -2.91399e-09 -9.13502e-10)
(9.80719e-08 1.93274e-09 -1.53827e-10)
(1.7293e-07 2.44655e-09 7.46916e-10)
(3.55343e-07 -1.78134e-10 1.3037e-09)
(2.25402e-08 1.23905e-09 -2.92824e-09)
(3.68479e-07 -1.35519e-09 1.70989e-09)
(2.37089e-07 6.33168e-09 -1.37422e-09)
(2.86871e-07 -5.83698e-10 1.28723e-09)
(1.14195e-07 4.90137e-09 -4.72419e-09)
(3.38108e-07 9.62063e-11 6.44849e-10)
(2.18556e-08 -2.99436e-10 -2.38057e-09)
(2.99008e-07 -2.54719e-09 -1.25039e-09)
(2.64596e-08 -3.78167e-10 -5.03453e-11)
(1.35572e-07 -3.63288e-09 2.01732e-09)
(2.2728e-07 -1.78676e-09 1.09186e-10)
(1.32278e-07 -3.96921e-09 -1.34394e-09)
(1.81442e-08 2.11439e-09 1.87695e-09)
(4.84718e-08 9.78481e-10 -1.52065e-09)
(7.2462e-08 -3.95895e-09 2.75948e-09)
(1.27229e-07 2.5923e-09 -3.68922e-09)
(3.24105e-07 2.92064e-10 -2.38441e-09)
(5.54727e-08 -1.29298e-09 9.51958e-11)
(1.31668e-07 4.28333e-09 -2.18514e-09)
(2.25785e-07 -1.25743e-08 -2.43188e-08)
(2.21047e-07 1.61203e-10 3.27252e-10)
(2.7723e-08 1.78031e-09 3.27439e-10)
(2.22144e-07 7.72151e-10 -2.43074e-09)
(1.4728e-07 1.60817e-08 -6.36143e-09)
(2.07878e-07 1.10261e-10 -4.49292e-10)
(9.76484e-08 -1.06822e-10 -2.4823e-09)
(1.81411e-07 7.82065e-11 1.09831e-09)
(1.02788e-07 -4.16959e-09 -3.13094e-09)
(1.59252e-07 1.11096e-09 7.58443e-10)
(1.673e-07 -3.13095e-10 -1.06312e-09)
(6.92874e-08 2.97703e-09 -6.22386e-09)
(3.05504e-07 2.72367e-10 -4.28569e-10)
(7.10237e-08 3.37563e-09 3.59139e-09)
(1.47357e-08 2.23872e-09 8.38273e-10)
(3.174e-07 1.58727e-09 -1.07078e-09)
(1.99934e-07 -4.19652e-10 -1.75611e-10)
(2.90267e-07 2.4046e-09 -1.1395e-09)
(2.2431e-07 3.00291e-09 -1.64905e-09)
(4.86526e-07 -2.15778e-09 -3.05534e-10)
(1.32676e-07 3.98603e-09 -6.36656e-10)
(4.18668e-07 -1.79332e-09 7.31304e-10)
(9.48315e-08 -3.13087e-09 3.95604e-09)
(1.57804e-07 1.34044e-10 -1.79759e-11)
(3.01647e-07 -3.17463e-09 -3.38211e-09)
(3.0935e-08 8.00896e-10 -4.28465e-09)
(3.04306e-07 1.72991e-09 -1.96214e-09)
(1.09444e-07 8.36161e-11 3.46605e-09)
(2.84897e-08 -2.01034e-09 -2.15638e-09)
(2.75545e-07 -2.84097e-09 -8.98117e-10)
(5.98758e-08 -1.73074e-09 1.53237e-09)
(2.02102e-07 -2.3497e-10 1.03252e-11)
(2.35422e-07 -5.74711e-10 1.02177e-09)
(3.71659e-07 6.06039e-10 2.85359e-10)
(9.28834e-08 -4.18785e-09 -4.55866e-09)
(3.02261e-07 1.06934e-09 7.35132e-10)
(1.47992e-07 -2.28116e-09 2.24105e-09)
(3.36608e-07 1.67267e-10 1.11459e-10)
(3.36371e-07 -2.42091e-10 8.49878e-10)
(2.98124e-07 -8.17349e-10 1.78217e-09)
(1.77712e-07 -6.25485e-10 -6.77827e-10)
(4.65801e-08 -2.63482e-09 -2.25373e-09)
(6.73452e-08 4.50883e-10 -5.54677e-10)
(1.88135e-07 -7.92456e-10 -4.32378e-10)
(2.91931e-07 6.03331e-11 3.01911e-09)
(2.69645e-08 -1.99443e-09 -8.87057e-10)
(2.52451e-07 -4.09014e-10 1.07954e-09)
(4.99843e-07 3.35002e-10 1.14157e-09)
(3.67108e-07 -4.04896e-10 -6.85908e-10)
(4.00872e-07 -1.07437e-09 -5.74147e-10)
(2.43308e-07 4.43137e-10 -4.16409e-09)
(1.92106e-08 1.96468e-09 1.6599e-09)
(2.3823e-07 6.35714e-10 -1.7858e-10)
(1.44144e-07 -1.29044e-09 -1.64082e-09)
(2.69741e-07 2.29937e-09 1.27265e-09)
(1.56716e-07 6.1106e-10 -3.28252e-10)
(3.37021e-08 2.37922e-09 -9.57557e-11)
(2.26861e-07 -1.57356e-10 4.20717e-10)
(1.46857e-07 3.97629e-09 4.07679e-09)
(2.41955e-07 4.0743e-10 3.94415e-10)
(2.92531e-07 -2.18754e-10 -8.62167e-11)
(1.99358e-07 -2.35222e-09 2.02471e-11)
(1.30072e-08 1.21379e-09 -1.51677e-09)
(1.90556e-08 -1.1965e-09 -1.85055e-09)
(1.99237e-07 8.11207e-10 2.14452e-10)
(3.21448e-07 -1.89655e-09 -1.86848e-09)
(2.49126e-07 -1.40366e-10 1.58334e-09)
(1.86287e-07 -7.37041e-10 1.51245e-09)
(1.56272e-07 -2.4585e-09 1.06023e-09)
(2.5678e-07 -1.76176e-09 -1.02253e-09)
(3.04263e-07 4.62794e-10 1.71235e-09)
(1.8517e-08 1.64405e-09 4.04014e-10)
(1.5966e-07 7.04918e-10 4.3248e-10)
(1.74184e-07 -1.95578e-08 -5.92135e-10)
(4.39727e-08 -7.33747e-10 2.37987e-09)
(8.21798e-08 -5.24188e-09 1.30811e-09)
(3.05548e-07 1.57826e-10 -2.06819e-09)
(2.10942e-07 -2.17672e-09 1.54046e-09)
(1.96168e-07 5.26244e-10 -3.97512e-10)
(2.31834e-07 -1.13235e-09 1.26673e-09)
(1.35088e-07 -4.60111e-09 1.53722e-09)
(3.60734e-07 -2.04427e-10 1.17214e-09)
(1.75041e-07 1.65585e-09 -5.56609e-09)
(4.48063e-07 7.20384e-10 -5.15759e-10)
(2.29321e-07 1.09035e-09 1.05015e-10)
(2.5825e-07 1.55153e-10 2.93328e-10)
(3.35675e-07 2.27403e-11 2.65573e-10)
(4.54655e-08 -3.51715e-10 2.27021e-09)
(5.55197e-07 4.70526e-10 -3.19035e-11)
(3.19393e-08 1.01339e-09 -1.29765e-09)
(1.48944e-07 -1.45028e-08 8.55963e-09)
(1.11677e-07 3.75158e-09 2.99696e-09)
(1.61643e-07 -3.21388e-09 -1.66157e-08)
(2.11289e-07 -9.86839e-10 -1.31543e-09)
(2.9078e-07 -4.72131e-08 -1.05214e-08)
(1.46302e-07 3.3637e-10 -4.71647e-10)
(3.35942e-07 -1.239e-09 -3.4846e-10)
(3.42738e-07 3.98694e-09 -6.03871e-12)
(2.2502e-07 -4.27414e-10 3.19522e-10)
(3.31669e-08 2.95905e-10 -6.28025e-10)
(1.18483e-07 -4.44375e-09 -2.98173e-09)
(2.10306e-07 -3.91911e-09 -2.99353e-08)
(2.30929e-07 2.28745e-10 2.58438e-10)
(9.80962e-08 -1.97435e-09 -5.89906e-10)
(2.18239e-07 -2.16364e-08 -7.63764e-09)
(2.39177e-07 -6.11225e-09 6.90731e-09)
(3.01715e-07 2.35569e-09 2.7005e-09)
(4.21539e-08 -8.34041e-10 1.55435e-09)
(5.18783e-08 -2.55374e-09 1.40105e-09)
(2.59103e-08 1.22515e-10 -2.37115e-10)
(1.85903e-08 1.53098e-10 -1.41767e-09)
(4.22114e-08 -7.89941e-11 1.87276e-10)
(2.21592e-07 -1.6164e-08 9.21776e-09)
(1.82544e-07 -9.41917e-10 1.09133e-09)
(1.76958e-08 -6.37512e-10 2.4542e-09)
(1.95421e-08 1.39604e-09 2.14759e-09)
(3.87599e-07 5.74867e-11 -4.96154e-10)
(1.6616e-07 -2.1826e-08 1.48313e-08)
(4.47414e-08 1.92929e-09 6.73511e-10)
(2.28302e-07 2.68879e-10 -1.07003e-09)
(1.05001e-07 -1.22112e-09 -1.39957e-09)
(2.00845e-07 4.20973e-10 1.90585e-09)
(4.23773e-08 2.20882e-09 -1.18735e-09)
(9.0566e-08 2.80641e-09 -1.08539e-09)
(1.88395e-07 -2.17998e-09 2.69519e-11)
(2.82145e-07 -1.21927e-10 -1.52396e-09)
(4.04039e-07 -6.51113e-10 -1.86042e-09)
(4.07332e-08 3.38932e-09 -1.14307e-09)
(2.34391e-08 -1.82842e-09 1.0909e-09)
(2.01613e-07 -2.88088e-08 -2.1383e-08)
(2.66619e-08 -3.4715e-09 2.03701e-10)
(3.08735e-07 -1.52431e-09 -2.41848e-09)
(2.72529e-08 1.52452e-09 -3.3628e-09)
(1.44511e-07 -7.44969e-10 3.02875e-09)
(3.27222e-07 -2.40702e-09 4.26168e-10)
(4.49278e-07 -8.99958e-10 2.83048e-09)
(5.6341e-08 8.49487e-10 -1.02449e-09)
(1.36309e-07 -2.6656e-10 -1.50759e-09)
(3.72654e-08 1.36624e-09 -1.58993e-09)
(2.76235e-08 3.27009e-09 -1.17051e-09)
(2.80157e-07 -1.11146e-09 -6.37913e-10)
(1.39561e-08 -1.1863e-09 -1.78323e-09)
(1.87749e-07 -4.68181e-10 -5.38495e-10)
(5.88093e-08 1.4121e-09 -2.78572e-09)
(3.30224e-07 -2.88468e-09 -4.96097e-10)
(2.26256e-07 -1.34005e-09 -2.44897e-10)
(1.83308e-08 -4.80488e-10 2.91151e-09)
(1.30357e-07 -6.53937e-09 7.14597e-10)
(2.49528e-07 1.00554e-09 1.07355e-09)
(3.00924e-08 -1.47635e-09 3.76546e-11)
(2.97654e-07 9.29367e-10 -9.81576e-10)
(7.65214e-08 -3.06855e-09 4.75599e-09)
(2.0938e-07 3.50146e-10 4.22868e-11)
(2.44858e-07 -3.24258e-10 2.13089e-10)
(5.31271e-08 1.58891e-09 1.06279e-09)
(2.03928e-08 8.70218e-10 -2.62076e-09)
(8.87667e-08 1.80381e-09 -7.5906e-10)
(2.43644e-07 3.82142e-08 8.20998e-09)
(2.19976e-07 8.116e-10 1.07075e-09)
(7.45485e-08 -3.54403e-09 3.59358e-09)
(1.77387e-07 8.0521e-10 2.33506e-09)
(2.32952e-08 -8.79776e-10 5.38082e-10)
(2.18359e-07 -5.32405e-10 -1.54919e-10)
(2.23705e-08 -3.6486e-10 -1.74405e-09)
(3.43461e-07 -7.52788e-10 -1.63833e-09)
(3.00046e-07 6.4059e-10 9.42381e-11)
(2.27666e-07 4.36144e-10 -7.98254e-10)
(1.37929e-08 1.35756e-09 3.65514e-11)
(3.45002e-07 9.4329e-10 9.58416e-10)
(1.53562e-07 2.01468e-09 6.99697e-10)
(3.63359e-07 -2.52078e-10 1.94291e-10)
(6.06769e-08 -7.20183e-10 -2.65626e-10)
(2.22572e-07 -2.67528e-08 1.37547e-08)
(2.65104e-07 -1.91292e-09 -9.74392e-10)
(6.28489e-08 7.03111e-10 -7.71289e-10)
(2.76253e-07 -1.99042e-10 6.89832e-10)
(2.10066e-07 3.88522e-09 -3.9549e-08)
(1.79488e-07 5.37812e-10 -1.2052e-09)
(3.14602e-08 8.1866e-10 -1.72868e-09)
(9.68107e-08 -9.52816e-10 -5.34641e-09)
(2.05155e-07 -3.66172e-10 -1.17743e-10)
(2.15678e-07 2.1114e-09 1.23514e-09)
(3.04742e-08 1.54969e-09 6.36243e-10)
(2.14895e-07 2.95775e-09 -3.33349e-09)
(1.5369e-07 -1.19526e-09 -4.71758e-09)
(2.35109e-08 -2.02913e-09 1.39933e-09)
(2.15665e-07 -4.20175e-11 -4.95959e-10)
(1.5832e-07 -1.95994e-09 1.53602e-08)
(3.20868e-07 3.46129e-09 -4.67185e-09)
(2.09987e-07 -7.35531e-10 -5.51673e-11)
(1.92948e-07 -5.96384e-10 8.75423e-10)
(3.22023e-07 -1.27796e-10 7.70455e-11)
(2.52749e-07 1.5868e-09 -6.22434e-10)
(6.76408e-08 1.72852e-09 5.84323e-10)
(6.93057e-08 -3.32634e-09 -3.34889e-09)
(3.99828e-07 -8.8564e-10 1.59636e-09)
(2.24793e-07 -1.95951e-08 1.82149e-08)
(2.04649e-07 -1.69241e-09 7.67094e-10)
(1.85082e-07 -2.45786e-09 1.50651e-09)
(1.23419e-07 3.06492e-09 1.33096e-09)
(3.23525e-07 -7.27531e-10 3.54149e-09)
(2.07507e-07 -9.07567e-10 -1.14393e-09)
(1.76627e-07 -4.64786e-10 -2.43729e-09)
(2.19896e-07 3.95835e-09 1.27198e-09)
(4.29364e-08 6.64371e-10 -2.78214e-09)
(1.64865e-07 1.12825e-09 -7.31191e-10)
(3.73617e-08 -9.55398e-10 -2.78864e-09)
(3.14926e-07 -2.02233e-09 1.89766e-09)
(3.38405e-07 -1.03641e-09 -6.70604e-10)
(1.6156e-07 3.48463e-09 -3.71311e-09)
(1.57747e-07 1.29948e-09 -1.07144e-09)
(1.6983e-08 1.7394e-09 -3.50539e-10)
(1.01505e-07 -4.1165e-10 -9.47487e-10)
(7.26055e-08 -2.44082e-09 -3.09934e-09)
(2.75346e-07 2.12523e-10 -1.56852e-09)
(2.49464e-07 -1.02376e-09 -5.7401e-10)
(2.20569e-07 -2.01158e-08 1.27311e-08)
(3.21222e-07 -3.69243e-10 2.19792e-09)
(7.97648e-08 -2.32209e-09 -1.97701e-09)
(1.36574e-07 -3.42224e-09 1.06597e-08)
(2.41989e-07 -2.79337e-09 2.93245e-09)
(2.57425e-08 -1.96456e-09 -2.02981e-10)
(2.56151e-07 -7.04983e-10 3.71623e-10)
(5.19554e-08 1.46017e-09 -9.14749e-11)
(2.06011e-07 -2.83303e-10 2.01028e-09)
(3.03513e-08 4.33166e-09 -3.50841e-10)
(3.73756e-07 2.53437e-10 -1.48882e-09)
(2.0396e-07 -8.67825e-09 5.33964e-09)