/*--------------------------------*- C++ -*----------------------------------*\
| =========                 |                                                 |
| \\      /  F ield         | OpenFOAM: The Open Source CFD Toolbox           |
|  \\    /   O peration     | Version:  2406                                  |
|   \\  /    A nd           | Website:  www.openfoam.com                      |
|    \\/     M anipulation  |                                                 |
\*---------------------------------------------------------------------------*/
FoamFile
{
    version     2.0;
    format      ascii;
    arch        "LSB;label=32;scalar=64";
    class       volVectorField;
    location    "62";
    object      momentum:angularMomentum;
}
// * * * * * * * * * * * * * * * * * * * * * * * * * * * * * * * * * * * * * //

dimensions      [1 1 -1 0 0 0 0];

internalField   nonuniform List<vector> 
59516
(
(-2.2988e-09 -1.46488e-09 2.22879e-07)
(5.77172e-10 -3.79496e-10 1.64462e-07)
(-9.20892e-10 9.97881e-10 2.01515e-07)
(-2.90446e-09 -6.06709e-10 1.71988e-07)
(-8.0177e-09 5.29515e-10 1.9999e-07)
(-5.20283e-09 2.76866e-09 5.03649e-08)
(-4.44343e-09 -2.698e-09 2.09196e-07)
(-5.99559e-10 -1.06687e-09 1.91936e-07)
(-1.24156e-09 2.23768e-10 1.5505e-07)
(2.94711e-09 1.60578e-09 7.66746e-08)
(-3.41819e-09 -3.52324e-10 2.08457e-07)
(-5.14355e-09 -3.78841e-09 1.01558e-07)
(-2.44484e-09 -2.07979e-09 3.17638e-07)
(4.33043e-11 -1.6718e-10 1.53829e-08)
(5.91823e-10 -8.83999e-09 1.46673e-07)
(-2.37892e-09 5.78024e-09 8.23003e-08)
(-4.85102e-09 -8.98316e-10 2.70244e-07)
(-1.30753e-08 -3.61187e-09 1.59728e-07)
(-1.74022e-08 -3.46018e-09 3.29742e-07)
(-4.12064e-09 1.24545e-09 3.74134e-07)
(-2.66977e-09 1.24146e-09 9.9376e-08)
(8.46223e-10 1.96375e-09 3.17454e-07)
(-6.71278e-09 -1.56605e-09 3.51278e-07)
(8.81528e-10 5.94107e-10 3.35149e-08)
(-2.21116e-10 1.38028e-09 3.13388e-07)
(-4.97571e-10 4.8725e-09 1.94845e-07)
(-6.23448e-10 3.63571e-09 5.044e-08)
(-5.84807e-09 -2.46984e-09 7.40317e-08)
(-5.95285e-09 -1.91828e-09 1.44314e-07)
(1.59111e-09 1.30852e-09 1.28465e-08)
(-3.76121e-08 2.10442e-09 1.89463e-07)
(-5.42227e-09 4.16317e-09 8.36727e-08)
(-9.41343e-10 -5.02788e-10 1.73327e-07)
(-2.99604e-09 -1.79542e-09 1.73151e-07)
(-6.51834e-09 -9.6629e-12 1.33664e-07)
(-1.58122e-09 4.34378e-10 3.99439e-07)
(-1.87466e-09 9.81727e-10 1.2462e-08)
(-1.30637e-08 -4.15048e-09 1.31644e-07)
(-1.09289e-08 1.11078e-09 2.66387e-07)
(-1.82913e-10 1.4227e-09 2.84001e-07)
(-1.55384e-10 -1.53289e-09 2.52646e-07)
(-3.31472e-08 -1.12001e-10 4.06997e-07)
(-1.24535e-08 2.31491e-09 3.43339e-07)
(-6.77544e-10 3.59741e-10 1.08438e-07)
(-1.0335e-08 1.30432e-09 2.64684e-07)
(2.56708e-09 7.12839e-10 9.93167e-08)
(-1.35555e-08 3.52279e-10 3.24337e-07)
(-8.4032e-09 1.00228e-09 2.55037e-07)
(-3.43172e-08 3.12002e-09 2.51869e-07)
(-1.40201e-08 5.28649e-10 2.41309e-07)
(-2.81934e-08 8.17484e-10 1.63915e-07)
(-7.05146e-09 -3.37125e-09 7.36014e-08)
(1.05134e-09 -6.5989e-09 3.11351e-07)
(-7.46342e-10 1.16809e-09 2.96495e-07)
(-5.10283e-09 1.32556e-09 8.20282e-08)
(-6.10912e-09 1.09433e-09 2.46002e-07)
(-1.67688e-08 9.21667e-11 2.03481e-07)
(-7.41176e-09 -2.78047e-09 7.39895e-08)
(-3.80727e-10 1.40174e-10 2.14362e-07)
(-1.12131e-08 -3.57575e-10 1.45869e-07)
(-6.15422e-10 5.01846e-10 2.08903e-07)
(-1.15387e-09 1.58552e-09 1.46672e-08)
(-1.46643e-09 -1.37511e-10 2.7338e-07)
(-7.682e-09 -1.46025e-10 3.44778e-07)
(-1.5376e-09 1.34005e-09 2.85302e-07)
(-1.01089e-08 1.62612e-10 2.15551e-07)
(1.34928e-10 1.97339e-09 1.73338e-08)
(-2.16572e-10 5.26219e-10 6.41881e-08)
(-3.72099e-08 6.28293e-10 1.98342e-07)
(-4.67578e-09 -1.02839e-09 1.6891e-07)
(-8.30287e-10 -1.16415e-09 5.01015e-08)
(-2.59945e-09 -7.76674e-10 1.58738e-07)
(3.41168e-09 -1.37289e-09 2.23584e-08)
(-2.46839e-09 -5.65903e-10 1.86234e-07)
(-8.94944e-10 -9.5084e-10 3.9224e-07)
(-9.94196e-09 4.94004e-10 3.60721e-07)
(-6.687e-09 1.75063e-10 2.15245e-07)
(8.07419e-10 5.91725e-11 2.26916e-07)
(3.30295e-09 1.74758e-09 8.18246e-08)
(-1.09781e-08 9.33027e-10 1.93356e-07)
(-3.32211e-09 1.26014e-12 4.85591e-08)
(-8.94613e-09 4.98187e-10 1.71606e-07)
(-8.42832e-09 4.9549e-10 1.82938e-07)
(-2.21709e-09 1.21062e-09 1.74017e-08)
(-1.09421e-08 1.15372e-09 2.1531e-07)
(-2.00087e-09 1.81753e-09 3.88183e-07)
(6.01482e-10 1.06533e-09 3.04837e-08)
(-2.50751e-09 3.33115e-10 5.01777e-07)
(-3.88625e-09 -2.0388e-09 1.07276e-07)
(-1.55502e-08 -3.87415e-09 1.6676e-07)
(-1.61301e-08 -3.85032e-11 1.83371e-07)
(-1.21167e-09 1.56059e-09 1.8968e-07)
(-9.90117e-10 -5.99183e-11 2.66154e-07)
(-3.28828e-11 1.33975e-09 1.82349e-07)
(3.89914e-11 -1.97669e-11 1.8675e-07)
(-1.87541e-08 -1.17735e-10 1.83416e-07)
(-3.32093e-10 -2.9329e-10 1.24073e-07)
(3.45838e-09 6.32686e-09 8.20354e-08)
(-4.43223e-09 -1.75779e-09 1.15046e-07)
(2.32006e-09 1.46764e-09 2.07897e-07)
(-2.0127e-09 1.40711e-09 6.01008e-08)
(2.77516e-09 1.47102e-09 2.52238e-08)
(2.79548e-09 1.46134e-09 2.2292e-08)
(-3.14232e-09 3.51596e-09 8.22583e-08)
(1.45012e-09 -4.2262e-11 2.32184e-07)
(1.75945e-10 -7.64036e-10 1.64852e-07)
(2.49587e-09 -4.42468e-09 5.32011e-08)
(-1.0294e-09 -4.80094e-10 1.34943e-07)
(-3.40526e-10 1.21734e-09 1.71912e-07)
(-3.97954e-09 6.28597e-09 1.83128e-07)
(-4.20636e-08 -5.37708e-10 2.80325e-07)
(3.08198e-09 -2.96373e-09 4.15014e-08)
(-7.20012e-09 9.2275e-09 1.81912e-07)
(-3.62285e-08 -9.34721e-11 2.19234e-07)
(-1.82258e-10 1.80999e-10 2.23047e-07)
(1.49573e-09 -1.63572e-09 1.33797e-07)
(-3.98243e-09 -2.60912e-09 1.22549e-07)
(-3.60047e-10 -6.70988e-10 1.42891e-07)
(-3.1267e-10 -8.32637e-10 1.76132e-08)
(-1.44386e-09 1.49008e-09 2.62766e-07)
(2.94852e-10 -1.30433e-10 4.34172e-07)
(-4.24533e-10 6.33127e-10 1.81321e-07)
(8.32306e-10 2.04315e-10 1.60324e-07)
(-4.27582e-10 3.15623e-10 1.88186e-07)
(-1.81138e-08 1.15408e-09 1.33088e-07)
(-5.3486e-09 1.80234e-10 1.4362e-07)
(-2.10926e-09 -1.03076e-09 3.44509e-08)
(-2.10274e-08 3.1641e-09 2.12293e-07)
(-2.37433e-08 5.59421e-09 1.63212e-07)
(9.79727e-11 -2.52578e-10 1.66469e-07)
(-2.35092e-10 -2.13844e-10 2.98381e-07)
(4.88913e-09 5.6188e-09 3.18239e-07)
(-4.85555e-10 -1.91413e-09 2.16984e-08)
(-2.00658e-10 9.67592e-10 2.54391e-07)
(3.30061e-09 1.08053e-09 3.08962e-07)
(-3.51028e-09 1.65343e-09 1.93099e-07)
(-2.20191e-08 1.98345e-09 1.51778e-07)
(3.10247e-10 1.15974e-09 3.08948e-07)
(-4.91444e-10 3.43974e-09 4.99444e-08)
(-1.89881e-09 1.3803e-09 1.568e-07)
(-1.74535e-09 3.66933e-09 7.3652e-08)
(-5.23202e-10 -7.81765e-10 3.46806e-07)
(-6.12956e-10 -1.13161e-09 1.3303e-08)
(-7.65211e-10 1.14898e-09 1.48632e-07)
(-1.89151e-09 2.47606e-12 2.22773e-07)
(-4.62436e-09 1.38174e-09 2.83863e-07)
(-8.5121e-09 1.93851e-09 2.02725e-07)
(-6.12698e-09 2.29538e-09 2.04303e-07)
(9.76131e-10 -1.8176e-09 6.40331e-08)
(-8.64885e-10 2.01641e-09 2.03877e-07)
(-1.33639e-09 -2.81166e-09 3.141e-07)
(2.27329e-10 1.91494e-09 4.99831e-08)
(2.17217e-09 2.34716e-09 3.92311e-07)
(-2.31693e-11 5.71862e-11 2.18797e-07)
(-1.73092e-09 -3.55621e-09 1.55506e-07)
(-1.2949e-09 7.93247e-10 1.39442e-08)
(-1.05219e-09 -8.93244e-10 2.72611e-07)
(-4.58086e-09 2.29771e-09 3.25621e-07)
(-2.06438e-09 8.4589e-10 1.26471e-07)
(-2.16143e-09 -1.52804e-09 1.50071e-08)
(3.49158e-09 3.3967e-09 8.67816e-08)
(5.90921e-09 -3.50131e-09 1.0903e-07)
(-6.64019e-10 1.44459e-09 3.81226e-08)
(-2.02103e-10 -4.03392e-10 2.13562e-08)
(4.93796e-09 1.69779e-10 1.5891e-07)
(-2.01424e-09 -1.27975e-11 3.3852e-07)
(2.34039e-09 -1.43972e-10 1.51382e-07)
(-1.94024e-09 -6.33016e-10 2.92649e-07)
(9.50555e-10 1.94274e-09 1.6677e-08)
(3.55263e-10 -9.14331e-10 2.15298e-07)
(-1.53449e-09 -1.19901e-09 8.50099e-08)
(-1.19892e-09 8.19095e-10 6.5054e-08)
(-2.20803e-10 -2.98252e-09 1.02425e-07)
(-3.75527e-11 -5.94044e-10 1.504e-07)
(6.86918e-10 1.03882e-09 8.19731e-08)
(-1.95888e-08 -1.83394e-09 4.52783e-07)
(-1.22484e-09 6.03324e-10 2.54711e-07)
(-1.44892e-08 1.13016e-09 3.10066e-07)
(8.17388e-10 -6.87297e-09 1.44721e-07)
(6.77881e-10 4.92448e-10 5.95955e-08)
(-3.37188e-09 -4.40728e-09 3.07954e-07)
(1.08876e-09 3.87504e-09 4.09164e-08)
(-9.87858e-10 -2.01439e-09 2.83493e-08)
(9.01547e-10 2.31337e-09 1.01393e-07)
(-3.14466e-10 -1.08711e-09 2.15002e-07)
(-5.96955e-10 1.10417e-09 9.42995e-08)
(-3.47822e-09 6.33343e-10 4.42533e-08)
(1.26859e-10 2.31128e-10 1.93079e-08)
(-5.63046e-10 9.28274e-11 1.88553e-07)
(3.40855e-09 1.78964e-09 2.2059e-07)
(-3.14754e-09 -1.65561e-10 1.58806e-07)
(-2.20602e-09 -6.4543e-09 1.1069e-07)
(-1.83212e-09 -6.3052e-10 2.18182e-07)
(2.51035e-09 -2.03631e-09 9.0684e-08)
(-1.96703e-09 -8.84614e-11 3.39861e-07)
(4.00474e-10 6.91653e-10 2.76898e-08)
(1.22968e-09 4.7014e-10 9.34282e-08)
(4.4517e-10 -1.54625e-09 5.42019e-08)
(-7.78691e-09 -3.94012e-11 1.81335e-07)
(7.20257e-10 -1.36258e-09 2.66502e-07)
(-1.54533e-09 -2.19062e-09 7.53443e-08)
(-3.51957e-10 -3.4817e-10 2.06107e-07)
(3.46808e-10 3.44671e-09 3.04724e-07)
(1.28542e-09 -1.53048e-09 1.5226e-08)
(9.1343e-10 1.42588e-09 2.17085e-07)
(-7.62669e-10 -6.72705e-10 2.38938e-07)
(-9.50136e-10 -5.92791e-10 3.65525e-07)
(2.02338e-09 -1.12897e-09 2.02408e-07)
(1.82939e-10 -5.68099e-10 1.74095e-08)
(4.77186e-09 2.82795e-09 2.96708e-07)
(-6.48174e-10 5.51965e-09 5.84059e-08)
(-4.10426e-09 8.39276e-10 2.50583e-08)
(-1.48544e-09 1.96566e-09 2.31176e-07)
(-5.79399e-10 2.30153e-09 9.13284e-08)
(-2.4078e-09 -3.14018e-09 2.88182e-07)
(6.98507e-10 -2.32196e-10 2.96223e-07)
(-3.45176e-09 9.46861e-10 2.72808e-07)
(-1.62408e-09 1.23919e-09 2.09074e-07)
(-2.53206e-09 4.73182e-09 7.97289e-08)
(1.10907e-09 -1.88614e-10 2.20526e-07)
(-1.88816e-09 -5.68224e-09 1.14083e-07)
(-8.22542e-10 4.88618e-10 1.92457e-07)
(-9.45344e-10 -1.04416e-09 1.84476e-07)
(6.7663e-10 -9.62505e-10 7.01075e-08)
(7.39149e-10 -3.81376e-10 3.07356e-07)
(9.23237e-10 1.58211e-10 3.21942e-07)
(-1.07762e-09 -1.17111e-09 3.05997e-08)
(-3.49209e-09 7.98966e-10 6.26027e-08)
(2.09849e-10 1.06503e-09 2.06376e-07)
(-4.53205e-09 7.46164e-09 1.13449e-07)
(4.61904e-11 8.75365e-10 2.49424e-07)
(-4.47643e-10 3.39533e-10 1.86664e-07)
(-1.56225e-09 -7.81874e-10 3.42199e-07)
(-1.22266e-09 -2.11559e-09 2.54607e-08)
(-1.21138e-09 -1.08367e-09 2.98199e-08)
(-1.70538e-09 -3.30091e-11 3.7334e-08)
(-1.91161e-10 -6.55636e-10 1.05111e-07)
(-2.34297e-09 -3.64151e-10 1.69604e-07)
(-4.52595e-09 1.12227e-09 4.2622e-07)
(2.95135e-09 -5.01758e-10 8.33979e-08)
(6.00142e-10 4.72132e-10 2.68902e-07)
(2.15564e-09 1.53363e-09 1.77701e-08)
(1.47801e-09 1.09148e-09 1.05885e-07)
(2.40089e-09 1.5026e-09 2.54635e-08)
(5.25998e-10 4.93086e-10 1.74432e-07)
(-8.13505e-10 -5.50302e-10 1.48041e-07)
(-1.71901e-09 3.83409e-10 1.97935e-07)
(-2.58e-09 4.4031e-09 1.8026e-07)
(-1.08224e-09 -6.50794e-10 2.8504e-07)
(-1.251e-09 -5.13335e-10 1.95496e-07)
(-5.94922e-10 -3.0412e-10 3.89282e-07)
(-1.20224e-09 2.34214e-11 2.12769e-07)
(8.76806e-10 2.27325e-10 2.07816e-07)
(5.82147e-10 2.62215e-09 2.82484e-07)
(-2.10452e-09 2.57885e-09 2.84024e-07)
(-1.87945e-09 1.11877e-09 3.04836e-07)
(-4.89043e-10 1.76403e-10 1.07592e-07)
(-4.04607e-09 7.92885e-10 2.86854e-07)
(2.35879e-09 3.64538e-09 7.67622e-08)
(-4.74098e-10 3.29975e-09 9.37887e-08)
(-2.0187e-09 1.13667e-09 2.15705e-07)
(-3.5562e-10 5.4538e-10 2.67461e-07)
(7.46232e-09 1.55785e-09 2.34154e-07)
(7.14393e-10 2.09603e-10 2.98093e-07)
(1.57642e-09 -3.51272e-11 7.21565e-08)
(-2.25572e-10 -4.86e-09 1.02849e-07)
(-1.42375e-09 -2.42701e-09 3.09922e-07)
(4.74565e-09 2.27974e-10 2.08606e-07)
(-7.14226e-10 -1.18995e-09 5.84919e-08)
(-7.42563e-10 1.98403e-09 7.15307e-08)
(-4.57698e-09 4.04317e-09 1.63476e-07)
(4.79578e-11 -2.78889e-10 1.94587e-07)
(-4.8584e-09 6.12808e-09 2.99691e-07)
(-1.38318e-09 2.5467e-09 1.44301e-07)
(-2.29806e-09 -1.00149e-09 3.42417e-07)
(-1.58334e-11 4.85301e-09 1.83802e-07)
(-1.06226e-09 -2.29684e-09 1.83432e-08)
(1.42197e-09 5.34281e-10 3.02457e-07)
(2.31259e-09 -1.80171e-09 2.72062e-08)
(2.22898e-09 1.10545e-09 4.9867e-08)
(-2.26159e-09 -5.61349e-10 3.78115e-07)
(-6.54521e-10 -6.00363e-10 2.48461e-07)
(-3.53805e-09 1.85521e-09 2.64619e-08)
(-1.62074e-10 -2.378e-09 2.92684e-07)
(-2.72544e-09 -4.14161e-09 2.41279e-07)
(-4.1147e-09 4.12849e-10 2.53285e-07)
(2.12132e-10 -8.78586e-10 3.44914e-07)
(1.82827e-09 -1.91192e-09 2.19419e-08)
(3.87386e-10 1.10385e-09 2.9839e-07)
(3.68631e-11 1.03295e-10 1.61079e-07)
(-4.46578e-10 -5.24567e-10 1.66787e-07)
(-2.0394e-09 1.01072e-09 2.51266e-07)
(-1.0412e-09 5.48056e-10 1.70304e-07)
(-6.19751e-10 -8.52199e-10 1.7185e-07)
(3.35331e-10 -1.04877e-09 2.72907e-07)
(2.57189e-12 2.14234e-09 3.66644e-08)
(-3.79616e-10 -8.29814e-10 2.90121e-07)
(1.92477e-10 9.28203e-10 1.89517e-07)
(-4.59645e-10 7.3943e-10 3.89084e-07)
(-1.52458e-09 1.31541e-09 2.78735e-07)
(9.91429e-10 -1.72822e-09 3.03925e-07)
(2.2541e-09 -2.78006e-09 1.30216e-07)
(-5.60087e-10 -1.20117e-09 1.87019e-08)
(8.26544e-10 5.22551e-10 3.34488e-08)
(-4.73174e-09 7.80015e-10 5.1485e-07)
(-2.45652e-09 9.98135e-10 1.7083e-08)
(-2.22806e-09 -2.17662e-09 1.66736e-07)
(-1.30674e-09 4.01037e-09 7.02772e-08)
(-1.57033e-09 -1.66083e-09 3.23557e-07)
(-1.19944e-09 -8.95052e-11 3.85581e-07)
(-1.22387e-09 1.59359e-09 3.16084e-07)
(2.15508e-09 1.71386e-09 1.18068e-07)
(8.52472e-09 1.94457e-10 2.88007e-07)
(6.31592e-11 6.93414e-09 6.42474e-08)
(3.39126e-10 -2.68254e-09 8.63351e-08)
(-3.47442e-10 1.07367e-09 2.03906e-07)
(5.8538e-10 -2.03837e-09 1.51311e-07)
(-3.18632e-08 -3.82848e-09 2.69465e-07)
(5.91446e-10 -4.53363e-09 1.87133e-07)
(-6.05009e-10 -9.52416e-11 6.08902e-08)
(3.4984e-09 -2.8972e-10 9.85575e-08)
(-1.3909e-09 -3.38364e-09 2.02425e-07)
(-5.66406e-10 -1.26171e-10 2.24312e-07)
(1.07159e-09 -2.78765e-09 4.46909e-07)
(-7.17915e-10 1.32224e-09 2.39967e-07)
(4.51088e-10 4.50729e-09 4.94436e-07)
(-1.03177e-08 -1.00471e-09 1.66582e-07)
(-2.79338e-09 -6.58477e-10 3.32531e-07)
(-1.95306e-09 3.18225e-10 2.85323e-07)
(9.51789e-10 2.98516e-10 2.00061e-07)
(2.49753e-09 7.0272e-10 3.43272e-07)
(-5.09314e-09 -4.02782e-09 1.0057e-07)
(2.71813e-09 -1.17953e-09 2.19484e-08)
(2.75193e-09 3.57674e-10 2.95256e-07)
(1.5821e-09 3.74727e-09 5.49524e-08)
(2.84343e-11 -7.06993e-11 2.65858e-08)
(-4.81359e-09 -3.35962e-10 4.01352e-07)
(4.93458e-10 -9.78045e-11 1.98565e-07)
(-3.7007e-09 4.54806e-09 1.06144e-07)
(-5.4527e-10 -8.79256e-10 2.64113e-07)
(8.57909e-10 1.2765e-09 3.33833e-07)
(-1.14848e-09 -4.55684e-10 4.49533e-07)
(-2.10501e-09 3.51253e-11 2.77129e-07)
(-7.0698e-11 -1.43086e-09 2.9538e-08)
(-7.06335e-10 3.92725e-10 3.18838e-07)
(-9.96849e-10 2.04715e-10 2.29703e-07)
(5.76065e-10 1.341e-09 9.41384e-08)
(-2.80003e-10 -1.63315e-09 3.13069e-07)
(-1.70689e-10 3.2788e-10 2.63162e-07)
(1.00916e-09 6.46409e-10 1.71321e-07)
(9.17731e-10 1.44929e-09 1.968e-07)
(-7.73808e-10 -3.66259e-09 2.7883e-07)
(6.87951e-10 1.45433e-09 2.00567e-07)
(-3.39425e-10 2.28679e-10 7.46946e-08)
(-3.82728e-10 9.36703e-10 1.90311e-08)
(3.91873e-10 2.77193e-09 3.71914e-08)
(1.05175e-09 -8.13753e-10 2.11915e-07)
(-3.91712e-08 -2.08428e-10 2.67861e-07)
(-1.14181e-08 1.18366e-09 1.15791e-07)
(5.62253e-10 -5.41072e-10 1.0683e-07)
(3.26172e-09 -2.8234e-09 2.41935e-07)
(-2.28492e-09 1.53289e-09 3.05589e-07)
(-6.5829e-09 2.48566e-10 2.32401e-07)
(8.09334e-10 2.88503e-09 3.607e-07)
(-1.31054e-09 -2.38218e-09 3.33572e-07)
(1.04809e-10 -8.23731e-10 2.24026e-07)
(-8.42573e-10 -4.50887e-11 1.39061e-07)
(-3.40459e-10 6.8121e-10 2.25956e-08)
(-4.78728e-08 1.7296e-09 2.41094e-07)
(6.6791e-10 2.07814e-09 8.31564e-08)
(-1.39297e-09 2.3386e-09 6.0242e-08)
(1.39944e-09 5.32245e-10 6.39387e-08)
(1.99887e-10 8.14543e-10 1.75724e-07)
(-8.87897e-10 5.56143e-10 1.68063e-07)
(-1.86806e-09 7.23201e-10 2.38455e-07)
(-1.01546e-09 1.24213e-09 1.58731e-08)
(3.94006e-10 -4.80699e-10 1.66628e-07)
(1.58077e-09 -9.85388e-10 6.10548e-08)
(-1.15918e-10 1.60263e-10 1.90799e-07)
(-6.01581e-10 7.02728e-10 5.25065e-08)
(3.73188e-09 1.75619e-09 1.42217e-07)
(1.37403e-09 5.76775e-09 2.10784e-07)
(-1.90542e-09 -5.66679e-10 1.85506e-07)
(2.34119e-09 -2.26667e-10 1.76223e-08)
(-2.72688e-10 4.49055e-09 1.07462e-07)
(1.01256e-10 -9.87996e-10 2.36001e-07)
(9.73036e-11 -2.41013e-09 2.3551e-08)
(-2.13363e-08 -6.30729e-10 2.89733e-07)
(8.76751e-10 -4.20011e-09 1.77887e-07)
(-1.15323e-09 -4.94617e-09 2.99477e-07)
(4.74958e-09 -5.81491e-09 1.9371e-07)
(2.44336e-09 8.3356e-10 9.02466e-08)
(1.27166e-09 2.58727e-10 3.99783e-07)
(-1.87528e-08 -5.94384e-09 1.42011e-07)
(-1.81846e-10 4.64483e-12 3.4942e-07)
(-1.74226e-08 1.18398e-09 1.55531e-07)
(-5.15121e-09 3.73367e-09 1.35578e-07)
(-6.8508e-10 3.24236e-09 1.37896e-07)
(4.889e-10 -1.82385e-10 2.85278e-07)
(1.0439e-09 -2.00176e-10 5.62915e-07)
(9.08092e-10 -7.93327e-10 7.63955e-08)
(-1.15402e-09 -1.28155e-09 3.31263e-07)
(-2.61431e-09 8.40222e-10 1.1527e-07)
(-5.68944e-10 -1.14491e-09 4.60502e-07)
(8.40189e-10 -1.67522e-09 3.50705e-07)
(-1.56731e-09 -5.20873e-09 6.61528e-08)
(-5.86865e-10 1.79121e-09 2.14749e-07)
(6.51821e-09 -7.20742e-10 3.81162e-07)
(-1.44275e-09 -4.23493e-10 2.27714e-07)
(3.51479e-10 -1.34868e-09 2.23291e-07)
(2.56108e-09 -1.36482e-09 2.23094e-08)
(-2.44762e-09 -6.31382e-10 1.88056e-08)
(-3.32794e-09 3.15119e-09 2.89821e-07)
(-2.71581e-10 -1.21928e-10 2.96135e-07)
(1.15037e-09 1.23517e-09 2.33658e-07)
(-2.27022e-09 1.22078e-09 3.38717e-08)
(7.55602e-10 -4.29236e-10 9.19525e-08)
(-3.84149e-09 -8.34123e-10 2.94137e-07)
(1.7846e-10 1.38487e-10 1.76699e-07)
(-1.4817e-09 1.7305e-09 3.22644e-07)
(2.76336e-10 -9.34899e-10 3.00868e-07)
(6.85015e-11 -1.27354e-09 2.26395e-07)
(-6.00349e-10 -2.26843e-09 2.40242e-07)
(3.95885e-10 -7.47036e-10 1.17362e-07)
(-6.29402e-10 5.15027e-10 2.24684e-07)
(-2.72483e-09 3.31153e-09 8.44276e-08)
(-7.58697e-10 7.1045e-10 2.95577e-07)
(-1.60622e-09 -1.10466e-09 1.84723e-07)
(-1.42333e-09 -6.64263e-10 2.16632e-07)
(-3.98593e-10 2.01042e-11 2.30355e-07)
(-4.80339e-10 9.25921e-10 3.4917e-07)
(1.91879e-09 -1.85227e-09 2.66863e-07)
(2.77874e-09 4.23499e-09 6.43017e-08)
(1.16666e-09 -6.19976e-11 4.24601e-08)
(-1.67826e-09 -1.72797e-09 1.83557e-08)
(-1.3185e-08 1.01172e-10 2.32351e-07)
(3.89599e-10 -3.22065e-10 3.11052e-07)
(-1.70489e-09 5.39565e-10 2.71996e-07)
(-2.53204e-10 -1.32435e-09 1.89939e-07)
(1.06093e-09 2.34093e-10 2.83012e-08)
(6.32197e-10 -2.38497e-09 2.13196e-08)
(-7.03069e-10 -2.73938e-09 1.76661e-07)
(-1.25529e-09 1.78135e-09 2.35328e-07)
(-8.06871e-10 -9.93926e-10 3.23907e-07)
(1.30717e-09 -1.6879e-10 3.21157e-07)
(-1.90414e-09 4.00576e-10 1.96369e-07)
(-3.54972e-10 -3.24833e-10 3.64277e-07)
(3.4922e-09 8.32098e-10 3.71567e-07)
(-1.23185e-09 2.59161e-09 3.00386e-08)
(4.1416e-10 1.34533e-09 1.79985e-07)
(3.23833e-09 -1.80518e-09 6.96802e-08)
(-9.91484e-09 -1.08927e-09 9.75822e-08)
(-4.01171e-10 4.73975e-10 1.30011e-07)
(6.8025e-10 -6.29003e-10 1.37923e-07)
(-5.60517e-11 4.53782e-10 2.53222e-07)
(-3.09487e-09 1.97376e-09 1.82495e-08)
(-2.02703e-10 -1.28985e-09 3.70539e-07)
(-2.75677e-11 4.21123e-10 2.79966e-07)
(-5.48143e-10 -7.60445e-10 2.25356e-07)
(1.31866e-09 -1.45456e-09 1.95973e-07)
(7.97626e-10 -2.11772e-09 1.72576e-07)
(-5.09819e-10 -3.90215e-10 2.70983e-07)
(-4.65476e-10 1.05995e-09 2.42971e-07)
(-6.25525e-10 8.61197e-12 3.21355e-07)
(-9.07118e-09 -8.64551e-10 1.66402e-07)
(-6.20154e-10 9.95582e-11 2.75246e-07)
(-5.14181e-09 2.48079e-09 2.9027e-07)
(1.27001e-09 -1.11861e-09 1.76045e-08)
(-5.94038e-10 -6.78314e-10 3.19181e-07)
(2.33788e-09 3.06945e-09 1.88533e-07)
(-4.01963e-09 -3.72444e-09 6.20074e-08)
(-1.97504e-09 2.7418e-09 1.67428e-07)
(-4.70404e-10 6.71726e-10 3.52397e-07)
(-1.95539e-10 -2.22222e-09 2.20669e-07)
(1.22461e-09 2.98425e-09 1.14576e-07)
(-1.88866e-09 1.3389e-09 1.7266e-08)
(-5.4879e-10 -4.04213e-10 2.6458e-07)
(1.53505e-09 6.66485e-09 3.31525e-07)
(-1.06534e-09 -1.6506e-10 2.39213e-07)
(-1.1654e-09 -3.36169e-10 1.85514e-07)
(-3.35861e-09 9.76911e-10 5.49311e-08)
(3.45043e-10 -7.81465e-11 2.51194e-07)
(-4.01202e-09 3.2704e-10 2.64227e-08)
(7.63209e-11 8.59545e-10 1.7713e-07)
(-2.43872e-08 1.22631e-09 2.08665e-07)
(2.52394e-09 6.6147e-10 2.62242e-07)
(-3.21536e-10 2.99574e-09 8.44874e-08)
(-2.30737e-09 2.60543e-09 1.78431e-07)
(-3.40872e-11 1.4478e-09 1.12467e-07)
(2.64655e-09 -2.24447e-09 4.54406e-08)
(2.94006e-10 -5.12677e-10 4.98251e-07)
(-2.02851e-10 -7.01633e-10 2.20755e-07)
(-1.61546e-09 -6.39273e-10 1.67864e-08)
(-1.02258e-09 3.22185e-10 2.86377e-07)
(-9.20706e-10 6.58581e-10 3.0117e-07)
(-5.99684e-10 2.20847e-09 3.71501e-08)
(3.09358e-09 4.4805e-09 1.23268e-07)
(-2.48739e-09 3.56245e-09 9.54485e-08)
(-9.59478e-10 -4.03269e-10 1.92347e-07)
(5.52523e-10 -8.09318e-10 2.73294e-07)
(-1.32446e-09 1.30148e-09 3.49679e-08)
(2.76542e-09 -1.29548e-09 8.69816e-08)
(-3.42437e-10 1.90838e-09 9.80719e-08)
(1.93305e-09 1.67536e-09 1.7293e-07)
(-1.8843e-10 -1.30225e-09 3.55343e-07)
(-2.60496e-09 -1.82318e-09 2.25402e-08)
(2.06462e-09 7.05424e-10 3.68479e-07)
(-6.37045e-09 -1.18153e-09 2.37089e-07)
(2.64476e-10 -1.38842e-09 2.86871e-07)
(-2.97658e-09 -6.1222e-09 1.14195e-07)
(2.21412e-11 6.5161e-10 3.38108e-07)
(1.09647e-09 -2.13413e-09 2.18556e-08)
(-2.77658e-09 -5.85036e-10 2.99008e-07)
(1.51709e-10 -3.50041e-10 2.64596e-08)
(-8.62928e-10 -4.06482e-09 1.35572e-07)
(-1.03072e-10 1.78712e-09 2.2728e-07)
(-2.41472e-09 3.4249e-09 1.32278e-07)
(-2.4297e-09 1.44573e-09 1.81442e-08)
(4.90357e-10 -1.74051e-09 4.84718e-08)
(8.01637e-10 4.75872e-09 7.2462e-08)
(1.756e-09 -4.15293e-09 1.27229e-07)
(-2.35548e-09 -4.71661e-10 3.24105e-07)
(3.36653e-11 1.29605e-09 5.54727e-08)
(2.55794e-09 -4.0717e-09 1.31668e-07)
(-2.73552e-08 1.10032e-09 2.25785e-07)
(-3.23539e-10 -1.68531e-10 2.21047e-07)
(1.81001e-09 2.43519e-11 2.7723e-08)
(3.53843e-10 2.52577e-09 2.22144e-07)
(-1.54285e-08 -7.81351e-09 1.4728e-07)
(-7.67756e-11 4.56209e-10 2.07878e-07)
(-2.03053e-09 1.43185e-09 9.76484e-08)
(-8.86163e-10 -6.53537e-10 1.81411e-07)
(2.30863e-09 4.6753e-09 1.02788e-07)
(-8.3978e-10 1.05083e-09 1.59252e-07)
(-7.52727e-10 8.13416e-10 1.673e-07)
(3.54527e-09 -5.91863e-09 6.92874e-08)
(3.25786e-10 -3.8951e-10 3.05504e-07)
(-4.78374e-09 -1.18693e-09 7.10237e-08)
(2.02128e-09 -1.27632e-09 1.47357e-08)
(-8.98619e-10 1.69071e-09 3.174e-07)
(-1.49971e-10 4.29483e-10 1.99934e-07)
(-2.24155e-09 1.43387e-09 2.90267e-07)
(1.13403e-09 -3.23277e-09 2.2431e-07)
(2.10567e-09 5.61726e-10 4.86526e-07)
(4.00542e-09 -5.00338e-10 1.32676e-07)
(1.86282e-09 -5.29793e-10 4.18668e-07)
(1.95545e-09 4.65068e-09 9.48315e-08)
(-1.05756e-10 -8.43008e-11 1.57804e-07)
(4.10144e-09 2.16683e-09 3.01647e-07)
(-3.61693e-09 -2.4326e-09 3.0935e-08)
(-2.57345e-09 4.6897e-10 3.04306e-07)
(2.31462e-09 -2.58128e-09 1.09444e-07)
(1.35642e-09 2.61755e-09 2.84897e-08)
(-2.74026e-09 1.16989e-09 2.75545e-07)
(-2.30868e-09 1.16678e-10 5.98758e-08)
(-3.62461e-11 -2.32387e-10 2.02102e-07)
(-3.74907e-10 1.11075e-09 2.35422e-07)
(-9.26912e-11 6.63417e-10 3.71659e-07)
(1.53061e-10 6.18838e-09 9.28834e-08)
(1.2403e-09 3.81521e-10 3.02261e-07)
(3.14015e-09 6.04512e-10 1.47992e-07)
(-9.45819e-12 2.00778e-10 3.36608e-07)
(-7.85399e-10 4.0503e-10 3.36371e-07)
(-1.02053e-09 1.67412e-09 2.98124e-07)
(-7.82593e-10 4.88086e-10 1.77712e-07)
(3.23178e-09 -1.25586e-09 4.65801e-08)
(3.92312e-10 5.97539e-10 6.73452e-08)
(8.84444e-10 1.80819e-10 1.88135e-07)
(1.01464e-09 -2.84414e-09 2.91931e-07)
(4.73486e-10 2.13083e-09 2.69645e-08)
(1.12662e-09 -2.51816e-10 2.52451e-07)
(5.89032e-11 1.18825e-09 4.99843e-07)
(-1.16578e-10 7.87922e-10 3.67108e-07)
(4.57054e-10 1.12917e-09 4.00872e-07)
(-3.98211e-09 1.2957e-09 2.43308e-07)
(-1.47215e-09 2.10903e-09 1.92106e-08)
(6.6016e-10 1.45321e-11 2.3823e-07)
(1.03964e-09 -1.81016e-09 1.44144e-07)
(-9.85624e-10 2.43624e-09 2.69741e-07)
(-2.33503e-10 6.53162e-10 1.56716e-07)
(-1.98683e-09 -1.3124e-09 3.37021e-08)
(-1.96716e-10 -4.03816e-10 2.26861e-07)
(-3.55319e-09 4.45038e-09 1.46857e-07)
(-4.12936e-10 -3.88647e-10 2.41955e-07)
(7.54956e-11 2.22682e-10 2.92531e-07)
(-7.61304e-10 2.2257e-09 1.99358e-07)
(1.15524e-09 1.56183e-09 1.30072e-08)
(-1.98754e-09 9.51765e-10 1.90556e-08)
(-9.11245e-11 8.34112e-10 1.99237e-07)
(2.54775e-09 -7.72717e-10 3.21448e-07)
(-1.53367e-09 4.1777e-10 2.49126e-07)
(-1.03755e-09 -1.32447e-09 1.86287e-07)
(-5.64097e-10 2.61727e-09 1.56272e-07)
(-8.19268e-10 1.86499e-09 2.5678e-07)
(6.61877e-11 1.77255e-09 3.04263e-07)
(6.56892e-10 1.56033e-09 1.8517e-08)
(-4.43428e-10 6.98083e-10 1.5966e-07)
(-1.95342e-08 1.12812e-09 1.74184e-07)
(-6.81021e-11 2.48948e-09 4.39727e-08)
(-6.06255e-10 5.36851e-09 8.21798e-08)
(-1.36263e-09 1.56384e-09 3.05548e-07)
(2.38367e-09 -1.1955e-09 2.10942e-07)
(3.14079e-11 -6.58758e-10 1.96168e-07)
(1.29788e-09 -1.09651e-09 2.31834e-07)
(-3.90892e-09 2.87292e-09 1.35088e-07)
(1.18055e-09 1.48352e-10 3.60734e-07)
(1.19017e-09 -5.6839e-09 1.75041e-07)
(4.64046e-10 -7.54732e-10 4.48063e-07)
(1.92221e-10 1.0784e-09 2.29321e-07)
(-1.7227e-10 -2.83614e-10 2.5825e-07)
(-1.73253e-10 -2.02558e-10 3.35675e-07)
(1.89144e-09 1.30384e-09 4.54655e-08)
(-4.69408e-10 -4.54785e-11 5.55197e-07)
(-2.79877e-10 -1.6225e-09 3.19393e-08)
(-1.66877e-08 -2.26223e-09 1.48944e-07)
(3.92406e-09 -2.76728e-09 1.11677e-07)
(-1.69234e-08 -9.48866e-11 1.61643e-07)
(1.02417e-09 1.28657e-09 2.11289e-07)
(-4.8358e-08 1.13058e-09 2.9078e-07)
(6.04792e-11 5.76141e-10 1.46302e-07)
(-1.28675e-09 -2.86961e-11 3.35942e-07)
(-3.96901e-09 3.7769e-10 3.42738e-07)
(2.03512e-11 5.33257e-10 2.2502e-07)
(-6.59141e-10 -2.17964e-10 3.31669e-08)
(-5.34887e-09 1.64897e-10 1.18483e-07)
(-3.01167e-08 2.11342e-09 2.10306e-07)
(-2.13686e-10 -2.71021e-10 2.30929e-07)
(-7.2689e-10 1.92813e-09 9.80962e-08)
(-2.2898e-08 1.46588e-09 2.18239e-07)
(-9.22169e-09 1.76111e-10 2.39177e-07)
(1.45735e-09 3.27386e-09 3.01715e-07)
(-1.64851e-09 -6.27732e-10 4.21539e-08)
(1.37148e-09 2.56975e-09 5.18783e-08)
(-2.27059e-10 -1.40278e-10 2.59103e-08)
(1.04248e-09 9.7286e-10 1.85903e-08)
(-2.03147e-10 6.60303e-12 4.22114e-08)
(-1.86024e-08 4.39724e-10 2.21592e-07)
(-1.04744e-09 -9.90502e-10 1.82544e-07)
(-1.68107e-09 -1.8983e-09 1.76958e-08)
(-2.4721e-09 6.70655e-10 1.95421e-08)
(4.27072e-10 -2.59004e-10 3.87599e-07)
(-2.5773e-08 5.66494e-09 1.6616e-07)
(-2.03316e-09 2.05038e-10 4.47414e-08)
(-1.10329e-09 8.24182e-13 2.28302e-07)
(-1.54069e-09 1.0374e-09 1.05001e-07)
(1.83479e-09 -6.656e-10 2.00845e-07)
(1.36285e-09 2.10507e-09 4.23773e-08)
(-1.86252e-09 -2.36327e-09 9.0566e-08)
(2.89916e-10 2.16079e-09 1.88395e-07)
(1.50054e-09 2.92709e-10 2.82145e-07)
(1.55204e-09 1.21503e-09 4.04039e-07)
(-2.12716e-09 2.87563e-09 4.07332e-08)
(-5.7341e-10 -2.05046e-09 2.34391e-08)
(-3.58753e-08 3.79363e-10 2.01613e-07)
(-2.77384e-09 2.0973e-09 2.66619e-08)
(-5.42608e-10 2.80681e-09 3.08735e-07)
(-3.51207e-09 -1.13927e-09 2.72529e-08)
(6.94397e-10 3.04074e-09 1.44511e-07)
(-2.44445e-09 6.21785e-12 3.27222e-07)
(2.91874e-09 5.49968e-10 4.49278e-07)
(-4.52903e-10 -1.25143e-09 5.6341e-08)
(1.38166e-09 -6.59457e-10 1.36309e-07)
(-2.08078e-09 -2.54663e-10 3.72654e-08)
(-3.46524e-09 -2.36094e-10 2.76235e-08)
(-6.15712e-10 -1.12391e-09 2.80157e-07)
(-1.91746e-09 9.54216e-10 1.39561e-08)
(6.60958e-10 2.68896e-10 1.87749e-07)
(-4.17396e-10 -3.09517e-09 5.88093e-08)
(-5.4538e-10 2.87577e-09 3.30224e-07)
(-3.82469e-10 1.30745e-09 2.26256e-07)
(2.73835e-09 1.09964e-09 1.83308e-08)
(-2.56316e-09 -6.0584e-09 1.30357e-07)
(2.35215e-10 1.452e-09 2.49528e-07)
(-1.31842e-10 1.47093e-09 3.00924e-08)
(9.61246e-10 9.50378e-10 2.97654e-07)
(-1.91303e-09 5.32689e-09 7.65214e-08)
(2.84851e-10 2.07967e-10 2.0938e-07)
(2.99051e-10 -2.47222e-10 2.44858e-07)
(1.91058e-09 -6.2115e-11 5.31271e-08)
(-2.70383e-09 -5.61256e-10 2.03928e-08)
(-1.83765e-09 -6.73031e-10 8.87667e-08)
(-3.90856e-08 2.10131e-10 2.43644e-07)
(-1.34115e-09 -8.06152e-11 2.19976e-07)
(2.67057e-11 5.04711e-09 7.45485e-08)
(2.40487e-09 -5.63426e-10 1.77387e-07)
(3.356e-10 9.75147e-10 2.32952e-08)
(5.48794e-10 -7.92469e-11 2.18359e-07)
(1.06482e-09 1.42864e-09 2.23705e-08)
(-1.77317e-09 3.26625e-10 3.43461e-07)
(-3.42222e-11 -6.4658e-10 3.00046e-07)
(-9.04359e-10 -9.78014e-11 2.27666e-07)
(-1.35061e-09 -1.41947e-10 1.37929e-08)
(2.4243e-10 -1.32272e-09 3.45002e-07)
(-1.92592e-09 9.16149e-10 1.53562e-07)
(-3.16309e-10 -3.52235e-11 3.63359e-07)
(2.44418e-10 7.27654e-10 6.06769e-08)
(-3.00708e-08 8.06415e-10 2.22572e-07)
(-2.05514e-09 6.20577e-10 2.65104e-07)
(1.03147e-09 -1.59125e-10 6.28489e-08)
(-7.15377e-10 6.09983e-11 2.76253e-07)
(-3.94735e-08 4.5894e-09 2.10066e-07)
(-1.1354e-09 -6.72771e-10 1.79488e-07)
(-7.33044e-10 -1.76669e-09 3.14602e-08)
(-2.47445e-09 4.83416e-09 9.68107e-08)
(-2.00998e-10 3.27941e-10 2.05155e-07)
(1.96139e-09 -1.46169e-09 2.15678e-07)
(-1.08228e-09 1.27868e-09 3.04742e-08)
(-3.4837e-10 -4.44287e-09 2.14895e-07)
(3.704e-09 3.15667e-09 1.5369e-07)
(-1.58749e-09 1.88558e-09 2.35109e-08)
(-4.92639e-10 7.10498e-11 2.15665e-07)
(-1.54667e-08 7.473e-10 1.5832e-07)
(-2.40539e-09 -5.29347e-09 3.20868e-07)
(-1.02843e-10 7.30392e-10 2.09987e-07)
(6.53407e-10 8.33726e-10 1.92948e-07)
(-2.51272e-11 -1.47093e-10 3.22023e-07)
(1.52064e-09 -7.7006e-10 2.52749e-07)
(1.72523e-09 5.9398e-10 6.76408e-08)
(-8.91093e-10 4.63526e-09 6.93057e-08)
(-7.51559e-10 1.66369e-09 3.99828e-07)
(-2.67288e-08 -1.15077e-09 2.24793e-07)
(3.16237e-10 1.83103e-09 2.04649e-07)
(2.12402e-09 -1.94915e-09 1.85082e-07)
(2.98275e-09 -1.50614e-09 1.23419e-07)
(-1.32621e-09 3.36342e-09 3.23525e-07)
(8.92655e-10 1.1556e-09 2.07507e-07)
(-1.69733e-09 -1.80983e-09 1.76627e-07)
(-3.46933e-09 2.29133e-09 2.19896e-07)
(-1.68876e-09 2.30863e-09 4.29364e-08)
(-1.13794e-09 -7.16026e-10 1.64865e-07)
(-2.33518e-09 -1.79894e-09 3.73617e-08)
(2.04683e-09 -1.8712e-09 3.14926e-07)
(9.88284e-10 -7.3969e-10 3.38405e-07)
(-1.5515e-09 4.85002e-09 1.6156e-07)
(-4.8707e-12 -1.68422e-09 1.57747e-07)
(9.76647e-10 -1.4814e-09 1.6983e-08)
(3.20782e-10 -9.81982e-10 1.01505e-07)
(-3.56612e-09 -1.68708e-09 7.26055e-08)
(-1.4913e-09 5.30507e-10 2.75346e-07)
(1.11626e-09 3.62662e-10 2.49464e-07)
(-2.37563e-08 -1.53728e-09 2.20569e-07)
(-1.90656e-09 1.15423e-09 3.21222e-07)
(-1.48797e-09 2.66207e-09 7.97648e-08)
(-1.1184e-08 5.10281e-10 1.36574e-07)
(1.32487e-09 -3.82713e-09 2.41989e-07)
(1.76566e-09 8.84957e-10 2.57425e-08)
(5.83122e-10 -5.43206e-10 2.56151e-07)
(-1.83507e-10 1.45148e-09 5.19554e-08)
(-2.00875e-09 -2.94004e-10 2.06011e-07)
(3.85232e-09 -2.01146e-09 3.03513e-08)