/*--------------------------------*- C++ -*----------------------------------*\
| =========                 |                                                 |
| \\      /  F ield         | OpenFOAM: The Open Source CFD Toolbox           |
|  \\    /   O peration     | Version:  2406                                  |
|   \\  /    A nd           | Website:  www.openfoam.com                      |
|    \\/     M anipulation  |                                                 |
\*---------------------------------------------------------------------------*/
FoamFile
{
    version     2.0;
    format      ascii;
    arch        "LSB;label=32;scalar=64";
    class       volScalarField;
    location    "62";
    object      nut;
}
// * * * * * * * * * * * * * * * * * * * * * * * * * * * * * * * * * * * * * //

dimensions      [0 2 -1 0 0 0 0];

internalField   nonuniform List<scalar> 
59516
(
2.14439e-06
1.08905e-05
6.85298e-09
7.97493e-08
0.00108471
0.000186194
5.46096e-09
2.77787e-06
2.32934e-07
6.8476e-05
0.000336511
5.79497e-05
4.24512e-07
0.00014668
6.10668e-05
5.69708e-05
9.89072e-06
9.15377e-05
1.24806e-05
1.13306e-08
0.000131923
4.95941e-14
2.56755e-08
0.000117783
2.50746e-16
4.90457e-05
0.000112182
0.000155057
7.04781e-05
0.00012521
0.000242103
0.000146659
9.07824e-12
6.95784e-07
1.34918e-05
4.63315e-12
0.000122286
8.31629e-05
1.68521e-05
2.18951e-13
2.06734e-06
0.000158543
1.28442e-05
5.3492e-06
8.34386e-07
5.60218e-05
3.55464e-06
7.43053e-05
0.000861231
5.7861e-05
0.000623631
0.000104906
6.38913e-09
4.52036e-09
0.000135394
2.71363e-06
0.000238593
0.000120412
9.50039e-09
2.29137e-05
2.48661e-11
0.000132273
6.46176e-09
7.64514e-06
9.04839e-07
3.6735e-06
0.000174357
0.000105966
0.000423673
3.57878e-08
0.000189794
6.63119e-08
0.000154735
7.7064e-11
8.86722e-07
1.0593e-05
4.7353e-05
2.61168e-12
0.000101078
4.83189e-05
0.000108515
1.82302e-05
7.03854e-06
0.000142373
2.1913e-05
1.38224e-06
0.000109327
1.82865e-13
5.66522e-05
4.84319e-05
0.000526546
5.95355e-10
5.51528e-09
1.27885e-09
3.86031e-09
0.00108636
2.62898e-10
5.48127e-05
7.22295e-05
6.52171e-12
0.000124464
0.000155326
0.000152437
5.61809e-05
1.98277e-11
6.89995e-10
0.000116068
6.33228e-07
4.39718e-06
5.76176e-05
0.000242887
0.000164873
6.09352e-05
0.000153439
9.4204e-11
3.16159e-06
5.60648e-05
5.82616e-10
0.000140848
1.70571e-12
2.35326e-06
4.93567e-08
2.56933e-13
1.86543e-08
0.000231794
2.05834e-05
0.000170024
0.000103825
0.000280981
4.19398e-07
9.24762e-07
9.08632e-07
0.000135746
1.15108e-15
6.87506e-06
2.10396e-08
0.000111593
3.97993e-15
0.000115123
1.13307e-05
0.00010743
6.97058e-08
0.000120867
1.63763e-10
1.22441e-06
1.82377e-13
1.81694e-06
8.1289e-07
0.000251054
1.57978e-06
8.92798e-06
0.000105728
2.98274e-11
5.58555e-13
9.56364e-06
0.000132866
5.34085e-07
1.19697e-07
1.46728e-05
0.000135321
6.07899e-05
5.84448e-05
0.000113513
0.000160578
3.66389e-06
1.24125e-08
5.50141e-05
2.68519e-07
0.000128251
2.00645e-08
1.38794e-05
5.62182e-05
4.00741e-05
6.87235e-15
9.17071e-05
6.43027e-06
9.31856e-09
2.45657e-05
5.52447e-05
9.43161e-05
8.11488e-14
0.000109702
0.00018149
4.32987e-05
1.45764e-07
5.33259e-05
9.2066e-05
0.000131373
3.93962e-08
6.1369e-06
2.52476e-08
5.73392e-05
1.32615e-09
4.06103e-05
1.94051e-14
9.46388e-05
5.31408e-05
9.38312e-05
3.44535e-06
2.04351e-14
2.42954e-05
5.44222e-07
3.42741e-06
0.000124353
1.37519e-10
2.58149e-12
1.03833e-06
4.27526e-09
0.000136909
1.86865e-06
6.66033e-05
0.000176528
2.30992e-12
6.15062e-05
4.64929e-07
4.83092e-09
5.04353e-13
2.64105e-15
6.14885e-05
4.16696e-13
6.39187e-05
8.79198e-06
2.76309e-09
0.000126017
2.08197e-08
4.92398e-08
0.000160094
0.00010609
4.11201e-08
5.91323e-05
1.94854e-09
8.19933e-08
1.75253e-06
0.00014698
0.000107412
9.34728e-05
4.53269e-05
1.21938e-06
4.81288e-11
6.67517e-05
1.40513e-06
0.000144405
5.20975e-05
0.000158761
1.1295e-06
8.10527e-06
4.90096e-10
5.78595e-05
1.18659e-10
1.7931e-06
2.31578e-13
3.56516e-10
2.90841e-06
2.04387e-11
1.30701e-11
2.03125e-11
6.89525e-05
1.47545e-11
0.000104449
5.70781e-05
5.80834e-10
2.92224e-10
1.74075e-06
3.91133e-08
2.4167e-06
4.99791e-05
1.57286e-09
9.88828e-06
0.000129871
5.34377e-05
1.212e-05
4.88521e-08
4.39521e-06
1.06734e-05
2.43738e-10
9.03646e-06
0.000130459
2.56689e-11
0.000145241
0.000105005
1.35198e-06
9.68927e-13
0.000163636
3.22169e-07
2.25932e-09
4.21792e-06
5.08083e-07
0.000164402
1.98677e-06
9.03721e-06
9.36994e-08
1.10444e-10
3.849e-10
7.69158e-06
8.40992e-10
0.00017228
1.84513e-09
2.31027e-15
3.10963e-06
1.56894e-07
7.89374e-09
4.94478e-05
0.000140928
0.000148708
7.19679e-14
0.000141756
8.9889e-05
6.69415e-05
5.08542e-09
6.33424e-09
3.77852e-16
4.97641e-05
3.87357e-06
0.000118533
6.04328e-05
3.76683e-09
6.92328e-06
0.00108013
1.30382e-05
0.000100764
6.28082e-05
2.93417e-06
2.31551e-07
1.12219e-06
5.18906e-06
2.76995e-12
2.94623e-05
9.88839e-09
4.21361e-09
9.51011e-11
1.09712e-12
5.3484e-05
0.000149812
1.44052e-11
0.000101041
0.00011037
1.79196e-10
3.7213e-15
6.33459e-05
6.58326e-08
7.54813e-12
1.01507e-06
4.48084e-08
9.78943e-05
2.77625e-13
7.91484e-07
5.6135e-05
1.12646e-06
2.73204e-07
1.34934e-08
7.24834e-08
6.4363e-11
4.64882e-16
2.19476e-05
0.000114036
0.000116011
8.96526e-06
0.000142797
0.000263561
1.43888e-05
1.57393e-06
2.68228e-08
0.000228641
3.24008e-13
8.46528e-12
6.23682e-13
1.00017e-11
0.000116776
0.000287663
6.39862e-05
0.000101037
0.000110213
3.51254e-10
1.01273e-05
1.21373e-10
0.000129775
1.08458e-09
0.000111446
2.0185e-08
5.13017e-05
4.90564e-05
6.33838e-07
0.000360004
0.000150297
5.88353e-05
2.91172e-12
0.000140282
2.47268e-05
6.43898e-07
2.12304e-13
1.30069e-05
1.20422e-05
1.33898e-10
0.000127945
7.94962e-07
9.72815e-05
5.94789e-05
5.81811e-05
2.60676e-07
8.96766e-08
5.0006e-05
1.72905e-10
4.44899e-06
4.96714e-07
3.04753e-07
0.000113647
3.04073e-08
2.57215e-12
5.90118e-14
4.71804e-13
0.000152829
0.000144453
2.05961e-10
5.90064e-08
1.64203e-06
0.000110627
2.07568e-08
1.56125e-06
3.64811e-07
1.64092e-07
9.05755e-07
5.18847e-08
2.37104e-08
5.23908e-06
4.85227e-07
5.64578e-05
5.31233e-09
2.43452e-06
9.37524e-12
3.30706e-07
1.34705e-14
3.10608e-11
9.66399e-05
0.000110863
0.000133448
0.000167306
7.15554e-07
1.77563e-11
2.15141e-08
0.000100065
0.000142757
3.17813e-07
1.88857e-11
1.49799e-07
1.40884e-13
1.54929e-12
3.30213e-06
1.77909e-13
0.000157855
6.68215e-08
5.20523e-05
0.000254342
9.41757e-10
1.00359e-05
4.18392e-12
0.000144094
2.80763e-07
1.79458e-06
4.90652e-07
6.61356e-06
2.03067e-11
5.40308e-08
4.43814e-07
1.92275e-06
1.7298e-05
2.98499e-08
7.14626e-15
0.000134615
4.90036e-07
1.63285e-07
0.000108039
4.29508e-06
2.46489e-09
6.32049e-10
1.72868e-05
0.000139428
3.76542e-08
1.85339e-10
9.77157e-11
9.65956e-10
9.53428e-05
6.3269e-12
0.000173272
7.92591e-09
0.000792516
3.74224e-08
0.000116887
1.04104e-06
3.42919e-06
8.27457e-05
1.93129e-06
4.24894e-07
0.000156441
2.51571e-09
5.30283e-06
0.000124893
5.51701e-05
5.23041e-05
7.22196e-11
1.40725e-06
0.000213841
5.30492e-05
5.09976e-05
6.49382e-08
2.08493e-06
0.000150981
2.57501e-13
6.45732e-09
1.93002e-07
0.000233241
4.5466e-10
0.000137199
6.27008e-09
0.000139148
4.59221e-05
8.46175e-14
5.0613e-05
0.000143287
0.000120774
0.000102347
5.82834e-05
3.08753e-16
5.78057e-05
4.93491e-05
0.000387214
1.14764e-07
0.000155121
1.33739e-06
0.000119344
3.70142e-08
5.87504e-05
1.01131e-07
6.27124e-05
1.58661e-08
5.52563e-07
8.31562e-05
1.72418e-09
0.000148973
0.00013162
1.15886e-14
7.65949e-07
7.22206e-11
9.65829e-09
5.42771e-07
6.43479e-05
2.34354e-09
5.18469e-05
2.2616e-07
9.86536e-08
0.000154945
4.9752e-14
0.000112485
0.000154463
1.47153e-14
9.72058e-05
4.52795e-10
1.3907e-06
7.46255e-09
5.10604e-05
1.9057e-07
1.33101e-05
1.01644e-06
2.68729e-09
6.58484e-07
8.42861e-07
0.000102595
6.2069e-05
1.14353e-07
2.61246e-12
0.000118069
5.8624e-10
8.29262e-08
3.79094e-08
6.80261e-07
9.39516e-08
0.000134451
1.47608e-08
7.22395e-06
5.92087e-11
3.83324e-06
0.000158834
2.16705e-06
1.16141e-05
3.26538e-16
2.38225e-06
9.45761e-13
0.000109937
0.000142409
9.76321e-07
1.71785e-09
3.27765e-06
9.83743e-09
1.08481e-05
2.37991e-12
1.98274e-07
0.00013056
2.3539e-06
0.000151847
0.000118588
5.13822e-05
4.83476e-14
1.75276e-13
6.0225e-13
2.34766e-09
2.80933e-06
5.12706e-06
1.19919e-05
2.56479e-08
2.82202e-08
2.35329e-08
2.73398e-07
0.000125603
3.64454e-10
0.000109473
0.000207498
5.00751e-05
0.000535712
1.83821e-12
0.000159211
3.58108e-07
1.25862e-09
1.53516e-13
3.23295e-08
0.000108707
0.00148488
0.000700916
1.07553e-06
1.54312e-07
0.000149228
0.00019653
7.2076e-07
9.89272e-05
4.52372e-05
0.00014681
0.000154814
0.000170552
3.34518e-05
1.94501e-09
0.000150442
0.000144893
5.0771e-06
0.000209333
0.000107665
9.85652e-14
3.8312e-07
1.46182e-11
0.00012435
5.52528e-05
1.66771e-07
5.79747e-08
1.15837e-11
0.000109556
0.000138406
0.000391295
0.000168123
2.14855e-11
0.000157085
4.71571e-06
3.62233e-07
5.60702e-11
0.000100745
4.30746e-06
9.71331e-05
0.000165123
2.50982e-07
0.000128978
4.1794e-09
0.000117955
6.55971e-12
4.67757e-14
0.000138206
5.61948e-05
2.58561e-14
0.000108983
6.11757e-09
6.15306e-05
1.8258e-06
1.09429e-06
0.000105825
0.000143933
0.000105887
0.000667144
1.72179e-06
6.05971e-05
1.01473e-05
0.000101508
1.69482e-06
0.000145504
1.33225e-10
1.57724e-18
7.87659e-09
0.000134071
5.80268e-15
1.24647e-05
2.60768e-11
6.55936e-05
0.000881129
9.10838e-14
9.2219e-05
3.42877e-06
0.000486751
5.02799e-09
0.000106549
0.000118051
8.74208e-07
1.87183e-09
0.000107068
4.10616e-07
5.45006e-05
0.000149454
2.048e-07
0.0012455
1.75126e-13
3.49857e-08
2.2825e-07
1.27373e-08
3.02549e-12
0.000101252
0.000109635
3.25379e-07
0.00098414
5.36706e-08
2.18952e-09
1.87957e-05
9.84734e-14
3.31133e-09
6.65643e-06
1.82223e-06
0.000144132
5.22582e-05
0.000129648
2.09793e-12
1.01863e-07
9.15063e-06
3.5392e-06
0.000127766
1.66557e-05
6.20444e-05
5.7706e-08
3.64088e-07
0.00118144
5.38011e-10
1.24911e-05
0.000839835
3.76573e-09
0.000160041
3.659e-07
5.95972e-05
2.99308e-12
0.0001651
3.73974e-10
0.00134896
4.73045e-12
1.78393e-07
8.92146e-13
3.30651e-13
5.94354e-07
0.000118179
0.000121252
9.46613e-05
6.37911e-07
6.84421e-11
1.227e-09
4.51555e-14
0.000123962
1.33736e-05
1.25957e-05
2.0628e-07
1.84594e-09
5.27402e-11
8.23371e-06
1.34067e-06
0.000141694
9.92534e-06
8.51268e-10
0.000156828
9.04692e-05
5.11885e-05
0.000140461
1.66824e-05
1.85638e-09
5.22609e-05
0.000132183
2.17816e-06
0.000145861
1.9171e-06
1.78181e-07
3.33465e-06
1.52378e-07
3.74333e-13
4.21571e-07
1.76361e-08
0.000101526
9.02001e-08
2.08622e-11
1.2063e-05
1.18104e-05
2.46161e-09
1.77145e-07
4.2052e-05
1.1007e-14
0.000111071
1.08593e-05
5.60846e-06
5.9467e-05
4.86766e-13
0.000264249
4.94076e-05
0.000106296
0.000168136
5.02593e-05
0.000133646
1.09923e-09
2.14541e-11
1.49885e-09
8.54823e-05
3.84022e-11
7.80116e-12
0.000147485
1.95374e-10
0.000579623
9.17626e-05
0.00014713
7.26122e-08
1.18707e-06
0.000146741
4.95242e-11
0.000142272
7.70294e-08
2.80534e-11
5.18639e-08
7.61408e-14
2.4258e-06
5.34397e-06
6.4062e-07
0.000130062
0.000112909
3.39949e-06
4.49196e-06
0.000128817
1.2911e-13
0.000311598
8.7894e-08
5.70108e-08
1.93613e-05
6.4155e-11
5.91621e-06
1.16106e-05
0.00011792
1.86252e-08
3.27806e-06
0.000123409
2.16901e-09
1.37834e-06
4.10004e-15
6.78955e-06
4.92093e-11
1.4623e-06
1.29344e-05
2.52989e-06
7.29931e-06
2.37305e-12
4.607e-05
2.74112e-08
7.4967e-07
0.00155915
1.70541e-16
2.35087e-06
1.99624e-07
0.000124011
9.53206e-05
6.42819e-08
1.71259e-12
8.01488e-12
3.45353e-06
8.56526e-13
2.35684e-06
5.90015e-07
0.000224641
1.44572e-06
5.3086e-07
0.000139888
2.18343e-12
9.02652e-11
0.000108992
3.74232e-11
8.4274e-07
3.15144e-06
5.71768e-07
3.03761e-06
1.40348e-07
5.43595e-05
0.00143817
0.00012044
4.4886e-07
2.36387e-07
0.000154314
7.6519e-05
5.41736e-05
2.59377e-07
9.17983e-05
2.68031e-11
1.50141e-07
2.05068e-08
1.49646e-12
1.48351e-05
0.000118793
6.25006e-11
3.16595e-10
2.92435e-07
1.4779e-05
6.84721e-13
2.88105e-06
8.06896e-07
0.000125591
2.15501e-09
8.9587e-06
1.75988e-05
0.000123823
5.4705e-05
7.78575e-06
3.18668e-07
8.1097e-05
5.76641e-09
1.69501e-10
7.44914e-08
4.42483e-07
1.19469e-09
1.7168e-07
2.68398e-07
1.08651e-06
0.00139905
6.37225e-13
5.79855e-07
0.000117545
5.7356e-05
7.69467e-09
8.2475e-11
0.000116155
4.3193e-09
1.49921e-06
9.14939e-06
8.96653e-06
2.93589e-06
2.08121e-12
7.31886e-06
1.24852e-06
0.000294702
6.65596e-06
2.32643e-06
0.000166237
1.71352e-06
0.000105534
1.23112e-05
6.09412e-08
4.63429e-05
0.000109652
1.6255e-07
5.26098e-09
1.3425e-16
0.000100352
1.11191e-06
0.000101676
9.56331e-06
4.57967e-05
4.46198e-05
7.34273e-06
5.03352e-06
5.52727e-05
2.06767e-11
2.56781e-08
1.31764e-06
3.43306e-06
5.31045e-06
2.45146e-07
1.52636e-06
2.16878e-07
5.35751e-05
3.48431e-06
0.000103847
0.000109482
2.20659e-08
9.1918e-05
0.000177931
1.21406e-06
1.76727e-06
1.14109e-05
0.000224982
0.000150661
1.8328e-09
1.65803e-06
2.15139e-07
0.000160816
0.000134031
7.33336e-06
0.000102224
6.76536e-10
6.08147e-08
4.6522e-06
0.000129566
4.29195e-07
1.69288e-09
0.000127708
7.2793e-06
1.74572e-06
5.39227e-05
3.98182e-09
1.00962e-06
8.88061e-07
6.31626e-10
0.000108124
1.43224e-07
2.396e-09
9.94923e-08
4.30093e-05
4.56363e-09
9.01261e-06
5.78648e-07
0.000136987
5.53876e-07
1.04281e-05
0.00010806
6.34506e-09
0.000118284
1.89227e-11
2.15667e-06
1.72841e-07
0.00018545
1.34693e-06
9.83373e-06
4.69931e-05
7.34463e-06
1.64584e-10
0.000138978
5.00695e-10
1.0031e-12
4.93873e-05
0.000164692
0.000117912
9.38352e-07
6.94163e-15
2.34843e-07
1.16927e-05
4.62674e-05
1.13857e-11
9.41956e-05
1.58296e-06
2.01665e-06
2.47871e-05
5.81265e-05
7.00243e-15
0.000158518
1.21042e-05
1.28699e-13
2.53809e-06
0.000121334
2.44146e-11
2.30346e-09
0.000154403
4.6466e-10
2.07503e-09
6.09324e-08
1.28235e-05
4.56514e-06
0.000158348
8.20302e-09
3.28188e-15
0.00015735
0.000102641
0.000104581
9.31582e-09
1.15767e-05
3.16817e-09
5.37489e-05
1.28213e-08
0.000145323
1.65118e-12
3.34049e-05
8.48742e-10
1.10163e-06
4.55535e-16
7.51006e-12
0.000106363
0.000108892
4.83846e-12
4.79811e-12
0.000139626
0.000170126
1.6628e-08
3.19577e-16
4.13835e-10
2.68549e-06
3.65884e-13
2.93449e-13
7.53099e-08
5.70365e-05
2.16235e-05
4.94079e-05
1.91598e-13
1.48087e-05
0.000108555
0.000160459
1.15945e-08
9.1542e-07
3.18756e-06
8.29345e-09
1.09057e-09
9.09303e-05
1.29645e-09
3.88203e-07
0.000123378
0.000156693
2.12565e-07
9.30768e-08
0.000119376
0.000124379
2.81822e-08
5.20067e-06
0.000164491
1.91267e-05
3.63717e-08
2.95023e-09
2.46443e-07
1.57998e-11
4.07048e-13
0.000141094
8.87523e-05
7.17369e-07
2.91718e-09
1.46787e-06
2.34767e-10
5.32414e-05
5.70261e-05
0.000104594
1.82391e-05
0.000164122
6.48931e-15
1.54155e-15
7.88406e-06
5.99873e-05
0.000142101
1.70341e-06
9.88576e-08
8.77705e-09
4.5717e-07
2.87306e-06
9.90238e-16
0.000122119
7.03568e-05
0.000241043
1.69958e-06
4.87946e-13
1.89052e-06
5.11464e-05
1.4031e-05
4.88543e-08
1.00203e-15
9.91182e-06
9.52869e-15
1.65924e-09
2.56234e-06
5.67115e-05
0.000167731
5.71045e-09
0.000107059
2.49742e-07
1.51755e-08
1.29196e-05
0.000136705
4.02951e-12
4.6338e-05
0.000116882
0.000133755
1.45331e-09
6.25187e-07
2.97485e-08
9.01476e-08
1.36464e-05
1.60597e-06
0.000124383
0.000107124
0.000120629
7.99795e-07
2.9797e-06
9.25132e-12
1.43161e-06
7.24305e-07
3.09736e-09
0.000186597
4.81688e-08
0.000132741
1.01018e-10
1.53549e-06
0.000135139
1.72101e-07
3.6819e-06
7.11436e-11
7.34717e-06
4.38537e-05
9.43897e-05
4.6936e-13
0.000121339
3.48524e-06
8.61917e-06
8.70604e-08
3.11764e-05
0.000106315
0.000181437
0.000115056
5.91177e-08
4.49894e-08
1.95397e-07
6.92687e-05
5.30469e-09
1.31192e-08
2.2303e-10
1.15211e-10
9.78848e-05
0.000115306
4.47093e-09
7.83455e-07
5.6858e-05
1.68042e-06
1.16099e-07
1.01381e-09
7.88414e-06
0.000164979
0.000201379
5.59297e-05
4.20177e-12
3.96692e-09
1.07954e-06
0.000134347
9.86533e-05
7.93553e-15
3.35487e-07
5.65581e-05
5.8793e-07
4.00334e-11
4.73219e-10
1.01788e-08
4.68633e-07
2.1931e-11
1.0904e-10
3.75614e-06
3.48694e-07
2.51619e-07
1.45588e-05
4.15973e-05
8.62095e-07
1.66591e-09
0.000114524
5.27874e-05
1.09255e-10
5.90649e-05
2.55775e-16
4.18151e-06
5.92259e-11
4.53787e-12
2.02545e-07
1.01465e-08
9.3307e-09
7.70718e-12
9.79787e-05
0.000168869
8.41585e-06
7.82389e-07
0.000137981
1.23856e-05
2.1317e-07
3.52459e-08
7.51081e-12
0.000131281
2.0229e-06
8.25158e-11
1.32041e-05
9.41947e-09
3.89014e-07
0.000151479
2.46977e-08
0.000142444
5.91298e-06
0.00013858
2.6969e-11
4.63353e-16
1.10377e-08
0.000147242
6.12401e-05
8.31983e-06
5.82474e-17
4.96324e-05
5.87432e-05
7.63101e-06
4.21393e-07
0.00011599
3.66429e-07
5.26266e-16
5.46826e-05
5.34484e-05
0.000159696
7.50328e-12
1.33183e-07
5.86634e-17
1.89671e-08
4.35011e-06
4.25224e-06
5.16211e-06
0.000132469
0.000101723
0.000158444
1.3949e-05
1.82756e-06
9.96616e-05
0.000110838
5.22394e-05
0.000160444
1.10815e-10
0.000158771
1.61012e-08
2.65702e-06
1.70768e-11
5.34365e-05
1.42457e-06
0.000103546
6.14732e-05
1.72565e-06
7.92108e-10
1.46935e-07
0.00171363
1.4313e-08
0.000143723
1.47309e-08
1.17872e-13
4.57027e-07
1.29468e-05
3.5394e-12
1.75393e-08
8.17785e-06
5.92648e-05
0.000104139
1.81055e-06
8.57712e-07
0.000110372
1.17241e-05
4.36304e-14
0.000111102
0.000171355
3.76742e-06
7.87096e-05
6.06106e-05
0.000147556
4.72879e-05
0.000115586
0.000124609
0.000112372
0.000145168
2.05685e-06
1.14146e-05
3.54102e-07
0.000134453
4.13224e-09
7.35881e-13
1.45036e-15
1.1604e-06
2.66121e-10
0.000105722
9.30454e-11
0.00140644
1.15572e-05
2.51648e-06
7.07535e-09
0.000126393
4.77682e-07
9.41936e-06
0.000181303
0.000101147
1.03564e-14
5.91574e-06
0.000131963
1.94951e-11
5.41304e-12
4.29393e-07
9.58268e-11
0.000106307
1.32779e-08
1.37601e-05
0.000182953
9.25925e-14
8.75353e-14
7.67449e-08
7.91795e-06
1.13328e-13
6.48233e-11
0.000268832
3.06091e-06
2.96098e-06
2.13763e-07
1.19859e-05
4.00071e-06
1.74808e-11
0.000191988
2.57012e-15
0.000203889
0.000228192
6.3779e-05
2.32268e-12
1.81921e-13
0.000436948
2.23777e-11
1.29497e-06
1.63019e-05
2.63038e-07
0.000151941
0.000158777
0.000220773
5.8957e-05
0.000177752
1.2581e-13
0.000120585
4.95966e-07
0.00010279
0.000138924
2.60252e-06
5.18803e-05
2.33227e-08
3.6283e-10
1.75534e-07
0.000116912
0.000120246
6.64501e-09
1.3304e-10
0.000156011
5.23852e-11
5.27829e-05
8.91054e-06
4.49926e-08
2.6189e-11
2.79583e-07
3.04349e-06
5.55386e-06
1.15098e-05
0.000108123
9.25841e-05
6.40719e-05
0.000100582
1.62271e-06
1.13009e-09
5.59556e-05
5.53277e-05
4.46564e-06
5.25004e-15
5.16257e-13
5.21119e-05
1.72689e-10
0.000134403
7.14562e-05
3.27553e-14
0.000117723
1.19982e-05
8.874e-06
1.79771e-07
6.79766e-06
2.12314e-10
8.06205e-06
8.55044e-06
3.47463e-10
9.09291e-07
2.77949e-10
0.000149463
0.000117625
3.68415e-07
3.06571e-06
1.56376e-12
7.61589e-06
4.83061e-06
0.000128664
1.66468e-09
2.08861e-09
6.34511e-11
7.91321e-06
0.000120071
5.14895e-05
8.0109e-05
2.1315e-08
4.95738e-05
2.10442e-06
0.000148271
7.89815e-09
0.000111756
1.13814e-05
6.23203e-07
6.08018e-05
2.72636e-14
1.45345e-10
0.000106368
0.000153972
7.52686e-07
0.000187435
4.29199e-10
8.05677e-09
1.24323e-05
2.75098e-12
1.74182e-05
2.62099e-07
0.000150577
2.24735e-06
1.46812e-08
1.94776e-06
0.000126898
2.03359e-11
9.8807e-10
1.22071e-05
3.30621e-10
0.000103758
2.07777e-09
0.000140775
7.41395e-11
4.30068e-08
3.33247e-12
1.06903e-14
0.000105212
0.000142942
0.00010769
9.83949e-08
0.000104824
1.17032e-06
9.91723e-05
3.59577e-07
6.04719e-05
0.000127998
3.39221e-06
1.90974e-11
1.086e-05
7.1078e-07
7.45065e-08
8.79195e-12
0.000114154
3.05106e-06
0.000169572
4.89802e-05
8.41206e-07
2.50954e-06
7.4389e-09
0.000180667
0.000104158
1.38672e-05
8.74419e-06
7.11506e-12
7.37804e-15
3.84943e-11
0.000121638
7.98556e-17
1.08771e-11
9.98633e-08
6.69257e-05
7.90034e-10
2.74772e-07
9.17229e-09
7.26074e-09
1.65936e-05
5.14581e-05
9.32869e-13
0.000100473
3.15355e-09
9.13933e-06
7.06809e-11
4.31781e-11
9.13835e-12
5.45827e-07
0.000105689
1.08452e-06
5.93588e-05
0.000154295
1.42356e-08
0.000119172
4.58644e-11
0.000145536
0.000111961
5.3299e-05
2.07491e-05
1.24913e-08
8.5225e-05
0.000161006
1.82031e-09
1.37418e-05
9.59207e-09
2.91522e-06
0.000136561
1.11922e-05
0.000115522
9.32136e-07
9.45871e-10
4.85996e-05
1.99969e-10
3.56057e-09
1.76243e-12
1.37074e-09
2.53153e-09
7.75294e-14
4.61835e-08
9.48252e-18
0.000167323
0.00015114
1.38703e-13
0.000166543
4.20925e-07
2.31955e-08
1.28402e-05
1.0287e-06
8.58342e-09
0.000114329
4.52092e-06
4.84764e-05
8.9399e-06
0.000111635
1.58963e-11
2.52414e-06
2.54125e-05
3.0813e-06
0.000108556
2.39406e-07
8.41466e-09
1.17525e-05
1.06139e-13
0.000128722
0.000142069
7.75269e-09
5.06842e-08
2.18139e-08
3.67679e-06
0.000146274
4.111e-06
4.49818e-05
1.67971e-06
2.36372e-09
0.000106106
3.18123e-14
1.68409e-10
0.000114491
0.000176717
3.04947e-06
9.84381e-06
0.000146128
2.32767e-15
0.00011842
0.000160393
1.36182e-05
1.1167e-07
3.00602e-06
1.18867e-11
5.90595e-08
6.84503e-13
7.71129e-07
9.53699e-07
1.28791e-06
9.74842e-09
1.59182e-12
0.000127187
0.00011018
1.6716e-09
3.18509e-08
2.34849e-06
0.00013995
0.000154705
5.85137e-16
0.000163963
1.24056e-12
7.46987e-09
2.51986e-06
0.000108963
5.71118e-05
2.51501e-07
2.66536e-07
7.71664e-12
6.93098e-14
5.14661e-05
0.000170467
5.75337e-08
0.000164817
0.000117097
0.000101817
0.000105245
3.53459e-10
2.03873e-06
6.55113e-15
1.14081e-06
7.25423e-06
5.14412e-06
1.90126e-09
3.49901e-10
5.63271e-05
3.9107e-07
1.93319e-09
2.26194e-09
9.28976e-05
9.21746e-07
0.000165699
1.03556e-05
0.000111827
5.96413e-11
4.24117e-15
0.00116752
0.000135792
8.06022e-06
6.27678e-05
0.000135373
1.4441e-14
0.000136253
5.86029e-05
9.59335e-09
7.63811e-10
1.27817e-06
0.00010063
2.19917e-06
4.93283e-05
6.8656e-07
1.21239e-09
1.45635e-09
4.56715e-08
0.00010727
1.1856e-13
2.84208e-08
2.07014e-06
3.16159e-11
2.73419e-10
3.68689e-11
4.58728e-06
0.000142188
9.97139e-05
3.58812e-07
1.20434e-06
1.31606e-14
8.82376e-05
2.65341e-08
4.92147e-05
2.55609e-10
1.68821e-14
1.18174e-05
6.12149e-05
4.90075e-05
0.00012523
2.8803e-12
2.39795e-19
5.11509e-05
1.79051e-07
0.000129506
3.57446e-12
4.30709e-08
0.000162814
8.24599e-07
1.92068e-07
7.32994e-11
0.000223766
0.000152591
0.000122782
5.59247e-05
4.91631e-05
0.000162433
0.000151837
0.00015576
1.15479e-05
1.4809e-08
9.57765e-10
6.51346e-09
4.16901e-07
0.000141631
1.53875e-11
1.08363e-08
0.000120516
0.000130613
0.000176861
1.39996e-05
0.000174771
1.33414e-11
0.000302484
5.23684e-06
2.09253e-05
9.18252e-05
8.34496e-06
2.08029e-11
9.45712e-07
6.39867e-16
1.05237e-10
1.66517e-08
6.14208e-05
2.39962e-06
3.29495e-13
1.10917e-07
0.000116443
3.20012e-05
1.65321e-06
1.40884e-09
7.58909e-07
2.93758e-07
4.76979e-05
9.93117e-05
0.000157534
6.06287e-06
4.57196e-06
4.138e-08
9.6882e-09
0.000102946
1.29643e-06
6.02335e-05
2.63362e-06
2.34982e-09
9.43848e-05
0.000112512
5.25565e-07
1.3163e-12
1.61233e-11
7.98713e-11
1.68185e-05
4.58586e-05
7.34703e-17
2.63585e-06
6.6238e-08
5.35635e-13
1.7392e-11
5.85757e-07
1.01222e-05
6.1841e-14
0.000133769
8.41076e-05
0.000160272
3.94099e-06
6.31572e-07
8.36512e-06
4.94622e-05
1.2033e-13
8.31513e-05
4.91514e-05
0.000134704
1.13789e-07
1.35026e-09
3.76269e-10
0.000125567
0.000102301
6.19813e-05
0.000147144
0.00011648
2.54209e-09
2.95837e-08
0.000142665
0.000113034
5.05852e-05
4.19629e-07
1.76795e-08
5.84845e-14
8.13102e-06
6.69946e-13
2.96537e-16
5.21891e-06
0.000106554
3.41418e-06
4.97316e-12
6.30692e-15
4.13502e-08
1.89243e-15
1.83726e-10
2.55058e-05
1.56307e-07
6.37914e-05
0.000345483
4.23156e-11
8.52535e-09
0.000124161
2.56383e-08
0.000149833
3.45712e-14
1.34884e-13
8.50279e-10
2.47079e-09
5.53587e-05
0.000160221
5.6041e-05
2.00475e-06
5.97214e-07
4.38086e-07
4.53575e-10
0.000116004
1.35751e-05
4.98245e-11
2.49132e-08
6.66079e-07
0.000188772
8.72075e-05
1.42454e-06
2.79159e-10
2.50332e-07
2.25299e-08
2.4838e-10
6.58433e-15
2.64161e-15
4.20434e-06
1.7024e-08
5.00701e-07
2.06327e-13
1.10988e-05
0.000151636
0.00013409
1.41843e-05
1.24718e-06
1.78324e-09
9.80959e-09
0.000156314
1.04074e-06
7.40519e-15
6.2424e-09
1.11698e-05
4.98075e-12
2.13425e-16
1.0712e-11
9.67849e-08
9.32311e-07
6.38277e-13
0.000100873
2.63386e-07
5.67547e-12
0.00013911
6.76347e-08
9.62585e-12
4.04263e-12
4.0584e-15
1.07012e-08
0.000106937
3.15957e-09
1.34662e-05
1.71866e-08
1.58997e-05
1.72038e-10
4.19602e-11
1.26283e-05
3.60394e-09
0.000141227
2.52792e-09
0.000107586
0.000114647
5.65172e-15
0.000134749
1.0253e-07
2.48025e-10
2.53822e-09
5.03246e-05
7.20069e-06
0.000142727
1.30147e-13
9.89895e-05
9.01426e-06
4.15796e-14
2.43473e-14
3.78063e-09
6.46162e-13
1.53214e-12
3.44807e-07
3.54916e-12
4.52557e-12
5.46061e-12
0.000117896
1.18685e-05
5.91438e-07
1.26921e-07
5.63134e-05
9.26113e-17
2.18799e-10
3.29091e-09
0.000132594
2.36404e-11
0.000149421
4.84528e-07
0.000155988
9.52542e-05
1.68846e-06
1.23796e-11
3.94715e-12
8.54973e-07
0.00013611
8.93849e-10
0.000162505
0.000139184
8.66477e-14
6.39635e-05
8.09251e-06
4.71511e-11
2.11285e-12
0.000138947
5.35072e-05
0.000108783
1.12042e-07
1.35531e-09
4.75855e-05
2.24169e-15
1.12111e-05
5.64196e-05
6.29822e-05
0.000152752
6.94061e-12
4.39945e-09
1.66334e-08
1.38128e-14
6.39323e-08
7.49241e-10
2.85923e-08
2.69761e-07
4.03543e-13
4.48885e-07
4.37951e-06
1.14865e-05
1.95127e-08
1.3609e-05
2.30712e-10
9.60164e-15
4.93381e-11
9.71388e-12
3.51817e-08
9.18417e-11
0.000113327
1.00015e-10
6.75577e-08
4.57375e-05
1.3544e-07
1.54519e-06
0.000190247
8.35356e-12
1.03602e-08
8.28132e-06
4.37836e-09
0.000113163
8.87047e-07
5.51928e-10
7.49831e-11
8.8374e-06
5.58884e-05
6.03126e-05
2.39457e-09
0.000108711
0.000109761
0.000178908
2.3448e-14
8.30496e-11
2.36258e-08
1.6394e-11
6.54526e-16
3.22212e-14
7.25878e-05
8.77073e-07
9.73807e-09
6.01256e-09
9.33938e-07
3.84678e-07
0.000108201
0.00013742
0.000144859
4.57439e-05
5.39465e-10
5.09912e-07
3.03004e-07
1.13423e-05
5.05853e-11
1.20957e-09
0.000143672
1.99969e-06
9.59544e-09
1.77593e-08
1.0684e-06
6.29045e-05
6.57501e-05
3.74557e-08
9.75389e-05
3.64457e-11
1.76727e-14
4.44667e-06
2.83565e-12
1.06188e-05
4.2778e-05
5.46122e-06
1.35687e-06
8.38671e-06
1.49757e-08
1.01548e-07
7.49674e-05
0.000109042
1.30431e-07
1.78022e-06
5.60196e-05
0.000120964
1.02841e-05
0.000147748
7.36942e-09
2.69145e-07
0.000101742
8.75438e-08
7.05163e-07
2.68703e-12
9.48597e-09
1.59483e-09
2.61661e-12
1.33365e-09
7.01004e-10
1.37988e-05
2.61727e-10
4.93579e-05
1.81395e-05
5.26515e-05
7.00677e-08
1.12558e-06
1.76722e-08
5.74663e-11
8.02234e-06
6.31098e-06
0.000136111
8.44948e-06
0.000132239
1.24317e-05
1.15142e-12
1.76729e-15
8.78105e-10
3.56222e-14
0.000107528
0.000130263
1.54384e-08
1.07648e-05
8.94095e-05
1.18562e-07
0.000107047
5.83633e-10
2.56273e-13
1.32221e-12
1.5914e-07
1.21079e-08
5.39989e-07
2.75878e-10
9.84283e-05
4.33859e-08
0.000113635
0.000104783
4.99134e-05
4.99845e-13
6.75524e-07
1.77246e-06
0.000111529
0.000306634
4.7526e-12
5.87502e-06
1.02406e-05
1.1554e-05
0.000108624
9.65502e-05
0.000112739
5.06915e-05
1.13474e-08
5.6467e-05
1.46878e-13
4.73273e-05
0.000115725
7.5464e-06
9.5456e-05
0.000143097
0.000138742
2.87332e-09
1.00824e-07
6.4629e-08
5.59082e-05
2.1149e-06
0.000143341
1.03395e-06
4.30022e-05
1.14255e-10
8.30276e-12
0.000143529
1.17844e-11
1.26257e-08
2.0151e-10
6.2124e-10
3.44347e-12
4.34507e-08
4.4955e-13
1.30515e-09
3.63781e-11
0.00016969
1.08977e-05
5.35829e-05
1.90963e-13
0.000107372
1.4347e-05
3.06497e-17
2.42992e-05
1.12829e-06
0.000128867
2.08661e-07
1.61413e-06
1.15833e-07
1.70512e-09
1.06446e-10
1.51771e-12
6.22518e-11
1.10838e-10
1.14724e-07
5.49642e-05
5.53052e-05
3.08023e-14
1.19988e-08
1.85377e-12
9.54892e-13
7.87641e-10
5.85493e-11
5.3138e-13
0.000108535
7.38983e-14
3.82999e-07
0.000135825
2.04564e-09
0.000142706
3.43318e-09
4.93766e-05
0.000107891
4.51619e-14
9.51898e-05
0.000149951
0.000125328
0.000109638
0.000103442
2.99605e-08
7.21418e-06
4.69227e-07
8.67616e-13
5.35977e-05
3.52242e-10
7.19747e-07
1.1352e-09
0.000145132
3.85288e-14
1.41504e-06
3.07009e-07
2.3153e-10
0.000137659
9.80568e-05
2.60082e-13
0.000171716
2.63245e-07
0.000123895
4.06747e-09
4.11601e-05
2.20879e-06
1.1036e-06
5.08364e-12
0.00010878
0.000127907
0.000108579
2.018e-14
5.1001e-05
0.000108754
5.4355e-07
1.20674e-05
0.00014218
5.85664e-06
0.000155419
1.70604e-10
2.13493e-13
1.17239e-07
7.05794e-10
0.000181244
1.54061e-06
9.24237e-05
1.36133e-07
1.30182e-12
8.73191e-07
5.00175e-10
9.3057e-06
1.3922e-06
0.000106341
2.76669e-13
2.56851e-06
1.17871e-06
1.00025e-06
5.32074e-05
0.000127222
3.28063e-11
1.331e-11
2.05287e-09
4.34914e-05
3.04215e-11
0.000167276
0.000190382
0.00010662
1.22709e-08
0.000114785
4.40391e-07
0.000143896
0.000115346
2.63584e-09
5.08417e-05
0.000102846
0.000105417
1.80163e-16
1.23124e-12
5.97028e-07
5.20308e-05
6.80271e-12
1.33471e-13
5.13766e-07
1.42493e-07
3.38512e-11
3.30368e-09
1.49774e-07
0.000157767
1.24915e-11
2.45995e-05
5.19649e-05
0.000153473
6.54354e-09
5.81838e-10
5.05187e-06
2.14212e-13
0.000156187
9.8624e-07
4.15705e-11
0.000136257
1.03315e-14
1.85187e-09
4.66121e-12
0.000107031
8.23281e-09
9.90728e-05
5.51169e-07
4.86511e-05
0.000137457
1.21046e-07
5.82586e-12
4.70668e-05
2.04325e-15
2.73703e-10
5.29785e-11
4.48288e-08
5.88073e-05
0.000152279
2.63414e-09
1.28013e-13
8.9088e-12
1.64587e-10
5.63355e-05
8.69153e-15
6.03231e-05
4.59885e-05
2.47216e-14
1.26577e-05
3.17795e-06
1.37161e-11
1.09871e-06
0.000103272
0.000113825
5.88049e-08
1.16514e-10
9.74252e-05
0.000116974
1.02571e-05
1.95838e-11
4.43948e-12
0.000146897
1.04521e-05
2.52988e-11
7.47368e-11
2.67488e-12
1.49513e-15
1.09721e-06
3.25645e-07
6.74504e-16
3.47657e-11
1.18976e-05
0.000156673
0.000157324
6.88352e-09
3.29324e-06
4.61218e-13
3.42514e-11
6.33317e-10
3.55981e-12
6.5575e-09
1.24481e-11
1.25105e-13
3.56146e-10
4.44359e-06
2.40984e-12
1.45332e-10
7.22228e-06
1.57712e-09
7.36669e-06
0.000132501
1.83642e-08
3.16613e-11
1.67648e-12
2.25878e-09
3.24423e-10
6.89499e-06
0.000125402
5.04556e-15
1.20671e-10
1.42613e-14
7.98954e-09
8.41362e-05
5.22844e-05
9.74251e-07
0.000168554
1.27114e-10
0.000112464
4.84605e-07
3.70425e-15
4.94676e-17
1.76003e-13
1.86932e-07
0.00010207
0.000155872
0.000253392
4.14653e-06
0.000121968
2.50373e-13
7.35651e-10
0.000103945
2.92952e-06
2.72851e-06
2.03687e-07
6.37944e-08
1.52022e-07
2.51496e-05
5.30803e-07
1.60813e-09
0.000129184
3.74652e-09
0.00010593
0.000132422
1.39881e-09
4.72938e-05
1.36928e-10
1.92328e-11
3.9532e-08
5.86115e-06
1.13498e-05
7.26217e-12
1.20737e-14
1.20408e-12
8.88702e-05
0.00012616
4.20239e-07
6.65276e-11
1.57521e-06
6.97707e-07