/*--------------------------------*- C++ -*----------------------------------*\
| =========                 |                                                 |
| \\      /  F ield         | OpenFOAM: The Open Source CFD Toolbox           |
|  \\    /   O peration     | Version:  2406                                  |
|   \\  /    A nd           | Website:  www.openfoam.com                      |
|    \\/     M anipulation  |                                                 |
\*---------------------------------------------------------------------------*/
FoamFile
{
    version     2.0;
    format      ascii;
    arch        "LSB;label=32;scalar=64";
    class       volScalarField;
    location    "62";
    object      p;
}
// * * * * * * * * * * * * * * * * * * * * * * * * * * * * * * * * * * * * * //

dimensions      [0 2 -2 0 0 0 0];

internalField   nonuniform List<scalar> 
59516
(
0.234998
0.0135589
0.012872
0.00178914
0.248456
0.268962
0.2358
0.208982
0.0683512
-0.000531754
0.243142
0.237085
0.163922
0.234249
0.219795
0.0694072
0.236096
0.244061
0.240421
0.233113
0.239552
0.208388
0.235695
0.151184
0.0605497
0.145886
0.0858827
0.242836
0.238218
0.218808
0.251775
0.242991
0.109688
0.00132874
0.240596
0.196768
0.0589783
0.246904
0.238818
0.0118427
0.013962
0.243173
0.239718
0.00147981
0.238225
0.0369968
0.239026
0.239541
0.250085
0.240859
0.256103
0.00105846
0.111727
0.212641
0.239
0.238112
0.244352
0.00142974
0.150831
0.241675
0.00136753
0.192401
0.152072
0.236697
0.0029306
0.238533
0.00728886
0.20042
0.2504
0.238082
0.203981
0.233106
0.0411779
0.234381
0.201686
0.237674
0.239087
0.026216
0.167187
0.240754
0.00132195
0.240764
0.239812
0.0977546
0.240771
0.232731
0.0687098
0.233366
0.110558
0.244029
0.24659
0.205167
0.228282
0.202509
0.203458
0.249802
0.218834
0.209614
0.240517
0.162297
0.0744943
0.134652
0.214894
0.00778655
0.0411954
0.00622375
0.00559022
0.0644489
0.116533
0.168636
0.248708
0.080342
0.205653
0.249252
0.226108
0.187349
0.0288141
0.213045
0.213615
0.0288232
0.214912
0.211598
0.0555043
0.21311
0.24718
0.240649
0.226217
0.244791
0.255857
0.227519
0.225283
0.0137624
0.201482
0.228043
0.228761
0.198455
0.247588
0.222046
0.135692
0.231793
0.0813647
0.102108
0.209086
0.080716
0.232386
0.230061
0.238578
0.234036
0.254891
0.22893
0.232148
0.00277943
0.226181
0.00262461
0.227604
0.00493711
0.00350456
0.228248
0.22885
0.220542
0.232421
0.232183
0.219995
0.00405102
0.185656
0.0271625
0.0685684
0.229845
0.230482
0.00383703
0.22767
0.227687
0.223318
0.22415
0.223726
0.239616
0.188327
0.240396
0.0124764
0.185932
0.225985
0.119811
0.142196
0.225375
0.225556
0.0759509
0.104967
0.0583734
0.226971
0.224639
0.000301022
0.118752
0.229577
0.224594
0.230968
0.0184476
0.136329
0.135818
0.00362794
0.223061
-0.000566773
0.0572867
0.210161
0.163047
0.192107
0.120065
0.230559
0.00316029
0.15558
0.216868
0.0385013
0.242611
0.215909
0.193236
0.217004
0.086412
0.229197
0.0184465
0.177873
0.217463
0.217244
0.230244
0.223226
0.00401168
0.219915
0.187589
0.154966
0.163174
0.22283
0.0334992
0.21907
0.117984
0.223412
0.124276
0.130818
0.22355
0.222106
0.0468092
0.221986
0.0498748
0.226127
0.120032
0.116356
0.00293167
0.227402
0.226956
0.224538
0.0111155
0.223494
0.226542
0.0115743
0.224798
0.226605
0.141138
0.225573
0.226399
0.0698623
0.221515
0.172121
0.218441
0.157127
0.220265
0.221802
0.221468
0.196692
0.0530383
0.178511
0.0633341
0.219133
0.148561
0.236342
0.191713
0.0672562
0.151183
0.220022
0.196735
0.148842
0.218888
0.219896
0.0869166
0.223108
0.163621
0.152327
0.217889
0.216175
0.235528
0.226388
0.00664351
0.221731
0.197789
0.220835
0.218402
0.202949
0.0266553
0.205924
0.115907
0.1985
0.194193
0.218879
0.197651
0.197001
0.0556452
0.0908817
0.191767
0.200516
0.145529
0.0183293
0.197003
0.197686
0.0741461
0.0606319
0.198155
0.142038
0.133881
0.238415
0.199763
0.210797
0.250506
0.199116
0.0582499
0.118164
0.209692
0.125483
0.212526
0.163837
0.200179
0.242487
0.210945
0.154825
0.212085
0.0210319
0.232123
0.152232
0.212054
0.174193
0.218396
0.221551
0.191388
0.241807
0.216672
0.193297
0.191299
0.212878
0.046472
0.0960539
0.216667
0.0893442
0.220872
0.213225
0.172618
0.222773
0.224594
0.0343676
0.111408
0.15494
0.0473613
0.0069751
0.248566
0.253147
0.187137
0.030747
0.228697
0.241546
0.206065
0.0302605
0.212096
0.211517
0.229061
0.252198
0.21541
0.0789104
0.077455
0.211212
0.159099
0.182526
0.210991
0.212565
0.207393
0.169764
0.201904
0.229529
0.00101094
0.242396
0.00930741
0.0177578
0.212544
0.00692832
0.241849
0.211953
0.0128851
0.0126862
0.0525235
0.207522
0.247163
0.210144
0.247656
0.0102765
0.069527
0.207458
0.208681
0.218355
0.205746
0.17061
0.218778
0.219734
0.0559803
0.135235
0.219899
0.218337
0.217381
0.0368233
0.0208046
0.0226229
0.123231
0.192894
0.00934248
0.0332674
0.0645259
0.00436499
0.207282
0.204993
0.210653
0.210284
0.220658
0.209883
0.161664
0.204669
0.139962
0.210351
0.175729
0.213541
0.208995
0.196731
0.124766
0.218793
0.242195
0.0215623
0.214169
0.158839
0.0766859
0.161253
0.178632
0.215976
0.213991
0.211093
0.20946
0.0742093
0.209125
0.163143
0.0265445
0.180609
0.253303
0.139656
0.0597059
0.211431
0.173991
0.20889
0.131235
0.208711
0.0588748
0.209462
0.00382003
0.00714638
0.206129
0.239723
0.204001
0.188685
0.0352625
0.191627
0.190041
0.0396399
0.19832
0.190082
0.185728
0.185071
0.0935263
0.192036
0.187422
0.12787
0.185666
0.082384
0.183311
0.242979
0.183484
0.255358
0.184503
0.222462
0.0801596
0.0924991
0.160573
0.00363515
0.00283347
0.173996
0.196545
0.200341
0.154552
0.188052
0.0470113
0.205768
0.203807
0.244166
0.136339
0.119622
0.163766
0.2036
0.019613
0.198516
0.235376
0.00444154
0.275004
0.204502
0.0618984
0.232014
0.172592
0.237222
0.191079
0.16607
0.18355
0.206846
0.169252
0.207086
0.228598
0.0711787
0.0714265
0.247858
0.00289803
0.20563
0.197534
0.247399
0.195953
0.231946
0.00074224
0.199118
0.0809326
0.00022342
0.150201
0.0372307
0.245345
0.212573
0.0661249
0.00198512
0.218616
0.122214
0.198218
0.217918
0.197666
0.229281
0.000692726
0.0996665
0.0650666
0.197277
0.0337017
0.144953
0.205524
0.127293
0.204288
0.00250819
0.208582
0.0616036
0.205139
0.161507
0.110215
0.102786
0.206593
0.0020521
0.0408319
0.19637
0.0762603
0.155623
0.178029
0.116917
0.112318
0.196069
0.195438
0.224621
0.194771
0.111371
0.19633
0.19432
0.106643
0.095249
0.000870512
0.195189
0.195054
0.196716
0.0908798
0.188504
0.00978802
0.197485
0.00523941
0.207114
0.000909008
0.0229715
0.16741
0.119158
0.0102358
0.197866
0.24561
0.00337327
0.0162038
0.194858
0.191546
0.031734
0.193762
0.194315
0.131705
0.0379973
0.207024
0.200669
0.0128252
0.196259
0.19664
0.144267
0.193134
0.254408
0.197064
0.247653
0.169339
0.250055
0.172219
0.0220242
0.231148
0.00511306
0.00567183
0.251758
0.250425
0.173916
0.196385
0.245098
0.241879
0.121929
0.0976804
0.159804
0.0594744
0.170129
0.113074
0.242105
0.172813
0.17502
0.190116
0.179832
0.252272
0.162592
0.183519
0.0510462
0.183527
0.136616
0.0169201
0.18358
0.182597
0.184008
0.137734
0.0833448
0.260504
0.116026
0.119155
0.141341
0.218268
0.184067
0.060155
0.170538
0.141118
0.0123849
0.0627342
0.186749
0.214443
0.147946
0.138234
0.185735
0.185619
0.0746019
0.224047
0.194448
0.128013
0.191579
0.154177
0.201064
0.189459
0.00954736
0.0243611
0.172535
0.252907
0.135511
0.126505
0.00300577
0.144738
0.189181
0.109069
0.19843
0.19397
0.082865
0.114129
0.196888
0.231741
0.207275
0.157411
0.252258
0.196706
0.031968
0.20481
0.255054
0.0203687
0.113242
0.218674
0.185211
0.0719632
0.179729
0.0218886
0.0164
0.156966
0.185511
0.252334
0.208758
0.184985
0.18465
0.189937
0.0841414
0.0100798
0.0609692
0.207436
0.25168
0.139663
0.187423
0.126099
0.0542758
0.18429
0.0578736
0.185185
0.236471
0.11477
0.0021361
0.212154
0.0888269
0.190407
0.0166208
0.0714535
0.142575
0.215065
0.188611
0.190617
0.252973
0.21528
0.0360493
0.254975
0.0030338
-0.000621263
0.189878
0.0388259
0.103581
0.142391
0.0995152
0.252504
0.186823
0.211954
0.182898
0.0421608
0.152932
0.0484812
0.117143
0.210569
0.183074
0.184711
0.182387
0.067681
0.226972
0.171736
0.0602179
0.183613
0.18206
0.181494
0.169148
0.183707
0.0179691
0.0111315
0.182768
0.00326424
0.110985
0.127167
0.00966442
0.13363
0.156224
0.233883
0.173652
0.204322
0.160218
0.117798
0.184057
0.185778
0.18649
0.100182
0.18529
0.227273
0.0154242
0.00265889
0.124782
0.106005
0.00279027
0.185013
0.182509
0.183968
0.0170371
0.0280761
0.181783
0.217976
0.0270593
0.0354719
0.252482
0.243957
0.187255
0.0367813
0.196114
0.173244
0.200876
0.157436
0.179426
0.246455
0.157617
0.157058
0.0804516
0.159132
0.247461
0.0302547
0.177693
0.157487
0.0948792
0.194006
0.199987
0.0817691
0.192657
0.215558
0.195516
0.157737
0.2377
0.0480442
0.157288
0.210932
0.0138573
0.168833
0.0647891
0.154546
0.085339
0.246484
0.160988
0.00282438
0.155286
0.154608
0.164706
0.156526
0.144178
0.00436713
0.0391045
0.193181
0.166807
0.137418
0.195586
0.0998933
0.216646
0.0220676
0.166483
0.0740901
0.150723
0.195684
0.0142886
0.169037
0.165653
0.248795
0.0233613
0.201076
0.220296
0.0373011
0.162743
0.0389993
0.132127
0.18565
0.199817
0.162601
0.161484
0.16088
0.252394
0.0289766
0.198803
0.0985498
0.0173976
0.163234
0.203675
0.173296
0.172131
0.0300041
0.174749
0.176279
0.0927198
0.222747
0.250995
0.233986
0.131644
0.176731
0.00375014
0.241174
0.159153
0.173798
0.144525
0.176087
0.17439
0.178833
0.194835
0.179007
0.199944
0.174802
0.231559
0.232727
0.174526
0.191402
0.173728
0.199774
0.200666
0.012306
0.115349
0.137225
0.0120642
0.185216
0.176863
0.186756
0.0973183
0.00602641
0.101634
0.173301
0.189629
0.189585
0.112675
0.130018
0.187148
0.249359
0.177941
0.00794407
0.0173916
0.20802
0.17919
0.106868
0.142965
0.176879
0.116269
0.169687
0.17016
0.170012
0.144718
0.191696
0.169318
0.253516
0.0220838
0.169078
0.253743
0.169394
0.221826
0.0383018
0.16779
0.106717
0.0812254
0.170139
0.169417
0.104842
0.106862
0.168197
0.0898139
0.166619
0.167285
0.173586
0.0995794
0.165355
0.0284386
0.167546
0.167339
0.112744
0.165805
0.166185
0.235041
0.161271
0.136143
0.16248
0.16426
0.114249
0.0546676
0.0984863
0.24191
0.166446
0.167402
0.140784
0.0559458
0.242392
0.143228
0.145882
0.142138
0.140993
0.0104049
0.00542441
0.0462352
0.0938019
0.167683
0.166842
0.00531835
0.207894
0.157418
0.0718973
0.242483
0.137828
0.136572
0.244857
0.13919
0.201419
0.0423168
0.137542
0.195996
0.18181
0.137831
0.101511
0.0368091
0.138524
0.207809
0.18643
0.106325
0.0503836
0.0816932
0.144729
0.0847804
0.207616
0.0810222
0.142345
0.152439
0.248703
0.110162
0.00970308
0.0533158
0.0824396
0.139982
0.206176
0.151277
0.150968
0.0189396
0.119678
0.00756246
0.153343
0.153342
0.0839372
0.0116567
0.183447
0.0360324
0.226152
0.170736
0.167486
0.240931
0.0818923
0.196835
0.20519
0.137362
0.0143991
0.167526
0.238563
0.165929
0.163892
0.139805
0.0723648
0.16757
0.0154906
0.239962
0.20934
0.112093
0.166841
0.159688
0.207247
0.233585
0.198224
0.0272427
0.0731246
0.164638
0.171941
0.193195
0.109169
0.190076
0.243934
0.16342
0.192288
0.0656089
0.169645
0.127472
0.0786863
0.169252
0.169114
0.168305
0.192261
0.165389
0.0378942
0.166114
0.0718662
0.188652
0.0185391
0.164321
0.191643
0.00348163
0.0212143
0.161366
0.0612534
0.0417524
0.0650315
0.0544813
0.099046
0.0356975
0.164238
0.16221
0.0286745
0.161387
0.162486
0.190546
0.00911458
0.163775
0.157014
0.00209938
0.0225906
0.15438
0.0895573
0.00341589
0.0115821
0.154768
0.110928
0.159765
0.236571
0.0150115
0.190911
0.1436
0.158943
0.156171
0.141104
0.180294
0.166033
0.160699
0.146878
0.239556
0.210401
0.159504
0.161984
0.220263
0.0323355
0.208281
0.180849
0.109373
0.103344
0.161863
0.0737752
0.0184156
0.149363
0.153846
0.254429
0.129585
0.154113
0.15211
0.177098
0.0732515
0.152311
0.153345
0.230334
0.153796
0.0691769
0.156571
0.156248
0.125345
0.113555
0.137505
0.156419
0.153527
0.156254
0.105503
0.132942
0.15959
0.139002
0.104394
0.111092
0.111934
0.112236
0.130341
0.154512
0.132949
0.242633
0.22145
0.0395211
0.0941504
0.0979622
0.131253
0.129185
0.133192
0.170959
0.130246
0.129478
0.0778205
0.0981475
0.181607
0.0772736
0.0311802
0.132411
0.131474
0.134066
0.22491
0.0127734
0.00627672
0.0920641
0.141674
0.138773
0.20839
0.0316994
0.131821
0.242737
0.037414
0.140378
0.139852
0.166983
0.00166851
0.138553
0.138708
0.138013
0.149444
0.00468476
0.00683057
0.149861
0.149979
0.146857
0.148505
0.154023
0.145512
0.0727481
0.0145529
0.24758
0.186035
0.150102
0.14915
0.112762
0.235201
0.228538
0.212508
0.00121607
0.212677
0.150935
0.150933
0.149846
0.150607
0.151198
0.149851
0.204183
0.12597
0.198443
0.132918
0.0724351
0.0127818
0.152132
0.11328
0.00409274
0.134572
0.156586
0.239288
0.157707
0.10735
0.104098
0.183512
0.117633
0.154647
0.160841
0.15882
0.12896
0.139095
0.235287
0.154119
0.197055
0.0692554
0.0572792
0.152102
0.0593333
0.0208194
0.156707
0.156347
0.115895
0.0778835
0.0894818
0.222051
0.155655
0.0460722
0.00523172
0.140002
0.0258467
0.110146
0.150538
0.185964
0.139305
0.02348
0.226092
0.0137745
0.220261
0.122305
0.209188
0.143665
0.0408988
0.152208
0.137404
0.0869336
0.104532
0.152746
0.153081
0.227177
0.187542
0.198605
0.231799
0.192572
0.185686
0.186015
0.202884
0.14943
0.148897
0.117383
0.0582898
0.0671032
0.0163452
0.210403
0.117994
0.146615
0.144504
0.145857
0.041066
0.142625
0.199847
0.00471953
0.142724
0.146912
0.168044
0.250113
0.200874
0.199669
0.143306
0.0114944
0.20988
0.145462
0.175447
0.152502
0.1792
0.189719
0.133946
0.207194
0.148342
0.187315
0.152537
0.0184013
0.201182
0.207543
0.12031
0.245724
0.0672928
0.0775708
0.0675992
0.132461
0.195879
0.0544378
0.175042
0.0558128
0.148846
0.148809
0.128221
0.1545
0.140138
0.218454
0.18049
0.138477
0.185351
0.145116
0.251126
0.205346
0.144599
0.140781
0.180268
0.214975
0.142316
0.0241183
0.174608
0.218221
0.139388
0.127154
0.143605
0.146189
0.147437
0.148195
0.00345653
0.0675567
0.14929
0.244997
0.14775
0.121265
0.193192
0.118954
0.103228
0.219542
0.2452
0.20173
0.201849
0.203355
0.0321719
0.138782
0.166249
0.243694
0.232163
0.245755
0.249385
0.231919
0.123246
0.120221
0.24415
0.0531115
0.124445
0.18478
0.121321
0.201326
0.189834
0.243914
0.22574
0.201002
0.066981
0.123412
0.136777
0.131276
0.137806
0.203653
0.18587
0.137393
0.133147
0.135221
0.0144122
0.215284
0.0380478
0.138302
0.163451
0.143646
0.139766
0.134865
0.0383925
0.14111
0.124403
0.140405
0.139506
0.207879
0.127308
0.0724758
0.043542
0.194981
0.0997894
0.09895
0.190491
0.0827218
0.0461373
0.0397396
0.0296633
0.187691
0.0622672
0.126727
0.157748
0.0295557
0.212487
0.21316
0.0883967
0.0857353
0.229603
0.130987
0.0140259
0.152725
0.0298748
0.183521
0.028563
0.0445132
0.0178212
0.00913406
0.074183
0.208863
0.0428027
0.0226194
0.0236175
0.137602
0.0273402
0.135518
0.214124
0.13891
0.136536
0.187175
0.0420231
0.141708
0.140442
0.0110397
0.0676164
0.209636
0.141647
0.142113
0.189004
0.214384
0.204267
0.213491
0.0507235
0.23607
0.244107
0.141793
0.142506
0.011826
0.220838
0.243014
0.140027
0.106186
0.139391
0.0160968
0.204844
0.00611308
0.042063
0.131559
0.169365
0.133224
0.108408
0.210753
0.0994233
0.200614
0.131839
0.132979
0.0652314
0.125432
0.113713
0.239346
0.210992
0.181426
0.131952
0.215383
0.0727803
0.0415405
0.0600985
0.0123708
0.132068
0.212777
0.131739
0.0125442
0.0104888
0.207525
0.134117
0.0631194
0.221557
0.134136
0.134482
0.207697
0.0183683
0.20628
0.134944
0.137431
0.138747
0.145272
0.138553
0.202653
0.199556
0.138831
0.228484
0.148108
0.199342
0.168909
0.136687
0.213768
0.133986
0.107353
0.230593
0.151216
0.136103
0.0108868
0.139329
0.138034
0.103892
0.13299
0.184047
0.0527974
0.211204
0.126867
0.192815
0.202442
0.136341
0.148744
0.0096128
0.0633158
0.0511325
0.134677
0.21162
0.0176349
0.132154
0.230747
0.0504602
0.191219
0.0475558
0.133056
0.162437
0.131184
0.00118632
0.174338
0.211475
0.104009
0.0325991
0.0514323
0.100463
0.102104
0.109069
0.209536
0.0100667
0.0332109
0.114217
0.115425
0.198683
0.184224
0.116072
0.120957
0.110712
0.16893
0.232074
0.21713
0.147553
0.0272315
0.196387
0.195315
0.0882223
0.0454497
0.179695
0.0835561
0.114042
0.187285
0.14773
0.151259
0.129014
0.110361
0.120034
0.119775
0.11831
0.190633
0.122328
0.164901
0.228127
0.211267
0.185231
0.204464
0.111445
0.0813122
0.210303
0.123165
0.187959
0.145942
0.193213
0.237553
0.11575
0.00638374
0.124532
0.126238
0.132387
0.208784
0.123792
0.13025
0.150419
0.13229
0.150166
0.126262
0.00177191
0.149033
0.129978
0.129526
0.0046934
0.186123
0.233712
0.148674
0.155506
0.11749
0.131874
0.13037
0.0531646
0.231701
0.132057
0.131658
0.133683
0.0320776
0.20926
0.141871
0.118614
0.148745
0.0772665
0.100886
0.198075
0.122469
0.119025
0.096198
0.119547
0.129484
0.0806886
0.122585
0.20932
0.13881
0.0703165
0.208309
0.209231
0.106828
0.107777
0.0906634
0.12255
0.0536413
0.125795
0.0590906
0.253139
0.194638
0.161381
0.077149
0.0192921
0.21718
0.0173192
0.0200553
0.121894
0.00205178
0.122405
0.0281041
0.162492
0.0854014
0.121157
0.182102
0.16349
0.122263
0.0243629
0.0198478
0.159022
0.120166
0.0355027
0.123033
0.121657
0.138844
0.127879
0.236721
0.187911
0.217137
0.160616
0.183555
0.121917
0.187446
0.161892
0.122462
0.21866
0.240406
0.182596
0.178221
0.122531
0.203002
0.119632
0.218079
0.157527
0.185631
0.0178992
0.0375156
0.176166
0.00949744
0.210891
0.252774
0.220199
0.01123
0.0517105
0.0172899
0.207621
0.2161
0.00573285
0.163527
0.115835
0.202776
0.167464
0.115259
0.123271
0.0286563
0.17925
0.18263
0.0502774
0.236653
0.216935
0.131521
0.117163
0.247753
0.116493
0.241633
0.181065
0.179169
0.117474
0.22522
0.104155
0.223298
0.208622
0.227714
0.00633596
0.120583
0.234772
0.0630854
0.243427
0.12086
0.229128
0.0908946
0.0901989
0.0959465
0.237613
0.195238
0.22678
0.194183
0.102402
0.234563
0.234939
0.0914552
0.236136
0.106371
0.188148
0.100631
0.195124
0.130027
0.0878458
0.123421
0.0849371
0.124222
0.0189233
0.10777
0.0985419
0.218237
0.0956923
0.182022
0.137186
0.162565
0.105645
0.0356624
0.0786577
0.183275
0.100707
0.217922
0.0678722
0.10997
0.224241
0.186576
0.11203
0.202697
0.110373
0.100238
0.0980224
0.128409
0.10534
0.00195221
0.0357226
0.0391759
0.100822
0.101479
0.185309
0.0450038
0.0260192
0.095998
0.0639319
0.216506
0.197106
0.031745
0.112651
0.16505
0.106651
0.114086
0.0916238
0.111611
0.196677
0.111152
0.154935
0.000642977
0.213493
0.15236
0.245083
0.114679
0.111316
0.0201903
0.218541
0.085188
0.115395
0.187955
0.119132
0.116393
0.109207
0.1073
0.0294548
0.11894
0.114078
0.114673
0.109644
0.128093
0.111648
0.213858
0.0924754
0.116664
0.215555
0.244765
0.159243
0.0958448
0.177253
0.114361
0.104317
0.0994127
0.0535137
0.0929847
0.0849759
0.232687
0.0940906
0.128625
0.12636
0.0315414
0.0932102
0.213326
0.106361
0.109239
0.151063
0.142766
0.104006
0.165472
0.128739
0.107545
0.105151
0.119368
0.105458
0.212012
0.204204
0.095585
0.0924667
0.101896
0.0414306
0.107916
0.128431
0.184676
0.104937
0.108875
0.0994403
0.110789
0.214377
0.0919094
0.207661
0.108745
0.105026
0.0968741
0.105389
0.0818977
0.102009
0.083602
0.0730786
0.104221
0.229998
0.118494
0.22804
0.151894
0.0702113
0.0226098
0.0904486
0.21335
0.106234
0.104936
0.0771477
0.106795
0.076871
0.215199
0.213754
0.0805548
0.0812333
0.0846469
0.0852416
0.171609
0.135216
0.0828173
0.0833968
0.0628267
0.103267
0.0847908
0.0852077
0.0489734
0.0475219
0.00226467
0.0854844
0.173549
0.0294275
0.135283
0.0884601
0.0913025
0.0952032
0.121846
0.211177
0.108133
0.0781472
0.0113142
0.0183721
0.137091
0.0897588
0.0850276
0.117183
0.0306952
0.020171
0.0908941
0.212802
0.100909
0.102673
0.0479577
0.0952912
0.238444
0.0976121
0.0957809
0.134497
0.09799
0.101246
0.212668
0.101944
0.115038
0.0181571
0.0039293
0.166966
0.0356916
0.0206903
0.105066
0.0867125
0.213181
0.103164
0.220584
0.221231
0.100299
0.212181
0.00702604
0.0968941
0.103088
0.0334162
0.104178
0.220829
0.245214
0.0480631
0.217121
0.102658
0.18389
0.201892
0.103243
0.107664
0.21955
0.101015
0.23703
0.102645
0.124746
0.111715
0.237834
0.217227
0.126173
0.105407
0.102357
0.19147
0.124478
0.190976
0.217322
0.214186
0.105609
0.0117997
0.106152
0.0987364
0.190053
0.0804401
0.19069
0.040803
0.20132
0.000263867
0.213991
0.125105
0.0891927
0.0981885
0.216148
0.0957595
0.213744
0.207396
0.215753
0.0130883
0.0034673
0.192506
0.00362377
0.0955915
0.123166
0.166047
0.0934498
0.207697
0.141961
0.21154
0.0912123
0.209961
0.174366
0.189599
0.246281
0.129148
0.2319
0.090825
0.00983236
0.141953
0.00959597
0.24362
0.0446484
0.137472
0.189834
0.0999262
0.0952552
0.0135205
0.0328189
0.0972663
0.194944
0.215885
0.00665268
0.221258
0.125286
0.236515
0.0571353
0.197261
0.097151
0.175105
0.217541
0.17262
0.162072
0.182704
0.198722
0.211596
0.160021
0.0417581
0.186593
0.0984721
0.0988696
0.098366
0.0591116
0.231096
0.232108
0.188123
0.108031
0.207659
0.21402
0.10759
0.099462
0.0982679
0.095104
0.231172
0.0473523
0.0928999
0.146944
0.0954795
0.186158
0.172468
0.114633
0.0562835
0.0965211
0.0946115
0.134222
0.242201
0.155194
0.0946854
0.209051
0.0672432
0.051303
0.227274
0.00466085
0.0669395
0.0135738
0.0670947
0.0673802
0.210113
0.0934217
0.173817
0.208774
0.116774
0.0994663
0.217002
0.0708737
0.214276
0.089563
0.0921495
0.0924853
0.189881
0.160203
0.213891
0.193919
0.205666
0.0793728
0.137761
0.217726
0.203332
0.0994851
0.202585
0.0689578
0.186686
0.0452541
0.188651
0.0952125
0.169712
0.0844078
0.128762
0.20282
0.0670924
0.203485
0.0515387
0.102908
0.0823394
0.029666
0.0869094
0.0813315
0.114753
0.214004
0.0849653
0.0393114
0.0173475
0.190603
0.0192857
0.20498
0.00418194
0.0892414
0.0481385
0.088037
0.203221
0.20677
0.0448603
0.230189
0.0314868
0.00220387
0.189251
0.17116
0.0868429
0.203452
0.0655735
0.0187122
0.112021
0.00247875
0.142244
0.181539
0.13234
0.0889072
0.240638
0.0903382
0.145577
0.189204
0.119398
0.205724
0.0868227
0.13037
0.0860363
0.134835
0.229705
0.0923768
0.0795991
0.135291
0.0868069
0.150775
0.0852211
0.0559217
0.0852996
0.229536
0.0850571
0.0817652
0.0844201
0.22357
0.107644
0.215303
0.233142
0.231489
0.165671
0.0462125
0.0618608
0.173119
0.203981
0.0215298
0.0596033
0.0844536
0.0829766
0.205279
0.243774
0.0029605
0.0306815
0.0760847
0.215187
0.031227
0.120955
0.205278
0.0821045
0.0809246
0.0814806
0.0792159
0.0818252
0.166383
0.101247
0.201854
0.0217685
0.0849198
0.0818446
0.225282
0.129007
0.221488
0.23483
0.0447509
0.0825236
0.0617332
0.223634
0.226046
0.220954
0.220304
0.114349
0.06095
0.216077
0.0448636
0.0823187
0.198128
0.0919055
0.0814081
0.0647895
0.0801006
0.196663
0.195616
0.0824313
0.145366
0.0922966
0.091656
0.241124
0.0237055
0.0507459
0.0821443
0.082931
0.00734166
0.0829614
0.0631252
0.0879855
0.192434
0.0831892
0.0157968
0.0894416
0.00739692
0.225941
0.219035
0.115522
0.0853864
0.0880031
0.101065
0.0752658
0.0683301
0.103124
0.0722693
0.0710778
0.0621606
0.0726076
0.227278
0.202718
0.121395
0.189777
0.0766209
0.195907
0.0606342
0.189225
0.15737
0.181703
0.0737069
0.137744
0.0171485
0.196241
0.211459
0.084552
0.248799
0.0761558
0.0780782
0.131041
0.0201731
0.101707
0.0788116
0.195101
0.0597735
0.0844104
0.0816862
0.0568248
0.162084
0.0569813
0.0561164
0.0573631
0.0581727
0.0570551
0.19163
0.192098
0.19808
0.188793
0.0365637
0.057583
0.222313
0.0631949
0.0350906
0.062563
0.0621649
0.0374979
0.0629338
0.0616773
0.0622997
0.0793344
0.0759251
0.139774
0.0869637
0.0980661
0.126865
0.109581
0.10061
0.0375192
0.0797636
0.0790525
0.0597064
0.0645129
0.07701
0.152848
0.0158286
0.180802
0.240781
0.141995
0.230764
0.0782405
0.0173588
0.0190382
0.0186408
0.105611
0.0200094
0.0748997
0.0770401
0.216293
0.248361
0.131606
0.0697757
0.219667
0.119086
0.146667
0.0764676
0.148992
0.0766779
0.153559
0.0641574
0.0342385
0.0415316
0.0725975
0.0014473
0.0785737
0.218026
0.0580181
0.178684
0.0233145
0.0702799
0.0724306
0.203988
0.0986757
0.153793
0.110688
0.152704
0.0716336
0.0138799
0.220506
0.0860498
0.142426
0.21709
0.217195
0.0733914
0.0622742
0.0741391
0.112876
0.0737524
0.149779
0.203608
0.115824
0.0748673
0.075512
0.119868
0.13685
0.168664
0.0746862
0.0765295
0.0769656
0.218048
0.0756016
0.0769909
0.0276745
0.0675435
0.0356838
0.0134894
0.0351613
0.0218288
0.0662719
0.0678942
0.0110719
0.0537121
0.0106696
0.21575
0.0692499
0.0391727
0.215916
0.165818
0.103631
0.059913
0.0723646
0.0110439
0.0707678
0.158872
0.111663
0.06917
0.221415
0.0340946
0.00315041
0.0699865
0.255888
0.109864
0.144418
0.0124547
0.0703637
0.0697413
0.168695
0.0126207
0.108866
0.139888
0.0647055
0.0698341
0.0720761
0.248039
0.227829
0.221721
0.105585
0.0356204
0.0138
0.0124714
0.223008
0.0125882
0.0442435
0.0732033
0.24424
0.0858996
0.0745557
0.200933
0.222782
0.159239
0.151091
0.0736024
0.0717034
0.215953
0.185008
0.196194
0.0214882
0.181469
0.0477776
0.0998567
0.0392614
0.071119
0.11305
0.227709
0.113767
0.11192
0.235537
0.0669054
0.217536
0.0502923
0.14893
0.174747
0.227468
0.113753
0.221042
0.0631103
0.0527572
0.0315518
0.0670724
0.220899
0.050874
0.0459041
0.136819
0.0522143
0.0524224
0.056373
0.0180598
0.103766
0.0685111
0.0809317
0.0475473
0.0620647
0.0549124
0.0376638
0.223104
0.154933
0.0506759
0.0703313
0.253015
0.132172
0.0672672
0.142065
0.0677847
0.126389
0.0658579
0.22142
0.0492084
0.249881
0.0429499
0.0379499
0.138047
0.0517452
0.150897
0.132124
0.159487
0.0209101
-0.000977976
0.0288778
0.0239591
0.0428221
0.0154367
0.0473606
0.043989
0.0433783
0.233918
0.0290509
0.223487
0.223783
0.0338805
0.212909
0.070937
0.218521
0.20297
0.0492186
0.214955
0.0494008
0.00150095
0.159076
0.102037
0.20745
0.202246
0.111793
0.0171164
0.0308911
0.160998
0.175346
0.0507602
0.0491759
0.0662118
0.178555
0.194481
0.14388
0.0178391
0.0128662
0.0653642
0.163982
0.18036
0.197381
0.234296
0.0674103
0.207894
0.190432
0.142737
0.250765
0.101925
0.131235
0.166392
0.063455
0.225676
0.0108051
0.0982743
0.19018
0.171841
0.201574
0.224481
0.0201375
0.0980749
0.0657231
0.117182
0.0665372
0.108507
0.120332
0.116338
0.0841678
0.0663334
0.0654029
0.0632056
0.0858046
0.23284
0.0925608
0.0831475
0.0890723
0.219758
0.193066
0.0191163
0.22524
0.0658611
0.0631395
0.132128
0.055644
0.0563339
0.0776891
0.019557
0.0545996
0.0592424
0.0136083
0.0520552
0.0510127
0.0560258
0.0737961
0.0615113
0.0619938
0.223525
0.0411757
0.0499624
0.0365871
0.0676892
0.0362597
0.0341891
0.0640015
0.0150131
0.0161964
0.0913117
0.0374677
0.0331477
0.224658
0.0645851
0.0497546
0.0457558
0.0173258
0.0409077
0.0639513
0.0661583
0.0586003
0.102923
0.140979
0.162698
0.121795
0.0163427
0.0584038
0.0568759
0.0585884
0.185732
0.0896601
0.0654143
0.240028
0.0574696
0.0888925
0.0569096
0.0593308
0.156113
0.16198
0.0569402
0.0951653
0.203751
0.202663
0.0897624
0.0576283
0.222659
0.0575949
0.12392
0.0582992
0.244803
0.058599
0.183474
0.0572571
0.155946
0.188944
0.217991
0.198186
0.0558083
0.191725
0.139244
0.155599
0.0577679
0.0238116
0.101219
0.141678
0.057523
0.0571388
0.0579491
0.101167
0.0516341
0.235041
0.169921
0.0219474
0.22327
0.0542944
0.21696
0.0222083
0.0500572
0.0530983
0.185213
0.057477
0.159836
0.233032
0.0505094
0.053972
0.0872532
0.228798
0.185248
0.184289
0.0552788
0.194425
0.166304
0.0534512
0.0897074
0.0758062
0.052534
0.0527761
0.159457
0.19694
0.0582603
0.0919642
0.0745099
0.220962
0.216101
0.220361
0.057592
0.222236
0.0389804
0.174947
0.201635
0.116023
0.157153
0.0571495
0.226887
0.0277614
0.0313757
0.033576
0.096554
0.0334622
0.103416
0.101488
0.090278
0.112308
0.180558
0.0921672
0.136714
0.00770574
0.0388089
0.0784077
0.130668
0.0548315
0.146012
0.204843
0.106024
0.176512
0.1703
0.0101556
0.033589
0.154445
0.0393769
0.000322745
0.225262
0.186638
0.215945
0.0317827
0.225113
0.086252
0.213964
0.0824454
0.217147
0.0815758
0.221962
0.0364728
0.194982
0.052872
0.166133
0.0834389
0.171197
0.0860669
0.259136
0.0532286
0.0719384
0.181292
0.166464
0.0514918
0.112188
0.166611
0.0532421
0.149611
0.0215053
0.149165
0.0488659
0.0474804
0.0727159
0.225004
0.0534732
0.0342459
0.0525403
0.0543552
0.0975791
0.18792
0.0608962
0.0547321
0.0971357
0.0972069
0.00424597
0.218988
0.0527513
0.0697862
0.126164
0.172795
0.00166391
0.0542805
0.223541
0.0451965
0.043748
0.137728
0.0259283
0.0385424
0.201931
0.0546667
0.220965
0.101361
0.0346663
0.0428047
0.11389
0.0402621
0.0526219
0.0778186
0.0498911
0.0512081
0.0508541
0.021073
0.132917
0.0490902
0.0692904
0.046832
0.0633209
0.0704667
0.0486083
0.0454911
0.21845
0.0496145
0.0431047
0.0455716
0.223112
0.0534119
0.0446368
0.0618468
0.16507
0.0665605
0.0485919
0.0542048
0.0473818
0.00272442
0.221273
0.0672546
0.0474471
0.0350734
0.22832
0.0895723
0.0241258
0.046162
0.00972742
0.09751
0.220074
0.0450073
0.218698
0.041964
0.0276842
0.222734
0.219519
0.227393
0.0338132
0.224047
0.0132912
0.0163023
0.0462163
0.0243299
0.0208049
0.0567746
0.167262
0.223588
0.214563
0.231577
0.212616
0.131849
0.0957952
0.0354286
0.0433201
0.0508442
0.125193
0.140476
0.0863465
0.186895
0.0662789
0.0474411
0.15173
0.0597521
0.213401
0.212886
0.0266056
0.214588
0.14129
0.194421
0.22817
0.0444427
0.177413
0.143331
0.152038
0.142705
0.0447565
0.109324
0.215619
0.230037
0.0537962
0.210595
0.228155
0.219593
0.182538
0.0376247
0.231427
0.0400503
0.204575
0.205257
0.0398055
0.0442553
0.0355879
0.126516
0.224764
0.0920016
0.142043
0.0361559
0.157484
0.225137
0.0474311
0.184061
0.0457827
0.187985
0.213045
0.231376
0.212292
0.0771359
0.0851183
0.100883
0.178207
0.0475906
0.199501
0.1997
0.045952
0.189391
0.109421
0.0461618
0.142004
0.192535
0.0446894
0.215902
0.0376063
0.196667
0.235246
0.0419165
0.119908
0.0426301
0.145745
0.044785
0.0213913
0.225196
0.147923
0.0725545
0.098177
0.125179
0.118508
0.0180318
0.112743
0.110772
0.214605
0.151333
0.238433
0.205063
0.0600075
0.219304
0.0226615
0.0235814
0.159555
0.135928
0.189553
0.188875
0.0249898
0.0213454
0.108914
0.222144
0.179733
0.204799
0.235843
0.0242804
0.181955
0.149023
0.18244
0.188161
0.13931
0.226191
0.192057
0.195544
0.0554329
0.0595266
0.234584
0.0243769
0.0216493
0.0408882
0.207471
0.222605
0.225699
0.0397425
0.037595
0.165319
0.0390575
0.040183
0.170239
0.230376
0.187946
0.0623166
0.214135
0.108972
0.185332
0.187204
0.231612
0.0381045
0.136801
0.137598
0.0402298
0.0385825
0.0366145
0.0388582
0.145959
0.040336
0.230843
0.182942
0.168686
0.0402238
0.035557
0.0792651
0.177358
0.232157
0.106322
0.0955475
0.229815
0.0174289
0.0311027
0.063138
0.0987747
0.0305873
0.0394415
0.0409472
0.0763305
0.0411101
0.229763
0.230842
0.0841207
0.229845
0.134372
0.0757498
0.0367759
0.0603267
0.056698
0.0675101