/*--------------------------------*- C++ -*----------------------------------*\
| =========                 |                                                 |
| \\      /  F ield         | OpenFOAM: The Open Source CFD Toolbox           |
|  \\    /   O peration     | Version:  2406                                  |
|   \\  /    A nd           | Website:  www.openfoam.com                      |
|    \\/     M anipulation  |                                                 |
\*---------------------------------------------------------------------------*/
FoamFile
{
    version     2.0;
    format      ascii;
    arch        "LSB;label=32;scalar=64";
    class       surfaceScalarField;
    location    "62";
    object      phi;
}
// * * * * * * * * * * * * * * * * * * * * * * * * * * * * * * * * * * * * * //

dimensions      [0 3 -1 0 0 0 0];

oriented        oriented;

internalField   nonuniform List<scalar> 
113358
(
-1.46404e-05
3.02847e-05
-2.12815e-05
5.63743e-06
2.14963e-05
2.72813e-07
-5.76082e-06
-1.60083e-05
-2.526e-05
1.89539e-05
-2.92651e-06
9.23267e-06
-2.37007e-05
-6.14505e-06
2.32366e-05
6.60918e-06
-1.72879e-05
9.19691e-07
3.01307e-05
-1.37625e-05
1.36156e-05
-1.41962e-05
-7.96037e-06
8.54096e-06
-7.18792e-06
3.36555e-05
-2.46181e-05
-1.84941e-06
-7.10693e-07
-3.07012e-05
1.6765e-05
1.4647e-05
8.10602e-06
5.7942e-07
1.78111e-05
-2.64966e-05
6.93139e-06
3.51713e-06
-1.01652e-05
-2.83114e-07
-6.07768e-06
2.30948e-05
-2.18147e-05
4.79762e-06
-1.46609e-05
1.20723e-07
-3.51363e-07
1.48915e-05
-4.41e-05
3.41542e-06
1.17169e-05
2.89674e-05
1.18626e-06
-2.52349e-06
1.33725e-06
1.88281e-06
-1.37268e-06
1.85434e-05
-1.90541e-05
9.89499e-07
3.20747e-07
1.12666e-05
-1.25769e-05
9.76165e-06
3.59715e-05
-2.93633e-05
-1.63697e-05
-1.95092e-05
1.07862e-05
6.70876e-06
2.01425e-06
1.50642e-05
-3.79584e-05
3.17572e-05
-8.86292e-06
2.64193e-05
3.05294e-06
2.80785e-05
-5.75507e-05
1.88974e-05
3.70003e-07
-4.83023e-07
-1.87844e-05
-1.16006e-05
4.65434e-05
4.35546e-06
-3.92993e-05
-9.36843e-07
-4.52541e-05
4.95291e-05
-3.33803e-06
-8.80024e-07
4.16538e-06
3.11873e-07
-3.59714e-06
-4.80054e-05
2.09594e-05
-4.16101e-06
3.12069e-05
-2.12295e-05
4.97208e-06
1.74839e-05
-1.22673e-06
-9.08002e-06
8.79136e-06
-1.7993e-07
4.68563e-07
-1.8819e-06
-7.44681e-06
5.32787e-06
4.00086e-06
1.88658e-05
-4.0859e-07
4.40264e-07
-2.11841e-06
2.11062e-06
7.88892e-09
-5.44181e-06
-2.58638e-05
2.74669e-05
3.83867e-06
5.07062e-06
-2.59678e-07
-8.0792e-06
3.26828e-06
2.01815e-05
-1.05883e-06
1.18048e-06
-2.03031e-05
-2.72912e-05
1.25873e-05
-2.93857e-06
1.76425e-05
1.75048e-05
2.57801e-06
-1.98263e-05
-2.56469e-07
-3.41134e-05
8.67669e-06
-1.19269e-05
3.73631e-05
-3.54528e-08
-2.0556e-06
2.09108e-06
9.3501e-06
1.07756e-05
1.75616e-06
-2.18818e-05
7.31569e-06
-3.6979e-05
3.03714e-05
-7.08062e-07
-3.5015e-06
4.37176e-06
3.71972e-05
-3.80678e-05
-1.8448e-05
1.56722e-05
-1.94533e-05
2.22292e-05
9.2576e-08
-2.41131e-05
-3.10166e-05
5.50373e-05
-1.33769e-06
4.33936e-05
-1.23853e-05
-2.96706e-05
5.09692e-06
-1.79171e-05
-7.14475e-06
-6.39439e-06
3.24334e-05
-3.03459e-07
-2.57355e-05
-2.18207e-06
1.51394e-05
-1.01084e-05
-2.84895e-06
-3.04419e-05
-1.21369e-05
4.1241e-05
-1.17539e-05
3.58363e-05
1.58924e-06
-2.56716e-05
-3.41005e-05
4.25179e-06
-5.51821e-06
3.53669e-05
3.55933e-05
1.58824e-05
-4.71089e-05
-4.36677e-06
2.32256e-05
-1.61794e-05
1.55244e-06
-8.59862e-06
-9.99102e-06
2.87816e-06
1.01397e-05
-3.0267e-06
2.8684e-05
-7.67204e-06
1.62337e-05
-3.72458e-05
-1.01601e-05
-3.72227e-05
4.04937e-05
6.88932e-06
-2.05953e-06
7.53711e-06
-8.75909e-06
3.28152e-06
2.79567e-05
-1.20286e-05
2.01388e-05
-3.60668e-05
-2.13909e-05
4.97374e-06
3.74328e-05
-2.10155e-05
1.11614e-05
-5.44469e-06
4.2883e-06
-1.00049e-05
3.96197e-05
-1.03175e-05
-3.04852e-05
1.18265e-06
-1.30278e-05
-1.47853e-05
8.1592e-06
1.96539e-05
-3.08124e-05
-5.0747e-06
1.45087e-05
2.13784e-05
-2.71963e-06
3.11764e-06
-3.98004e-07
3.62992e-05
-6.23015e-06
-3.5858e-05
5.78889e-06
-1.60056e-05
-4.33247e-05
1.73418e-05
4.19887e-05
-3.97265e-06
4.30214e-06
-3.35149e-05
3.31855e-05
1.5854e-06
2.17346e-05
3.115e-06
-2.64349e-05
3.33579e-06
-2.76312e-06
-5.72775e-07
-2.33826e-08
6.97263e-08
1.11655e-05
-1.12122e-05
6.24143e-06
-3.0198e-05
3.26592e-05
-8.7026e-06
9.68226e-06
-2.42498e-05
2.34772e-05
-8.90961e-06
7.02518e-06
-7.24679e-06
2.21989e-07
-1.97563e-05
-6.42424e-06
3.43404e-05
-8.15987e-06
-2.34588e-07
3.90225e-06
-3.66771e-06
7.56049e-06
-2.93406e-05
8.77221e-06
1.30079e-05
4.95202e-05
-3.5993e-06
-3.3524e-06
-4.25681e-05
-2.72966e-05
-3.3234e-05
3.59316e-05
2.45991e-05
3.96351e-06
-3.74863e-05
6.22611e-06
3.67051e-05
-2.95895e-05
-8.59645e-07
-6.25596e-06
1.0418e-07
1.63933e-07
-1.46215e-05
1.43538e-05
6.41444e-06
8.48449e-06
1.29728e-05
-2.78717e-05
7.4719e-06
-3.92218e-06
3.02613e-06
-6.57578e-06
-1.6124e-05
-1.12152e-05
2.73385e-05
7.44597e-10
-2.11508e-05
2.6099e-05
-1.88885e-05
1.39403e-05
-2.91278e-06
1.61071e-09
2.91118e-06
-3.08603e-05
3.45465e-05
-3.54118e-05
2.72846e-05
-2.73963e-06
-9.08307e-07
-6.03675e-07
4.25165e-06
6.42517e-05
-6.18107e-05
1.863e-06
-4.30399e-06
-1.13804e-05
3.53432e-06
1.09462e-05
-3.10015e-06
-4.64439e-06
2.57614e-05
-2.82899e-05
7.17283e-06
-1.79904e-05
-2.12966e-05
3.14743e-05
7.81269e-06
9.10939e-06
-1.30922e-05
1.85082e-05
-1.45251e-05
7.80038e-06
2.60981e-05
-5.33366e-05
1.94382e-05
-3.37124e-05
1.21076e-05
1.46359e-05
6.96889e-06
9.60425e-07
-3.10393e-05
2.52721e-05
4.80651e-06
-2.7099e-05
2.50557e-06
9.68303e-06
1.49104e-05
2.33895e-05
-2.03066e-05
6.97165e-06
-1.0055e-05
1.24751e-06
1.14331e-05
-1.24967e-05
-1.84262e-07
1.71221e-05
-2.4305e-06
-2.51455e-06
-1.21771e-05
1.60027e-05
1.83793e-05
-1.60775e-05
-1.83046e-05
2.30218e-06
-7.20257e-07
4.109e-06
-5.69088e-06
4.42661e-06
-2.67548e-07
-4.15894e-06
3.2016e-08
3.67349e-06
-3.70556e-06
-4.70569e-07
2.91199e-06
-1.24931e-05
1.00516e-05
-2.03249e-05
4.10063e-05
4.36867e-07
-2.11181e-05
4.81201e-06
-2.22742e-05
1.72299e-05
2.32291e-07
-2.90586e-06
-3.83761e-06
1.08926e-06
5.65415e-06
-5.6075e-06
-1.36462e-05
3.62524e-06
1.56284e-05
-2.98584e-06
1.91295e-05
8.28776e-06
-2.44316e-05
3.96539e-06
3.53641e-06
-1.71444e-05
9.64266e-06
-2.71616e-06
2.83819e-05
-3.22822e-05
6.61651e-06
-7.07842e-06
7.25488e-06
-1.76687e-07
1.74392e-05
-2.16215e-05
3.45517e-06
7.26827e-07
1.84038e-05
1.08546e-05
-3.24489e-05
3.19047e-06
-2.6705e-05
-1.51717e-05
7.49137e-06
3.43855e-05
-2.097e-06
-2.04216e-05
8.72865e-07
2.16455e-05
1.22866e-05
-1.27487e-05
1.00258e-07
3.61959e-07
1.60622e-05
-2.81631e-05
-5.36178e-06
1.7463e-05
-3.29534e-06
2.59709e-07
3.0355e-06
-4.45137e-06
-1.32036e-06
2.95359e-05
-2.37643e-05
-1.59195e-05
1.0108e-05
5.0973e-05
-4.51617e-05
-1.10928e-05
2.27454e-05
-3.31062e-05
2.1454e-05
1.6382e-06
-2.55711e-05
2.04179e-05
3.51525e-06
-4.06842e-06
-9.48825e-06
3.37103e-05
-2.01535e-05
2.31883e-05
-9.81867e-06
-1.02989e-05
-3.07066e-06
-2.84117e-06
-1.22344e-05
1.81155e-05
-3.03979e-06
5.76297e-06
-2.81638e-06
-2.94654e-06
-1.10355e-06
-2.49988e-05
-6.61148e-06
3.27139e-05
-1.47489e-05
2.06305e-05
5.86998e-06
-1.17516e-05
6.03237e-06
-1.48797e-05
2.53335e-05
-1.64862e-05
-4.96344e-05
1.19442e-05
-8.78105e-07
3.85685e-05
-2.51297e-06
-4.16394e-05
3.77558e-05
6.39629e-06
5.36471e-08
-3.74264e-06
3.68935e-06
2.07437e-05
-3.23871e-05
6.53002e-07
1.09904e-05
3.4818e-05
3.98849e-06
-3.75402e-05
-1.26618e-06
1.05817e-05
1.20781e-06
-2.51909e-05
1.34016e-05
-9.41932e-06
1.29918e-05
1.48313e-05
-2.58648e-05
-2.16044e-05
1.29549e-05
3.45139e-05
5.44207e-06
2.90186e-06
-3.91714e-06
6.78929e-06
-5.0143e-06
-2.57674e-05
2.39925e-05
4.29452e-06
1.36569e-05
-6.1154e-06
-1.18361e-05
-8.10322e-06
1.77091e-05
3.58814e-05
-4.54873e-05
1.70023e-07
2.29811e-06
-2.46814e-06
-2.20649e-05
3.49469e-06
1.36852e-05
4.88514e-06
3.55306e-05
-1.9287e-05
-2.41442e-05
7.9007e-06
3.2796e-05
-7.91149e-06
-3.72718e-06
-2.11573e-05
-2.8653e-05
-1.16794e-06
-7.49716e-07
3.05707e-05
2.55885e-05
1.14407e-05
-3.50027e-05
-2.0264e-06
6.92835e-06
4.83014e-06
-1.17585e-05
1.79063e-06
-2.47806e-05
-1.42489e-07
2.31323e-05
3.89206e-05
-2.99574e-05
-2.90123e-06
-6.06173e-06
4.2189e-06
-6.03466e-07
-3.37305e-06
-2.42398e-07
-3.30615e-05
4.70795e-05
2.01232e-05
-3.41411e-05
1.80714e-05
-2.96499e-05
-2.93454e-06
1.4513e-05
-2.33677e-05
2.54697e-05
-8.76745e-07
-1.22495e-06
-2.87232e-06
1.41849e-06
1.45378e-06
3.41135e-05
-3.79194e-06
9.77049e-06
-4.0092e-05
-2.57023e-05
3.50549e-05
-3.27199e-05
6.15331e-08
2.28735e-06
1.84735e-05
-2.08223e-05
2.53551e-06
-2.45324e-06
-8.23498e-08
-1.08507e-05
-6.09428e-06
1.02007e-06
1.59249e-05
-8.30689e-06
2.06994e-05
-1.57757e-05
3.38323e-06
1.51099e-06
-4.58798e-06
2.87357e-06
2.03537e-07
-1.80547e-06
-1.68505e-06
3.49046e-06
-2.18613e-05
2.19289e-05
2.19777e-05
-2.20452e-05
5.43003e-05
-1.3466e-05
-1.19752e-05
-2.88589e-05
1.26846e-05
4.73169e-07
-3.98728e-07
-1.2759e-05
3.76942e-05
-4.58418e-05
6.39275e-06
1.75479e-06
2.99504e-06
-4.80578e-08
-2.94694e-06
-6.02004e-06
2.89383e-05
-2.77548e-05
4.83659e-06
-1.37262e-05
1.43373e-05
-1.56168e-06
9.50542e-07
-1.01295e-05
8.84788e-06
5.98658e-07
6.82991e-07
2.39183e-06
-1.9156e-05
7.03219e-06
9.73196e-06
-1.13634e-05
-1.06976e-05
2.60912e-05
-4.03016e-06
-1.43027e-05
1.40248e-05
2.46118e-07
3.18663e-08
-3.01782e-05
-3.60732e-05
3.58096e-05
-1.16553e-05
3.76219e-05
1.20461e-05
-3.80126e-05
6.01108e-06
3.03394e-05
7.08679e-06
-4.34373e-05
-1.30968e-05
5.90933e-06
1.75605e-05
-1.0373e-05
-2.19223e-08
7.26748e-08
1.0236e-05
-1.02864e-05
1.24297e-06
3.85563e-05
-5.68876e-06
-3.41102e-05
-3.77889e-06
-2.42232e-06
4.04623e-06
2.155e-06
4.07162e-06
-3.84711e-06
-2.24462e-07
-3.39704e-06
-1.19004e-05
9.94744e-07
-3.15736e-05
4.2955e-07
-6.26653e-06
3.74106e-05
-1.45788e-05
1.3108e-05
4.06833e-07
1.06389e-06
-4.21768e-07
8.00569e-06
-1.34725e-07
-7.44921e-06
-2.76339e-06
2.69395e-06
6.94661e-08
3.09509e-06
-8.36387e-07
2.08951e-05
-2.31538e-05
2.78533e-05
3.14181e-06
-2.43507e-05
-6.64431e-06
-3.37871e-06
-1.58244e-05
-1.00505e-05
1.32874e-05
-1.46418e-05
1.01288e-06
3.41331e-07
8.00962e-06
-3.25024e-05
3.81585e-05
-1.36657e-05
1.06784e-05
2.1741e-06
-5.56346e-06
-7.28862e-06
-1.66728e-05
-3.85327e-05
1.00624e-05
4.51433e-05
5.70703e-08
2.5351e-06
-2.0043e-07
-2.39138e-06
9.46721e-06
-6.30284e-07
1.46742e-06
-1.03042e-05
-9.59075e-06
2.12383e-07
9.46948e-06
-9.09981e-08
2.20639e-05
3.64275e-06
-2.76957e-05
1.98914e-06
-3.17512e-05
-1.77902e-05
4.05256e-05
9.0158e-06
-6.89521e-06
2.95034e-06
-6.31721e-06
7.48683e-06
3.16084e-05
-4.05641e-05
1.46871e-06
-2.19614e-05
-2.21598e-05
8.82168e-06
3.53003e-05
-2.63445e-06
2.87886e-06
-2.4443e-07
1.74762e-05
9.99412e-06
-1.94836e-06
-2.55214e-05
-7.18178e-07
-4.41409e-06
-2.93815e-05
3.45136e-05
-2.35095e-05
5.79106e-06
5.7487e-05
-3.97686e-05
2.82426e-05
-2.07716e-05
-1.13472e-05
3.8761e-06
2.53825e-06
-1.02974e-07
-2.43538e-06
4.175e-05
-2.09841e-05
2.95648e-06
-2.37223e-05
9.11526e-06
-9.83243e-06
1.27017e-06
-5.52878e-07
2.42314e-06
2.30904e-06
-4.73217e-06
-1.65841e-05
-2.10294e-05
4.34731e-06
3.32657e-05
-1.09702e-05
2.0772e-07
1.13712e-05
-6.08373e-07
2.06342e-05
-4.22421e-05
5.48402e-07
2.10595e-05
-2.25354e-05
-2.7162e-05
3.63526e-05
1.33447e-05
-1.31331e-05
1.80677e-05
2.78615e-05
5.40263e-06
2.91491e-05
-3.04161e-05
-4.13565e-06
1.80924e-06
1.37374e-06
-1.2177e-05
8.99397e-06
-3.39022e-05
1.4796e-05
1.21668e-05
6.93957e-06
1.2884e-05
3.39197e-06
-1.46804e-06
-1.48087e-05
-3.30308e-06
-2.5391e-05
2.66697e-06
2.60272e-05
6.92738e-06
-2.68986e-06
2.82925e-05
-3.253e-05
-1.89956e-06
-8.06418e-08
-4.80377e-06
6.78379e-06
6.76816e-07
1.12469e-05
-4.20612e-05
3.01377e-05
-1.51554e-05
-3.08036e-05
-1.09096e-06
4.70494e-05
3.47622e-07
4.88587e-06
-5.23334e-06
7.74063e-08
-1.84705e-07
1.06981e-05
-1.0591e-05
2.77327e-06
1.78218e-05
1.51028e-05
-3.56979e-05
2.54042e-07
-1.40775e-05
1.56591e-07
1.36668e-05
4.48674e-06
-2.16533e-05
-1.66739e-05
3.38406e-05
1.60787e-05
2.02219e-05
-1.76777e-05
-1.86229e-05
3.62177e-05
2.17632e-05
-4.87605e-05
-9.22045e-06
1.31832e-07
-4.21192e-06
4.08004e-06
2.6216e-06
1.2818e-06
-4.07276e-09
-3.89933e-06
1.86576e-06
2.44788e-06
3.00523e-07
-4.61422e-06
2.3934e-06
-2.88854e-06
1.452e-05
1.92766e-07
-2.77415e-05
1.0383e-05
1.71659e-05
5.97025e-05
6.01184e-06
-1.25199e-05
-5.31952e-05
-7.76446e-06
1.05686e-05
-2.65702e-06
-1.47166e-07
-1.84655e-05
1.74159e-05
-2.96224e-05
3.06723e-05
2.99111e-06
5.82757e-08
-3.04943e-06
1.1498e-06
8.24551e-06
-1.57683e-05
6.37303e-06
2.96942e-06
-4.47799e-06
1.50855e-06
3.03618e-05
-1.62566e-05
-8.07281e-06
-1.57786e-05
5.70323e-06
-1.4678e-05
2.47535e-05
3.34142e-05
-3.25865e-05
5.23481e-06
-6.0624e-06
1.39002e-05
4.6233e-06
-1.66595e-05
-1.86379e-06
3.47127e-06
-4.06246e-05
1.41192e-05
2.30341e-05
2.64022e-05
-5.39635e-06
4.46416e-06
5.19914e-05
-5.7339e-05
1.84572e-06
-3.24528e-05
2.50698e-06
3.34914e-05
-3.54572e-06
-3.28626e-05
-2.12532e-05
3.56505e-05
-1.18965e-05
-1.19647e-05
-1.67461e-05
4.06073e-05
-1.42302e-06
4.57257e-06
4.0038e-05
-4.31872e-05
1.40823e-06
2.97805e-05
-5.10688e-05
1.988e-05
-8.40031e-08
3.39507e-08
1.74592e-05
-1.74093e-05
-4.27682e-05
7.23519e-06
3.09291e-06
3.24393e-05
1.16593e-05
-1.17479e-05
3.97406e-06
-3.88517e-06
7.02551e-07
1.07264e-05
-1.36654e-05
2.23639e-06
-2.28131e-05
3.48059e-05
-4.61405e-06
-7.37878e-06
-3.68995e-05
2.72875e-05
1.69441e-06
7.91687e-06
-2.68817e-05
2.7279e-05
3.55594e-05
-3.59567e-05
3.61929e-05
-2.9599e-05
1.1284e-06
-7.7223e-06
-1.28331e-05
1.65056e-05
-9.86383e-06
6.19142e-06
-7.25346e-06
1.66817e-05
1.38989e-06
-1.0818e-05
-3.8201e-05
3.18317e-06
4.16765e-05
-6.65872e-06
-4.30693e-06
-2.41167e-05
4.01294e-07
2.80226e-05
2.28693e-06
-7.89023e-06
6.30587e-06
9.14597e-06
7.44317e-07
-8.76629e-06
-1.12405e-06
9.77316e-06
1.83338e-05
-2.13248e-05
-6.78203e-06
-1.07897e-05
1.52883e-05
2.62093e-05
-3.07081e-05
8.46816e-07
4.18136e-06
-3.53135e-05
3.02854e-05
1.64045e-05
-2.49435e-05
8.38032e-06
1.58698e-07
-4.17127e-05
-6.66048e-06
1.14743e-05
-3.19285e-06
-8.41601e-07
-2.35869e-05
2.76209e-05
-3.08926e-06
4.4251e-08
3.04502e-06
-5.43299e-06
-6.75611e-06
4.43661e-05
-3.2177e-05
5.00218e-06
-4.76519e-06
-2.36602e-07
2.53485e-07
1.91305e-07
-9.21861e-06
8.77386e-06
-2.12438e-05
2.1005e-05
3.64565e-05
5.79165e-06
3.25843e-05
-2.33496e-05
-1.50263e-05
4.30424e-06
-4.37968e-06
7.53726e-08
-4.36731e-06
4.81258e-05
-2.63842e-05
-1.73736e-05
-2.58493e-05
2.73694e-05
1.91141e-05
-1.95427e-06
2.61482e-05
1.07117e-05
-3.49056e-05
-3.70615e-05
-1.36727e-05
4.94686e-05
1.26564e-06
-4.49914e-06
4.07834e-06
4.20767e-07
3.63156e-05
-3.86717e-05
-5.12019e-07
2.86868e-06
-2.40843e-05
-1.53441e-05
2.19727e-05
1.74557e-05
-4.21198e-06
1.97152e-06
-2.41439e-05
2.63845e-05
-2.83241e-05
-7.34021e-06
6.03317e-07
3.50611e-05
-1.8041e-05
-8.99174e-06
-6.67974e-06
1.532e-05
-3.50821e-05
-3.00095e-06
2.27627e-05
8.56338e-06
-3.57663e-05
-1.08295e-05
3.80321e-05
7.12601e-06
-6.77928e-06
-3.46766e-07
-3.03475e-05
5.08857e-05
-7.15568e-06
-1.3382e-05
-6.41211e-06
-2.66426e-05
2.99914e-05
3.0633e-06
-5.10517e-05
5.24405e-05
-5.9353e-06
4.54632e-06
-2.91084e-05
-7.07103e-06
2.10393e-05
1.51402e-05
-2.60323e-05
-5.62267e-06
3.18245e-05
-1.68788e-07
-3.28871e-07
9.59592e-08
-1.20589e-05
1.22918e-05
3.27897e-06
1.65543e-07
-3.44456e-06
-5.96603e-06
6.02711e-06
-6.12092e-08
4.34391e-05
-3.77103e-05
-5.10634e-05
4.53332e-05
2.76563e-06
1.14139e-07
-2.87971e-06
-2.79985e-05
2.75522e-05
-3.36245e-07
7.82735e-07
-1.01446e-05
8.58662e-06
2.15475e-07
1.34285e-06
5.40119e-06
5.29688e-05
-2.86829e-05
-2.96872e-05
-3.06134e-05
-9.36149e-06
3.66329e-06
3.63113e-05
3.36554e-05
1.55661e-05
-1.53706e-05
-3.38509e-05
1.2427e-05
-4.631e-06
1.50164e-06
-9.2977e-06
3.56099e-05
-3.53718e-06
-2.57033e-05
-6.36943e-06
-3.77813e-06
5.6146e-06
-6.26729e-06
4.43085e-06
-2.53112e-06
8.41861e-06
3.08688e-06
-8.9743e-06
-1.49865e-05
-7.87842e-06
4.23421e-05
-1.94768e-05
6.06233e-06
2.38849e-05
-2.3304e-05
-6.64336e-06
-2.25509e-05
2.32362e-05
1.49946e-05
-1.56799e-05
2.25758e-05
-2.04369e-05
-2.7022e-06
5.63895e-07
-4.95522e-08
-1.0586e-05
-4.80796e-08
1.06838e-05
-6.78869e-06
1.28343e-05
-1.43625e-06
-4.60944e-06
-3.19786e-05
-1.09682e-05
1.5707e-05
2.72395e-05
2.58886e-05
-2.17407e-05
-4.44293e-06
2.9513e-07
1.03854e-05
-3.50158e-05
-4.07177e-05
6.53485e-05
2.27988e-05
-2.98445e-05
-1.43467e-05
2.13929e-05
-6.33132e-06
-5.61093e-05
1.4807e-05
4.76332e-05
1.76751e-05
-1.56965e-05
2.47986e-06
-4.45842e-06
3.00386e-05
-1.0598e-05
-3.6281e-05
1.68398e-05
1.35396e-05
2.36003e-05
-5.37954e-05
1.6655e-05
-7.87926e-06
3.22321e-05
-2.84986e-05
4.1459e-06
-2.99781e-05
3.47472e-05
3.50847e-05
-3.98536e-05
-3.06082e-08
-1.36017e-05
1.18151e-05
1.8173e-06
3.93791e-06
-3.70286e-06
-2.34826e-07
3.84977e-05
-4.77688e-05
1.3919e-06
-3.90288e-06
5.19881e-06
2.76866e-06
-4.06439e-06
-2.80191e-06
1.38333e-07
-1.38052e-06
4.04436e-06
1.94724e-05
-2.53798e-06
1.77663e-05
-2.71691e-05
1.03696e-06
8.36584e-06
-9.16473e-06
-2.29761e-06
8.62123e-06
2.71198e-05
-3.53334e-05
1.99983e-05
-1.17844e-05
-2.89487e-05
-4.1454e-06
3.49323e-05
-1.83831e-06
-6.2161e-05
-9.59836e-06
5.52883e-05
1.64703e-05
-4.41869e-05
1.22218e-05
1.02964e-06
3.09357e-05
-3.92794e-06
3.06513e-07
8.2313e-07
2.79822e-06
-2.70643e-05
-3.27095e-05
2.45906e-05
3.51833e-05
2.10661e-05
1.83047e-05
-3.17708e-05
-7.59953e-06
1.08087e-07
1.36711e-05
-1.15825e-05
-2.19667e-06
-5.20587e-07
-2.10131e-05
4.16986e-05
-2.01651e-05
4.28437e-05
-3.05116e-05
-1.64005e-05
2.78722e-05
-3.13107e-05
6.20165e-06
-2.76367e-06
-3.97606e-06
-2.54772e-05
2.77244e-05
1.72912e-06
4.12769e-05
-2.88453e-06
-4.2368e-05
2.31479e-05
-2.60691e-05
6.53395e-06
-3.61295e-06
1.72576e-06
-1.14518e-05
-9.31299e-07
1.06574e-05
-2.41882e-06
2.32933e-06
-2.77444e-06
2.86391e-06
-1.72803e-06
4.25916e-06
1.40112e-06
-3.93242e-06
-6.91164e-06
-1.84245e-05
-1.46857e-06
2.68047e-05
1.09294e-05
8.7595e-06
-2.9781e-05
1.00921e-05
-1.87058e-05
5.98676e-07
6.69719e-06
1.14099e-05
-1.59493e-06
-1.72773e-05
1.67755e-05
-2.22261e-05
2.63827e-05
8.38594e-06
-1.25422e-05
-3.29832e-05
3.84334e-05
-1.23308e-05
6.88076e-06
-6.16376e-06
-1.98529e-05
2.05082e-06
2.39658e-05
1.51908e-06
3.48274e-05
-4.09444e-05
4.59753e-06
1.72592e-05
-5.41016e-05
1.1415e-05
2.54271e-05
4.94594e-06
-3.84685e-05
2.098e-05
1.25426e-05
1.60903e-06
2.12461e-05
-7.32728e-06
-1.55279e-05
-3.73988e-06
1.8174e-06
3.66005e-06
-1.73749e-06
-3.96747e-06
7.89602e-06
-2.92769e-05
2.53483e-05
-1.50514e-06
-1.04611e-05
2.70477e-07
1.16957e-05
1.63335e-07
1.0738e-05
-1.62846e-07
-1.07386e-05
1.73138e-07
2.38562e-07
1.09889e-05
-1.14004e-05
-9.63881e-06
-1.62882e-05
2.90376e-05
-3.11016e-06
3.1499e-06
-3.15687e-05
1.7041e-05
1.13779e-05
3.38368e-05
8.32226e-07
2.71894e-06
-3.73882e-05
2.5128e-06
-2.57356e-06
6.07898e-08
1.04999e-05
2.10793e-05
-2.66332e-05
-1.05822e-05
3.85689e-08
1.30567e-07
1.04135e-05
2.28306e-06
-2.88712e-05
1.0466e-05
1.61223e-05
8.24232e-07
6.92126e-06
-7.00444e-06
-7.41283e-07
-5.43743e-06
-1.14777e-05
2.20097e-05
-5.09454e-06
2.69936e-05
-3.00538e-05
2.59137e-05
-2.28534e-05
1.90974e-05
-8.79004e-06
-3.26623e-05
2.23549e-05
-1.81425e-06
-1.72617e-06
3.54048e-06
1.11599e-05
2.32791e-06
-3.22231e-06
-1.02653e-05
-2.43112e-05
3.64198e-05
2.69039e-06
2.27572e-06
-4.96612e-06
2.41275e-06
-3.11085e-05
-3.70937e-07
2.90667e-05
-1.40812e-07
5.34841e-07
2.06853e-05
-1.42856e-06
2.18904e-05
-4.39596e-05
2.34979e-05
-6.95134e-06
-1.97968e-05
-2.77446e-06
2.95227e-05
5.49802e-06
-8.88217e-06
9.2327e-06
-5.84866e-06
-7.3253e-06
-3.6236e-05
-4.52888e-06
4.80905e-05
1.97352e-05
3.74291e-06
-2.27417e-05
-7.36391e-07
7.27148e-06
3.41127e-05
-5.64209e-05
1.50366e-05
-2.44192e-06
-1.42244e-05
-8.31576e-06
2.49821e-05
-1.80443e-05
-5.78681e-06
9.58802e-06
1.42431e-05
-1.03572e-06
-1.16815e-06
-1.22744e-05
1.44782e-05
4.29464e-05
-1.77304e-05
-1.02563e-05
-1.49595e-05
-2.65503e-05
6.39811e-05
-3.47315e-05
-2.69892e-06
1.05873e-05
2.87962e-07
2.83389e-07
-1.11593e-05
2.91435e-05
-3.50373e-05
3.46849e-05
-2.87915e-05
-5.07957e-06
1.59565e-05
-1.28815e-05
2.00441e-06
1.61992e-05
-5.84471e-05
2.14636e-06
4.01016e-05
1.06212e-05
5.18738e-05
-4.42151e-05
-1.828e-05
5.96465e-06
-5.82246e-06
-9.68971e-06
9.54769e-06
-2.20316e-05
-1.3741e-05
3.94655e-05
-3.69282e-06
3.54306e-05
-2.91514e-05
-4.16849e-05
3.54052e-05
1.82923e-05
1.4816e-05
-9.4772e-06
-2.36305e-05
1.23706e-07
-1.57335e-05
7.8041e-08
3.65851e-06
-3.73637e-06
-3.20616e-06
3.09491e-06
1.11131e-07
2.58864e-05
-2.43371e-05
-2.20927e-05
2.05433e-05
-7.82597e-06
1.00923e-05
-2.84154e-05
2.6149e-05
4.28611e-05
-3.34563e-05
-6.94853e-06
-2.45619e-06
-4.44925e-06
1.10528e-06
2.87342e-06
-9.10771e-06
3.2164e-05
-8.61186e-06
-1.44443e-05
-4.0501e-05
1.03424e-06
1.40659e-05
2.54006e-05
1.62524e-05
-7.27797e-06
-1.57214e-05
6.74691e-06
9.40251e-06
3.96732e-05
-3.76272e-05
-1.14481e-05
-2.40877e-05
-4.718e-06
4.58631e-05
-1.70569e-05
2.28002e-06
2.55513e-05
5.78982e-06
-3.36211e-05
8.65043e-06
2.77409e-05
-3.41114e-05
1.80276e-05
-1.327e-05
-7.01442e-06
2.2566e-06
2.49026e-05
-3.16897e-05
1.40587e-05
-1.24561e-05
7.8873e-06
7.44386e-06
-2.87506e-06
1.03073e-05
1.18324e-05
2.35643e-05
-4.57037e-05
4.20069e-06
-2.63091e-05
-4.05668e-06
2.61648e-05
3.15359e-07
2.82347e-05
2.50565e-06
-3.10555e-05
1.39887e-05
2.58879e-05
-4.34095e-05
3.53277e-06
-5.65943e-05
4.717e-05
-7.35833e-07
2.80299e-07
3.91527e-05
-2.9945e-06
-3.64392e-05
-3.09114e-06
6.99609e-06
-9.56532e-06
5.66062e-06
-7.69576e-07
-3.3207e-06
2.20974e-07
3.8692e-06
-3.17744e-06
3.05933e-06
1.18033e-07
-4.86137e-06
-8.35053e-06
3.81266e-05
-2.49147e-05
-3.36947e-05
5.07549e-06
-1.48604e-05
4.34796e-05
4.39553e-05
-1.04733e-05
-1.44436e-05
-1.90379e-05
3.31589e-06
-3.12661e-05
1.13822e-05
1.65682e-05
3.22079e-06
-2.90807e-06
-1.13489e-06
8.22091e-07
-3.72314e-06
3.58987e-06
1.33376e-07
1.82784e-06
2.61642e-05
-4.62725e-06
-2.33645e-05
-5.69562e-06
2.7222e-05
-3.52247e-05
1.36986e-05
1.29372e-05
2.14122e-05
-5.00407e-05
1.56912e-05
-1.96167e-06
2.59373e-05
1.93061e-05
-4.32818e-05
-4.07852e-05
2.21003e-05
2.35533e-05
-4.86855e-06
4.32538e-05
-4.44512e-05
9.01193e-06
-7.81432e-06
-3.11687e-05
-4.89706e-07
-9.12669e-06
2.24707e-07
4.96776e-06
-5.19248e-06
2.91815e-05
3.87538e-06
-2.41615e-05
-8.89566e-06
-1.78559e-06
-2.52181e-06
1.20445e-05
-7.73724e-06
3.03729e-06
5.32706e-07
9.97175e-06
-1.35417e-05
-3.46318e-05
1.56212e-05
1.6667e-05
2.34363e-06
1.29622e-05
-2.05996e-05
-2.96324e-06
1.06006e-05
-2.50117e-05
5.6097e-06
4.10052e-05
-2.16032e-05
-2.9008e-06
-1.81993e-07
3.08234e-06
-1.59887e-05
4.04012e-05
2.9314e-05
-5.37264e-05
3.6774e-05
9.65896e-07
-5.80731e-05
2.03332e-05
-2.38149e-06
3.73363e-05
-3.21802e-06
-3.17367e-05
1.77398e-05
-1.3751e-05
1.06949e-05
-1.46835e-05
-1.30942e-06
-2.48936e-05
2.78381e-05
-1.63509e-06
-2.3542e-05
-3.44258e-06
-1.55129e-05
4.24974e-05
-7.74651e-06
-8.31065e-06
-1.4358e-05
3.04153e-05
-1.32095e-06
3.94138e-05
-4.57395e-06
-3.35189e-05
2.28124e-05
-2.27933e-05
8.30547e-07
-8.49635e-07
3.93363e-05
1.09539e-07
-2.7115e-05
-1.23304e-05
-8.54695e-06
-4.52884e-06
-2.45411e-05
3.76168e-05
-2.80274e-07
-2.94462e-06
3.22479e-06
-3.48854e-05
5.15595e-05
-3.72325e-06
-1.29506e-05
2.75532e-06
1.85326e-05
5.95172e-06
-2.72401e-05
-4.13926e-06
9.58401e-06
3.32951e-06
-8.77439e-06
-1.52209e-05
-3.76148e-06
1.57506e-05
3.23225e-06
2.23096e-05
1.50606e-05
-5.52612e-05
1.78909e-05
1.21079e-05
-9.48702e-06
2.99173e-05
-3.25381e-05
-2.30996e-06
1.8854e-05
1.52178e-06
-1.80658e-05
2.83402e-06
-2.79228e-06
-4.1752e-08
2.86251e-06
3.39867e-05
1.50618e-06
-3.83554e-05
2.79003e-05
-4.34909e-06
-2.69608e-05
3.40982e-06
-5.60724e-06
6.7146e-06
-3.17642e-05
3.06569e-05
-2.79643e-05
-4.36788e-06
2.15917e-05
1.0741e-05
1.01163e-05
-9.58449e-06
-7.92264e-08
-4.52646e-07
-4.23893e-05
2.78144e-05
-1.63911e-06
1.62141e-05
-4.78831e-06
4.02635e-06
7.6198e-07
1.40935e-05
-1.20121e-05
1.88887e-05
-2.09703e-05
1.95606e-05
1.64084e-05
-8.5528e-06
1.51362e-05
-4.05812e-05
-1.8852e-05
4.42967e-05
1.49071e-07
-1.46822e-05
1.47257e-05
-1.92845e-07
8.54126e-06
-1.37356e-05
-1.58566e-05
2.1051e-05
1.35169e-05
5.91671e-06
-2.34483e-06
-1.70888e-05
-4.00696e-06
9.35283e-07
5.08762e-06
-2.01598e-06
-5.15213e-06
6.33128e-05
-2.16462e-05
-3.65144e-05
1.66235e-05
1.89133e-05
-1.08973e-06
-3.4447e-05
1.31907e-07
2.81964e-06
-2.95142e-06
-7.46913e-07
5.35867e-06
3.37439e-05
-3.83555e-05
4.62717e-05
5.9553e-06
-2.26907e-05
-2.95361e-05
-1.03802e-06
5.2911e-06
-4.1657e-06
-8.74667e-08
1.28638e-05
-1.15092e-06
-1.40473e-05
2.33486e-06
-3.90622e-06
-1.23454e-05
6.37571e-06
9.87607e-06
-6.42177e-06
2.86799e-05
4.41858e-06
-2.6677e-05
3.33092e-05
-4.35755e-06
-3.63122e-05
7.36062e-06
-2.97045e-06
5.75176e-06
-2.78131e-06
2.3778e-06
-1.04627e-05
9.34776e-06
-1.26296e-06
6.46929e-07
1.01136e-05
-1.06551e-05
-1.05501e-07
1.04345e-05
1.2305e-05
-1.45505e-06
-2.12844e-05
2.32628e-05
3.20942e-05
-2.2048e-05
-1.28495e-07
3.7758e-06
-3.64739e-06
-4.11384e-05
2.0045e-05
3.87701e-05
-1.76772e-05
3.99068e-05
6.9636e-06
-4.21319e-05
-4.73858e-06
3.05076e-05
-2.04842e-05
-3.35654e-05
8.34104e-06
1.43275e-05
-3.61605e-05
-1.87658e-06
-7.89836e-06
4.59356e-05
-8.65368e-08
3.66194e-06
-3.57543e-06
3.96257e-05
-1.4244e-06
-4.55565e-06
-3.36457e-05
3.85888e-06
-3.85259e-06
-6.06855e-09
-1.22109e-05
2.99601e-06
-7.3545e-06
1.65695e-05
-2.16305e-05
-1.86156e-05
1.64947e-05
2.37515e-05
1.96365e-05
-1.49459e-05
-4.19513e-06
-4.95252e-07
-4.32737e-08
2.92536e-06
-2.88234e-06
-6.69638e-07
-3.83928e-06
1.94327e-08
4.48969e-06
7.21639e-06
2.91025e-06
-5.14624e-06
-4.98053e-06
-1.13239e-05
1.22895e-05
-1.63519e-06
-4.3929e-07
4.24643e-05
-1.15915e-06
-4.08657e-05
-7.033e-06
-6.94905e-07
9.24167e-06
-1.51379e-06
3.41222e-06
-1.34122e-05
1.05105e-05
-5.10583e-07
1.07912e-05
-2.01813e-05
1.44477e-05
-5.05763e-06
9.24449e-06
2.17029e-05
3.55972e-06
-3.45072e-05
5.3074e-06
-5.44826e-06
1.40742e-07
1.54618e-05
-1.25733e-05
-3.14347e-05
2.85455e-05
1.11272e-06
1.18433e-06
1.59477e-05
-1.82447e-05
4.60152e-06
1.96224e-05
-2.5404e-05
1.17997e-06
1.13478e-05
-5.36605e-07
-1.74433e-06
-9.06684e-06
1.13011e-05
2.37324e-05
-3.47887e-05
-2.44752e-07
1.36194e-05
-1.0207e-07
-1.16289e-06
-1.23544e-05
-2.54157e-05
9.25267e-06
1.27016e-06
1.48927e-05
-1.30466e-05
-1.24815e-05
-1.72714e-06
9.43422e-06
-1.66588e-05
1.25865e-05
-5.36219e-06
-4.55339e-06
-1.92635e-05
-2.88264e-05
5.26432e-05
-6.09608e-06
7.534e-06
-1.73993e-06
3.0202e-07
3.83086e-08
2.43706e-06
-2.47551e-06
-7.94398e-06
4.08045e-05
1.2045e-05
-4.49058e-05
3.33149e-05
1.41406e-05
-1.23235e-05
-3.51319e-05
2.75283e-05
-2.28538e-05
2.60943e-05
-3.07686e-05
3.45256e-05
-3.79359e-05
4.16188e-06
-7.51632e-07
-6.1694e-05
2.6967e-05
1.1923e-05
2.2804e-05
-1.12547e-05
-1.41691e-06
1.24347e-05
2.36841e-07
3.59699e-05
-4.791e-05
1.68342e-05
-4.89417e-06
1.02838e-05
-1.12941e-05
3.5805e-06
-2.57016e-06
-1.82681e-05
1.66149e-05
-1.13933e-05
-1.39228e-05
4.7711e-05
5.19631e-06
-3.89846e-05
-5.19136e-06
1.39026e-07
5.05228e-06
-4.79676e-06
1.0936e-05
-4.02529e-05
-1.92537e-05
-3.19043e-07
1.87614e-07
1.93851e-05
4.38342e-06
1.30226e-07
-4.51357e-06
8.60944e-06
-5.74084e-07
-3.02101e-05
2.21748e-05
-5.92733e-08
-1.96142e-07
1.0236e-05
-9.98063e-06
8.18917e-06
1.82549e-05
-3.02374e-05
3.79345e-06
2.97069e-05
1.94447e-06
2.01131e-06
-3.36626e-05
-2.55038e-06
6.62214e-06
3.87304e-05
-4.2802e-05
-8.5225e-06
-1.03629e-06
-3.62514e-07
9.92138e-06
-1.00139e-05
8.52718e-06
-3.46292e-05
3.61157e-05
-1.2992e-06
2.42433e-05
-2.12173e-05
-1.72657e-06
4.2047e-05
1.29354e-05
-1.91033e-05
-3.5879e-05
9.06376e-06
-4.90075e-05
3.18406e-05
-4.20742e-05
5.3735e-05
-2.25834e-06
2.33045e-05
-9.33577e-06
1.93462e-05
-1.30367e-05
-3.18126e-06
6.28137e-06
9.9366e-06
-6.87379e-06
7.05041e-07
6.25901e-06
-9.0477e-08
-1.30909e-05
3.34559e-05
-2.36376e-05
3.27249e-06
-3.40999e-05
3.07652e-05
3.27769e-05
-2.94422e-05
-3.11901e-06
2.87869e-06
1.82552e-07
5.79246e-08
3.52682e-05
-5.11041e-05
-1.91131e-05
3.49489e-05
-4.85744e-05
-1.9645e-05
3.2409e-05
3.58103e-05
4.44732e-05
4.5295e-06
1.9318e-06
-5.09342e-05
3.80545e-05
-2.58145e-05
3.22332e-05
-3.74299e-05
-3.66545e-06
1.44053e-05
2.66904e-05
3.08341e-06
2.62255e-07
-3.34558e-06
4.13381e-05
-3.8098e-05
-1.29816e-05
9.74153e-06
-2.00071e-05
-7.04846e-06
5.809e-06
2.12462e-05
1.56789e-05
2.78324e-05
-1.61448e-05
-2.73665e-05
6.76271e-06
2.12781e-05
-2.0701e-05
-7.33974e-06
4.3611e-07
-6.0955e-06
5.65937e-06
-1.96596e-05
-1.77699e-05
1.71536e-05
2.02758e-05
1.49066e-06
1.97497e-05
-4.52212e-06
-1.67185e-05
-3.40651e-05
3.40504e-05
-6.3979e-06
-3.03437e-06
4.32338e-05
-4.21589e-05
1.95976e-06
2.05367e-05
4.21411e-06
1.11168e-05
-3.58676e-05
-4.80729e-08
-2.1267e-06
2.17491e-06
-3.09034e-06
3.08165e-06
8.76445e-09
-2.82562e-05
-1.31131e-05
1.59e-05
2.54695e-05
-3.48802e-05
-5.86035e-07
4.21726e-05
-6.70653e-06
-1.09816e-05
4.0509e-05
-4.16949e-05
1.21675e-05
-2.66902e-05
2.19523e-05
-9.97162e-06
1.47096e-05
3.42947e-07
2.02905e-05
-2.26885e-05
2.05487e-06
-3.6351e-05
7.98005e-06
2.39085e-05
4.4623e-06
2.57814e-06
5.09914e-05
-1.90808e-05
-3.44886e-05
2.10964e-06
-3.92387e-06
-2.56776e-05
-1.3503e-05
1.09242e-05
2.05064e-05
-1.28949e-06
3.36589e-06
-2.25827e-05
-1.89734e-06
-4.36129e-06
5.5049e-06
7.53679e-07
1.31602e-05
-3.9939e-06
-9.36454e-06
1.98211e-07
1.29789e-05
-4.40051e-05
4.20959e-05
-1.10693e-05
-1.66884e-05
2.9382e-05
4.44143e-06
-1.71347e-05
-3.53196e-06
4.32178e-06
2.77493e-05
-2.85393e-05
-3.70298e-05
2.79241e-06
3.54809e-07
3.38833e-05
-2.04689e-05
2.38991e-06
1.6529e-05
1.55017e-06
-2.87695e-05
1.79347e-05
4.11241e-05
-3.02892e-05
-1.38798e-05
-2.57792e-05
6.94408e-06
3.27151e-05
5.7827e-06
-4.42762e-05
-5.64699e-06
4.41406e-05
-3.39325e-05
4.42118e-06
-1.34377e-06
3.08549e-05
-3.66379e-05
-2.72227e-06
-2.2831e-06
4.16432e-05
7.50885e-06
-4.2558e-06
3.9515e-05
-4.27679e-05
6.68337e-06
-3.79773e-06
-1.01586e-11
-2.8855e-06
5.05921e-06
-5.22917e-05
-8.30517e-06
5.55379e-05
-3.82809e-06
2.42782e-06
1.96588e-06
-5.657e-07
-2.87893e-05
-7.55637e-06
1.58114e-05
2.05343e-05
-1.35883e-06
1.33602e-05
2.50794e-06
-1.45091e-05
-1.3101e-05
-1.4197e-05
9.30756e-06
-6.06293e-06
2.43716e-06
3.13195e-05
-2.76935e-05
2.47854e-05
-3.40115e-05