/*--------------------------------*- C++ -*----------------------------------*\
| =========                 |                                                 |
| \\      /  F ield         | OpenFOAM: The Open Source CFD Toolbox           |
|  \\    /   O peration     | Version:  2406                                  |
|   \\  /    A nd           | Website:  www.openfoam.com                      |
|    \\/     M anipulation  |                                                 |
\*---------------------------------------------------------------------------*/
FoamFile
{
    version     2.0;
    format      ascii;
    arch        "LSB;label=32;scalar=64";
    class       volVectorField;
    location    "62";
    object      U;
}
// * * * * * * * * * * * * * * * * * * * * * * * * * * * * * * * * * * * * * //

dimensions      [0 1 -1 0 0 0 0];

internalField   nonuniform List<vector> 
59516
(
(0.103242 -0.00114523 -0.000531798)
(0.0944835 -0.000102234 -0.000383444)
(0.110138 -0.000567528 -0.00047821)
(0.127103 0.00122734 0.00181714)
(0.113664 0.000209972 -0.00456197)
(0.101091 -0.00483047 -0.0107983)
(0.12687 -0.00215917 -0.00229721)
(0.0985722 0.000617906 -0.000114924)
(0.109493 0.000889629 -4.74784e-05)
(0.0510539 -0.00101646 0.00199018)
(0.154064 -0.000348907 -0.00251557)
(0.0597006 0.000192847 -0.0037503)
(0.116054 0.00117176 4.8209e-05)
(0.018956 -0.000121567 -0.000174672)
(0.0572006 0.00136692 0.00317333)
(0.0492908 0.00342052 -0.00152137)
(0.170044 -0.00280711 -0.00132538)
(0.0700194 0.00401397 -0.0043873)
(0.114335 0.00612124 0.000616054)
(0.166391 -0.00185475 -0.000474504)
(0.0537203 0.000931488 -0.00129057)
(0.148148 -0.000967194 0.000245654)
(0.154502 -0.0011981 -0.00278498)
(0.0314919 -0.000962282 -0.000267882)
(0.161462 -0.000647313 0.000315735)
(0.0622221 0.00144069 0.000608912)
(0.0392896 0.000787565 -0.00276328)
(0.0442229 0.00378734 0.000190382)
(0.0652493 0.00275864 -0.000621479)
(0.0161587 -0.0025171 0.000615229)
(0.108361 -0.02104 -0.00463938)
(0.0455215 0.00367406 -0.000577424)
(0.131379 0.00010528 0.000802042)
(0.10978 -0.000979736 0.00198597)
(0.139498 0.00552329 0.00397137)
(0.146006 0.000306004 -0.000515393)
(0.0156078 -0.00152059 -0.00217075)
(0.0699196 0.00268348 -0.00676761)
(0.094962 -0.00389587 -0.000396923)
(0.160879 0.000229096 -0.000779588)
(0.0980414 -0.000550733 0.000232759)
(0.144051 -0.00858508 -0.00799613)
(0.148441 -0.00420642 -0.00350674)
(0.103571 -0.000664525 0.00030862)
(0.142543 -0.00558722 -0.000504499)
(0.0522407 -0.000717191 -0.00120395)
(0.132241 -0.0030659 -0.00460085)
(0.163703 -0.00532167 -0.00108962)
(0.111886 -0.00899593 0.012385)
(0.15122 0.00693598 0.00540317)
(0.104055 0.0104761 -0.0145204)
(0.0411687 -0.003609 0.00246733)
(0.117121 0.00104542 -0.0022859)
(0.124502 -0.000565416 0.000138239)
(0.0471502 0.00303038 -2.44618e-05)
(0.129516 0.00312155 -0.000965811)
(0.14498 0.00833857 0.00855696)
(0.043513 0.00381518 -0.00266789)
(0.178135 7.37343e-05 -0.000328984)
(0.135274 0.00648739 0.00813362)
(0.14948 -0.000568166 7.4836e-06)
(0.0177579 0.00224371 -0.000776175)
(0.171121 0.000369579 0.000844609)
(0.167356 0.00293737 0.00229811)
(0.118579 0.000276657 -0.000801295)
(0.147712 0.00396689 0.00568022)
(0.0239587 -0.00162829 0.00219619)
(0.0386351 0.000252788 -0.000231108)
(0.121534 -0.00505264 0.0222367)
(0.13549 0.0012646 -0.0036261)
(0.0342557 0.000935447 0.000284183)
(0.164482 0.00278553 -0.000378774)
(0.0213997 0.00133829 -0.00325553)
(0.142735 0.00177927 0.000775497)
(0.187981 -0.000316826 -0.000539659)
(0.158228 -0.00273667 -0.00340232)
(0.16444 -0.00286614 -0.00423097)
(0.148678 -0.000301798 0.000436225)
(0.0428177 -0.00141282 0.00135187)
(0.151892 0.0031527 0.0080603)
(0.0354366 0.00218381 0.00105281)
(0.146999 0.00424857 0.00639204)
(0.139795 0.00191735 0.00616027)
(0.0185241 -0.000697356 0.00259701)
(0.146808 0.00335648 0.0067094)
(0.178681 -0.00123423 0.000157553)
(0.0304116 -0.00111888 0.000487599)
(0.149651 -0.000589232 -0.000471118)
(0.0516086 0.000647009 0.00200968)
(0.10711 0.00848263 -0.00583063)
(0.131512 -0.000880207 -0.0115349)
(0.139324 0.00140032 -0.000381003)
(0.177122 0.000528041 -0.000396136)
(0.13708 0.000948314 -0.000340109)
(0.164766 -3.48919e-05 -1.64365e-05)
(0.109927 -0.0105293 0.00393369)
(0.139705 -0.000304738 0.000394994)
(0.0502331 -0.00187656 -0.00399652)
(0.064321 0.00244329 -0.00106613)
(0.148371 -0.000764771 0.00180383)
(0.0353111 0.000533899 0.00134044)
(0.0225931 0.00118032 -0.00255378)
(0.0213701 0.000759059 0.00292713)
(0.051194 -0.000768584 -0.00283231)
(0.133814 0.00081149 -0.000201344)
(0.148338 -0.000515535 -0.000481603)
(0.0370324 0.00326713 -0.00135287)
(0.101811 0.000284188 -0.000808472)
(0.0977371 -0.000674819 0.000247162)
(0.0624801 0.000386853 -0.00250866)
(0.124958 0.0129362 -0.0135752)
(0.0286149 0.00290871 -0.000480367)
(0.0632327 0.000819495 -0.003985)
(0.118045 0.0174343 -0.00875051)
(0.161476 -8.82809e-05 0.000163666)
(0.0967762 0.00108581 0.00117951)
(0.0511303 0.000587477 -0.00189755)
(0.132009 -0.000102419 0.000695999)
(0.020365 -0.000298608 0.000984057)
(0.147064 0.00111156 0.000336079)
(0.193021 -2.89545e-05 0.000140381)
(0.17278 -0.000297264 0.000662769)
(0.158941 -6.93608e-05 0.000846786)
(0.171319 -0.000299734 0.000379793)
(0.132409 -0.01785 0.00273223)
(0.0897754 0.00131326 -0.00307669)
(0.027705 -0.000538475 0.00180952)
(0.138367 -0.0138101 -0.00116852)
(0.0898411 -0.00275512 0.0131418)
(0.185476 0.000229952 -0.000195534)
(0.189757 0.000165386 -0.000116166)
(0.109932 0.00174312 0.00189241)
(0.0216286 0.00129531 -0.00148215)
(0.147596 -0.000439752 0.000367873)
(0.0988681 0.00107338 0.000288044)
(0.112858 -0.000587535 -0.00219037)
(0.107484 0.0128284 -0.00897507)
(0.127736 -0.00038031 0.000318969)
(0.0368215 0.00255858 0.000126491)
(0.0964933 0.000619899 -0.00130486)
(0.0411156 -0.000811004 -0.00211835)
(0.190545 -0.000490431 0.000163104)
(0.0173261 0.000728286 0.00150967)
(0.123446 -0.000931671 -0.000668252)
(0.179854 0.000562958 0.00141954)
(0.141829 0.0023357 0.000599602)
(0.140272 -0.00563029 -0.00218829)
(0.116989 0.00195413 -0.00319662)
(0.062128 -0.00100506 0.00173114)
(0.104598 -0.000510453 -0.00100326)
(0.101329 -0.000524584 -0.000856393)
(0.0323039 -0.00124627 1.05207e-05)
(0.169111 -0.000914019 0.00103199)
(0.154591 -3.35222e-05 -2.78715e-05)
(0.0867229 -3.93287e-05 0.00220533)
(0.0172214 -0.00031532 0.00184875)
(0.110587 -0.000498219 -0.000255471)
(0.111739 0.0017575 -6.2479e-05)
(0.0803797 0.00138394 0.000308492)
(0.0176652 0.00210122 -0.00230077)
(0.0618237 0.00160431 -0.00307718)
(0.0637296 -0.00343128 -0.00208442)
(0.032287 -0.001309 0.000315657)
(0.0230827 -0.000197799 -0.000445748)
(0.0964473 0.00181355 0.00238824)
(0.177546 -0.000278334 0.00101912)
(0.058223 -0.000801943 0.000412552)
(0.182959 0.00126973 -0.000125664)
(0.0184595 -0.00116636 0.00209064)
(0.136518 -0.000551994 -0.000286668)
(0.0810728 0.00144187 0.00117055)
(0.0489161 0.000796386 -0.00074687)
(0.0601894 0.0015992 0.000728833)
(0.135699 -6.48595e-05 0.00053312)
(0.0466941 -0.000679943 0.000202328)
(0.134858 -0.00169961 -0.00560798)
(0.173179 -0.000348733 -0.00086032)
(0.149529 -0.00592162 -0.00374905)
(0.0636453 -0.000752597 0.00294938)
(0.0377085 -0.00010806 -0.000519026)
(0.146013 0.00256697 0.000577385)
(0.0308186 -0.0027505 -0.0012752)
(0.0262965 -0.000309618 -0.00205795)
(0.0605193 -0.00147135 0.000176975)
(0.184466 0.000581319 0.000777697)
(0.055483 0.000308583 0.000670967)
(0.0327464 -0.000498239 -0.00256824)
(0.0210355 1.58309e-05 0.000286808)
(0.119673 0.000358805 -4.93586e-05)
(0.0968423 -0.00168636 -0.000112836)
(0.13531 -0.000455319 0.00264667)
(0.0482615 0.002973 -7.5181e-05)
(0.165632 -0.00146893 7.6179e-05)
(0.0529908 0.00188708 8.15169e-05)
(0.154671 -0.00022955 -0.000866201)
(0.027395 -0.000236846 0.000754412)
(0.0530196 0.00074624 -3.57541e-05)
(0.0373558 -0.0010752 0.000271511)
(0.106226 0.00293232 0.00349427)
(0.154876 0.00063907 -0.000627554)
(0.0773411 -0.0027412 0.00024222)
(0.192331 -0.000430849 0.000166724)
(0.0990544 -0.000803917 0.000788491)
(0.0178175 0.0019247 -0.00132881)
(0.125472 -0.000807835 -0.000552573)
(0.145074 0.000527041 0.000321678)
(0.186542 0.000434408 -0.000371392)
(0.15571 -0.00154936 -0.000881288)
(0.0211409 -0.000696399 0.000200706)
(0.111004 -0.00207055 -0.00013876)
(0.0469987 0.00332354 0.00299234)
(0.0235605 -0.00388579 -0.000644008)
(0.143065 0.000114318 -0.00152046)
(0.0518415 -0.00114611 0.000708086)
(0.113035 0.00155129 4.99109e-05)
(0.173966 0.00011764 -0.000415976)
(0.13977 0.00169966 0.000688441)
(0.157948 -0.00146518 0.000484778)
(0.050375 0.00202994 -0.00271608)
(0.157521 -0.000107432 0.000796365)
(0.0513024 0.00194314 0.00186403)
(0.102374 0.000449519 0.00023859)
(0.167591 0.000784055 0.00101125)
(0.0359561 -0.00014949 0.000584602)
(0.173288 0.000132659 -0.000449779)
(0.175644 -0.000278172 -0.000428696)
(0.0260806 -0.000310586 0.00132039)
(0.0433169 0.00139407 -0.00204955)
(0.17433 0.000537566 0.000742845)
(0.0507142 0.00026286 -0.00389372)
(0.175725 -0.000615411 -5.16218e-05)
(0.17643 0.000315937 -0.000426834)
(0.190036 0.000642598 0.000726837)
(0.0228785 -0.00177503 -0.00129238)
(0.0301214 0.000807201 -0.00142965)
(0.0314037 0.000872005 -0.00113936)
(0.059278 0.000384824 -1.57346e-05)
(0.0929156 -0.00112198 0.000654589)
(0.158295 0.00108691 0.00134825)
(0.053434 -0.00119184 0.00150286)
(0.191805 -0.000248205 0.000484825)
(0.0186913 0.000329694 0.00276308)
(0.0507838 4.14225e-05 0.000880243)
(0.0226293 0.000119483 0.00251424)
(0.187383 0.000491214 0.000598806)
(0.0885484 -0.000579214 -9.80764e-05)
(0.146223 0.000288559 0.00126871)
(0.06156 0.00104373 -0.00139573)
(0.171911 0.000212588 -0.000731367)
(0.101493 0.000450671 0.000538253)
(0.167705 0.000266894 0.000107795)
(0.140201 -0.00010723 0.000785062)
(0.193099 0.000424577 0.000726712)
(0.144875 0.000951263 -0.000996353)
(0.147421 0.00115854 0.00128168)
(0.15956 -0.000151321 0.00113482)
(0.0519754 1.61627e-05 -0.000250625)
(0.154772 0.00105581 0.00195806)
(0.0387343 -0.000414648 -0.00215137)
(0.0561049 0.000436253 0.00194589)
(0.128301 0.000861899 -0.00107516)
(0.164273 -0.000289036 0.000276352)
(0.112097 0.0032761 0.00160802)
(0.181139 0.000329836 0.000309645)
(0.0948482 0.000201875 0.00206282)
(0.05406 0.00205965 -0.00151576)
(0.161796 -0.000215962 -0.00145299)
(0.0890401 0.00197067 0.000478537)
(0.0429474 -0.00073418 -0.00070666)
(0.0485346 0.000285384 -0.00140877)
(0.09557 0.00110758 -0.00339409)
(0.1768 -1.33452e-05 -0.000256768)
(0.0949698 -0.0024776 5.49368e-05)
(0.0889621 -0.00154768 0.000892682)
(0.16755 -0.00104253 -0.000646323)
(0.0887278 -0.000607716 0.00226254)
(0.0194012 0.00233448 -0.00130922)
(0.163502 0.000387134 0.000724172)
(0.0235171 0.00150996 -0.00203509)
(0.0376435 -0.0015455 0.00106722)
(0.188434 0.000610727 0.000987699)
(0.138409 0.000311764 -0.000384181)
(0.0233936 0.00250263 0.00249199)
(0.118327 0.000823311 0.00050072)
(0.121668 0.00249815 -9.8654e-05)
(0.168755 -0.00171961 0.00215275)
(0.187297 -0.000373767 0.000318096)
(0.0222866 0.00264702 0.000461475)
(0.187063 0.00064989 0.00033986)
(0.193278 0.000130466 1.72357e-05)
(0.178163 0.000212383 0.000704587)
(0.13424 0.000917046 0.000798588)
(0.137282 0.000720478 0.000616864)
(0.0921066 0.00053771 -0.000172702)
(0.174734 0.000649618 0.000273849)
(0.0261761 -0.000941803 -0.00120514)
(0.163318 -0.000171261 0.000484297)
(0.138895 -0.000252244 -0.000647331)
(0.191995 0.000378419 0.000203411)
(0.173813 0.00102895 0.000719667)
(0.114765 -0.000411457 0.00062987)
(0.0557662 0.000899901 0.00124079)
(0.0213432 -0.000331214 0.00147581)
(0.0263639 -0.000641715 0.000426907)
(0.164969 -0.00111559 -0.00105671)
(0.0188778 -0.0010961 0.00271741)
(0.0605206 -0.000326256 -0.00108249)
(0.0492448 0.00275328 0.00107465)
(0.171592 0.000859354 0.000854892)
(0.178646 -0.000453165 -0.00032432)
(0.155397 -3.36076e-05 -0.000987275)
(0.0560169 0.000150057 -0.00129773)
(0.10033 0.00168317 -0.00244753)
(0.0375113 -0.0031581 0.00253347)
(0.0538623 0.00131434 0.0010574)
(0.160312 0.000887193 -7.4226e-06)
(0.0949482 0.000967896 -0.00091332)
(0.107732 0.0123434 0.00350182)
(0.0876386 -0.00194262 0.000900521)
(0.0402202 -0.000153244 -0.000374404)
(0.0608709 -0.000887249 0.00197821)
(0.105603 -0.000984546 -0.00163497)
(0.181321 -5.02981e-05 -0.000466369)
(0.190753 -0.000904213 0.00089852)
(0.192181 0.000379407 0.00114366)
(0.16352 -0.00144563 0.000393016)
(0.096937 0.00386438 0.0046322)
(0.125177 0.000625008 0.000881201)
(0.170467 0.000668893 0.000974829)
(0.163056 -0.000807349 9.56891e-05)
(0.166049 -0.000962686 0.000805189)
(0.0544175 0.0011041 -0.00333548)
(0.0208733 -0.00140971 -0.00243992)
(0.151031 -0.00140461 0.000205256)
(0.0369813 -0.00182668 0.00203871)
(0.029529 7.42556e-05 4.0619e-05)
(0.163925 0.000511204 0.00190335)
(0.145051 2.38426e-05 0.000366708)
(0.0595926 -0.00125793 -0.00304212)
(0.178545 -0.000625456 0.000313016)
(0.169192 -0.000653314 0.000425177)
(0.190365 -0.000220614 -0.000474453)
(0.179062 -0.00128636 -0.000442386)
(0.0306562 0.00148518 7.02073e-05)
(0.160779 -0.000400976 7.28082e-05)
(0.18365 -0.000642863 0.000498713)
(0.0545805 0.000151207 0.000832582)
(0.189119 4.02718e-06 0.00100094)
(0.181417 -8.36374e-05 0.00024071)
(0.129903 -6.73612e-05 -0.000906204)
(0.121279 0.000304225 -0.00101242)
(0.153325 -0.00115367 0.0017048)
(0.142927 -0.00112638 0.000213768)
(0.0667795 -0.000351377 -0.000102075)
(0.0298002 0.00125806 -0.000963228)
(0.0327724 -0.00246192 -0.000156091)
(0.0914999 0.000441621 -0.000366948)
(0.0862556 -0.00679197 0.0106292)
(0.074607 -0.00420255 -0.00608649)
(0.0797665 0.000401869 0.000421855)
(0.112181 9.56752e-05 0.00199803)
(0.13055 4.8278e-05 0.00117446)
(0.159647 -0.00166221 0.00420899)
(0.15792 -0.000932012 0.000923233)
(0.130497 -0.000912917 -0.000545845)
(0.149398 -8.48434e-05 0.000547217)
(0.150147 0.000863278 0.000291113)
(0.0294458 -0.000929774 -0.000347027)
(0.113929 -0.0224679 0.00276196)
(0.0552525 0.00138454 0.000431968)
(0.0386249 -0.00170098 -0.000390638)
(0.0390251 0.000859729 0.000309796)
(0.16386 -0.000593626 -0.000509182)
(0.0910222 -0.000567368 -7.95618e-06)
(0.162382 0.000586669 -0.0012315)
(0.0184776 0.000987075 -0.00158547)
(0.124505 -0.000327088 0.000329689)
(0.0417785 0.000975038 -0.000820973)
(0.168516 -0.0001622 -6.48711e-05)
(0.0450674 -0.000624197 -0.000490717)
(0.0593692 -0.00136868 0.00104462)
(0.102366 -0.00278845 0.00071828)
(0.151955 -0.00124182 0.00105332)
(0.0181718 0.00141348 -0.00197105)
(0.0516611 -0.00056939 0.00208646)
(0.131877 -0.000188765 0.000521894)
(0.0216296 -0.00134539 -0.00175996)
(0.130878 0.00131866 0.00955164)
(0.113415 -0.000829394 0.00260682)
(0.130327 -0.000656128 -0.00211058)
(0.0915371 0.00201689 -0.0029189)
(0.0849443 -0.00124241 0.00208832)
(0.16421 0.000434883 0.000308222)
(0.0771924 -0.0079168 -0.00718805)
(0.190692 9.90397e-05 -6.79807e-06)
(0.111393 0.00865583 0.00902789)
(0.0565431 -0.00263109 0.000342543)
(0.0597342 -0.000462425 -0.00135903)
(0.18605 -9.77815e-05 0.000325961)
(0.184902 0.00012484 0.000326056)
(0.049626 -0.000501878 0.000601385)
(0.131343 0.000305366 -0.000611804)
(0.0941192 -0.000448735 -0.00219679)
(0.187349 0.000327414 0.000404154)
(0.186462 -0.000265465 0.000960409)
(0.0428183 0.0012688 -0.00328417)
(0.130898 -0.00112524 0.000232053)
(0.145426 -0.00181676 0.00172039)
(0.147996 0.000637722 -0.000740472)
(0.157785 0.000830247 0.000529746)
(0.02009 -0.000693332 -0.0025197)
(0.0197242 0.000969526 -0.00246759)
(0.125079 0.0011277 -0.001625)
(0.181494 -8.515e-05 -0.000161362)
(0.188907 -0.0011482 -0.000737466)
(0.0322764 0.000343666 -0.00243207)
(0.173446 -0.00162897 0.000182592)
(0.103674 -0.00104137 -0.000913942)
(0.182154 -3.55097e-05 -0.00023014)
(0.182336 -0.000399526 0.00122391)
(0.188895 -0.000292179 -0.000537824)
(0.178304 0.000706931 0.000713576)
(0.176723 0.00167048 0.000434708)
(0.0851382 0.00053508 0.000299751)
(0.186044 0.000630701 -0.00023598)
(0.0531665 -0.000987255 -0.00251364)
(0.170822 1.49925e-05 -0.000600515)
(0.105937 -0.000353421 -0.00106063)
(0.154786 0.000400112 0.00104854)
(0.1811 0.000104579 -0.000295821)
(0.148944 -0.000432981 0.00010251)
(0.145321 0.000125561 -0.00144687)
(0.0377308 0.00215769 0.00204405)
(0.0316568 0.000842585 0.000220867)
(0.0196062 0.00169993 -0.00193138)
(0.153358 0.00426252 0.0075874)
(0.195053 -0.000211023 -0.000236523)
(0.139437 -0.00063632 0.000659917)
(0.124245 0.000879834 6.16648e-05)
(0.0287238 -0.000111167 0.00109706)
(0.0220073 -0.000342722 0.00252376)
(0.111194 -0.000670069 0.00164918)
(0.154465 0.00011393 0.00142585)
(0.181649 -0.000243098 0.000675537)
(0.155187 0.000570719 0.000282663)
(0.133644 -0.00115531 -0.000647278)
(0.194901 -2.54026e-05 0.000256185)
(0.132881 0.000672755 0.00109347)
(0.0246057 -0.000476911 0.0023016)
(0.120332 -0.000201399 0.0009193)
(0.0540028 0.000499758 0.00282954)
(0.0704814 -0.00704414 0.00151088)
(0.155862 0.000498402 0.000552967)
(0.0896591 0.000580816 -0.000159362)
(0.146787 -0.000102571 0.000244394)
(0.019003 -0.00359747 -0.00129146)
(0.185769 0.000189122 -0.000626682)
(0.18738 -0.000275366 6.2899e-05)
(0.184319 -1.78237e-05 0.000766501)
(0.0879419 0.00087995 4.35611e-05)
(0.154579 -0.0009709 0.00177931)
(0.178694 0.000227242 0.000357208)
(0.119026 0.000471208 0.00031556)
(0.189944 0.000300931 0.000214865)
(0.0976065 0.00408697 -0.00344464)
(0.175206 0.000105134 -0.00038574)
(0.148849 -0.00290519 -0.000361117)
(0.0191024 -0.00121071 0.00138077)
(0.185412 0.000492934 0.00017707)
(0.114457 0.0023401 0.000103493)
(0.0431731 -0.00125784 0.00360209)
(0.0877341 0.000864433 -0.00154533)
(0.171402 0.000389068 -8.787e-05)
(0.126364 -0.000389694 0.00121656)
(0.0804493 0.000239387 -0.00225225)
(0.0188597 -0.0017182 -0.00185543)
(0.179516 0.000370738 -0.000276434)
(0.122403 0.00172005 -0.00184877)
(0.163077 -0.000407961 -0.000611303)
(0.12179 -2.27608e-05 0.000795956)
(0.0342628 0.0015856 0.00149859)
(0.140663 -1.42434e-05 -0.000197596)
(0.0257079 0.00207785 -0.00331977)
(0.165654 0.000204615 -0.000780648)
(0.102281 0.0113986 -0.00365058)
(0.17254 -0.0015638 -0.00070821)
(0.0481762 4.44153e-05 0.00171746)
(0.102583 -0.00115313 -0.00163514)
(0.0914413 3.472e-05 -0.00117695)
(0.0323165 0.00180294 0.00168521)
(0.192943 0.000176011 -0.000146275)
(0.178432 -0.000407734 0.000426913)
(0.0201273 0.000684893 0.00196732)
(0.165363 0.000512078 0.00034791)
(0.192141 0.000439176 0.000573316)
(0.0344671 -8.46227e-05 -0.00212149)
(0.0579767 0.00255823 -0.000115169)
(0.0504012 0.00188402 0.00130932)
(0.155543 -0.000419646 0.000729553)
(0.186597 -0.000391032 0.000542911)
(0.0324132 -0.000870271 0.00148501)
(0.0500368 -0.00167629 -0.000525498)
(0.0529443 0.0010434 -8.30439e-05)
(0.11207 0.00158552 0.000484049)
(0.188879 -9.4685e-05 0.000692966)
(0.0216258 0.00118878 -0.00280944)
(0.16088 -0.000591682 0.000746547)
(0.151953 0.00405805 -0.000880755)
(0.186548 -0.00037957 0.000837066)
(0.0900998 0.00386718 -0.00372739)
(0.171446 4.87839e-05 0.000326987)
(0.0209739 -0.000287356 -0.00228453)
(0.165875 -0.00141305 -0.000693658)
(0.0251624 -0.000359627 -4.78771e-05)
(0.0584682 -0.00156675 0.000870012)
(0.155004 -0.00121856 7.44646e-05)
(0.0566677 -0.0017004 -0.000575742)
(0.0187936 0.00219006 0.00194412)
(0.034028 0.000686911 -0.00106753)
(0.0418944 -0.00228889 0.00159541)
(0.0550278 0.0011212 -0.00159563)
(0.145802 0.000131388 -0.00107266)
(0.0468673 -0.0010924 8.04281e-05)
(0.0555895 0.0018084 -0.000922553)
(0.128246 -0.00714222 -0.0138131)
(0.175084 0.000127683 0.000259206)
(0.0220852 0.00141826 0.00026085)
(0.103816 0.000360853 -0.00113597)
(0.0812671 0.00887363 -0.00351014)
(0.176289 9.35058e-05 -0.000381016)
(0.0553948 -6.05991e-05 -0.00140818)
(0.170496 7.35011e-05 0.00103222)
(0.0536976 -0.00217823 -0.00163563)
(0.120679 0.000841871 0.000574738)
(0.183077 -0.00034262 -0.00116337)
(0.0472514 0.00203022 -0.00424443)
(0.180578 0.000160991 -0.000253319)
(0.0474997 0.00225758 0.00240187)
(0.0175075 0.00265981 0.00099595)
(0.146299 0.000731621 -0.000493555)
(0.186772 -0.000392027 -0.000164051)
(0.127463 0.00105591 -0.000500383)
(0.12261 0.00164142 -0.00090139)
(0.185856 -0.000824289 -0.000116716)
(0.0569201 0.00171007 -0.000273136)
(0.171577 -0.000734931 0.0002997)
(0.0535925 -0.00176936 0.0022357)
(0.180012 0.000152909 -2.05058e-05)
(0.123716 -0.00130203 -0.00138712)
(0.0257795 0.000667421 -0.00357058)
(0.154706 0.000879466 -0.000997528)
(0.0484593 3.70232e-05 0.00153468)
(0.0239445 -0.00168962 -0.00181236)
(0.147723 -0.00152308 -0.000481491)
(0.0399952 -0.00115608 0.00102358)
(0.136876 -0.000159136 6.99286e-06)
(0.18758 -0.000457919 0.00081413)
(0.129736 0.000211551 9.9611e-05)
(0.0504056 -0.00227265 -0.00247388)
(0.185645 0.000656775 0.000451509)
(0.0858829 -0.00132381 0.00130053)
(0.193457 9.61328e-05 6.4058e-05)
(0.186689 -0.000134362 0.00047169)
(0.187747 -0.000514735 0.00112234)
(0.185992 -0.000654625 -0.000709405)
(0.0408465 -0.0023105 -0.00197632)
(0.0481513 0.000322378 -0.00039659)
(0.183896 -0.0007746 -0.000422635)
(0.164024 3.38987e-05 0.00169631)
(0.0290317 -0.00214734 -0.000955065)
(0.164257 -0.000266124 0.000702399)
(0.186932 0.000125284 0.000426925)
(0.182074 -0.000200816 -0.000340189)
(0.188606 -0.000505479 -0.00027013)
(0.112571 0.000205026 -0.0019266)
(0.0196289 0.00200746 0.00169604)
(0.182743 0.000487647 -0.000136987)
(0.0964234 -0.000863224 -0.00109761)
(0.153036 0.00130453 0.000722031)
(0.0919338 0.000358464 -0.000192561)
(0.026644 0.00188095 -7.5702e-05)
(0.189495 -0.000131438 0.000351421)
(0.08746 0.00236806 0.00242791)
(0.131038 0.000220657 0.000213608)
(0.192242 -0.000143758 -5.66587e-05)
(0.140294 -0.00165532 1.42484e-05)
(0.0158075 0.00147511 -0.00184331)
(0.020081 -0.00126089 -0.00195014)
(0.182804 0.000744298 0.000196764)
(0.172979 -0.00102058 -0.00100548)
(0.192951 -0.000108715 0.00122632)
(0.154282 -0.000610413 0.0012526)
(0.0880248 -0.00138483 0.000597205)
(0.149419 -0.00102516 -0.000595004)
(0.181563 0.000276163 0.00102181)
(0.0184282 0.00163617 0.000402077)
(0.185666 0.000819737 0.000502923)
(0.135031 -0.0151616 -0.000459035)
(0.0340912 -0.000568861 0.00184507)
(0.0511918 -0.00326529 0.000814853)
(0.14329 7.40141e-05 -0.000969902)
(0.139555 -0.00144007 0.00101914)
(0.136292 0.00036562 -0.00027618)
(0.120707 -0.000589568 0.000659534)
(0.100331 -0.00341729 0.00114171)
(0.191836 -0.000108713 0.000623333)
(0.0937512 0.000886863 -0.00298117)
(0.180817 0.000290712 -0.000208135)
(0.176379 0.000838625 8.07709e-05)
(0.19302 0.000115964 0.000219237)
(0.181297 1.22819e-05 0.000143435)
(0.0366538 -0.000283549 0.00183022)
(0.166841 0.000141397 -9.58726e-06)
(0.0296254 0.00093997 -0.00120363)
(0.0944324 -0.00919497 0.00542693)
(0.0557263 0.00187202 0.00149547)
(0.127242 -0.0025299 -0.0130795)
(0.128123 -0.000598405 -0.000797655)
(0.117477 -0.0190744 -0.0042507)
(0.175812 0.000404216 -0.000566778)
(0.180138 -0.000664373 -0.000186851)
(0.15515 0.0018048 -2.7336e-06)
(0.176462 -0.00033518 0.000250571)
(0.0303823 0.000271061 -0.000575297)
(0.100941 -0.0037858 -0.00254025)
(0.112495 -0.00209637 -0.0160127)
(0.183506 0.00018177 0.000205366)
(0.108079 -0.00217527 -0.000649937)
(0.136955 -0.0135779 -0.00479299)
(0.157278 -0.00401929 0.00454211)
(0.107022 0.00083559 0.000957898)
(0.0319982 -0.000633105 0.00117988)
(0.049781 -0.0024505 0.00134441)
(0.0220433 0.00010423 -0.000201727)
(0.020795 0.000171254 -0.00158579)
(0.0313055 -5.85849e-05 0.000138891)
(0.13363 -0.00974759 0.00555872)
(0.1377 -0.000710523 0.000823234)
(0.0211163 -0.000760739 0.00292859)
(0.0200637 0.00143331 0.00220492)
(0.194415 2.88346e-05 -0.000248865)
(0.0961451 -0.0126292 0.00858185)
(0.0337215 0.0014541 0.000507624)
(0.147409 0.000173609 -0.00069089)
(0.101377 -0.00117897 -0.00135125)
(0.132188 0.000277067 0.00125435)
(0.0378524 0.00197298 -0.00106057)
(0.0503608 0.00156055 -0.000603552)
(0.107389 -0.00124263 1.53631e-05)
(0.174445 -7.53853e-05 -0.000942234)
(0.152813 -0.00024626 -0.000703639)
(0.0319192 0.00265593 -0.000895726)
(0.0215293 -0.00167944 0.00100201)
(0.106235 -0.01518 -0.0112672)
(0.022998 -0.00299445 0.000175708)
(0.132652 -0.000654942 -0.00103913)
(0.0240619 0.00134601 -0.00296905)
(0.09999 -0.000515461 0.00209566)
(0.182757 -0.00134435 0.00023802)
(0.181279 -0.000363123 0.00114206)
(0.0393451 0.000593229 -0.000715438)
(0.0939155 -0.000183657 -0.00103871)
(0.0318484 0.00116763 -0.00135881)
(0.0250162 0.00296143 -0.00106002)
(0.184018 -0.000730046 -0.000419005)
(0.0169021 -0.00143671 -0.00215965)
(0.169532 -0.000422754 -0.000486246)
(0.0432514 0.00103853 -0.00204877)
(0.156327 -0.0013656 -0.000234851)
(0.140354 -0.000831278 -0.000151917)
(0.019425 -0.00050917 0.00308531)
(0.0520746 -0.00261233 0.000285466)
(0.148687 0.000599172 0.0006397)
(0.0306975 -0.00150603 3.84118e-05)
(0.162819 0.00050837 -0.000536929)
(0.0491536 -0.00197109 0.00305501)
(0.103778 0.000173548 2.09592e-05)
(0.188283 -0.000249338 0.000163854)
(0.0325875 0.000974618 0.000651904)
(0.0211151 0.000901043 -0.0027136)
(0.0455236 0.000925077 -0.00038928)
(0.110797 0.0173779 0.0037335)
(0.099681 0.000367772 0.000485203)
(0.0509937 -0.00242424 0.00245813)
(0.0796359 0.000361489 0.0010483)
(0.0271283 -0.00102454 0.00062662)
(0.189949 -0.000463133 -0.000134763)
(0.0210311 -0.000343014 -0.00163962)
(0.171921 -0.000376812 -0.000820075)
(0.143662 0.000306714 4.51211e-05)
(0.170815 0.000327233 -0.000598919)
(0.017271 0.00169988 4.57683e-05)
(0.15133 0.000413761 0.000420396)
(0.079004 0.00103651 0.000359978)
(0.158964 -0.00011028 8.49993e-05)
(0.04962 -0.000588947 -0.000217222)
(0.108168 -0.0130016 0.00668467)
(0.160461 -0.00115784 -0.000589773)
(0.035551 0.00039772 -0.000436285)
(0.194866 -0.000140402 0.0004866)
(0.108871 0.00201359 -0.0204971)
(0.115094 0.000344862 -0.000772813)
(0.0294486 0.000766314 -0.00161815)
(0.045519 -0.000448001 -0.00251381)
(0.187369 -0.000334427 -0.000107535)
(0.130045 0.00127309 0.000744738)
(0.0286204 0.00145542 0.000597541)
(0.106454 0.0014652 -0.00165133)
(0.0558913 -0.00043467 -0.0017156)
(0.0217775 -0.00187953 0.00129617)
(0.183502 -3.57513e-05 -0.000421996)
(0.103344 -0.00127935 0.0100264)
(0.128247 0.00138343 -0.00186727)
(0.176661 -0.000618799 -4.6412e-05)
(0.181465 -0.000560892 0.000823325)
(0.172456 -6.84396e-05 4.12608e-05)
(0.130338 0.00081828 -0.000320977)
(0.0391361 0.0010001 0.000338082)
(0.0359415 -0.00172502 -0.00173672)
(0.1864 -0.000412886 0.000744223)
(0.107584 -0.00937805 0.00871754)
(0.117899 -0.000975003 0.000441926)
(0.125279 -0.00166369 0.00101973)
(0.0765556 0.00190114 0.00082558)
(0.147932 -0.000332664 0.00161935)
(0.16517 -0.000722401 -0.000910541)
(0.0947372 -0.000249296 -0.00130728)
(0.0997634 0.00179584 0.000577079)
(0.0353566 0.000547087 -0.002291)
(0.0667927 0.000457095 -0.000296231)
(0.0386337 -0.000987926 -0.00288358)
(0.151859 -0.000975174 0.00091506)
(0.178617 -0.000547035 -0.000353958)
(0.0894898 0.00193018 -0.00205673)
(0.0944994 0.000778461 -0.000641853)
(0.0187775 0.0019232 -0.000387581)
(0.0742728 -0.000301212 -0.000693293)
(0.0531641 -0.00178725 -0.00226943)
(0.179668 0.000138675 -0.00102349)
(0.182573 -0.000749249 -0.000420096)
(0.104824 -0.00955988 0.00605035)
(0.165007 -0.000189674 0.00112904)
(0.0771168 -0.00224501 -0.00191138)
(0.101709 -0.0025486 0.00793848)
(0.130829 -0.00151021 0.0015854)
(0.0230518 -0.00175922 -0.000181765)
(0.18259 -0.000502526 0.0002649)
(0.0455397 0.00127986 -8.01792e-05)
(0.13851 -0.000190476 0.00135159)
(0.0252319 0.00360103 -0.000291664)
(0.178223 0.000120849 -0.000709931)
(0.101647 -0.00432496 0.0026611)
(0.159064 -0.000781241 -0.000175882)
(0.111511 0.000383941 0.000578668)
(0.146171 -0.000211095 0.00108628)
(0.149542 0.00136777 0.00042678)
(0.190476 0.000374238 0.000323049)
(0.0310725 -0.00193032 -1.11577e-05)
(0.0429948 0.00058549 -0.000913918)
(0.0259083 -0.000673811 -0.00020816)
(0.181442 -0.000494924 0.000820961)
(0.158499 0.000225132 -0.000336205)
(0.13481 0.00158043 1.28271e-05)
(0.160577 0.000488704 -0.00144948)
(0.0188995 0.000350465 0.000493874)
(0.0938284 -0.000270834 -0.0002184)
(0.0846381 0.0010092 -0.00188148)
(0.180486 -0.000381399 -0.000607678)
(0.124204 -0.000910317 -0.000203365)
(0.145253 -6.30345e-05 -0.000545496)
(0.102159 -0.000362407 0.00128022)
(0.18609 -0.000247592 -0.000257658)
(0.0186217 -0.00214699 -0.0022565)
(0.0807891 -0.00331203 0.000433694)
(0.152961 -0.000533094 0.000638179)
(0.023272 -0.0021426 0.00181967)
(0.0408736 -0.000789314 -0.0019302)
(0.0571946 -0.000911289 0.000626275)
(0.0193034 0.00118695 -0.00204018)
(0.0903855 0.000467057 -0.00127458)
(0.171561 0.000184062 -0.000400739)
(0.0562559 -0.00159784 -0.00162745)
(0.017104 -0.00221777 -0.0016464)
(0.0998511 0.000347818 -0.000811812)
(0.023328 0.000134608 0.000353781)
(0.0939923 0.00119587 -0.000627581)
(0.177913 8.39957e-05 0.000250811)
(0.193785 3.00559e-05 6.74179e-05)
(0.177095 -0.000246124 9.57105e-05)
(0.165705 0.000858859 -2.41976e-05)
(0.179472 -0.000183544 0.000281487)
(0.127697 0.000331319 0.00230962)
(0.0425899 0.000804106 -0.00110112)
(0.180129 0.000602849 9.27971e-05)
(0.120773 -0.000331543 0.00100004)
(0.0836929 0.000554999 -0.00166015)
(0.0921213 -0.000954156 0.00130956)
(0.165832 -0.000227901 0.000487139)
(0.111754 -0.0012514 -0.000719655)
(0.0607859 2.50556e-05 0.00159475)
(0.155239 0.000828789 0.00137366)
(0.0302067 0.00113729 0.000521812)
(0.0826931 9.41782e-06 0.000600977)
(0.0918842 -0.000281093 0.000162796)
(0.0565775 0.000358131 0.000933193)
(0.161844 0.000123975 -0.000266206)
(0.106009 -0.0125971 0.0134325)
(0.127226 0.00813386 0.00528191)
(0.0293949 0.000573158 -0.00257024)
(0.0238925 -0.00150455 0.00076638)
(0.0520283 0.00197062 -0.00105855)
(0.0184581 -0.0011806 -0.0014888)
(0.124218 0.000498953 -0.000668238)
(0.154928 0.00066754 -0.00114479)
(0.126085 0.00171749 0.000407337)
(0.110212 0.0101149 -0.0115979)
(0.132378 -0.00020407 0.000215064)
(0.146978 0.000345352 -0.000868099)
(0.0228258 -0.00193553 0.00436929)
(0.158686 0.000779736 -0.000333373)
(0.127567 -0.00405781 0.0125036)
(0.0402935 0.0007609 -0.00104725)
(0.0198487 -0.00336681 0.000633007)
(0.111588 0.000414503 0.000416228)
(0.10448 -0.00147124 -0.000628104)
(0.0233624 -0.00162296 0.00261475)
(0.164311 -0.000659792 -0.000753184)
(0.020995 -0.00225552 0.00166977)