/*--------------------------------*- C++ -*----------------------------------*\
| =========                 |                                                 |
| \\      /  F ield         | OpenFOAM: The Open Source CFD Toolbox           |
|  \\    /   O peration     | Version:  2406                                  |
|   \\  /    A nd           | Website:  www.openfoam.com                      |
|    \\/     M anipulation  |                                                 |
\*---------------------------------------------------------------------------*/
FoamFile
{
    version     2.0;
    format      ascii;
    arch        "LSB;label=32;scalar=64";
    class       volVectorField;
    location    "62";
    object      U:Transformed;
}
// * * * * * * * * * * * * * * * * * * * * * * * * * * * * * * * * * * * * * //

dimensions      [0 1 -1 0 0 0 0];

internalField   nonuniform List<vector> 
59516
(
(-0.00106485 -0.000678561 0.103242)
(0.000331585 -0.000218021 0.0944835)
(-0.000503312 0.00054539 0.110138)
(-0.00214647 -0.000448372 0.127103)
(-0.00455687 0.00030095 0.113664)
(-0.010443 0.00555717 0.101091)
(-0.00269479 -0.00163625 0.12687)
(-0.000307913 -0.000547909 0.0985722)
(-0.000876769 0.000158021 0.109493)
(0.00196234 0.00106921 0.0510539)
(-0.00252627 -0.00026039 0.154064)
(-0.00302363 -0.00222701 0.0597006)
(-0.000893259 -0.000759883 0.116054)
(5.3363e-05 -0.000206013 0.018956)
(0.000230804 -0.0034475 0.0572006)
(-0.00142477 0.00346187 0.0492908)
(-0.00305238 -0.000565243 0.170044)
(-0.00573179 -0.00158333 0.0700194)
(-0.00603404 -0.00119979 0.114335)
(-0.0018326 0.000553897 0.166391)
(-0.00144321 0.000671106 0.0537203)
(0.000394912 0.000916436 0.148148)
(-0.00295248 -0.000688797 0.154502)
(0.000828317 0.000558245 0.0314919)
(-0.000113922 0.000711143 0.161462)
(-0.000158895 0.00155599 0.0622221)
(-0.000485626 0.00283198 0.0392896)
(-0.00349335 -0.00147536 0.0442229)
(-0.00269149 -0.000867318 0.0652493)
(0.00200134 0.00164588 0.0161587)
(-0.0215118 0.0012036 0.108361)
(-0.00294995 0.00226495 0.0455215)
(-0.000713523 -0.000381105 0.131379)
(-0.00189953 -0.00113832 0.10978)
(-0.00680283 -1.00846e-05 0.139498)
(-0.000577978 0.000158777 0.146006)
(-0.00234788 0.00122954 0.0156078)
(-0.00693845 -0.00220443 0.0699196)
(-0.00389597 0.000395972 0.094962)
(-0.000103615 0.00080592 0.160879)
(-6.02981e-05 -0.000594851 0.0980414)
(-0.011732 -3.96413e-05 0.144051)
(-0.00538419 0.00100084 0.148441)
(-0.000647134 0.000343595 0.103571)
(-0.00556581 0.000702424 0.142543)
(0.00135029 0.000374954 0.0522407)
(-0.00552693 0.000143634 0.132241)
(-0.00539385 0.000643345 0.163703)
(-0.0152445 0.00138598 0.111886)
(-0.00878592 0.000331287 0.15122)
(-0.0178975 0.000518949 0.104055)
(-0.0039442 -0.0018857 0.0411687)
(0.000395484 -0.00248231 0.117121)
(-0.000313398 0.000490497 0.124502)
(-0.00293313 0.000761938 0.0471502)
(-0.00321635 0.000576148 0.129516)
(-0.0119478 6.56689e-05 0.14498)
(-0.00435883 -0.00163519 0.043513)
(-0.000316383 0.000116485 0.178135)
(-0.0103987 -0.000331603 0.135274)
(-0.000440363 0.000359094 0.14948)
(-0.00139702 0.00191963 0.0177579)
(-0.000917902 -8.60744e-05 0.171121)
(-0.00372887 -7.0881e-05 0.167356)
(-0.000639068 0.00055696 0.118579)
(-0.00692738 0.000111435 0.147712)
(0.000186496 0.0027276 0.0239587)
(-0.000130356 0.000316733 0.0386351)
(-0.0228002 0.000384985 0.121534)
(-0.00375064 -0.000824914 0.13549)
(-0.000567689 -0.000795959 0.0342557)
(-0.0026935 -0.000804777 0.164482)
(0.0032654 -0.00131403 0.0213997)
(-0.00189185 -0.000433724 0.142735)
(-0.000428902 -0.00045569 0.187981)
(-0.00436099 0.000216692 0.158228)
(-0.00510862 0.000133742 0.16444)
(0.000529028 3.87703e-05 0.148678)
(0.00172839 0.000914486 0.0428177)
(-0.00862385 0.000732942 0.151892)
(-0.00242435 9.19598e-07 0.0354366)
(-0.00766332 0.000426751 0.146999)
(-0.00644063 0.000378636 0.139795)
(-0.00236009 0.00128871 0.0185241)
(-0.00746078 0.000786658 0.146808)
(-0.000920998 0.000836606 0.178681)
(0.000600059 0.00106281 0.0304116)
(-0.000747848 9.93492e-05 0.149651)
(-0.0018696 -0.000980828 0.0516086)
(-0.00998795 -0.00248838 0.10711)
(-0.0115684 -2.76142e-05 0.131512)
(-0.000890001 0.00114628 0.139324)
(-0.000658909 -3.98748e-05 0.177122)
(-2.47195e-05 0.00100716 0.13708)
(3.44014e-05 -1.744e-05 0.164766)
(-0.0112399 -7.05623e-05 0.109927)
(-0.000373933 -0.000330242 0.139705)
(0.00211769 0.00387415 0.0502331)
(-0.00247801 -0.000982758 0.064321)
(0.00165577 0.00104742 0.148371)
(-0.00118252 0.000826724 0.0353111)
(0.00248573 0.00131761 0.0225931)
(0.00267987 0.0014009 0.0213701)
(-0.00195565 0.00218818 0.051194)
(0.000835741 -2.43566e-05 0.133814)
(0.00015832 -0.000687498 0.148338)
(0.00173733 -0.00307995 0.0370324)
(-0.000776652 -0.000362218 0.101811)
(-0.000193598 0.000692091 0.0977371)
(-0.00135774 0.00214466 0.0624801)
(-0.0187503 -0.000239689 0.124958)
(0.002125 -0.00204347 0.0286149)
(-0.00250277 0.00320748 0.0632327)
(-0.019507 -5.03294e-05 0.118045)
(-0.000131946 0.000131035 0.161476)
(0.00108186 -0.00118313 0.0967762)
(-0.00166156 -0.00108859 0.0511303)
(-0.000332628 -0.00061989 0.132009)
(-0.00036152 -0.000962724 0.020365)
(-0.000808093 0.000833964 0.147064)
(0.000131083 -5.79871e-05 0.193021)
(-0.000404537 0.000603306 0.17278)
(0.000825125 0.000202552 0.158941)
(-0.000389258 0.000287334 0.171319)
(-0.0180213 0.00114819 0.132409)
(-0.00334335 0.000112662 0.0897754)
(-0.00169624 -0.00082892 0.027705)
(-0.0137051 0.00206228 0.138367)
(-0.0130697 0.00307937 0.0898411)
(0.000109159 -0.000281417 0.185476)
(-0.000149508 -0.000135995 0.189757)
(0.0016889 0.00194096 0.109932)
(-0.000483993 -0.00190797 0.0216286)
(-0.00011642 0.00056139 0.147596)
(0.0010562 0.000345771 0.0988681)
(-0.0020516 0.000966358 0.112858)
(-0.0155932 0.00140461 0.107484)
(0.000128273 0.000479503 0.127736)
(-0.000362317 0.00253595 0.0368215)
(-0.00116851 0.000849422 0.0964933)
(-0.000974327 0.00204837 0.0411156)
(-0.000287462 -0.000429524 0.190545)
(-0.000798329 -0.00147383 0.0173261)
(-0.000635544 0.000954282 0.123446)
(-0.00152709 1.99902e-06 0.179854)
(-0.0023105 0.000690367 0.141829)
(-0.00588979 0.00134132 0.140272)
(-0.00350847 0.00131439 0.116989)
(0.000947089 -0.00176352 0.062128)
(-0.000443725 0.00103451 0.104598)
(-0.00043112 -0.000907046 0.101329)
(0.000146922 0.00123762 0.0323039)
(0.000936345 0.00101178 0.169111)
(-1.63703e-05 4.0405e-05 0.154591)
(-0.0009653 -0.00198323 0.0867229)
(-0.00159923 0.000979679 0.0172214)
(-0.000426834 -0.000362354 0.110587)
(-0.00157195 0.000788474 0.111739)
(-0.00131203 0.000537611 0.0803797)
(-0.00254427 -0.0017987 0.0176652)
(0.00248742 0.00241983 0.0618237)
(0.003454 -0.00204656 0.0637296)
(-0.000562374 0.00122346 0.032287)
(-0.000218441 -0.000436003 0.0230827)
(0.002997 0.000103044 0.0964473)
(-0.00105642 -6.71201e-06 0.177546)
(0.000900136 -5.5373e-05 0.058223)
(-0.00121301 -0.000395751 0.182959)
(0.00105215 0.00215039 0.0184595)
(0.000225268 -0.000579767 0.136518)
(-0.00146343 -0.00114348 0.0810728)
(-0.000901504 0.000615902 0.0489161)
(-0.000129753 -0.00175266 0.0601894)
(-3.38822e-05 -0.000535981 0.135699)
(0.000391287 0.000591738 0.0466941)
(-0.00583436 -0.000546223 0.134858)
(-0.000832767 0.0004102 0.173179)
(-0.00698741 0.00054502 0.149529)
(0.00035947 -0.00302259 0.0636453)
(0.000428923 0.000311592 0.0377085)
(-0.00159875 -0.00208967 0.146013)
(0.000820059 0.00291871 0.0308186)
(-0.000916323 -0.00186852 0.0262965)
(0.000538115 0.0013808 0.0605193)
(-0.000269803 -0.000932712 0.184466)
(-0.00035123 0.00064966 0.055483)
(-0.0025738 0.000468659 0.0327464)
(0.00013821 0.000251808 0.0210355)
(-0.00035736 5.89166e-05 0.119673)
(0.00149641 0.000785678 0.0968423)
(-0.00268185 -0.000141066 0.13531)
(-0.00096184 -0.00281412 0.0482615)
(-0.00139085 -0.000478657 0.165632)
(0.00146692 -0.00118991 0.0529908)
(-0.000895196 -4.02589e-05 0.154671)
(0.00039621 0.000684289 0.027395)
(0.000697832 0.0002668 0.0530196)
(0.00030681 -0.00106567 0.0373558)
(-0.00456157 -2.30812e-05 0.106226)
(0.000418572 -0.000791853 0.154876)
(-0.00158628 -0.00224868 0.0773411)
(-0.000328433 -0.000324899 0.192331)
(0.000112734 0.0011204 0.0990544)
(0.0015042 -0.00179097 0.0178175)
(0.000527951 0.000824138 0.125472)
(-0.000463062 -0.00040844 0.145074)
(-0.000484893 -0.000302525 0.186542)
(0.00155656 -0.000868499 0.15571)
(0.000222148 -0.000689859 0.0211409)
(0.00178524 0.00105799 0.111004)
(-0.00052158 0.00444161 0.0469987)
(-0.00385894 0.000789112 0.0235605)
(-0.000919277 0.00121646 0.143065)
(-0.000328889 0.00130644 0.0518415)
(-0.000944424 -0.00123169 0.113035)
(0.00041022 -0.000136364 0.173966)
(-0.00176847 0.000485112 0.13977)
(-0.00122693 0.00093616 0.157948)
(-0.00159983 0.0029897 0.050375)
(0.000792205 -0.000134727 0.157521)
(-0.000849094 -0.00255527 0.0513024)
(-0.000437536 0.000259912 0.102374)
(-0.000858815 -0.000948586 0.167591)
(0.000347024 -0.000493641 0.0359561)
(0.000416733 -0.00021502 0.173288)
(0.000503696 8.63159e-05 0.175644)
(-0.00091847 -0.000998156 0.0260806)
(-0.00241629 0.000552832 0.0433169)
(0.000177264 0.000899652 0.17433)
(-0.00202593 0.00333553 0.0507142)
(3.25422e-05 0.000616715 0.175725)
(-0.000423101 0.000320919 0.17643)
(-0.000867578 -0.000434205 0.190036)
(-0.00109866 -0.00190103 0.0228785)
(-0.00122363 -0.00109463 0.0301214)
(-0.00143449 -2.77658e-05 0.0314037)
(-0.000107806 -0.00036975 0.059278)
(-0.00128356 -0.000199495 0.0929156)
(-0.0016809 0.000416802 0.158295)
(0.00189096 -0.000321482 0.053434)
(0.000428076 0.000336767 0.191805)
(0.00226739 0.00161314 0.0186913)
(0.000708873 0.00052349 0.0507838)
(0.00213366 0.00133536 0.0226293)
(0.000565051 0.000529696 0.187383)
(-0.000486586 -0.000329154 0.0885484)
(-0.00126991 0.000283241 0.146223)
(-0.00088109 0.00150369 0.06156)
(-0.000652712 -0.000392503 0.171911)
(-0.00064946 -0.0002665 0.101493)
(-0.000256295 -0.000131016 0.167705)
(-0.000792201 1.54332e-05 0.140201)
(0.000814714 0.000211226 0.193099)
(0.00029856 0.0013448 0.144875)
(-0.00109234 0.00133854 0.147421)
(-0.000983758 0.000585597 0.15956)
(-0.000236246 8.52167e-05 0.0519754)
(-0.00218306 0.0004278 0.154772)
(0.00119025 0.00183946 0.0387343)
(-0.000283608 0.00197393 0.0561049)
(-0.00120072 0.000676092 0.128301)
(-0.00021842 0.00033497 0.164273)
(0.00357244 0.000745793 0.112097)
(0.000434108 0.000127367 0.181139)
(0.00207216 -4.61739e-05 0.0948482)
(-0.000118566 -0.00255453 0.05406)
(-0.000743273 -0.00126703 0.161796)
(0.00202561 9.73071e-05 0.0890401)
(-0.000524417 -0.000873713 0.0429474)
(-0.00050384 0.00134619 0.0485346)
(-0.00267575 0.00236368 0.09557)
(4.3574e-05 -0.000253396 0.1768)
(-0.00153959 0.00194194 0.0949698)
(-0.000852735 0.00157005 0.0889621)
(-0.00112448 -0.000490045 0.16755)
(-7.64336e-06 0.00234272 0.0887278)
(-0.00112352 -0.00242931 0.0194012)
(0.000768687 0.000288821 0.163502)
(0.00199901 -0.00155741 0.0235171)
(0.0016826 0.000834481 0.0376435)
(-0.00112707 -0.000279749 0.188434)
(-0.000364611 -0.000334441 0.138409)
(-0.00312782 0.0016401 0.0233936)
(-6.55241e-05 -0.000961388 0.118327)
(-0.00137434 -0.00208846 0.121668)
(-0.00274148 0.000275066 0.168755)
(0.000115193 -0.000477093 0.187297)
(0.001857 -0.00194196 0.0222866)
(0.000242856 0.000692014 0.187063)
(4.4232e-05 0.000123943 0.193278)
(-0.000477036 -0.000560344 0.178163)
(-0.00108956 0.000539982 0.13424)
(-0.000839306 0.000441785 0.137282)
(-0.000332168 -0.000456752 0.0921066)
(0.000214702 -0.000671491 0.174734)
(1.83617e-06 0.0015295 0.0261761)
(-0.000213697 -0.000467127 0.163318)
(0.000141064 0.000680269 0.138895)
(-0.000226813 0.000364874 0.191995)
(-0.000950696 0.000820263 0.173813)
(0.000374373 -0.000652593 0.114765)
(0.00096534 -0.00119058 0.0557662)
(-0.000639191 -0.00137082 0.0213432)
(0.00065147 0.000411867 0.0263639)
(-0.00151615 0.000249933 0.164969)
(-0.00271461 0.001103 0.0188778)
(-0.000808725 -0.000790055 0.0605206)
(-0.000915665 0.00281016 0.0492448)
(-0.000832792 -0.000880788 0.171592)
(-0.000555718 -4.14692e-05 0.178646)
(-0.000601694 0.000783458 0.155397)
(0.00102247 0.00081313 0.0560169)
(0.00296966 6.77406e-05 0.10033)
(3.68759e-05 0.00404854 0.0375113)
(0.000211572 -0.00167357 0.0538623)
(-0.000273161 0.000844127 0.160312)
(0.000367328 -0.00127908 0.0949482)
(-0.0127389 -0.00153062 0.107732)
(0.000276987 -0.0021232 0.0876386)
(-0.00039963 -6.29106e-05 0.0402202)
(0.00216068 -0.000178936 0.0608709)
(-0.000725618 -0.0017652 0.105603)
(-0.000457852 -0.00010199 0.181321)
(0.000457384 -0.00118985 0.190753)
(-0.000574952 0.00105893 0.192181)
(0.000149184 0.00149065 0.16352)
(-0.00600407 -0.000584662 0.096937)
(-0.00105153 -0.000247874 0.125177)
(-0.00116686 0.000190124 0.170467)
(0.000775741 0.000243301 0.163056)
(0.00120812 0.000339923 0.166049)
(-0.00275584 -0.00217941 0.0544175)
(0.00258499 -0.00112175 0.0208733)
(0.00140769 0.00018296 0.151031)
(0.00106471 0.0025218 0.0369813)
(3.15822e-05 -7.85262e-05 0.029529)
(-0.00196602 -0.000137217 0.163925)
(0.00036047 -7.14458e-05 0.145051)
(-0.0020777 0.00255343 0.0595926)
(-0.000368611 -0.000594391 0.178545)
(0.000434802 0.000646948 0.169192)
(-0.000486353 -0.00019297 0.190365)
(-0.00136011 2.26955e-05 0.179062)
(-7.33742e-05 -0.00148503 0.0306562)
(-0.00035618 0.000198038 0.160779)
(-0.000796993 0.000163672 0.18365)
(0.000333997 0.000777498 0.0545805)
(-0.000169144 -0.000986551 0.189119)
(-0.000117668 0.000226032 0.181417)
(0.000765187 0.000490134 0.129903)
(0.000565557 0.000893132 0.121279)
(-0.000425506 -0.00201401 0.153325)
(0.000490244 0.00103638 0.142927)
(-0.000303457 0.000204447 0.0667795)
(-0.000599302 0.00146676 0.0298002)
(0.000345311 0.00244258 0.0327724)
(0.000454121 -0.00035136 0.0914999)
(-0.0126138 -6.71171e-05 0.0862556)
(-0.00735698 0.000762664 0.074607)
(0.000419815 -0.000404 0.0797665)
(0.00151241 -0.00130916 0.112181)
(-0.000976137 0.000654862 0.13055)
(-0.0045221 0.000170752 0.159647)
(0.000354339 0.00126311 0.15792)
(-0.000512698 -0.000931936 0.130497)
(6.98949e-05 -0.000549327 0.149398)
(-0.000909739 -4.86831e-05 0.150147)
(-0.000443674 0.000887728 0.0294458)
(-0.0226223 0.000817323 0.113929)
(0.000443787 0.0013808 0.0552525)
(-0.00089312 0.00149942 0.0386249)
(0.000854152 0.000324856 0.0390251)
(0.000186391 0.00075955 0.16386)
(-0.00048088 0.000301204 0.0910222)
(-0.0012721 0.00049248 0.162382)
(-0.00118207 0.00144594 0.0184776)
(0.000294401 -0.000359178 0.124505)
(0.00108168 -0.00067428 0.0417785)
(-0.00010238 0.000141547 0.168516)
(-0.000516349 0.000603166 0.0450674)
(0.0015579 0.000733133 0.0593692)
(0.000667293 0.00280109 0.102366)
(-0.0015608 -0.000464189 0.151955)
(0.00241419 -0.000233735 0.0181718)
(-0.000131091 0.00215878 0.0516611)
(5.65818e-05 -0.000552091 0.131877)
(8.93649e-05 -0.00221349 0.0216296)
(-0.00963803 -0.000284912 0.130878)
(0.00055899 -0.00267786 0.113415)
(-0.000501867 -0.00215248 0.130327)
(0.0022444 -0.00274781 0.0915371)
(0.0022998 0.000784586 0.0849443)
(0.000522331 0.000106271 0.16421)
(-0.0101934 -0.00323086 0.0771924)
(-9.92403e-05 2.53486e-06 0.190692)
(-0.0124783 0.000847979 0.111393)
(-0.00214833 0.00155714 0.0565431)
(-0.000296764 0.00140453 0.0597342)
(0.000318847 -0.000118947 0.18605)
(0.000342891 -6.57523e-05 0.184902)
(0.00058989 -0.00051534 0.049626)
(-0.000457561 -0.000508124 0.131343)
(-0.00213462 0.000686052 0.0941192)
(-0.000231467 -0.000465793 0.187349)
(0.00044671 -0.000890678 0.186462)
(-0.00101446 -0.00337143 0.0428183)
(-0.000357716 0.00109181 0.130898)
(0.00248691 -0.000274987 0.145426)
(-0.000937675 -0.000275236 0.147996)
(0.000248367 -0.000953024 0.157785)
(0.0023063 -0.00122904 0.02009)
(-0.00256718 -0.000662224 0.0197242)
(-0.00143625 0.00135997 0.125079)
(-0.000166445 -7.47267e-05 0.181494)
(0.000930049 0.000998608 0.188907)
(-0.0021633 0.00116328 0.0322764)
(0.00142526 -0.000809649 0.173446)
(-0.001354 -0.000294 0.103674)
(0.000183968 0.000142762 0.182154)
(-0.000837356 0.000977961 0.182336)
(0.000173493 -0.000586961 0.188895)
(5.39504e-05 -0.00100301 0.178304)
(-0.000441619 -0.00166866 0.176723)
(0.000287189 -0.000541926 0.0851382)
(-0.000521159 0.000426454 0.186044)
(-0.0017159 0.00208537 0.0531665)
(-0.000438473 0.00041059 0.170822)
(-0.000921148 -0.000633511 0.105937)
(-0.00101699 -0.000474624 0.154786)
(-0.000313364 1.58054e-05 0.1811)
(-0.000204896 0.000394967 0.148944)
(0.00104489 -0.00100866 0.145321)
(0.0016305 0.002485 0.0377308)
(0.000869825 -4.62233e-05 0.0316568)
(-0.0017926 -0.00184569 0.0196062)
(-0.00870249 6.67762e-05 0.153358)
(0.000244308 -0.000201959 0.195053)
(-0.000874004 0.000276605 0.139437)
(-0.000165629 -0.000866301 0.124245)
(0.00107678 0.000237589 0.0287238)
(0.00065259 -0.0024619 0.0220073)
(-0.000442528 -0.00172422 0.111194)
(-0.000823946 0.00116924 0.154465)
(-0.000452497 -0.000557399 0.181649)
(0.000631638 -8.15615e-05 0.155187)
(-0.00129591 0.000272622 0.133644)
(-0.000189923 -0.000173797 0.194901)
(0.00124889 0.000297578 0.132881)
(-0.00100905 0.00212288 0.0246057)
(0.000276895 0.000899446 0.120332)
(0.00250974 -0.00139903 0.0540028)
(-0.00716127 -0.000786755 0.0704814)
(-0.00048094 0.000568221 0.155862)
(0.000442209 -0.000408895 0.0896591)
(-3.24919e-05 0.000263047 0.146787)
(-0.00322266 0.00205526 0.019003)
(-0.000101625 -0.000646661 0.185769)
(-1.84509e-05 0.000281855 0.18738)
(-0.000448327 -0.000621969 0.184319)
(0.000591742 -0.000652726 0.0879419)
(0.000714448 -0.00189688 0.154579)
(-0.000336189 -0.000257319 0.178694)
(-0.000228027 0.000519248 0.119026)
(-0.000369731 5.0903e-06 0.189944)
(-0.00532087 -0.000507119 0.0976065)
(-0.000394756 6.33732e-05 0.175206)
(-0.0026367 0.00127214 0.148849)
(0.00137807 -0.00121379 0.0191024)
(-0.000345076 -0.000394032 0.185412)
(0.0014193 0.00186343 0.114457)
(-0.00279869 -0.00259317 0.0431731)
(-0.00103494 0.00143673 0.0877341)
(-0.000228799 0.00032672 0.171402)
(-0.000111974 -0.00127253 0.126364)
(0.000859854 0.00209538 0.0804493)
(-0.00206299 0.00146249 0.0188597)
(-0.000372352 -0.000274257 0.179516)
(0.000566761 0.00246075 0.122403)
(-0.000726265 -0.000112525 0.163077)
(-0.000765086 -0.000220696 0.12179)
(-0.00209491 0.00060934 0.0342628)
(0.000193215 -4.37601e-05 0.140663)
(-0.00390348 0.000318192 0.0257079)
(7.1376e-05 0.000803855 0.165654)
(-0.0119538 0.000601097 0.102281)
(0.00166061 0.000435209 0.17254)
(-0.000183346 0.00170823 0.0481762)
(-0.00132654 0.00149789 0.102583)
(-2.77147e-05 0.00117714 0.0914413)
(0.00188218 -0.00159623 0.0323165)
(0.000113851 -0.000198529 0.192943)
(-0.00016396 -0.000567115 0.178432)
(-0.00193698 -0.000766505 0.0201273)
(-0.000590469 0.00018604 0.165363)
(-0.000587393 0.000420163 0.192141)
(-0.000556375 0.00204898 0.0344671)
(0.001455 0.00210731 0.0579767)
(-0.00131346 0.00188114 0.0504012)
(-0.00077589 -0.000326107 0.155543)
(0.000377247 -0.000552579 0.186597)
(-0.0012277 0.0012064 0.0324132)
(0.00159083 -0.000745232 0.0500368)
(-0.000184865 0.00103024 0.0529443)
(0.00125274 0.00108574 0.11207)
(-0.000100158 -0.000692197 0.188879)
(-0.00249928 -0.00174922 0.0216258)
(0.000901422 0.000307991 0.16088)
(-0.00408289 -0.000757257 0.151953)
(0.000171985 -0.00090287 0.186548)
(-0.00234852 -0.00483042 0.0900998)
(1.12273e-05 0.000330416 0.171446)
(0.00105224 -0.00204803 0.0209739)
(-0.00154031 -0.000324549 0.165875)
(0.000144272 -0.00033288 0.0251624)
(-0.000372155 -0.00175304 0.0584682)
(-7.02943e-05 0.00121881 0.155004)
(-0.00103446 0.00146722 0.0566677)
(-0.00251666 0.00149748 0.0187936)
(0.000344239 -0.00122187 0.034028)
(0.000463472 0.00275128 0.0418944)
(0.000759488 -0.00179619 0.0550278)
(-0.00105964 -0.000212182 0.145802)
(2.84429e-05 0.00109499 0.0468673)
(0.00107995 -0.00171904 0.0555895)
(-0.0155378 0.000624982 0.128246)
(-0.000256265 -0.000133488 0.175084)
(0.00144192 1.93996e-05 0.0220852)
(0.000165363 0.00118038 0.103816)
(-0.00851319 -0.00431138 0.0812671)
(-6.51086e-05 0.000386882 0.176289)
(-0.0011519 0.00081227 0.0553948)
(-0.000832845 -0.000614215 0.170496)
(0.00120605 0.00244242 0.0536976)
(-0.000636374 0.000796303 0.120679)
(-0.000823711 0.000890123 0.183077)
(0.00241774 -0.00403628 0.0472514)
(0.000192566 -0.000230232 0.180578)
(-0.0031993 -0.0007938 0.0474997)
(0.00240148 -0.00151639 0.0175075)
(-0.000414201 0.000779297 0.146299)
(-0.000140098 0.00040121 0.186772)
(-0.000984318 0.000629648 0.127463)
(0.000619874 -0.00176707 0.12261)
(0.000804382 0.000214584 0.185856)
(0.00171839 -0.000214654 0.0569201)
(0.000763416 -0.000217118 0.171577)
(0.00110509 0.00262826 0.0535925)
(-0.00012064 -9.6165e-05 0.180012)
(0.00168214 0.000888695 0.123716)
(-0.00301414 -0.00202719 0.0257795)
(-0.00130831 0.000238419 0.154706)
(0.00102486 -0.00114293 0.0484593)
(0.00114002 0.00219996 0.0239445)
(-0.00146909 0.000627194 0.147723)
(-0.00154213 7.79373e-05 0.0399952)
(-2.4548e-05 -0.000157387 0.136876)
(-0.000298719 0.000885022 0.18758)
(-3.23559e-05 0.00023158 0.129736)
(8.30627e-05 0.00335829 0.0504056)
(0.000761778 0.000234325 0.185645)
(0.0018223 0.000350812 0.0858829)
(-5.43586e-06 0.000115392 0.193457)
(-0.000435903 0.000224795 0.186689)
(-0.000642693 0.0010543 0.187747)
(-0.000819052 0.000510825 0.185992)
(0.00283398 -0.00110127 0.0408465)
(0.0002805 0.000427236 0.0481513)
(0.000864516 0.000176745 0.183896)
(0.000570087 -0.00159801 0.164024)
(0.000509787 0.00229419 0.0290317)
(0.000733036 -0.000163844 0.164257)
(2.20287e-05 0.000444382 0.186932)
(-5.78189e-05 0.000390784 0.182074)
(0.000215039 0.00053126 0.188606)
(-0.0018424 0.000599481 0.112571)
(-0.0015042 0.00215495 0.0196289)
(0.0005064 1.11474e-05 0.182743)
(0.000695453 -0.00121089 0.0964234)
(-0.000559187 0.00138219 0.153036)
(-0.000136979 0.000383162 0.0919338)
(-0.00157073 -0.00103755 0.026644)
(-0.000164315 -0.000337303 0.189495)
(-0.00211608 0.0026504 0.08746)
(-0.000223638 -0.000210484 0.131038)
(4.96132e-05 0.000146339 0.192242)
(-0.000535751 0.00156629 0.140294)
(0.00140395 0.00189807 0.0158075)
(-0.00209449 0.00100298 0.020081)
(-8.36084e-05 0.000765313 0.182804)
(0.00137101 -0.000415818 0.172979)
(-0.00118785 0.000323568 0.192951)
(-0.000859292 -0.00109692 0.154282)
(-0.000317746 0.00147426 0.0880248)
(-0.000476726 0.00108522 0.149419)
(3.94962e-05 0.00105773 0.181563)
(0.000653743 0.00155285 0.0184282)
(-0.000515655 0.000811788 0.185666)
(-0.0151433 0.000874543 0.135031)
(-5.27984e-05 0.00193005 0.0340912)
(-0.000377651 0.00334417 0.0511918)
(-0.000639018 0.000733378 0.14329)
(0.00157699 -0.000790919 0.139555)
(2.18214e-05 -0.000457687 0.136292)
(0.000675752 -0.000570908 0.120707)
(-0.00290319 0.00213374 0.100331)
(0.000627804 7.88924e-05 0.191836)
(0.00063745 -0.00304427 0.0937512)
(0.000187267 -0.000304574 0.180817)
(0.000147844 0.000829432 0.176379)
(-0.000128757 -0.000211977 0.19302)
(-9.35731e-05 -0.000109401 0.181297)
(0.00152486 0.00105114 0.0366538)
(-0.000141061 -1.36666e-05 0.166841)
(-0.0002596 -0.00150495 0.0296254)
(-0.0105803 -0.00143429 0.0944324)
(0.0019581 -0.00138086 0.0557263)
(-0.0133217 -7.46925e-05 0.127242)
(0.000621042 0.00078016 0.128123)
(-0.019537 0.000456761 0.117477)
(7.26779e-05 0.000692348 0.175812)
(-0.000689977 -1.53874e-05 0.180138)
(-0.00179669 0.000170972 0.15515)
(1.59595e-05 0.000418183 0.176462)
(-0.000603801 -0.000199664 0.0303823)
(-0.00455691 0.000140482 0.100941)
(-0.0161097 0.00113049 0.112495)
(-0.000169804 -0.000215365 0.183506)
(-0.000800862 0.00212435 0.108079)
(-0.0143696 0.000919913 0.136955)
(-0.006064 0.000115807 0.157278)
(0.000516938 0.00116127 0.107022)
(-0.00125135 -0.0004765 0.0319982)
(0.00131603 0.00246586 0.049781)
(-0.000193171 -0.000119342 0.0220433)
(0.00116611 0.00108823 0.020795)
(-0.000150661 4.89705e-06 0.0313055)
(-0.011218 0.000265173 0.13363)
(-0.000790121 -0.000747173 0.1377)
(-0.00200601 -0.00226523 0.0211163)
(-0.00253809 0.000688559 0.0200637)
(0.000214214 -0.000129913 0.194415)
(-0.0149131 0.00327791 0.0961451)
(-0.00153239 0.000154537 0.0337215)
(-0.000712368 5.32155e-07 0.147409)
(-0.0014875 0.00100159 0.101377)
(0.00120758 -0.00043807 0.132188)
(0.00121733 0.0018803 0.0378524)
(-0.00103568 -0.00131414 0.0503608)
(0.000165258 0.00123169 0.107389)
(0.000927758 0.000180976 0.174445)
(0.000587002 0.000459543 0.152813)
(-0.00166688 0.0022534 0.0319192)
(-0.000526688 -0.00188338 0.0215293)
(-0.0189035 0.000199895 0.106235)
(-0.00239266 0.00180909 0.022998)
(-0.000233139 0.00120598 0.132652)
(-0.00310084 -0.00100588 0.0240619)
(0.000480469 0.00210396 0.09999)
(-0.00136525 3.47274e-06 0.182757)
(0.00117768 0.000221906 0.181279)
(-0.00031628 -0.000873922 0.0393451)
(0.000951954 -0.000454359 0.0939155)
(-0.00177831 -0.000217644 0.0318484)
(-0.00313816 -0.00021381 0.0250162)
(-0.000404423 -0.000738224 0.184018)
(-0.00232222 0.00115564 0.0169021)
(0.000596826 0.000242805 0.169532)
(-0.000306975 -0.00227635 0.0432514)
(-0.000258181 0.00136138 0.156327)
(-0.000237258 0.000811055 0.140354)
(0.00290181 0.00116528 0.019425)
(-0.00102393 -0.0024202 0.0520746)
(0.000140158 0.000865205 0.148687)
(-0.000134493 0.00150051 0.0306975)
(0.000525809 0.000519864 0.162819)
(-0.00122884 0.00342173 0.0491536)
(0.000141185 0.000103078 0.103778)
(0.000229955 -0.000190101 0.188283)
(0.00117192 -3.81006e-05 0.0325875)
(-0.0027996 -0.000581137 0.0211151)
(-0.000942428 -0.000345161 0.0455236)
(-0.0177742 9.55574e-05 0.110797)
(-0.000607737 -3.65303e-05 0.099681)
(1.82676e-05 0.00345239 0.0509937)
(0.00107964 -0.000252944 0.0796359)
(0.000390821 0.0011356 0.0271283)
(0.00047739 -6.89361e-05 0.189949)
(0.00100106 0.0013431 0.0210311)
(-0.00088757 0.000163494 0.171921)
(-1.63855e-05 -0.000309582 0.143662)
(-0.000678528 -7.3379e-05 0.170815)
(-0.00169118 -0.000177741 0.017271)
(0.000106338 -0.000580192 0.15133)
(-0.000990842 0.000471338 0.079004)
(-0.00013838 -1.54098e-05 0.158964)
(0.000199878 0.000595057 0.04962)
(-0.0146141 0.00039191 0.108168)
(-0.00124392 0.000375618 0.160461)
(0.000583459 -9.00103e-05 0.035551)
(-0.00050462 4.30276e-05 0.194866)
(-0.0204579 0.00237855 0.108871)
(-0.000728053 -0.000431403 0.115094)
(-0.000686172 -0.00165373 0.0294486)
(-0.00116345 0.00227295 0.045519)
(-0.000183572 0.00029951 0.187369)
(0.00118264 -0.000881338 0.130045)
(-0.00101644 0.0012009 0.0286204)
(-0.000172574 -0.00220089 0.106454)
(0.001347 0.00114796 0.0558913)
(-0.00147045 0.00174656 0.0217775)
(-0.00041917 6.0454e-05 0.183502)
(-0.0100959 0.000487801 0.103344)
(-0.000961402 -0.00211573 0.128247)
(-8.6521e-05 0.000614475 0.176661)
(0.000614521 0.000784109 0.181465)
(-1.34566e-05 -7.8774e-05 0.172456)
(0.000784166 -0.000397105 0.130338)
(0.000998195 0.000343669 0.0391361)
(-0.000462115 0.00240382 0.0359415)
(-0.000350377 0.000775615 0.1864)
(-0.0127922 -0.000550748 0.107584)
(0.000182185 0.00105486 0.117899)
(0.00143772 -0.00131935 0.125279)
(0.00185016 -0.00093424 0.0765556)
(-0.00060641 0.00153793 0.147932)
(0.000710532 0.000919833 0.16517)
(-0.000910395 -0.000970733 0.0947372)
(-0.00157398 0.00103954 0.0997634)
(-0.00139063 0.00190108 0.0353566)
(-0.000461019 -0.000290087 0.0667927)
(-0.00241469 -0.00186019 0.0386337)
(0.000986991 -0.000902301 0.151859)
(0.000521635 -0.000390423 0.178617)
(-0.000859392 0.00268648 0.0894898)
(-2.91783e-06 -0.00100894 0.0944994)
(0.00107985 -0.00163794 0.0187775)
(0.000234721 -0.000718533 0.0742728)
(-0.00261123 -0.00123533 0.0531641)
(-0.000973104 0.000346166 0.179668)
(0.000816951 0.000265419 0.182573)
(-0.01129 -0.000730579 0.104824)
(-0.000979369 0.000592908 0.165007)
(-0.00143857 0.0025737 0.0771168)
(-0.00832889 0.000380015 0.101709)
(0.000716278 -0.0020691 0.130829)
(0.00158111 0.000792459 0.0230518)
(0.000415662 -0.000387208 0.18259)
(-0.000160847 0.00127224 0.0455397)
(-0.00135056 -0.000197671 0.13851)
(0.00320255 -0.00167219 0.0252319)
(0.000655827 -0.000297485 0.178223)
(-0.00506968 -0.000291684 0.101647)
(-0.000800748 -8.66348e-06 0.159064)
(0.000541115 -0.000435273 0.111511)
(-0.000695107 0.000861046 0.146171)
(0.000202901 0.00141837 0.149542)
(-0.000457602 -0.000187123 0.190476)
(0.000199133 0.00192006 0.0310725)
(-6.65185e-05 -0.00108334 0.0429948)
(-0.000289676 0.000642992 0.0259083)
(-0.000287159 0.000914585 0.181442)
(0.000403963 -2.3068e-05 0.158499)
(0.00133844 0.000840532 0.13481)
(0.000749247 -0.00133359 0.160577)
(0.00021447 -0.00056634 0.0188995)
(0.000115269 0.000328272 0.0938284)
(0.00157924 -0.00143682 0.0846381)
(-0.000676119 -0.00024 0.180486)
(-0.000932003 -3.74694e-05 0.124204)
(6.6125e-05 -0.00054513 0.145253)
(-0.00126443 0.00041413 0.102159)
(-0.000310933 -0.000176097 0.18609)
(-0.00251876 0.00183227 0.0186217)
(0.000334069 0.00332356 0.0807891)
(-0.000707519 0.000436897 0.152961)
(-0.000173635 0.00280567 0.023272)
(0.000370635 0.00205215 0.0408736)
(-0.00101849 -0.00043052 0.0571946)
(-0.00216459 -0.00094114 0.0193034)
(0.00135746 -3.6281e-06 0.0903855)
(-0.000139195 0.000418444 0.171561)
(-0.000651317 0.00218575 0.0562559)
(0.00207396 0.00182423 0.017104)
(-0.000371919 -0.000801057 0.0998511)
(0.000366456 9.4816e-05 0.023328)
(9.81103e-06 0.00135051 0.0939923)
(-0.000226002 0.000137421 0.177913)
(-7.22158e-05 -1.52779e-05 0.193785)
(8.65011e-05 -0.00024951 0.177095)
(0.000502732 0.000696768 0.165705)
(-0.000277714 -0.000189205 0.179472)
(-0.000925112 0.00214203 0.127697)
(0.000892612 -0.00103067 0.0425899)
(0.000453801 -0.000407557 0.180129)
(7.70751e-05 -0.00105074 0.120773)
(-0.000837932 -0.00153688 0.0836929)
(-0.00152028 -0.000560456 0.0921213)
(-0.000521171 -0.000132758 0.165832)
(-0.00129088 0.000646172 0.111754)
(0.000864611 0.00134026 0.0607859)
(-0.00122434 -0.00103673 0.155239)
(0.000387979 -0.00118962 0.0302067)
(0.000492165 0.000345015 0.0826931)
(0.000279727 -0.000165133 0.0918842)
(-0.000734206 0.000678269 0.0565775)
(-0.000155676 -0.000248999 0.161844)
(-0.0184085 -0.000497882 0.106009)
(-0.00969124 0.000371733 0.127226)
(-0.000553785 0.00257449 0.0293949)
(0.00166818 -0.000261161 0.0238925)
(-0.000133629 0.00223294 0.0520283)
(0.00185595 -0.000407167 0.0184581)
(-0.00057079 0.000608025 0.124218)
(0.000763442 0.0010832 0.154928)
(-0.00118944 0.0013042 0.126085)
(-0.0153421 0.00120144 0.110212)
(-0.000139451 -0.000261631 0.132378)
(0.000741636 0.00056819 0.146978)
(0.00387614 0.00279507 0.0228258)
(-6.52779e-05 0.000845496 0.158686)
(-0.0131404 -0.00036872 0.127567)
(-0.00124616 -0.000350427 0.0402935)
(0.00252078 0.00231986 0.0198487)
(-0.000471903 -0.000349809 0.111588)