/*--------------------------------*- C++ -*----------------------------------*\
| =========                 |                                                 |
| \\      /  F ield         | OpenFOAM: The Open Source CFD Toolbox           |
|  \\    /   O peration     | Version:  2406                                  |
|   \\  /    A nd           | Website:  www.openfoam.com                      |
|    \\/     M anipulation  |                                                 |
\*---------------------------------------------------------------------------*/
FoamFile
{
    version     2.0;
    format      ascii;
    arch        "LSB;label=32;scalar=64";
    class       volScalarField;
    location    "42";
    object      epsilon;
}
// * * * * * * * * * * * * * * * * * * * * * * * * * * * * * * * * * * * * * //

dimensions      [0 2 -3 0 0 0 0];

internalField   nonuniform List<scalar> 
59516
(
0.0124047
0.0116295
0.00923319
0.00851674
0.00930525
0.345203
0.00819555
0.0112848
0.01002
0.0248754
0.00755849
0.0257516
0.0095789
0.0795773
0.0214637
0.0251252
0.00571825
0.0387067
0.0138426
0.00539929
0.0334515
0.00632302
0.00606114
0.0348646
0.00536298
0.0193313
0.0342949
0.0436375
0.0235227
0.0601829
0.0458309
0.0390512
0.00730694
0.0103686
0.00930193
0.00629087
0.0578077
0.0444079
0.0166867
0.00553851
0.0115416
0.00976598
0.00766447
0.0127624
0.0074776
0.0257351
0.00951241
0.0065973
0.0126629
0.00829053
0.0271199
0.0284432
0.0087967
0.00855677
0.0273297
0.00982268
0.00973666
0.0298017
0.00543586
0.0112686
0.0063384
0.045554
0.00580055
0.00597654
0.00849324
0.00771024
0.057452
0.0285218
0.0200691
0.00846677
0.0278928
0.00596311
0.0455481
0.00722923
0.00517146
0.00647353
0.00638241
0.00643046
0.0261481
0.00823172
0.0330764
0.00841322
0.00913161
0.050567
0.00862178
0.00539682
0.0353863
0.00604278
0.023601
0.0258268
0.0100529
0.00756472
0.00510004
0.00769913
0.00615328
0.0106824
0.00731644
0.0262856
0.0305815
0.00655477
0.028841
0.0442571
0.0439018
0.0231027
0.00750279
0.00700921
0.0322984
0.0109868
0.0119491
0.0187888
0.019957
0.0242277
0.0205484
0.0301867
0.00561766
0.0134585
0.0225582
0.00798031
0.0423257
0.00651914
0.00529877
0.00603812
0.00560427
0.005958
0.0155593
0.0192995
0.042377
0.012806
0.0818121
0.00506253
0.00512247
0.0100971
0.0428755
0.00594211
0.0118556
0.0091154
0.0366641
0.00717777
0.0301941
0.0132203
0.0269005
0.00502693
0.0578396
0.00866508
0.00559978
0.00669829
0.00816813
0.0103985
0.252873
0.0105101
0.012582
0.0327091
0.00505459
0.00581887
0.014383
0.0649735
0.00953202
0.0093027
0.0167031
0.0556948
0.019287
0.0182224
0.0356495
0.0659794
0.0125797
0.00524803
0.0200742
0.00524832
0.0506436
0.00801705
0.0160569
0.0279
0.0175199
0.00715573
0.0261648
0.00962842
0.0057635
0.00782646
0.0180376
0.0344152
0.00622367
0.0419199
0.0572346
0.0221012
0.00510891
0.0240909
0.0360587
0.0519534
0.00874034
0.0125738
0.00794547
0.0262242
0.00547748
0.0229427
0.00562511
0.0407717
0.0254177
0.0321441
0.0108871
0.00568173
0.0175405
0.00531359
0.0113943
0.0550273
0.00790168
0.00657528
0.00511311
0.00668925
0.0559544
0.00998625
0.0286975
0.0599367
0.00677054
0.0242628
0.00973284
0.00521355
0.00684834
0.00534547
0.0250858
0.00586245
0.0253456
0.0111715
0.00586703
0.0294517
0.00556073
0.00556312
0.0290299
0.0260546
0.00537144
0.023633
0.00515779
0.005561
0.00537228
0.0356227
0.0365961
0.0332549
0.0228639
0.0116177
0.00603614
0.0274096
0.00508366
0.051566
0.0251799
0.0449405
0.00516596
0.0143632
0.00662148
0.0179709
0.00499571
0.0112438
0.00520885
0.00696981
0.00516751
0.00675351
0.0065062
0.00560366
0.0266588
0.0061755
0.0261357
0.0214922
0.00776179
0.00554669
0.00993775
0.00502883
0.0126768
0.0247251
0.00588751
0.0142111
0.0233592
0.0270575
0.0140822
0.00550025
0.0116511
0.0138683
0.005359
0.0139613
0.0419186
0.00537716
0.0328708
0.028406
0.00539591
0.00713964
0.0396994
0.00925136
0.00847676
0.00573147
0.00516662
0.0406165
0.0054138
0.00557724
0.00557057
0.00777635
0.00766054
0.0132268
0.00518358
0.0249768
0.0058949
0.00643481
0.00534081
0.00563869
0.00908939
0.0225373
0.0430632
0.0247392
0.00514585
0.0537627
0.0172513
0.0272927
0.00539113
0.00489067
0.00546087
0.0227
0.0116731
0.0305526
0.0300421
0.00619782
0.0128482
0.0117398
0.0149072
0.0311646
0.0198466
0.0115497
0.00533007
0.00526226
0.00540277
0.00552596
0.0199608
0.0081921
0.00584845
0.00591835
0.00536203
0.0225973
0.0446462
0.00638625
0.0263525
0.0359655
0.00575836
0.00663352
0.0294054
0.00554494
0.00517072
0.00525046
0.00551404
0.0335376
0.00568462
0.00567239
0.0251372
0.00538983
0.00571114
0.00799095
0.0084766
0.0062475
0.00634847
0.0209405
0.0407456
0.0300513
0.0127652
0.0526072
0.0969862
0.0182311
0.0101869
0.0075948
0.00717812
0.00559078
0.00751579
0.00640829
0.00666029
0.0347121
0.0360683
0.0250877
0.0299016
0.0309862
0.00605903
0.0130087
0.00581693
0.0485416
0.00826573
0.0305783
0.00573357
0.0301424
0.0208723
0.0107188
0.00768905
0.051014
0.0230671
0.00761316
0.0390622
0.0127349
0.0102094
0.00710633
0.0137239
0.013946
0.00563355
0.0673894
0.00535798
0.0283771
0.0196196
0.0200732
0.00531101
0.00510233
0.0272301
0.00743675
0.0132626
0.00524494
0.00524893
0.0235942
0.00813835
0.00636517
0.00627573
0.00581381
0.0427777
0.0445806
0.00772848
0.00520023
0.00519787
0.0327637
0.00580609
0.0102821
0.00568108
0.00530199
0.00520455
0.00547494
0.00543755
0.0142299
0.00546856
0.0204254
0.00575087
0.011255
0.00636824
0.0055376
0.00638848
0.00698799
0.0293281
0.0360125
0.0465093
0.00827799
0.0047138
0.00745038
0.00796512
0.0364289
0.0474512
0.0100116
0.00654456
0.00544654
0.00585581
0.00686951
0.0051014
0.0069684
0.032908
0.00866708
0.0238772
0.115113
0.00633187
0.0128394
0.00683769
0.0502705
0.00524246
0.00529013
0.00557833
0.0146316
0.00649163
0.00555145
0.00901109
0.00560023
0.0164989
0.00548968
0.00627148
0.0448466
0.00519197
0.00959888
0.024854
0.0136012
0.00540633
0.0080412
0.0170722
0.0474779
0.00508933
0.0079484
0.00559533
0.00827317
0.031978
0.00694514
0.0570177
0.00587074
0.0169949
0.00570163
0.0230179
0.0111845
0.0128532
0.0323734
0.00538624
0.00587375
0.0525674
0.00567669
0.00553477
0.0310708
0.0206055
0.0224619
0.00622277
0.00565949
0.0863138
0.0256743
0.024449
0.0103176
0.00556858
0.0405366
0.00559271
0.00639036
0.00538611
0.114208
0.0051795
0.0372416
0.00550604
0.0461009
0.0233443
0.00619553
0.0222436
0.0487534
0.0335698
0.0230171
0.0245281
0.00612707
0.0276533
0.0203654
0.0124787
0.00578929
0.0304744
0.0105455
0.0680296
0.00525458
0.0263756
0.00614148
0.025202
0.00880663
0.0055017
0.0242013
0.00524829
0.054134
0.0587562
0.00611995
0.00535939
0.00807574
0.0084865
0.00513629
0.0223576
0.00528638
0.0220161
0.00557382
0.00816325
0.0317841
0.00571018
0.023455
0.0316188
0.00621252
0.0307402
0.0074359
0.00549231
0.00788499
0.0230185
0.0051051
0.0155299
0.0048022
0.00489965
0.0053104
0.00541182
0.0280977
0.0260836
0.00531049
0.00557289
0.0389412
0.00585553
0.00475922
0.00492017
0.00497406
0.00942367
0.0504157
0.00488652
0.012005
0.00642286
0.012289
0.0288427
0.00555535
0.0149482
0.00695393
0.00508329
0.00691076
0.0587627
0.0445489
0.00557004
0.00590614
0.00549531
0.00686656
0.0151233
0.00674424
0.00543819
0.0393256
0.00559485
0.0139301
0.0317627
0.0206792
0.00629457
0.00677797
0.00734063
0.00854051
0.0119969
0.00534654
0.0138943
0.00518945
0.00545148
0.00480145
0.00538772
0.0294134
0.00555119
0.038642
0.0949499
0.021644
0.0109743
0.00738491
0.0300135
0.00573871
0.00475781
0.00596072
0.0054596
0.0347507
0.0104313
0.0143139
0.00555369
0.0100708
0.0127458
0.00745312
0.0100401
0.0306478
0.0263918
0.0288126
0.0502458
0.0320823
0.0117397
0.00733854
0.0558834
0.0485819
0.00545156
0.0657662
0.0340518
0.00673721
0.0106777
0.00775002
0.0335737
0.0251809
0.0103353
0.00558286
0.00627964
0.0358836
0.0373222
0.0596192
0.0384883
0.00723531
0.0362262
0.0119996
0.00555325
0.00470751
0.0288047
0.0124665
0.0352802
0.0398587
0.00555028
0.0554903
0.00584235
0.0239091
0.00613352
0.00704977
0.0481567
0.0245796
0.00641376
0.0323676
0.00608952
0.0266032
0.0111405
0.00538531
0.0327374
0.0445655
0.0249522
0.0190718
0.0119359
0.0263432
0.0173894
0.0428227
0.00542365
0.0319632
0.00501413
0.00623867
0.00564218
0.0572084
0.0059439
0.0154179
0.00589894
0.0275567
0.0141119
0.00534204
0.0318942
0.00529874
0.0295127
0.00863397
0.0379134
0.0229977
0.00551012
0.0075736
0.0353165
0.00965837
0.0221401
0.0391324
0.00549319
0.0121325
0.00756212
0.00562178
0.00556691
0.00556167
0.00740342
0.0252815
0.0287999
0.00523555
0.0125984
0.00969508
0.00795833
0.0183873
0.00623887
0.00590134
0.0120972
0.011867
0.035407
0.0153011
0.0344722
0.00628205
0.00514607
0.0143414
0.012283
0.0501093
0.0181534
0.025603
0.00552884
0.00533308
0.0127798
0.00603588
0.0176271
0.0160086
0.00754072
0.0464971
0.00538838
0.0288716
0.00715768
0.0408244
0.00509979
0.0106398
0.00604788
0.00996747
0.00686555
0.00626903
0.00537414
0.0308173
0.022536
0.0438459
0.00573692
0.006104
0.00779146
0.00532061
0.0695971
0.0123767
0.0146487
0.00563306
0.00833732
0.00709129
0.0122598
0.00560212
0.0474145
0.0161884
0.00671162
0.0301661
0.0274999
0.0208006
0.0476017
0.0146584
0.00564624
0.021282
0.0534822
0.0111866
0.0278681
0.0119088
0.00556628
0.00551663
0.00566786
0.00531997
0.00562769
0.00789913
0.03609
0.00538083
0.00801628
0.0156753
0.0126418
0.00577586
0.00965387
0.0193289
0.00558764
0.0333223
0.0149401
0.0139371
0.0214122
0.00590969
0.0424407
0.0156254
0.0360788
0.0418098
0.0227957
0.0483195
0.00838017
0.00656409
0.00829158
0.0303852
0.00805072
0.00700734
0.0455648
0.00632771
0.0104466
0.0293414
0.046875
0.00990925
0.0103312
0.0372834
0.00562752
0.0447761
0.00526481
0.00627394
0.00899313
0.00582936
0.00645938
0.0119544
0.00545687
0.0664639
0.0356148
0.0125158
0.0122345
0.0552931
0.00687112
0.012898
0.00519989
0.00591534
0.0184849
0.00650189
0.00529382
0.0148483
0.0249046
0.00571143
0.0126681
0.0303016
0.00587846
0.00582075
0.00561208
0.0132948
0.00771534
0.0110227
0.0162022
0.0120283
0.0126607
0.00729584
0.0229753
0.00638268
0.00545347
0.00933754
0.00633499
0.0107345
0.00888853
0.0330653
0.0225722
0.00858699
0.00690869
0.00744927
0.00536665
0.00605012
0.00522269
0.00495434
0.228347
0.00979665
0.00523351
0.0425445
0.00646558
0.00659714
0.0429051
0.00599846
0.0055896
0.0120091
0.00543593
0.0055452
0.00539901
0.0213994
0.0106294
0.0283939
0.0103403
0.00570734
0.037901
0.0345728
0.0242227
0.00917495
0.0289515
0.00653678
0.00560408
0.00553768
0.00555918
0.0155939
0.0215841
0.00623951
0.00548556
0.00980796
0.0159472
0.00601654
0.00565077
0.00511596
0.0347933
0.00490354
0.0136989
0.0176312
0.0337989
0.0242535
0.0148202
0.00558747
0.0265587
0.0057574
0.00532125
0.00579182
0.00535019
0.0054969
0.00483012
0.00541004
0.00546429
0.00965958
0.00725168
0.00906782
0.033455
0.0280257
0.006077
0.00772353
0.0343288
0.00568911
0.0117025
0.00566136
0.00556469
0.00552015
0.00667082
0.014943
0.005412
0.122744
0.0130205
0.00550792
0.0701702
0.00579127
0.0326673
0.016131
0.00623599
0.0180071
0.0305135
0.00615002
0.00642988
0.00592898
0.0326654
0.0058596
0.0331502
0.0143217
0.0205659
0.0229364
0.0123311
0.00539722
0.021383
0.00615657
0.00570487
0.0104595
0.00538302
0.00534324
0.0098453
0.00503808
0.00570183
0.01897
0.00538532
0.0237924
0.034652
0.00605057
0.00847113
0.0248734
0.00545389
0.0110257
0.0169934
0.00813492
0.0521886
0.00538453
0.00583729
0.0101324
0.0388041
0.0254163
0.0126981
0.0246275
0.00737053
0.00788122
0.0120182
0.0520525
0.0101318
0.00528498
0.0091106
0.00565354
0.00567258
0.0281451
0.00617954
0.00535949
0.00994326
0.00693018
0.0346955
0.0099563
0.00630844
0.0049355
0.0205989
0.00599223
0.0145975
0.0105857
0.0440232
0.00971124
0.0157746
0.0306293
0.00911988
0.0301902
0.0059167
0.0111264
0.0053651
0.066382
0.00484072
0.0134968
0.0256741
0.0127115
0.00730422
0.0431534
0.00598199
0.00636938
0.0267932
0.06178
0.0268686
0.0052099
0.00629975
0.00556485
0.0120468
0.0281563
0.00656396
0.0412061
0.0112584
0.0055253
0.0088268
0.0260467
0.00642365
0.0450074
0.0158628
0.00587472
0.00533393
0.0400661
0.00618163
0.00858849
0.0245935
0.00527795
0.00608052
0.00459432
0.00860701
0.0134177
0.0242305
0.00550255
0.00606456
0.0441212
0.0310577
0.0235685
0.00526908
0.0135054
0.00570167
0.0276247
0.00515313
0.0334446
0.00729989
0.0159263
0.00537033
0.00548846
0.00654305
0.00731275
0.0417934
0.0362907
0.00669931
0.00753166
0.0417886
0.0345129
0.0057232
0.0057222
0.00582762
0.0117689
0.00747098
0.00474309
0.00564245
0.0225459
0.0161343
0.0207026
0.00646689
0.0156476
0.0355109
0.033588
0.00504656
0.0104513
0.0133729
0.00591284
0.00574487
0.0414603
0.00546588
0.00547179
0.0301711
0.0430526
0.0055834
0.00490216
0.0431456
0.059305
0.00520817
0.0122587
0.0457751
0.0198965
0.00510111
0.00489877
0.00554469
0.00713141
0.00537297
0.040795
0.035098
0.00545979
0.00545672
0.0125014
0.00627837
0.0272777
0.0249025
0.0268228
0.0076763
0.0566742
0.00583484
0.00668906
0.0134619
0.0234926
0.0485367
0.00539934
0.00479117
0.00915966
0.00522811
0.0113012
0.00545641
0.0280099
0.0237967
0.211008
0.0110013
0.00700567
0.0119854
0.0258059
0.0146939
0.00955114
0.00656949
0.0134102
0.00593586
0.00502934
0.0116072
0.0254662
0.039089
0.00583578
0.0416684
0.00944597
0.00890402
0.0153195
0.0431283
0.0067116
0.0216397
0.0563342
0.0469167
0.00775968
0.00511843
0.00807639
0.00795971
0.0162014
0.0109002
0.0535118
0.032955
0.0294593
0.0053271
0.0119697
0.00672916
0.0111935
0.0114613
0.00783956
0.0460399
0.00929308
0.0450593
0.00560562
0.0107434
0.0397229
0.00528461
0.0138302
0.00791709
0.0150459
0.0255198
0.0459836
0.00587684
0.0277835
0.00581532
0.00557854
0.00898163
0.0203745
0.0413061
0.00910004
0.0302104
0.00597921
0.00594848
0.0054942
0.0270082
0.00583546
0.00599566
0.0060579
0.00589134
0.0475271
0.0281494
0.00566652
0.0108457
0.0211302
0.00555018
0.00862409
0.00838827
0.0124022
0.0330099
0.132435
0.0290513
0.00611031
0.0055347
0.0088502
0.0424321
0.0334774
0.00627034
0.00958346
0.0201076
0.00536984
0.00583725
0.00570536
0.00550389
0.00522698
0.00570644
0.00700388
0.0103483
0.00980636
0.0103658
0.0181489
0.0213526
0.0052795
0.00808436
0.0349137
0.0251392
0.00495561
0.0337413
0.00627393
0.0129599
0.00536195
0.00657775
0.0101398
0.00502178
0.00531296
0.0052766
0.0247037
0.0283889
0.00570632
0.00519141
0.0451359
0.0156589
0.00889968
0.00551656
0.00715604
0.0569982
0.0118891
0.00765884
0.0167646
0.00510143
0.00931281
0.0491162
0.00854176
0.0410968
0.0140133
0.0552294
0.00586163
0.00588391
0.00516037
0.0476704
0.0252111
0.0156833
0.00567546
0.0280178
0.0272241
0.013873
0.00557056
0.0344341
0.0049129
0.0058896
0.0207392
0.0216979
0.0276762
0.00536135
0.00509272
0.00634823
0.00915014
0.0126442
0.0121572
0.0127866
0.0384781
0.0387915
0.0315645
0.0142918
0.00557203
0.0356254
0.057998
0.0268048
0.0423585
0.00633627
0.0405878
0.00543083
0.00568277
0.00663767
0.0205932
0.00601641
0.0343868
0.0222563
0.0053605
0.00554641
0.00918191
0.00989437
0.0054971
0.0460255
0.00788078
0.00601377
0.00570762
0.0139227
0.00601416
0.00498947
0.011754
0.0319655
0.0418111
0.0119345
0.00551503
0.0378144
0.0162216
0.00489158
0.0319059
0.0345841
0.0124901
0.0453076
0.0191407
0.0480389
0.0274053
0.0342126
0.0502023
0.0327179
0.0530129
0.0113126
0.0168067
0.00551303
0.0500615
0.00509142
0.00811129
0.00616839
0.00969604
0.00635755
0.0359762
0.00569745
0.0107202
0.0140719
0.0055012
0.00787046
0.0595928
0.00987614
0.0156206
0.0363324
0.0381899
0.00693506
0.0141118
0.0410114
0.0067179
0.00723087
0.00542821
0.00561224
0.027714
0.00940938
0.0156318
0.0113236
0.00702979
0.00686887
0.00558661
0.0139744
0.00592228
0.00764736
0.0107667
0.0114741
0.0111728
0.00928856
0.0149531
0.0055574
0.00784537
0.0441318
0.00689297
0.0484498
0.120131
0.0253821
0.00693877
0.00732285
0.00826267
0.00613369
0.0097887
0.0177811
0.0102658
0.0531654
0.0444384
0.0556913
0.0247731
0.025976
0.00512674
0.0274851
0.00979633
0.0404504
0.0374875
0.00532628
0.0250856
0.00616828
0.00830861
0.00585137
0.0330544
0.0284519
0.008575
0.0065327
0.0507969
0.00713229
0.0231998
0.01149
0.00529116
0.00615288
0.00539206
0.0124998
0.0129801
0.0156582
0.0202734
0.0332591
0.0282323
0.0384701
0.0107731
0.00542029
0.0181878
0.0231309
0.0123213
0.00590296
0.0061957
0.0248027
0.00724906
0.0408367
0.0206849
0.00637974
0.0274611
0.0164745
0.0134446
0.00913478
0.0115998
0.00664719
0.0139018
0.0123418
0.00566188
0.0106917
0.00569003
0.0449844
0.0461436
0.00841112
0.0117697
0.00647303
0.0109701
0.0128764
0.0503356
0.00774886
0.00798371
0.00686563
0.0144177
0.0304921
0.0239133
0.0293152
0.00874135
0.0214989
0.0116079
0.0456136
0.00939776
0.0297379
0.0169965
0.0056781
0.0246992
0.00605813
0.00610117
0.0323243
0.0402835
0.00951968
0.0696708
0.0063897
0.00575607
0.0156239
0.00672533
0.0186566
0.00950111
0.0366575
0.0111521
0.00870929
0.00523053
0.0567528
0.0057572
0.00842159
0.0167208
0.0075443
0.0341306
0.00595827
0.0362284
0.00656246
0.00883464
0.00696289
0.00733531
0.0300141
0.0448225
0.00676118
0.0052377
0.0308803
0.0112768
0.0367293
0.00810254
0.0232392
0.0496724
0.0132932
0.00669386
0.0152066
0.00526754
0.00988849
0.00672008
0.0376217
0.00545486
0.0344213
0.0175293
0.00548292
0.00553931
0.00871677
0.0464899
0.0276807
0.00584976
0.00566601
0.00702727
0.00632396
0.00639006
0.0650919
0.00686179
0.00719699
0.00796652
0.0261941
0.00790736
0.00546114
0.00813929
0.00542973
0.00594151
0.0238777
0.00600962
0.028462
0.00641396
0.0136311
0.00797729
0.00619542
0.00518933
0.00553822
0.0336837
0.00518037
0.0249611
0.0401033
0.0083201
0.0264636
0.00613128
0.0483895
0.0257372
0.0265256
0.0167187
0.00872632
0.036908
0.0365768
0.00715672
0.0137818
0.00521715
0.012142
0.0451892
0.0152721
0.0311513
0.0105768
0.00655447
0.0253661
0.0066831
0.00522089
0.005715
0.00576408
0.00516802
0.00572581
0.00512742
0.00622992
0.0237484
0.0523042
0.00670571
0.054097
0.00878604
0.00900299
0.0161868
0.00538047
0.00811228
0.0319634
0.00530082
0.0298043
0.0129628
0.0219864
0.00741421
0.00517845
0.0167056
0.0113832
0.0297559
0.00864176
0.00902046
0.0149991
0.0070113
0.0573049
0.0402821
0.00484558
0.00846932
0.00552782
0.0120186
0.0651015
0.0054598
0.02137
0.00503845
0.00621238
0.0354686
0.0059334
0.00520664
0.0342285
0.024524
0.00528091
0.0127293
0.0441798
0.00570381
0.0252089
0.0438641
0.0136313
0.00527366
0.00538108
0.0069466
0.00571221
0.00653162
0.00537918
0.0100985
0.0115303
0.0052415
0.00655389
0.0513549
0.0328048
0.00886146
0.00558468
0.00949428
0.0458778
0.0401556
0.006527
0.0291136
0.00627265
0.00564209
0.00529218
0.0288937
0.0169706
0.00544816
0.0104231
0.00658898
0.00694468
0.0240652
0.0358503
0.0054886
0.0400093
0.0196781
0.0350082
0.0294183
0.00544594
0.00558976
0.00659739
0.0112969
0.0138664
0.0142572
0.00542718
0.00657321
0.0257567
0.00479447
0.0060186
0.00589271
0.0417626
0.00866564
0.0423174
0.0142969
0.0282672
0.00580293
0.00671218
0.0117444
0.0362641
0.0160049
0.0213722
0.0552401
0.00609033
0.0434337
0.0244966
0.00544606
0.00554727
0.00536866
0.0324763
0.0110588
0.0268586
0.00543902
0.00600447
0.00536619
0.005391
0.0299598
0.00647716
0.00964677
0.00550548
0.00537572
0.00544104
0.00569438
0.00546396
0.0500769
0.0316589
0.00985641
0.00526321
0.00662871
0.030605
0.00534291
0.0231656
0.00873508
0.00686239
0.015521
0.0223492
0.0234
0.0548822
0.0059387
0.00639013
0.0244346
0.00915685
0.0517172
0.00627178
0.00475062
0.0463448
0.00913251
0.00796937
0.00553049
0.0918327
0.0541048
0.0372339
0.0201664
0.0224051
0.0436854
0.0367999
0.0513421
0.0158658
0.00570616
0.00766222
0.00612593
0.00861252
0.0468679
0.0056566
0.00974295
0.0568935
0.0557363
0.0373723
0.0147862
0.0293136
0.00598773
0.0150147
0.00546812
0.00866178
0.02957
0.0153226
0.00609604
0.00533994
0.00631407
0.00552588
0.00563312
0.0270603
0.0110721
0.00610601
0.00576667
0.0619194
0.0138285
0.0112656
0.00823215
0.00964513
0.00524496
0.0238628
0.037456
0.0479734
0.0125976
0.00525652
0.00484231
0.00613735
0.0216852
0.0109399
0.0277306
0.0126093
0.00567546
0.029533
0.0224699
0.00541258
0.0065582
0.00604049
0.00553845
0.0148444
0.0198172
0.00627913
0.0120468
0.00884402
0.00697797
0.00788674
0.00573202
0.0165609
0.0067595
0.0505623
0.0388215
0.0555209
0.0136134
0.00951791
0.012105
0.0291284
0.00605522
0.0284644
0.0236779
0.0494024
0.0092143
0.00486446
0.00541868
0.0488652
0.0229971
0.0285379
0.0422119
0.0239481
0.00497166
0.00490582
0.0370962
0.0322541
0.0243285
0.00566002
0.00483348
0.0067799
0.0136086
0.00593074
0.00651158
0.0129572
0.0332816
0.00500135
0.00694746
0.0066825
0.00894469
0.00636801
0.00518045
0.0183091
0.0089999
0.0197914
0.00981839
0.00528056
0.00502786
0.0583678
0.00558465
0.0427674
0.0055375
0.00619694
0.00549655
0.00572773
0.025484
0.0452687
0.0253925
0.00578022
0.00519269
0.00835198
0.00518526
0.0408325
0.0143141
0.00561592
0.00521648
0.010536
0.0298472
0.0152638
0.0104503
0.00517712
0.00580822
0.0057121
0.00482255
0.00591307
0.00635936
0.0149867
0.00539004
0.00555314
0.00657785
0.0148997
0.0339047
0.0457952
0.0182124
0.0112866
0.00499491
0.00502203
0.0389956
0.0106449
0.00705539
0.0075187
0.0133796
0.00551438
0.00657961
0.00804148
0.00489899
0.0121089
0.00751601
0.0263499
0.0105411
0.00666162
0.0437227
0.00823019
0.00612466
0.00748476
0.00544681
0.00497564
0.0440576
0.00547391
0.0160178
0.00502565
0.0182474
0.00519639
0.00783993
0.0139912
0.00866736
0.0446711
0.00818113
0.0287324
0.0321523
0.00638228
0.0406353
0.00556176
0.00573954
0.00506731
0.0276058
0.0123275
0.0460488
0.00760682
0.0329861
0.0130607
0.00587288
0.00501525
0.00521258
0.00646966
0.00611308
0.00550712
0.00644096
0.00585826
0.00609864
0.0284922
0.0129022
0.00507329
0.0049595
0.0231364
0.00622662
0.00547549
0.00509104
0.0441825
0.00755357
0.0445692
0.00499383
0.0377725
0.0324852
0.00984912
0.00755361
0.00717766
0.00967509
0.0348179
0.00576345
0.0352552
0.0353228
0.00610264
0.026593
0.0159192
0.00785185
0.00567121
0.0476578
0.0229422
0.0354104
0.00551047
0.00592044
0.0210998
0.00570588
0.0140765
0.0218483
0.00615549
0.0315215
0.00748403
0.00645913
0.0056205
0.00524545
0.00533065
0.00486604
0.00892553
0.00469335
0.00608482
0.0056239
0.0112305
0.0129285
0.00491316
0.0173506
0.00635212
0.00645711
0.00604438
0.00691548
0.00503766
0.00732189
0.0318781
0.00591619
0.00506356
0.0230116
0.0088165
0.0052025
0.106865
0.00609775
0.00567397
0.0136293
0.0082334
0.0262695
0.00989888
0.00480873
0.00627485
0.0133873
0.0244704
0.0225244
0.00814785
0.0300097
0.033877
0.0387703
0.00684578
0.00495037
0.00490578
0.00754387
0.00625754
0.00699757
0.0221548
0.0109444
0.00506221
0.00491473
0.00504902
0.00515633
0.0409424
0.0597424
0.051701
0.0197281
0.00651114
0.00554668
0.00516353
0.0149372
0.00615238
0.00559753
0.0478267
0.00559708
0.00600455
0.00507195
0.00562115
0.018753
0.0258034
0.00897141
0.027111
0.00566518
0.00658098
0.0128392
0.00628124
0.0134828
0.0214411
0.0121408
0.00527121
0.0152868
0.00843422
0.0054149
0.0194498
0.0306427
0.00558176
0.00535926
0.0243891
0.0320005
0.014153
0.0383909
0.00510901
0.00976599
0.0253721
0.00510899
0.00536875
0.00509254
0.00825337
0.00586852
0.00589034
0.00602135
0.00685943
0.0153159
0.00665675
0.0193752
0.017377
0.0257682
0.00532706
0.00993978
0.00605663
0.00721909
0.0137673
0.0119344
0.0477331
0.0120566
0.0484935
0.0139303
0.00694771
0.00565449
0.00514623
0.00578703
0.0343775
0.0275576
0.00563664
0.0171345
0.0205423
0.00815929
0.0292586
0.00487009
0.00634713
0.00543201
0.00973675
0.00549577
0.00905953
0.00624674
0.0322949
0.00564904
0.0350636
0.0363967
0.0210745
0.0072631
0.00931929
0.0054557
0.0358954
0.00764096
0.00622419
0.0121732
0.0164733
0.0147257
0.0312928
0.0228001
0.0308561
0.0208915
0.00476311
0.0259692
0.00612552
0.0226613
0.0510731
0.0135748
0.0295284
0.0608452
0.0462395
0.00730323
0.00975958
0.00573425
0.0209792
0.00527841
0.0337997
0.0102403
0.0227784
0.00645674
0.0054719
0.0505735
0.007675
0.00605376
0.00615845
0.00779675
0.00776581
0.00574522
0.00575772
0.00574888
0.00680712
0.0329947
0.0146123
0.0272895
0.00580981
0.0418949
0.0148062
0.00582163
0.0186675
0.0109113
0.050055
0.01031
0.0118579
0.00497481
0.00873318
0.00522182
0.00724548
0.00512864
0.00720596
0.00479674
0.0252748
0.0257513
0.0057222
0.00599362
0.00721836
0.00608905
0.00553759
0.006742
0.00628837
0.0350233
0.00587392
0.0053138
0.0356714
0.00842603
0.0353898
0.00785497
0.0201013
0.0282713
0.00555512
0.030784
0.0345361
0.0464805
0.038775
0.0337228
0.005123
0.0107691
0.00501799
0.00749862
0.0227756
0.00577698
0.0053075
0.00541684
0.0472584
0.00624569
0.0104691
0.00961396
0.00608165
0.0385798
0.0366195
0.00625021
0.0328923
0.00521998
0.0275153
0.00875723
0.0197917
0.00501271
0.00522475
0.00571618
0.0299553
0.0455723
0.0332524
0.00560321
0.022963
0.0601927
0.00980508
0.013457
0.0379696
0.0128404
0.0230619
0.00784487
0.00617624
0.00529801
0.00657785
0.0977207
0.0108854
0.0449782
0.00512571
0.0061935
0.00878654
0.00594744
0.0141637
0.0104644
0.0459909
0.00657797
0.0122957
0.005411
0.00537633
0.0237137
0.0550233
0.00502403
0.00556504
0.00540967
0.0205555
0.00718693
0.0453357
0.0312717
0.0283292
0.00546953
0.0377526
0.0101642
0.0526199
0.0268713
0.00677284
0.0262126
0.0335133
0.0349969
0.00617948
0.00629216
0.00559869
0.0253602
0.00805088
0.00494425
0.00897215
0.00923644
0.00659715
0.00548186
0.00547649
0.0454611
0.00622626
0.0140065
0.0197595
0.0281002
0.00525684
0.00529025
0.012797
0.0067499
0.0548239
0.00990541
0.00822922
0.0503145
0.00538499
0.00551791
0.00656354
0.0234218
0.00515527
0.0256017
0.0049137
0.0230519
0.0471397
0.00518995
0.00532974
0.0209387
0.00628558
0.00538144
0.0051498
0.00504812
0.0238212
0.0367322
0.00545994
0.00651547
0.00642829
0.00585123
0.0262108
0.00730835
0.024117
0.020752
0.00540513
0.00577357
0.0120556
0.00644921
0.0093508
0.0319837
0.0658363
0.00513677
0.00600548
0.0262109
0.0384852
0.0152197
0.00656041
0.00682643
0.0473281
0.0140789
0.00596399
0.00527735
0.00561438
0.00615774
0.0100396
0.00528742
0.00580363
0.00547544
0.014712
0.0354806
0.0462667
0.00921835
0.0110597
0.00639844
0.00582745
0.00541742
0.00546257
0.00530759
0.00575188
0.0057714
0.00548314
0.0120677
0.00588856
0.00611671
0.0133405
0.00580609
0.0129737
0.0360536
0.0087058
0.00731006
0.00757069
0.00827973
0.0075744
0.0140703
0.0258735
0.00634649
0.00626575
0.00677413
0.00921443
0.0410032
0.00775001
0.011794
0.0443689
0.00715504
0.0357728
0.00885908
0.00594159
0.00650691
0.00719714
0.010306
0.0316535
0.0421429
0.0667976
0.00546321
0.0263998
0.0057396
0.00571349
0.0288952
0.00531043
0.0129668
0.00509833
0.00929635
0.00877667
0.017786
0.0049213
0.0048844
0.0549658
0.00590007
0.032404
0.0559903
0.00748727
0.020812
0.00514729
0.00531741
0.0053158
0.0117217
0.0158905
0.00653054
0.00539923
0.00645747
0.0243699
0.0412314
0.00911041
0.00604175
0.0102275
0.00543946
0.0155426
0.0128134
0.0053765
0.00511812
0.00529422
0.0139868
0.0109139
0.0150138
0.00754868
0.00646789
0.0102464
0.0116734
0.0328047
0.00612621
0.0065452
0.00569227
0.00577018
0.0063217
0.00507434
0.0310445
0.00844687
0.0171537
0.0245195
0.00576341
0.0165831
0.00506592
0.00530163
0.00631923
0.0454094
0.0122461
0.00667659
0.00504261
0.0223119
0.0059105
0.0166663
0.00760765
0.0159866
0.0102293
0.00573622
0.00515534
0.056685
0.00701163
0.00498896
0.00586364
0.0135241
0.00602329
0.00566926
0.132347
0.0048392
0.028613
0.00626435
0.0051526
0.00535868
0.0097227
0.0132386
0.0176579
0.0226639
0.0328079
0.00509963
0.00499743
0.0887641
0.0305629
0.0063578
0.00699733
0.024855
0.0113293
0.0065368
0.00688926
0.00655868
0.0488339
0.00555674
0.0208426
0.0285607
0.00526584
0.0243018
0.0150526
0.0421283
0.027784
0.0154497
0.0247809
0.00880157
0.0238642
0.0100464
0.0342602
0.0443184
0.00854301
0.0366524
0.0222282
0.00645897
0.0386699
0.00636314
0.0235115
0.0193193
0.0247736
0.00507581
0.0378019
0.034949
0.0077284
0.00657207
0.00838808
0.0269781
0.00772245
0.0148541
0.00840167
0.0203925
0.0123013
0.0050929
0.0127516
0.00512926
0.00739264
0.00742179
0.00520459
0.0577149
0.00817844
0.00938083
0.00589347
0.0396164
0.0091112
0.0578519
0.0125312
0.0129833
0.0055734
0.00611586
0.00988047
0.00620782
0.0206855
0.00546001
0.00558583
0.0162111
0.00489289
0.0201371
0.00570892
0.00764822
0.0220029
0.0150544
0.0200442
0.00516088
0.00670675
0.0215058
0.00761469
0.00903014
0.0500019
0.00545533
0.0462269
0.0280235
0.0101527
0.0062037
0.00693941
0.0244296
0.00525061
0.0056112
0.0119511
0.0233856
0.014941
0.0356236
0.00662959
0.0141903
0.00749434
0.0138813
0.00552442
0.00698322
0.0325205
0.00760639
0.0054769
0.0137354
0.0578679
0.0201111
0.00662631
0.0243653
0.0144101
0.0227893
0.00706585
0.0143992
0.0265712
0.0259233
0.00515382
0.0446661
0.00613672
0.0387028
0.0050886
0.0122645
0.00586276
0.033686
0.00678447
0.00490059
0.00570408
0.00530201
0.012742
0.0510845
0.0505717
0.0313218
0.057602
0.00626323
0.0331944
0.00503827
0.00592098
0.00829093
0.0058861
0.0427305
0.0224035
0.0248788
0.00593064
0.036627
0.00656805
0.0125272
0.00699533
0.0216765
0.0328718
0.0384569
0.00593321
0.0245361
0.00516755
0.00828135
0.00835531
0.0247622
0.0247485
0.00879081
0.0122528
0.0281923
0.00556798
0.00612911
0.0159468
0.0126055
0.00656982
0.00536465
0.00604609
0.00526639
0.00565785
0.0118416
0.0152945
0.00577121
0.0587379
0.0374798
0.00814322
0.00596121
0.00522411
0.0389282
0.027459
0.00507776
0.012444
0.0049462
0.0311105
0.00504514
0.00492004
0.00624115
0.0224211
0.0154074
0.0409703
0.0453192
0.00912237
0.0487599
0.00813477
0.0173176
0.00810634
0.00762593
0.0055891
0.0418385
0.0643029
0.00516511
0.00788357
0.0339666
0.00543725
0.00618273
0.0345453
0.0478096
0.0513571
0.0287393
0.0173373
0.0462255
0.0147675
0.00520853
0.0333434
0.048393
0.00850144
0.00597137
0.00552853
0.00669084
0.0128014
0.0612776
0.00515458
0.0314315
0.0055904
0.0271566
0.0115343
0.00831861
0.0111905
0.00978811
0.0359047
0.0053949
0.0105187
0.00518125
0.0444659
0.00894826
0.0252393
0.0119326
0.0195931
0.0408595
0.0103887
0.0107877
0.00931171
0.0172446
0.00605134
0.0262504
0.0338373
0.0268904
0.00751308
0.00989944
0.00768943
0.0340984
0.0100785
0.0423185
0.062132
0.00671846
0.00492465
0.0252698
0.032413
0.0136445
0.00551906
0.00906902
0.00598486
0.00844171
0.00718188
0.0055727
0.00677399
0.00510665
0.024414
0.0475112
0.00833605
0.00547553
0.00528517
0.0137407
0.056618
0.0128691
0.00538861
0.023524
0.0118434
0.00900077
0.0122549
0.005099
0.00572648
0.00529785
0.0374229
0.008137
0.00589111
0.0067108
0.00496357
0.00976428
0.0245929
0.00558619
0.0132405
0.0489763
0.00493427