/*--------------------------------*- C++ -*----------------------------------*\
| =========                 |                                                 |
| \\      /  F ield         | OpenFOAM: The Open Source CFD Toolbox           |
|  \\    /   O peration     | Version:  2406                                  |
|   \\  /    A nd           | Website:  www.openfoam.com                      |
|    \\/     M anipulation  |                                                 |
\*---------------------------------------------------------------------------*/
FoamFile
{
    version     2.0;
    format      ascii;
    arch        "LSB;label=32;scalar=64";
    class       volScalarField;
    location    "42";
    object      k;
}
// * * * * * * * * * * * * * * * * * * * * * * * * * * * * * * * * * * * * * //

dimensions      [0 2 -2 0 0 0 0];

internalField   nonuniform List<scalar> 
59516
(
0.000703558
0.00113755
0.000432516
0.000907451
0.0075913
0.0173746
0.00055304
0.000756646
0.000475237
0.00329953
0.00383395
0.00282014
0.000556364
0.00761995
0.00275676
0.00285439
0.00167018
0.00425437
0.00105016
0.00117206
0.00466289
0.000652443
0.000786496
0.00452004
0.000634221
0.00243202
0.00439438
0.0056821
0.00304473
0.0064104
0.00703116
0.00531608
0.000492123
0.000898348
0.00117518
0.000586767
0.00622292
0.00426667
0.001314
0.000859488
0.000680015
0.00281605
0.00107246
0.00103722
0.000701559
0.00292027
0.000718105
0.00207981
0.00760706
0.00187823
0.00901691
0.00399247
0.000380528
0.000504408
0.00430046
0.000723466
0.00350663
0.00430514
0.00168584
0.00131226
0.000909873
0.00599664
0.00163842
0.00158682
0.000732425
0.0010669
0.00742715
0.00395834
0.0061681
0.000495455
0.00578445
0.00137261
0.00633034
0.000769703
0.00209508
0.0012457
0.0019049
0.000820659
0.00379634
0.00185386
0.00434136
0.00137111
0.00101605
0.00630799
0.00139467
0.00189894
0.00435111
0.000623995
0.00276237
0.00243533
0.00543712
0.00101043
0.00146434
0.000830974
0.0014789
0.00780764
0.000878953
0.00286434
0.00341054
0.000880696
0.00438112
0.00632738
0.00618558
0.00276103
0.000568945
0.00127592
0.00449668
0.000492384
0.000888683
0.00255401
0.00467671
0.00518065
0.00281626
0.00455128
0.00103179
0.000825253
0.00270655
0.000728856
0.00591525
0.000839267
0.00249104
0.00173086
0.000861428
0.00165246
0.00402632
0.00151263
0.00667
0.00253463
0.0105283
0.00192774
0.00223739
0.000531943
0.005933
0.000552539
0.000990356
0.000404101
0.00446105
0.000301819
0.00421349
0.00123282
0.00388519
0.00204519
0.00627867
0.000626141
0.00211402
0.000699963
0.000682509
0.000660182
0.0198362
0.000660513
0.00110025
0.00419833
0.000968775
0.000825917
0.00105922
0.00673334
0.000752556
0.000491348
0.00133724
0.00634924
0.00263977
0.00249453
0.00452621
0.00752082
0.000822544
0.00159558
0.00255446
0.00191643
0.00612688
0.0011363
0.00125039
0.00294199
0.00199048
0.000526786
0.00349503
0.000820467
0.00166241
0.00127867
0.00244125
0.00407084
0.000605805
0.00488737
0.00754899
0.00227796
0.00185961
0.00272805
0.00404553
0.0063575
0.000461845
0.000904787
0.000962531
0.00293972
0.00128525
0.00224448
0.000655851
0.0044813
0.00272216
0.00393285
0.00102245
0.000718293
0.001814
0.00242037
0.000738997
0.00629515
0.000471247
0.000691825
0.00209543
0.0014052
0.0065949
0.000779863
0.00333934
0.00755271
0.000710182
0.00294438
0.000612733
0.00133428
0.00066249
0.000631247
0.00301166
0.000909876
0.00305791
0.00115748
0.00148835
0.00435917
0.00159613
0.00174173
0.00539133
0.00376062
0.00163896
0.00288506
0.0014486
0.00176157
0.00244397
0.00560571
0.00448356
0.00398969
0.00238949
0.000639721
0.00112941
0.00320001
0.00224793
0.00647368
0.00270277
0.00652559
0.00212669
0.000985557
0.000928113
0.00256577
0.00116731
0.000646595
0.00103874
0.000814999
0.00243489
0.000945271
0.000771168
0.000993008
0.00307947
0.00101927
0.0038558
0.00270849
0.000470374
0.00121454
0.000691366
0.0016266
0.000681888
0.00263041
0.00124767
0.00106382
0.00398164
0.00280997
0.00121621
0.00170049
0.000711866
0.00115011
0.00126057
0.000984407
0.00561647
0.00100504
0.00552285
0.0039499
0.0023298
0.000655135
0.00605337
0.000626074
0.000524098
0.0017022
0.00205865
0.0062992
0.00233018
0.00277983
0.00185856
0.000672742
0.000838232
0.00102196
0.0013445
0.00522023
0.00131413
0.00050562
0.00253735
0.00175931
0.000411686
0.00251232
0.00600984
0.00482876
0.0007966
0.00640985
0.00289155
0.00328155
0.00139001
0.00136319
0.000608476
0.00257381
0.000907231
0.00445169
0.00309693
0.00135082
0.000960617
0.00822836
0.00132543
0.00395189
0.00276876
0.000879399
0.00181237
0.0023082
0.00251207
0.000946377
0.00180247
0.000663674
0.00161303
0.00117696
0.000952193
0.00261422
0.00615076
0.000901686
0.00367273
0.00438524
0.00125738
0.000619232
0.00308
0.00180559
0.000996597
0.00222365
0.00177111
0.00407244
0.00100195
0.00221998
0.00283279
0.00232362
0.00203345
0.000716926
0.000715526
0.00103099
0.000568094
0.0017005
0.0046982
0.00424947
0.00108369
0.00604161
0.0111287
0.00141593
0.00073916
0.000707016
0.00330511
0.000772433
0.000536762
0.000900288
0.00101882
0.00446097
0.00682538
0.00305029
0.00394942
0.00422071
0.00131434
0.00112821
0.00114299
0.00595302
0.000617536
0.00418281
0.00150369
0.00285419
0.00252596
0.000531469
0.00408977
0.00645716
0.00277568
0.000678656
0.00584445
0.00137453
0.000706061
0.000429251
0.00120126
0.00118311
0.00113963
0.0064986
0.00229246
0.00354812
0.00261123
0.00261288
0.00205614
0.00184393
0.00274401
0.000396426
0.000848877
0.00213678
0.00203715
0.00370523
0.000704069
0.000708463
0.00070182
0.000903547
0.00615804
0.00593865
0.000430697
0.00177744
0.00224146
0.00433368
0.00175541
0.000554681
0.002264
0.00192931
0.00220107
0.0018299
0.00173502
0.000865678
0.00219874
0.00254151
0.00151555
0.000820798
0.00108443
0.00200283
0.00063976
0.000900006
0.00382454
0.00453332
0.00597918
0.00286353
0.00200611
0.000848902
0.000423148
0.00429023
0.00635141
0.000703085
0.00114626
0.00196574
0.000895453
0.000514668
0.00244055
0.000511336
0.00565263
0.000611282
0.00266477
0.0118227
0.00123041
0.00103392
0.000855157
0.00640878
0.00206398
0.00219144
0.0021843
0.000906366
0.00111538
0.00190384
0.000880028
0.00250953
0.00134957
0.00161587
0.000689034
0.00592252
0.0019637
0.000662621
0.00370907
0.000807314
0.00146711
0.00058707
0.00141357
0.0059784
0.00153805
0.000459972
0.00103356
0.000594263
0.00395218
0.000751256
0.0072547
0.00144196
0.00951644
0.00168354
0.00375011
0.000711361
0.000811403
0.00372564
0.00263075
0.00220241
0.00665158
0.00135756
0.00266202
0.00440804
0.00257128
0.00258615
0.00111709
0.00237217
0.0098852
0.00275886
0.00265625
0.000561633
0.00244494
0.00585233
0.000875698
0.000906988
0.00216686
0.0136551
0.00121161
0.00554928
0.00125885
0.00636687
0.00244891
0.000850273
0.00258163
0.00618399
0.00451593
0.00347019
0.00287462
0.000481024
0.00296821
0.00236974
0.00484017
0.00193484
0.00548169
0.000623448
0.00626155
0.00162797
0.00295287
0.00181851
0.00308954
0.000779394
0.00212261
0.0032514
0.00158068
0.00626129
0.00651244
0.000680501
0.00223204
0.000655364
0.000588174
0.00200206
0.00298087
0.00131896
0.00255833
0.00195761
0.000586667
0.00547393
0.000752109
0.00379069
0.00551678
0.000629272
0.00385177
0.000754211
0.00238059
0.000718039
0.00262017
0.0018732
0.0012177
0.00195004
0.00172147
0.00219623
0.00223598
0.00380619
0.00301196
0.0019001
0.00101151
0.00481775
0.00132476
0.00160382
0.00157708
0.00195709
0.000393881
0.00624899
0.00137881
0.00107452
0.00112536
0.000768016
0.00536864
0.00249761
0.0012409
0.000436345
0.0022581
0.000652857
0.00606763
0.00592898
0.00213694
0.00169229
0.00261546
0.00134162
0.00111882
0.000860211
0.00196332
0.00557142
0.0023607
0.00317547
0.00441629
0.00243366
0.000503089
0.000662296
0.00061376
0.000446345
0.000707401
0.00251725
0.00122514
0.00168257
0.00162157
0.00193079
0.00190647
0.00427229
0.00128779
0.00460107
0.0101801
0.00245947
0.0055322
0.000637109
0.00460583
0.00193902
0.00128688
0.000861324
0.00179502
0.00430993
0.00959945
0.00730679
0.00220481
0.000453922
0.00299555
0.00302342
0.000641227
0.00397251
0.00252716
0.00505775
0.00664533
0.00588535
0.0014798
0.000863305
0.00678511
0.00616675
0.00272466
0.0080875
0.00443667
0.000768886
0.000504907
0.000613075
0.00455003
0.0028331
0.0005756
0.00169809
0.000946524
0.00451321
0.00558862
0.010085
0.00608358
0.000631543
0.00577179
0.000894441
0.00216922
0.00128477
0.00384602
0.000955399
0.00417152
0.00610793
0.00207587
0.00618815
0.00156507
0.00383831
0.00107004
0.000735119
0.00615769
0.00281367
0.000753801
0.00413627
0.00144783
0.00308329
0.00058263
0.0023252
0.00424142
0.00597784
0.00372632
0.00783406
0.000724332
0.00292477
0.00110102
0.00469157
0.00241843
0.00544984
0.00112021
0.000362836
0.00151513
0.00633226
0.000620233
0.00124953
0.00104746
0.00319149
0.00837335
0.000761657
0.0039461
0.00259183
0.00801529
0.000394221
0.00452154
0.00372535
0.0023448
0.000438462
0.00437829
0.000496078
0.00260063
0.0058586
0.00209003
0.00908746
0.000407698
0.00177374
0.00202218
0.0015892
0.000512653
0.00367544
0.00406325
0.00203705
0.00850822
0.000454779
0.000591428
0.00150773
0.000689662
0.00141865
0.0009421
0.000650458
0.00500936
0.00224814
0.00471599
0.000931422
0.00161042
0.00105368
0.000741757
0.00614874
0.00145738
0.00306158
0.00187827
0.00197155
0.00887205
0.00134736
0.00122236
0.00955247
0.000768883
0.00671505
0.00201294
0.00305629
0.000619287
0.00647764
0.00146224
0.00949894
0.00106081
0.000512918
0.00090062
0.000709203
0.00226388
0.00419239
0.00381674
0.0045111
0.00215357
0.00115837
0.000780234
0.000767378
0.00694362
0.00124523
0.00123534
0.00200005
0.000604743
0.000989165
0.00116232
0.00242663
0.00603231
0.00111569
0.00126222
0.00547106
0.00358647
0.00248155
0.00604735
0.00148253
0.00145347
0.00252066
0.00621451
0.000659518
0.0050927
0.00066445
0.00189563
0.00268523
0.00188408
0.000964402
0.00206165
0.000605833
0.00423101
0.00183191
0.000536931
0.00113167
0.00134024
0.00144927
0.000517932
0.00217669
0.000716353
0.00431354
0.00114459
0.00100045
0.00265719
0.000970131
0.0072854
0.00193977
0.00444433
0.00633622
0.00255523
0.00621508
0.000575274
0.00112589
0.00059672
0.00352289
0.000806987
0.00105083
0.00642713
0.00123467
0.00568991
0.00374203
0.00627257
0.000521874
0.00061142
0.00574638
0.00109814
0.00611664
0.00173733
0.00111823
0.000751759
0.000775332
0.000984453
0.000942504
0.00214894
0.00679686
0.00438806
0.000834494
0.000797266
0.00633953
0.000717618
0.00435838
0.00174214
0.00175834
0.00154829
0.00115634
0.00253944
0.00124094
0.00387842
0.00171475
0.000741811
0.00441239
0.00124624
0.00222725
0.000716315
0.000958667
0.000466379
0.000618335
0.00130456
0.000724786
0.00105704
0.000447563
0.00241116
0.00152165
0.00198733
0.00880971
0.000405327
0.00079804
0.000743668
0.0044995
0.00333178
0.0006115
0.000645232
0.000558661
0.00255863
0.000757028
0.00230692
0.00197062
0.0173262
0.000767707
0.00197283
0.00604259
0.00050571
0.00100885
0.0048342
0.00105505
0.00215483
0.000848467
0.0020023
0.00259302
0.00190955
0.00255991
0.00922563
0.00423149
0.000570295
0.00193954
0.0059143
0.00368622
0.00271205
0.000728088
0.00371018
0.00106845
0.00180318
0.00165872
0.000836716
0.00134508
0.00363208
0.00114361
0.00123825
0.000647806
0.00138012
0.000924938
0.00243964
0.0020901
0.00462634
0.0017158
0.00106996
0.0015245
0.00464029
0.00274838
0.000993918
0.0020188
0.00341576
0.00167336
0.00138845
0.00160842
0.00215771
0.0014661
0.0016544
0.00178422
0.00242417
0.00867938
0.000558899
0.000727864
0.00452644
0.00303093
0.00143089
0.000331407
0.00461979
0.00147616
0.000725654
0.00285925
0.0028385
0.00239811
0.000847456
0.0010529
0.00217436
0.0151145
0.000930457
0.00230925
0.00742289
0.00234856
0.00423197
0.00119818
0.00162532
0.00221411
0.00412914
0.00177957
0.00137173
0.000576623
0.00407757
0.00215015
0.00418257
0.0011265
0.00231414
0.00236631
0.000956613
0.00250044
0.00263518
0.00103619
0.00148892
0.00064611
0.0023818
0.0025113
0.000493553
0.00218707
0.00189653
0.00251493
0.00237145
0.00353968
0.00447355
0.00189704
0.00218114
0.00534845
0.00213464
0.000692247
0.00113104
0.00321071
0.00673946
0.00151704
0.00231188
0.000520201
0.00622813
0.00426679
0.000996373
0.00366539
0.000701127
0.000719603
0.000932811
0.00614388
0.000511409
0.00132743
0.00250718
0.00275923
0.00227275
0.00271234
0.00135643
0.00219573
0.000569666
0.00085658
0.00442083
0.000701426
0.00125158
0.00211052
0.00225869
0.0012891
0.00114289
0.000685092
0.00596831
0.000769543
0.00117939
0.0041413
0.000574339
0.00433483
0.00120923
0.000767032
0.00201411
0.00776515
0.00202465
0.00114641
0.0026337
0.00100056
0.00084251
0.00588168
0.00137554
0.000994161
0.00270066
0.00735387
0.00408326
0.00230915
0.000705345
0.00191408
0.00114591
0.00269728
0.000916431
0.0044308
0.000743765
0.00229226
0.00128268
0.00293699
0.000581335
0.00647333
0.00126369
0.00076873
0.00235586
0.00490365
0.00101279
0.000494229
0.00488978
0.00117436
0.00129061
0.00179562
0.00121704
0.000942722
0.00494924
0.00140361
0.000565946
0.00639187
0.0040446
0.00362593
0.00156917
0.00114481
0.00128598
0.00284944
0.00147695
0.00532931
0.000552691
0.00161899
0.00118219
0.00224517
0.000381091
0.000738203
0.00464194
0.00450664
0.000909235
0.000627235
0.0059512
0.0059928
0.00143468
0.000554221
0.00124716
0.000691461
0.000715651
0.000746494
0.00166844
0.00275699
0.00170303
0.00244022
0.000755827
0.00125348
0.00449811
0.00587714
0.00160056
0.000558665
0.000750092
0.00138962
0.00122345
0.00443861
0.00144162
0.00194024
0.00443176
0.00642494
0.00180239
0.0017984
0.00506526
0.00645071
0.0017687
0.000918578
0.00649332
0.00155409
0.00176828
0.00120089
0.00189892
0.000637948
0.00103609
0.0058297
0.00399151
0.00211443
0.00152941
0.000629486
0.00114447
0.00280934
0.00286083
0.00380439
0.00117403
0.00702812
0.000650471
0.000508533
0.000946609
0.00291106
0.00642077
0.00239355
0.00164852
0.000433511
0.00193764
0.000689487
0.000572912
0.00418622
0.00317823
0.0173345
0.000678971
0.000796634
0.000633782
0.00267538
0.00129163
0.000463694
0.00059789
0.00110731
0.000766913
0.00130591
0.000863497
0.00288634
0.0062043
0.00140969
0.00468927
0.000630237
0.000676408
0.0012745
0.00584477
0.000869316
0.00244087
0.00619057
0.00608498
0.000684954
0.00187055
0.000678111
0.000757999
0.00130653
0.000771952
0.00572562
0.00417321
0.00432567
0.00244302
0.000703583
0.000809384
0.000764261
0.000668514
0.000653774
0.00691238
0.000648836
0.00589076
0.00128468
0.000725722
0.00560417
0.00221145
0.000859289
0.00058648
0.00104777
0.00236637
0.00459922
0.000839677
0.00415775
0.0026596
0.00281132
0.000818812
0.00190497
0.00463705
0.00289684
0.00423473
0.0016468
0.00158136
0.00179288
0.00327852
0.00131809
0.00150924
0.00117012
0.00131245
0.00486171
0.00414158
0.00158314
0.000642478
0.00269225
0.00258691
0.000586823
0.000696585
0.000912873
0.00597303
0.0123753
0.00303972
0.0011625
0.00161835
0.000832485
0.00573272
0.00414826
0.000682665
0.000737957
0.00267024
0.00238108
0.00113563
0.00141161
0.0017033
0.00214875
0.00119718
0.000909823
0.000920207
0.000735953
0.000628627
0.0013011
0.00226094
0.00229871
0.000683087
0.00455277
0.00272402
0.00125276
0.00321524
0.00052075
0.00081702
0.00130655
0.000903905
0.000577215
0.00164691
0.00145285
0.00108391
0.0035171
0.00551847
0.00185714
0.00221769
0.0061239
0.00119351
0.000783639
0.00184086
0.00067004
0.00654493
0.000712696
0.000848248
0.00132036
0.00160123
0.000536569
0.00653973
0.000571633
0.00601619
0.000853622
0.00648274
0.00104912
0.000483007
0.00166947
0.00627785
0.00307293
0.00100071
0.000536364
0.00279154
0.00298418
0.000962396
0.00219121
0.00452984
0.00206012
0.000554907
0.00255951
0.00255052
0.00517399
0.00100625
0.00189846
0.000438991
0.00066293
0.000769421
0.000894533
0.000780987
0.00564681
0.00446982
0.00545382
0.00124196
0.00267645
0.00421574
0.0061125
0.00274772
0.00628097
0.00122268
0.00629243
0.0016617
0.00275437
0.000838962
0.00256581
0.00240531
0.00419856
0.00288
0.00243373
0.0014211
0.000615781
0.00924832
0.00144682
0.00614734
0.000673726
0.000941216
0.00218834
0.00121613
0.00100762
0.0016618
0.00114117
0.0033201
0.00465116
0.000880406
0.00245512
0.00458706
0.00120851
0.000762574
0.00430892
0.00581955
0.000801089
0.00417126
0.0026093
0.00633973
0.00268286
0.004413
0.00600142
0.00431246
0.00672252
0.000717994
0.00118846
0.0022014
0.00613239
0.00148599
0.000457598
0.000622891
0.000650924
0.00115653
0.00433876
0.00121038
0.00911521
0.00123541
0.00270568
0.000551721
0.00628528
0.000866077
0.00108189
0.00624802
0.00438966
0.000469531
0.000912399
0.00561024
0.00101708
0.00072784
0.0022483
0.00126288
0.0039476
0.000373581
0.00128615
0.00317559
0.000579654
0.000623732
0.00174655
0.00099698
0.000855011
0.000552959
0.00377068
0.000704912
0.000789688
0.000655749
0.00125351
0.00251936
0.00065455
0.00640612
0.000457828
0.00690528
0.0127888
0.00303468
0.000622546
0.000667591
0.00453305
0.0011122
0.000741152
0.00145161
0.000526837
0.00670183
0.00648494
0.00879134
0.00288744
0.00551503
0.000809243
0.00411009
0.000736518
0.00458783
0.00569498
0.00253723
0.00265982
0.00152845
0.000595807
0.00182237
0.00439451
0.0042204
0.000480232
0.000961873
0.00661182
0.00063223
0.00265181
0.0012068
0.00185439
0.00103121
0.00196606
0.00078401
0.000938454
0.00130495
0.00336577
0.00391862
0.00324089
0.00444007
0.00063276
0.00166655
0.00253077
0.00272908
0.000745727
0.00059936
0.000892263
0.00266996
0.000429306
0.00562749
0.00299573
0.00077735
0.00411953
0.00120534
0.00105709
0.000558007
0.00100687
0.000992923
0.000975671
0.00114416
0.00142127
0.000658847
0.00131352
0.00608346
0.00562073
0.000697981
0.000691588
0.000903016
0.00108983
0.000812385
0.00599821
0.000776227
0.000504971
0.000983293
0.00103035
0.00435056
0.00269324
0.00351349
0.000539176
0.00246238
0.000805892
0.00608451
0.000354843
0.00421847
0.00125316
0.00216124
0.00286803
0.000714871
0.00119656
0.00420284
0.0058642
0.00061514
0.00847733
0.00125833
0.00154468
0.00123989
0.000901341
0.00131337
0.0006702
0.00568089
0.000798175
0.000396866
0.00243033
0.00623266
0.00115436
0.000576868
0.0012289
0.000707712
0.00428354
0.00149286
0.00553948
0.001099
0.000649416
0.00083408
0.000294109
0.00405518
0.0061528
0.00258504
0.00182939
0.0040938
0.000681984
0.00423565
0.000561886
0.00285716
0.00616489
0.000749537
0.00093924
0.00122198
0.00199118
0.000456744
0.00060359
0.00461365
0.00240666
0.00573691
0.00220809
0.00204873
0.00236926
0.00071074
0.00681809
0.00388413
0.00306042
0.00283417
0.000958805
0.00065605
0.00104369
0.00673111
0.000307348
0.000854641
0.000751341
0.00314947
0.000480626
0.00187264
0.000807122
0.00154535
0.00308558
0.00261901
0.000948262
0.00393425
0.00133105
0.00111602
0.000649452
0.00096561
0.00119429
0.00201332
0.00427551
0.00243781
0.0028789
0.00599391
0.000578443
0.00402199
0.00103406
0.00611685
0.00393119
0.00284891
0.00164648
0.000669905
0.00403659
0.00574915
0.000901204
0.0013846
0.00170624
0.000763847
0.00589616
0.00121848
0.00429228
0.000639541
0.00119958
0.00260881
0.00118001
0.00166059
0.0010238
0.00141279
0.001678
0.000935106
0.00162633
0.000519278
0.00509156
0.00653772
0.000607687
0.00699298
0.000376459
0.00051636
0.00123994
0.00239765
0.000460735
0.0043582
0.00247113
0.00283706
0.00106844
0.00361231
0.000338058
0.0023148
0.00156754
0.000719402
0.00402077
0.000645459
0.000446172
0.00116332
0.000696021
0.00636296
0.00597088
0.00138826
0.000611337
0.00167795
0.000891344
0.00717264
0.00266532
0.00232328
0.0022627
0.00139835
0.00442415
0.000648555
0.00101811
0.00443932
0.00519654
0.00244759
0.00117722
0.00616364
0.000625625
0.00381339
0.00641427
0.00132968
0.0018088
0.00227908
0.000883666
0.00171116
0.000742908
0.00192672
0.000573226
0.00067231
0.00165795
0.000771981
0.00618201
0.00429714
0.000482988
0.00150323
0.000739137
0.00617978
0.00605681
0.000616223
0.00536494
0.000900743
0.001411
0.00224808
0.00405467
0.00241239
0.00186002
0.000659723
0.000995316
0.000565418
0.00264485
0.00594847
0.00171192
0.00629915
0.00348542
0.00423851
0.00393002
0.00129073
0.00262165
0.000802116
0.000676451
0.000944363
0.000931271
0.00141333
0.00130381
0.00285373
0.0018381
0.00146543
0.00136137
0.00437156
0.00072698
0.00633413
0.00116044
0.00404102
0.00101342
0.000585062
0.00945426
0.00555942
0.00101441
0.00286486
0.0062907
0.000707425
0.00590805
0.00280912
0.00161878
0.00128453
0.00238053
0.00407412
0.000724655
0.00273682
0.00228206
0.00124947
0.00126015
0.00173203
0.0040115
0.000467173
0.000473231
0.00255836
0.00123046
0.00138156
0.0011967
0.00257761
0.00617892
0.00402153
0.000590246
0.00238127
0.000638039
0.00374303
0.00175722
0.00253263
0.000427073
0.000594273
0.00116525
0.00272877
0.00253349
0.00614591
0.000991178
0.000371145
0.00267178
0.00057144
0.00604136
0.00101008
0.00160009
0.00651314
0.000657955
0.000635154
0.00115574
0.0099671
0.00685427
0.00485471
0.00265245
0.00245252
0.00639746
0.00587702
0.00684359
0.00119018
0.00148134
0.000918898
0.00134092
0.000823421
0.00618082
0.000966878
0.000505523
0.00622878
0.00633977
0.00608064
0.00136367
0.00558767
0.00110545
0.0045915
0.00264189
0.00124004
0.00373409
0.00104055
0.00106447
0.0022013
0.000562186
0.00106279
0.00173849
0.00298937
0.000683261
0.000883436
0.00118911
0.00619878
0.00150011
0.000700017
0.000362661
0.00062756
0.0019041
0.00255333
0.00433156
0.00652301
0.000808862
0.00249361
0.00198768
0.00112845
0.00349755
0.000604471
0.00301626
0.000652163
0.00147261
0.0037626
0.00360809
0.00181511
0.000810098
0.00111734
0.00111184
0.00141552
0.00224438
0.000518514
0.000777092
0.000514856
0.000833328
0.000573181
0.00205903
0.00110353
0.000479895
0.00616693
0.0040431
0.00692373
0.000777253
0.000664987
0.00097255
0.00278653
0.000760015
0.00352905
0.00251634
0.00597826
0.000407285
0.00162487
0.00141502
0.00596617
0.00346659
0.00322242
0.00599325
0.00380959
0.00162115
0.00196887
0.0056321
0.00428551
0.00261818
0.00242856
0.00181948
0.00067433
0.000934402
0.000967964
0.000454833
0.000914646
0.00419149
0.00234672
0.000715613
0.000500688
0.000588538
0.000510858
0.00126017
0.00178868
0.000637591
0.00276852
0.0041808
0.00110985
0.00140955
0.00647284
0.00173703
0.00600168
0.000733755
0.000850145
0.00132617
0.00133018
0.00277221
0.00646354
0.00284943
0.00257276
0.00193081
0.000786491
0.0011249
0.00481099
0.0013201
0.00112957
0.00170141
0.000638625
0.00590399
0.00250699
0.000585589
0.00139728
0.00195254
0.00155758
0.00138775
0.000703566
0.000599571
0.000857218
0.00143336
0.00179772
0.000777451
0.00125647
0.0056956
0.00592202
0.00136538
0.000595863
0.00145535
0.00148732
0.00594437
0.00074047
0.00043638
0.00074831
0.00111888
0.00105424
0.000454457
0.000645596
0.00192109
0.000590584
0.000456347
0.00370162
0.000588823
0.000579954
0.00609363
0.000381306
0.000807868
0.000655135
0.000731807
0.00149597
0.00478583
0.00128305
0.00132987
0.00159024
0.00139904
0.00122954
0.000354359
0.0012203
0.000378599
0.00607666
0.000372674
0.0039507
0.00435715
0.000525315
0.00573313
0.00189886
0.00115922
0.00151193
0.00277459
0.000981869
0.00609695
0.000544591
0.00407585
0.00095311
0.000844101
0.000781383
0.00158062
0.000816975
0.00100044
0.00218804
0.00110207
0.00102005
0.000957152
0.00418589
0.00128571
0.00214494
0.00184348
0.00268694
0.000535395
0.0011785
0.00133726
0.00593727
0.000707284
0.00629524
0.00188549
0.00579148
0.00396767
0.000855473
0.000518815
0.000704814
0.00068172
0.00520317
0.00137801
0.00580518
0.00540002
0.000771587
0.00304608
0.00109463
0.000504484
0.000933395
0.0061523
0.00263878
0.004347
0.00180661
0.00138632
0.00239728
0.000728714
0.0011634
0.00262513
0.00214631
0.00553572
0.00075232
0.00132867
0.00188863
0.000801843
0.00179033
0.00146952
0.00047428
0.00196882
0.000772278
0.00196334
0.000848236
0.00116895
0.00173123
0.0013388
0.00122014
0.000707077
0.00108812
0.000925436
0.00195647
0.00084432
0.00432504
0.00128361
0.00201964
0.00243638
0.000443158
0.00232161
0.0104355
0.00112706
0.00164079
0.00105004
0.000559501
0.00388492
0.00049808
0.00119433
0.0010474
0.00106106
0.00274445
0.00279223
0.00049883
0.00403636
0.00429043
0.00644215
0.000460696
0.00122019
0.00192495
0.000598353
0.000570721
0.000575254
0.00310209
0.000718729
0.00166113
0.00181663
0.00222683
0.00241548
0.00474218
0.00672169
0.0063836
0.0022616
0.00121935
0.00206795
0.00202369
0.00120417
0.000987636
0.0015124
0.00621304
0.00282824
0.00155758
0.00164997
0.00227557
0.00264007
0.00314459
0.000362562
0.00381242
0.00120011
0.000672029
0.000925317
0.000990518
0.00105896
0.0022871
0.000876661
0.00231889
0.000990749
0.000749209
0.00181206
0.00264194
0.0041518
0.00169488
0.00236364
0.00276624
0.00446342
0.00108631
0.00527351
0.00164792
0.000765193
0.00367629
0.00209391
0.00243124
0.00111251
0.000523763
0.00158149
0.000890155
0.00135303
0.000912752
0.0012706
0.000866095
0.002339
0.0015201
0.00275477
0.00201402
0.000774615
0.00160945
0.00073585
0.00103169
0.00103031
0.00601107
0.00115462
0.00602342
0.00119974
0.000818498
0.000627202
0.00143822
0.00080876
0.00434262
0.00429575
0.00142867
0.00118259
0.00314107
0.00061885
0.00404031
0.00122779
0.000477735
0.000887144
0.00058244
0.00144117
0.000646418
0.00124976
0.00402265
0.00191376
0.00458751
0.00436375
0.00249366
0.000404548
0.000684757
0.00266541
0.00453153
0.00371928
0.000974929
0.000956566
0.00114533
0.0011614
0.00413408
0.0033844
0.00421845
0.00247748
0.0017731
0.00291832
0.000892458
0.00242491
0.00567124
0.00103679
0.00379101
0.0070013
0.0062057
0.000938485
0.000443597
0.00177416
0.00252443
0.00254598
0.0047784
0.000606407
0.00230977
0.00116993
0.000958588
0.0065335
0.00052742
0.00136506
0.0012085
0.000842029
0.000422333
0.00173125
0.0008975
0.00151492
0.000651284
0.0060554
0.00115788
0.00283662
0.000771277
0.00479703
0.00131395
0.000469649
0.00175392
0.000669897
0.00591362
0.000608957
0.000705602
0.00162919
0.000666833
0.00102284
0.000788167
0.00106601
0.000535207
0.00188769
0.00280773
0.00281044
0.000696309
0.00157775
0.000597153
0.000774696
0.00118129
0.00109478
0.000758317
0.0043739
0.00071945
0.00233094
0.00489173
0.000523866
0.0049674
0.000568728
0.00235058
0.00395353
0.000727575
0.00386947
0.00575201
0.00598839
0.00459252
0.00414054
0.00146057
0.000866732
0.00194178
0.000471271
0.00274397
0.00128918
0.00224656
0.00114892
0.006234
0.000477994
0.000687496
0.000452338
0.00111012
0.00568285
0.00427482
0.000486988
0.00590888
0.0018269
0.00414231
0.00051545
0.00217413
0.00224457
0.00239352
0.00105697
0.00413921
0.00583248
0.00429754
0.000691147
0.00252138
0.0059816
0.000643263
0.00111189
0.00573635
0.00100876
0.0050293
0.000401652
0.000584475
0.00193596
0.00134217
0.00943531
0.000647332
0.00454843
0.00197381
0.000913277
0.000661367
0.0012336
0.00114747
0.000647612
0.00503477
0.000694041
0.000786162
0.00235743
0.00211916
0.00268795
0.00618917
0.0011069
0.000956656
0.00160516
0.00223675
0.000722847
0.00657778
0.00585708
0.00400223
0.00161585
0.00467172
0.000513539
0.00634625
0.00399499
0.000898872
0.00272352
0.00422091
0.00438916
0.000523154
0.000986826
0.0021107
0.00274838
0.000596684
0.000941057
0.000580774
0.000628439
0.00104265
0.00170923
0.00196834
0.00640344
0.000990946
0.00139318
0.0024587
0.00513121
0.00165829
0.00141132
0.00084688
0.000883216
0.00673457
0.000601077
0.00051403
0.00643899
0.000736492
0.00124568
0.000853683
0.00355675
0.00156676
0.0036567
0.00193352
0.0024958
0.00595404
0.00176261
0.00109863
0.0024
0.000522912
0.00121664
0.0012534
0.00163522
0.00287737
0.00581244
0.00151618
0.000767178
0.00061004
0.00115458
0.0028652
0.000520964
0.0029606
0.00238506
0.000738282
0.00295822
0.000638325
0.00102546
0.000780231
0.00416863
0.00596261
0.00174875
0.00123028
0.00362407
0.00475001
0.00110484
0.000914749
0.000803197
0.00628399
0.00111839
0.00120201
0.00137004
0.000941043
0.000603104
0.000574408
0.00228694
0.000531106
0.0012457
0.00120247
0.00581875
0.0064711
0.000611983
0.000800014
0.000822335
0.00101316
0.00151162
0.00106312
0.00179805
0.00118184
0.000859151
0.00153811
0.000799804
0.00106674
0.00134085
0.000964984
0.00126428
0.00091721
0.00542226
0.000425706
0.000579496
0.000486589
0.000521952
0.000580978
0.000982066
0.00412353
0.000603772
0.0012593
0.000753563
0.000436815
0.00416436
0.00183191
0.000653915
0.0066649
0.000854099
0.00448272
0.00054013
0.0006572
0.000405121
0.000475819
0.000448173
0.00406492
0.00611191
0.00989236
0.00243386
0.00403962
0.000901658
0.00133582
0.00390422
0.00262973
0.000705466
0.00198922
0.000578985
0.000459173
0.00164021
0.002178
0.00120481
0.00642746
0.0014937
0.00419011
0.00652582
0.000894219
0.0023357
0.00112878
0.00100104
0.00179639
0.000941986
0.00122746
0.000662364
0.000857291
0.000629836
0.00331342
0.00509114
0.000649444
0.00108572
0.000801913
0.00221063
0.00113526
0.000956753
0.000802668
0.000961719
0.00100732
0.00116629
0.000770107
0.00143301
0.000422645
0.000634509
0.000704512
0.00089391
0.00441312
0.000648186
0.000596228
0.00084171
0.00167868
0.000537102
0.00168109
0.00417773
0.000442368
0.00232494
0.00343791
0.00084962
0.00119545
0.00192531
0.00139975
0.00053325
0.00593634
0.000937534
0.000974134
0.00129428
0.0024672
0.00134609
0.00140182
0.000461912
0.00147294
0.000675335
0.000525564
0.000770556
0.00656153
0.000543736
0.000727731
0.00118399
0.000921613
0.000745656
0.000854705
0.0123987
0.00200074
0.00391278
0.00046822
0.00141007
0.00105839
0.000881194
0.000987073
0.00138753
0.00364074
0.00572082
0.00115209
0.00101358
0.0089113
0.00398046
0.000578902
0.000689625
0.00307481
0.000576746
0.000425394
0.000369638
0.00055539
0.00630154
0.000644107
0.00187368
0.00415386
0.00107194
0.00256644
0.00099859
0.00582127
0.00434289
0.00106938
0.00276993
0.000563159
0.0030904
0.000746033
0.00441636
0.00490612
0.000529942
0.00566031
0.0030092
0.000468142
0.00577737
0.000824477
0.00339238
0.00246414
0.00305605
0.00158495
0.00459329
0.00456222
0.000615779
0.00116698
0.000648161
0.00299799
0.000797539
0.00108867
0.000529994
0.00246804
0.000854732
0.00233879
0.000868747
0.00148913
0.00083621
0.00044127
0.00118546
0.00740395
0.000514908
0.000604095
0.0008931
0.00482423
0.000393251
0.00685936
0.0011363
0.00112765
0.00159057
0.00130048
0.000574986
0.000784841
0.00839086
0.00238353
0.00102118
0.00118334
0.00203595
0.0024053
0.000823641
0.000568362
0.00262394
0.00643024
0.00230284
0.00116441
0.0011349
0.00243539
0.000525669
0.000629279
0.00622768
0.000891174
0.00645078
0.00401854
0.000638944
0.0008387
0.000480772
0.00503727
0.00135505
0.000984866
0.000912621
0.00253652
0.00117476
0.0044319
0.000794853