/*--------------------------------*- C++ -*----------------------------------*\
| =========                 |                                                 |
| \\      /  F ield         | OpenFOAM: The Open Source CFD Toolbox           |
|  \\    /   O peration     | Version:  2406                                  |
|   \\  /    A nd           | Website:  www.openfoam.com                      |
|    \\/     M anipulation  |                                                 |
\*---------------------------------------------------------------------------*/
FoamFile
{
    version     2.0;
    format      ascii;
    arch        "LSB;label=32;scalar=64";
    class       volVectorField;
    location    "42";
    object      momentum:angularVelocity;
}
// * * * * * * * * * * * * * * * * * * * * * * * * * * * * * * * * * * * * * //

dimensions      [0 1 -1 0 0 0 0];

internalField   nonuniform List<vector> 
59516
(
(-0.000221701 -0.000536043 0.105045)
(0.000350231 -0.000223972 0.0976324)
(-0.000386206 0.000939608 0.113094)
(-0.00248944 -0.000303877 0.129048)
(-0.00454808 0.000298859 0.113765)
(-0.0104426 0.00555997 0.10109)
(-0.00128872 -0.00150012 0.128432)
(-0.000301566 -0.000690979 0.102434)
(-0.000949691 0.000128455 0.112492)
(0.0021249 0.00106478 0.0544832)
(-0.00212816 -0.000337596 0.153544)
(-0.00280106 -0.00227224 0.0604856)
(-0.00091499 -0.000618853 0.119262)
(9.49441e-05 -0.000203301 0.0197262)
(0.000147557 -0.00354899 0.0606179)
(-0.0014164 0.003706 0.0519118)
(-0.00102351 -0.000371304 0.167339)
(-0.00564356 -0.00158815 0.0701258)
(-0.00563572 -0.00131612 0.114652)
(-0.000173969 0.000626622 0.163868)
(-0.00130176 0.00062036 0.054168)
(0.000382471 0.000542432 0.148634)
(-0.0011196 -0.000718868 0.154484)
(0.000887954 0.000547182 0.0335239)
(0.00042623 0.000882566 0.160059)
(-0.000273318 0.00154327 0.0656928)
(-0.000531333 0.00285793 0.0417292)
(-0.00343321 -0.0015111 0.0444323)
(-0.00243844 -0.000942529 0.0658037)
(0.00219016 0.00175907 0.0174412)
(-0.0215081 0.00120676 0.108345)
(-0.00290114 0.00221291 0.0456954)
(-0.000785473 -0.000304842 0.133143)
(-0.00224274 -0.00102175 0.112312)
(-0.00607579 -0.000166921 0.139216)
(-0.000210666 0.000127866 0.146023)
(-0.00253414 0.00132554 0.0168667)
(-0.00689641 -0.00219593 0.0700178)
(-0.0035688 0.000445969 0.0956219)
(0.000978544 0.000384823 0.158037)
(0.00010663 -0.000671151 0.101377)
(-0.0112619 2.03267e-05 0.143927)
(-0.0042408 0.000873404 0.148305)
(-0.000706165 0.000421936 0.10762)
(-0.0041745 0.000815593 0.143003)
(0.00146032 0.000405934 0.0550603)
(-0.00468145 0.000109719 0.132645)
(-0.00416444 0.000659392 0.162322)
(-0.0152973 0.00138639 0.111881)
(-0.00810763 0.000116931 0.150537)
(-0.0179022 0.000523451 0.104051)
(-0.00395435 -0.00190199 0.0438337)
(0.000269596 -0.00245184 0.120074)
(-0.000360703 0.000402394 0.127445)
(-0.00282732 0.000678571 0.0476928)
(-0.00245227 0.000381125 0.129883)
(-0.0117463 -3.5984e-05 0.144682)
(-0.00450626 -0.00167872 0.0470444)
(-0.000270051 -0.000191422 0.169899)
(-0.00996895 -0.000396011 0.135072)
(-5.71876e-05 0.000470064 0.149034)
(-0.00145456 0.00200494 0.019007)
(-0.000359941 0.000509335 0.163654)
(-0.00236101 0.000196669 0.164161)
(-0.000548546 0.000371044 0.123062)
(-0.00574798 0.000142005 0.147067)
(0.000203065 0.00292931 0.0258947)
(-0.000131338 0.000281729 0.0407784)
(-0.0228147 0.000374633 0.121486)
(-0.00256042 -0.00094284 0.136011)
(-0.000635065 -0.000871395 0.0366646)
(-0.00120144 -0.000720772 0.161639)
(0.00352109 -0.00141979 0.0230077)
(-0.000613962 -0.000314828 0.142689)
(-4.71119e-05 -0.00013127 0.175578)
(-0.00274689 0.000161965 0.157578)
(-0.00347052 7.49382e-05 0.163067)
(-0.000118996 0.000154424 0.148079)
(0.00184187 0.00101651 0.0456082)
(-0.00781786 0.000758037 0.151077)
(-0.00254294 4.51321e-05 0.0381782)
(-0.00677806 0.000454233 0.146381)
(-0.00566902 0.000444486 0.139488)
(-0.00254255 0.00137092 0.01995)
(-0.00664808 0.000801683 0.146278)
(0.000193018 0.000689199 0.171723)
(0.000629971 0.00112133 0.0324303)
(0.000602933 0.000158334 0.149999)
(-0.00212081 -0.00113084 0.0543046)
(-0.00985191 -0.00247819 0.10721)
(-0.0114256 -3.5326e-05 0.131538)
(-0.00127954 0.00126387 0.138627)
(-0.000113238 8.53318e-05 0.169399)
(-0.000178427 0.00127773 0.137084)
(-0.000306369 0.000344241 0.158813)
(-0.0112974 -5.46805e-05 0.10995)
(-0.000669866 -0.000522556 0.140183)
(0.00205149 0.00404226 0.0531721)
(-0.00234884 -0.000999495 0.0647069)
(0.00137799 0.00113837 0.147873)
(-0.00122241 0.000927625 0.0374317)
(0.00271116 0.00137074 0.0243874)
(0.00291226 0.00153167 0.0230413)
(-0.00194254 0.00225419 0.0541572)
(0.000661894 -9.0185e-05 0.135611)
(-0.000256282 -6.14246e-05 0.146304)
(0.00184321 -0.0032488 0.0396694)
(-0.000672995 -0.000423426 0.105496)
(-0.000356761 0.000606316 0.101431)
(-0.00145196 0.00228918 0.0657859)
(-0.018666 -0.000235488 0.124931)
(0.00232013 -0.00210261 0.0306565)
(-0.00254761 0.00327362 0.0666054)
(-0.0194353 -4.67339e-05 0.118037)
(3.44327e-05 -9.42646e-05 0.158753)
(0.000927502 -0.00116363 0.101038)
(-0.00184768 -0.0011122 0.0540643)
(-0.000470066 -0.000655107 0.133533)
(-0.000400349 -0.00101628 0.0218504)
(-0.000951134 0.00104078 0.146697)
(0.000580066 0.000153915 0.177037)
(-0.000271825 0.000398368 0.165238)
(0.000669927 0.000526696 0.15777)
(-0.000681998 0.000407223 0.163866)
(-0.0178786 0.00119478 0.132321)
(-0.00309331 9.63085e-05 0.0902004)
(-0.00183792 -0.000827011 0.0296429)
(-0.0133564 0.00211961 0.13825)
(-0.013066 0.00307233 0.0898358)
(0.000450641 -0.000227798 0.173836)
(0.000280407 -0.00043273 0.175518)
(0.00158432 0.00196699 0.113298)
(-0.000550971 -0.00202486 0.0232461)
(0.000319433 0.000571866 0.148277)
(0.00116741 0.000340741 0.102308)
(-0.00177169 0.00108472 0.116658)
(-0.0155257 0.00140892 0.107517)
(0.000231543 0.000525797 0.130542)
(-0.000363945 0.00266419 0.039405)
(-0.000950214 0.000899681 0.0992329)
(-0.000982874 0.0021548 0.0436678)
(-0.000466357 -0.000367932 0.176879)
(-0.000894661 -0.00158523 0.0185766)
(-0.000384357 0.00117275 0.126184)
(-0.000530313 0.000339663 0.171436)
(-0.00137428 0.00072347 0.141688)
(-0.0047625 0.00132808 0.140592)
(-0.00255082 0.00121236 0.118556)
(0.00094802 -0.00176426 0.0621292)
(-0.000160277 0.00112909 0.107486)
(2.98421e-05 -0.000828596 0.104223)
(0.00016735 0.00129994 0.0348854)
(0.000948364 0.0010222 0.164838)
(0.000608176 0.000232597 0.153818)
(-0.00058443 -0.00198181 0.0900517)
(-0.00176888 0.00104282 0.0186408)
(-6.92195e-05 -0.00019754 0.114102)
(-0.00102655 0.000705583 0.114651)
(-0.00104357 0.000551714 0.083204)
(-0.00277499 -0.00196985 0.0191206)
(0.00276314 0.00239326 0.0644886)
(0.00373209 -0.00206844 0.0664119)
(-0.000621217 0.00133871 0.0345716)
(-0.000240579 -0.000482237 0.0249915)
(0.00296481 9.44283e-05 0.100329)
(-0.00102063 0.000508103 0.169614)
(0.000784211 -3.88459e-05 0.0610028)
(-0.000604678 -0.000227483 0.172664)
(0.00117749 0.00227498 0.0195346)
(-0.000183551 -0.000531497 0.136112)
(-0.00135246 -0.00111833 0.0842987)
(-0.000855319 0.000666311 0.0515534)
(-3.0621e-05 -0.00181406 0.0635073)
(0.000427287 -0.00067764 0.137047)
(0.000485176 0.000679795 0.0495029)
(-0.00502961 -0.000558947 0.1351)
(-0.00101519 0.000327759 0.166496)
(-0.00592542 0.000587317 0.149403)
(0.000450858 -0.00322029 0.0665811)
(0.000457939 0.000300158 0.0403575)
(-0.00108031 -0.00183205 0.145794)
(0.000891663 0.00301791 0.0329407)
(-0.00101366 -0.00202871 0.0284028)
(0.000571233 0.00155753 0.0637504)
(0.000226854 -0.000471352 0.172841)
(-0.000380872 0.000661068 0.0582827)
(-0.00269876 0.000575657 0.0347645)
(0.000142187 0.000267713 0.0226304)
(-0.000115762 5.3359e-05 0.122243)
(0.00152179 0.000871852 0.100465)
(-0.00288136 -0.000327046 0.135307)
(-0.000877293 -0.00296354 0.0511861)
(-0.000440949 -0.00037856 0.161943)
(0.00165473 -0.00142339 0.0562055)
(-0.000191399 4.27725e-05 0.154336)
(0.000417059 0.000730953 0.0289646)
(0.000751335 0.000150327 0.0562345)
(0.000304911 -0.0010662 0.0400235)
(-0.00464438 -0.000221319 0.110187)
(0.000511979 -0.000541355 0.153302)
(-0.00168993 -0.00219777 0.0806678)
(-0.000631781 -0.000411506 0.176283)
(0.000209591 0.00111955 0.10289)
(0.00164292 -0.00188968 0.0191503)
(0.00100589 0.000939056 0.128399)
(-0.000147916 -0.000226103 0.14512)
(6.11205e-05 -0.000199562 0.17517)
(0.000780161 -0.000874635 0.152116)
(0.000208502 -0.000684713 0.0225386)
(0.00174615 0.000901106 0.114241)
(-0.000463186 0.00460861 0.0497923)
(-0.00386048 0.000804611 0.023752)
(-0.00101821 0.000995934 0.143879)
(-0.000283252 0.00133728 0.0550222)
(-0.000751927 -0.00113901 0.116325)
(-1.40861e-05 -0.00025189 0.167839)
(-0.000945863 0.000424831 0.139907)
(-0.00105981 0.000883643 0.156672)
(-0.0017375 0.0030836 0.0535062)
(0.000819037 6.12306e-05 0.156042)
(-0.00103535 -0.0026187 0.0545575)
(-0.000155549 0.00034669 0.104704)
(-0.000790483 -0.000880897 0.161959)
(0.000411109 -0.000591994 0.038988)
(-0.000371612 -0.000329028 0.165479)
(0.000738343 0.000298876 0.167392)
(-0.0010005 -0.00104009 0.0276534)
(-0.00256763 0.000578875 0.0460887)
(4.69094e-05 0.000811772 0.166707)
(-0.00200814 0.00342147 0.053595)
(0.000331741 0.000601284 0.168858)
(-0.000458168 0.000317868 0.168325)
(-0.000848578 -0.000568913 0.174392)
(-0.00121144 -0.0020475 0.0245515)
(-0.00133442 -0.001186 0.0322142)
(-0.00148017 1.27142e-05 0.0335872)
(0.000179536 -0.000415125 0.0625417)
(-0.00138846 -0.000304553 0.0968825)
(-0.00154637 0.000356448 0.155125)
(0.00185858 -0.000281244 0.056544)
(0.000576402 0.000267523 0.176087)
(0.00245952 0.00172593 0.0201439)
(0.000687947 0.000523465 0.0536016)
(0.00230931 0.00138767 0.0244362)
(0.000707783 0.000250013 0.174079)
(-0.000327684 -0.00051591 0.0925937)
(-0.000853175 0.000192136 0.145367)
(-0.000594505 0.00148417 0.0645288)
(-0.000113734 4.04857e-06 0.166685)
(-0.000425316 -0.000273997 0.104728)
(0.000909543 -0.000151126 0.163635)
(-0.00064546 0.000166019 0.140582)
(0.000648765 0.00031491 0.1764)
(0.000181251 0.000662046 0.144524)
(-0.000626131 0.00133451 0.146655)
(-0.000345199 0.000572976 0.156584)
(-0.00026142 9.49088e-06 0.054838)
(-0.00178047 0.000373108 0.152881)
(0.00120297 0.00198964 0.0413608)
(-0.000276356 0.00212215 0.0593574)
(-0.00109235 0.000588845 0.130668)
(-0.000353199 0.000683974 0.160118)
(0.0031267 0.000758748 0.115305)
(0.000291664 0.000526088 0.17118)
(0.00214651 0.000151185 0.0990276)
(1.16132e-05 -0.00270431 0.0572349)
(-0.000450876 -0.000963966 0.15826)
(0.00193658 0.000153778 0.0927826)
(-0.00054495 -0.000860854 0.0458226)
(-0.000391004 0.0013939 0.0511211)
(-0.00215222 0.00219918 0.0970196)
(-0.00059288 -0.000392466 0.167913)
(-0.00142775 0.0018072 0.098598)
(-0.000584022 0.00146051 0.09295)
(-0.00113356 -7.87077e-05 0.162596)
(6.78506e-05 0.00257055 0.0929328)
(-0.0012343 -0.00261408 0.0209708)
(0.000727723 0.000683208 0.160308)
(0.00214596 -0.00164031 0.0252794)
(0.00172601 0.00090414 0.0400576)
(-0.00089345 -0.000459163 0.173431)
(-0.000343768 0.000183315 0.13977)
(-0.00335898 0.00174485 0.0248892)
(-0.000197611 -0.000991122 0.121311)
(-0.00116748 -0.00205101 0.125087)
(-0.000921449 0.000619536 0.165267)
(0.000521756 -0.000387594 0.173655)
(0.00203937 -0.00204563 0.0239618)
(-0.000184146 0.000601985 0.172738)
(-0.000527989 -0.000583888 0.175231)
(-0.000450247 -0.000784666 0.16835)
(-0.000951304 5.39655e-05 0.135436)
(-0.00127588 0.000915124 0.137239)
(-0.000422147 -0.000364441 0.0958245)
(0.000136319 -0.001107 0.168887)
(1.1539e-07 0.00162847 0.0279911)
(0.000274689 -0.000953366 0.157888)
(0.000741036 0.000669344 0.139795)
(-0.000493092 -0.000466545 0.175266)
(-0.000567074 -0.000308065 0.164755)
(0.000576911 -0.000614101 0.117014)
(0.00101309 -0.00116256 0.059167)
(-0.000710564 -0.00146818 0.0228607)
(0.000725151 0.000435582 0.0283245)
(-0.00123183 0.000468824 0.162993)
(-0.00296613 0.0011984 0.0204847)
(-0.000808348 -0.000785416 0.0633366)
(-0.000988973 0.00292855 0.051882)
(-9.43492e-05 -0.000822859 0.164979)
(-0.000469548 -0.00018116 0.170813)
(-0.00016456 0.000513426 0.154188)
(0.0011236 0.000663397 0.0587129)
(0.00265184 -1.45227e-05 0.103725)
(6.72745e-05 0.00424768 0.0400105)
(0.00042672 -0.00168529 0.0546713)
(-0.000189223 0.000494086 0.155718)
(0.000483858 -0.00137759 0.0986564)
(-0.0127734 -0.00154132 0.107738)
(0.000215469 -0.00207725 0.0903935)
(-0.000473134 -4.2709e-05 0.0429141)
(0.00217342 -0.00012745 0.0641517)
(-0.000618665 -0.00176163 0.108393)
(-0.000145884 -4.07803e-05 0.171521)
(0.000258385 -0.00082447 0.176085)
(-0.000818075 0.000533178 0.175994)
(0.00011921 0.00126992 0.16077)
(-0.00582485 -0.000714462 0.0970794)
(-0.00113864 -8.44752e-06 0.127316)
(-0.0013495 0.000880319 0.163321)
(0.000649111 0.000238708 0.159499)
(0.00101536 2.81387e-05 0.161899)
(-0.00258774 -0.00227919 0.0564929)
(0.00278596 -0.00112842 0.0222671)
(0.00116572 3.3916e-05 0.149975)
(0.00114519 0.00261942 0.0396248)
(3.76504e-05 -0.000175494 0.0317194)
(-0.00168863 -3.49809e-05 0.159397)
(0.000531504 0.000370572 0.146061)
(-0.00191935 0.0025786 0.0599608)
(-0.000610924 -0.000936449 0.168977)
(0.000432716 0.001402 0.164826)
(-0.000985478 0.000271719 0.175457)
(-0.00105937 2.13739e-05 0.170069)
(-0.000112465 -0.00150303 0.0326597)
(5.80441e-05 -0.00010924 0.158961)
(-0.001395 0.00032633 0.171308)
(0.000212788 0.000763251 0.057745)
(-0.000218687 -0.0012448 0.173973)
(-0.000513938 0.00042935 0.17)
(0.000653795 0.000590555 0.131954)
(0.000585191 0.000702371 0.123294)
(-0.000324748 -0.00162595 0.151087)
(0.000826057 0.00112645 0.14342)
(-0.000403556 0.000138102 0.0699643)
(-0.000615824 0.00153418 0.0316783)
(0.000304436 0.00252772 0.0349401)
(0.000496633 -4.48718e-05 0.0953277)
(-0.0125866 -6.05616e-05 0.0862558)
(-0.00735098 0.000770985 0.0746134)
(0.000301933 -0.000349732 0.0837885)
(0.00152764 -0.00131425 0.115367)
(-0.000399582 0.000528708 0.131851)
(-0.00408222 0.000444197 0.158407)
(0.000548314 0.000674113 0.156707)
(-0.000464203 -0.000590514 0.132405)
(-7.95212e-05 -0.000587291 0.148638)
(-0.000985404 -0.000139393 0.148893)
(-0.000431571 0.000904284 0.0313404)
(-0.0226146 0.000822917 0.113905)
(0.000433031 0.00153601 0.0583064)
(-0.00099316 0.00162559 0.0412769)
(0.000833903 0.000340277 0.0415417)
(0.000187467 0.000536702 0.160208)
(-0.000417854 0.000272443 0.0943656)
(-0.00113981 0.000373551 0.159664)
(-0.00131474 0.0015502 0.0198952)
(0.000389054 -0.000294311 0.127031)
(0.00117563 -0.000685488 0.0444392)
(-0.000247118 0.000389133 0.163261)
(-0.000498982 0.00062056 0.0479006)
(0.00177933 0.00073244 0.0618857)
(0.00078536 0.00270726 0.106838)
(-0.00158043 -0.000161357 0.151549)
(0.00264128 -0.000183821 0.0196177)
(-8.94951e-05 0.00242001 0.0543814)
(-1.8272e-06 -0.000612111 0.133543)
(4.84715e-05 -0.00232092 0.0232753)
(-0.0092476 -0.000267028 0.130758)
(0.000482742 -0.00260216 0.116607)
(-9.10437e-05 -0.00202768 0.132298)
(0.00230827 -0.00259683 0.0949634)
(0.00221643 0.000734715 0.0888182)
(0.000792575 -0.000343725 0.160681)
(-0.010162 -0.0032294 0.0772014)
(-0.000569589 -0.000163301 0.176123)
(-0.0124294 0.000793833 0.111358)
(-0.00214203 0.00157609 0.0595095)
(-0.00041783 0.00145474 0.0626822)
(-0.000161172 -0.000620221 0.17435)
(0.00054007 -0.000745855 0.174655)
(0.000606869 -0.00052355 0.0525559)
(-0.000325069 -0.00070771 0.134165)
(-0.00223343 0.000756638 0.0984076)
(0.000222558 -0.000616637 0.173952)
(0.000382533 -0.000990751 0.173413)
(-0.00105296 -0.00349244 0.045683)
(-0.00048092 0.000899278 0.133133)
(0.00225925 -0.000174625 0.145396)
(-0.000558706 -0.000411257 0.148035)
(0.000321735 -0.000745884 0.156152)
(0.0024877 -0.00131426 0.0215494)
(-0.00274301 -0.00072973 0.0209673)
(-0.00144262 0.00134367 0.126967)
(8.58041e-05 -3.3045e-05 0.171375)
(0.00136857 0.00100182 0.174984)
(-0.0022312 0.00118902 0.0345238)
(0.00117499 -0.00105622 0.165732)
(-0.00116547 -4.44708e-05 0.107286)
(-0.000426372 -0.000580037 0.169783)
(0.000442641 0.000810105 0.172175)
(0.000848725 0.000308315 0.175216)
(-7.65819e-05 -0.000952727 0.169873)
(-0.000278346 -0.00157666 0.169316)
(0.000284852 -0.00056535 0.0892333)
(-0.000876245 0.000395617 0.173368)
(-0.00188975 0.00230735 0.0561428)
(-0.000427012 9.28139e-05 0.164565)
(-0.000985462 -0.00062661 0.109896)
(-0.00101061 -0.000170391 0.152503)
(-0.000232422 -0.000196419 0.17063)
(-0.000144766 0.000432937 0.149316)
(0.00101086 -0.000580008 0.144395)
(0.00174937 0.00259861 0.04032)
(0.000882675 4.53363e-05 0.0338711)
(-0.00196113 -0.00199678 0.0211789)
(-0.00827918 4.95926e-05 0.152585)
(0.000140503 4.99285e-05 0.180318)
(-0.00105635 0.000156712 0.139204)
(-6.41024e-05 -0.00108673 0.126931)
(0.00111648 0.000209134 0.0308115)
(0.000725688 -0.00262579 0.0236038)
(-0.000669301 -0.00165001 0.114811)
(-0.00116165 0.000911144 0.151591)
(-0.000380409 -0.00087733 0.170973)
(0.000401498 -0.000228377 0.154068)
(-0.00145304 -5.75356e-05 0.13574)
(-0.000483259 0.000324564 0.178281)
(0.0011801 -1.56672e-05 0.13461)
(-0.0011292 0.00227975 0.0263533)
(6.74108e-05 0.000706741 0.123052)
(0.00262015 -0.00149279 0.0574854)
(-0.00715798 -0.000789458 0.0704795)
(-0.000316936 0.000257935 0.152961)
(0.000389132 -0.00018832 0.0937784)
(-8.3801e-05 8.3577e-05 0.146163)
(-0.00347635 0.00216706 0.0205585)
(0.000722383 -0.00066032 0.174448)
(-0.000322374 -0.00011464 0.174313)
(-0.000873202 0.000107774 0.172323)
(0.000693524 -0.000645993 0.0919292)
(0.000288393 -0.00142407 0.152552)
(-0.000518357 -0.000818251 0.169031)
(-6.01055e-05 0.000408573 0.12164)
(-0.00100374 0.00047561 0.174481)
(-0.00497112 -0.000586559 0.0981936)
(-0.000466834 -0.00045739 0.16795)
(-0.00247567 0.000953434 0.148655)
(0.00150505 -0.00125886 0.0204536)
(0.000200749 0.000427901 0.173516)
(0.0013336 0.00160681 0.116846)
(-0.00290387 -0.00270433 0.0458636)
(-0.000913203 0.00142684 0.0911117)
(0.00035786 0.000159246 0.164816)
(-8.10308e-06 -0.000937809 0.129256)
(0.000953184 0.00221379 0.0846638)
(-0.00226137 0.00155973 0.0203176)
(-6.82312e-05 0.000686498 0.170974)
(0.000525263 0.00239124 0.124897)
(-0.000620489 -7.41117e-06 0.159689)
(-0.000761556 -0.000111588 0.124423)
(-0.00226231 0.000604768 0.0365595)
(0.000431815 9.109e-06 0.14088)
(-0.00391188 0.000296372 0.025927)
(5.79142e-06 0.000722202 0.160926)
(-0.0119567 0.000602362 0.10228)
(0.000975777 0.00052363 0.165463)
(-0.000257758 0.00176066 0.051273)
(-0.00122999 0.00157196 0.106464)
(-0.000260349 0.00128201 0.0952438)
(0.00196319 -0.00178637 0.0344718)
(0.000308134 0.000482731 0.174999)
(-0.000774031 -0.000324142 0.16734)
(-0.0021051 -0.000808577 0.0217554)
(7.53504e-05 -0.000654589 0.159622)
(-0.00065933 -0.000100288 0.175067)
(-0.000570726 0.00207514 0.03677)
(0.00146169 0.00227357 0.0610495)
(-0.00139699 0.00192468 0.0532059)
(-0.000567687 0.00058315 0.153051)
(-0.000199284 -0.000326057 0.172613)
(-0.00121239 0.00122125 0.0325324)
(0.00171813 -0.000740101 0.0534252)
(-0.000207572 0.00110681 0.056089)
(0.00119875 0.000885668 0.115134)
(-0.000367714 -0.000354511 0.173639)
(-0.00269616 -0.00182094 0.0229416)
(0.0010363 0.000372273 0.1586)
(-0.00259369 -0.000962447 0.151525)
(-8.75212e-05 -0.00119433 0.173299)
(-0.00234827 -0.00482944 0.0900995)
(0.000982444 0.000384116 0.166384)
(0.00117362 -0.00216716 0.0225126)
(-0.000492651 -0.000116386 0.162797)
(0.000167229 -0.000398811 0.0269043)
(-9.50683e-05 -0.00182607 0.0592001)
(1.22814e-05 0.00114741 0.154193)
(-0.00108039 0.00152477 0.0599209)
(-0.00273755 0.0016217 0.0203236)
(0.000328081 -0.00131295 0.0363285)
(0.000382212 0.0027991 0.0447958)
(0.000784915 -0.00182762 0.0579907)
(-0.000763642 -1.19946e-05 0.146536)
(-5.20388e-05 0.00112883 0.0495749)
(0.00108542 -0.00189236 0.0585019)
(-0.0154293 0.000624945 0.128211)
(-0.000682633 -0.000507988 0.166122)
(0.00154483 6.8813e-06 0.023612)
(0.000281807 0.00101185 0.106523)
(-0.00847324 -0.00430095 0.0812993)
(0.00106217 4.69515e-05 0.167801)
(-0.00102937 0.000850673 0.0576741)
(-0.00120266 -0.000446774 0.162813)
(0.00134894 0.00247857 0.0565843)
(-0.000719981 0.000474109 0.123055)
(-0.000658869 3.96318e-05 0.172131)
(0.00272775 -0.00427372 0.050332)
(-7.76901e-05 -8.73444e-06 0.171905)
(-0.00316834 -0.000839498 0.0475761)
(0.0026061 -0.00164153 0.01891)
(-0.000599168 0.000669783 0.145549)
(0.000224826 -0.000263999 0.172891)
(-0.000909174 0.000503811 0.12971)
(0.000795288 -0.00161612 0.125141)
(0.00122196 -0.000147525 0.173089)
(0.00167652 -0.000159948 0.0600106)
(0.00118733 -0.00032987 0.164951)
(0.00130667 0.00271815 0.0562907)
(-0.000231235 -0.000408846 0.170697)
(0.00184711 0.000771446 0.12619)
(-0.00325376 -0.00215638 0.0275875)
(-0.000909273 0.000318742 0.153164)
(0.00108002 -0.00126152 0.0514369)
(0.00128717 0.00228449 0.0256322)
(-0.000924926 0.000345973 0.148641)
(-0.00159682 8.40744e-05 0.0425676)
(-2.98826e-05 0.000397699 0.137687)
(0.000148448 0.000944151 0.172108)
(-0.000196972 0.000631529 0.130751)
(0.000117623 0.00349475 0.052942)
(0.00160611 -0.00020112 0.174605)
(0.00170027 0.000450436 0.0895429)
(2.9012e-05 0.000447267 0.179504)
(-0.000294545 0.000213514 0.175647)
(0.000501576 0.000846511 0.175248)
(2.92426e-05 -0.000159004 0.172521)
(0.00289904 -0.00117829 0.0433809)
(0.000400886 0.000400782 0.0507547)
(0.000155452 -9.40521e-05 0.172954)
(2.32328e-05 -0.00166868 0.160888)
(0.000478023 0.00239666 0.0312443)
(0.00041568 -0.000202752 0.159752)
(1.42768e-05 0.000250419 0.176053)
(0.000615342 0.000829916 0.172386)
(0.000874706 0.000962863 0.175416)
(-0.00138112 0.000771831 0.115911)
(-0.00163725 0.00227849 0.0210282)
(0.000626801 -2.24979e-05 0.173806)
(0.000836406 -0.00137904 0.0996985)
(-0.000512139 0.000428042 0.150275)
(-0.000137178 0.000220831 0.0951821)
(-0.00175099 -0.00108491 0.0286925)
(-0.000705524 -0.000121154 0.173574)
(-0.00196093 0.00251576 0.0909038)
(0.000278598 -0.000235691 0.132823)
(0.000751293 0.000824972 0.176407)
(-0.000881107 0.00133166 0.141018)
(0.00154573 0.00199907 0.0169611)
(-0.00226423 0.00104178 0.021615)
(-0.000235072 -0.000284328 0.170379)
(0.000812819 -0.000712583 0.164774)
(-0.000575702 0.00123032 0.17644)
(-0.0010354 -0.000710956 0.151065)
(-0.000346974 0.00144335 0.0913166)
(-0.00043894 0.00110567 0.149106)
(1.07825e-05 0.000577032 0.170946)
(0.00070602 0.00162858 0.019784)
(-0.000518685 -0.000263783 0.171662)
(-0.0148818 0.000948123 0.134946)
(-7.95665e-05 0.00200881 0.0366173)
(-0.000379344 0.00352078 0.0536368)
(-0.00023721 0.000937104 0.144001)
(0.00187934 -0.000664387 0.140712)
(0.000271258 -0.000509136 0.137571)
(0.000840695 -0.000506079 0.123741)
(-0.00307223 0.00216496 0.104393)
(-0.000242638 -0.000204305 0.175693)
(0.000709067 -0.00292464 0.0972438)
(0.000915263 -0.000455819 0.172053)
(0.000277078 0.000762649 0.168037)
(0.000898895 -0.00031004 0.178819)
(0.000645911 -0.000743766 0.169755)
(0.00155819 0.00120944 0.0392382)
(0.000869512 -3.44041e-05 0.161957)
(-0.000339443 -0.0015704 0.0317404)
(-0.0105795 -0.00143963 0.0944267)
(0.00194868 -0.00135411 0.0590004)
(-0.0132266 -6.13412e-05 0.127251)
(0.000777466 0.000601442 0.130437)
(-0.019498 0.000475126 0.117452)
(0.000164541 0.00048103 0.16664)
(-0.000388373 -0.000146776 0.172542)
(-0.0006371 0.000203122 0.153302)
(0.000657627 0.000843631 0.167308)
(-0.000588272 -0.000152148 0.0327907)
(-0.00457481 0.000143089 0.100941)
(-0.016126 0.00113816 0.112488)
(-0.0003101 -0.000122163 0.170969)
(-0.000720485 0.00231481 0.112037)
(-0.0140776 0.00096458 0.136856)
(-0.00546238 0.000395295 0.156348)
(0.000618175 0.00102335 0.110636)
(-0.00128762 -0.000543517 0.0341842)
(0.00145304 0.00258664 0.0527056)
(-0.000220963 -0.000120971 0.0236728)
(0.00128444 0.0011653 0.0225056)
(-0.000193303 -1.26141e-05 0.0334442)
(-0.0106655 0.000407973 0.133638)
(-0.000805633 -0.000408348 0.138379)
(-0.00219894 -0.00241837 0.0228422)
(-0.00276386 0.000746252 0.0216234)
(0.000252351 0.000303106 0.176195)
(-0.014901 0.00326876 0.0961355)
(-0.00167372 0.000113226 0.0360128)
(-0.000466866 -0.00013055 0.147467)
(-0.0016367 0.000873483 0.105314)
(0.00118546 -0.000324397 0.134365)
(0.00132614 0.00199969 0.0404273)
(-0.0010587 -0.00136537 0.0527167)
(0.000236185 0.00117973 0.111032)
(0.000587021 0.000374373 0.166505)
(0.000259774 0.000777399 0.151504)
(-0.00177471 0.00245587 0.0344973)
(-0.000611887 -0.00202478 0.0230767)
(-0.0189056 0.000204019 0.106234)
(-0.0026195 0.00185409 0.0246425)
(-9.56323e-05 0.0013948 0.134374)
(-0.00341849 -0.00107665 0.0261622)
(0.000596335 0.00213599 0.103825)
(-0.000694993 -0.000328554 0.170991)
(0.00121941 0.000334036 0.173601)
(-0.000432493 -0.000967943 0.0421801)
(0.000863303 -0.000606838 0.0976197)
(-0.00182855 -0.000266307 0.0337784)
(-0.00335759 -0.000189392 0.0267405)
(0.000161587 -0.000758392 0.171493)
(-0.00254669 0.00123762 0.0182954)
(0.00101935 0.000267497 0.162457)
(-0.00043203 -0.0023342 0.0461619)
(-0.000237205 0.00109784 0.154484)
(-0.000235162 0.000551029 0.141442)
(0.00312074 0.00126468 0.0209232)
(-0.000969981 -0.00250678 0.0549064)
(-4.76519e-05 0.000607515 0.148256)
(-0.000130428 0.00158448 0.032747)
(0.000571232 -0.000477792 0.157505)
(-0.00125874 0.00362681 0.0519866)
(0.000258401 9.1516e-05 0.107815)
(0.000799137 0.000458144 0.174282)
(0.00128801 2.33498e-05 0.0347431)
(-0.00302647 -0.000612041 0.0225235)
(-0.000941162 -0.000342069 0.0485553)
(-0.0177967 8.90246e-05 0.110789)
(-0.00055909 2.72191e-05 0.103982)
(0.000146233 0.00356588 0.054055)
(0.0012928 -0.000194414 0.0839082)
(0.000450625 0.00124395 0.0292535)
(0.00101742 0.000387532 0.174859)
(0.000991779 0.00132077 0.0223337)
(-0.00057904 0.000706724 0.167226)
(0.000295433 0.000184529 0.144991)
(-4.47904e-05 0.000109838 0.164621)
(-0.00185971 -0.000219411 0.0185359)
(0.000632411 -2.88238e-05 0.150421)
(-0.000492646 0.000422778 0.0814207)
(0.00014429 0.000246331 0.156194)
(0.000151904 0.000528547 0.052488)
(-0.0146436 0.000392268 0.108158)
(-0.00133497 0.000814946 0.159267)
(0.000640278 -4.76726e-05 0.0381434)
(2.68835e-05 0.000822505 0.177298)
(-0.0204623 0.00238484 0.108865)
(-0.000722484 -0.000379434 0.11742)
(-0.000740481 -0.00176061 0.0313994)
(-0.00116432 0.00230713 0.0486469)
(-0.000202182 0.000110171 0.173382)
(0.000708456 -0.00112855 0.132201)
(-0.00104922 0.00129695 0.0307624)
(-0.0002607 -0.0020272 0.109425)
(0.00154219 0.00109942 0.0584866)
(-0.00161806 0.00185709 0.0233849)
(-0.000432449 4.30574e-06 0.172072)
(-0.0101273 0.000480877 0.10334)
(-0.00102827 -0.00221834 0.130984)
(-8.3184e-05 0.000341412 0.168306)
(0.000468856 0.000309658 0.170583)
(0.000379282 -0.000445287 0.164983)
(0.000755083 -2.55586e-05 0.132674)
(0.00110724 0.000370174 0.0416879)
(-0.000443696 0.00261521 0.0382387)
(0.000768204 0.00037555 0.174541)
(-0.0128327 -0.000551839 0.107578)
(0.000223232 0.00127769 0.121668)
(0.00141228 -0.000978962 0.128562)
(0.0018545 -0.000862326 0.0801591)
(-0.000476405 0.00104803 0.14753)
(0.00015213 0.000942013 0.160826)
(-0.00105265 -0.000875695 0.0985782)
(-0.00148842 0.00127741 0.103687)
(-0.00123771 0.00196242 0.0362557)
(-0.000634004 -0.000335922 0.070235)
(-0.00263623 -0.00199844 0.0416729)
(0.000714794 -0.000979258 0.150575)
(0.000197536 -0.000135791 0.16984)
(-0.000485707 0.00270753 0.0932907)
(7.50675e-05 -0.000940477 0.0975907)
(0.00118158 -0.00177508 0.020067)
(0.000122485 -0.000746933 0.0782585)
(-0.00281625 -0.00130701 0.0563523)
(-0.000818449 0.000697577 0.170437)
(0.00135935 0.000260191 0.171426)
(-0.0113152 -0.000734127 0.10482)
(-0.00130514 0.000328933 0.159683)
(-0.00139643 0.00269243 0.0806622)
(-0.00833674 0.000378662 0.101706)
(0.000444588 -0.00234617 0.133267)
(0.00177534 0.000827366 0.0251753)
(0.000992982 -7.48244e-05 0.171449)
(-0.000205849 0.0013642 0.0482213)
(-0.00127672 -0.000400885 0.139065)
(0.00347474 -0.00175488 0.0272918)
(0.00088874 -0.000132256 0.169963)
(-0.00508924 -0.000291611 0.101647)
(-0.000343754 -0.000337798 0.156256)
(0.000378306 -0.000441036 0.115406)
(-0.000205817 0.00045302 0.145941)
(0.000115249 0.000955633 0.149209)
(-0.000829265 0.000302047 0.17586)
(0.000176782 0.0019575 0.0332456)
(-8.61084e-05 -0.00117794 0.0459155)
(-0.000330939 0.000701291 0.0278044)
(-2.49257e-05 0.000660986 0.169927)
(0.000843547 -0.000197221 0.155065)
(0.00169817 0.000561714 0.136364)
(0.000909302 -0.000977609 0.158357)
(0.000235049 -0.000596057 0.0201625)
(8.45915e-06 0.000280361 0.0974627)
(0.00145171 -0.00142231 0.0883851)
(-0.000235136 -0.000126385 0.169938)
(-0.000943785 -0.000174093 0.126693)
(3.13373e-05 -0.000512953 0.144898)
(-0.0012868 0.000526793 0.105313)
(-6.70842e-05 6.07132e-05 0.172589)
(-0.00270293 0.0019578 0.0198552)
(0.000361575 0.00341657 0.084335)
(-0.000333289 0.000294598 0.151082)
(-0.000159852 0.00294569 0.0251049)
(0.00030322 0.00211851 0.0430618)
(-0.00108509 -0.000541552 0.0604073)
(-0.0023454 -0.00102687 0.0208308)
(0.00139411 -1.21016e-06 0.0941506)
(-0.000520168 2.9697e-05 0.165638)
(-0.000445572 0.00228989 0.05832)
(0.00224625 0.00190291 0.0184781)
(-0.000292953 -0.000856908 0.104045)
(0.000408126 6.80853e-05 0.024756)
(4.89131e-05 0.00143707 0.0979999)
(5.63734e-05 0.000199653 0.168272)
(0.000346802 0.000204583 0.176279)
(0.000273668 0.000126655 0.167925)
(0.000727495 0.000650066 0.161726)
(5.87645e-05 3.27446e-05 0.168955)
(-0.000405606 0.00187149 0.129714)
(0.00102258 -0.00104294 0.0452126)
(0.000942935 4.6311e-05 0.169556)
(4.61113e-05 -0.000933512 0.12402)
(-0.000806341 -0.00147779 0.0870639)
(-0.00156132 -0.00053967 0.0952425)
(-0.000126728 -3.48056e-05 0.160485)
(-0.00118588 0.000719815 0.115282)
(0.000977692 0.00141241 0.0642281)
(-0.000927876 -0.000900909 0.153413)
(0.000355706 -0.0011977 0.0323118)
(0.000623354 0.000403712 0.0865766)
(0.000291073 -0.000249634 0.0956002)
(-0.000833551 0.00066805 0.0596818)
(0.000100277 0.000145203 0.158639)
(-0.0184159 -0.000496069 0.105995)
(-0.00950093 0.000277606 0.12717)
(-0.000558379 0.00272404 0.0317259)
(0.00183533 -0.000288032 0.02562)
(-0.000172341 0.00228066 0.0547265)
(0.0019844 -0.000458369 0.0198437)
(-0.000653252 0.000480449 0.125657)
(0.000227627 0.00114326 0.152186)
(-0.000954045 0.00136339 0.128781)
(-0.0152589 0.00120767 0.110249)
(-0.000346464 -0.000103855 0.133074)
(0.000243105 0.00073602 0.145623)
(0.00416453 0.002903 0.0243991)
(-0.000359646 0.000700553 0.15499)
(-0.0131954 -0.000346144 0.127557)
(-0.00130224 -0.000341093 0.0429359)
(0.00272355 0.00243213 0.0214761)