/*--------------------------------*- C++ -*----------------------------------*\
| =========                 |                                                 |
| \\      /  F ield         | OpenFOAM: The Open Source CFD Toolbox           |
|  \\    /   O peration     | Version:  2406                                  |
|   \\  /    A nd           | Website:  www.openfoam.com                      |
|    \\/     M anipulation  |                                                 |
\*---------------------------------------------------------------------------*/
FoamFile
{
    version     2.0;
    format      ascii;
    arch        "LSB;label=32;scalar=64";
    class       volVectorField;
    location    "42";
    object      momentum:angularMomentum;
}
// * * * * * * * * * * * * * * * * * * * * * * * * * * * * * * * * * * * * * //

dimensions      [1 1 -1 0 0 0 0];

internalField   nonuniform List<vector> 
59516
(
(-4.78608e-10 -1.15721e-09 2.26772e-07)
(6.09629e-10 -3.89855e-10 1.69943e-07)
(-7.06628e-10 1.71917e-09 2.06925e-07)
(-3.36856e-09 -4.11187e-10 1.74619e-07)
(-8.00222e-09 5.25834e-10 2.00166e-07)
(-5.20264e-09 2.77005e-09 5.03645e-08)
(-2.12497e-09 -2.47355e-09 2.11771e-07)
(-5.872e-10 -1.34545e-09 1.99457e-07)
(-1.34482e-09 1.81901e-10 1.59296e-07)
(3.19126e-09 1.59913e-09 8.1825e-08)
(-2.87953e-09 -4.56787e-10 2.07754e-07)
(-4.76494e-09 -3.86534e-09 1.02893e-07)
(-2.50432e-09 -1.69379e-09 3.2642e-07)
(7.70475e-11 -1.64979e-10 1.60079e-08)
(3.78361e-10 -9.10025e-09 1.55435e-07)
(-2.36495e-09 6.18787e-09 8.66765e-08)
(-1.62661e-09 -5.90097e-10 2.65944e-07)
(-1.2874e-08 -3.62287e-09 1.5997e-07)
(-1.62534e-08 -3.7957e-09 3.30657e-07)
(-3.91173e-10 1.40897e-09 3.68459e-07)
(-2.40809e-09 1.14759e-09 1.00204e-07)
(8.19563e-10 1.16233e-09 3.18495e-07)
(-2.54554e-09 -1.63442e-09 3.51235e-07)
(9.44996e-10 5.82333e-10 3.56775e-08)
(8.27285e-10 1.713e-09 3.10664e-07)
(-8.55879e-10 4.83267e-09 2.05713e-07)
(-6.82126e-10 3.66901e-09 5.35721e-08)
(-5.74739e-09 -2.52967e-09 7.43822e-08)
(-5.39318e-09 -2.08462e-09 1.4554e-07)
(1.74123e-09 1.3985e-09 1.38662e-08)
(-3.76057e-08 2.10995e-09 1.89434e-07)
(-5.33255e-09 4.06752e-09 8.39923e-08)
(-1.03627e-09 -4.02175e-10 1.75655e-07)
(-3.53737e-09 -1.61156e-09 1.77145e-07)
(-5.82171e-09 -1.59941e-10 1.33394e-07)
(-5.76336e-10 3.49813e-10 3.99487e-07)
(-2.02338e-09 1.05837e-09 1.34672e-08)
(-1.29845e-08 -4.13448e-09 1.31829e-07)
(-1.00112e-08 1.25103e-09 2.68238e-07)
(1.72743e-09 6.79332e-10 2.78984e-07)
(2.74779e-10 -1.72951e-09 2.61242e-07)
(-3.1819e-08 5.74303e-11 4.06645e-07)
(-9.80885e-09 2.02016e-09 3.43026e-07)
(-7.3935e-10 4.41764e-10 1.12678e-07)
(-7.75154e-09 1.51446e-09 2.65539e-07)
(2.77626e-09 7.71736e-10 1.04677e-07)
(-1.14818e-08 2.691e-10 3.25329e-07)
(-6.48788e-09 1.02728e-09 2.52885e-07)
(-3.44362e-08 3.12094e-09 2.51858e-07)
(-1.29377e-08 1.86592e-10 2.40219e-07)
(-2.82008e-08 8.24577e-10 1.63909e-07)
(-7.0696e-09 -3.40037e-09 7.83659e-08)
(7.16687e-10 -6.51791e-09 3.19203e-07)
(-8.58996e-10 9.58281e-10 3.03504e-07)
(-4.91875e-09 1.18052e-09 8.29722e-08)
(-4.65782e-09 7.23906e-10 2.46698e-07)
(-1.6486e-08 -5.05038e-11 2.03062e-07)
(-7.66246e-09 -2.8545e-09 7.99944e-08)
(-3.24971e-10 -2.30352e-10 2.04451e-07)
(-1.07497e-08 -4.27027e-10 1.45651e-07)
(-7.99216e-11 6.5693e-10 2.0828e-07)
(-1.2014e-09 1.65598e-09 1.56988e-08)
(-5.75036e-10 8.13706e-10 2.61451e-07)
(-4.86401e-09 4.05166e-10 3.38195e-07)
(-1.3198e-09 8.92733e-10 2.96087e-07)
(-8.3878e-09 2.07222e-10 2.14609e-07)
(1.46916e-10 2.11932e-09 1.87346e-08)
(-2.18204e-10 4.68063e-10 6.77489e-08)
(-3.72334e-08 6.114e-10 1.98265e-07)
(-3.19197e-09 -1.1754e-09 1.69559e-07)
(-9.28829e-10 -1.27448e-09 5.36247e-08)
(-1.15949e-09 -6.95602e-10 1.55994e-07)
(3.67882e-09 -1.48339e-09 2.40383e-08)
(-8.01069e-10 -4.10773e-10 1.86174e-07)
(-9.83035e-11 -2.73908e-10 3.6636e-07)
(-6.26221e-09 3.69239e-10 3.59238e-07)
(-4.54278e-09 9.80913e-11 2.13449e-07)
(-1.81615e-10 2.35687e-10 2.26002e-07)
(3.51981e-09 1.94255e-09 8.71574e-08)
(-9.95204e-09 9.64972e-10 1.92319e-07)
(-3.48463e-09 6.1845e-11 5.2316e-08)
(-7.91268e-09 5.3027e-10 1.70884e-07)
(-7.41857e-09 5.81662e-10 1.82536e-07)
(-2.38849e-09 1.28786e-09 1.87412e-08)
(-9.75016e-09 1.17576e-09 2.14532e-07)
(4.19331e-10 1.49728e-09 3.73067e-07)
(6.31464e-10 1.12399e-09 3.25072e-08)
(2.02162e-09 5.30888e-10 5.02943e-07)
(-4.40844e-09 -2.35063e-09 1.1288e-07)
(-1.53384e-08 -3.85829e-09 1.66915e-07)
(-1.5931e-08 -4.9256e-11 1.83407e-07)
(-1.742e-09 1.72067e-09 1.88731e-07)
(-1.70158e-10 1.28225e-10 2.5455e-07)
(-2.3735e-10 1.69969e-09 1.82354e-07)
(-3.47246e-10 3.90171e-10 1.80003e-07)
(-1.88501e-08 -9.12359e-11 1.83454e-07)
(-5.94913e-10 -4.64086e-10 1.24498e-07)
(3.35028e-09 6.6014e-09 8.68351e-08)
(-4.2012e-09 -1.78772e-09 1.15737e-07)
(1.93083e-09 1.59508e-09 2.07198e-07)
(-2.08059e-09 1.57885e-09 6.371e-08)
(3.02683e-09 1.53035e-09 2.7227e-08)
(3.03789e-09 1.59775e-09 2.40353e-08)
(-3.12127e-09 3.62202e-09 8.70195e-08)
(1.14847e-09 -1.56483e-10 2.35302e-07)
(-2.84814e-10 -6.82629e-11 1.62592e-07)
(2.64797e-09 -4.66726e-09 5.69894e-08)
(-8.92006e-10 -5.6122e-10 1.39827e-07)
(-6.27517e-10 1.06647e-09 1.7841e-07)
(-4.25568e-09 6.70955e-09 1.92818e-07)
(-4.18746e-08 -5.28284e-10 2.80265e-07)
(3.36498e-09 -3.04951e-09 4.44625e-08)
(-7.32912e-09 9.41776e-09 1.91615e-07)
(-3.60955e-08 -8.67945e-11 2.19219e-07)
(4.75619e-11 -1.30208e-10 2.19285e-07)
(1.28231e-09 -1.60877e-09 1.3969e-07)
(-4.4285e-09 -2.66573e-09 1.29581e-07)
(-5.08814e-10 -7.09109e-10 1.44541e-07)
(-3.46252e-10 -8.78955e-10 1.88979e-08)
(-1.69944e-09 1.85961e-09 2.6211e-07)
(1.30477e-09 3.46209e-10 3.98219e-07)
(-2.85261e-10 4.18059e-10 1.73406e-07)
(6.75758e-10 5.3128e-10 1.59144e-07)
(-7.49143e-10 4.47315e-10 1.79999e-07)
(-1.79703e-08 1.20091e-09 1.33e-07)
(-4.94859e-09 1.54072e-10 1.443e-07)
(-2.28544e-09 -1.02838e-09 3.68607e-08)
(-2.04925e-08 3.25207e-09 2.12114e-07)
(-2.37366e-08 5.58141e-09 1.63202e-07)
(4.04461e-10 -2.04454e-10 1.56022e-07)
(4.40923e-10 -6.80442e-10 2.75991e-07)
(4.58638e-09 5.69417e-09 3.27983e-07)
(-5.5275e-10 -2.03139e-09 2.33212e-08)
(5.50563e-10 9.85649e-10 2.55565e-07)
(3.64816e-09 1.06481e-09 3.19713e-07)
(-3.03135e-09 1.85595e-09 1.99601e-07)
(-2.19237e-08 1.98954e-09 1.51824e-07)
(5.60019e-10 1.27171e-09 3.15734e-07)
(-4.93652e-10 3.61369e-09 5.34486e-08)
(-1.54408e-09 1.46197e-09 1.61252e-07)
(-1.76066e-09 3.85997e-09 7.82238e-08)
(-8.48803e-10 -6.69663e-10 3.21932e-07)
(-6.8692e-10 -1.21714e-09 1.42631e-08)
(-4.62776e-10 1.41202e-09 1.51929e-07)
(-6.56865e-10 4.20719e-10 2.12347e-07)
(-2.75056e-09 1.44799e-09 2.83582e-07)
(-6.88291e-09 1.91938e-09 2.03188e-07)
(-4.4546e-09 2.11719e-09 2.0704e-07)
(9.7709e-10 -1.81836e-09 6.40344e-08)
(-3.12403e-10 2.20076e-09 2.09506e-07)
(9.25048e-11 -2.56848e-09 3.23072e-07)
(2.58936e-10 2.01136e-09 5.39774e-08)
(2.20005e-09 2.37133e-09 3.82398e-07)
(8.60766e-10 3.29201e-10 2.17703e-07)
(-1.04796e-09 -3.55365e-09 1.61475e-07)
(-1.43226e-09 8.44374e-10 1.50935e-08)
(-1.70634e-10 -4.86957e-10 2.81275e-07)
(-2.9915e-09 2.05616e-09 3.34107e-07)
(-1.64198e-09 8.6808e-10 1.30915e-07)
(-2.35743e-09 -1.67344e-09 1.62435e-08)
(3.8786e-09 3.35941e-09 9.05223e-08)
(6.38497e-09 -3.53875e-09 1.13619e-07)
(-7.33498e-10 1.58067e-09 4.08201e-08)
(-2.22585e-10 -4.46167e-10 2.31223e-08)
(4.88492e-09 1.55583e-10 1.65305e-07)
(-1.946e-09 9.68782e-10 3.23397e-07)
(2.03898e-09 -1.01001e-10 1.5861e-07)
(-9.67201e-10 -3.63867e-10 2.76182e-07)
(1.06379e-09 2.0553e-09 1.76483e-08)
(-2.89472e-10 -8.38205e-10 2.14657e-07)
(-1.41813e-09 -1.17264e-09 8.83924e-08)
(-1.1375e-09 8.86134e-10 6.85614e-08)
(-5.21083e-11 -3.08701e-09 1.08071e-07)
(4.73575e-10 -7.51048e-10 1.51894e-07)
(8.51745e-10 1.1934e-09 8.69042e-08)
(-1.68868e-08 -1.87665e-09 4.53595e-07)
(-1.49315e-09 4.82069e-10 2.44883e-07)
(-1.2287e-08 1.21787e-09 3.09804e-07)
(1.02519e-09 -7.32251e-09 1.51397e-07)
(7.23738e-10 4.74378e-10 6.37821e-08)
(-2.27846e-09 -3.86393e-09 3.07492e-07)
(1.18382e-09 4.00675e-09 4.37339e-08)
(-1.09279e-09 -2.18709e-09 3.06201e-08)
(9.57032e-10 2.60945e-09 1.06806e-07)
(2.64406e-10 -5.49378e-10 2.01452e-07)
(-6.47334e-10 1.12356e-09 9.90578e-08)
(-3.64708e-09 7.77938e-10 4.69805e-08)
(1.30509e-10 2.45727e-10 2.07719e-08)
(-1.82391e-10 8.4071e-11 1.92603e-07)
(3.46637e-09 1.98592e-09 2.28841e-07)
(-3.38169e-09 -3.83836e-10 1.58803e-07)
(-2.01211e-09 -6.79701e-09 1.17398e-07)
(-5.80849e-10 -4.98665e-10 2.13322e-07)
(2.83176e-09 -2.43587e-09 9.61853e-08)
(-4.20562e-10 9.39845e-11 3.39124e-07)
(4.21547e-10 7.38819e-10 2.92762e-08)
(1.32396e-09 2.64899e-10 9.90934e-08)
(4.42415e-10 -1.54702e-09 5.80726e-08)
(-7.92826e-09 -3.77806e-10 1.88096e-07)
(8.80986e-10 -9.31536e-10 2.63794e-07)
(-1.6463e-09 -2.14102e-09 7.85851e-08)
(-6.77032e-10 -4.40979e-10 1.88909e-07)
(6.44772e-10 3.44409e-09 3.16523e-07)
(1.40396e-09 -1.61482e-09 1.63649e-08)
(1.74033e-09 1.6247e-09 2.22149e-07)
(-2.43619e-10 -3.72395e-10 2.39015e-07)
(1.19764e-10 -3.91038e-10 3.43242e-07)
(1.01414e-09 -1.13694e-09 1.97737e-07)
(1.71702e-10 -5.63862e-10 1.85606e-08)
(4.66737e-09 2.40861e-09 3.05359e-07)
(-5.75608e-10 5.72719e-09 6.18776e-08)
(-4.10589e-09 8.5576e-10 2.52619e-08)
(-1.6453e-09 1.60931e-09 2.32491e-07)
(-4.99002e-10 2.35586e-09 9.69318e-08)
(-1.91703e-09 -2.90389e-09 2.96571e-07)
(-2.39852e-11 -4.28908e-10 2.8579e-07)
(-1.84617e-09 8.29201e-10 2.73075e-07)
(-1.40286e-09 1.16967e-09 2.07386e-07)
(-2.74995e-09 4.88044e-09 8.46846e-08)
(1.14663e-09 8.57213e-11 2.18454e-07)
(-2.30234e-09 -5.8233e-09 1.21321e-07)
(-2.92423e-10 6.51756e-10 1.96838e-07)
(-8.70127e-10 -9.69651e-10 1.78277e-07)
(8.01583e-10 -1.15427e-09 7.60191e-08)
(-6.5912e-10 -5.8359e-10 2.93507e-07)
(1.35333e-09 5.47818e-10 3.06817e-07)
(-1.17386e-09 -1.22032e-09 3.2445e-08)
(-3.71081e-09 8.36605e-10 6.66086e-08)
(5.55326e-11 9.60998e-10 1.97352e-07)
(-4.49225e-09 7.65389e-09 1.19893e-07)
(4.70874e-10 8.53463e-10 2.39677e-07)
(-4.84744e-10 3.36306e-10 1.78088e-07)
(-1.52804e-09 -1.02444e-09 3.14029e-07)
(-1.34817e-09 -2.2786e-09 2.73225e-08)
(-1.32107e-09 -1.17413e-09 3.18918e-08)
(-1.75969e-09 1.51151e-11 3.99299e-08)
(3.18351e-10 -7.36095e-10 1.10898e-07)
(-2.53443e-09 -5.55919e-10 1.76845e-07)
(-4.16373e-09 9.59763e-10 4.17685e-07)
(2.90081e-09 -4.38956e-10 8.8252e-08)
(8.08088e-10 3.75055e-10 2.46866e-07)
(2.33829e-09 1.64087e-09 1.91511e-08)
(1.43438e-09 1.09143e-09 1.1176e-07)
(2.59854e-09 1.56146e-09 2.74966e-08)
(6.58865e-10 2.32734e-10 1.62048e-07)
(-5.47842e-10 -8.62532e-10 1.54804e-07)
(-1.1549e-09 2.60085e-10 1.96776e-07)
(-1.74082e-09 4.34594e-09 1.88953e-07)
(-1.88578e-10 6.71278e-12 2.76375e-07)
(-8.19248e-10 -5.27775e-10 2.01728e-07)
(2.11126e-09 -3.50799e-10 3.79836e-07)
(-9.79547e-10 2.5195e-10 2.13346e-07)
(6.98209e-10 3.3891e-10 1.89844e-07)
(3.53412e-10 1.29089e-09 2.81799e-07)
(-1.20631e-09 2.57108e-09 2.82548e-07)
(-6.59495e-10 1.09466e-09 2.99149e-07)
(-5.41154e-10 1.96467e-11 1.13518e-07)
(-3.29992e-09 6.91518e-10 2.83349e-07)
(2.384e-09 3.94301e-09 8.19675e-08)
(-4.61976e-10 3.54754e-09 9.92259e-08)
(-1.8365e-09 9.89989e-10 2.19684e-07)
(-5.7506e-10 1.11361e-09 2.60695e-07)
(6.53124e-09 1.58492e-09 2.40856e-07)
(4.79978e-10 8.65761e-10 2.81704e-07)
(1.63298e-09 1.15015e-10 7.5336e-08)
(2.20941e-11 -5.14496e-09 1.0889e-07)
(-8.63659e-10 -1.84649e-09 3.03148e-07)
(4.53707e-09 3.60275e-10 2.17374e-07)
(-7.42191e-10 -1.17243e-09 6.24077e-08)
(-5.76264e-10 2.05433e-09 7.53427e-08)
(-3.68145e-09 3.7618e-09 1.65956e-07)
(-6.52527e-10 -4.31951e-10 1.84806e-07)
(-4.50546e-09 5.70286e-09 3.1114e-07)
(-9.47313e-10 2.36901e-09 1.5077e-07)
(-2.31661e-09 -1.60852e-10 3.32292e-07)
(1.40554e-10 5.32496e-09 1.92513e-07)
(-1.16699e-09 -2.47153e-09 1.98272e-08)
(1.34619e-09 1.26385e-09 2.96548e-07)
(2.48259e-09 -1.89762e-09 2.92449e-08)
(2.28648e-09 1.19773e-09 5.30651e-08)
(-1.79281e-09 -9.21365e-10 3.4801e-07)
(-6.17106e-10 3.29073e-10 2.50904e-07)
(-3.79953e-09 1.9737e-09 2.81536e-08)
(-4.88793e-10 -2.45155e-09 3.00063e-07)
(-2.31521e-09 -4.06734e-09 2.48059e-07)
(-1.38301e-09 9.29865e-10 2.4805e-07)
(9.60836e-10 -7.13771e-10 3.19793e-07)
(2.00782e-09 -2.01398e-09 2.35911e-08)
(-2.93736e-10 9.60242e-10 2.75539e-07)
(-4.40028e-10 -4.86614e-10 1.46038e-07)
(-4.21499e-10 -7.34566e-10 1.57601e-07)
(-1.78062e-09 1.01011e-10 2.53506e-07)
(-1.5828e-09 1.13526e-09 1.70252e-07)
(-7.87632e-10 -6.79966e-10 1.78787e-07)
(2.12909e-10 -1.72897e-09 2.63776e-07)
(1.61625e-13 2.28097e-09 3.92067e-08)
(4.87964e-10 -1.69358e-09 2.80475e-07)
(1.01112e-09 9.13297e-10 1.90746e-07)
(-9.99268e-10 -9.4547e-10 3.55184e-07)
(-9.09387e-10 -4.94027e-10 2.6421e-07)
(1.5278e-09 -1.62629e-09 3.09881e-07)
(2.3656e-09 -2.71461e-09 1.38157e-07)
(-6.22627e-10 -1.28649e-09 2.00315e-08)
(9.20026e-10 5.5264e-10 3.59363e-08)
(-3.84439e-09 1.46315e-09 5.08684e-07)
(-2.68412e-09 1.08446e-09 1.85371e-08)
(-2.22702e-09 -2.16384e-09 1.74494e-07)
(-1.41136e-09 4.17932e-09 7.40406e-08)
(-1.77906e-10 -1.55159e-09 3.11086e-07)
(-1.01345e-09 -3.91007e-10 3.68675e-07)
(-3.34722e-10 1.04433e-09 3.13625e-07)
(2.36824e-09 1.39826e-09 1.23751e-07)
(7.61239e-09 -4.16888e-11 2.97754e-07)
(1.15224e-10 7.2752e-09 6.85279e-08)
(6.83983e-10 -2.70133e-09 8.76318e-08)
(-2.40678e-10 6.28442e-10 1.98062e-07)
(7.71084e-10 -2.19535e-09 1.57221e-07)
(-3.19496e-08 -3.85523e-09 2.69481e-07)
(4.60088e-10 -4.43551e-09 1.93016e-07)
(-7.16287e-10 -6.46581e-11 6.49685e-08)
(3.51903e-09 -2.06357e-10 1.0387e-07)
(-1.18589e-09 -3.37679e-09 2.07773e-07)
(-1.80473e-10 -5.04491e-11 2.12188e-07)
(6.05361e-10 -1.93162e-09 4.12542e-07)
(-1.02149e-09 6.65754e-10 2.19755e-07)
(3.60456e-10 3.83987e-09 4.86121e-07)
(-1.00097e-08 -1.22777e-09 1.66826e-07)
(-3.02478e-09 -2.24408e-11 3.38214e-07)
(-2.25876e-09 1.47346e-09 2.73362e-07)
(7.96422e-10 2.9288e-10 1.95696e-07)
(2.09905e-09 5.81709e-11 3.34692e-07)
(-4.78247e-09 -4.21224e-09 1.04406e-07)
(2.92946e-09 -1.18654e-09 2.3414e-08)
(2.2789e-09 6.63035e-11 2.93191e-07)
(1.7017e-09 3.89233e-09 5.88805e-08)
(3.38977e-11 -1.58002e-10 2.85579e-08)
(-4.13441e-09 -8.56468e-11 3.90266e-07)
(7.27592e-10 5.07288e-10 1.99948e-07)
(-3.41867e-09 4.59289e-09 1.068e-07)
(-9.03712e-10 -1.38525e-09 2.4996e-07)
(8.53794e-10 2.7663e-09 3.25219e-07)
(-2.32713e-09 6.41642e-10 4.14327e-07)
(-1.63956e-09 3.30799e-11 2.63212e-07)
(-1.08362e-10 -1.44821e-09 3.14685e-08)
(1.15106e-10 -2.16633e-10 3.15233e-07)
(-1.74482e-09 4.08161e-10 2.14266e-07)
(3.67008e-10 1.31643e-09 9.95964e-08)
(-3.62016e-10 -2.06066e-09 2.87996e-07)
(-7.45513e-10 6.2281e-10 2.466e-07)
(8.62253e-10 7.78848e-10 1.74026e-07)
(9.49592e-10 1.13974e-09 2.0007e-07)
(-5.90574e-10 -2.95689e-09 2.74762e-07)
(1.15919e-09 1.58073e-09 2.0126e-07)
(-4.51388e-10 1.54471e-10 7.82569e-08)
(-3.93279e-10 9.79759e-10 2.02305e-08)
(3.45487e-10 2.86856e-09 3.96514e-08)
(1.15021e-09 -1.03924e-10 2.2078e-07)
(-3.90868e-08 -1.8807e-10 2.67862e-07)
(-1.14088e-08 1.19658e-09 1.15801e-07)
(4.04375e-10 -4.68392e-10 1.12217e-07)
(3.29457e-09 -2.83437e-09 2.48806e-07)
(-9.35334e-10 1.23759e-09 3.08634e-07)
(-5.94256e-09 6.46624e-10 2.30595e-07)
(1.25239e-09 1.53972e-09 3.57929e-07)
(-1.18658e-09 -1.50945e-09 3.38449e-07)
(-1.19244e-10 -8.8066e-10 2.22886e-07)
(-9.12651e-10 -1.29102e-10 1.379e-07)
(-3.31172e-10 6.93914e-10 2.40495e-08)
(-4.78567e-08 1.74144e-09 2.41044e-07)
(6.51723e-10 2.31174e-09 8.77526e-08)
(-1.549e-09 2.53538e-09 6.43782e-08)
(1.36627e-09 5.5751e-10 6.8062e-08)
(2.0104e-10 5.75561e-10 1.71808e-07)
(-7.71526e-10 5.0304e-10 1.74237e-07)
(-1.6738e-09 5.48554e-10 2.34464e-07)
(-1.12943e-09 1.3317e-09 1.7091e-08)
(5.20681e-10 -3.93885e-10 1.7001e-07)
(1.71806e-09 -1.00177e-09 6.49431e-08)
(-2.79793e-10 4.40587e-10 1.84848e-07)
(-5.81347e-10 7.22994e-10 5.58074e-08)
(4.26232e-09 1.75453e-09 1.48245e-07)
(1.61714e-09 5.57455e-09 2.19991e-07)
(-1.92938e-09 -1.96984e-10 1.85009e-07)
(2.56141e-09 -1.78262e-10 1.90244e-08)
(-1.86162e-10 5.03396e-09 1.13121e-07)
(-3.26986e-12 -1.0954e-09 2.38982e-07)
(5.27774e-11 -2.5271e-09 2.53429e-08)
(-2.0472e-08 -5.91138e-10 2.89468e-07)
(7.57159e-10 -4.08137e-09 1.82893e-07)
(-2.09208e-10 -4.65939e-09 3.04006e-07)
(4.88474e-09 -5.49539e-09 2.00961e-07)
(2.35478e-09 7.80577e-10 9.43623e-08)
(1.92959e-09 -8.36829e-10 3.91193e-07)
(-1.86951e-08 -5.94115e-09 1.42028e-07)
(-1.0437e-09 -2.99229e-10 3.22725e-07)
(-1.73543e-08 1.10838e-09 1.55482e-07)
(-5.13611e-09 3.77911e-09 1.4269e-07)
(-9.64558e-10 3.35827e-09 1.44702e-07)
(-2.47131e-10 -9.51007e-10 2.67338e-07)
(1.64419e-09 -2.27068e-09 5.31718e-07)
(9.34229e-10 -8.05965e-10 8.09059e-08)
(-8.19864e-10 -1.78493e-09 3.38381e-07)
(-2.73533e-09 9.26669e-10 1.20522e-07)
(5.47047e-10 -1.51569e-09 4.27572e-07)
(7.19482e-10 -1.86344e-09 3.26162e-07)
(-1.62678e-09 -5.3957e-09 7.05786e-08)
(-7.88992e-10 1.47534e-09 2.18416e-07)
(5.92149e-09 -4.57694e-10 3.81083e-07)
(-8.59653e-10 -6.3278e-10 2.27775e-07)
(4.55306e-10 -1.05555e-09 2.20979e-07)
(2.76252e-09 -1.45945e-09 2.393e-08)
(-2.61527e-09 -6.95745e-10 1.99908e-08)
(-3.3427e-09 3.11344e-09 2.94197e-07)
(1.40002e-10 -5.39179e-11 2.79624e-07)
(1.69278e-09 1.23915e-09 2.16437e-07)
(-2.34148e-09 1.24779e-09 3.62301e-08)
(6.22923e-10 -5.59953e-10 8.78627e-08)
(-3.30662e-09 -1.2617e-10 3.04385e-07)
(-4.13604e-10 -5.62668e-10 1.64699e-07)
(7.83253e-10 1.43348e-09 3.04663e-07)
(1.35183e-09 4.91077e-10 2.79079e-07)
(-9.7237e-11 -1.20969e-09 2.1569e-07)
(-3.78392e-10 -2.14336e-09 2.30173e-07)
(3.92664e-10 -7.79326e-10 1.23007e-07)
(-1.05824e-09 4.77785e-10 2.09376e-07)
(-3.00089e-09 3.66403e-09 8.91539e-08)
(-7.38866e-10 1.60597e-10 2.84749e-07)
(-1.71836e-09 -1.09263e-09 1.91627e-07)
(-1.41441e-09 -2.38472e-10 2.13436e-07)
(-2.95636e-10 -2.49841e-10 2.17038e-07)
(-3.39376e-10 1.01494e-09 3.50041e-07)
(1.8563e-09 -1.06511e-09 2.65162e-07)
(2.98131e-09 4.42861e-09 6.87144e-08)
(1.1839e-09 6.08079e-11 4.543e-08)
(-1.83605e-09 -1.86942e-09 1.98281e-08)
(-1.25437e-08 7.5137e-11 2.31179e-07)
(2.2406e-10 7.96211e-11 2.87553e-07)
(-2.06058e-09 3.05693e-10 2.71541e-07)
(-9.79956e-11 -1.66133e-09 1.94044e-07)
(1.10005e-09 2.06056e-10 3.03581e-08)
(7.03011e-10 -2.54373e-09 2.28662e-08)
(-1.06336e-09 -2.62147e-09 1.82407e-07)
(-1.76978e-09 1.38814e-09 2.30951e-07)
(-6.78327e-10 -1.56441e-09 3.0487e-07)
(8.30895e-10 -4.72623e-10 3.18843e-07)
(-2.13501e-09 -8.45396e-11 1.99448e-07)
(-9.03229e-10 6.06623e-10 3.33214e-07)
(3.29983e-09 -4.38094e-11 3.76401e-07)
(-1.37852e-09 2.78311e-09 3.21721e-08)
(1.00829e-10 1.0571e-09 1.84053e-07)
(3.3808e-09 -1.92615e-09 7.41738e-08)
(-9.91028e-09 -1.09301e-09 9.75795e-08)
(-2.64369e-10 2.15154e-10 1.27591e-07)
(5.98601e-10 -2.89692e-10 1.44259e-07)
(-1.44565e-10 1.44179e-10 2.52145e-07)
(-3.3385e-09 2.08113e-09 1.97433e-08)
(1.44088e-09 -1.31709e-09 3.47959e-07)
(-4.81663e-10 -1.71285e-10 2.60444e-07)
(-1.06761e-09 1.31769e-10 2.10689e-07)
(1.54548e-09 -1.43956e-09 2.04859e-07)
(3.21968e-10 -1.58987e-09 1.70313e-07)
(-7.86069e-10 -1.24085e-09 2.5633e-07)
(-1.22695e-10 8.34029e-10 2.48307e-07)
(-1.69816e-09 8.04655e-10 2.95193e-07)
(-8.47492e-09 -9.99984e-10 1.67403e-07)
(-7.33388e-10 -7.18552e-10 2.63847e-07)
(-4.82778e-09 1.85928e-09 2.89892e-07)
(1.38703e-09 -1.16015e-09 1.88498e-08)
(3.45584e-10 7.3662e-10 2.98703e-07)
(2.19671e-09 2.64674e-09 1.92468e-07)
(-4.17069e-09 -3.88409e-09 6.58716e-08)
(-1.74272e-09 2.72292e-09 1.73874e-07)
(7.35748e-10 3.27404e-10 3.38856e-07)
(-1.41504e-11 -1.63769e-09 2.2572e-07)
(1.35753e-09 3.1529e-09 1.20579e-07)
(-2.07027e-09 1.42793e-09 1.86007e-08)
(-1.00563e-10 1.01179e-09 2.51989e-07)
(1.42265e-09 6.47659e-09 3.38277e-07)
(-9.10178e-10 -1.08712e-11 2.34244e-07)
(-1.16002e-09 -1.69974e-10 1.89524e-07)
(-3.627e-09 9.69582e-10 5.86133e-08)
(7.71133e-10 1.62668e-11 2.51582e-07)
(-4.02066e-09 3.04613e-10 2.66479e-08)
(6.19264e-12 7.72235e-10 1.72075e-07)
(-2.43931e-08 1.22889e-09 2.08663e-07)
(1.48307e-09 7.95861e-10 2.51485e-07)
(-4.52033e-10 3.08769e-09 8.99183e-08)
(-2.13944e-09 2.73426e-09 1.85183e-07)
(-3.20211e-10 1.57678e-09 1.17143e-07)
(2.76047e-09 -2.51183e-09 4.84712e-08)
(7.95718e-10 1.24659e-09 4.51914e-07)
(-9.5763e-10 -4.01028e-10 2.07033e-07)
(-1.75568e-09 -6.74362e-10 1.81443e-08)
(1.30492e-10 -1.13362e-09 2.76435e-07)
(-1.03346e-09 -1.57196e-10 2.74408e-07)
(-6.15152e-10 2.23667e-09 3.96322e-08)
(3.10781e-09 4.834e-09 1.29802e-07)
(-2.64559e-09 3.64491e-09 1.0076e-07)
(-7.02011e-10 7.21133e-10 1.89266e-07)
(-2.91875e-10 -4.7755e-10 2.52812e-07)
(-1.30794e-09 1.31751e-09 3.50965e-08)
(2.98672e-09 -1.28656e-09 9.28719e-08)
(-3.84498e-10 2.05021e-09 1.03897e-07)
(1.84975e-09 1.36664e-09 1.77658e-07)
(-6.91792e-10 -6.66953e-10 3.26674e-07)
(-2.81016e-09 -1.89794e-09 2.39116e-08)
(2.37354e-09 8.52654e-10 3.63257e-07)
(-4.04688e-09 -1.50168e-09 2.36421e-07)
(-1.34589e-10 -1.83663e-09 2.66496e-07)
(-2.97626e-09 -6.12097e-09 1.14194e-07)
(1.93747e-09 7.57513e-10 3.28125e-07)
(1.22295e-09 -2.25826e-09 2.3459e-08)
(-8.88057e-10 -2.09798e-10 2.93459e-07)
(1.75851e-10 -4.19371e-10 2.82913e-08)
(-2.20438e-10 -4.23417e-09 1.37269e-07)
(1.8008e-11 1.68243e-09 2.26091e-07)
(-2.52193e-09 3.55922e-09 1.39872e-07)
(-2.64296e-09 1.56567e-09 1.96214e-08)
(4.67341e-10 -1.87026e-09 5.17487e-08)
(6.61088e-10 4.84143e-09 7.74804e-08)
(1.81479e-09 -4.2256e-09 1.34079e-07)
(-1.6975e-09 -2.6663e-11 3.25736e-07)
(-6.15938e-11 1.33609e-09 5.86774e-08)
(2.5709e-09 -4.4822e-09 1.38566e-07)
(-2.71642e-08 1.10025e-09 2.25723e-07)
(-8.61837e-10 -6.41344e-10 2.09733e-07)
(1.93919e-09 8.63794e-12 2.96397e-08)
(6.03009e-10 2.16516e-09 2.27937e-07)
(-1.5356e-08 -7.7946e-09 1.47339e-07)
(1.2525e-09 5.53649e-11 1.9787e-07)
(-1.81455e-09 1.49954e-09 1.01666e-07)
(-1.27965e-09 -4.75376e-10 1.73236e-07)
(2.58216e-09 4.7445e-09 1.08314e-07)
(-9.5011e-10 6.2565e-10 1.62387e-07)
(-6.02091e-10 3.62165e-11 1.57297e-07)
(3.99986e-09 -6.2668e-09 7.38047e-08)
(-1.31437e-10 -1.4777e-11 2.90831e-07)
(-4.73745e-09 -1.25526e-09 7.11379e-08)
(2.19351e-09 -1.38165e-09 1.59162e-08)
(-1.29991e-09 1.45311e-09 3.15773e-07)
(2.40669e-10 -2.82603e-10 1.85074e-07)
(-2.07043e-09 1.14731e-09 2.95385e-07)
(1.45494e-09 -2.95662e-09 2.2894e-07)
(3.19879e-09 -3.86185e-10 4.53104e-07)
(3.90781e-09 -3.72824e-10 1.39879e-07)
(2.89721e-09 -8.04922e-10 4.025e-07)
(2.31214e-09 4.80974e-09 9.96058e-08)
(-2.02707e-10 -3.58405e-10 1.49637e-07)
(4.50367e-09 1.88096e-09 3.0768e-07)
(-3.90447e-09 -2.58762e-09 3.31046e-08)
(-1.78854e-09 6.26966e-10 3.01274e-07)
(2.43921e-09 -2.84911e-09 1.16169e-07)
(1.5315e-09 2.71814e-09 3.04977e-08)
(-1.72525e-09 6.45338e-10 2.77257e-07)
(-2.39055e-09 1.25866e-10 6.37268e-08)
(-4.41228e-11 5.87216e-10 2.033e-07)
(1.8631e-10 1.18496e-09 2.16004e-07)
(-5.64273e-10 1.80916e-09 3.74566e-07)
(2.16747e-10 6.43985e-09 9.75573e-08)
(2.61502e-09 -3.27457e-10 2.84285e-07)
(2.92987e-09 7.76182e-10 1.54298e-07)
(5.04797e-11 7.78228e-10 3.12329e-07)
(-5.30703e-10 3.84705e-10 3.16476e-07)
(7.96454e-10 1.34418e-09 2.78277e-07)
(2.79409e-11 -1.51926e-10 1.64842e-07)
(3.30597e-09 -1.34369e-09 4.94703e-08)
(5.60686e-10 5.6054e-10 7.09863e-08)
(1.59036e-10 -9.62201e-11 1.76941e-07)
(4.135e-11 -2.96993e-09 2.86349e-07)
(4.43985e-10 2.226e-09 2.90195e-08)
(6.38872e-10 -3.11615e-10 2.45528e-07)
(3.81751e-11 6.69603e-10 4.70753e-07)
(1.24069e-09 1.67332e-09 3.47575e-07)
(1.85914e-09 2.04652e-09 3.72838e-07)
(-2.98511e-09 1.66821e-09 2.50527e-07)
(-1.60236e-09 2.22994e-09 2.05801e-08)
(8.1712e-10 -2.9329e-11 2.26579e-07)
(1.25035e-09 -2.06154e-09 1.4904e-07)
(-9.02697e-10 7.54468e-10 2.64875e-07)
(-2.33843e-10 3.76442e-10 1.62254e-07)
(-2.21484e-09 -1.37231e-09 3.62932e-08)
(-8.44645e-10 -1.45044e-10 2.078e-07)
(-3.29266e-09 4.22429e-09 1.5264e-07)
(5.14416e-10 -4.35189e-10 2.4525e-07)
(1.14323e-09 1.25535e-09 2.68435e-07)
(-1.25206e-09 1.8923e-09 2.00388e-07)
(1.27191e-09 1.64494e-09 1.39564e-08)
(-2.14861e-09 9.8858e-10 2.05112e-08)
(-2.56204e-10 -3.09889e-10 1.85696e-07)
(1.51047e-09 -1.3242e-09 3.06201e-07)
(-7.43311e-10 1.58852e-09 2.27808e-07)
(-1.25019e-09 -8.5844e-10 1.82403e-07)
(-6.15988e-10 2.56239e-09 1.62115e-07)
(-7.54331e-10 1.90012e-09 2.56242e-07)
(1.80693e-11 9.6699e-10 2.86472e-07)
(7.09421e-10 1.63642e-09 1.98793e-08)
(-4.46034e-10 -2.26836e-10 1.47617e-07)
(-1.91969e-08 1.22304e-09 1.74075e-07)
(-1.02629e-10 2.59107e-09 4.72309e-08)
(-6.08973e-10 5.65202e-09 8.61048e-08)
(-5.05821e-10 1.99826e-09 3.07063e-07)
(2.8407e-09 -1.00424e-09 2.12692e-07)
(3.90427e-10 -7.32811e-10 1.98009e-07)
(1.61468e-09 -9.71999e-10 2.37663e-07)
(-4.13651e-09 2.91495e-09 1.40557e-07)
(-4.56266e-10 -3.84181e-10 3.30379e-07)
(1.32389e-09 -5.46054e-09 1.81562e-07)
(2.26802e-09 -1.12952e-09 4.26347e-07)
(3.60247e-10 9.91569e-10 2.18476e-07)
(1.20267e-09 -4.14816e-10 2.3925e-07)
(1.19592e-09 -1.3771e-09 3.14305e-07)
(1.93278e-09 1.5002e-09 4.86712e-08)
(2.89348e-09 -1.14486e-10 5.38943e-07)
(-3.65956e-10 -1.69306e-09 3.42196e-08)
(-1.66866e-08 -2.27066e-09 1.48935e-07)
(3.90519e-09 -2.71366e-09 1.18238e-07)
(-1.68026e-08 -7.79256e-11 1.61655e-07)
(1.28213e-09 9.91848e-10 2.15106e-07)
(-4.82616e-08 1.17604e-09 2.90718e-07)
(1.36923e-10 4.00292e-10 1.3867e-07)
(-7.24281e-10 -2.73724e-10 3.21775e-07)
(-1.4074e-09 4.48712e-10 3.38655e-07)
(8.3859e-10 1.07578e-09 2.13348e-07)
(-6.4219e-10 -1.66093e-10 3.57961e-08)
(-5.36989e-09 1.67957e-10 1.18484e-07)
(-3.0147e-08 2.12775e-09 2.10292e-07)
(-3.90239e-10 -1.53733e-10 2.15152e-07)
(-6.53937e-10 2.101e-09 1.01689e-07)
(-2.24327e-08 1.53706e-09 2.1808e-07)
(-8.30679e-09 6.01135e-10 2.37762e-07)
(1.74276e-09 2.88503e-09 3.11904e-07)
(-1.69629e-09 -7.16019e-10 4.50337e-08)
(1.51426e-09 2.69562e-09 5.49262e-08)
(-2.59726e-10 -1.42192e-10 2.78257e-08)
(1.14826e-09 1.04176e-09 2.01196e-08)
(-2.60644e-10 -1.70085e-11 4.50952e-08)
(-1.76861e-08 6.76522e-10 2.21605e-07)
(-1.068e-09 -5.41334e-10 1.83445e-07)
(-1.84275e-09 -2.02663e-09 1.91421e-08)
(-2.69199e-09 7.26848e-10 2.10611e-08)
(5.03104e-10 6.04293e-10 3.51274e-07)
(-2.57522e-08 5.64913e-09 1.66143e-07)
(-2.22068e-09 1.50227e-10 4.77816e-08)
(-7.23065e-10 -2.02191e-10 2.28391e-07)
(-1.69522e-09 9.04713e-10 1.0908e-07)
(1.80118e-09 -4.92887e-10 2.04153e-07)
(1.48467e-09 2.23873e-09 4.52599e-08)
(-1.9039e-09 -2.4554e-09 9.48028e-08)
(4.14346e-10 2.06964e-09 1.94787e-07)
(9.4944e-10 6.05506e-10 2.69304e-07)
(6.86844e-10 2.05545e-09 4.00576e-07)
(-2.26476e-09 3.13401e-09 4.40231e-08)
(-6.66167e-10 -2.2044e-09 2.51238e-08)
(-3.58794e-08 3.87189e-10 2.01611e-07)
(-3.03682e-09 2.14947e-09 2.85684e-08)
(-2.22575e-10 3.24627e-09 3.12743e-07)
(-3.87184e-09 -1.21943e-09 2.96317e-08)
(8.61853e-10 3.08704e-09 1.50053e-07)
(-1.24437e-09 -5.88268e-10 3.06154e-07)
(3.02216e-09 8.2787e-10 4.30249e-07)
(-6.19318e-10 -1.38607e-09 6.04007e-08)
(1.253e-09 -8.80764e-10 1.41685e-07)
(-2.13957e-09 -3.11603e-10 3.95238e-08)
(-3.70754e-09 -2.09132e-10 2.95276e-08)
(2.46007e-10 -1.15461e-09 2.6109e-07)
(-2.10281e-09 1.02191e-09 1.51066e-08)
(1.12888e-09 2.96241e-10 1.79913e-07)
(-5.87435e-10 -3.17383e-09 6.27668e-08)
(-5.0107e-10 2.31907e-09 3.26331e-07)
(-3.79091e-10 8.88281e-10 2.2801e-07)
(2.94495e-09 1.19344e-09 1.97446e-08)
(-2.42812e-09 -6.27513e-09 1.37446e-07)
(-7.99701e-11 1.01954e-09 2.48805e-07)
(-1.27857e-10 1.55325e-09 3.21014e-08)
(1.04429e-09 -8.73465e-10 2.8794e-07)
(-1.95958e-09 5.64615e-09 8.09319e-08)
(5.21345e-10 1.84641e-10 2.17524e-07)
(1.03926e-09 5.95807e-10 2.2665e-07)
(2.09983e-09 3.80669e-11 5.66413e-08)
(-2.92293e-09 -5.91102e-10 2.1753e-08)
(-1.83518e-09 -6.67003e-10 9.46783e-08)
(-3.9135e-08 1.95765e-10 2.43626e-07)
(-1.2338e-09 6.00671e-11 2.29467e-07)
(2.13781e-10 5.21302e-09 7.9024e-08)
(2.87968e-09 -4.33053e-10 1.86904e-07)
(3.86954e-10 1.06819e-09 2.51202e-08)
(1.1696e-09 4.45496e-10 2.01013e-07)
(1.05494e-09 1.40489e-09 2.37561e-08)
(-1.15679e-09 1.41188e-09 3.34082e-07)
(6.17029e-10 3.85401e-10 3.02822e-07)
(-5.96977e-11 1.46395e-10 2.19411e-07)
(-1.4852e-09 -1.75226e-10 1.48031e-08)
(1.44177e-09 -6.57123e-11 3.4293e-07)
(-9.57567e-10 8.21763e-10 1.58259e-07)
(3.29816e-10 5.63061e-10 3.57027e-07)
(1.85753e-10 6.46324e-10 6.4184e-08)
(-3.01315e-08 8.07152e-10 2.22551e-07)
(-2.20557e-09 1.34641e-09 2.63133e-07)
(1.13192e-09 -8.42783e-11 6.7432e-08)
(3.81116e-11 1.16603e-09 2.51347e-07)
(-3.94819e-08 4.60153e-09 2.10054e-07)
(-1.12671e-09 -5.91725e-10 1.83116e-07)
(-7.91062e-10 -1.88088e-09 3.35443e-08)
(-2.47629e-09 4.90685e-09 1.03463e-07)
(-2.21374e-10 1.20629e-10 1.8984e-07)
(1.17497e-09 -1.87168e-09 2.19254e-07)
(-1.11717e-09 1.38096e-09 3.27549e-08)
(-5.26267e-10 -4.09225e-09 2.20893e-07)
(4.24072e-09 3.02319e-09 1.60827e-07)
(-1.74685e-09 2.00491e-09 2.52462e-08)
(-5.08245e-10 5.06041e-12 2.02231e-07)
(-1.55149e-08 7.36692e-10 1.58315e-07)
(-2.5727e-09 -5.5502e-09 3.27717e-07)
(-9.8876e-11 4.05817e-10 2.00056e-07)
(4.98524e-10 3.29252e-10 1.81377e-07)
(7.08226e-10 -8.31476e-10 3.0807e-07)
(1.46425e-09 -4.95628e-11 2.57279e-07)
(1.91369e-09 6.39791e-10 7.20513e-08)
(-8.55575e-10 5.0429e-09 7.37354e-08)
(1.6478e-09 8.05555e-10 3.74392e-07)
(-2.68135e-08 -1.15305e-09 2.24781e-07)
(3.87486e-10 2.21781e-09 2.11191e-07)
(2.08644e-09 -1.44628e-09 1.89931e-07)
(2.98973e-09 -1.3902e-09 1.29229e-07)
(-1.04189e-09 2.29203e-09 3.22645e-07)
(1.91124e-10 1.18347e-09 2.02049e-07)
(-1.96255e-09 -1.63264e-09 1.83788e-07)
(-3.28074e-09 2.81564e-09 2.28544e-07)
(-1.50306e-09 2.38312e-09 4.40281e-08)
(-1.56492e-09 -8.29162e-10 1.73362e-07)
(-2.54944e-09 -1.93264e-09 4.03009e-08)
(1.48235e-09 -2.03079e-09 3.12264e-07)
(3.7425e-10 -2.57267e-10 3.21777e-07)
(-8.76868e-10 4.88802e-09 1.68422e-07)
(1.25309e-10 -1.56993e-09 1.62907e-07)
(1.06866e-09 -1.60543e-09 1.81492e-08)
(1.67393e-10 -1.02079e-09 1.06952e-07)
(-3.84612e-09 -1.78497e-09 7.69596e-08)
(-1.25429e-09 1.06905e-09 2.61199e-07)
(1.85739e-09 3.55519e-10 2.34233e-07)
(-2.38094e-08 -1.54474e-09 2.20562e-07)
(-2.54074e-09 6.40341e-10 3.10858e-07)
(-1.44438e-09 2.78488e-09 8.34319e-08)
(-1.11945e-08 5.08465e-10 1.3657e-07)
(8.22337e-10 -4.33961e-09 2.46499e-07)
(1.98256e-09 9.2394e-10 2.81139e-08)
(1.39303e-09 -1.0497e-10 2.40522e-07)
(-2.34849e-10 1.55639e-09 5.50148e-08)
(-1.89893e-09 -5.96252e-10 2.06838e-07)
(4.17974e-09 -2.11093e-09 3.28291e-08)
(1.8638e-09 -2.77358e-10 3.56433e-07)