/*--------------------------------*- C++ -*----------------------------------*\
| =========                 |                                                 |
| \\      /  F ield         | OpenFOAM: The Open Source CFD Toolbox           |
|  \\    /   O peration     | Version:  2406                                  |
|   \\  /    A nd           | Website:  www.openfoam.com                      |
|    \\/     M anipulation  |                                                 |
\*---------------------------------------------------------------------------*/
FoamFile
{
    version     2.0;
    format      ascii;
    arch        "LSB;label=32;scalar=64";
    class       volVectorField;
    location    "42";
    object      momentum:momentum;
}
// * * * * * * * * * * * * * * * * * * * * * * * * * * * * * * * * * * * * * //

dimensions      [1 1 -1 0 0 0 0];

internalField   nonuniform List<vector> 
59516
(
(2.26772e-07 -6.27423e-10 -1.08376e-09)
(1.69943e-07 -1.7754e-10 -7.01508e-10)
(2.06925e-07 -1.74928e-09 -6.28398e-10)
(1.74619e-07 2.1299e-09 2.64193e-09)
(2.00166e-07 3.71369e-10 -8.01088e-09)
(5.03645e-08 -2.40801e-09 -5.37979e-09)
(2.11771e-07 -1.38622e-09 -2.95166e-09)
(1.99457e-07 1.4629e-09 -1.22305e-10)
(1.59296e-07 1.35701e-09 -1.28174e-11)
(8.1825e-08 -1.51338e-09 3.23281e-09)
(2.07754e-07 -2.42318e-10 -2.90545e-09)
(1.02893e-07 6.00843e-10 -6.1061e-09)
(3.2642e-07 3.01612e-09 -2.08734e-10)
(1.60079e-08 -7.50043e-11 -1.65918e-10)
(1.55435e-07 3.81368e-09 8.27124e-09)
(8.66765e-08 5.98246e-09 -2.8448e-09)
(2.65944e-07 -1.4222e-09 -9.85613e-10)
(1.5997e-07 9.07502e-09 -9.82396e-09)
(3.30657e-07 1.65424e-08 2.22076e-09)
(3.68459e-07 -1.06391e-09 1.00315e-09)
(1.00204e-07 1.54066e-09 -2.17767e-09)
(3.18495e-07 -1.2769e-09 6.2628e-10)
(3.51235e-07 -1.95527e-10 -3.01876e-09)
(3.56775e-08 -1.08059e-09 -2.53864e-10)
(3.10664e-07 -9.25722e-10 1.66187e-09)
(2.05713e-07 4.36812e-09 2.23758e-09)
(5.35721e-08 1.073e-09 -3.5743e-09)
(7.43822e-08 6.2661e-09 4.09396e-10)
(1.4554e-07 5.704e-09 -9.46764e-10)
(1.38662e-08 -2.16317e-09 5.55328e-10)
(1.89434e-07 -3.67825e-08 -8.10463e-09)
(8.39923e-08 6.62872e-09 -1.02029e-09)
(1.75655e-07 2.75955e-10 1.07677e-09)
(1.77145e-07 -1.31793e-09 3.65694e-09)
(1.33394e-07 4.63856e-09 3.5216e-09)
(3.99487e-07 1.72261e-10 -6.51812e-10)
(1.34672e-08 -1.30921e-09 -1.87089e-09)
(1.31829e-07 5.03096e-09 -1.26642e-08)
(2.68238e-07 -1.0058e-08 -7.91202e-10)
(2.78984e-07 -1.59907e-09 -9.42601e-10)
(2.61242e-07 -1.73375e-09 2.46594e-10)
(4.06645e-07 -2.33961e-08 -2.15657e-08)
(3.43026e-07 -7.81476e-09 -6.26292e-09)
(1.12678e-07 -7.61842e-10 4.01735e-10)
(2.65539e-07 -7.89607e-09 -1.78846e-10)
(1.04677e-07 -1.47402e-09 -2.47598e-09)
(3.25329e-07 -6.34442e-09 -9.57355e-09)
(2.52885e-07 -6.48096e-09 -1.07011e-09)
(2.51858e-07 -2.03286e-08 2.79703e-08)
(2.40219e-07 1.00196e-08 8.18694e-09)
(1.63909e-07 1.65016e-08 -2.28837e-08)
(7.83659e-08 -6.48647e-09 4.41219e-09)
(3.19203e-07 2.43501e-09 -6.08831e-09)
(3.03504e-07 -1.28306e-09 9.96741e-11)
(8.29722e-08 5.05815e-09 5.32668e-11)
(2.46698e-07 4.53406e-09 -1.28904e-09)
(2.03062e-07 1.14043e-08 1.19052e-08)
(7.99944e-08 6.69026e-09 -4.70125e-09)
(2.04451e-07 3.69783e-10 -1.48084e-10)
(1.45651e-07 6.64227e-09 8.46281e-09)
(2.0828e-07 -4.71017e-10 4.64852e-10)
(1.56988e-08 1.93247e-09 -6.71718e-10)
(2.61451e-07 9.90447e-10 1.08617e-10)
(3.38195e-07 4.13069e-09 2.60002e-09)
(2.96087e-07 6.99634e-10 -1.43156e-09)
(2.14609e-07 4.86311e-09 6.83728e-09)
(1.87346e-08 -1.26364e-09 1.70772e-09)
(6.77489e-08 3.96701e-10 -3.30643e-10)
(1.98265e-07 -8.2679e-09 3.6309e-08)
(1.69559e-07 1.54624e-09 -3.02975e-09)
(5.36247e-08 1.51355e-09 4.42917e-10)
(1.55994e-07 1.34323e-09 1.54979e-10)
(2.40383e-08 1.50558e-09 -3.66979e-09)
(1.86174e-07 7.11475e-10 5.51588e-10)
(3.6636e-07 -3.49305e-11 -2.8891e-10)
(3.59238e-07 -3.97676e-09 -4.8515e-09)
(2.13449e-07 -2.53113e-09 -3.77357e-09)
(2.26002e-07 -1.10968e-10 -2.76077e-10)
(8.71574e-08 -2.95329e-09 2.72775e-09)
(1.92319e-07 3.75249e-09 9.26785e-09)
(5.2316e-08 3.1652e-09 1.45874e-09)
(1.70884e-07 4.46411e-09 6.55465e-09)
(1.82536e-07 2.34974e-09 7.06061e-09)
(1.87412e-08 -7.17581e-10 2.61697e-09)
(2.14532e-07 4.52474e-09 8.71635e-09)
(3.73067e-07 -5.14708e-10 1.46723e-09)
(3.25072e-08 -1.18296e-09 5.12548e-10)
(5.02943e-07 1.01572e-09 1.82677e-09)
(1.1288e-07 1.49909e-09 4.76577e-09)
(1.66915e-07 1.30544e-08 -8.92959e-09)
(1.83407e-07 -1.20096e-09 -1.58858e-08)
(1.88731e-07 2.42648e-09 -3.27824e-10)
(2.5455e-07 4.66937e-11 -2.07882e-10)
(1.82354e-07 1.67093e-09 -3.915e-10)
(1.80003e-07 5.21182e-10 3.43907e-11)
(1.83454e-07 -1.76487e-08 6.62241e-09)
(1.24498e-07 -4.23645e-10 6.24357e-10)
(8.68351e-08 -2.9399e-09 -6.7941e-09)
(1.15737e-07 4.22861e-09 -1.72187e-09)
(2.07198e-07 -1.26052e-09 2.16413e-09)
(6.371e-08 1.06034e-09 2.38691e-09)
(2.7227e-08 1.36329e-09 -3.10566e-09)
(2.40353e-08 8.53277e-10 3.32468e-09)
(8.70195e-08 -1.33535e-09 -4.5911e-09)
(2.35302e-07 1.08902e-09 -3.96891e-10)
(1.62592e-07 -2.01831e-10 2.12233e-10)
(5.69894e-08 4.96293e-09 -2.04068e-09)
(1.39827e-07 4.70898e-10 -9.42813e-10)
(1.7841e-07 -1.23215e-09 1.13675e-10)
(1.92818e-07 1.21759e-09 -7.85152e-09)
(2.80265e-07 2.8885e-08 -3.03219e-08)
(4.44625e-08 4.50045e-09 -6.07086e-10)
(1.91615e-07 2.38875e-09 -1.16921e-08)
(2.19219e-07 3.22573e-08 -1.61975e-08)
(2.19285e-07 7.76191e-12 -1.38405e-10)
(1.3969e-07 1.49266e-09 1.41578e-09)
(1.29581e-07 1.3393e-09 -4.99239e-09)
(1.44541e-07 -1.41339e-11 8.72655e-10)
(1.88979e-08 -2.59776e-10 9.08278e-10)
(2.6211e-07 2.43164e-09 6.58313e-10)
(3.98219e-07 -1.0398e-09 8.60876e-10)
(1.73406e-07 -2.10856e-10 4.60094e-10)
(1.59144e-07 -4.17591e-10 7.51349e-10)
(1.79999e-07 -6.04709e-10 6.28993e-10)
(1.33e-07 -1.77945e-08 2.78025e-09)
(1.443e-07 1.95528e-09 -4.54853e-09)
(3.68607e-08 -6.38254e-10 2.42352e-09)
(2.12114e-07 -2.06884e-08 -1.58334e-09)
(1.63202e-07 -5.01391e-09 2.38629e-08)
(1.56022e-07 4.53022e-10 1.27128e-11)
(2.75991e-07 5.67609e-10 5.78994e-10)
(3.27983e-07 4.7456e-09 5.56217e-09)
(2.33212e-08 1.35783e-09 -1.60885e-09)
(2.55565e-07 -1.8018e-10 1.11452e-09)
(3.19713e-07 3.70049e-09 8.65613e-10)
(1.99601e-07 -1.28945e-09 -3.31225e-09)
(1.51824e-07 1.80292e-08 -1.26315e-08)
(3.15734e-07 -9.15704e-10 1.04516e-09)
(5.34486e-08 3.64384e-09 1.57701e-10)
(1.61252e-07 6.56746e-10 -2.02243e-09)
(7.82238e-08 -1.58025e-09 -3.93727e-09)
(3.21932e-07 -8.7099e-10 6.4054e-10)
(1.42631e-08 6.29045e-10 1.24804e-09)
(1.51929e-07 -1.39512e-09 -5.11459e-10)
(2.12347e-07 6.32642e-10 4.56334e-10)
(2.83582e-07 3.10335e-09 1.77284e-10)
(2.03188e-07 -6.77678e-09 -2.26577e-09)
(2.0704e-07 2.20492e-09 -4.41184e-09)
(6.40344e-08 -1.03686e-09 1.78496e-09)
(2.09506e-07 -1.49032e-09 -1.6492e-09)
(3.23072e-07 -1.79515e-10 -2.56387e-09)
(5.39774e-08 -2.02762e-09 3.71374e-11)
(3.82398e-07 -2.14166e-09 2.42419e-09)
(2.17703e-07 -5.75138e-10 7.20075e-10)
(1.61475e-07 -6.78013e-10 3.64239e-09)
(1.50935e-08 -3.07256e-10 1.63399e-09)
(2.81275e-07 -2.77185e-10 -4.35215e-10)
(3.34107e-07 3.57594e-09 -6.2411e-10)
(1.30915e-07 1.84355e-09 2.25815e-10)
(1.62435e-08 1.95369e-09 -2.13096e-09)
(9.05223e-08 2.10519e-09 -4.67946e-09)
(1.13619e-07 -6.12728e-09 -3.96826e-09)
(4.08201e-08 -1.69547e-09 4.0238e-10)
(2.31223e-08 -2.01463e-10 -4.56094e-10)
(1.65305e-07 2.96555e-09 3.88486e-09)
(3.23397e-07 4.35394e-10 2.12976e-09)
(1.5861e-07 -1.82638e-09 9.12141e-10)
(2.76182e-07 1.03186e-09 -5.59693e-11)
(1.76483e-08 -1.08162e-09 2.04597e-09)
(2.14657e-07 -8.64602e-10 1.97093e-10)
(8.83924e-08 1.39604e-09 1.19886e-09)
(6.85614e-08 9.88146e-10 -1.0501e-09)
(1.08071e-07 2.73191e-09 1.43842e-09)
(1.51894e-07 -6.03124e-10 6.51605e-10)
(8.69042e-08 -1.3895e-09 4.67953e-10)
(4.53595e-07 -4.64557e-09 -1.63434e-08)
(2.44883e-07 -3.72525e-10 -1.52418e-09)
(3.09804e-07 -1.05683e-08 -6.38475e-09)
(1.51397e-07 -1.97625e-09 7.12493e-09)
(6.37821e-08 -2.16877e-10 -8.37732e-10)
(3.07492e-07 4.2266e-09 1.50239e-09)
(4.37339e-08 -3.81359e-09 -1.70647e-09)
(3.06201e-08 -3.81704e-10 -2.41493e-09)
(1.06806e-07 -2.76563e-09 2.76437e-10)
(2.01452e-07 -5.37374e-11 6.07321e-10)
(9.90578e-08 5.09723e-10 1.19231e-09)
(4.69805e-08 -8.19845e-10 -3.63789e-09)
(2.07719e-08 1.15141e-11 2.77996e-10)
(1.92603e-07 1.84569e-10 -7.91735e-11)
(2.28841e-07 -3.97353e-09 -4.13114e-10)
(1.58803e-07 -7.78669e-10 3.31313e-09)
(1.17398e-07 7.08764e-09 1.15195e-10)
(2.13322e-07 -7.25184e-10 -2.45277e-10)
(9.61853e-08 3.7349e-09 5.34069e-11)
(3.39124e-07 -2.15564e-10 -3.73146e-10)
(2.92762e-08 -2.59934e-10 8.09932e-10)
(9.90934e-08 1.31895e-09 -2.88829e-10)
(5.80726e-08 -1.55936e-09 3.96723e-10)
(1.88096e-07 4.83897e-09 6.29162e-09)
(2.63794e-07 1.12207e-09 -6.20372e-10)
(7.85851e-08 -2.67825e-09 3.48184e-10)
(1.88909e-07 -6.79416e-10 4.37298e-10)
(3.16523e-07 -2.28477e-09 2.65656e-09)
(1.63649e-08 1.78139e-09 -1.18549e-09)
(2.22149e-07 -2.23656e-09 -8.16202e-10)
(2.39015e-07 3.04673e-10 3.24349e-10)
(3.43242e-07 3.36879e-10 2.31876e-10)
(1.97737e-07 -1.49789e-09 -2.78263e-10)
(1.85606e-08 -5.63697e-10 1.72241e-10)
(3.05359e-07 -5.25203e-09 -4.38014e-11)
(6.18776e-08 4.34151e-09 3.77932e-09)
(2.52619e-08 -4.14024e-09 -6.7014e-10)
(2.32491e-07 5.12054e-10 -2.24381e-09)
(9.69318e-08 -1.99925e-09 1.34241e-09)
(2.96571e-07 3.46121e-09 3.57162e-10)
(2.8579e-07 -3.68305e-10 -2.21109e-10)
(2.73075e-07 1.97035e-09 4.62239e-10)
(2.07386e-07 -1.70765e-09 6.48132e-10)
(8.46846e-08 3.45052e-09 -4.41304e-09)
(2.18454e-07 -4.2347e-10 1.06901e-09)
(1.21321e-07 4.75317e-09 4.07664e-09)
(1.96838e-07 7.08771e-10 -8.91117e-11)
(1.78277e-07 7.9373e-10 1.03312e-09)
(7.60191e-08 -3.40333e-10 1.36347e-09)
(2.93507e-07 -8.77323e-10 7.29443e-11)
(3.06817e-07 -5.15239e-10 -1.36606e-09)
(3.2445e-08 -3.51109e-10 1.65645e-09)
(6.66086e-08 2.14938e-09 -3.1385e-09)
(1.97352e-07 4.52691e-10 8.49512e-10)
(1.19893e-07 4.64184e-10 -8.86266e-09)
(2.39677e-07 -9.09566e-10 3.50445e-10)
(1.78088e-07 3.70776e-10 -4.58915e-10)
(3.14029e-07 1.03479e-09 1.52105e-09)
(2.73225e-08 -2.15618e-09 -1.53637e-09)
(3.18918e-08 8.63993e-10 -1.54185e-09)
(3.99299e-08 1.03007e-09 -1.42678e-09)
(1.10898e-07 6.37948e-10 4.86009e-10)
(1.76845e-07 -2.31755e-09 1.16677e-09)
(4.17685e-07 2.62646e-09 3.37038e-09)
(8.8252e-08 -1.86456e-09 2.26512e-09)
(2.46866e-07 -2.12735e-10 8.65111e-10)
(1.91511e-08 3.56819e-10 2.83421e-09)
(1.1176e-07 5.88666e-11 1.80144e-09)
(2.74966e-08 1.98781e-10 3.02507e-09)
(1.62048e-07 6.22923e-10 3.166e-10)
(1.54804e-07 -8.55872e-10 -5.5819e-10)
(1.96776e-07 2.64921e-10 1.1538e-09)
(1.88953e-07 2.21593e-09 -4.124e-09)
(2.76375e-07 -5.47013e-11 -1.80595e-10)
(2.01728e-07 4.79273e-10 8.48534e-10)
(3.79836e-07 -2.07188e-09 5.36464e-10)
(2.13346e-07 9.74787e-11 1.00672e-09)
(1.89844e-07 2.51886e-10 7.34105e-10)
(2.81799e-07 8.75949e-10 -1.01193e-09)
(2.82548e-07 2.3598e-09 1.58018e-09)
(2.99149e-07 4.49086e-10 1.19647e-09)
(1.13518e-07 1.97986e-10 -5.04019e-10)
(2.83349e-07 1.6388e-09 2.94652e-09)
(8.19675e-08 -7.33636e-10 -4.54891e-09)
(9.92259e-08 8.2864e-10 3.4802e-09)
(2.19684e-07 1.33471e-09 -1.60354e-09)
(2.60695e-07 -8.13801e-10 9.53177e-10)
(2.40856e-07 5.93457e-09 3.15435e-09)
(2.81704e-07 3.73809e-11 9.89204e-10)
(7.5336e-08 8.11403e-12 1.637e-09)
(1.0889e-07 4.29297e-09 -2.83576e-09)
(3.03148e-07 -1.11092e-10 -2.03546e-09)
(2.17374e-07 4.38712e-09 1.21161e-09)
(6.24077e-08 -1.02234e-09 -9.38229e-10)
(7.53427e-08 2.453e-10 -2.11948e-09)
(1.65956e-07 1.26541e-09 -5.10911e-09)
(1.84806e-07 -7.31683e-10 -2.77514e-10)
(3.1114e-07 -7.26579e-09 1.73515e-10)
(1.5077e-07 -2.04597e-09 1.52435e-09)
(3.32292e-07 -2.26956e-09 -4.91593e-10)
(1.92513e-07 -1.22867e-09 5.18317e-09)
(1.98272e-08 2.37319e-09 -1.35584e-09)
(2.96548e-07 1.7789e-10 1.83791e-09)
(2.92449e-08 1.885e-09 -2.49218e-09)
(5.30651e-08 -2.15594e-09 1.41933e-09)
(3.4801e-07 6.38592e-10 1.91188e-09)
(2.50904e-07 -3.65813e-10 -5.96062e-10)
(2.81536e-08 3.02232e-09 3.03274e-09)
(3.00063e-07 2.28492e-09 1.01398e-09)
(2.48059e-07 4.67864e-09 1.17326e-10)
(2.4805e-07 -3.01771e-10 1.63899e-09)
(3.19793e-07 -1.19688e-09 1.21375e-11)
(2.35911e-08 2.79081e-09 5.46662e-10)
(2.75539e-07 4.40917e-10 9.02184e-10)
(1.46038e-07 -6.33838e-10 1.69316e-10)
(1.57601e-07 9.16587e-11 8.41931e-10)
(2.53506e-07 7.77174e-10 1.60525e-09)
(1.70252e-07 1.63947e-09 1.05175e-09)
(1.78787e-07 8.92142e-10 -5.35539e-10)
(2.63776e-07 1.70303e-09 3.66564e-10)
(3.92067e-08 -1.4025e-09 -1.79884e-09)
(2.80475e-07 -1.52836e-09 8.77749e-10)
(1.90746e-07 -1.14894e-09 -7.32403e-10)
(3.55184e-07 -8.80738e-10 1.05676e-09)
(2.6421e-07 -2.55108e-10 1.00298e-09)
(3.09881e-07 -1.61922e-09 1.53528e-09)
(1.38157e-07 2.0092e-09 2.98802e-09)
(2.00315e-08 -2.92816e-10 1.39892e-09)
(3.59363e-08 -8.7976e-10 6.1472e-10)
(5.08684e-07 -3.48945e-09 -2.17805e-09)
(1.85371e-08 -1.08821e-09 2.6826e-09)
(1.74494e-07 -9.04109e-10 -2.97059e-09)
(7.40406e-08 4.0919e-09 1.64773e-09)
(3.11086e-07 2.25301e-10 1.54542e-09)
(3.68675e-07 -6.62474e-10 -8.6087e-10)
(3.13625e-07 -4.05531e-10 -1.01893e-09)
(1.23751e-07 -6.42946e-11 -2.74947e-09)
(2.97754e-07 4.13446e-09 -6.39191e-09)
(6.85279e-08 -5.6448e-09 4.59109e-09)
(8.76318e-08 1.94198e-09 1.99843e-09)
(1.98062e-07 6.72289e-10 2.98767e-11)
(1.57221e-07 1.78224e-09 -1.49591e-09)
(2.69481e-07 3.09551e-08 8.79889e-09)
(1.93016e-07 -3.99491e-09 1.98146e-09)
(6.49685e-08 -3.15813e-10 -6.4615e-10)
(1.0387e-07 -1.51952e-09 3.18076e-09)
(2.07773e-07 -1.68355e-09 -3.15828e-09)
(2.12188e-07 -1.01203e-11 -1.87118e-10)
(4.12542e-07 -1.34276e-09 1.5148e-09)
(2.19755e-07 -2.12833e-10 1.20057e-09)
(4.86121e-07 -3.72782e-09 9.88887e-10)
(1.66826e-07 6.26484e-09 7.90278e-09)
(3.38214e-07 2.25447e-09 2.01673e-09)
(2.73362e-07 2.29502e-09 1.41633e-09)
(1.95696e-07 -8.46519e-10 5.89255e-11)
(3.34692e-07 -1.23318e-09 1.6996e-09)
(1.04406e-07 2.32016e-09 -5.93564e-09)
(2.3414e-08 -1.51343e-09 -2.77473e-09)
(2.93191e-07 -2.21164e-09 5.53581e-10)
(5.88805e-08 -2.79454e-09 3.19946e-09)
(2.85579e-08 1.52905e-10 5.22872e-11)
(3.90266e-07 1.26685e-09 3.93647e-09)
(1.99948e-07 -5.97813e-10 6.55249e-10)
(1.068e-07 -2.41414e-09 -5.19171e-09)
(2.4996e-07 -1.46171e-09 7.73962e-10)
(3.25219e-07 -2.77863e-09 8.12751e-10)
(4.14327e-07 -2.13129e-09 -1.1335e-09)
(2.63212e-07 -1.5526e-09 -5.27898e-10)
(3.14685e-08 1.45191e-09 3.18306e-11)
(3.15233e-07 1.78728e-10 -1.68034e-10)
(2.14266e-07 -1.38538e-09 1.13653e-09)
(9.95964e-08 6.25677e-11 1.3652e-09)
(2.87996e-07 1.70082e-11 2.09215e-09)
(2.466e-07 -6.47288e-10 7.24362e-10)
(1.74026e-07 1.05273e-10 -1.15715e-09)
(2.0007e-07 2.38931e-10 -1.46412e-09)
(2.74762e-07 -1.71748e-09 2.47835e-09)
(2.0126e-07 -1.8215e-09 7.2427e-10)
(7.82569e-08 -4.07755e-10 -2.47687e-10)
(2.02305e-08 8.34281e-10 -6.4697e-10)
(3.96514e-08 -2.87913e-09 -2.42118e-10)
(2.2078e-07 1.1459e-09 -1.43882e-10)
(2.67862e-07 -2.10297e-08 3.29479e-08)
(1.15801e-07 -6.52926e-09 -9.43193e-09)
(1.12217e-07 4.66338e-10 4.06742e-10)
(2.48806e-07 1.94679e-10 4.34165e-09)
(3.08634e-07 5.66442e-10 1.44417e-09)
(2.30595e-07 -1.79774e-09 5.7009e-09)
(3.57929e-07 -7.37618e-10 1.84259e-09)
(3.38449e-07 -1.78613e-09 -7.04366e-10)
(2.22886e-07 9.51935e-11 8.83583e-10)
(1.379e-07 8.44494e-10 3.69361e-10)
(2.40495e-08 -7.25122e-10 -2.55714e-10)
(2.41044e-07 -4.75291e-08 5.85521e-09)
(8.77526e-08 2.26547e-09 7.97825e-10)
(6.43782e-08 -2.88809e-09 -6.97482e-10)
(6.8062e-08 1.37585e-09 5.33414e-10)
(1.71808e-07 -4.98458e-10 -3.51038e-10)
(1.74237e-07 -9.21025e-10 3.8554e-12)
(2.34464e-07 8.40201e-10 -1.54808e-09)
(1.7091e-08 9.49503e-10 -1.46542e-09)
(1.7001e-07 -5.55638e-10 3.42814e-10)
(6.49431e-08 1.55849e-09 -1.23546e-09)
(1.84848e-07 -4.95416e-10 -1.64207e-10)
(5.58074e-08 -7.46634e-10 -5.50655e-10)
(1.48245e-07 -3.52164e-09 2.97385e-09)
(2.19991e-07 -5.54412e-09 1.71857e-09)
(1.85009e-07 -1.21951e-09 1.50801e-09)
(1.90244e-08 1.55216e-09 -2.04534e-09)
(1.13121e-07 -1.21073e-09 4.88973e-09)
(2.38982e-07 -2.62443e-10 1.06351e-09)
(2.53429e-08 -1.57389e-09 -1.97785e-09)
(2.89468e-07 2.8148e-09 2.02862e-08)
(1.82893e-07 -1.16978e-09 3.98278e-09)
(3.04006e-07 -5.45424e-10 -4.63208e-09)
(2.00961e-07 4.42847e-09 -5.8693e-09)
(9.43623e-08 -1.24983e-09 2.14294e-09)
(3.91193e-07 2.10319e-09 1.39972e-11)
(1.42028e-07 -1.45132e-08 -1.31974e-08)
(3.22725e-07 1.0556e-09 2.54092e-10)
(1.55482e-07 1.19838e-08 1.26012e-08)
(1.4269e-07 -6.3172e-09 8.68474e-10)
(1.44702e-07 -8.86463e-10 -3.37972e-09)
(2.67338e-07 9.07209e-10 3.77439e-10)
(5.31718e-07 2.52373e-09 1.2207e-09)
(8.09059e-08 -7.96437e-10 9.42364e-10)
(3.38381e-07 1.36093e-09 -1.41634e-09)
(1.20522e-07 -6.22282e-10 -2.82019e-09)
(4.27572e-07 -2.03586e-10 1.59847e-09)
(3.26162e-07 -3.44374e-10 1.96761e-09)
(7.05786e-08 2.02807e-09 -5.25803e-09)
(2.18416e-07 -1.67237e-09 4.83471e-11)
(3.81083e-07 -4.44478e-09 3.93923e-09)
(2.27775e-07 9.31186e-10 -5.21831e-10)
(2.20979e-07 8.64069e-10 7.58198e-10)
(2.393e-08 -8.18072e-10 -3.01534e-09)
(1.99908e-08 1.00865e-09 -2.51124e-09)
(2.94197e-07 2.63516e-09 -3.73136e-09)
(2.79624e-07 1.43517e-10 4.371e-11)
(2.16437e-07 -1.94672e-09 -7.81824e-10)
(3.62301e-08 3.81084e-10 -2.6257e-09)
(8.78627e-08 -7.93159e-10 2.69221e-10)
(3.04385e-07 -2.83025e-09 -1.71444e-09)
(1.64699e-07 -8.62903e-11 6.92977e-10)
(3.04663e-07 1.27207e-09 1.02479e-09)
(2.79079e-07 1.30334e-09 -6.08189e-10)
(2.1569e-07 9.61599e-10 7.40357e-10)
(2.30173e-07 2.05295e-09 7.22891e-10)
(1.23007e-07 7.69955e-10 4.10735e-10)
(2.09376e-07 1.15571e-09 -1.1168e-10)
(8.91539e-08 -1.74143e-09 -4.40431e-09)
(2.84749e-07 4.03881e-10 -6.39214e-10)
(1.91627e-07 -7.13015e-10 -1.90741e-09)
(2.13436e-07 8.49865e-10 1.15549e-09)
(2.17038e-07 3.43514e-10 -1.7838e-10)
(3.50041e-07 -9.90491e-10 4.05213e-10)
(2.65162e-07 7.004e-10 -2.02231e-09)
(6.87144e-08 3.91881e-09 3.62543e-09)
(4.543e-08 1.10914e-09 4.18461e-10)
(1.98281e-08 1.72019e-09 -1.97656e-09)
(2.31179e-07 6.12547e-09 1.09466e-08)
(2.87553e-07 7.11203e-11 -2.26902e-10)
(2.71541e-07 -1.66542e-09 1.25133e-09)
(1.94044e-07 1.63106e-09 3.30574e-10)
(3.03581e-08 -7.7149e-11 1.11652e-09)
(2.28662e-08 -3.82623e-10 2.61121e-09)
(1.82407e-07 -7.04838e-10 2.73971e-09)
(2.30951e-07 -4.73428e-10 2.19884e-09)
(3.0487e-07 -9.88242e-10 1.38956e-09)
(3.18843e-07 9.53492e-10 6.79132e-11)
(1.99448e-07 -1.55226e-09 -1.4683e-09)
(3.33214e-07 1.02679e-09 3.59886e-10)
(3.76401e-07 2.36447e-09 2.30219e-09)
(3.21721e-08 -6.79297e-10 3.03061e-09)
(1.84053e-07 -4.32241e-10 9.69941e-10)
(7.41738e-08 7.12471e-10 3.82522e-09)
(9.75795e-08 -9.74954e-09 2.08684e-09)
(1.27591e-07 1.77658e-10 2.90895e-10)
(1.44259e-07 6.64759e-10 1.84615e-11)
(2.52145e-07 -1.78232e-10 9.95993e-11)
(1.97433e-08 -3.68881e-09 -1.36725e-09)
(3.47959e-07 1.86975e-09 -5.61163e-10)
(2.60444e-07 2.64324e-11 -5.10529e-10)
(2.10689e-07 9.30836e-10 5.39169e-10)
(2.04859e-07 2.09316e-09 2.81956e-10)
(1.70313e-07 -5.39594e-10 1.52977e-09)
(2.5633e-07 3.116e-10 1.43545e-09)
(2.48307e-07 7.99583e-10 2.67067e-10)
(2.95193e-07 1.84487e-09 3.57345e-10)
(1.67403e-07 6.64689e-09 -5.35192e-09)
(2.63847e-07 9.5712e-10 -3.71615e-10)
(2.89892e-07 -5.06449e-09 -1.05608e-09)
(1.88498e-08 -1.22649e-09 1.32873e-09)
(2.98703e-07 -6.59628e-10 -4.76371e-10)
(1.92468e-07 3.43958e-09 8.15579e-12)
(6.58716e-08 -1.89251e-09 5.3758e-09)
(1.73874e-07 1.421e-09 -2.90381e-09)
(3.38856e-07 -3.24219e-10 -7.37158e-10)
(2.2572e-07 -6.21328e-10 1.51532e-09)
(1.20579e-07 3.04149e-10 -3.41924e-09)
(1.86007e-08 -1.68487e-09 -1.86714e-09)
(2.51989e-07 -9.38749e-10 -3.9063e-10)
(3.38277e-07 4.5658e-09 -4.8087e-09)
(2.34244e-07 -6.07187e-10 -6.78135e-10)
(1.89524e-07 1.24924e-10 1.16573e-09)
(5.86133e-08 2.67157e-09 2.63779e-09)
(2.51582e-07 1.31904e-10 -7.59942e-10)
(2.66479e-08 2.15877e-09 -3.40561e-09)
(1.72075e-07 2.55268e-10 -7.28851e-10)
(2.08663e-07 2.32595e-08 -7.45161e-09)
(2.51485e-07 -1.32816e-09 -1.03388e-09)
(8.99183e-08 -3.92842e-11 3.12035e-09)
(1.85183e-07 -2.16971e-09 -2.7103e-09)
(1.17143e-07 3.2959e-10 -1.57485e-09)
(4.84712e-08 2.81387e-09 2.45186e-09)
(4.51914e-07 3.10316e-10 1.44598e-09)
(2.07033e-07 1.34949e-10 1.0294e-09)
(1.81443e-08 6.3623e-10 1.76985e-09)
(2.76435e-07 -9.70312e-10 6.00515e-10)
(2.74408e-07 -1.23262e-10 1.03806e-09)
(3.96322e-08 -8.49225e-11 -2.31817e-09)
(1.29802e-07 5.74641e-09 -6.93655e-11)
(1.0076e-07 3.65071e-09 2.63757e-09)
(1.89266e-07 6.28684e-10 7.85881e-10)
(2.52812e-07 2.79766e-10 4.84743e-10)
(3.50965e-08 -9.18734e-10 1.61322e-09)
(9.28719e-08 -3.0711e-09 -1.06961e-09)
(1.03897e-07 2.08062e-09 -1.49197e-10)
(1.77658e-07 2.24515e-09 4.98548e-10)
(3.26674e-07 4.80954e-10 8.31917e-10)
(2.39116e-08 1.26931e-09 -3.14453e-09)
(3.63257e-07 -1.59724e-09 1.9518e-09)
(2.36421e-07 4.31275e-09 -1.8033e-10)
(2.66496e-07 -3.01281e-10 1.81674e-09)
(1.14194e-07 4.90029e-09 -4.72351e-09)
(3.28125e-07 2.01113e-09 5.31934e-10)
(2.3459e-08 -2.65093e-10 -2.55443e-09)
(2.93459e-07 -8.09107e-10 -4.21908e-10)
(2.82913e-08 -4.51454e-10 -5.46345e-11)
(1.37269e-07 -3.98324e-09 1.45277e-09)
(2.26091e-07 -1.66847e-09 2.17023e-10)
(1.39872e-07 -4.12843e-09 -1.40865e-09)
(1.96214e-08 2.29334e-09 2.0438e-09)
(5.17487e-08 9.94465e-10 -1.65146e-09)
(7.74804e-08 -4.09382e-09 2.6678e-09)
(1.34079e-07 2.66509e-09 -3.74786e-09)
(3.25736e-07 -1.01868e-10 -1.69466e-09)
(5.86774e-08 -1.33751e-09 1.94663e-12)
(1.38566e-07 4.50486e-09 -2.53099e-09)
(2.25723e-07 -1.24934e-08 -2.41458e-08)
(2.09733e-07 3.15602e-10 1.02688e-09)
(2.96397e-08 1.9103e-09 3.33604e-10)
(2.27937e-07 3.9164e-10 -2.21318e-09)
(1.47339e-07 1.60195e-08 -6.31979e-09)
(1.9787e-07 -1.24499e-09 -1.47723e-10)
(1.01666e-07 -2.80536e-10 -2.3372e-09)
(1.73236e-07 4.69171e-10 1.28194e-09)
(1.08314e-07 -4.44492e-09 -3.06929e-09)
(1.62387e-07 6.95275e-10 9.0041e-10)
(1.57297e-07 2.77273e-10 -5.35672e-10)
(7.38047e-08 3.39713e-09 -6.61296e-09)
(2.90831e-07 -1.32243e-10 2.44092e-12)
(7.11379e-08 3.29969e-09 3.6237e-09)
(1.59162e-08 2.42675e-09 9.11767e-10)
(3.15773e-07 1.83001e-09 -6.72581e-10)
(1.85074e-07 2.67567e-10 2.57282e-10)
(2.95385e-07 2.19867e-09 -8.7683e-10)
(2.2894e-07 3.05737e-09 -1.2292e-09)
(4.53104e-07 -3.12953e-09 7.66456e-10)
(1.39879e-07 3.89282e-09 -5.05887e-10)
(4.025e-07 -2.79121e-09 1.11844e-09)
(9.96058e-08 -3.09817e-09 4.34522e-09)
(1.49637e-07 3.9898e-10 1.01781e-10)
(3.0768e-07 -3.64794e-09 -3.24247e-09)
(3.31046e-08 8.29344e-10 -4.61008e-09)
(3.01274e-07 1.01583e-09 -1.60002e-09)
(1.16169e-07 1.76446e-10 3.74647e-09)
(3.04977e-08 -2.20602e-09 -2.20618e-09)
(2.77257e-07 -1.72921e-09 -6.34642e-10)
(6.37268e-08 -1.78896e-09 1.59066e-09)
(2.033e-07 5.78735e-10 1.08789e-10)
(2.16004e-07 -3.70459e-11 1.19894e-09)
(3.74566e-07 1.56027e-09 1.07566e-09)
(9.75573e-08 -4.40129e-09 -4.70608e-09)
(2.84285e-07 2.59321e-09 4.69936e-10)
(1.54298e-07 -2.30301e-09 1.97047e-09)
(3.12329e-07 6.93193e-10 3.5731e-10)
(3.16476e-07 -8.2626e-11 6.50243e-10)
(2.78277e-07 9.48464e-10 1.2416e-09)
(1.64842e-07 1.54471e-10 -8.8539e-13)
(4.94703e-08 -2.74729e-09 -2.27757e-09)
(7.09863e-08 3.64687e-10 -7.03973e-10)
(1.76941e-07 -1.80269e-10 4.53196e-11)
(2.86349e-07 1.01495e-09 2.79143e-09)
(2.90195e-08 -2.05338e-09 -9.67386e-10)
(2.45528e-07 -9.09193e-11 7.04979e-10)
(4.70753e-07 1.93625e-10 6.42133e-10)
(3.47575e-07 -2.01698e-09 -5.20688e-10)
(3.72838e-07 -2.73863e-09 -3.80191e-10)
(2.50527e-07 -3.03989e-10 -3.40609e-09)
(2.05801e-08 2.0731e-09 1.80068e-09)
(2.26579e-07 7.73065e-10 -2.663e-10)
(1.4904e-07 -1.44485e-09 -1.93021e-09)
(2.64875e-07 6.3992e-10 9.87212e-10)
(1.62254e-07 4.25849e-10 -1.22654e-10)
(3.62932e-08 2.59927e-09 -1.80353e-10)
(2.078e-07 4.7646e-10 7.12354e-10)
(1.5264e-07 3.78418e-09 3.79027e-09)
(2.4525e-07 -5.20484e-10 4.27913e-10)
(2.68435e-07 -1.69678e-09 6.17726e-11)
(2.00388e-07 -2.20052e-09 -5.53324e-10)
(1.39564e-08 1.26425e-09 -1.65083e-09)
(2.05112e-08 -1.25348e-09 -2.00564e-09)
(1.85696e-07 -3.4462e-10 2.07144e-10)
(3.06201e-07 -1.88512e-09 -6.93764e-10)
(2.27808e-07 1.23189e-09 1.24834e-09)
(1.82403e-07 -2.24943e-10 1.49977e-09)
(1.62115e-07 -2.44395e-09 9.86114e-10)
(2.56242e-07 -1.80394e-09 -9.61929e-10)
(2.86472e-07 2.34894e-10 9.38201e-10)
(1.98793e-08 1.73646e-09 4.07273e-10)
(1.47617e-07 -2.19848e-10 4.4952e-10)
(1.74075e-07 -1.92302e-08 -4.67961e-10)
(4.72309e-08 -7.94271e-10 2.46846e-09)
(8.61048e-08 -5.50846e-09 1.40464e-09)
(3.07063e-07 -7.88751e-10 -1.9044e-09)
(2.12692e-07 -2.65731e-09 1.42013e-09)
(1.98009e-07 8.12934e-10 -1.69066e-10)
(2.37663e-07 -1.46341e-09 1.1876e-09)
(1.40557e-07 -4.83064e-09 1.5075e-09)
(3.30379e-07 4.05482e-10 -4.37445e-10)
(1.81562e-07 1.77064e-09 -5.33245e-09)
(4.26347e-07 2.52855e-09 -1.61751e-10)
(2.18476e-07 1.05193e-09 -8.01764e-11)
(2.3925e-07 -1.22515e-09 3.42786e-10)
(3.14305e-07 -1.77439e-09 4.22091e-10)
(4.86712e-08 -5.10559e-10 2.39282e-09)
(5.38943e-07 -2.8358e-09 5.86161e-10)
(3.42196e-08 1.00779e-09 -1.40881e-09)
(1.48935e-07 -1.45071e-08 8.55229e-09)
(1.18238e-07 3.69483e-09 2.99378e-09)
(1.61655e-07 -3.20691e-09 -1.64939e-08)
(2.15106e-07 -1.25315e-09 -1.02822e-09)
(2.90718e-07 -4.71305e-08 -1.04541e-08)
(1.3867e-07 1.62612e-10 -3.90562e-10)
(3.21775e-07 -6.33215e-10 -4.45585e-10)
(3.38655e-07 1.4431e-09 -3.15554e-10)
(2.13348e-07 -4.09434e-10 1.30111e-09)
(3.57961e-08 2.42368e-10 -6.17456e-10)
(1.18484e-07 -4.46261e-09 -2.99148e-09)
(2.10292e-07 -3.93523e-09 -2.99647e-08)
(2.15152e-07 3.98346e-10 1.31304e-10)
(1.01689e-07 -2.14168e-09 -5.05012e-10)
(2.1808e-07 -2.12363e-08 -7.38956e-09)
(2.37762e-07 -5.18012e-09 6.52154e-09)
(3.11904e-07 2.51413e-09 2.24494e-09)
(4.50337e-08 -9.27729e-10 1.59041e-09)
(5.49262e-08 -2.67796e-09 1.54528e-09)
(2.78257e-08 1.21927e-10 -2.69833e-10)
(2.01196e-08 1.44774e-10 -1.54364e-09)
(4.50952e-08 -1.24495e-10 2.2962e-10)
(2.21605e-07 -1.52452e-08 8.99124e-09)
(1.83445e-07 -4.92278e-10 1.09148e-09)
(1.91421e-08 -6.53808e-10 2.65998e-09)
(2.10611e-08 1.51692e-09 2.33967e-09)
(3.51274e-07 7.85862e-10 -2.65452e-11)
(1.66143e-07 -2.18125e-08 1.48089e-08)
(4.77816e-08 2.07608e-09 8.02445e-10)
(2.28391e-07 3.72798e-10 -6.51711e-10)
(1.0908e-07 -1.1087e-09 -1.56941e-09)
(2.04153e-07 2.54108e-10 1.85004e-09)
(4.52599e-08 2.35193e-09 -1.29791e-09)
(9.48028e-08 2.90663e-09 -1.09786e-09)
(1.94787e-07 -2.10452e-09 1.61475e-10)
(2.69304e-07 3.27646e-10 -1.07737e-09)
(4.00576e-07 5.3079e-10 -2.10116e-09)
(4.40231e-08 3.64994e-09 -1.27638e-09)
(2.51238e-08 -1.95266e-09 1.22077e-09)
(2.01611e-07 -2.88168e-08 -2.13793e-08)
(2.85684e-08 -3.71918e-09 1.01044e-10)
(3.12743e-07 -2.05838e-09 -2.5201e-09)
(2.96317e-08 1.64436e-09 -3.71137e-09)
(1.50053e-07 -6.16138e-10 3.14532e-09)
(3.06154e-07 -1.32694e-09 -3.65691e-10)
(4.30249e-07 -1.18835e-09 2.89942e-09)
(6.04007e-08 8.81254e-10 -1.23617e-09)
(1.41685e-07 -5.14189e-10 -1.44269e-09)
(3.95238e-08 1.44622e-09 -1.60726e-09)
(2.95276e-08 3.48136e-09 -1.29219e-09)
(2.6109e-07 -3.92192e-10 -1.11348e-09)
(1.51066e-08 -1.27661e-09 -1.95867e-09)
(1.79913e-07 -8.73276e-10 -7.74287e-10)
(6.27668e-08 1.31669e-09 -2.94697e-09)
(3.26331e-07 -2.3273e-09 -4.61319e-10)
(2.2801e-07 -9.22788e-10 -2.84983e-10)
(1.97446e-08 -5.27322e-10 3.13352e-09)
(1.37446e-07 -6.70817e-09 5.22985e-10)
(2.48805e-07 5.0265e-10 8.90617e-10)
(3.21014e-08 -1.55766e-09 5.10506e-11)
(2.8794e-07 -8.95846e-10 -1.02515e-09)
(8.09319e-08 -3.18612e-09 5.05644e-09)
(2.17524e-07 5.45096e-10 -9.36095e-11)
(2.2665e-07 -9.67987e-10 -7.05727e-10)
(5.66413e-08 1.68434e-09 1.25449e-09)
(2.1753e-08 9.25205e-10 -2.83494e-09)
(9.46783e-08 1.7979e-09 -7.61791e-10)
(2.43626e-07 3.82593e-08 8.23464e-09)
(2.29467e-07 8.48549e-10 8.97683e-10)
(7.9024e-08 -3.52866e-09 3.84316e-09)
(1.86904e-07 7.23827e-10 2.82067e-09)
(2.51202e-08 -9.59547e-10 6.08301e-10)
(2.01013e-07 -8.80466e-10 -8.895e-10)
(2.37561e-08 -3.65894e-10 -1.71836e-09)
(3.34082e-07 -1.65306e-09 -7.73923e-10)
(3.02822e-07 -4.99744e-10 5.28691e-10)
(2.19411e-07 -1.12447e-10 -1.11135e-10)
(1.48031e-08 1.49432e-09 5.92696e-11)
(3.4293e-07 -7.74619e-10 1.21778e-09)
(1.58259e-07 1.25883e-09 8.70714e-11)
(3.57027e-07 6.28316e-10 1.76168e-10)
(6.4184e-08 -6.20041e-10 -2.60361e-10)
(2.22551e-07 -2.68072e-08 1.37817e-08)
(2.63133e-07 -2.52384e-09 -5.54588e-10)
(6.7432e-08 8.28287e-10 -7.7607e-10)
(2.51347e-07 1.10245e-09 3.8168e-10)
(2.10054e-07 3.87514e-09 -3.95598e-08)
(1.83116e-07 4.58302e-10 -1.18726e-09)
(3.35443e-08 8.64436e-10 -1.84831e-09)
(1.03463e-07 -9.95308e-10 -5.40542e-09)
(1.8984e-07 -1.69559e-10 -1.86568e-10)
(2.19254e-07 2.18185e-09 3.51066e-10)
(3.27549e-08 1.65774e-09 6.37971e-10)
(2.20893e-07 2.58183e-09 -3.21833e-09)
(1.60827e-07 -1.71028e-09 -4.91918e-09)
(2.52462e-08 -2.21436e-09 1.47234e-09)
(2.02231e-07 2.47741e-11 -5.07666e-10)
(1.58315e-07 -1.97877e-09 1.54058e-08)
(3.27717e-07 3.60459e-09 -4.94272e-09)
(2.00056e-07 -4.11384e-10 -7.22987e-11)
(1.81377e-07 -1.62612e-10 5.74883e-10)
(3.0807e-07 -1.03251e-09 -3.56176e-10)
(2.57279e-07 1.46235e-09 8.94714e-11)
(7.20513e-08 1.91724e-09 6.2908e-10)
(7.37354e-08 -3.68307e-09 -3.54934e-09)
(3.74392e-07 1.57608e-09 9.38148e-10)
(2.24781e-07 -1.96562e-08 1.82736e-08)
(2.11191e-07 -2.04879e-09 9.33438e-10)
(1.89931e-07 -2.32471e-09 1.02013e-09)
(1.29229e-07 2.98023e-09 1.41045e-09)
(3.22645e-07 -6.31855e-10 2.43715e-09)
(2.02049e-07 -2.06456e-10 -1.18089e-09)
(1.83788e-07 -7.83655e-10 -2.42961e-09)
(2.28544e-07 4.24927e-09 7.96761e-10)
(4.40281e-08 4.64312e-10 -2.779e-09)
(1.73362e-07 1.4105e-09 -1.07098e-09)
(4.03009e-08 -1.06035e-09 -3.01834e-09)
(3.12264e-07 -1.45581e-09 2.0499e-09)
(3.21777e-07 -3.71045e-10 -2.61867e-10)
(1.68422e-07 2.89176e-09 -4.03725e-09)
(1.62907e-07 1.29361e-09 -8.98305e-10)
(1.81492e-08 1.89225e-09 -3.72619e-10)
(1.06952e-07 -5.52156e-10 -8.74737e-10)
(7.69596e-08 -2.64786e-09 -3.31173e-09)
(2.61199e-07 -3.74745e-10 -1.60489e-09)
(2.34233e-07 -1.75196e-09 -7.11979e-10)
(2.20562e-07 -2.01631e-08 1.27563e-08)
(3.10858e-07 -1.17246e-09 2.34323e-09)
(8.34319e-08 -2.45103e-09 -1.95812e-09)
(1.3657e-07 -3.42762e-09 1.0669e-08)
(2.46499e-07 -2.54877e-09 3.60724e-09)
(2.81139e-08 -2.18122e-09 -1.62698e-10)
(2.40522e-07 -1.37194e-09 -2.63341e-10)
(5.50148e-08 1.57284e-09 -6.06822e-11)
(2.06838e-07 -5.86132e-10 1.90207e-09)
(3.28291e-08 4.67196e-09 -3.14823e-10)
(3.56433e-07 8.14061e-10 -1.69941e-09)
(2.03961e-07 -8.71036e-09 5.36221e-09)