/*--------------------------------*- C++ -*----------------------------------*\
| =========                 |                                                 |
| \\      /  F ield         | OpenFOAM: The Open Source CFD Toolbox           |
|  \\    /   O peration     | Version:  2406                                  |
|   \\  /    A nd           | Website:  www.openfoam.com                      |
|    \\/     M anipulation  |                                                 |
\*---------------------------------------------------------------------------*/
FoamFile
{
    version     2.0;
    format      ascii;
    arch        "LSB;label=32;scalar=64";
    class       volScalarField;
    location    "42";
    object      nut;
}
// * * * * * * * * * * * * * * * * * * * * * * * * * * * * * * * * * * * * * //

dimensions      [0 2 -1 0 0 0 0];

internalField   nonuniform List<scalar> 
59516
(
9.23515e-06
2.20947e-05
4.78937e-06
2.19466e-05
0.00109073
0.000186196
8.78288e-06
1.14214e-05
5.28587e-06
7.83368e-05
0.000411974
6.26956e-05
7.51098e-06
0.000151621
7.10349e-05
6.3868e-05
0.000107749
9.26508e-05
1.85678e-05
5.79589e-05
0.000135659
1.54441e-05
2.30607e-05
0.000126598
1.71308e-05
6.04105e-05
0.00012057
0.000157045
7.55196e-05
0.000132153
0.000242247
0.000148938
7.72474e-06
1.75048e-05
3.21341e-05
1.24543e-05
0.000128981
8.42501e-05
2.21767e-05
2.92778e-05
9.25938e-06
0.000180072
3.42134e-05
1.94106e-05
1.5068e-05
6.36224e-05
1.23903e-05
0.000147494
0.00086347
9.31421e-05
0.000623719
0.000115545
3.86873e-06
6.69466e-06
0.000141519
1.26099e-05
0.000265747
0.000131356
0.000119181
3.51425e-05
2.87713e-05
0.000141077
9.47685e-05
9.29814e-05
1.44213e-05
3.37663e-05
0.000184672
0.000115254
0.00042492
6.82581e-06
0.000202149
6.80835e-05
0.000163566
1.79876e-05
0.000199573
5.39502e-05
0.000128739
2.36759e-05
0.000111036
9.17583e-05
0.000117573
5.02356e-05
2.61073e-05
0.000150175
5.15154e-05
0.000149133
0.000116051
1.46002e-05
6.44106e-05
5.03887e-05
0.000542069
2.72739e-05
9.71097e-05
2.01778e-05
7.63145e-05
0.00108888
2.43083e-05
6.37795e-05
7.50757e-05
2.65273e-05
0.000134504
0.000164605
0.000161364
6.38155e-05
1.01601e-05
4.70263e-05
0.000126103
5.16477e-06
1.50856e-05
6.82741e-05
0.000245713
0.000176323
7.30526e-05
0.000154619
4.14302e-05
1.20954e-05
6.41315e-05
1.47733e-05
0.000150058
2.33588e-05
0.000285039
0.000105241
3.05717e-05
0.000101252
0.000237723
2.45255e-05
0.000180532
0.000113259
0.00028104
0.000171265
0.000237317
6.5473e-06
0.000143477
1.18332e-05
1.77963e-05
4.18953e-06
0.000112556
3.02974e-06
0.000124645
2.45341e-05
0.000116862
0.000194207
0.000128174
1.00553e-05
0.000182902
1.65151e-05
1.33094e-05
9.75525e-06
0.000251083
9.43662e-06
2.0328e-05
0.000113553
4.11804e-05
2.58066e-05
1.71263e-05
0.000140662
1.35995e-05
6.0735e-06
2.31174e-05
0.00014286
7.43597e-05
7.21748e-05
0.000121345
0.000169936
1.25807e-05
0.000106087
6.32197e-05
0.000154734
0.000134783
3.46933e-05
2.16775e-05
6.25607e-05
4.77337e-05
9.06167e-06
9.90106e-05
1.61676e-05
0.000104534
4.87345e-05
6.60732e-05
0.000101679
1.36028e-05
0.000117444
0.000191642
4.95023e-05
0.000154655
6.17452e-05
9.84566e-05
0.000138914
5.61126e-06
1.46126e-05
2.60177e-05
6.48021e-05
6.70023e-05
4.55318e-05
1.77106e-05
0.000100241
6.11276e-05
0.00010167
2.18719e-05
2.04663e-05
3.855e-05
0.000259862
1.08217e-05
0.000131633
6.59407e-06
1.64187e-05
0.00020118
6.38045e-05
0.000144811
1.37984e-05
7.43102e-05
0.000178458
1.71346e-05
6.90427e-05
9.01015e-06
7.69204e-05
1.41315e-05
1.69664e-05
7.09325e-05
3.15961e-05
7.28864e-05
2.4359e-05
8.44189e-05
0.000136181
0.000107609
0.000119335
0.000170892
0.000114827
0.000114808
6.743e-05
9.31826e-05
0.0001235
0.000267955
0.000156058
0.000114895
0.000100093
5.16028e-05
8.33172e-06
4.63385e-05
7.65362e-05
0.000242146
0.000152706
5.96455e-05
0.000168708
0.00020522
1.51804e-05
2.81787e-05
6.81729e-05
6.37861e-05
8.5879e-06
4.64044e-05
2.07337e-05
0.000280105
2.93547e-05
2.04908e-05
4.04412e-05
7.54021e-05
3.73703e-05
0.000113855
6.77958e-05
6.63537e-06
5.65684e-05
1.12473e-05
0.000120811
8.65776e-06
5.61776e-05
5.5677e-05
1.72303e-05
0.000142532
5.99897e-05
2.19562e-05
0.000114592
9.86086e-06
1.96525e-05
6.81687e-05
1.55668e-05
0.000138154
4.0849e-05
0.000154618
0.00011407
0.000231635
1.33625e-05
0.000173092
9.64318e-06
7.62506e-06
0.000111185
0.000193922
0.000174514
0.000232467
0.000334048
0.000135086
1.33118e-05
2.05024e-05
1.68878e-05
8.03857e-05
0.000184015
6.40591e-05
9.14481e-06
0.000290522
0.000119374
4.36303e-06
5.57247e-05
0.00014949
0.000158309
2.8731e-05
0.00014994
0.000100196
7.59976e-05
7.64473e-05
7.89481e-05
1.59013e-05
5.85873e-05
1.55821e-05
0.000128323
6.51795e-05
6.21735e-05
1.57923e-05
0.00108142
2.5016e-05
0.000107928
7.4357e-05
1.56273e-05
0.000142688
0.000235443
0.000284518
3.60893e-05
3.42134e-05
1.22766e-05
9.75697e-05
5.22438e-05
3.80394e-05
6.03698e-05
0.000158418
2.82307e-05
0.000109178
0.000117875
6.24558e-05
1.30743e-05
6.64422e-05
0.000129171
4.29559e-05
0.000218973
0.000131528
0.000104911
3.84501e-05
0.000196955
6.30713e-05
0.000235364
0.000161393
1.46631e-05
1.34053e-05
3.67232e-05
1.18839e-05
2.80292e-05
0.000122175
0.000124567
1.98501e-05
0.000143195
0.000263699
2.31893e-05
1.23571e-05
1.4675e-05
0.000328571
2.38933e-05
8.7802e-06
2.8309e-05
3.31974e-05
0.000124129
0.000287944
7.35836e-05
0.00010938
0.000119741
6.2114e-05
2.05581e-05
5.1507e-05
0.000137642
1.07023e-05
0.000120514
8.62749e-05
5.6249e-05
5.78014e-05
6.21705e-06
0.000434268
0.000158814
6.5304e-05
1.39108e-05
0.000149647
3.45399e-05
1.08504e-05
6.12499e-06
2.2358e-05
2.16851e-05
4.91663e-05
0.000128254
0.000232038
9.84845e-05
6.85893e-05
6.70358e-05
0.000183292
0.0001559
5.70413e-05
5.06242e-06
1.26524e-05
0.000199633
0.000179081
0.00012371
1.38179e-05
1.8304e-05
1.74033e-05
3.16789e-05
0.000161466
0.000151834
5.6312e-06
0.000140971
0.000230975
0.000118982
0.000118649
7.01511e-06
0.000198932
0.00016094
0.000214107
0.000145204
0.000129514
1.22019e-05
0.000206613
6.45765e-05
8.91336e-05
1.39413e-05
3.92307e-05
0.000168789
1.4794e-05
2.47899e-05
0.00010411
0.00011912
0.000141348
0.000220516
0.000206132
2.13474e-05
5.24728e-06
0.000107078
0.000151224
1.13775e-05
4.39174e-05
0.000158862
3.10424e-05
9.13125e-06
0.000279445
8.83538e-06
0.000168098
9.74939e-06
6.04667e-05
0.000254439
5.21731e-05
1.74554e-05
2.36485e-05
0.000152224
0.000194677
0.000210951
0.000194879
1.26353e-05
4.18068e-05
0.000143587
1.95627e-05
0.000252402
2.33588e-05
0.000106476
1.73808e-05
0.000142557
0.000169007
1.04241e-05
0.000117566
1.10152e-05
8.87223e-05
1.01365e-05
2.58471e-05
0.000147277
0.000105602
6.28011e-06
4.05546e-05
1.0026e-05
0.000103402
1.85585e-05
0.000175521
7.83209e-05
0.000792411
0.000111928
0.000127329
1.03611e-05
1.17994e-05
8.84268e-05
0.000304969
0.000188626
0.000165832
7.20393e-05
0.000305201
0.000134248
6.60795e-05
6.01756e-05
4.30026e-05
0.000223448
0.000214888
6.05709e-05
5.81133e-05
7.03224e-06
0.00024979
0.000159117
3.07834e-05
2.99343e-05
0.00020359
0.000233246
6.30153e-05
0.000145548
6.53703e-05
0.000147989
5.25645e-05
2.62895e-05
5.88462e-05
0.000151641
0.00012991
0.000112227
6.69025e-05
8.78821e-06
6.42144e-05
5.607e-05
0.000397757
0.00014338
0.00016522
8.73834e-06
0.000119732
0.000117341
6.58317e-05
0.000122772
7.16995e-05
1.54802e-05
0.000182199
9.10677e-05
0.000104986
0.000150113
0.00013894
1.69729e-05
0.000215247
1.22723e-05
9.21642e-06
0.000176693
7.63084e-05
7.3942e-05
5.85894e-05
0.000153043
9.87313e-06
0.000164216
2.24168e-05
0.000123515
0.000164295
1.44434e-05
0.000104797
1.69573e-05
0.000240581
1.48585e-05
5.78768e-05
0.000155756
2.12738e-05
0.000189627
0.000142385
0.000203848
0.00021692
0.000110981
7.08373e-05
0.000154245
4.18173e-05
0.000126381
6.8748e-05
0.000126278
0.000115766
0.000181687
3.93537e-06
0.000142531
8.5991e-05
2.07133e-05
4.46714e-05
1.1164e-05
0.000169428
0.000246889
2.27125e-05
6.59374e-06
0.00023773
1.37522e-05
0.000116466
0.000150813
0.000186506
0.000105243
0.000292186
5.5219e-05
1.88202e-05
2.48073e-05
0.000157606
0.000138494
0.000230985
0.000159676
0.000128557
5.87094e-05
9.24202e-06
1.41785e-05
1.17851e-05
5.4684e-06
9.76232e-06
0.000283299
2.35908e-05
0.000119076
0.000105782
0.00018783
0.000154168
0.000134204
6.56611e-05
0.000117144
0.000207552
5.69151e-05
0.000548748
1.24826e-05
0.000160065
0.000145453
7.8443e-05
2.8062e-05
0.000128199
0.000116342
0.00148336
0.000702906
0.000198139
4.75618e-06
0.000158711
0.00027019
9.67478e-06
0.00010671
5.13445e-05
0.000155823
0.00016449
0.000180808
4.21972e-05
2.24101e-05
0.000159274
0.000153305
0.00033595
0.000209508
0.000116994
2.00734e-05
5.70791e-06
1.07544e-05
0.000134264
6.24665e-05
7.4069e-06
0.000112616
3.15102e-05
0.000118162
0.0001473
0.000391291
0.000177529
1.26707e-05
0.000167076
1.50421e-05
0.000197384
8.18883e-05
0.000109222
1.6496e-05
0.000104008
0.00017422
0.000175143
0.000136146
9.40597e-05
0.000129217
4.04535e-05
1.74215e-05
0.000146152
6.41789e-05
2.0098e-05
0.000116234
7.49428e-05
6.95339e-05
7.20015e-06
0.000231796
0.000113174
0.000151444
0.000115743
0.000667627
1.02286e-05
6.69545e-05
1.55358e-05
0.000107916
0.0002553
0.000155097
5.44338e-05
4.94564e-06
8.97455e-05
0.00014078
1.4455e-05
2.19013e-05
4.16352e-05
7.3109e-05
0.000881871
2.47502e-05
9.99594e-05
0.000311965
0.000486997
4.28808e-06
0.000113602
0.000129454
0.000225224
5.91178e-06
0.000115319
6.01292e-06
6.20366e-05
0.000158337
0.000184367
0.00124493
5.18936e-06
0.000123084
0.000170621
9.98911e-05
8.27704e-06
0.000110553
0.000117484
0.00018368
0.000984383
4.95838e-06
1.04352e-05
2.5331e-05
1.68945e-05
7.41351e-05
1.60381e-05
8.34349e-06
0.000150538
6.53683e-05
0.000138904
3.10446e-05
0.000111807
1.72553e-05
1.03799e-05
0.000134648
2.5247e-05
7.105e-05
0.000143162
0.000164679
0.00118126
6.94912e-05
1.94796e-05
0.000839566
1.79533e-05
0.000170741
0.000171612
6.55903e-05
1.19125e-05
0.000175873
9.23613e-05
0.00134774
4.21538e-05
6.19168e-06
2.7208e-05
1.78187e-05
0.00022386
0.000126177
0.000133197
0.000100568
0.000181036
4.93525e-05
1.7292e-05
2.57128e-05
0.000130375
2.62611e-05
2.26731e-05
0.000164652
1.00557e-05
3.00524e-05
2.28176e-05
0.00024943
0.000149077
1.71443e-05
5.18065e-05
0.000167984
9.79041e-05
6.05842e-05
0.000148642
3.12667e-05
8.23913e-05
6.0302e-05
0.000139538
9.06372e-06
0.000155005
8.8037e-06
0.000140778
0.000314523
0.000141748
3.94088e-05
0.000161801
1.05541e-05
0.000107183
0.000142563
8.57737e-06
1.77942e-05
2.99606e-05
8.16364e-05
6.47658e-06
5.10996e-05
2.0181e-05
0.00011958
1.85698e-05
1.58775e-05
6.86868e-05
3.38804e-05
0.000264466
5.49394e-05
0.000114544
0.000177976
5.86774e-05
0.000142271
9.02193e-06
4.2677e-05
9.76555e-06
8.69027e-05
1.72219e-05
3.51528e-05
0.000156571
5.13502e-05
0.000592242
9.96113e-05
0.000156002
6.39568e-06
8.51468e-06
0.00015613
4.90302e-05
0.000150775
0.000128202
4.47473e-05
1.40673e-05
2.22685e-05
3.44267e-05
1.61375e-05
0.000194939
0.000137493
0.000120056
1.25791e-05
1.17535e-05
0.000136042
1.71245e-05
0.000319558
0.000130468
0.000110306
2.83013e-05
4.55737e-05
0.00029967
2.23446e-05
0.000128504
0.000112396
1.00846e-05
0.000133351
5.91029e-05
0.000187431
2.09558e-05
1.54323e-05
6.58369e-06
8.09149e-06
2.2685e-05
1.00639e-05
1.89376e-05
6.46089e-06
5.26643e-05
7.73407e-05
0.000158984
0.00155928
6.12266e-06
1.36656e-05
1.39175e-05
0.000133196
0.000104282
9.9704e-06
1.38677e-05
9.83934e-06
0.000296351
2.1307e-05
0.000245261
0.000183365
0.000224685
1.4046e-05
0.000163906
0.000148484
9.06989e-06
3.43985e-05
0.000116087
3.98272e-05
0.000185441
1.35608e-05
0.000171685
0.00029211
0.000150042
6.18127e-05
0.00143778
0.000128434
7.36978e-06
0.000147916
0.000163682
7.87133e-05
6.10884e-05
1.2977e-05
9.98752e-05
3.94525e-05
0.000127595
0.000115655
2.75514e-05
2.39553e-05
0.000131133
4.51824e-05
6.38708e-05
9.8797e-06
2.54522e-05
3.08128e-05
0.00023937
0.000195008
0.000134733
0.000139435
1.80181e-05
2.88772e-05
0.000133331
6.30368e-05
1.51475e-05
0.000165194
8.86551e-05
0.000108057
8.17961e-05
9.15006e-05
0.000203217
8.9877e-05
0.000134159
0.000130794
0.000256945
0.00140038
1.00279e-05
1.36001e-05
0.000126128
6.56943e-05
7.67786e-05
3.4131e-06
0.000126057
8.92628e-05
1.02555e-05
0.000345584
0.000349872
0.000237654
2.43064e-05
1.69929e-05
0.000194419
0.000294768
1.44708e-05
0.000225464
0.000166396
0.000201982
0.000113212
1.92406e-05
9.19933e-05
5.51783e-05
0.00011876
9.9948e-05
6.53386e-05
1.30146e-05
0.000107014
0.00017281
0.000109399
1.89397e-05
5.44251e-05
5.15439e-05
1.63624e-05
0.000279509
6.42772e-05
3.87174e-05
8.86479e-05
9.41812e-06
0.00024903
0.000290072
5.81524e-06
0.000231419
0.000144141
6.34207e-05
0.000247305
0.000112728
0.000117523
0.000125542
0.000127923
0.000189789
0.000181832
1.02506e-05
1.6872e-05
0.000274467
0.0001595
9.68294e-05
0.000195965
6.25726e-06
0.000170952
0.000147058
1.77797e-05
0.000112378
1.55201e-05
1.41895e-05
1.58204e-05
0.000137203
6.1585e-06
7.43722e-05
0.000162172
0.000330511
0.000209689
5.60595e-05
6.54871e-05
0.000201716
7.66929e-06
2.36412e-05
0.000115825
1.10562e-05
5.44937e-05
0.000218488
5.15379e-05
6.11052e-05
1.93335e-05
1.0271e-05
0.000144915
1.37811e-05
1.93266e-05
0.00011707
8.25606e-06
0.000128618
5.41811e-05
1.19625e-05
0.000172305
0.000185776
0.000199843
2.12945e-05
5.44554e-05
1.69588e-05
2.13081e-05
0.000147321
6.87907e-05
3.51904e-05
5.54465e-05
0.000173666
0.000129907
0.000246636
1.73932e-05
0.000142736
2.27356e-05
5.2981e-05
2.75336e-05
0.000100151
1.15657e-05
0.00022102
4.24477e-05
6.58152e-05
1.1896e-05
0.000168019
2.14653e-05
2.13981e-05
0.000244184
0.000125857
3.63014e-05
6.69666e-06
0.00016483
5.73505e-05
5.78007e-05
0.000164494
3.92249e-05
1.47581e-05
0.000168961
8.00926e-05
1.18786e-05
0.000166515
0.000109259
0.00011337
9.85429e-05
2.02787e-05
6.42728e-05
6.00547e-05
9.73351e-05
0.000153393
9.78939e-06
3.8527e-05
5.88712e-05
0.000209919
5.18804e-06
1.65212e-05
0.000112684
0.000116875
2.88702e-05
1.15235e-05
0.000149346
0.0001808
7.76934e-05
1.22679e-05
5.9389e-05
9.49166e-06
1.60222e-05
2.64723e-05
0.000112486
6.83458e-05
3.66343e-05
5.55558e-05
2.0057e-05
2.12385e-05
0.000116168
0.000169905
0.000115161
7.02219e-06
9.81095e-06
7.40889e-05
5.71231e-05
9.69447e-05
8.65101e-05
0.000160823
0.000134417
0.00016671
0.000131473
0.000149149
0.00012781
0.000130661
0.000134717
1.56212e-05
0.000174464
2.53919e-05
0.000143171
6.45396e-05
0.00014947
1.30422e-05
4.37432e-05
0.000149671
9.61699e-05
0.000185394
9.65463e-05
7.37469e-06
4.55704e-05
5.99988e-05
6.44473e-05
0.000114252
4.15703e-05
0.000172784
1.656e-05
9.10009e-06
1.46225e-05
7.03592e-05
0.000150556
0.000250352
0.000132003
4.82686e-06
0.000159785
9.83185e-06
1.41879e-05
0.00013139
8.00354e-05
0.000241075
9.76369e-06
2.02519e-05
7.9004e-06
5.75409e-05
2.31833e-05
5.1976e-06
1.25935e-05
1.99293e-05
2.27538e-05
7.47315e-05
1.4604e-05
6.55557e-05
0.000177034
7.30304e-05
0.00011511
9.83091e-06
1.15512e-05
2.34911e-05
0.000144158
2.49175e-05
5.55339e-05
0.000124018
0.000141596
1.32209e-05
0.000155692
1.33323e-05
1.59035e-05
2.34283e-05
1.2702e-05
0.000126171
0.000114454
0.000130547
0.000261832
9.53743e-06
2.14422e-05
1.21728e-05
8.8363e-06
1.23965e-05
0.000196933
1.01688e-05
0.000140459
6.60265e-05
1.14361e-05
0.000144084
0.000215375
1.19673e-05
9.86413e-06
1.57702e-05
4.80956e-05
0.000100284
2.61749e-05
0.000131889
0.0002881
0.000343885
1.67359e-05
3.86756e-05
0.000113519
0.000207169
0.000124043
0.000101408
9.21019e-05
0.000129273
7.87658e-05
6.5987e-05
8.15669e-05
5.03314e-05
6.48293e-05
0.000105445
0.000126026
9.63771e-05
8.99995e-06
6.64443e-05
0.000287505
9.31576e-06
1.34207e-05
1.49597e-05
0.000175857
0.000201565
6.36212e-05
4.97181e-05
0.000106394
1.77781e-05
0.000140957
0.00010589
1.74793e-05
1.28522e-05
6.86304e-05
0.0002541
4.94604e-05
7.72886e-05
0.000117911
0.000203095
5.55344e-05
2.57783e-05
1.79972e-05
1.24774e-05
8.78318e-06
2.03239e-05
4.90457e-05
0.00022612
1.2601e-05
0.000123966
6.01711e-05
7.12833e-05
6.28792e-05
1.00326e-05
1.19027e-05
6.9079e-05
2.82718e-05
7.56204e-06
0.000123259
8.73167e-05
4.98924e-05
0.000106324
0.000179904
0.00013503
0.000217499
0.000146399
1.99857e-05
1.6006e-05
0.000140786
1.42214e-05
0.000138113
9.8098e-06
2.0431e-05
2.16405e-05
0.000113957
7.26259e-06
0.000159853
8.8271e-06
0.000151389
1.17917e-05
0.000146998
4.19523e-05
9.31886e-06
0.000120915
0.000156219
7.07737e-05
1.4076e-05
1.16103e-05
5.54169e-05
6.71092e-05
1.49479e-05
0.000196245
0.000125631
0.000201563
1.25833e-05
6.45441e-05
6.2497e-05
0.000169366
4.14557e-05
0.000166487
7.24341e-06
1.07434e-05
1.08764e-05
1.54012e-05
1.06614e-05
0.000141825
0.000108998
0.000167909
2.28018e-05
0.00030819
0.000106997
0.000117058
5.79957e-05
0.000168782
5.09186e-05
0.000168638
0.00011328
0.000313372
2.35071e-05
6.33397e-05
0.000205423
0.00011066
7.31779e-05
0.000265654
8.15938e-05
9.40166e-06
0.00171315
8.68862e-05
0.00015171
1.32947e-05
3.36317e-05
0.00018032
2.30711e-05
3.88245e-05
0.00012453
2.31735e-05
6.57452e-05
0.000111904
1.47728e-05
0.000259301
0.000118739
1.96278e-05
2.66919e-05
0.000118923
0.000182555
1.20865e-05
7.99903e-05
7.0996e-05
0.000156255
5.27319e-05
0.000124543
0.000131855
0.00012035
0.000153937
1.07264e-05
1.80392e-05
0.000201876
0.000141822
9.31488e-05
6.25481e-06
1.48784e-05
9.8654e-06
4.68597e-05
0.000113675
5.65679e-05
0.00140596
2.27125e-05
0.000326316
8.9134e-06
0.000133424
1.63763e-05
1.59059e-05
0.000190974
0.000108787
7.29587e-06
1.32495e-05
0.000139457
3.38458e-05
1.60283e-05
0.000219082
6.28583e-05
0.000116316
3.50843e-06
2.33008e-05
0.000197224
1.09494e-05
1.26675e-05
0.000120206
1.6066e-05
2.80393e-05
9.37189e-06
0.000284107
1.00373e-05
1.31368e-05
1.03806e-05
2.31165e-05
0.000265078
1.26834e-05
0.000193483
7.1839e-06
0.000205093
0.000228386
7.1532e-05
1.25215e-05
1.41267e-05
0.00048295
4.52402e-05
1.29769e-05
2.40587e-05
6.4059e-06
0.000160381
0.000168944
0.00022171
6.72338e-05
0.000190128
2.95107e-05
0.000130782
1.28137e-05
0.000110138
0.00014792
0.000296394
5.94647e-05
8.38388e-05
9.8857e-06
0.000128746
0.000124678
0.000131353
6.21011e-06
2.94616e-05
0.000164451
1.28185e-05
6.16661e-05
2.61744e-05
0.000139663
3.89746e-05
0.000161327
1.15051e-05
1.54444e-05
2.36911e-05
0.000119852
9.91406e-05
7.26716e-05
0.000107109
8.64484e-06
0.000111951
7.06439e-05
6.35957e-05
1.05066e-05
1.39669e-05
2.81511e-05
5.93527e-05
6.02971e-06
0.000142442
8.28838e-05
2.15884e-05
0.000128595
1.94205e-05
1.83958e-05
7.7374e-06
1.88857e-05
3.17784e-05
1.47532e-05
2.14086e-05
7.66643e-05
9.44619e-06
6.95404e-05
0.000157523
0.000123877
1.31671e-05
9.0634e-06
2.90988e-05
2.23827e-05
1.16411e-05
0.000135662
1.7589e-05
7.5364e-06
3.16338e-05
1.65723e-05
0.000130582
6.00618e-05
8.80208e-05
7.74476e-06
5.78827e-05
1.27019e-05
0.000156496
3.17306e-06
0.000120831
2.08485e-05
0.000181888
6.94362e-05
1.94191e-05
5.17041e-05
0.00011493
0.000162589
9.32888e-06
0.000189198
5.42287e-05
9.48047e-05
2.112e-05
2.73672e-05
2.1359e-05
1.08265e-05
0.000159047
1.34096e-05
4.17872e-06
0.000278462
0.000133915
5.3085e-05
9.16146e-06
2.02549e-05
1.50163e-05
0.000111157
8.46324e-05
0.000149835
4.24518e-05
1.11954e-05
2.22379e-05
2.8131e-06
0.000113508
0.000151415
0.000218351
0.000144018
0.000114475
9.49229e-06
0.000106322
9.07552e-06
7.05124e-05
0.000135765
9.78944e-06
2.96235e-05
2.11165e-05
0.000175277
4.92983e-06
1.22222e-05
0.000122931
0.000246153
0.000178853
5.61893e-05
0.000172812
0.000240389
1.33053e-05
0.00019004
0.00011308
0.000390264
0.000335963
2.87767e-05
1.54583e-05
3.79856e-05
0.000128473
3.29582e-06
2.13201e-05
1.58588e-05
7.53275e-05
6.82412e-06
0.000147463
1.80899e-05
9.89152e-05
0.000375115
5.80293e-05
3.22387e-05
0.000108307
5.95218e-05
2.03447e-05
1.21064e-05
3.24608e-05
6.15964e-05
0.000165054
0.000114309
0.000280975
6.73335e-05
0.000163391
9.20737e-06
0.000129539
3.84939e-05
0.000153492
0.000123022
5.96667e-05
3.35618e-05
1.17908e-05
9.1448e-05
0.000169899
2.44116e-05
2.71123e-05
0.000124281
1.13065e-05
0.000144137
2.11509e-05
0.000125409
9.11181e-06
4.92255e-05
5.50911e-05
4.4692e-05
0.00012071
4.03526e-05
7.77825e-05
0.00012289
3.40296e-05
0.000111844
1.00131e-05
0.000179608
0.000159511
1.19966e-05
0.000175443
3.82522e-06
6.87961e-06
2.02378e-05
0.000252847
6.10518e-06
0.000123528
0.000278586
5.55654e-05
1.94366e-05
0.000121883
3.65638e-06
0.000242048
3.17315e-05
1.0311e-05
0.000117404
1.06918e-05
5.1283e-06
1.93422e-05
1.60958e-05
0.000136272
0.000151324
9.04324e-05
9.94889e-06
0.000109288
1.49271e-05
0.000154687
0.000320003
5.2828e-05
0.000250007
6.60383e-05
0.000114382
1.61283e-05
4.3719e-05
0.000123436
0.000187857
0.000275307
2.29552e-05
0.000155152
1.60739e-05
0.000124709
0.000169265
2.70823e-05
0.000141739
0.000220418
2.51869e-05
0.000107686
1.88957e-05
0.000157139
7.61842e-06
9.37044e-06
0.000116736
2.05083e-05
0.000135149
0.000118461
6.10645e-06
8.84255e-05
1.30674e-05
0.000148258
0.000161712
1.36029e-05
0.000174655
2.86586e-05
8.11621e-05
0.000215261
0.00011727
6.97489e-05
0.000141607
9.27264e-06
3.44665e-05
1.07733e-05
5.95622e-05
0.000181515
0.000121205
0.000175
0.000129187
0.000108924
0.000113042
6.86994e-05
0.000289625
2.14004e-05
9.56665e-06
1.43989e-05
1.42247e-05
8.30297e-05
5.46701e-05
6.37357e-05
0.000162819
7.62225e-05
6.61501e-05
9.85357e-05
1.35817e-05
0.000175687
2.03155e-05
0.000121028
3.90052e-05
1.15202e-05
0.0011669
0.000144085
1.4368e-05
7.22754e-05
0.000142209
1.91156e-05
0.000143743
6.42381e-05
0.000109015
6.56146e-05
0.000257161
0.000108189
1.10171e-05
5.64636e-05
0.000225958
5.72553e-05
6.69114e-05
0.000126597
0.000115503
7.80968e-06
5.41607e-06
0.000283325
6.14217e-05
7.96276e-05
5.60242e-05
0.000297884
0.00014955
0.00010549
8.25509e-06
0.000262781
1.44939e-05
9.61947e-05
0.000134661
5.66468e-05
4.9901e-06
1.2071e-05
1.88139e-05
6.70374e-05
5.65941e-05
0.000132872
3.46686e-05
5.08059e-06
5.93604e-05
8.48505e-06
0.000136704
3.60716e-05
0.000123374
0.000172313
1.11017e-05
1.17868e-05
5.36314e-05
0.000223905
0.000161065
0.000131774
6.51835e-05
5.57852e-05
0.000172365
0.000161699
0.000165795
1.94226e-05
8.23797e-05
2.35274e-05
6.08527e-05
1.67644e-05
0.000149479
3.69097e-05
6.04079e-06
0.000127642
0.000137737
0.000183381
2.5389e-05
0.000186243
4.51923e-05
0.000307982
0.000301022
4.10696e-05
9.96905e-05
1.55616e-05
3.97444e-05
0.000213615
1.14845e-05
4.60867e-05
0.0001198
6.79915e-05
9.69563e-06
2.94173e-05
5.58826e-05
0.000122374
3.78673e-05
1.03397e-05
3.74537e-06
9.49799e-06
0.0001573
5.56863e-05
0.000104454
0.000166405
1.15161e-05
0.000282594
0.000198593
4.7199e-05
0.000112566
7.92036e-06
6.55953e-05
7.91293e-06
8.82058e-05
0.000101801
0.000122355
0.000135012
2.27634e-05
4.42186e-05
4.83043e-05
2.80394e-05
5.10016e-05
9.8146e-06
1.1453e-05
6.86096e-06
2.16009e-05
9.54527e-06
0.000165708
1.66335e-05
7.87516e-06
0.000141264
9.05683e-05
0.000169811
1.03421e-05
1.09231e-05
1.69381e-05
5.53415e-05
2.09496e-05
9.13457e-05
5.60027e-05
0.000141884
4.12689e-06
0.000122478
7.95535e-05
0.00013301
0.000110673
7.03497e-05
0.000155409
0.000126805
0.000116091
0.000189697
0.000151544
0.000121858
5.79779e-05
0.000231767
0.000163226
1.52249e-05
1.4063e-05
3.56694e-05
7.37006e-06
1.42106e-05
0.000114383
0.000266451
1.64756e-05
8.75774e-06
9.02478e-06
9.61673e-06
6.9642e-05
3.64404e-05
1.05533e-05
7.40358e-05
0.000365731
5.25095e-05
8.66339e-05
0.00013046
0.000120751
0.000158609
2.2997e-05
2.67079e-05
7.02389e-05
6.80952e-05
6.12416e-05
0.000169334
6.43761e-05
0.000273605
0.000168251
1.67781e-05
5.40647e-05
0.00012404
2.54783e-05
4.88937e-05
0.000126899
8.98545e-06
0.000201657
9.20459e-05
7.56081e-06
8.80353e-05
0.000140988
9.17607e-05
9.06638e-05
1.8919e-05
1.2792e-05
1.11055e-05
8.46865e-05
0.00012797
2.08518e-05
2.21729e-05
0.000161357
0.000141993
2.20065e-05
7.38607e-06
0.000100012
0.000102483
0.000165484
1.22885e-05
6.24692e-06
1.69665e-05
1.97304e-05
4.36984e-05
7.2052e-06
1.16307e-05
0.000181262
6.76332e-06
6.38421e-06
0.000109561
7.68665e-06
1.13946e-05
0.000147179
4.15656e-06
2.37092e-05
1.30523e-05
2.16347e-05
0.000102683
0.000113772
6.80008e-05
2.39582e-05
0.000112365
2.32726e-05
6.59122e-05
3.80222e-06
2.18758e-05
3.8752e-06
0.000149385
3.99567e-06
0.000116393
0.000122943
9.70096e-06
0.000142483
0.000150748
5.28565e-05
0.000102651
5.57497e-05
1.6588e-05
0.000150768
9.18526e-06
0.000105053
1.54772e-05
2.69749e-05
2.75915e-05
0.000107137
2.29732e-05
3.57498e-05
0.000199891
4.01502e-05
3.83714e-05
3.32397e-05
0.000127832
2.67319e-05
0.000218021
0.000165313
6.41513e-05
1.07024e-05
5.81882e-05
7.9366e-05
0.000140306
1.51302e-05
0.000158887
0.000169226
0.000165613
0.000102598
1.67058e-05
8.17441e-06
1.60428e-05
1.12731e-05
0.000144254
7.36217e-05
0.0001716
0.000147799
2.19794e-05
7.09538e-05
1.71746e-05
7.56225e-06
3.41733e-05
0.000147227
6.16546e-05
0.000115716
0.000132907
7.34261e-05
5.51965e-05
2.07261e-05
2.05277e-05
6.399e-05
0.000169316
0.000162362
1.71486e-05
6.14025e-05
0.000146203
2.72068e-05
0.000133413
9.98719e-05
5.92135e-06
0.000204092
2.18713e-05
0.000154909
1.41671e-05
2.22253e-05
0.00013955
2.21978e-05
5.20549e-05
1.74642e-05
4.12405e-05
2.77525e-05
0.000175144
2.18834e-05
0.000123094
6.12902e-05
0.000190208
5.43059e-05
5.17544e-06
0.000247993
0.000190607
4.61031e-05
0.000109344
1.81898e-05
8.74115e-06
0.000123733
5.96786e-06
6.7259e-05
3.81806e-05
1.81068e-05
6.25512e-05
6.77405e-05
7.0463e-06
0.000116445
0.000114685
0.000190103
7.32835e-06
6.90655e-05
0.000179076
1.11672e-05
1.24578e-05
1.10066e-05
8.53282e-05
1.09777e-05
0.000123296
0.00015701
0.000239896
0.000277744
0.000116268
0.000145165
0.000153134
5.48023e-05
4.9937e-05
0.000175823
0.000182179
2.0967e-05
3.31449e-05
9.1611e-05
0.000152386
0.00034998
8.46283e-05
0.000126841
0.000203893
7.36384e-05
7.55165e-05
3.46681e-06
0.000110385
5.57092e-05
1.56428e-05
1.5426e-05
3.51003e-05
1.81784e-05
5.15993e-05
1.40383e-05
0.00024501
1.47348e-05
1.49094e-05
0.000134846
7.86898e-05
0.000117614
0.000112923
0.000246711
6.39286e-05
0.000131322
1.85099e-05
0.000150005
0.000121705
1.35074e-05
0.00011101
0.000201756
0.000263189
5.50843e-05
7.68239e-06
8.982e-05
3.14982e-05
6.84505e-05
2.55171e-05
2.2957e-05
2.47406e-05
5.78465e-05
2.84861e-05
5.92162e-05
0.000167264
1.35086e-05
9.30766e-05
1.72832e-05
1.71894e-05
1.94595e-05
0.000143833
2.38662e-05
0.000139923
2.22615e-05
2.08138e-05
1.57897e-05
8.93307e-05
2.57552e-05
0.000114643
0.000140545
7.77581e-05
1.83243e-05
9.89921e-05
1.0416e-05
0.000116603
6.84655e-05
8.34116e-06
3.29131e-05
8.04733e-06
8.5578e-05
1.06904e-05
5.15695e-05
0.000106046
0.000140706
0.000123038
0.000112024
6.00193e-05
5.23565e-06
1.11133e-05
0.000321935
0.000121155
0.000374683
3.26237e-05
1.68887e-05
1.63982e-05
1.97861e-05
0.00011622
0.000104669
0.000121811
5.93864e-05
0.000153666
6.35157e-05
2.94412e-05
5.39905e-05
0.000122493
1.75055e-05
0.000102737
0.000151253
0.000147304
2.58232e-05
4.65164e-06
0.000118787
6.4849e-05
0.000298751
0.000152786
8.36244e-06
4.96186e-05
4.47898e-05
3.89511e-05
0.00015161
8.34446e-06
6.63263e-05
5.01901e-05
2.08123e-05
5.40911e-06
0.000118917
3.20214e-05
8.75361e-05
1.40362e-05
0.000181766
1.96325e-05
6.06965e-05
2.39954e-05
0.000114741
2.39939e-05
8.91141e-06
3.39271e-05
9.6269e-06
0.000135784
8.33099e-06
9.84873e-06
0.000122808
1.13991e-05
4.51105e-05
1.97793e-05
5.05254e-05
9.30423e-06
0.000172988
6.41764e-05
6.23961e-05
1.87039e-05
8.95502e-05
1.13024e-05
2.19155e-05
5.58151e-05
4.00974e-05
2.02173e-05
0.000117054
2.03789e-05
0.000243347
0.000146165
7.53686e-06
0.000153494
9.77141e-06
5.66838e-05
0.000116448
2.16078e-05
0.000102124
0.00016121
0.000133437
0.000118173
0.000111609
9.09651e-05
1.5683e-05
0.000175748
6.92503e-06
6.41572e-05
6.34531e-05
0.00021892
5.34817e-05
0.000153477
8.51329e-06
1.05275e-05
5.07804e-06
4.55994e-05
0.000146663
0.000105517
8.93434e-06
0.00018282
0.000142527
0.000132959
7.16445e-06
4.96939e-05
0.000240686
0.000268672
4.26069e-05
0.000117379
0.000134793
0.000118021
2.01288e-05
5.76493e-05
0.000114588
9.44953e-06
1.98308e-05
0.000151012
1.77787e-05
0.000166983
4.80198e-06
1.24059e-05
0.000163752
6.00802e-05
0.000182193
8.99349e-06
9.83909e-05
0.000176603
2.9694e-05
1.13881e-05
5.51276e-05
2.02431e-05
9.3333e-06
0.000114064
1.62695e-05
1.14129e-05
0.000239229
0.000192223
6.08688e-05
0.000134293
5.61982e-05
3.64771e-05
0.000111014
5.008e-05
1.56326e-05
0.000176374
0.000200537
0.000115041
0.00010445
0.000122389
6.13306e-06
0.000152201
0.000124704
2.48339e-05
5.72348e-05
0.000110046
0.000112954
1.03493e-05
3.40263e-05
0.000185628
5.93953e-05
1.02372e-05
4.17314e-05
8.72815e-06
9.91188e-06
3.7599e-05
0.000125134
0.000156817
0.000167437
3.50709e-05
3.06268e-05
6.1369e-05
0.00016307
0.000119889
8.40625e-05
1.27403e-05
2.6251e-05
0.000164236
8.44135e-06
7.31663e-06
0.000144554
2.36187e-05
6.14458e-05
2.51834e-05
0.000115178
0.000105327
0.000107488
0.000184295
5.63037e-05
0.000145044
0.000132916
5.1494e-05
5.43689e-05
1.02654e-05
6.01453e-05
6.75165e-05
0.000122282
6.74567e-05
0.000161782
9.60209e-05
1.97807e-05
1.32671e-05
4.83818e-05
6.29608e-05
8.70022e-06
6.92129e-05
5.4474e-05
2.31439e-05
0.000369469
7.82497e-06
3.72342e-05
1.50046e-05
0.000112012
0.000114264
0.000128466
5.48157e-05
0.000106416
0.00012505
1.75237e-05
2.84046e-05
2.13097e-05
0.000155368
1.96664e-05
5.58863e-05
8.24337e-05
3.46566e-05
1.31527e-05
7.57532e-06
0.000228561
1.1051e-05
6.16531e-05
2.0913e-05
0.00016656
0.000166217
8.95686e-06
1.28941e-05
2.42175e-05
3.979e-05
9.13833e-05
4.4595e-05
0.000138599
5.40327e-05
2.81652e-05
9.45419e-05
1.19211e-05
4.23117e-05
6.52948e-05
1.54087e-05
5.89482e-05
1.42183e-05
0.000141405
4.78041e-06
1.05007e-05
7.27977e-06
7.82361e-06
1.01587e-05
1.54611e-05
0.000135505
1.31259e-05
5.51725e-05
1.88752e-05
4.86228e-06
9.05493e-05
0.000100026
8.54389e-06
0.000177428
2.27632e-05
0.000119874
7.68711e-06
1.60346e-05
5.83142e-06
7.33419e-06
4.60985e-06
0.000110105
0.00016576
0.000254119
0.000252844
0.000131192
3.18929e-05
6.47515e-05
0.000113304
0.000310943
9.00781e-06
0.000182051
8.34673e-06
5.55939e-06
3.29408e-05
0.000235213
6.48881e-05
0.000137291
8.45906e-05
0.000115164
0.000139796
2.24203e-05
5.43452e-05
5.68927e-05
4.00698e-05
0.00014056
1.61143e-05
2.11624e-05
1.48238e-05
3.1606e-05
1.35168e-05
9.63708e-05
0.0001342
1.09928e-05
4.17072e-05
1.47636e-05
0.000197546
1.76528e-05
1.52379e-05
2.6941e-05