/*--------------------------------*- C++ -*----------------------------------*\
| =========                 |                                                 |
| \\      /  F ield         | OpenFOAM: The Open Source CFD Toolbox           |
|  \\    /   O peration     | Version:  2406                                  |
|   \\  /    A nd           | Website:  www.openfoam.com                      |
|    \\/     M anipulation  |                                                 |
\*---------------------------------------------------------------------------*/
FoamFile
{
    version     2.0;
    format      ascii;
    arch        "LSB;label=32;scalar=64";
    class       volScalarField;
    location    "42";
    object      p;
}
// * * * * * * * * * * * * * * * * * * * * * * * * * * * * * * * * * * * * * //

dimensions      [0 2 -2 0 0 0 0];

internalField   nonuniform List<scalar> 
59516
(
0.249885
0.0145938
0.0139227
0.00192923
0.263315
0.283845
0.250732
0.22225
0.072922
-0.000537056
0.25802
0.252004
0.174254
0.249162
0.233942
0.0739245
0.251109
0.258959
0.255287
0.248067
0.254435
0.221667
0.250632
0.160617
0.064788
0.155015
0.0914071
0.257728
0.25311
0.232913
0.266663
0.257878
0.116476
0.00149536
0.255488
0.209246
0.0629502
0.261801
0.253722
0.0127215
0.0150418
0.258076
0.254601
0.00152115
0.253134
0.039647
0.253947
0.254459
0.264963
0.255787
0.270988
0.00123519
0.118647
0.226377
0.253903
0.252978
0.259261
0.0016155
0.160327
0.256569
0.00155194
0.204655
0.161422
0.251564
0.0032024
0.253426
0.00793195
0.213144
0.265289
0.252999
0.216966
0.248091
0.0440462
0.249309
0.214387
0.252583
0.253963
0.0281363
0.177621
0.255658
0.00146402
0.255657
0.254686
0.104048
0.255646
0.247506
0.0731598
0.248237
0.117481
0.258928
0.261473
0.218252
0.243067
0.215415
0.216334
0.264675
0.232931
0.222947
0.255407
0.172284
0.0793467
0.143042
0.228645
0.00856717
0.0440119
0.00657296
0.00609187
0.068729
0.123786
0.179142
0.263599
0.0855093
0.218803
0.264143
0.240542
0.199094
0.0308996
0.226832
0.227282
0.0310765
0.228687
0.22519
0.0591579
0.226742
0.26208
0.255565
0.24077
0.259686
0.270742
0.242175
0.239779
0.014924
0.214276
0.242762
0.243442
0.211136
0.262477
0.23643
0.144156
0.246561
0.0866583
0.108584
0.222404
0.0859699
0.247198
0.244847
0.253486
0.248957
0.269775
0.243699
0.247045
0.00302592
0.240695
0.00298127
0.242271
0.00530488
0.00391861
0.243006
0.243635
0.234749
0.247313
0.247047
0.234109
0.00437779
0.197339
0.0291545
0.0729786
0.244644
0.245307
0.00414094
0.242339
0.242363
0.237769
0.238619
0.238166
0.254505
0.20015
0.255283
0.0135491
0.197716
0.240496
0.12725
0.151013
0.239874
0.240276
0.080886
0.111619
0.0622692
0.241544
0.239044
0.000368007
0.126134
0.244499
0.239021
0.245815
0.0198392
0.144796
0.14426
0.00391385
0.23731
-0.00052452
0.0611924
0.223651
0.173183
0.204381
0.127293
0.245356
0.0033476
0.165262
0.230851
0.0412378
0.257502
0.229827
0.205462
0.231007
0.0919658
0.244027
0.019813
0.189043
0.23136
0.231237
0.244996
0.237623
0.00439975
0.234052
0.199502
0.164621
0.173315
0.237308
0.0359607
0.233361
0.125293
0.237797
0.132021
0.138886
0.238002
0.236485
0.0499758
0.236305
0.053206
0.240835
0.127502
0.123553
0.00323874
0.241972
0.241513
0.239049
0.0120995
0.237888
0.241119
0.0125905
0.239138
0.241281
0.150016
0.240254
0.241001
0.0743998
0.2357
0.182853
0.232493
0.166973
0.234349
0.235914
0.235658
0.209088
0.0566072
0.190008
0.0674331
0.233235
0.157851
0.251248
0.203955
0.0716215
0.160748
0.234358
0.209271
0.158166
0.233132
0.234035
0.092474
0.237413
0.173884
0.161818
0.231894
0.2302
0.250472
0.240856
0.00729005
0.235953
0.210218
0.235075
0.232323
0.215848
0.0286583
0.219077
0.12309
0.211144
0.206753
0.232979
0.21004
0.209619
0.0593839
0.0967112
0.203947
0.21335
0.154619
0.0197051
0.209522
0.210684
0.078976
0.064746
0.210726
0.150934
0.14219
0.253342
0.212477
0.224281
0.26538
0.211796
0.0621519
0.125457
0.223148
0.133326
0.226222
0.1741
0.213086
0.25738
0.224372
0.164525
0.225678
0.022523
0.247015
0.161726
0.225632
0.185101
0.232433
0.235858
0.203513
0.256735
0.230602
0.205576
0.203375
0.226682
0.0496299
0.102269
0.23046
0.0950827
0.23508
0.226944
0.183343
0.237146
0.238864
0.0368282
0.118316
0.164607
0.050572
0.00765025
0.263455
0.268031
0.19891
0.0329464
0.243387
0.25645
0.219369
0.0324736
0.225689
0.225108
0.243806
0.267088
0.229206
0.0840081
0.0824371
0.224716
0.169051
0.194265
0.22447
0.226123
0.220618
0.180194
0.214743
0.244285
0.00122589
0.25724
0.0101232
0.0191028
0.226068
0.00746164
0.256748
0.225432
0.0139929
0.0136351
0.0560438
0.220872
0.262052
0.223626
0.262538
0.011223
0.0739919
0.220825
0.221903
0.23242
0.218803
0.181323
0.232742
0.23389
0.0597607
0.143582
0.234034
0.232443
0.231434
0.0394556
0.0223192
0.0242808
0.130989
0.205056
0.0102278
0.0358059
0.0687786
0.00473543
0.220384
0.218061
0.224006
0.22364
0.234823
0.223359
0.171749
0.217663
0.1487
0.223931
0.186786
0.227261
0.222415
0.209194
0.132486
0.232865
0.257129
0.0231563
0.22789
0.168576
0.0816572
0.171283
0.189759
0.229694
0.227667
0.224457
0.22281
0.0789175
0.222511
0.173277
0.0285102
0.191959
0.26819
0.148355
0.0636936
0.224847
0.18489
0.222062
0.139254
0.22209
0.0627973
0.222982
0.00409476
0.00773395
0.219244
0.254633
0.216991
0.200734
0.0378217
0.203918
0.202133
0.0424585
0.210925
0.202211
0.197523
0.19686
0.0995175
0.204464
0.199282
0.135853
0.197334
0.0877179
0.194876
0.257879
0.195078
0.270242
0.196121
0.236785
0.0853843
0.0983939
0.170525
0.00405459
0.00307236
0.184919
0.208954
0.213075
0.164167
0.199973
0.0502893
0.218851
0.21676
0.259052
0.144814
0.127069
0.173941
0.216487
0.0210549
0.21122
0.250226
0.00477145
0.289887
0.217676
0.0660234
0.24681
0.183366
0.252136
0.203185
0.176419
0.195135
0.220016
0.179773
0.220263
0.243359
0.0757954
0.0760752
0.262742
0.00315082
0.218734
0.210065
0.262287
0.208382
0.246828
0.000950389
0.211826
0.0860891
0.00039977
0.159594
0.0397576
0.260229
0.226172
0.0704217
0.00254137
0.232766
0.129794
0.210761
0.23187
0.210073
0.244049
0.000821847
0.105888
0.0693705
0.209929
0.0361573
0.154043
0.218729
0.13522
0.217306
0.00268193
0.2218
0.0656764
0.218097
0.171458
0.117191
0.10924
0.219936
0.0023035
0.0436995
0.208863
0.0814144
0.165279
0.189188
0.124194
0.119297
0.208532
0.207919
0.239211
0.207137
0.118274
0.208735
0.206589
0.113371
0.101354
0.000953038
0.207708
0.207456
0.209202
0.096769
0.200477
0.0106396
0.210009
0.00567311
0.220339
0.000865097
0.0247134
0.177951
0.12664
0.0110875
0.210476
0.260507
0.00362747
0.017477
0.207212
0.203806
0.0339964
0.206027
0.206729
0.139786
0.040742
0.220378
0.213222
0.0140325
0.208789
0.209074
0.15331
0.205356
0.269295
0.209557
0.262529
0.180036
0.264944
0.182851
0.0235342
0.246035
0.00559722
0.00620109
0.266634
0.265305
0.184631
0.208857
0.259981
0.256772
0.12948
0.104014
0.16974
0.063464
0.180732
0.120163
0.257031
0.183647
0.185952
0.202188
0.191217
0.26716
0.172705
0.194963
0.0544823
0.195237
0.145156
0.0182534
0.195207
0.194238
0.1956
0.146367
0.0887313
0.275389
0.123203
0.126489
0.150128
0.232317
0.195866
0.0642126
0.181178
0.149939
0.0134557
0.0668988
0.198249
0.228156
0.157172
0.146777
0.197432
0.197342
0.0794408
0.238465
0.206743
0.135901
0.203806
0.163783
0.213894
0.201541
0.0103522
0.0260914
0.183365
0.267789
0.143988
0.134344
0.00334266
0.153769
0.201183
0.115886
0.211037
0.206349
0.0882363
0.121218
0.209257
0.246594
0.220529
0.167195
0.267144
0.209149
0.0342738
0.217903
0.269938
0.0218715
0.120279
0.232792
0.196866
0.0766753
0.191053
0.0234828
0.0176695
0.166742
0.197271
0.267209
0.222223
0.196711
0.196307
0.20205
0.0895309
0.0109018
0.0650339
0.220727
0.266562
0.148452
0.199364
0.133893
0.0577393
0.196011
0.0616154
0.196916
0.251397
0.121864
0.0022931
0.225809
0.0945827
0.202592
0.0178553
0.0761062
0.151489
0.22886
0.200746
0.202626
0.267857
0.229149
0.0386581
0.269856
0.00339936
-0.000620322
0.201986
0.0415706
0.110277
0.151245
0.105958
0.267385
0.19867
0.225525
0.194569
0.0451854
0.162538
0.0517429
0.124421
0.224008
0.194425
0.196215
0.193958
0.0720735
0.241587
0.182404
0.0641433
0.195276
0.193619
0.193
0.179737
0.195251
0.0193242
0.0120364
0.194207
0.00358128
0.117861
0.13504
0.010517
0.141956
0.166021
0.24884
0.184503
0.217309
0.170185
0.125147
0.195839
0.1977
0.1981
0.106643
0.197076
0.241987
0.0166801
0.00281951
0.132265
0.112743
0.0030712
0.196711
0.194043
0.195541
0.0183149
0.0301238
0.193289
0.231995
0.0289863
0.0381982
0.267369
0.258841
0.199148
0.0394228
0.2086
0.184098
0.213618
0.167281
0.190833
0.261343
0.167451
0.166895
0.0856601
0.168846
0.262336
0.0324741
0.188849
0.167366
0.101005
0.206331
0.212735
0.0870706
0.204994
0.229487
0.207887
0.167421
0.252592
0.0513105
0.166935
0.224427
0.0149667
0.179394
0.0690721
0.164171
0.0908246
0.261375
0.170981
0.00311796
0.164996
0.164199
0.174897
0.166196
0.153184
0.00473422
0.0418377
0.205449
0.177277
0.146131
0.207867
0.106236
0.2305
0.0236832
0.176783
0.0789312
0.160089
0.208169
0.0154083
0.179548
0.175989
0.263649
0.0249481
0.213819
0.234507
0.0400066
0.172867
0.0417412
0.140298
0.197307
0.212506
0.17258
0.171441
0.170829
0.267278
0.0310658
0.211424
0.104938
0.0187619
0.173398
0.21663
0.183987
0.182976
0.0322191
0.185776
0.18742
0.098609
0.237083
0.265867
0.248945
0.139758
0.187651
0.00402367
0.256074
0.169072
0.184793
0.153614
0.187039
0.185431
0.190231
0.207251
0.190319
0.212641
0.185916
0.246296
0.2476
0.185396
0.203613
0.184464
0.212597
0.213397
0.0132637
0.12249
0.145733
0.0130116
0.196911
0.1879
0.198525
0.103568
0.0064336
0.108124
0.184252
0.201629
0.201707
0.119462
0.138123
0.1992
0.264229
0.189135
0.00843795
0.0187156
0.22126
0.190428
0.113662
0.151947
0.188013
0.123398
0.180255
0.180721
0.180493
0.153841
0.20387
0.179912
0.2684
0.023794
0.179657
0.26863
0.180194
0.236146
0.0410007
0.178412
0.11341
0.0864506
0.180562
0.179835
0.111464
0.113581
0.178673
0.0955351
0.176951
0.177717
0.184493
0.105893
0.175529
0.0305317
0.178106
0.177713
0.119725
0.176023
0.176501
0.249983
0.171229
0.144468
0.172607
0.174569
0.121382
0.0583112
0.104655
0.256814
0.176797
0.177793
0.149551
0.0597481
0.257303
0.152165
0.155015
0.150894
0.149795
0.0112544
0.0059233
0.0494292
0.0998139
0.177932
0.177221
0.00578209
0.221148
0.16732
0.0764411
0.257369
0.146335
0.145177
0.259743
0.148004
0.214207
0.0452528
0.146106
0.20845
0.19331
0.146476
0.108139
0.0393722
0.147114
0.221138
0.1982
0.113044
0.0538411
0.0869926
0.153824
0.0901921
0.220882
0.0862172
0.151342
0.161889
0.263587
0.117151
0.0104749
0.0569456
0.0878096
0.148586
0.219301
0.160613
0.160354
0.020345
0.127137
0.00822994
0.16291
0.162899
0.0891204
0.0126243
0.195043
0.0387268
0.240713
0.181348
0.177958
0.255829
0.0871927
0.20937
0.218263
0.145961
0.0156146
0.178025
0.253476
0.17624
0.174045
0.148504
0.0770167
0.177711
0.0168104
0.254854
0.222644
0.119052
0.177242
0.169443
0.220464
0.248519
0.210813
0.029298
0.0778881
0.174786
0.182714
0.205609
0.115984
0.20217
0.258813
0.173541
0.204312
0.0697956
0.180076
0.135328
0.083765
0.179672
0.17976
0.178769
0.204408
0.175614
0.0406494
0.176467
0.0766132
0.200618
0.020021
0.174631
0.203815
0.00383782
0.0227642
0.171413
0.065388
0.0446554
0.0693129
0.0581464
0.10536
0.0382009
0.174133
0.172271
0.0307289
0.171377
0.172565
0.202637
0.00987922
0.173862
0.16682
0.0022386
0.0242169
0.163954
0.0952762
0.00370844
0.0125696
0.164436
0.117869
0.169588
0.251512
0.0163647
0.202996
0.152533
0.168772
0.165866
0.149949
0.191723
0.176369
0.170706
0.156088
0.254452
0.22384
0.169383
0.17207
0.234408
0.0346903
0.22159
0.192102
0.116363
0.109877
0.17184
0.0785506
0.0196912
0.158681
0.163447
0.269315
0.13765
0.163686
0.161612
0.188208
0.0779254
0.161809
0.162859
0.245194
0.163315
0.0736599
0.166255
0.166007
0.133074
0.120658
0.146019
0.166046
0.163168
0.16592
0.112137
0.141106
0.16949
0.147641
0.111011
0.118092
0.118813
0.119228
0.138285
0.164185
0.141222
0.25752
0.235749
0.0422611
0.100139
0.1044
0.139375
0.137259
0.141493
0.18152
0.138226
0.137551
0.0828784
0.104392
0.193029
0.0822934
0.0334176
0.14069
0.13963
0.142368
0.239377
0.0137782
0.00680727
0.0979587
0.150409
0.147511
0.221732
0.0340744
0.139973
0.257628
0.0400883
0.148851
0.148674
0.177219
0.00182322
0.146963
0.147385
0.146569
0.15877
0.0050376
0.00742939
0.159256
0.159273
0.156068
0.157739
0.163618
0.154644
0.0774838
0.0157353
0.262468
0.197787
0.159616
0.158462
0.119753
0.250193
0.243264
0.226056
0.00137489
0.226273
0.160478
0.160574
0.159129
0.159934
0.16063
0.159178
0.217072
0.133735
0.211198
0.141163
0.0770789
0.0138073
0.161646
0.120258
0.00443269
0.142892
0.166347
0.254224
0.16756
0.114159
0.11056
0.195141
0.124923
0.164274
0.170733
0.168583
0.136891
0.147704
0.250256
0.163783
0.209577
0.0738507
0.0610474
0.161681
0.0632412
0.0223391
0.166467
0.165924
0.123052
0.0830307
0.0952908
0.236325
0.165392
0.0492352
0.00574314
0.148719
0.0276347
0.117182
0.160094
0.197743
0.14795
0.0252326
0.240905
0.0148886
0.234399
0.129988
0.222576
0.152626
0.0436413
0.161712
0.145935
0.0925007
0.111172
0.162316
0.162657
0.241781
0.199343
0.211171
0.246622
0.204768
0.197428
0.197801
0.215749
0.158815
0.158025
0.124697
0.0622077
0.0714925
0.017587
0.223732
0.12531
0.155628
0.153655
0.154791
0.043856
0.151635
0.21255
0.00503799
0.151494
0.156025
0.17846
0.264978
0.213591
0.212373
0.152345
0.0124599
0.223091
0.154503
0.186607
0.162079
0.190459
0.201771
0.142213
0.220317
0.157552
0.199169
0.161943
0.0198594
0.214026
0.220769
0.127753
0.260611
0.0717033
0.0825894
0.0720228
0.140686
0.208347
0.0580815
0.186064
0.0595155
0.158207
0.158204
0.136114
0.164235
0.148881
0.232599
0.191951
0.147105
0.197056
0.154053
0.265997
0.21843
0.15375
0.149462
0.191648
0.228774
0.151123
0.0259156
0.185574
0.232368
0.148078
0.134986
0.15239
0.155172
0.156555
0.157408
0.00378272
0.0719603
0.158583
0.259902
0.157127
0.128854
0.205335
0.126417
0.109823
0.233473
0.260087
0.214635
0.214716
0.21635
0.0344129
0.147443
0.176547
0.258578
0.247047
0.260643
0.264273
0.246831
0.130931
0.127768
0.259031
0.0565302
0.13205
0.196535
0.128923
0.214157
0.201865
0.258805
0.240326
0.213824
0.0714854
0.131099
0.14517
0.139384
0.146385
0.216751
0.197669
0.145766
0.141387
0.143497
0.0155951
0.229052
0.040893
0.147031
0.173573
0.152538
0.148508
0.143234
0.0411845
0.149953
0.132177
0.149214
0.148281
0.221042
0.135193
0.0771964
0.0465593
0.207395
0.106192
0.105395
0.202535
0.0880503
0.0491987
0.0424505
0.0320328
0.199578
0.0663709
0.1346
0.167593
0.0316689
0.226048
0.226839
0.0940879
0.0912588
0.244339
0.139145
0.0152025
0.162311
0.0321099
0.195033
0.0305876
0.047566
0.0191525
0.00996669
0.0790466
0.222164
0.0457247
0.0242568
0.0253478
0.146028
0.0292479
0.143905
0.227737
0.147603
0.145058
0.199048
0.0451521
0.150554
0.149175
0.0119891
0.072029
0.222994
0.150428
0.150898
0.200984
0.22811
0.217207
0.227156
0.0541352
0.250991
0.259018
0.150495
0.151396
0.0128047
0.23501
0.257905
0.148712
0.112829
0.148071
0.0173689
0.217972
0.00668015
0.0449968
0.139726
0.179936
0.141395
0.115198
0.224307
0.105833
0.213141
0.140055
0.141128
0.0695494
0.133158
0.120784
0.254246
0.224402
0.192853
0.140202
0.229187
0.0775295
0.0443671
0.0640959
0.0134439
0.140465
0.226326
0.139899
0.0136308
0.0113705
0.220717
0.142144
0.0672825
0.235888
0.142293
0.142757
0.221082
0.019721
0.219423
0.143272
0.146086
0.147215
0.154436
0.147264
0.215548
0.212262
0.147365
0.243217
0.157388
0.212038
0.179444
0.145267
0.22727
0.142268
0.114078
0.245411
0.160659
0.144549
0.0116949
0.147989
0.146734
0.110475
0.141288
0.195674
0.0564103
0.224688
0.134748
0.205009
0.215373
0.14478
0.158059
0.0103944
0.0674401
0.0545524
0.143081
0.225116
0.0189713
0.140399
0.245646
0.0537598
0.203239
0.0508415
0.141248
0.172493
0.13941
0.00138368
0.185277
0.225134
0.110601
0.0350806
0.0548615
0.106971
0.108659
0.115831
0.222774
0.0108727
0.0355777
0.121294
0.12258
0.211308
0.195866
0.123206
0.12855
0.117613
0.179465
0.246791
0.231035
0.156773
0.0292384
0.208852
0.207774
0.0938343
0.0484762
0.191021
0.088872
0.121147
0.199101
0.156933
0.160736
0.137034
0.117354
0.127608
0.127354
0.125645
0.202737
0.130061
0.175121
0.242879
0.22498
0.196943
0.217661
0.1184
0.0865722
0.223709
0.130882
0.199753
0.155051
0.205693
0.252507
0.122919
0.00692981
0.132165
0.134078
0.140696
0.222116
0.13147
0.13822
0.1598
0.14056
0.159559
0.134071
0.00186007
0.158355
0.138203
0.137549
0.00508486
0.197921
0.248602
0.157951
0.165181
0.124731
0.139852
0.138485
0.0567352
0.246591
0.140234
0.139846
0.141837
0.0345299
0.222606
0.150723
0.126108
0.158062
0.0822591
0.107374
0.210607
0.130036
0.126469
0.102565
0.12694
0.137567
0.0859909
0.13017
0.222463
0.147487
0.0748197
0.221485
0.222475
0.113544
0.114548
0.0965203
0.130237
0.0572396
0.133609
0.0630506
0.26802
0.207006
0.171441
0.0821856
0.0207182
0.231292
0.0186652
0.0215514
0.129578
0.00208567
0.130099
0.0301737
0.172641
0.0909108
0.128745
0.19374
0.173688
0.129852
0.026136
0.0213293
0.168972
0.127727
0.0380478
0.130676
0.129154
0.14742
0.135767
0.251647
0.199835
0.231174
0.170541
0.195123
0.129645
0.199291
0.171955
0.130014
0.232777
0.255334
0.194082
0.189431
0.130074
0.215969
0.127009
0.231992
0.167314
0.197494
0.0192468
0.0402377
0.187208
0.0103245
0.224478
0.267661
0.234381
0.0121428
0.0552353
0.0186182
0.220843
0.229984
0.00629807
0.173707
0.122985
0.215617
0.178091
0.122442
0.130928
0.0308282
0.190511
0.194151
0.0536701
0.251554
0.23089
0.139709
0.124456
0.262642
0.123585
0.256518
0.192488
0.190492
0.124777
0.239933
0.110792
0.237914
0.221916
0.24237
0.00693443
0.127879
0.249666
0.0672493
0.258324
0.128303
0.243858
0.0967606
0.0959764
0.102157
0.252556
0.207681
0.241348
0.206535
0.108962
0.249431
0.24986
0.0973431
0.251092
0.113143
0.200048
0.107075
0.207518
0.137833
0.0933366
0.131079
0.090469
0.131888
0.0203722
0.114598
0.104949
0.232294
0.101884
0.193341
0.145752
0.172626
0.112265
0.0382301
0.0837829
0.194811
0.10715
0.231916
0.0723336
0.116809
0.238623
0.198394
0.11894
0.215576
0.117189
0.106832
0.104613
0.136365
0.112008
0.00212179
0.0382145
0.041954
0.107446
0.10814
0.197052
0.0481019
0.0279485
0.10216
0.068106
0.230362
0.209673
0.0339353
0.119683
0.175231
0.113378
0.121012
0.0974116
0.11863
0.209153
0.118159
0.164688
0.000679718
0.227256
0.161878
0.259962
0.121892
0.118225
0.0216572
0.232576
0.0906418
0.122591
0.19987
0.126698
0.123493
0.116018
0.11407
0.0315934
0.126232
0.120987
0.121767
0.116431
0.136033
0.118594
0.227398
0.098408
0.123811
0.229462
0.259657
0.169216
0.101986
0.188404
0.121357
0.11094
0.105687
0.0571529
0.0989853
0.0905949
0.247557
0.100298
0.136519
0.134202
0.0338209
0.0991689
0.22692
0.113073
0.116005
0.160489
0.15158
0.110773
0.175856
0.136717
0.114292
0.111753
0.126921
0.112164
0.225555
0.217256
0.101753
0.0983642
0.108338
0.0443256
0.114652
0.136486
0.196308
0.111607
0.115724
0.105819
0.117531
0.228057
0.0977987
0.220852
0.11545
0.11159
0.103184
0.112028
0.0871986
0.108578
0.0890008
0.0778171
0.11061
0.244804
0.125821
0.242714
0.161446
0.0747267
0.0243945
0.0962827
0.227072
0.112898
0.111553
0.0822794
0.11331
0.081916
0.229012
0.227531
0.0857769
0.086428
0.0901717
0.0906801
0.182349
0.143591
0.0883236
0.0888747
0.0669832
0.109841
0.0903166
0.0906919
0.0522895
0.0506562
0.00244387
0.0909335
0.184381
0.0315796
0.14371
0.0941918
0.0969901
0.101343
0.129395
0.224819
0.114903
0.0831933
0.012249
0.0197726
0.145583
0.0954346
0.090531
0.124436
0.0329209
0.0216633
0.0966633
0.226354
0.107378
0.109228
0.0512849
0.101471
0.253348
0.103928
0.102056
0.142566
0.10417
0.107707
0.226321
0.108302
0.122325
0.0195913
0.00431999
0.177497
0.038248
0.0221564
0.111691
0.0922703
0.226725
0.109689
0.234858
0.235329
0.106655
0.225555
0.00757682
0.103092
0.10968
0.0358118
0.11079
0.235259
0.260093
0.0514474
0.231295
0.109228
0.195396
0.214758
0.109839
0.114516
0.233654
0.107546
0.251981
0.109208
0.13251
0.118683
0.252764
0.231175
0.133867
0.112063
0.10881
0.203421
0.132173
0.203233
0.231285
0.227881
0.11236
0.0128845
0.112882
0.105108
0.202064
0.0856269
0.202763
0.0436461
0.214271
0.000340046
0.227551
0.132963
0.0947823
0.104209
0.230028
0.101808
0.227167
0.220626
0.229681
0.0141518
0.00373426
0.204786
0.00391122
0.101632
0.13093
0.176408
0.0994041
0.220969
0.150831
0.22503
0.0970573
0.223303
0.185376
0.20165
0.261174
0.137128
0.246732
0.0966592
0.0106362
0.150781
0.010415
0.25852
0.0477481
0.145912
0.201911
0.106443
0.101345
0.014616
0.0352267
0.103394
0.207325
0.229636
0.00708567
0.235555
0.133149
0.251493
0.0610274
0.209713
0.10322
0.186054
0.231343
0.183426
0.172112
0.194088
0.211342
0.225093
0.169953
0.044664
0.198271
0.10499
0.105254
0.10485
0.0630377
0.245934
0.246945
0.199993
0.114763
0.220939
0.227706
0.114527
0.105871
0.104707
0.101215
0.246027
0.0505881
0.0990003
0.156148
0.101558
0.19794
0.183269
0.121689
0.0600157
0.102582
0.100659
0.142568
0.257077
0.164664
0.100761
0.222422
0.0716918
0.054749
0.241934
0.00512285
0.0713373
0.0147211
0.0714931
0.07171
0.223535
0.0994181
0.184796
0.222099
0.124019
0.105849
0.230939
0.0755243
0.228071
0.0952341
0.0981963
0.0984304
0.20181
0.170167
0.227621
0.206266
0.218736
0.0844977
0.146396
0.231598
0.216138
0.10585
0.215327
0.0735557
0.198578
0.048305
0.20063
0.101295
0.1803
0.0897463
0.136744
0.215722
0.0714876
0.216423
0.0550005
0.109459
0.0877371
0.0318895
0.0924135
0.0865941
0.122048
0.227722
0.090478
0.0419382
0.0186635
0.202643
0.0207068
0.217993
0.00435511
0.0948268
0.0515343
0.0937172
0.216077
0.219787
0.0479627
0.244952
0.033799
0.00237075
0.201154
0.181834
0.0924878
0.216442
0.069832
0.0202595
0.119022
0.00270921
0.151124
0.193047
0.140533
0.0946429
0.255548
0.0960145
0.154689
0.201163
0.126957
0.218942
0.0923982
0.138415
0.0915652
0.143165
0.244481
0.098306
0.084795
0.143671
0.0922559
0.160182
0.0909897
0.0597148
0.0908493
0.244315
0.0905746
0.0870283
0.0897971
0.237981
0.114379
0.229097
0.248012
0.246384
0.17596
0.0494631
0.0659912
0.18397
0.216851
0.0231324
0.0635458
0.0897866
0.0883089
0.21815
0.258663
0.00313486
0.0329444
0.0812878
0.229081
0.0334118
0.128391
0.218369
0.087404
0.0861351
0.0869216
0.0843784
0.087244
0.176928
0.107743
0.21469
0.023558
0.0904998
0.0873962
0.239791
0.136937
0.235698
0.249827
0.0478294
0.0879021
0.06581
0.238053
0.240614
0.235206
0.234208
0.121456
0.064968
0.229916
0.0480585
0.0877135
0.210876
0.097848
0.0868047
0.0690291
0.0852731
0.209164
0.207906
0.0876374
0.154513
0.0982571
0.0976614
0.256009
0.0254072
0.0541899
0.0876641
0.0883998
0.00807646
0.0883238
0.0672981
0.0935994
0.204657
0.0885509
0.0169922
0.0951964
0.00798328
0.240528
0.233348
0.122684
0.0908335
0.0935494
0.107554
0.0799951
0.0727257
0.109686
0.076942
0.0757229
0.066293
0.0772193
0.241946
0.215609
0.128824
0.201717
0.0814689
0.208212
0.0646723
0.201377
0.167181
0.193138
0.0785344
0.146239
0.0184683
0.208488
0.22506
0.0900067
0.26369
0.0811312
0.0831579
0.139206
0.0217006
0.108187
0.0839396
0.207402
0.0637526
0.0898007
0.0871032
0.0606598
0.172292
0.0607717
0.0598046
0.0613121
0.0621105
0.0608931
0.203765
0.204286
0.210633
0.200902
0.0390407
0.061448
0.236617
0.0674113
0.0376669
0.0667647
0.0662244
0.0401728
0.0671502
0.0658055
0.0664454
0.0843051
0.0809363
0.148526
0.09256
0.104395
0.134623
0.116244
0.107104
0.0400631
0.0848742
0.0841159
0.0636817
0.0686939
0.0821973
0.162299
0.017058
0.192197
0.255679
0.150834
0.245591
0.0831467
0.0187036
0.0203427
0.0201006
0.112369
0.0213464
0.079792
0.0820448
0.230148
0.263248
0.139733
0.0742639
0.233698
0.126555
0.155862
0.0814195
0.158315
0.081524
0.163176
0.0684235
0.0367218
0.0443443
0.0774036
0.00154624
0.0836898
0.23209
0.061894
0.189832
0.0249817
0.0749339
0.0771588
0.216939
0.104991
0.163451
0.117587
0.162359
0.0762027
0.0149702
0.234697
0.0916103
0.151427
0.231003
0.231073
0.0782052
0.0664347
0.0791045
0.119914
0.0785174
0.159231
0.216457
0.123007
0.079721
0.08037
0.127353
0.145357
0.179186
0.0796132
0.0814537
0.0818972
0.23214
0.0806032
0.0819944
0.0296759
0.0719318
0.0382336
0.0146183
0.0375786
0.0234363
0.0704965
0.0723346
0.011965
0.0573251
0.0115198
0.229501
0.0738196
0.0419263
0.229796
0.17614
0.110322
0.0638662
0.0770583
0.012095
0.0751883
0.16874
0.118503
0.0737238
0.23558
0.03652
0.00363129
0.0745617
0.270772
0.116723
0.153511
0.0134901
0.0749864
0.0742631
0.1791
0.0135882
0.115635
0.148563
0.0689666
0.0745202
0.0768198
0.262923
0.242512
0.236073
0.112163
0.0381588
0.0150206
0.0134931
0.237557
0.0135746
0.047327
0.0778861
0.259125
0.0913756
0.0793536
0.213682
0.23712
0.169116
0.160486
0.0784734
0.0763595
0.229886
0.196759
0.20863
0.0231034
0.192863
0.051005
0.106259
0.0420434
0.0757166
0.120057
0.242252
0.120816
0.118878
0.250465
0.0712708
0.231517
0.0536822
0.158319
0.185975
0.241977
0.120779
0.235021
0.0672829
0.0563497
0.0338861
0.0714448
0.235225
0.0542615
0.0490678
0.145289
0.0557537
0.0558995
0.0601548
0.0195319
0.110277
0.0728616
0.0861447
0.0508635
0.066189
0.0586525
0.0403097
0.237431
0.164727
0.0540856
0.0747962
0.2679
0.14032
0.0715522
0.150869
0.0722282
0.134176
0.0702612
0.23578
0.0525473
0.264765
0.0459474
0.0407079
0.146575
0.0552107
0.16032
0.14032
0.16939
0.0225982
-0.00102112
0.0309617
0.025733
0.045808
0.0165712
0.050599
0.0470224
0.0464131
0.24881
0.0311308
0.237943
0.238187
0.0364526
0.226496
0.0755673
0.232588
0.215954
0.0525898
0.228731
0.0528227
0.00186405
0.168924
0.108564
0.220733
0.215163
0.118726
0.0183776
0.0332018
0.170995
0.186375
0.0542198
0.0525443
0.0705247
0.189862
0.206911
0.152861
0.0191649
0.0139238
0.0697666
0.174209
0.191778
0.20993
0.249205
0.0718486
0.221296
0.202515
0.151624
0.265649
0.108435
0.139407
0.176722
0.0675894
0.240159
0.011853
0.104561
0.202244
0.182544
0.214393
0.238828
0.0216352
0.104345
0.0700298
0.124449
0.0709098
0.115342
0.127804
0.123532
0.0896077
0.0705874
0.0696848
0.0674043
0.0913169
0.247753
0.0986436
0.088579
0.0947419
0.233933
0.205487
0.0205108
0.239786
0.0702155
0.0673183
0.140341
0.0593239
0.059934
0.0828458
0.0209628
0.0584738
0.0632222
0.0147124
0.0555627
0.0544484
0.0597929
0.0785769
0.0656076
0.0661949
0.237832
0.0440461
0.0533507
0.0393661
0.0720613
0.0389344
0.0366251
0.0682651
0.0162103
0.0174582
0.0971311
0.0400959
0.0355115
0.239139
0.0688094
0.0530454
0.0488989
0.018621
0.0437697
0.068106
0.0703439
0.0625177
0.109518
0.149883
0.172782
0.129353
0.0176141
0.0623192
0.0606954
0.0625482
0.197501
0.0953648
0.0697275
0.254937
0.0613551
0.0946919
0.0608869
0.0632007
0.165868
0.172031
0.0607313
0.101306
0.216657
0.215531
0.0955719
0.0614503
0.236959
0.061415
0.131638
0.0620191
0.259697
0.0624316
0.195062
0.0610486
0.165663
0.200978
0.232042
0.210777
0.0596433
0.203905
0.147908
0.165277
0.0615115
0.0255872
0.107703
0.150561
0.0613634
0.0609
0.061765
0.107654
0.0551839
0.249941
0.180499
0.0236762
0.237612
0.057994
0.230937
0.0238109
0.0532506
0.0566325
0.196959
0.0612084
0.169802
0.247954
0.0539417
0.0575993
0.0928666
0.243555
0.197018
0.196112
0.0587258
0.206851
0.176686
0.0571079
0.0954548
0.0807737
0.056158
0.05633
0.169458
0.209458
0.0622263
0.097851
0.0793165
0.235181
0.230256
0.234552
0.0612508
0.23654
0.0417246
0.185871
0.214542
0.123282
0.167061
0.0610675
0.24135
0.0298497
0.0335816
0.0359977
0.102749
0.0360433
0.110103
0.108049
0.0960821
0.119331
0.191996
0.0981652
0.14537
0.0086014
0.0415728
0.0834995
0.138724
0.0585055
0.155148
0.217906
0.112682
0.187689
0.180856
0.0110621
0.0359418
0.164089
0.0421575
0.000395289
0.239836
0.198441
0.229764
0.0341331
0.239642
0.091859
0.227689
0.0877298
0.231141
0.0868275
0.236276
0.0390731
0.207379
0.0563063
0.176402
0.0888512
0.181984
0.0916945
0.274019
0.0568556
0.0766259
0.192641
0.176857
0.0548957
0.119171
0.176989
0.0568994
0.158972
0.0229548
0.15852
0.0522126
0.0505723
0.0774368
0.23949
0.0570138
0.0365983
0.0561222
0.0579908
0.103887
0.199799
0.0649431
0.0584367
0.103404
0.103473
0.00458959
0.23291
0.0563608
0.0743045
0.134024
0.183727
0.00181086
0.0580244
0.237756
0.0482916
0.0466221
0.146301
0.0277816
0.0412663
0.214741
0.0583894
0.235155
0.107831
0.0371775
0.045819
0.12098
0.0433896
0.0561845
0.0826207
0.0533102
0.0547737
0.0540476
0.022765
0.141133
0.0523968
0.0737714
0.0500932
0.0674741
0.0750855
0.0518537
0.0488117
0.232415
0.0530183
0.046078
0.0487809
0.237506
0.0569829
0.0477403
0.0659648
0.175355
0.0709348
0.0517971
0.0578466
0.050475
0.00286642
0.235508
0.0716647
0.0505893
0.037557
0.243047
0.0953217
0.0258967
0.0490547
0.0104329
0.103771
0.234218
0.0481457
0.23283
0.0449029
0.0297633
0.237101
0.233711
0.241995
0.0362644
0.238491
0.0145079
0.0175556
0.0494034
0.0260294
0.022333
0.0606088
0.177604
0.238018
0.22825
0.246461
0.226067
0.139957
0.102072
0.0379923
0.0462772
0.0542048
0.13296
0.149315
0.0918937
0.198694
0.0706105
0.0506337
0.161204
0.0637193
0.226915
0.226512
0.02847
0.228316
0.150047
0.20675
0.24301
0.0473642
0.188536
0.152228
0.161516
0.151604
0.0479125
0.116147
0.22944
0.24484
0.057389
0.224048
0.242829
0.233728
0.194076
0.0403496
0.246269
0.042855
0.217623
0.218316
0.0426156
0.0472919
0.0381131
0.134301
0.239294
0.0979866
0.150909
0.0388104
0.16731
0.239668
0.0506544
0.195727
0.0489145
0.199727
0.226668
0.246414
0.225758
0.0820943
0.0905898
0.107424
0.189463
0.0507838
0.212008
0.212434
0.0491206
0.201415
0.116261
0.0491862
0.150967
0.204718
0.0478045
0.22965
0.0402536
0.209083
0.250149
0.0449153
0.12734
0.0456223
0.15485
0.0478473
0.0229446
0.239723
0.157174
0.0772718
0.104571
0.132886
0.125888
0.0194486
0.119734
0.117616
0.228557
0.16081
0.25331
0.218189
0.0639256
0.233472
0.0243063
0.025231
0.169407
0.144318
0.201598
0.200884
0.0266977
0.0229567
0.115712
0.236487
0.1911
0.217886
0.250731
0.0260637
0.193464
0.158326
0.194051
0.200077
0.148018
0.240777
0.204252
0.207993
0.0591202
0.0635104
0.249574
0.0261462
0.0232195
0.0437699
0.220717
0.237039
0.240315
0.0424687
0.040314
0.175627
0.0417974
0.0430951
0.180926
0.245181
0.199808
0.066477
0.227772
0.115838
0.197124
0.199035
0.24643
0.0408302
0.145323
0.145976
0.0430004
0.0409069
0.0391388
0.0415584
0.155123
0.0430445
0.245723
0.194415
0.179118
0.0429214
0.0380725
0.0842868
0.188526
0.247126
0.112996
0.101705
0.24456
0.018781
0.0334002
0.0672349
0.105092
0.0329347
0.0422552
0.0436946
0.081292
0.0440159
0.244486
0.245658
0.089546
0.244537
0.142713
0.0806642
0.0394041
0.064333
0.0603083
0.0718762
0.0421208
0.0359572
0.0457653
0.0527253
0.038323
0.0625053
0.066747
0.189457
0.0384844
0.0417529
0.0729013
0.0250486