/*--------------------------------*- C++ -*----------------------------------*\
| =========                 |                                                 |
| \\      /  F ield         | OpenFOAM: The Open Source CFD Toolbox           |
|  \\    /   O peration     | Version:  2406                                  |
|   \\  /    A nd           | Website:  www.openfoam.com                      |
|    \\/     M anipulation  |                                                 |
\*---------------------------------------------------------------------------*/
FoamFile
{
    version     2.0;
    format      ascii;
    arch        "LSB;label=32;scalar=64";
    class       surfaceScalarField;
    location    "42";
    object      phi;
}
// * * * * * * * * * * * * * * * * * * * * * * * * * * * * * * * * * * * * * //

dimensions      [0 3 -1 0 0 0 0];

oriented        oriented;

internalField   nonuniform List<scalar> 
113358
(
-1.47737e-05
3.08859e-05
-2.15859e-05
5.47396e-06
2.22494e-05
2.84475e-07
-5.98923e-06
-1.65443e-05
-2.58842e-05
1.96131e-05
-3.09572e-06
9.36628e-06
-2.39853e-05
-6.35479e-06
2.36698e-05
6.67311e-06
-1.73013e-05
9.23045e-07
3.01563e-05
-1.37781e-05
1.36159e-05
-1.41963e-05
-7.96049e-06
8.54083e-06
-7.19292e-06
3.43167e-05
-2.49006e-05
-2.22284e-06
-7.59157e-07
-3.19363e-05
1.7439e-05
1.52559e-05
8.38439e-06
6.04974e-07
1.82055e-05
-2.71947e-05
7.43907e-06
3.7491e-06
-1.08776e-05
-3.05683e-07
-6.11764e-06
2.30697e-05
-2.16609e-05
4.70891e-06
-1.48317e-05
5.24235e-08
-3.32518e-07
1.51118e-05
-4.52332e-05
3.52235e-06
1.21747e-05
2.95358e-05
1.22553e-06
-2.61636e-06
1.39088e-06
1.99644e-06
-1.44024e-06
1.96533e-05
-2.02099e-05
1.0573e-06
3.33294e-07
1.18689e-05
-1.32609e-05
1.00947e-05
3.49303e-05
-2.88245e-05
-1.62003e-05
-1.95217e-05
1.08073e-05
6.73452e-06
1.97998e-06
1.5009e-05
-3.80377e-05
3.19604e-05
-8.93185e-06
2.53636e-05
3.39684e-06
2.79353e-05
-5.66961e-05
1.90178e-05
3.88363e-07
-4.81041e-07
-1.8925e-05
-1.16359e-05
4.64909e-05
4.32987e-06
-3.91851e-05
-6.58379e-07
-4.53811e-05
4.90472e-05
-3.00717e-06
-9.28026e-07
4.4411e-06
3.27374e-07
-3.84001e-06
-4.74991e-05
2.0806e-05
-3.98173e-06
3.06736e-05
-2.24519e-05
5.24764e-06
1.85014e-05
-1.29873e-06
-9.58108e-06
9.29161e-06
-1.80818e-07
4.70483e-07
-1.91343e-06
-7.47847e-06
5.36908e-06
4.02285e-06
1.90448e-05
-3.77492e-07
3.50639e-07
-2.27908e-06
2.27244e-06
6.70342e-09
-5.44053e-06
-2.58601e-05
2.74608e-05
3.83991e-06
5.10264e-06
-2.61009e-07
-8.10622e-06
3.26462e-06
2.04247e-05
-1.11516e-06
1.18806e-06
-2.04978e-05
-2.7867e-05
1.27472e-05
-2.97868e-06
1.81033e-05
1.75297e-05
2.45061e-06
-1.98558e-05
-1.24453e-07
-3.40197e-05
8.49916e-06
-1.18884e-05
3.74088e-05
-3.76762e-08
-2.21549e-06
2.25329e-06
9.3413e-06
1.0798e-05
1.76882e-06
-2.1908e-05
7.29154e-06
-3.72023e-05
3.05331e-05
-6.22355e-07
-3.54565e-06
4.56736e-06
3.65108e-05
-3.75324e-05
-1.90848e-05
1.60966e-05
-2.0055e-05
2.30434e-05
2.18983e-07
-2.4009e-05
-3.10503e-05
5.48405e-05
-1.13064e-06
4.33592e-05
-1.22619e-05
-2.99666e-05
5.27712e-06
-1.85514e-05
-7.43518e-06
-6.09125e-06
3.25302e-05
-3.99248e-07
-2.60398e-05
-2.30264e-06
1.59481e-05
-1.0663e-05
-2.98238e-06
-3.04562e-05
-1.19637e-05
4.12893e-05
-1.13416e-05
3.55198e-05
1.44149e-06
-2.56197e-05
-3.40993e-05
4.26932e-06
-5.53147e-06
3.53615e-05
3.54372e-05
1.56968e-05
-4.69019e-05
-4.23185e-06
2.3226e-05
-1.61792e-05
1.55162e-06
-8.59834e-06
-1.06283e-05
3.1108e-06
1.07173e-05
-3.19695e-06
2.94405e-05
-7.72479e-06
1.66556e-05
-3.83728e-05
-1.0295e-05
-3.81416e-05
4.13224e-05
7.11423e-06
-2.0671e-06
7.65323e-06
-8.85014e-06
3.26394e-06
2.81941e-05
-1.22044e-05
2.01681e-05
-3.61579e-05
-2.13416e-05
4.9439e-06
3.7342e-05
-2.09445e-05
1.20127e-05
-5.88364e-06
4.69285e-06
-1.08213e-05
3.77996e-05
-9.74461e-06
-2.92873e-05
1.23174e-06
-1.29551e-05
-1.47829e-05
8.11039e-06
1.96276e-05
-3.08022e-05
-4.98415e-06
1.45984e-05
2.11858e-05
-2.90894e-06
3.32558e-06
-4.16757e-07
3.48623e-05
-5.90976e-06
-3.43961e-05
5.44369e-06
-1.55879e-05
-4.26791e-05
1.67181e-05
4.15491e-05
-4.16471e-06
4.41472e-06
-3.48131e-05
3.45642e-05
1.73035e-06
2.17154e-05
2.82125e-06
-2.6267e-05
3.60038e-06
-2.98079e-06
-6.19276e-07
-1.72793e-08
6.4049e-08
1.17355e-05
-1.1782e-05
6.24544e-06
-3.01896e-05
3.26446e-05
-8.70038e-06
9.92002e-06
-2.43064e-05
2.33062e-05
-8.91987e-06
7.50438e-06
-7.7495e-06
2.45243e-07
-1.93424e-05
-6.46094e-06
3.36308e-05
-7.82751e-06
-2.48065e-07
4.17543e-06
-3.92748e-06
7.3641e-06
-2.94051e-05
9.17234e-06
1.28687e-05
4.60266e-05
-3.45838e-06
-3.00515e-06
-3.95631e-05
-2.73908e-05
-3.27978e-05
3.56445e-05
2.45443e-05
3.66765e-06
-3.7179e-05
6.12065e-06
3.63476e-05
-2.91215e-05
-8.83606e-07
-6.34223e-06
1.10721e-07
1.79283e-07
-1.55043e-05
1.52145e-05
6.5723e-06
8.26366e-06
1.28418e-05
-2.76776e-05
8.02432e-06
-4.21346e-06
3.28114e-06
-7.08639e-06
-1.60814e-05
-1.1088e-05
2.73386e-05
-1.69103e-07
-2.11932e-05
2.61051e-05
-1.87747e-05
1.38628e-05
-3.12632e-06
3.05843e-09
3.12324e-06
-3.07023e-05
3.3211e-05
-3.41429e-05
2.62952e-05
-2.92964e-06
-9.73254e-07
-6.34154e-07
4.53729e-06
6.39293e-05
-6.18929e-05
1.91684e-06
-3.95432e-06
-1.19334e-05
3.72198e-06
1.15133e-05
-3.30219e-06
-4.62727e-06
2.57575e-05
-2.83104e-05
7.18034e-06
-1.79717e-05
-2.12941e-05
3.14788e-05
7.78707e-06
9.08601e-06
-1.28947e-05
1.84439e-05
-1.46348e-05
7.57539e-06
2.46598e-05
-5.10004e-05
1.87653e-05
-3.37217e-05
1.20232e-05
1.46734e-05
7.02511e-06
8.9237e-07
-2.9729e-05
2.42525e-05
4.58401e-06
-2.71043e-05
2.49558e-06
9.67928e-06
1.49294e-05
2.34847e-05
-2.03097e-05
7.01381e-06
-1.01891e-05
1.34506e-06
1.21072e-05
-1.32402e-05
-2.12051e-07
1.72398e-05
-2.42478e-06
-2.56777e-06
-1.22472e-05
1.58828e-05
1.8313e-05
-1.58107e-05
-1.83852e-05
2.43092e-06
-7.6572e-07
4.36564e-06
-6.03051e-06
4.75741e-06
-2.87153e-07
-4.4698e-06
3.83581e-08
3.9463e-06
-3.98459e-06
-4.84855e-07
3.0339e-06
-1.32079e-05
1.06585e-05
-2.03962e-05
4.15366e-05
4.32714e-07
-2.15713e-05
4.82397e-06
-2.19165e-05
1.694e-05
1.54088e-07
-3.10177e-06
-4.1264e-06
1.15535e-06
6.07264e-06
-5.80032e-06
-1.41494e-05
3.70021e-06
1.62484e-05
-3.06292e-06
1.9855e-05
8.57102e-06
-2.53649e-05
4.17853e-06
3.74728e-06
-1.81334e-05
1.02083e-05
-2.72551e-06
2.83649e-05
-3.22732e-05
6.63383e-06
-7.54939e-06
7.75448e-06
-2.07315e-07
1.84167e-05
-2.28272e-05
3.63436e-06
7.76119e-07
1.8419e-05
1.08351e-05
-3.24431e-05
3.18908e-06
-2.64556e-05
-1.49329e-05
7.43836e-06
3.39501e-05
-2.23712e-06
-2.12408e-05
9.02488e-07
2.25749e-05
1.29847e-05
-1.34806e-05
1.02479e-07
3.93655e-07
1.62584e-05
-2.8403e-05
-5.45987e-06
1.76046e-05
-3.52672e-06
2.73666e-07
3.25283e-06
-4.36675e-06
-1.38363e-06
2.94569e-05
-2.37071e-05
-1.46138e-05
9.15113e-06
4.69473e-05
-4.14845e-05
-1.06195e-05
2.15998e-05
-3.17123e-05
2.07321e-05
1.63111e-06
-2.54344e-05
2.03616e-05
3.44353e-06
-3.78405e-06
-9.12032e-06
3.23766e-05
-1.94722e-05
2.3173e-05
-9.83723e-06
-1.02748e-05
-3.06096e-06
-2.79215e-06
-1.23318e-05
1.81252e-05
-3.00117e-06
6.16002e-06
-3.00793e-06
-3.15205e-06
-1.08824e-06
-2.50542e-05
-6.55959e-06
3.27022e-05
-1.47463e-05
2.06275e-05
5.87099e-06
-1.17521e-05
5.6384e-06
-1.39216e-05
2.37682e-05
-1.54851e-05
-4.59607e-05
1.09227e-05
-7.64545e-07
3.58027e-05
-2.57467e-06
-4.26716e-05
3.86254e-05
6.62117e-06
5.52441e-08
-4.01854e-06
3.96369e-06
2.10657e-05
-3.25634e-05
6.26606e-07
1.08711e-05
3.58804e-05
4.1163e-06
-3.8686e-05
-1.31119e-06
1.10557e-05
1.19665e-06
-2.60661e-05
1.38138e-05
-9.41192e-06
1.29848e-05
1.48461e-05
-2.64834e-05
-2.20771e-05
1.30495e-05
3.55101e-05
5.84302e-06
3.08182e-06
-4.16655e-06
6.92251e-06
-5.16502e-06
-2.64676e-05
2.47103e-05
4.59088e-06
1.44412e-05
-6.50797e-06
-1.25239e-05
-7.55847e-06
1.63759e-05
3.34005e-05
-4.22184e-05
1.81021e-07
2.46017e-06
-2.64115e-06
-2.25519e-05
3.58073e-06
1.38804e-05
5.09174e-06
3.41198e-05
-1.83674e-05
-2.30964e-05
7.34414e-06
3.285e-05
-8.17879e-06
-3.62079e-06
-2.10502e-05
-2.87885e-05
-9.6683e-07
-8.2295e-07
3.05781e-05
2.56218e-05
1.16693e-05
-3.54171e-05
-1.87398e-06
6.928e-06
4.83053e-06
-1.17585e-05
1.77588e-06
-2.54222e-05
-2.03093e-07
2.38491e-05
4.01396e-05
-3.08481e-05
-2.87678e-06
-6.41388e-06
4.57293e-06
-6.51182e-07
-3.65695e-06
-2.64083e-07
-3.25537e-05
4.62156e-05
1.94598e-05
-3.31216e-05
1.82511e-05
-2.94843e-05
-2.9698e-06
1.42038e-05
-2.42183e-05
2.63112e-05
-8.78406e-07
-1.21369e-06
-3.09168e-06
1.52883e-06
1.56352e-06
3.52898e-05
-3.90709e-06
9.94611e-06
-4.13287e-05
-2.62767e-05
3.55476e-05
-3.34886e-05
7.25238e-08
2.45293e-06
1.89856e-05
-2.15109e-05
2.73549e-06
-2.64218e-06
-9.33851e-08
-1.13523e-05
-6.38124e-06
1.08936e-06
1.66445e-05
-8.6657e-06
2.16002e-05
-1.64656e-05
3.53118e-06
1.60818e-06
-4.92464e-06
3.08021e-06
2.36453e-07
-1.94764e-06
-1.8166e-06
3.76495e-06
-2.28607e-05
2.28067e-05
2.28686e-05
-2.28144e-05
5.18043e-05
-1.30388e-05
-1.12899e-05
-2.74755e-05
1.33041e-05
5.63988e-07
-4.31158e-07
-1.34366e-05
3.54455e-05
-4.32546e-05
5.981e-06
1.82821e-06
3.16509e-06
-5.56786e-08
-3.10933e-06
-5.94334e-06
2.87497e-05
-2.75895e-05
4.7853e-06
-1.42389e-05
1.48586e-05
-1.64098e-06
1.02111e-06
-1.0684e-05
9.34879e-06
6.43718e-07
6.91372e-07
2.54242e-06
-2.01881e-05
7.31567e-06
1.03301e-05
-1.14438e-05
-1.07695e-05
2.62816e-05
-4.06828e-06
-1.51112e-05
1.48087e-05
2.69115e-07
3.32326e-08
-3.04111e-05
-3.58979e-05
3.5853e-05
-1.14041e-05
3.62406e-05
1.15531e-05
-3.63896e-05
5.92829e-06
3.05441e-05
6.88663e-06
-4.3359e-05
-1.36945e-05
6.08894e-06
1.8469e-05
-1.08636e-05
-1.95072e-08
7.558e-08
1.09163e-05
-1.09719e-05
1.40337e-06
3.84176e-05
-5.65399e-06
-3.41665e-05
-4.01528e-06
-2.59809e-06
4.33373e-06
2.27976e-06
4.38282e-06
-4.13777e-06
-2.44617e-07
-3.61564e-06
-1.25167e-05
1.02123e-06
-2.96082e-05
4.62102e-07
-5.8035e-06
3.49497e-05
-1.5336e-05
1.37776e-05
4.33426e-07
1.12488e-06
-4.53205e-07
8.47134e-06
-1.35637e-07
-7.88283e-06
-2.96671e-06
2.89623e-06
7.13229e-08
3.16493e-06
-8.14989e-07
2.12581e-05
-2.36081e-05
2.89065e-05
3.25742e-06
-2.52108e-05
-6.95347e-06
-3.37318e-06
-1.5704e-05
-1.01674e-05
1.41066e-05
-1.55216e-05
1.03747e-06
3.76232e-07
7.58599e-06
-3.16891e-05
3.73728e-05
-1.32698e-05
1.13082e-05
2.33917e-06
-5.93173e-06
-7.71524e-06
-1.66333e-05
-3.84915e-05
9.7502e-06
4.5375e-05
5.37369e-08
2.68602e-06
-2.06725e-07
-2.53244e-06
1.00486e-05
-6.5824e-07
1.58134e-06
-1.09708e-05
-1.02166e-05
2.18673e-07
1.00939e-05
-9.52642e-08
2.27069e-05
3.82112e-06
-2.85661e-05
2.03783e-06
-3.12446e-05
-1.77467e-05
4.00008e-05
8.99051e-06
-7.14057e-06
3.04749e-06
-6.60844e-06
6.92298e-06
2.89773e-05
-3.73062e-05
1.40537e-06
-2.2765e-05
-2.30206e-05
9.27431e-06
3.65112e-05
-2.8291e-06
3.08835e-06
-2.59187e-07
1.79031e-05
1.02753e-05
-2.09398e-06
-2.60847e-05
-7.20775e-07
-4.4152e-06
-2.93394e-05
3.44746e-05
-2.21599e-05
5.65026e-06
5.39324e-05
-3.74228e-05
2.75577e-05
-2.04972e-05
-1.08238e-05
3.76096e-06
2.69804e-06
-9.9117e-08
-2.59907e-06
4.30212e-05
-2.13853e-05
2.97555e-06
-2.46112e-05
9.66852e-06
-1.04058e-05
1.32074e-06
-5.82359e-07
2.44261e-06
2.32824e-06
-4.77088e-06
-1.65507e-05
-2.12685e-05
4.31431e-06
3.35048e-05
-1.16655e-05
2.25142e-07
1.20755e-05
-6.35267e-07
2.1185e-05
-4.3548e-05
5.19596e-07
2.18435e-05
-2.16152e-05
-2.64533e-05
3.52176e-05
1.28508e-05
-1.30949e-05
1.77262e-05
2.82187e-05
5.40059e-06
2.87423e-05
-3.00443e-05
-4.09842e-06
1.92569e-06
1.45585e-06
-1.29605e-05
9.57876e-06
-3.35788e-05
1.47795e-05
1.20151e-05
6.78422e-06
1.37217e-05
3.60594e-06
-1.56512e-06
-1.5763e-05
-3.33905e-06
-2.60172e-05
2.65652e-06
2.66997e-05
6.76804e-06
-2.58012e-06
2.7155e-05
-3.13431e-05
-2.08532e-06
-7.18491e-08
-5.22694e-06
7.38641e-06
6.87996e-07
1.07841e-05
-4.03354e-05
2.88635e-05
-1.43419e-05
-2.91696e-05
-1.0539e-06
4.45653e-05
3.67206e-07
5.17279e-06
-5.53957e-06
8.61162e-08
-1.98764e-07
1.13274e-05
-1.12147e-05
2.69167e-06
1.68721e-05
1.45389e-05
-3.41028e-05
2.81369e-07
-1.48806e-05
1.40184e-07
1.44591e-05
4.26524e-06
-2.08796e-05
-1.59625e-05
3.25771e-05
1.5452e-05
1.91802e-05
-1.67251e-05
-1.79076e-05
3.32707e-05
1.98975e-05
-4.47097e-05
-8.45859e-06
1.31425e-07
-4.50593e-06
4.37433e-06
2.80722e-06
1.37458e-06
-7.63397e-09
-4.17402e-06
2.01257e-06
2.59257e-06
3.32096e-07
-4.93727e-06
2.58381e-06
-3.06962e-06
1.52944e-05
1.78396e-07
-2.89106e-05
1.08096e-05
1.79238e-05
5.82467e-05
6.02145e-06
-1.22237e-05
-5.20455e-05
-8.28047e-06
1.11903e-05
-2.74768e-06
-1.62969e-07
-1.6919e-05
1.60788e-05
-2.72718e-05
2.81122e-05
3.21503e-06
6.19503e-08
-3.27739e-06
1.19228e-06
8.71163e-06
-1.66509e-05
6.74759e-06
3.20094e-06
-4.82758e-06
1.62632e-06
2.82175e-05
-1.50956e-05
-7.48372e-06
-1.65333e-05
5.99971e-06
-1.5327e-05
2.58607e-05
3.31568e-05
-3.22818e-05
5.12774e-06
-6.0028e-06
1.46297e-05
4.91521e-06
-1.74976e-05
-2.04727e-06
3.28827e-06
-3.93912e-05
1.35171e-05
2.25857e-05
2.73138e-05
-5.61298e-06
4.61097e-06
5.01648e-05
-5.58075e-05
2.09725e-06
-3.24577e-05
2.52608e-06
3.34973e-05
-3.56593e-06
-3.0091e-05
-1.93494e-05
3.25214e-05
-1.20058e-05
-1.19454e-05
-1.65164e-05
4.04677e-05
-1.33268e-06
4.59648e-06
3.95193e-05
-4.2783e-05
1.47841e-06
2.88786e-05
-5.01027e-05
1.97457e-05
-1.02554e-07
5.76826e-08
1.83538e-05
-1.83099e-05
-4.20388e-05
7.11608e-06
3.16748e-06
3.17541e-05
1.2388e-05
-1.24639e-05
4.25104e-06
-4.17492e-06
7.63815e-07
1.13766e-05
-1.44932e-05
2.35269e-06
-2.32767e-05
3.54157e-05
-4.62183e-06
-7.51711e-06
-3.59757e-05
2.6617e-05
1.68128e-06
7.67695e-06
-2.79582e-05
2.80104e-05
3.66295e-05
-3.66817e-05
3.40538e-05
-2.77944e-05
1.17219e-06
-7.43142e-06
-1.33665e-05
1.7227e-05
-1.03546e-05
6.49408e-06
-7.64039e-06
1.76378e-05
1.48945e-06
-1.14852e-05
-3.74007e-05
3.05822e-06
4.08757e-05
-6.5332e-06
-4.54953e-06
-2.50449e-05
3.9157e-07
2.92064e-05
2.44434e-06
-8.44566e-06
6.76511e-06
9.65842e-06
7.94168e-07
-9.24114e-06
-1.21141e-06
9.89757e-06
1.86382e-05
-2.1745e-05
-6.79018e-06
-1.04594e-05
1.45193e-05
2.48459e-05
-2.89061e-05
9.08745e-07
4.34836e-06
-3.65652e-05
3.13091e-05
1.71154e-05
-2.59881e-05
8.62922e-06
2.441e-07
-4.05298e-05
-6.49162e-06
1.10462e-05
-3.31036e-06
-8.74081e-07
-2.46744e-05
2.88588e-05
-3.33001e-06
4.31601e-08
3.28681e-06
-5.264e-06
-6.66119e-06
4.34012e-05
-3.14761e-05
5.36954e-06
-5.1097e-06
-2.5977e-07
2.58933e-07
2.02712e-07
-9.73734e-06
9.27627e-06
-1.97161e-05
1.91918e-05
3.37949e-05
5.86993e-06
3.28407e-05
-2.35661e-05
-1.5144e-05
4.56432e-06
-4.63488e-06
7.05783e-08
-4.44674e-06
4.94934e-05
-2.73237e-05
-1.77226e-05
-2.65291e-05
2.83403e-05
1.93738e-05
-2.13456e-06
2.54396e-05
1.11587e-05
-3.4464e-05
-3.43885e-05
-1.27499e-05
4.58502e-05
1.2884e-06
-4.82092e-06
4.37395e-06
4.46839e-07
3.35694e-05
-3.57529e-05
-4.40982e-07
2.62476e-06
-2.19524e-05
-1.38011e-05
1.98529e-05
1.59004e-05
-4.00146e-06
1.84043e-06
-2.26972e-05
2.48583e-05
-2.85118e-05
-7.51934e-06
6.94159e-07
3.53372e-05
-1.79143e-05
-8.99339e-06
-6.81422e-06
1.59347e-05
-3.64508e-05
-3.14605e-06
2.36604e-05
8.33163e-06
-3.46711e-05
-1.05632e-05
3.69027e-05
7.58932e-06
-7.22504e-06
-3.64454e-07
-2.93342e-05
4.91847e-05
-6.96386e-06
-1.28869e-05
-6.39821e-06
-2.6766e-05
3.0258e-05
2.90637e-06
-4.67382e-05
4.79368e-05
-5.49603e-06
4.29738e-06
-2.74095e-05
-6.80721e-06
1.96428e-05
1.45736e-05
-2.65325e-05
-5.69205e-06
3.2327e-05
-1.0222e-07
-3.68154e-07
9.30638e-08
-1.28099e-05
1.30852e-05
3.5044e-06
1.74142e-07
-3.67881e-06
-6.40552e-06
6.4693e-06
-6.36561e-08
4.33704e-05
-3.71512e-05
-5.04822e-05
4.42632e-05
2.98801e-06
1.21205e-07
-3.10903e-06
-2.92364e-05
2.87685e-05
-3.67702e-07
8.35925e-07
-1.07064e-05
9.05858e-06
2.19201e-07
1.42868e-06
5.01583e-06
5.08257e-05
-2.7452e-05
-2.83894e-05
-2.90518e-05
-9.00912e-06
3.55551e-06
3.45028e-05
3.36205e-05
1.51931e-05
-1.51694e-05
-3.36442e-05
1.30508e-05
-4.85838e-06
1.62279e-06
-9.81577e-06
3.67915e-05
-3.5111e-06
-2.65634e-05
-6.71774e-06
-4.04375e-06
6.01234e-06
-6.66121e-06
4.69296e-06
-2.63167e-06
8.5504e-06
3.15216e-06
-9.07068e-06
-1.4629e-05
-7.5111e-06
4.11185e-05
-1.89782e-05
6.35624e-06
2.47443e-05
-2.42009e-05
-6.89965e-06
-2.25487e-05
2.32392e-05
1.49998e-05
-1.56903e-05
2.32554e-05
-2.10402e-05
-2.81366e-06
5.98713e-07
-6.02494e-08
-1.12348e-05
-4.66449e-08
1.13436e-05
-7.19803e-06
1.35685e-05
-1.47749e-06
-4.89307e-06
-3.27815e-05
-1.12842e-05
1.62469e-05
2.78188e-05
2.44819e-05
-2.06421e-05
-4.19323e-06
3.53998e-07
9.54879e-06
-3.2525e-05
-3.73926e-05
6.03688e-05
2.09501e-05
-2.72378e-05
-1.32812e-05
1.95693e-05
-6.22677e-06
-5.50995e-05
1.48439e-05
4.64823e-05
1.77467e-05
-1.57611e-05
2.42674e-06
-4.4124e-06
3.0697e-05
-1.09297e-05
-3.6687e-05
1.69197e-05
1.31328e-05
2.24579e-05
-5.1671e-05
1.60794e-05
-7.78852e-06
3.14146e-05
-2.77107e-05
4.08497e-06
-2.95394e-05
3.37914e-05
3.42788e-05
-3.85305e-05
-1.31383e-07
-1.41047e-05
1.23176e-05
1.91864e-06
4.18495e-06
-3.93026e-06
-2.54099e-07
3.82355e-05
-4.7408e-05
1.38398e-06
-4.15309e-06
5.59695e-06
2.93501e-06
-4.37872e-06
-3.01452e-06
1.35045e-07
-1.47038e-06
4.35023e-06
1.86585e-05
-2.45054e-06
1.80529e-05
-2.75003e-05
1.13094e-06
8.31632e-06
-9.20861e-06
-2.2913e-06
8.70784e-06
2.56597e-05
-3.3541e-05
1.9051e-05
-1.11697e-05
-2.81854e-05
-4.03675e-06
3.38246e-05
-1.60267e-06
-5.73923e-05
-8.72407e-06
5.08195e-05
1.52968e-05
-4.20927e-05
1.15986e-05
9.56556e-07
2.95378e-05
-4.19458e-06
3.37309e-07
8.68263e-07
2.98789e-06
-2.67071e-05
-3.22213e-05
2.45573e-05
3.43718e-05
1.96409e-05
1.70927e-05
-2.94586e-05
-7.27491e-06
1.53516e-07
1.44838e-05
-1.22827e-05
-2.35491e-06
-3.81841e-07
-1.95422e-05
3.84226e-05
-1.84987e-05
4.02083e-05
-2.87024e-05
-1.52899e-05
2.81958e-05
-3.17173e-05
6.32651e-06
-2.80551e-06
-3.98409e-06
-2.5977e-05
2.82083e-05
1.75312e-06
4.0626e-05
-2.80574e-06
-4.18039e-05
2.33716e-05
-2.61453e-05
6.41143e-06
-3.63894e-06
1.79193e-06
-1.19485e-05
-9.82625e-07
1.11397e-05
-2.56157e-06
2.46584e-06
-2.95744e-06
3.0531e-06
-1.82522e-06
4.53419e-06
1.49163e-06
-4.20293e-06
-7.21648e-06
-1.91414e-05
-1.45905e-06
2.78174e-05
1.09343e-05
8.74661e-06
-2.97781e-05
1.00974e-05
-1.87064e-05
5.96025e-07
6.69773e-06
1.14127e-05
-1.71144e-06
-1.81043e-05
1.75785e-05
-2.29845e-05
2.7196e-05
8.59785e-06
-1.28077e-05
-3.34011e-05
3.8801e-05
-1.24035e-05
7.00404e-06
-6.01956e-06
-1.97986e-05
2.13502e-06
2.3683e-05
1.47874e-06
3.4704e-05
-4.06392e-05
4.45661e-06
1.73686e-05
-5.48496e-05
1.17372e-05
2.57425e-05
4.97684e-06
-3.82181e-05
2.08848e-05
1.2356e-05
1.59855e-06
2.09657e-05
-7.20791e-06
-1.53567e-05
-3.98051e-06
1.91756e-06
3.90274e-06
-1.83965e-06
-3.96465e-06
7.89602e-06
-2.92722e-05
2.53408e-05
-1.553e-06
-1.11069e-05
2.91014e-07
1.23689e-05
1.71314e-07
1.14212e-05
-1.82542e-07
-1.14112e-05
1.73556e-07
2.49251e-07
1.16374e-05
-1.20584e-05
-9.42061e-06
-1.60311e-05
2.84535e-05
-3.00164e-06
3.30254e-06
-3.26933e-05
1.76266e-05
1.17647e-05
3.33626e-05
8.40957e-07
2.646e-06
-3.68494e-05
2.70384e-06
-2.76886e-06
6.50348e-08
1.06786e-05
2.15707e-05
-2.72727e-05
-1.12043e-05
4.48822e-08
1.32958e-07
1.10263e-05
2.17523e-06
-2.7843e-05
1.01107e-05
1.55571e-05
8.84577e-07
7.36858e-06
-7.45745e-06
-7.95698e-07
-5.651e-06
-1.19757e-05
2.2963e-05
-5.33654e-06
2.8229e-05
-3.11279e-05
2.67949e-05
-2.38947e-05
1.91013e-05
-8.75414e-06
-3.25953e-05
2.2248e-05
-1.95085e-06
-1.85322e-06
3.80398e-06
1.172e-05
2.49694e-06
-3.38504e-06
-1.08315e-05
-2.47229e-05
3.69999e-05
2.89527e-06
2.44109e-06
-5.33598e-06
2.29365e-06
-3.10098e-05
-3.50931e-07
2.90672e-05
-1.88308e-07
5.75629e-07
2.11835e-05
-1.34058e-06
2.24466e-05
-4.46089e-05
2.35029e-05
-7.16652e-06
-2.05199e-05
-2.90612e-06
3.05933e-05
5.70047e-06
-9.32376e-06
9.64356e-06
-6.02077e-06
-7.22066e-06
-3.53677e-05
-4.44657e-06
4.70348e-05
1.97429e-05
3.73177e-06
-2.27409e-05
-7.33766e-07
6.68825e-06
3.15663e-05
-5.22073e-05
1.39529e-05
-2.42754e-06
-1.42263e-05
-8.31517e-06
2.49692e-05
-1.89693e-05
-6.07101e-06
9.98588e-06
1.50552e-05
-1.0992e-06
-1.15914e-06
-1.29605e-05
1.52186e-05
4.00952e-05
-1.66726e-05
-9.68575e-06
-1.37365e-05
-2.4801e-05
6.02859e-05
-3.31558e-05
-2.32842e-06
1.12325e-05
2.91973e-07
2.99752e-07
-1.18247e-05
2.97059e-05
-3.55652e-05
3.54357e-05
-2.95763e-05
-5.29701e-06
1.66163e-05
-1.34256e-05
2.10622e-06
1.48844e-05
-5.4199e-05
2.09067e-06
3.72238e-05
9.99834e-06
4.80839e-05
-4.11209e-05
-1.69615e-05
6.38837e-06
-6.22792e-06
-1.02713e-05
1.01119e-05
-2.2525e-05
-1.37661e-05
4.00771e-05
-3.78644e-06
3.54629e-05
-2.87872e-05
-4.21656e-05
3.54892e-05
1.81484e-05
1.50109e-05
-9.48006e-06
-2.36789e-05
1.26768e-07
-1.55572e-05
8.7525e-08
3.90613e-06
-3.99237e-06
-3.39102e-06
3.27956e-06
1.11141e-07
2.61062e-05
-2.45761e-05
-2.24984e-05
2.0968e-05
-7.36181e-06
9.40851e-06
-2.67984e-05
2.47508e-05
3.98635e-05
-3.10876e-05
-6.50344e-06
-2.27222e-06
-4.75561e-06
1.17821e-06
3.09222e-06
-8.69175e-06
3.07185e-05
-8.31307e-06
-1.37133e-05
-4.19741e-05
1.04885e-06
1.44985e-05
2.64242e-05
1.52522e-05
-6.55299e-06
-1.48998e-05
6.20057e-06
8.53524e-06
3.78794e-05
-3.56059e-05
-1.08089e-05
-2.23632e-05
-4.42794e-06
4.24818e-05
-1.56902e-05
2.17497e-06
2.4434e-05
5.44318e-06
-3.2052e-05
8.25689e-06
2.66699e-05
-3.27518e-05
1.89303e-05
-1.39594e-05
-7.33897e-06
2.36799e-06
2.32376e-05
-2.967e-05
1.31207e-05
-1.31349e-05
8.37381e-06
7.81461e-06
-3.0533e-06
9.81214e-06
1.14184e-05
2.28707e-05
-4.41016e-05
4.39198e-06
-2.71516e-05
-4.23839e-06
2.69967e-05
3.76229e-07
2.7674e-05
2.50665e-06
-3.05571e-05
1.30258e-05
2.45739e-05
-4.09711e-05
3.3714e-06
-5.6539e-05
4.69647e-05
-7.20564e-07
2.27705e-07
3.88452e-05
-3.01075e-06
-3.60623e-05
-3.32305e-06
7.42487e-06
-1.01668e-05
6.06483e-06
-8.1471e-07
-3.55899e-06
2.38069e-07
4.13563e-06
-3.42396e-06
3.30087e-06
1.23069e-07
-4.89735e-06
-8.24961e-06
3.79009e-05
-2.47538e-05
-3.11572e-05
4.65296e-06
-1.3719e-05
4.02232e-05
4.38144e-05
-1.06026e-05
-1.42179e-05
-1.89944e-05
3.41515e-06
-3.18646e-05
1.15369e-05
1.69131e-05
3.45592e-06
-3.12557e-06
-1.20777e-06
8.76413e-07
-3.99014e-06
3.84415e-06
1.46096e-07
1.90883e-06
2.70334e-05
-4.82423e-06
-2.41175e-05
-5.46745e-06
2.66366e-05
-3.46232e-05
1.34539e-05
1.20651e-05
2.03923e-05
-4.71298e-05
1.46722e-05
-1.96407e-06
2.58911e-05
1.91478e-05
-4.30747e-05
-4.14239e-05
2.22388e-05
2.40644e-05
-4.87926e-06
3.96591e-05
-4.0592e-05
8.11457e-06
-7.18105e-06
-3.14483e-05
-5.84221e-07
-9.39134e-06
2.37434e-07
5.31358e-06
-5.55111e-06
2.9834e-05
4.00212e-06
-2.46736e-05
-9.164e-06
-1.88076e-06
-2.70256e-06
1.28412e-05
-8.25802e-06
3.03696e-06
5.32189e-07
9.97228e-06
-1.35414e-05
-3.39913e-05
1.52124e-05
1.6435e-05
2.34379e-06
1.35419e-05
-2.14698e-05
-3.09145e-06
1.10178e-05
-2.48214e-05
5.63324e-06
4.07037e-05
-2.15154e-05
-3.13256e-06
-1.9361e-07
3.32601e-06
-1.50735e-05
3.83616e-05
2.72457e-05
-5.05336e-05
3.40986e-05
9.51357e-07
-5.41003e-05
1.90507e-05
-2.3534e-06
3.49322e-05
-3.03159e-06
-2.95472e-05
1.85503e-05
-1.44139e-05
1.11527e-05
-1.52863e-05
-1.31761e-06
-2.44259e-05
2.74201e-05
-1.67649e-06
-2.19871e-05
-3.43278e-06
-1.4862e-05
4.028e-05
-7.93504e-06
-8.45204e-06
-1.46899e-05
3.10758e-05
-1.28498e-06
3.62453e-05
-3.95445e-06
-3.10058e-05
2.29868e-05
-2.28913e-05
7.04932e-07
-8.00437e-07
3.79216e-05
9.58145e-08
-2.62603e-05
-1.17568e-05
-8.60314e-06
-4.40711e-06
-2.46438e-05
3.76541e-05
-3.01436e-07
-3.14287e-06
3.44368e-06
-3.23878e-05
4.81868e-05
-3.66226e-06
-1.21365e-05
2.75109e-06
1.89123e-05
6.08082e-06
-2.77443e-05
-4.36931e-06
1.01265e-05
3.56093e-06
-9.31915e-06
-1.58444e-05
-3.92956e-06
1.64413e-05
3.33244e-06
2.11794e-05
1.4829e-05
-5.30987e-05
1.70906e-05
1.22869e-05
-9.5523e-06
3.07078e-05
-3.34423e-05
-2.42028e-06
1.97639e-05
1.62489e-06
-1.89686e-05
3.03895e-06
-2.992e-06
-4.70865e-08
2.61031e-06
3.26187e-05
1.37739e-06
-3.66063e-05
2.84929e-05
-4.4767e-06
-2.73983e-05
3.38211e-06
-5.4491e-06
6.66114e-06
-3.10861e-05
2.98752e-05
-2.85322e-05
-4.42652e-06
2.21324e-05
1.08264e-05
1.07238e-05
-1.01574e-05
-9.17886e-08
-4.75377e-07
-4.23958e-05
2.7597e-05
-1.63651e-06
1.6435e-05
-4.82372e-06
4.06273e-06
7.60999e-07
1.3762e-05
-1.17573e-05
1.82329e-05
-2.02373e-05
1.95603e-05
1.64093e-05
-8.55339e-06
1.45394e-05
-3.925e-05
-1.77723e-05
4.24831e-05
1.41873e-07
-1.55546e-05
1.56174e-05
-2.04922e-07
8.75687e-06
-1.42524e-05
-1.64606e-05
2.19574e-05
1.40755e-05
6.11979e-06
-2.3688e-06
-1.78263e-05
-4.26329e-06
1.0046e-06
5.42248e-06
-2.16382e-06
-4.68308e-06
5.73493e-05
-1.94736e-05
-3.319e-05
1.55869e-05
1.77963e-05
-8.92126e-07
-3.24913e-05
1.42297e-07
3.033e-06
-3.17512e-06
-9.45616e-07
5.44051e-06
3.27252e-05
-3.72202e-05
4.20895e-05
5.47996e-06
-2.05705e-05
-2.69987e-05
-1.08574e-06
5.6526e-06
-4.45511e-06
-1.11621e-07
1.36114e-05
-1.23657e-06
-1.48101e-05
2.43532e-06
-4.11257e-06
-1.30115e-05
6.67211e-06
1.04531e-05
-6.1575e-06
2.79877e-05
4.50061e-06
-2.63309e-05
3.08686e-05
-4.16588e-06
-3.35141e-05
6.81141e-06
-2.98329e-06
5.77565e-06
-2.79235e-06
2.55314e-06
-1.12001e-05
9.99926e-06
-1.35278e-06
6.82257e-07
1.0736e-05
-1.13159e-05
-1.02729e-07
1.08215e-05
1.26211e-05
-1.44585e-06
-2.19968e-05
2.15368e-05
2.94666e-05
-2.01348e-05
-1.35223e-07
3.99108e-06
-3.85596e-06
-4.0591e-05
2.00173e-05
3.78899e-05
-1.73163e-05
3.98922e-05
7.02168e-06
-4.18874e-05
-5.02649e-06
2.83621e-05
-1.90116e-05
-3.13369e-05
8.34078e-06
1.43277e-05
-3.4973e-05
-2.02586e-06
-7.54992e-06
4.45491e-05
-9.26393e-08
3.91954e-06
-3.82736e-06
3.90107e-05
-1.51057e-06
-4.59924e-06
-3.29016e-05
4.1326e-06
-4.12887e-06
-3.55412e-09
-1.2324e-05
3.06837e-06
-7.5346e-06
1.67903e-05
-2.16839e-05
-1.83739e-05
1.64461e-05
2.36117e-05
2.07475e-05
-1.58572e-05
-4.36755e-06
-5.21942e-07
-4.51454e-08
3.15249e-06
-3.1075e-06
-7.09346e-07
-4.11723e-06
1.49473e-08
4.8116e-06
7.72973e-06
3.08125e-06
-5.44612e-06
-5.36489e-06
-1.19972e-05
1.29889e-05
-1.70124e-06
-2.94973e-07
4.22969e-05
-1.18475e-06
-4.08171e-05
-7.44808e-06
-7.37887e-07
9.7666e-06
-1.58093e-06
3.56444e-06
-1.41072e-05
1.11049e-05
-5.61965e-07
1.07845e-05
-2.01957e-05
1.44284e-05
-5.01731e-06
8.82275e-06
2.04802e-05
3.47778e-06
-3.27801e-05
5.65573e-06
-5.80771e-06
1.51964e-07
1.57534e-05
-1.2822e-05
-3.23136e-05
2.93825e-05
1.09934e-06
1.18682e-06
1.59599e-05
-1.82461e-05
4.34789e-06
1.89348e-05
-2.42303e-05
9.47481e-07
1.18503e-05
-5.35819e-07
-1.87105e-06
-9.44349e-06
1.08231e-05
2.25981e-05
-3.32057e-05
-2.16208e-07
1.43694e-05
-1.01079e-07
-1.23189e-06
-1.30366e-05
-2.59463e-05
9.41551e-06
1.29591e-06
1.52334e-05
-1.23745e-05
-1.16644e-05
-1.60262e-06
1.00894e-05
-1.77028e-05
1.3335e-05
-5.72241e-06
-4.43146e-06
-1.82506e-05
-2.74112e-05
5.00928e-05
-6.10363e-06
7.55389e-06
-1.73839e-06
2.8822e-07
4.36261e-08
2.6225e-06
-2.66627e-06
-7.84746e-06
4.04719e-05
1.20881e-05
-4.47142e-05
3.09369e-05
1.29706e-05
-1.14563e-05
-3.24526e-05
2.77284e-05
-2.3267e-05
2.67829e-05
-3.12439e-05
3.52135e-05
-3.88234e-05
4.34762e-06
-7.37804e-07
-5.74927e-05
2.50778e-05
1.07796e-05
2.16354e-05
-1.19643e-05
-1.49012e-06
1.31649e-05
2.89389e-07
3.44907e-05
-4.59977e-05
1.61158e-05
-4.60867e-06
1.08295e-05
-1.18652e-05
3.77202e-06
-2.7363e-06
-1.74324e-05
1.58564e-05
-1.07974e-05
-1.43691e-05
4.86396e-05
5.34807e-06
-3.9617e-05
-5.53328e-06
1.44886e-07
5.38789e-06
-4.78631e-06
1.07847e-05
-4.00181e-05
-2.0308e-05
-3.48073e-07
2.02081e-07
2.04536e-05
4.70491e-06
1.20617e-07
-4.82491e-06
8.47772e-06
-5.38448e-07
-3.0472e-05
2.25325e-05
-5.97904e-08
-2.04993e-07
1.08544e-05
-1.05903e-05
8.41209e-06
1.81775e-05
-3.04133e-05
3.82354e-06
2.72381e-05
1.88967e-06
1.77184e-06
-3.08979e-05
-2.69724e-06
6.42574e-06
3.92425e-05
-4.29709e-05
-8.96965e-06
-1.09233e-06
-3.71734e-07
1.04342e-05
-9.41613e-06
8.141e-06
-3.25636e-05
3.38389e-05
-1.40554e-06
2.52709e-05
-2.20691e-05
-1.79571e-06
3.90307e-05
1.19884e-05
-1.77843e-05
-3.3234e-05
8.5109e-06
-4.61548e-05
3.00854e-05
-3.90623e-05
4.99053e-05
-2.30784e-06
2.16724e-05
-8.51439e-06
1.77781e-05
-1.37883e-05
-3.39778e-06
6.67826e-06
1.05078e-05
-7.25945e-06
7.59346e-07
6.61957e-06
-1.19629e-07
-1.24601e-05
3.14263e-05
-2.2039e-05
3.07198e-06
-3.38181e-05
3.01958e-05
3.21803e-05
-2.85581e-05
-3.3793e-06
3.10842e-06
1.81311e-07
8.98321e-08
3.40609e-05
-4.97577e-05
-1.85582e-05
3.42539e-05
-4.59623e-05
-1.84388e-05
3.07567e-05
3.3644e-05
4.16151e-05
4.36147e-06
2.05296e-06
-4.8029e-05
3.56016e-05
-2.39351e-05
2.99487e-05
-3.84718e-05
-3.71921e-06
1.50094e-05
2.71818e-05
3.30151e-06
2.78915e-07
-3.58059e-06
3.93078e-05
-3.63268e-05
-1.23495e-05
9.36855e-06
-2.06536e-05
-7.28372e-06
6.02929e-06
2.19083e-05
1.56349e-05
2.70881e-05
-1.55601e-05
-2.71627e-05
6.99772e-06
2.20584e-05
-2.14517e-05
-7.60357e-06
4.72976e-07
-6.54003e-06
6.06708e-06
-1.82081e-05
-1.61102e-05
1.56915e-05
1.86278e-05
1.61471e-06
2.04135e-05
-4.74801e-06
-1.728e-05
-3.45731e-05
3.46971e-05
-6.52229e-06
-3.00439e-06
3.95758e-05
-3.86193e-05
2.04814e-06
2.05759e-05
4.21866e-06
1.11868e-05
-3.59806e-05
-5.71762e-08
-2.28016e-06
2.33732e-06
-3.31998e-06
3.30414e-06
1.64908e-08
-2.61325e-05
-1.24643e-05
1.50059e-05
2.35905e-05
-3.31367e-05
-7.49651e-07
4.00974e-05
-6.21022e-06
-1.00403e-05
3.68965e-05
-3.81616e-05
1.13054e-05
-2.63169e-05
2.15059e-05
-9.63102e-06
1.44415e-05
3.66837e-07
2.10021e-05
-2.35208e-05
2.15134e-06
-3.62465e-05
8.06771e-06
2.36941e-05
4.48465e-06
2.35347e-06
4.82291e-05
-1.81955e-05
-3.23875e-05
2.25064e-06
-4.20142e-06
-2.3796e-05
-1.23594e-05
1.00227e-05
2.04641e-05
-1.30752e-06
3.41531e-06
-2.25719e-05
-2.01821e-06
-4.70436e-06
5.92641e-06
7.97902e-07
1.37979e-05
-4.18911e-06
-9.80711e-06
1.98798e-07
1.30106e-05
-4.40691e-05
4.21922e-05
-1.1134e-05
-1.68984e-05
2.98115e-05
4.33155e-06
-1.72444e-05
-3.55569e-06
4.24754e-06
2.81306e-05
-2.88231e-05
-3.79926e-05
2.8185e-06
3.85363e-07
3.4789e-05
-2.12809e-05
2.51552e-06
1.71289e-05
1.63669e-06
-2.66029e-05
1.64411e-05
3.76686e-05
-2.75062e-05
-1.44082e-05
-2.66474e-05
7.27261e-06
3.37847e-05
5.34855e-06
-4.21308e-05
-5.10161e-06
4.18837e-05
-3.22541e-05
4.2596e-06
-1.34068e-06
2.93352e-05
-3.38587e-05
-2.45295e-06
-2.27357e-06
3.85859e-05
7.36099e-06
-4.03502e-06
3.65949e-05
-3.9921e-05
7.15122e-06
-4.08417e-06
-1.36648e-08
-3.05349e-06
4.84668e-06
-5.04594e-05
-7.73406e-06
5.33473e-05
-4.11354e-06
2.60594e-06
2.10759e-06
-5.99998e-07
-2.87876e-05
-7.55539e-06
1.58093e-05
2.05337e-05
-1.45302e-06
1.41611e-05
2.67499e-06
-1.5383e-05
-1.31022e-05
-1.4199e-05
9.3295e-06
-6.15366e-06
2.46516e-06