/*--------------------------------*- C++ -*----------------------------------*\
| =========                 |                                                 |
| \\      /  F ield         | OpenFOAM: The Open Source CFD Toolbox           |
|  \\    /   O peration     | Version:  2406                                  |
|   \\  /    A nd           | Website:  www.openfoam.com                      |
|    \\/     M anipulation  |                                                 |
\*---------------------------------------------------------------------------*/
FoamFile
{
    version     2.0;
    format      ascii;
    arch        "LSB;label=32;scalar=64";
    class       volVectorField;
    location    "42";
    object      U;
}
// * * * * * * * * * * * * * * * * * * * * * * * * * * * * * * * * * * * * * //

dimensions      [0 1 -1 0 0 0 0];

internalField   nonuniform List<vector> 
59516
(
(0.105045 -0.000290635 -0.000502021)
(0.0976324 -0.000101996 -0.000403016)
(0.113094 -0.000956065 -0.000343449)
(0.129048 0.00157405 0.00195244)
(0.113765 0.000211068 -0.00455299)
(0.10109 -0.00483329 -0.0107982)
(0.128432 -0.000840699 -0.00179009)
(0.102434 0.000751298 -6.28116e-05)
(0.112492 0.000958296 -9.05144e-06)
(0.0544832 -0.00100769 0.00215257)
(0.153544 -0.000179089 -0.00214732)
(0.0604856 0.000353205 -0.00358946)
(0.119262 0.00110198 -7.6264e-05)
(0.0197262 -9.24263e-05 -0.000204458)
(0.0606179 0.00148729 0.00322569)
(0.0519118 0.00358298 -0.00170379)
(0.167339 -0.000894883 -0.000620172)
(0.0701258 0.0039782 -0.00430651)
(0.114652 0.0057359 0.000770026)
(0.163868 -0.000473161 0.000446137)
(0.054168 0.000832843 -0.00117719)
(0.148634 -0.000595898 0.00029227)
(0.154484 -8.59988e-05 -0.00132774)
(0.0335239 -0.00101537 -0.00023854)
(0.160059 -0.000476947 0.000856222)
(0.0656928 0.00139492 0.000714552)
(0.0417292 0.000835798 -0.00278415)
(0.0444323 0.00374306 0.000244553)
(0.0658037 0.00257897 -0.000428064)
(0.0174412 -0.00272089 0.000698506)
(0.108345 -0.0210373 -0.00463534)
(0.0456954 0.00360631 -0.000555081)
(0.133143 0.00020917 0.000816177)
(0.112312 -0.000835587 0.00231854)
(0.139216 0.00484101 0.00367529)
(0.146023 6.29658e-05 -0.000238255)
(0.0168667 -0.00163969 -0.00234315)
(0.0700178 0.00267207 -0.00672626)
(0.0956219 -0.00358548 -0.000282049)
(0.158037 -0.000905829 -0.000533957)
(0.101377 -0.000672798 9.56927e-05)
(0.143927 -0.00828074 -0.00763289)
(0.148305 -0.00337866 -0.00270773)
(0.10762 -0.000727648 0.000383704)
(0.143003 -0.00425234 -9.63156e-05)
(0.0550603 -0.000775337 -0.00130237)
(0.132645 -0.00258679 -0.0039034)
(0.162322 -0.00416 -0.00068688)
(0.111881 -0.00903042 0.012425)
(0.150537 0.00627897 0.00513048)
(0.104051 0.0104754 -0.0145268)
(0.0438337 -0.00362818 0.00246794)
(0.120074 0.000915976 -0.00229024)
(0.127445 -0.000538772 4.18543e-05)
(0.0476928 0.00290745 3.0618e-05)
(0.129883 0.00238711 -0.000678657)
(0.144682 0.00812557 0.00848244)
(0.0470444 0.00393452 -0.00276479)
(0.169899 0.000307289 -0.000123058)
(0.135072 0.00615982 0.00784814)
(0.149034 -0.000337035 0.000332623)
(0.019007 0.00233969 -0.000813267)
(0.163654 0.000619965 6.79882e-05)
(0.164161 0.00200505 0.00126206)
(0.123062 0.000290786 -0.000594995)
(0.147067 0.00333258 0.00468544)
(0.0258947 -0.00174659 0.0023604)
(0.0407784 0.000238776 -0.000199016)
(0.121486 -0.00506613 0.0222482)
(0.136011 0.00124031 -0.0024303)
(0.0366646 0.00103486 0.000302834)
(0.161639 0.00139183 0.000160587)
(0.0230077 0.00144103 -0.00351245)
(0.142689 0.000545295 0.000422753)
(0.175578 -1.67404e-05 -0.00013846)
(0.157578 -0.00174438 -0.00212808)
(0.163067 -0.00193369 -0.00288287)
(0.148079 -7.2707e-05 -0.000180888)
(0.0456082 -0.00154542 0.00142739)
(0.151077 0.00294778 0.00728039)
(0.0381782 0.00230984 0.00106454)
(0.146381 0.00382399 0.00561476)
(0.139488 0.00179559 0.00539548)
(0.01995 -0.000763864 0.00278577)
(0.146278 0.00308516 0.00594319)
(0.171723 -0.00023692 0.000675367)
(0.0324303 -0.00118016 0.000511335)
(0.149999 0.000302931 0.000544822)
(0.0543046 0.000721181 0.00229272)
(0.10721 0.00838484 -0.0057355)
(0.131538 -0.000861316 -0.0113932)
(0.138627 0.0017823 -0.000240794)
(0.169399 3.1074e-05 -0.000138343)
(0.137084 0.00125611 -0.000294309)
(0.158813 0.000459829 3.03423e-05)
(0.10995 -0.0105774 0.00396901)
(0.140183 -0.00047702 0.00070302)
(0.0531721 -0.0018002 -0.00416026)
(0.0647069 0.00236417 -0.000962679)
(0.147873 -0.000899606 0.00154449)
(0.0374317 0.000622981 0.00140238)
(0.0243874 0.00122111 -0.00278176)
(0.0230413 0.000817989 0.00318719)
(0.0541572 -0.000831063 -0.0028573)
(0.135611 0.000627627 -0.000228738)
(0.146304 -0.000181613 0.000190973)
(0.0396694 0.00345461 -0.00142049)
(0.105496 0.00035528 -0.000711328)
(0.101431 -0.000700515 6.46275e-05)
(0.0657859 0.000415418 -0.00267879)
(0.124931 0.0128758 -0.0135163)
(0.0306565 0.00310302 -0.00041858)
(0.0666054 0.000830331 -0.00406416)
(0.118037 0.0173687 -0.00872142)
(0.158753 5.61928e-06 -0.000100199)
(0.101038 0.00107965 0.00102404)
(0.0540643 0.000558787 -0.00208295)
(0.133533 -1.30575e-05 0.000806199)
(0.0218504 -0.000300362 0.00105018)
(0.146697 0.00136093 0.000368442)
(0.177037 -0.000462266 0.000382722)
(0.165238 -0.000200924 0.000438423)
(0.15777 -0.000413988 0.000744866)
(0.163866 -0.000550509 0.000572617)
(0.132321 -0.0177037 0.00276606)
(0.0902004 0.00122222 -0.00284324)
(0.0296429 -0.000513276 0.00194896)
(0.13825 -0.0134841 -0.00103198)
(0.0898358 -0.00275994 0.0131355)
(0.173836 0.000504746 1.41643e-05)
(0.175518 0.000360973 0.000368213)
(0.113298 0.00163932 0.0019214)
(0.0232461 0.00135346 -0.00160367)
(0.148277 -0.000104539 0.000646637)
(0.102308 0.00118416 0.000276997)
(0.116658 -0.000753623 -0.00193586)
(0.107517 0.0127677 -0.00894521)
(0.130542 -0.000378603 0.000432128)
(0.039405 0.00268642 0.000116265)
(0.0992329 0.000404155 -0.00124458)
(0.0436678 -0.000882163 -0.00219795)
(0.176879 -0.000478547 0.000351931)
(0.0185766 0.000819284 0.00162547)
(0.126184 -0.00115872 -0.000424791)
(0.171436 0.000510757 0.000368417)
(0.141688 0.00155055 8.8578e-05)
(0.140592 -0.00468907 -0.00156776)
(0.118556 0.00126259 -0.00252633)
(0.0621292 -0.00100601 0.00173185)
(0.107486 -0.000764603 -0.000846115)
(0.104223 -5.79117e-05 -0.000827108)
(0.0348854 -0.00131044 2.40017e-05)
(0.164838 -0.000923196 0.00104498)
(0.153818 -0.000406365 0.00050877)
(0.0900517 -0.000378115 0.00203129)
(0.0186408 -0.000379468 0.00201802)
(0.114102 -0.000112443 -0.00017655)
(0.114651 0.00122711 -0.000214167)
(0.083204 0.00117168 0.000143518)
(0.0191206 0.00229974 -0.00250841)
(0.0644886 0.00149975 -0.00333367)
(0.0664119 -0.00358147 -0.00231949)
(0.0345716 -0.00143594 0.000340785)
(0.0249915 -0.00021775 -0.000492966)
(0.100329 0.00179989 0.00235784)
(0.169614 0.000228354 0.00111701)
(0.0610028 -0.000702441 0.000350818)
(0.172664 0.000645104 -3.49911e-05)
(0.0195346 -0.00119723 0.00226465)
(0.136112 -0.000548235 0.000124974)
(0.0842987 0.00133138 0.00114334)
(0.0515534 0.000743017 -0.000789599)
(0.0635073 0.00160538 0.000845278)
(0.137047 -0.000544173 0.000587916)
(0.0495029 -0.000791495 0.000266558)
(0.1351 -0.00138365 -0.00486775)
(0.166496 -0.00025328 -0.00103629)
(0.149403 -0.00509657 -0.00307904)
(0.0665811 -0.000869113 0.00313339)
(0.0403575 -0.000137227 -0.000530068)
(0.145794 0.002004 0.000712345)
(0.0329407 -0.00287242 -0.00128532)
(0.0284028 -0.000354063 -0.00224005)
(0.0637504 -0.00165075 0.000165)
(0.172841 -4.61053e-05 0.000521066)
(0.0582827 0.000299906 0.00070152)
(0.0347645 -0.000606667 -0.00269196)
(0.0226304 1.25444e-05 0.00030287)
(0.122243 0.000117144 -5.02506e-05)
(0.100465 -0.00174444 -0.000181363)
(0.135307 -0.000663462 0.00282294)
(0.0511861 0.00309026 5.02256e-05)
(0.161943 -0.000550521 -0.000186201)
(0.0562055 0.00218248 3.12081e-05)
(0.154336 -9.81035e-05 -0.000169819)
(0.0289646 -0.000257166 0.000801309)
(0.0562345 0.00074849 -0.000163908)
(0.0400235 -0.00107471 0.00027342)
(0.110187 0.00283467 0.00368563)
(0.153302 0.000652081 -0.000360525)
(0.0806678 -0.00274923 0.000357412)
(0.176283 -0.000634006 0.00040807)
(0.10289 -0.000742694 0.000863549)
(0.0191503 0.0020846 -0.00138727)
(0.128399 -0.0012927 -0.000471754)
(0.14512 0.000184986 0.000196932)
(0.17517 0.000171923 0.000118336)
(0.152116 -0.00115231 -0.000214064)
(0.0225386 -0.000684513 0.000209157)
(0.114241 -0.00196488 -1.63869e-05)
(0.0497923 0.00349357 0.00304118)
(0.023752 -0.00389277 -0.000630085)
(0.143879 0.000316889 -0.0013886)
(0.0550222 -0.00113485 0.000762003)
(0.116325 0.00135761 0.000140091)
(0.167839 -0.000216298 -0.000129853)
(0.139907 0.00100948 0.000236822)
(0.156672 -0.00129007 0.000489641)
(0.0535062 0.00218013 -0.00278828)
(0.156042 -0.000302484 0.000763593)
(0.0545575 0.00213747 0.00183324)
(0.104704 0.000377018 -4.74014e-05)
(0.161959 0.000721079 0.000938556)
(0.038988 -0.000174547 0.000699286)
(0.165479 -0.000494635 4.1126e-05)
(0.167392 -0.000281102 -0.000745291)
(0.0276534 -0.000299255 0.00141182)
(0.0460887 0.00148723 -0.00217163)
(0.166707 0.000382396 0.000717599)
(0.053595 0.000207501 -0.00396182)
(0.168858 -0.00064081 0.000246897)
(0.168325 0.000350449 -0.000433755)
(0.174392 0.000574657 0.000844698)
(0.0245515 -0.0019375 -0.00138055)
(0.0322142 0.000872728 -0.00155744)
(0.0335872 0.000866447 -0.00120014)
(0.0625417 0.000359775 0.000274088)
(0.0968825 -0.00126964 0.000639198)
(0.155125 0.000975447 0.00125173)
(0.056544 -0.00119465 0.00145129)
(0.176087 -0.000151742 0.000617075)
(0.0201439 0.000375318 0.00298114)
(0.0536016 2.82333e-05 0.000863996)
(0.0244362 0.000176656 0.00268837)
(0.174079 0.000669172 0.000340106)
(0.0925937 -0.000511927 -0.000333873)
(0.145367 0.000195709 0.000852363)
(0.0645288 0.000756755 -0.00140838)
(0.166685 -3.29911e-05 -0.000108919)
(0.104728 0.000248817 0.000440521)
(0.163635 -0.000892577 0.000231111)
(0.140582 6.42323e-05 0.000663367)
(0.1764 0.000234049 0.000682119)
(0.144524 0.00044924 -0.000518981)
(0.146655 0.00122485 0.000820187)
(0.156584 0.000235065 0.000626265)
(0.054838 9.56427e-05 -0.000243481)
(0.152881 0.000884216 0.00158979)
(0.0413608 -0.000370193 -0.00229538)
(0.0593574 0.000495697 0.00208187)
(0.130668 0.000793887 -0.000953785)
(0.160118 -0.000499833 0.000585437)
(0.115305 0.00284106 0.00151009)
(0.17118 2.27149e-05 0.000601099)
(0.0990276 1.06657e-05 0.0021518)
(0.0572349 0.00225648 -0.00149054)
(0.15826 -5.79961e-05 -0.00106262)
(0.0927826 0.00187257 0.000517156)
(0.0458226 -0.000750647 -0.00068889)
(0.0511211 0.00016644 -0.0014381)
(0.0970196 0.000739769 -0.00298684)
(0.167913 -0.0006648 -0.000252146)
(0.098598 -0.00230248 5.49856e-05)
(0.09295 -0.00126135 0.000939768)
(0.162596 -0.00111053 -0.000240545)
(0.0929328 -0.000593124 0.0025021)
(0.0209708 0.00251006 -0.00143405)
(0.160308 9.61632e-05 0.000993532)
(0.0252794 0.0016294 -0.00215425)
(0.0400576 -0.00162747 0.00107142)
(0.173431 0.000318243 0.000952788)
(0.13977 -0.000203782 -0.000332045)
(0.0248892 0.00267189 0.00268109)
(0.121311 0.000923756 0.000409935)
(0.125087 0.00235927 5.91634e-05)
(0.165267 -0.000201059 0.001092)
(0.173655 -0.000649935 6.59097e-06)
(0.0239618 0.00283466 0.000555252)
(0.172738 0.000276415 0.000565588)
(0.175231 -0.000760542 0.000203162)
(0.16835 9.79101e-05 0.000899353)
(0.135436 0.000415207 0.000857609)
(0.137239 0.00132157 0.000847808)
(0.0958245 0.000478161 -0.000287033)
(0.168887 0.00109039 0.000234699)
(0.0279911 -0.00100129 -0.00128426)
(0.157888 -0.000860358 0.000494111)
(0.139795 -0.000842042 -0.000536769)
(0.175266 -0.000434603 0.000521463)
(0.164755 -0.00015908 0.000625436)
(0.117014 -0.000611432 0.000579738)
(0.059167 0.000860459 0.00127965)
(0.0228607 -0.000334172 0.0015965)
(0.0283245 -0.000693414 0.000484513)
(0.162993 -0.00111809 -0.000697894)
(0.0204847 -0.00120255 0.00296445)
(0.0633366 -0.000328167 -0.00107824)
(0.051882 0.00286729 0.0011546)
(0.164979 0.000119484 0.000819587)
(0.170813 -0.000306935 -0.000398855)
(0.154188 -0.000199372 -0.000500936)
(0.0587129 -3.05042e-05 -0.00130447)
(0.103725 0.00144027 -0.00222668)
(0.0400105 -0.00329575 0.00268054)
(0.0546713 0.00121156 0.00124677)
(0.155718 0.000528559 2.34893e-05)
(0.0986564 0.00111836 -0.00093869)
(0.107738 0.0123758 0.00351778)
(0.0903935 -0.0018709 0.000927962)
(0.0429141 -0.000208606 -0.000426806)
(0.0641517 -0.000938483 0.00196449)
(0.108393 -0.000878285 -0.00164764)
(0.171521 -8.18068e-06 -0.000151256)
(0.176085 -0.000573127 0.000646559)
(0.175994 -0.00017045 0.000961494)
(0.16077 -0.00123286 0.000327045)
(0.0970794 0.00364562 0.00459877)
(0.127316 0.000848661 0.000759168)
(0.163321 0.00137116 0.00084619)
(0.159499 -0.000689942 4.80263e-05)
(0.161899 -0.00059652 0.000822138)
(0.0564929 0.00125541 -0.00321171)
(0.0222671 -0.0014393 -0.00263882)
(0.149975 -0.00113131 0.000283172)
(0.0396248 -0.00188064 0.00215314)
(0.0317194 0.000169832 5.80758e-05)
(0.159397 0.000517424 0.00160778)
(0.146061 -0.0004367 0.000478657)
(0.0599608 -0.00135538 -0.0029148)
(0.168977 -0.000988137 0.00052321)
(0.164826 -0.00140825 0.000411915)
(0.175457 -0.000902545 -0.000480009)
(0.170069 -0.00100318 -0.000341091)
(0.0326597 0.00150687 3.30355e-05)
(0.158961 9.01262e-05 -8.47337e-05)
(0.171308 -0.00110763 0.00090867)
(0.057745 3.62761e-05 0.000791527)
(0.173973 1.02743e-05 0.00126383)
(0.17 -0.000446224 0.000499357)
(0.131954 7.98221e-05 -0.0008774)
(0.123294 0.000147243 -0.000902271)
(0.151087 -0.000944417 0.00136281)
(0.14342 -0.00129803 0.000516125)
(0.0699643 -0.000364546 -0.000221441)
(0.0316783 0.00130638 -0.00101307)
(0.0349401 -0.00253703 -0.00021335)
(0.0953277 0.000494771 -6.21249e-05)
(0.0862558 -0.00677191 0.0106098)
(0.0746134 -0.00420697 -0.00607723)
(0.0837885 0.000348198 0.0003037)
(0.115367 9.02693e-05 0.00201315)
(0.131851 0.000241988 0.00061696)
(0.158407 -0.00123495 0.00391622)
(0.156707 -0.000322941 0.000806713)
(0.132405 -0.000698756 -0.000275556)
(0.148638 6.34823e-05 0.00058924)
(0.148893 0.000911814 0.000398806)
(0.0313404 -0.000944953 -0.000333237)
(0.113905 -0.0224598 0.00276687)
(0.0583064 0.00150527 0.000530107)
(0.0412769 -0.00185174 -0.000447199)
(0.0415417 0.000839754 0.00032557)
(0.160208 -0.000464805 -0.000327338)
(0.0943656 -0.000498822 2.08806e-06)
(0.159664 0.000572154 -0.0010542)
(0.0198952 0.00110529 -0.00170587)
(0.127031 -0.000415173 0.000256151)
(0.0444392 0.00106644 -0.000845401)
(0.163261 -0.000437559 -0.00014503)
(0.0479006 -0.000640851 -0.000472638)
(0.0618857 -0.00147013 0.00124145)
(0.106838 -0.00269248 0.000834616)
(0.151549 -0.00099895 0.00123527)
(0.0196177 0.00160056 -0.00210912)
(0.0543814 -0.000582045 0.00235068)
(0.133543 -0.000146653 0.000594286)
(0.0232753 -0.00144548 -0.00181648)
(0.130758 0.0012715 0.00916366)
(0.116607 -0.000745818 0.0025393)
(0.132298 -0.000237359 -0.0020158)
(0.0949634 0.00209266 -0.00277352)
(0.0888182 -0.0011764 0.00201704)
(0.160681 0.00086388 5.74931e-06)
(0.0772014 -0.00788886 -0.00717363)
(0.176123 0.000576082 0.000138668)
(0.111358 0.00858293 0.00902513)
(0.0595095 -0.00263461 0.0003622)
(0.0626822 -0.000384 -0.00146404)
(0.17435 0.000591657 0.000246155)
(0.174655 0.000828976 0.000400966)
(0.0525559 -0.000517361 0.000612154)
(0.134165 0.000539598 -0.000561567)
(0.0984076 -0.000508102 -0.00230273)
(0.173952 -8.28261e-05 0.000650318)
(0.173413 -0.000183096 0.00104613)
(0.045683 0.00131269 -0.00340334)
(0.133133 -0.00101937 2.94694e-05)
(0.145396 -0.00169583 0.00150295)
(0.148035 0.000605196 -0.000339148)
(0.156152 0.000610581 0.000535769)
(0.0215494 -0.000736688 -0.00271536)
(0.0209673 0.00105792 -0.0026339)
(0.126967 0.00113726 -0.00161035)
(0.171375 8.79584e-05 2.67888e-05)
(0.174984 -0.00157388 -0.000632088)
(0.0345238 0.000363136 -0.00250203)
(0.165732 -0.0014961 0.00050782)
(0.107286 -0.000997569 -0.000604285)
(0.169783 -8.8954e-05 0.000714369)
(0.172175 0.000718886 0.000579142)
(0.175216 0.000818284 -0.000381842)
(0.169873 0.000757337 0.000583091)
(0.169316 0.00151015 0.000531761)
(0.0892333 0.000558552 0.000297961)
(0.173368 0.000956957 -9.24737e-05)
(0.0561428 -0.00109663 -0.00277352)
(0.164565 0.000233415 -0.00036942)
(0.109896 -0.000408907 -0.00109388)
(0.152503 0.000607238 0.000825613)
(0.17063 0.000270062 -0.000140238)
(0.149316 -0.00042251 0.00017285)
(0.144395 0.000381406 -0.00110126)
(0.04032 0.00229947 0.00212732)
(0.0338711 0.000826941 0.000311991)
(0.0211789 0.00183738 -0.00211121)
(0.152585 0.00404298 0.00722507)
(0.180318 4.45979e-05 -0.000142285)
(0.139204 -0.000853767 0.000641489)
(0.126931 0.00106693 0.00021624)
(0.0308115 -7.83012e-05 0.00113319)
(0.0236038 -0.000394965 0.00269544)
(0.114811 -0.000443641 0.00172444)
(0.151591 -0.000310749 0.00144327)
(0.170973 -0.000554211 0.000779275)
(0.154068 0.000460739 3.28165e-05)
(0.13574 -0.00105643 -0.000999291)
(0.178281 0.000549368 0.000192552)
(0.13461 0.000845589 0.000823318)
(0.0263533 -0.000556437 0.00248248)
(0.123052 -0.000288983 0.000648472)
(0.0574854 0.000552172 0.00296458)
(0.0704795 -0.00704187 0.00150728)
(0.152961 0.000212983 0.000348736)
(0.0937784 0.000432139 1.20013e-05)
(0.146163 -0.000103317 5.77354e-05)
(0.0205585 -0.00384113 -0.0014237)
(0.174448 0.000937394 -0.000281338)
(0.174313 1.7691e-05 -0.000341694)
(0.172323 0.000761332 0.000440987)
(0.0919292 0.000939295 0.000126526)
(0.152552 -0.000483324 0.00137024)
(0.169031 0.000205478 0.000946577)
(0.12164 0.000391699 0.000130831)
(0.174481 0.00109045 0.000211217)
(0.0981936 0.00389886 -0.00313927)
(0.16795 0.000609249 -0.000236549)
(0.148655 -0.00259705 -0.000541553)
(0.0204536 -0.00133085 0.00144179)
(0.173516 -0.000383177 -0.000276723)
(0.116846 0.00208814 4.9513e-06)
(0.0458636 -0.00131767 0.00374294)
(0.0911117 0.000744618 -0.00152163)
(0.164816 -0.000157697 -0.000358546)
(0.129256 -0.000355797 0.000867732)
(0.0846638 0.000213556 -0.0024008)
(0.0203176 -0.0018404 -0.00203948)
(0.170974 -0.000636937 -0.000265041)
(0.124897 0.00168575 -0.00177544)
(0.159689 -0.000413933 -0.0004623)
(0.124423 8.20132e-05 0.000765306)
(0.0365595 0.00166637 0.0016453)
(0.14088 7.38628e-05 -0.000425549)
(0.025927 0.00210037 -0.00331347)
(0.160926 0.00023873 -0.000681628)
(0.10228 0.0114011 -0.00365254)
(0.165463 -0.00087385 -0.000680233)
(0.051273 -2.24006e-05 0.00177928)
(0.106464 -0.0012474 -0.00155819)
(0.0952438 0.000267974 -0.00128044)
(0.0344718 0.00200117 0.00174372)
(0.174999 0.000120167 0.000559943)
(0.16734 0.000109076 0.000832042)
(0.0217554 0.000762856 0.0021221)
(0.159622 -0.000560289 0.000346756)
(0.175067 -7.86391e-05 0.000662261)
(0.03677 -7.87894e-05 -0.00215075)
(0.0610495 0.0027027 -3.26246e-05)
(0.0532059 0.00192775 0.00139276)
(0.153051 0.00050839 0.000635509)
(0.172613 0.000191016 0.000330968)
(0.0325324 -0.000851613 0.00149536)
(0.0534252 -0.00176667 -0.000615299)
(0.056089 0.00112322 -8.05441e-05)
(0.115134 0.001455 0.00032309)
(0.173639 0.000255646 0.000442196)
(0.0229416 0.00121782 -0.00301696)
(0.1586 -0.000697364 0.000852163)
(0.151525 0.00276409 -0.000115576)
(0.173299 -0.000195918 0.0011814)
(0.0900995 0.00386633 -0.00372685)
(0.166384 0.0010198 0.000269731)
(0.0225126 -0.000254399 -0.00245137)
(0.162797 -0.000448853 -0.000234054)
(0.0269043 -0.000429321 -5.19561e-05)
(0.0592001 -0.00171785 0.000626537)
(0.154193 -0.00113789 0.000148009)
(0.0599209 -0.00176861 -0.000603463)
(0.0203236 0.00237542 0.00211695)
(0.0363285 0.000698132 -0.00115935)
(0.0447958 -0.00236686 0.00154241)
(0.0579907 0.00115268 -0.00162099)
(0.146536 -4.58265e-05 -0.00076236)
(0.0495749 -0.00113002 1.64465e-06)
(0.0585019 0.00190192 -0.00106857)
(0.128211 -0.00709627 -0.0137148)
(0.166122 0.000249978 0.000813357)
(0.023612 0.00152181 0.000265761)
(0.106523 0.000183027 -0.00103429)
(0.0812993 0.00883932 -0.00348717)
(0.167801 -0.0010558 -0.000125275)
(0.0576741 -0.000159145 -0.00132587)
(0.162813 0.000440942 0.00120481)
(0.0565843 -0.00232207 -0.00160343)
(0.123055 0.00052687 0.000682319)
(0.172131 0.00030342 -0.000586187)
(0.050332 0.00231671 -0.00450978)
(0.171905 -7.81662e-05 1.44278e-06)
(0.0475761 0.00220679 0.00242348)
(0.01891 0.00288322 0.00108327)
(0.145549 0.000843507 -0.000310013)
(0.172891 0.000249953 0.000240345)
(0.12971 0.000965489 -0.000385036)
(0.125141 0.00167119 -0.000671893)
(0.173089 -0.0011955 0.000292792)
(0.0600106 0.00167009 -0.000217034)
(0.164951 -0.00114388 0.000458357)
(0.0562907 -0.00175088 0.00245563)
(0.170697 0.000455131 0.000116106)
(0.12619 -0.00149615 -0.00132985)
(0.0275875 0.000691128 -0.00384178)
(0.153164 0.000516434 -0.00081343)
(0.0514369 7.81259e-05 0.00165885)
(0.0256322 -0.00185408 -0.00185421)
(0.148641 -0.000927051 -0.000340239)
(0.0425676 -0.00119497 0.00106251)
(0.137687 0.000391955 7.36788e-05)
(0.172108 -2.95175e-05 0.000955294)
(0.130751 0.000544646 0.000375482)
(0.052942 -0.00238848 -0.00255388)
(0.174605 0.00159272 0.000288629)
(0.0895429 -0.00133649 0.00114351)
(0.179504 0.000398395 0.000205355)
(0.175647 -4.58581e-05 0.000360891)
(0.175248 0.000597306 0.000781911)
(0.172521 0.000161668 -9.26638e-07)
(0.0433809 -0.00240913 -0.00199722)
(0.0507547 0.000260748 -0.000503335)
(0.172954 -0.000176207 4.42985e-05)
(0.160888 0.000570256 0.00156839)
(0.0312443 -0.0022108 -0.00104155)
(0.159752 -5.91564e-05 0.000458693)
(0.176053 7.24121e-05 0.000240146)
(0.172386 -0.00100036 -0.000258245)
(0.175416 -0.0012885 -0.000178875)
(0.115911 -0.000140646 -0.00157589)
(0.0210282 0.00211823 0.00183989)
(0.173806 0.000593007 -0.000204275)
(0.0996985 -0.000966512 -0.00129119)
(0.150275 0.000363054 0.000560088)
(0.0951821 0.000249814 -7.1952e-05)
(0.0286925 0.00205492 -0.000142582)
(0.173574 0.000397983 0.000595022)
(0.0909038 0.00225365 0.00225728)
(0.132823 -0.000281884 0.00023175)
(0.176407 -0.00111507 4.05949e-05)
(0.141018 -0.00154856 -0.000389389)
(0.0169611 0.00153642 -0.00200624)
(0.021615 -0.00132093 -0.00211357)
(0.170379 -0.000316195 0.000190058)
(0.164774 -0.00101443 -0.000373331)
(0.17644 0.000954112 0.00096685)
(0.151065 -0.000186296 0.0012421)
(0.0913166 -0.00137663 0.00055546)
(0.149106 -0.0010497 -0.00055974)
(0.170946 0.000140168 0.000559853)
(0.019784 0.00172813 0.000405321)
(0.171662 -0.000255657 0.000522738)
(0.134946 -0.0149076 -0.000362773)
(0.0366173 -0.000615785 0.00191375)
(0.0536368 -0.00343136 0.000874986)
(0.144001 -0.000369893 -0.000893091)
(0.140712 -0.00175802 0.000939528)
(0.137571 0.000564804 -0.000117463)
(0.123741 -0.000761938 0.000618333)
(0.104393 -0.00358777 0.00111964)
(0.175693 0.000215632 -0.00023263)
(0.0972438 0.000948348 -0.00285603)
(0.172053 0.0010204 -6.52749e-05)
(0.168037 0.000809076 -6.16664e-05)
(0.178819 -0.000915695 0.000256203)
(0.169755 -0.000958342 0.00022797)
(0.0392382 -0.000411607 0.00192906)
(0.161957 -0.000852178 0.000176146)
(0.0317404 0.000934774 -0.00130674)
(0.0944267 -0.00919771 0.00542228)
(0.0590004 0.00184371 0.00149389)
(0.127251 -0.00252441 -0.0129836)
(0.130437 -0.000759891 -0.000623499)
(0.117452 -0.019041 -0.00422352)
(0.16664 0.000195411 -0.000469338)
(0.172542 -0.000339542 -0.000238931)
(0.153302 0.000653261 -0.000142845)
(0.167308 -0.00032108 0.00102034)
(0.0327907 0.000222019 -0.000565615)
(0.100941 -0.00380187 -0.00254856)
(0.112488 -0.00210499 -0.0160284)
(0.170969 0.000316542 0.00010434)
(0.112037 -0.00235963 -0.000556404)
(0.136856 -0.0133268 -0.0046373)
(0.156348 -0.00340634 0.00428843)
(0.110636 0.000891791 0.000796304)
(0.0341842 -0.000704222 0.00120725)
(0.0527056 -0.00256969 0.00148281)
(0.0236728 0.00010373 -0.000229562)
(0.0225056 0.000161943 -0.0017267)
(0.0334442 -9.23301e-05 0.000170295)
(0.133638 -0.00919351 0.00542212)
(0.138379 -0.000371344 0.000823345)
(0.0228422 -0.000780184 0.00317414)
(0.0216234 0.00155742 0.00240213)
(0.176195 0.000394179 -1.33147e-05)
(0.0961355 -0.0126214 0.00856888)
(0.0360128 0.00156473 0.0006048)
(0.147467 0.000240707 -0.000420794)
(0.105314 -0.00107043 -0.00151523)
(0.134365 0.000167243 0.00121761)
(0.0404273 0.0021008 -0.00115933)
(0.0527167 0.00161628 -0.000610485)
(0.111032 -0.00119962 9.20438e-05)
(0.166505 0.000202578 -0.000666116)
(0.151504 0.000200752 -0.000794689)
(0.0344973 0.00286015 -0.00100019)
(0.0230767 -0.00179355 0.0011213)
(0.106234 -0.0151842 -0.0112652)
(0.0246425 -0.00320809 8.71581e-05)
(0.134374 -0.000884409 -0.00108279)
(0.0261622 0.00145183 -0.00327681)
(0.103825 -0.000426319 0.00217631)
(0.170991 -0.000741113 -0.000204243)
(0.173601 -0.000479487 0.00116988)
(0.0421801 0.000615414 -0.000863267)
(0.0976197 -0.000354272 -0.000994)
(0.0337784 0.00123599 -0.00137362)
(0.0267405 0.00315276 -0.00117022)
(0.171493 -0.000257606 -0.000731373)
(0.0182954 -0.00154609 -0.00237212)
(0.162457 -0.000788543 -0.000699159)
(0.0461619 0.000968364 -0.00216735)
(0.154484 -0.00110174 -0.000218387)
(0.141442 -0.000572435 -0.000176784)
(0.0209232 -0.0005588 0.00332057)
(0.0549064 -0.00267977 0.000208921)
(0.148256 0.000299515 0.000530694)
(0.032747 -0.00158899 5.20772e-05)
(0.157505 -0.000490034 -0.000560765)
(0.0519866 -0.00204661 0.00324801)
(0.107815 0.000270174 -4.63969e-05)
(0.174282 -0.000744331 -0.000542667)
(0.0347431 0.00103316 0.000769488)
(0.0225235 0.000957978 -0.00293536)
(0.0485553 0.000922044 -0.000390681)
(0.110789 0.0173985 0.00374471)
(0.103982 0.000384515 0.00040678)
(0.054055 -0.00241372 0.00262885)
(0.0839082 0.000324954 0.00126631)
(0.0292535 -0.00111743 0.000708393)
(0.174859 -0.000765909 -0.000773767)
(0.0223337 -0.000343986 -0.00161547)
(0.167226 -0.00082745 -0.000387391)
(0.144991 -0.000239277 0.000253137)
(0.164621 -8.43673e-05 -8.33827e-05)
(0.0185359 0.00187114 7.42152e-05)
(0.150421 -0.000339776 0.00053416)
(0.0814207 0.000647638 4.47962e-05)
(0.156194 0.000274879 7.70711e-05)
(0.052488 -0.000507054 -0.000212917)
(0.108158 -0.013028 0.00669777)
(0.159267 -0.00152761 -0.000335677)
(0.0381434 0.000468527 -0.000438989)
(0.177298 0.000777657 0.000269233)
(0.108865 0.00200837 -0.0205026)
(0.11742 0.000293878 -0.000761307)
(0.0313994 0.000809163 -0.00173012)
(0.0486469 -0.00046798 -0.00254155)
(0.173382 -0.000154859 -0.000170393)
(0.132201 0.00131557 0.000211678)
(0.0307624 0.0015569 0.000599164)
(0.109425 0.00127898 -0.00159428)
(0.0584866 -0.000621964 -0.00178892)
(0.0233849 -0.0020511 0.00136379)
(0.172072 2.10794e-05 -0.000431956)
(0.10334 -0.00129164 0.0100561)
(0.130984 0.0014407 -0.00197554)
(0.168306 -0.000346096 -6.08246e-05)
(0.170583 -0.000152935 0.000540671)
(0.164983 -0.000552948 -0.000190746)
(0.132674 0.000754105 4.61386e-05)
(0.0416879 0.00110929 0.000363977)
(0.0382387 -0.00191002 -0.00184067)
(0.174541 0.00073477 0.000437365)
(0.107578 -0.0094073 0.00874563)
(0.121668 -0.00118031 0.000537756)
(0.128562 -0.00157356 0.000690509)
(0.0801591 0.0018486 0.000874883)
(0.14753 -0.000288916 0.00111439)
(0.160826 -0.000164334 -0.000939961)
(0.0985782 -0.000420327 -0.00130316)
(0.103687 0.00192782 0.000361478)
(0.0362557 0.000382345 -0.00228841)
(0.070235 0.000571441 -0.00043389)
(0.0416729 -0.00109645 -0.0031211)
(0.150575 -0.000702 0.00098847)
(0.16984 -0.000195845 -0.000138219)
(0.0932907 0.00160178 -0.00223628)
(0.0975907 0.000774946 -0.000538136)
(0.020067 0.0020922 -0.000411994)
(0.0782585 -0.000404022 -0.00064006)
(0.0563523 -0.00193885 -0.00242495)
(0.170437 -0.000244528 -0.00104722)
(0.171426 -0.0012822 -0.00052107)
(0.10482 -0.00958238 0.00606233)
(0.159683 -0.000602273 0.00120368)
(0.0806622 -0.00236967 -0.00189312)
(0.101706 -0.0025526 0.00794537)
(0.133267 -0.00137797 0.00195022)
(0.0251753 -0.00195324 -0.000145693)
(0.171449 -0.000977945 -0.000187715)
(0.0482213 0.00137862 -5.31889e-05)
(0.139065 -0.00039408 0.00127884)
(0.0272918 0.00388394 -0.000261721)
(0.169963 0.000388179 -0.00081035)
(0.101647 -0.00434096 0.00267235)
(0.156256 -0.000265535 -0.000402201)
(0.115406 0.000404575 0.00041707)
(0.145941 3.02284e-05 0.000496662)
(0.149209 0.000912316 0.000306916)
(0.17586 0.000882276 -2.23749e-05)
(0.0332456 -0.00196511 -3.74535e-05)
(0.0459155 0.000625491 -0.00100186)
(0.0278044 -0.000736753 -0.000241917)
(0.169927 -0.000180241 0.000636425)
(0.155065 0.000351198 -0.000791914)
(0.136364 0.00174025 -0.000413323)
(0.158357 0.000712051 -0.00112939)
(0.0201625 0.000363654 0.00052753)
(0.0974627 -0.000154802 -0.000233902)
(0.0883851 0.000893826 -0.00182524)
(0.169938 -0.000106015 -0.000244996)
(0.126693 -0.000897502 -0.000339895)
(0.144898 -8.9344e-05 -0.000506083)
(0.105313 -0.000281429 0.00136168)
(0.172589 -8.16445e-05 3.89944e-05)
(0.0198552 -0.00229561 -0.00242261)
(0.084335 -0.00340417 0.00046398)
(0.151082 -0.000223051 0.000384861)
(0.0251049 -0.00223397 0.00192666)
(0.0430618 -0.000737174 -0.00200913)
(0.0604073 -0.00104071 0.000622587)
(0.0208308 0.00129316 -0.00220977)
(0.0941506 0.000482027 -0.00130812)
(0.165638 0.0005203 2.72898e-05)
(0.05832 -0.00178852 -0.00149777)
(0.0184781 -0.00239597 -0.00171056)
(0.104045 0.000442126 -0.00079034)
(0.024756 0.000180515 0.000372313)
(0.0979999 0.00125489 -0.000702001)
(0.168272 0.000207178 -1.07895e-05)
(0.176279 -3.81473e-05 -0.000400838)
(0.167925 -8.0766e-05 -0.000290539)
(0.161726 0.000946559 -0.000236349)
(0.168955 3.15484e-05 -5.94153e-05)
(0.129714 0.000632716 0.00180739)
(0.0452126 0.000932612 -0.00112411)
(0.169556 0.000561694 0.000758796)
(0.12402 -0.000272868 0.000893932)
(0.0870639 0.000533238 -0.00159678)
(0.0952425 -0.000945362 0.00135471)
(0.160485 -5.78961e-05 0.000117981)
(0.115282 -0.00125484 -0.000591454)
(0.0642281 8.28777e-05 0.00171578)
(0.153413 0.00059128 0.00115021)
(0.0323118 0.00114902 0.000490679)
(0.0865766 3.88671e-05 0.000741649)
(0.0956002 -0.000293143 0.0002472)
(0.0596818 0.000311847 0.00102169)
(0.158639 -6.71218e-05 0.000163199)
(0.105995 -0.0126007 0.0134393)
(0.12717 0.00792409 0.00524915)
(0.0317259 0.000578878 -0.00271976)
(0.02562 -0.00165509 0.00084384)
(0.0547265 0.00203156 -0.00105065)
(0.0198437 -0.00128299 -0.00158173)
(0.125657 0.00059521 -0.000550721)
(0.152186 0.000945017 -0.000682502)
(0.128781 0.00165505 0.00017279)
(0.110249 0.0100511 -0.0115442)
(0.133074 1.10964e-05 0.000361524)
(0.145623 0.0006423 -0.000433908)
(0.0243991 -0.00198165 0.00467373)
(0.15499 0.000787458 -5.34665e-06)
(0.127557 -0.00405164 0.0125627)
(0.0429359 0.000771597 -0.00110309)
(0.0214761 -0.00357805 0.000728385)
(0.114793 0.000288078 0.000715169)
(0.108709 -0.00118717 -0.000711042)
(0.0250215 -0.00171401 0.00282673)
(0.160781 -0.000537021 -0.0006086)