/*--------------------------------*- C++ -*----------------------------------*\
| =========                 |                                                 |
| \\      /  F ield         | OpenFOAM: The Open Source CFD Toolbox           |
|  \\    /   O peration     | Version:  2406                                  |
|   \\  /    A nd           | Website:  www.openfoam.com                      |
|    \\/     M anipulation  |                                                 |
\*---------------------------------------------------------------------------*/
FoamFile
{
    version     2.0;
    format      ascii;
    arch        "LSB;label=32;scalar=64";
    class       volScalarField;
    location    "18";
    object      epsilon;
}
// * * * * * * * * * * * * * * * * * * * * * * * * * * * * * * * * * * * * * //

dimensions      [0 2 -3 0 0 0 0];

internalField   nonuniform List<scalar> 
59516
(
0.0286297
0.0274848
0.0224077
0.0194749
0.00959334
0.347153
0.0195593
0.0261845
0.0247138
0.0574314
0.00935488
0.0523359
0.0228252
0.17327
0.0475421
0.0565947
0.0109714
0.0534254
0.0253652
0.0117993
0.0613951
0.0152742
0.0137578
0.079192
0.0135496
0.0423556
0.0779023
0.0709533
0.0449776
0.131535
0.0477744
0.0656912
0.0182493
0.0234454
0.0168197
0.0154291
0.127812
0.0590247
0.0325114
0.0132571
0.0264295
0.013227
0.0145381
0.0292804
0.0159478
0.0576702
0.0184615
0.0107676
0.0132521
0.0130171
0.0274017
0.064299
0.0213759
0.0202275
0.0550567
0.0200278
0.0121516
0.0682743
0.0107965
0.0183791
0.0148302
0.105556
0.0114768
0.0113689
0.0207087
0.0149369
0.136076
0.0656243
0.0213804
0.0183884
0.0636093
0.012231
0.101985
0.0159565
0.00989804
0.0124861
0.0109667
0.0150479
0.0589527
0.0131169
0.0757955
0.0147142
0.0170274
0.113111
0.0149083
0.0104199
0.0774966
0.0144003
0.0534651
0.0356392
0.011089
0.0165701
0.0107411
0.0175517
0.0125161
0.0111097
0.0169088
0.0579153
0.0536955
0.0148913
0.0632489
0.100025
0.0971946
0.052539
0.0184883
0.0149546
0.0772992
0.027065
0.0278062
0.0430395
0.0223299
0.0595098
0.0455733
0.0333964
0.0129384
0.0307577
0.0485948
0.0185171
0.0940374
0.0152505
0.00917147
0.0116733
0.013352
0.0117388
0.018108
0.0352154
0.0897551
0.0173461
0.0858074
0.00996292
0.00941423
0.0242755
0.0945838
0.0146798
0.0270174
0.0224298
0.0428582
0.0180616
0.068118
0.0305197
0.0628226
0.00954594
0.125973
0.0204888
0.0102346
0.0156334
0.0166307
0.0243991
0.259013
0.024508
0.0287274
0.0724652
0.0118011
0.0138395
0.0333782
0.141873
0.0222623
0.0223995
0.0375917
0.119382
0.0431624
0.0411608
0.0799526
0.146661
0.0287616
0.0110504
0.0458861
0.0100172
0.107965
0.0171614
0.0364195
0.0607067
0.0403908
0.0173413
0.058624
0.0181287
0.0115509
0.0138713
0.0408099
0.0764721
0.0152644
0.0907646
0.122693
0.0494818
0.00996418
0.0527327
0.0788285
0.120047
0.021324
0.0298671
0.0178408
0.0565875
0.012019
0.0507196
0.013593
0.087714
0.0557303
0.0725927
0.025226
0.0139311
0.0386908
0.00929042
0.0268596
0.120822
0.0199493
0.0159594
0.00967276
0.0138287
0.121339
0.0235587
0.0635616
0.102557
0.0159516
0.0545174
0.023204
0.0113439
0.0160399
0.0135216
0.0558058
0.0135262
0.0553691
0.02597
0.0118877
0.0673866
0.0112651
0.011047
0.0660911
0.0597129
0.0112321
0.0527009
0.0109477
0.0109922
0.00939564
0.0796354
0.0808726
0.074929
0.0510016
0.0272797
0.0132559
0.0590514
0.00930329
0.112546
0.0542633
0.104395
0.00977552
0.0327054
0.0150672
0.0408769
0.0112714
0.0266245
0.0120818
0.0163154
0.00913656
0.0151952
0.015182
0.0130378
0.0584746
0.0139817
0.0607997
0.0477941
0.0192851
0.0126354
0.0241044
0.01054
0.030447
0.0543963
0.0126846
0.0326741
0.0532743
0.0601755
0.0315828
0.0109704
0.0274533
0.0322437
0.0119808
0.0317748
0.09409
0.0125495
0.0757268
0.0657379
0.00964815
0.0166485
0.0864069
0.0220233
0.0205882
0.0111161
0.0098164
0.096058
0.00978663
0.0092416
0.0106809
0.0183639
0.0174547
0.0300043
0.0112291
0.0591071
0.0124737
0.0160384
0.00919747
0.0111703
0.0220611
0.0499299
0.0981975
0.0589542
0.0125209
0.118964
0.0399658
0.0588784
0.0113941
0.0108425
0.0136539
0.0498892
0.0265399
0.0688633
0.0614705
0.0128188
0.0296651
0.0120586
0.0332646
0.0685713
0.0451925
0.0267744
0.0104315
0.00937076
0.00924372
0.0129231
0.0337956
0.0192563
0.0115583
0.0129395
0.0124947
0.0495791
0.0954759
0.0145749
0.0586494
0.0786455
0.0123442
0.016063
0.0524499
0.0107886
0.0118322
0.00957594
0.0106324
0.0749725
0.0131676
0.010219
0.0553842
0.00953938
0.0104702
0.0189302
0.0197728
0.0140174
0.0158432
0.0471617
0.0922016
0.0678847
0.0295754
0.0602332
0.103647
0.0402381
0.0244761
0.0177861
0.00951864
0.0134092
0.0182719
0.0145056
0.0146645
0.0766794
0.0375355
0.0546944
0.0660427
0.0703766
0.0128203
0.0300235
0.0127725
0.105371
0.0195754
0.0679242
0.0119753
0.0649713
0.0458803
0.0249551
0.00929616
0.116429
0.0517799
0.0178746
0.0904744
0.0201889
0.0239226
0.0179019
0.032182
0.0328629
0.0124476
0.0768075
0.00947515
0.034117
0.043574
0.0457385
0.00994985
0.0101257
0.05851
0.018438
0.0309448
0.0097144
0.00988231
0.0550572
0.0194559
0.0153998
0.0149802
0.0134088
0.098299
0.0980083
0.0194407
0.0104469
0.00953697
0.0749616
0.0114199
0.024334
0.0101979
0.0102273
0.00961468
0.0105707
0.0108147
0.0327678
0.0098294
0.0455862
0.0117488
0.0262598
0.0137737
0.0104989
0.0154048
0.0156197
0.0641264
0.0791813
0.101076
0.0113083
0.009147
0.016514
0.0202335
0.0797207
0.102951
0.0237115
0.0141166
0.0102265
0.0135015
0.0170757
0.00911481
0.0170813
0.074663
0.0207785
0.0539453
0.122461
0.0136791
0.0303712
0.0156106
0.108451
0.00993628
0.00984448
0.010037
0.0335232
0.014038
0.010784
0.0204536
0.00956734
0.0330701
0.0110212
0.0147945
0.101447
0.0100053
0.022479
0.0574804
0.0318638
0.0115047
0.0193673
0.0390634
0.104395
0.0105222
0.0192449
0.012807
0.0197067
0.0714582
0.0162809
0.100206
0.0123474
0.0170984
0.0114891
0.0524343
0.0264491
0.0303697
0.0704698
0.00916435
0.0106043
0.117955
0.0121497
0.00933262
0.070532
0.0448867
0.0494067
0.0136815
0.00983623
0.128268
0.0581685
0.0537298
0.0241161
0.00962772
0.0894818
0.0131255
0.013985
0.00996945
0.114641
0.0114789
0.0841011
0.012014
0.0998924
0.0475495
0.0143163
0.048873
0.106765
0.0731251
0.0523842
0.0533495
0.015225
0.0603612
0.0456436
0.01431
0.0111401
0.0684678
0.0248863
0.0768962
0.0109013
0.0564846
0.0117993
0.0568087
0.0202023
0.0102486
0.0553489
0.0108227
0.0737398
0.128131
0.0149999
0.00975071
0.0192769
0.0205274
0.00996245
0.0493538
0.0116367
0.0486803
0.0106345
0.0201767
0.0739335
0.0137632
0.0544384
0.0739517
0.0152268
0.0662713
0.017304
0.00978567
0.0180799
0.0522255
0.0101272
0.0355175
0.00922368
0.00993417
0.00968653
0.00987155
0.0650672
0.0570406
0.0101563
0.0126483
0.087564
0.0127209
0.00989838
0.0104206
0.0097396
0.0231505
0.107993
0.0104949
0.0280387
0.0140623
0.0287528
0.0684313
0.00960041
0.0337575
0.0175075
0.00941702
0.0163043
0.126721
0.102147
0.0102807
0.0116048
0.00924058
0.0143937
0.0339465
0.0154272
0.0104675
0.0892903
0.0098759
0.0175199
0.0734096
0.045954
0.0158459
0.0165534
0.0177225
0.0215978
0.0283271
0.00935213
0.0323795
0.0105399
0.0111838
0.00932378
0.0104501
0.0656229
0.0121968
0.0862921
0.098188
0.0481173
0.0121157
0.0176237
0.0326342
0.0110734
0.0106578
0.0136066
0.0109701
0.0766674
0.0104961
0.0150584
0.0101441
0.0248939
0.0165789
0.0102964
0.0236462
0.0685594
0.05705
0.0662219
0.112786
0.0730331
0.0184427
0.0166241
0.124486
0.105948
0.00907157
0.0705414
0.0743591
0.0158325
0.0258055
0.0182831
0.0746652
0.0548362
0.0243828
0.011116
0.014426
0.0836575
0.084963
0.0601988
0.0852384
0.0173978
0.0823337
0.0285047
0.0101011
0.0105032
0.0644461
0.0278699
0.0784881
0.0935143
0.0103567
0.119409
0.0117629
0.0566077
0.0135912
0.0163206
0.107672
0.0527928
0.0151637
0.0726366
0.012424
0.0587087
0.0267242
0.00966674
0.0746719
0.0988217
0.0564301
0.0196145
0.028296
0.0594579
0.0376163
0.0923012
0.00955801
0.0772823
0.0115961
0.0159181
0.0115777
0.125587
0.0146517
0.03419
0.0131091
0.0630279
0.014507
0.0131008
0.0711527
0.00912536
0.0301814
0.0213625
0.0832331
0.0522981
0.00985746
0.0190825
0.0799856
0.0232976
0.0485391
0.0878303
0.010247
0.0123399
0.0186674
0.0110883
0.0105305
0.01138
0.0181147
0.0591951
0.0645316
0.00996042
0.0129332
0.0235668
0.0193141
0.041156
0.0151493
0.0124118
0.0290304
0.0276989
0.075524
0.0354355
0.0816037
0.0140796
0.0107256
0.033602
0.0282695
0.11147
0.0402012
0.0574133
0.0105948
0.0103787
0.0130275
0.0125967
0.0401886
0.0161545
0.0176365
0.113577
0.0103405
0.0632343
0.0171673
0.0913693
0.0109033
0.0107318
0.013528
0.0236636
0.0155077
0.0151783
0.00950084
0.069443
0.0518997
0.0953009
0.0105
0.0135114
0.0181319
0.013054
0.147073
0.0290164
0.0344206
0.0105982
0.0197915
0.0156934
0.0277979
0.00973998
0.10393
0.0373234
0.0141805
0.0730034
0.0617149
0.0459225
0.106735
0.0329439
0.0114802
0.0466199
0.120246
0.0266482
0.063082
0.0273308
0.010689
0.00912343
0.0110078
0.0124706
0.0105135
0.0184898
0.0806689
0.0106143
0.0196226
0.03606
0.0281226
0.0121448
0.0228615
0.0440843
0.0136816
0.0722099
0.0338295
0.0317616
0.0465235
0.0135746
0.0443877
0.0218029
0.0805904
0.0946327
0.0504705
0.108093
0.0199986
0.0139817
0.0199702
0.0363757
0.0181224
0.0151134
0.103225
0.013388
0.0115062
0.0638603
0.105629
0.023884
0.0247983
0.0826102
0.0126328
0.103197
0.010511
0.0135566
0.0209824
0.0138749
0.0133651
0.0272946
0.00980713
0.14589
0.0797375
0.0290235
0.0298693
0.121707
0.0163255
0.0148779
0.0103463
0.0116744
0.0411641
0.0138725
0.0091276
0.0339421
0.0577599
0.0115088
0.0292793
0.0706856
0.012566
0.0105389
0.0137417
0.0310897
0.0188488
0.0258437
0.035924
0.0286321
0.0298064
0.0181235
0.049944
0.013002
0.0103293
0.00942682
0.0159341
0.0252339
0.020514
0.0742985
0.0507371
0.0202896
0.0165086
0.0178526
0.00936974
0.0145286
0.00926098
0.00949862
0.238042
0.0234661
0.0101901
0.0998398
0.0163248
0.0145591
0.0938994
0.0136369
0.0102819
0.0278135
0.0103844
0.00940304
0.0106622
0.0482189
0.0107731
0.0632095
0.0237426
0.0109368
0.0858814
0.057272
0.051793
0.0213605
0.0658869
0.0144675
0.0109539
0.0111304
0.0133368
0.0356103
0.050396
0.013478
0.0122678
0.0227182
0.0365966
0.0138503
0.00989519
0.00975733
0.078254
0.00990149
0.0312036
0.0390821
0.0784425
0.0529591
0.0343791
0.0105744
0.0606239
0.0116514
0.0113503
0.0117976
0.00983583
0.0114439
0.00999681
0.0106956
0.00955734
0.00980983
0.0176785
0.0217706
0.073726
0.0608986
0.0127424
0.0199792
0.0792228
0.0117798
0.0272502
0.0092032
0.00915166
0.00975158
0.0156415
0.0341007
0.0100592
0.128211
0.0305113
0.00983009
0.0745884
0.0101858
0.0724302
0.0362659
0.0124552
0.0408151
0.070058
0.0120361
0.0136353
0.0146987
0.0728751
0.0107454
0.0738123
0.0325862
0.0454251
0.050864
0.028985
0.00928906
0.0481018
0.013934
0.0118543
0.0251489
0.00950703
0.00924879
0.0234723
0.00923015
0.0108546
0.042227
0.00939746
0.0532962
0.0769296
0.0114524
0.0128071
0.059319
0.0101813
0.0261453
0.0373606
0.0108334
0.120841
0.0114933
0.0104835
0.0243525
0.0869811
0.0584613
0.0302981
0.0566845
0.0177706
0.0188557
0.0276686
0.113162
0.0238683
0.011488
0.0130589
0.00936033
0.0101421
0.0388928
0.0130429
0.00991181
0.0243273
0.0160065
0.0772615
0.0232292
0.013575
0.0092746
0.0453172
0.0129424
0.0318024
0.0246664
0.0971224
0.0229896
0.0361433
0.069983
0.0219319
0.0646938
0.0128223
0.0258543
0.00997923
0.0780995
0.00916458
0.0323008
0.0571668
0.0293453
0.0168386
0.0943693
0.0124399
0.014393
0.0576649
0.133483
0.059906
0.00913781
0.0148557
0.0106084
0.028123
0.0612709
0.0151792
0.0911696
0.026952
0.00996535
0.0151022
0.0567953
0.0155234
0.0975788
0.0357343
0.013965
0.00951527
0.0780534
0.0138791
0.0202843
0.0578003
0.0119452
0.013097
0.00933756
0.0158267
0.030234
0.0578222
0.0117501
0.0151233
0.0973231
0.0676617
0.0539088
0.0110207
0.0312729
0.0123417
0.0605428
0.0108934
0.0750467
0.0179751
0.024057
0.011885
0.00984597
0.0165572
0.0172102
0.0907043
0.082252
0.0153769
0.0179997
0.0966986
0.0793522
0.0118816
0.0143194
0.0124346
0.0278074
0.0172668
0.0116388
0.0111853
0.0494725
0.0364949
0.045991
0.0150761
0.0356814
0.0797735
0.0771451
0.0104643
0.0253462
0.0314213
0.0123788
0.0123982
0.0908513
0.011534
0.0103577
0.0666368
0.0974422
0.0108936
0.00969409
0.0989073
0.128427
0.0101299
0.0282622
0.105498
0.0440565
0.0100694
0.0109897
0.0105472
0.0158744
0.0120357
0.0923551
0.076791
0.0100237
0.0110666
0.0295799
0.0138492
0.0594939
0.0552071
0.0599687
0.0138815
0.120885
0.0143134
0.0162802
0.0313027
0.0539499
0.103422
0.00951585
0.00972451
0.0224885
0.0100316
0.0271951
0.0137726
0.0642773
0.0537206
0.218015
0.0256657
0.0160926
0.0277419
0.0565806
0.0337456
0.0228237
0.0159121
0.0298411
0.0140667
0.0111453
0.0266522
0.0554933
0.0890374
0.012291
0.0903202
0.0226258
0.0204317
0.0351672
0.0969463
0.014949
0.048502
0.124996
0.101742
0.0182141
0.0100354
0.0193925
0.0189571
0.0367892
0.0253205
0.0863164
0.0722613
0.0672537
0.0095822
0.0280762
0.0157469
0.0263343
0.027001
0.0190737
0.100585
0.0219464
0.10025
0.0123514
0.0252815
0.0933656
0.00962811
0.0325234
0.0188025
0.0349191
0.0554503
0.101796
0.0139266
0.0640071
0.0097831
0.00927277
0.0206368
0.0445879
0.091372
0.0123439
0.0695653
0.0120108
0.0120973
0.0107434
0.0603823
0.0126039
0.01234
0.0133171
0.0124624
0.105162
0.0628975
0.0113261
0.0253637
0.048091
0.00938964
0.0207472
0.0196065
0.0293566
0.0770362
0.15118
0.0624843
0.0131099
0.0112456
0.0212228
0.0917302
0.071249
0.0149865
0.0228041
0.0445559
0.00936911
0.0127305
0.0119785
0.0109699
0.00962184
0.0124689
0.0157447
0.0242814
0.0226337
0.024667
0.0407097
0.0476668
0.009337
0.0190638
0.0794281
0.0541161
0.0109198
0.0660986
0.0156003
0.0298099
0.0117091
0.0151551
0.0239417
0.0101982
0.0110978
0.0121097
0.0561308
0.0659885
0.0106007
0.00928137
0.101579
0.0363052
0.0205263
0.0105428
0.0169545
0.127264
0.0281755
0.0172747
0.0369922
0.0105325
0.0226738
0.108015
0.0204286
0.0947812
0.0317478
0.121296
0.0132627
0.014774
0.0104344
0.106943
0.0550405
0.0348718
0.0140914
0.0613656
0.0587408
0.0322273
0.0100175
0.075667
0.00928571
0.0144057
0.0469431
0.0481616
0.0660084
0.0121363
0.00982867
0.0160996
0.021311
0.0300204
0.0271969
0.030469
0.0898362
0.0847297
0.0710721
0.0329761
0.00927945
0.0769561
0.129286
0.0589384
0.0954644
0.0134979
0.0925695
0.011204
0.00933759
0.0158274
0.046405
0.0104365
0.0756457
0.0499539
0.0096434
0.011873
0.0218518
0.00997414
0.0117266
0.100716
0.0191836
0.0138898
0.010251
0.0324681
0.0135387
0.0100758
0.0269869
0.0706606
0.0893396
0.027168
0.0096273
0.0829334
0.0374068
0.0119525
0.0711497
0.07909
0.0294905
0.0625166
0.0444486
0.107228
0.0597469
0.0786832
0.108802
0.072394
0.1103
0.0266474
0.0381464
0.00989162
0.114479
0.0105278
0.019935
0.0150017
0.0227865
0.0138071
0.07781
0.0126194
0.0108803
0.0311978
0.0092671
0.0191718
0.135174
0.0223629
0.0356355
0.0800111
0.0821532
0.0170356
0.0326777
0.0913671
0.0152973
0.0168966
0.00974476
0.0121434
0.0642661
0.0234482
0.0362744
0.014443
0.0170304
0.0162512
0.0111165
0.032586
0.0137836
0.0186307
0.0130325
0.027234
0.02608
0.0214495
0.0341821
0.00971978
0.0183837
0.0638956
0.016806
0.067623
0.134553
0.0549527
0.0163622
0.0172491
0.00956724
0.0138175
0.0236106
0.0394231
0.024505
0.116269
0.0968668
0.0767142
0.0536896
0.0607268
0.0125403
0.0627066
0.0227825
0.089152
0.084792
0.00927166
0.0550557
0.0127639
0.019089
0.0112911
0.0731686
0.062902
0.0206949
0.015019
0.110565
0.0170812
0.0528935
0.0263913
0.0102011
0.0139415
0.0101631
0.029152
0.0301129
0.0353149
0.0464589
0.0740839
0.0627439
0.0894939
0.0260012
0.0109789
0.0406665
0.0516632
0.0289524
0.014702
0.0140879
0.0541925
0.01854
0.0908962
0.0473815
0.0147832
0.0608902
0.0370504
0.0317657
0.0221296
0.0264708
0.0149328
0.0319919
0.0281131
0.0118649
0.0254008
0.0120491
0.102047
0.100388
0.0203721
0.0275077
0.014542
0.0258832
0.0302146
0.11072
0.018255
0.0192182
0.0156599
0.0322587
0.0719259
0.0543494
0.0649977
0.0215096
0.0478807
0.0266316
0.101294
0.0232538
0.0660759
0.0379536
0.010522
0.0549549
0.0145605
0.0131469
0.0712576
0.0910908
0.0227117
0.114412
0.0137547
0.0119092
0.0350469
0.0156558
0.030183
0.0221764
0.0832506
0.026025
0.021177
0.00925769
0.12687
0.0127077
0.0202284
0.0378399
0.0176298
0.076562
0.0119634
0.0847364
0.0142647
0.0206748
0.016098
0.0185861
0.0672516
0.100069
0.010072
0.0102924
0.0681358
0.0268969
0.0806253
0.0197045
0.0519783
0.111532
0.0306851
0.0150986
0.033889
0.0101641
0.0236486
0.0164791
0.0827597
0.00979194
0.0816099
0.0396922
0.0104796
0.00992638
0.0202316
0.102477
0.0621048
0.00914288
0.00926901
0.0158199
0.0151581
0.0142855
0.137771
0.0176947
0.0164575
0.0185883
0.0589178
0.0193827
0.0106086
0.0189481
0.011301
0.00926367
0.0526439
0.0136216
0.0648509
0.0135659
0.0323263
0.0189893
0.014101
0.0115555
0.0104547
0.0750889
0.00914069
0.0543031
0.0891804
0.0204166
0.0589675
0.0138714
0.110341
0.0581958
0.0603481
0.0376917
0.020654
0.0786338
0.0828932
0.0164709
0.0312847
0.0105625
0.0283095
0.0985433
0.0348651
0.0688861
0.0255827
0.0141725
0.0565218
0.0143563
0.01053
0.0130647
0.0122302
0.0104071
0.0133332
0.0104524
0.0154234
0.0578929
0.118975
0.0163072
0.116247
0.0215519
0.0213978
0.0364162
0.0095244
0.0204364
0.0702232
0.00930102
0.0628352
0.0302867
0.0488985
0.0187204
0.00943363
0.0388098
0.0278256
0.0673608
0.0208692
0.0219799
0.0343032
0.016753
0.12676
0.088905
0.0103425
0.0202271
0.01116
0.0281559
0.149168
0.00914676
0.0473813
0.00919132
0.0128459
0.0767771
0.0142548
0.0120144
0.0794132
0.055549
0.00924533
0.0294838
0.0986685
0.0143392
0.0538384
0.0965008
0.0312661
0.0103464
0.00954894
0.0157404
0.0112438
0.0151721
0.010407
0.0243462
0.0276743
0.0106387
0.0152537
0.121726
0.0730342
0.0213914
0.0116465
0.0227115
0.100209
0.091519
0.015784
0.0662331
0.0146175
0.0118267
0.00967094
0.0656404
0.038728
0.0106361
0.0241038
0.0144234
0.0173081
0.0511386
0.0827672
0.0108725
0.0905427
0.0450093
0.079556
0.06395
0.0118878
0.00951776
0.0154621
0.0264859
0.0319105
0.0330393
0.0115954
0.0138005
0.0579433
0.0096021
0.0124371
0.0124572
0.0919986
0.0208641
0.0973664
0.0324745
0.0634417
0.0133876
0.0166023
0.0118495
0.085665
0.0357486
0.0495214
0.122914
0.0144797
0.0955206
0.054539
0.0111325
0.0121811
0.00943388
0.0707395
0.0256002
0.0586873
0.00978535
0.0129371
0.0115919
0.010752
0.067097
0.0162605
0.0228623
0.00948725
0.011845
0.0115333
0.0124484
0.00944198
0.109118
0.0653687
0.0232283
0.00930766
0.0157602
0.0680482
0.0105229
0.0509948
0.02111
0.016366
0.0357568
0.0440861
0.0516639
0.122485
0.0134322
0.0162581
0.0542638
0.0221463
0.114962
0.0139345
0.00983213
0.104621
0.0215712
0.019451
0.012226
0.0970973
0.11767
0.0858191
0.0460201
0.049179
0.095796
0.0821752
0.124572
0.0359747
0.0120352
0.0171832
0.0129191
0.020467
0.103693
0.0130405
0.02343
0.123182
0.124687
0.0796007
0.034319
0.0659107
0.0134064
0.0172079
0.00940706
0.0150266
0.0654814
0.0349446
0.0137773
0.00988377
0.015586
0.0127543
0.0110891
0.0587805
0.026475
0.014418
0.0122653
0.141296
0.0212292
0.0264438
0.0204066
0.0231956
0.0103862
0.0531418
0.0765631
0.109673
0.0294537
0.0091709
0.00933978
0.0132048
0.0490689
0.025874
0.0593367
0.0300243
0.0119465
0.0649058
0.0517827
0.0107415
0.0154549
0.0134866
0.0124781
0.034348
0.0457071
0.0155674
0.0284244
0.0213019
0.016104
0.0191008
0.0107433
0.0364772
0.0167546
0.114321
0.0825184
0.123971
0.0311567
0.0227376
0.029205
0.0618013
0.0144771
0.0638046
0.0520707
0.107637
0.0228112
0.0100431
0.0114139
0.108008
0.052977
0.0640302
0.0940464
0.0549631
0.0102976
0.00946222
0.0848445
0.0721522
0.0537757
0.00988368
0.00956313
0.0160827
0.0311727
0.0136824
0.0162357
0.030346
0.073274
0.00923726
0.0165918
0.0168414
0.0211921
0.0160237
0.0113001
0.0418914
0.0214207
0.0449051
0.0117156
0.0120025
0.0108097
0.123509
0.0109477
0.096561
0.013291
0.0141756
0.0117781
0.0125012
0.0568512
0.0991467
0.0582364
0.00985589
0.0102224
0.0201727
0.0116539
0.0883914
0.0321208
0.0126401
0.0107083
0.0250043
0.0697559
0.0201036
0.024926
0.0112115
0.0110235
0.0118128
0.0103412
0.0144622
0.0155084
0.0340464
0.0112298
0.0109197
0.0156768
0.0341667
0.0764271
0.104718
0.0406789
0.0264906
0.0103927
0.0103881
0.0874877
0.0250455
0.0174811
0.0173783
0.0311585
0.0123715
0.0167209
0.0187127
0.00943156
0.0283217
0.018404
0.0597175
0.02496
0.0166932
0.0996226
0.0211188
0.0142358
0.0176736
0.0132112
0.0102426
0.0970184
0.0118343
0.0364529
0.0108732
0.0395541
0.0112835
0.0198568
0.0326147
0.0214855
0.102359
0.0203921
0.0633516
0.0716252
0.0160539
0.0887475
0.0106641
0.0127489
0.0105271
0.0609531
0.0286166
0.101124
0.0182715
0.07425
0.0309564
0.0137682
0.0124105
0.0106203
0.0150261
0.0137846
0.0100466
0.0140107
0.0133034
0.0139818
0.0651112
0.0291213
0.0092592
0.0096242
0.0518991
0.0156378
0.0121128
0.0111074
0.0970602
0.0180128
0.10447
0.00975722
0.088903
0.071514
0.0226957
0.0185922
0.0172358
0.0232532
0.079336
0.0120558
0.0819333
0.0780509
0.0144811
0.0564551
0.0350677
0.0194167
0.0131941
0.107075
0.0503718
0.0777224
0.0108848
0.0122684
0.0472062
0.0138334
0.0324357
0.0491821
0.010148
0.0721035
0.0174386
0.013899
0.0108222
0.0127555
0.0105732
0.0103673
0.0219556
0.00913501
0.0145024
0.0106389
0.0274128
0.0300531
0.00984784
0.0394473
0.0136787
0.0153983
0.0136404
0.0157591
0.00977804
0.016789
0.0717578
0.0129793
0.0095887
0.0503697
0.0221178
0.00946606
0.132988
0.0132629
0.0111744
0.0312847
0.0197187
0.05713
0.0243989
0.0108171
0.0143665
0.0313616
0.0505799
0.0513372
0.0201132
0.0673678
0.0694617
0.0855867
0.0170279
0.0110939
0.00954941
0.0182455
0.0153359
0.0169834
0.0491899
0.0250943
0.0101759
0.00972221
0.00914652
0.00917701
0.0896978
0.132774
0.11262
0.043584
0.0137497
0.0103685
0.00979729
0.0336916
0.0144089
0.0118671
0.10451
0.00923642
0.0122693
0.0104974
0.00997901
0.042626
0.0582498
0.0224996
0.0603801
0.0126801
0.0159959
0.0292179
0.0145269
0.0309629
0.0472028
0.0285564
0.00956261
0.0350133
0.0191284
0.0108081
0.0244703
0.067737
0.0111699
0.00956567
0.0555431
0.0709374
0.0327624
0.0623509
0.0103768
0.0229216
0.0588035
0.00960042
0.00959478
0.0114779
0.0203391
0.0120693
0.0138762
0.0126703
0.0158801
0.0352622
0.0154643
0.043475
0.0375631
0.0568342
0.0102852
0.0231844
0.01215
0.0170414
0.0319708
0.0279621
0.104396
0.0278043
0.104445
0.0321917
0.0159773
0.0139131
0.0110513
0.0138219
0.0793579
0.060339
0.0116497
0.0369902
0.0467205
0.0196304
0.0635348
0.0107496
0.0159354
0.0128874
0.023308
0.0117051
0.0218917
0.0134204
0.073225
0.0109681
0.0764039
0.0794956
0.0465915
0.0182386
0.0226525
0.00933103
0.0778316
0.00960999
0.0141109
0.0288166
0.0374825
0.0338178
0.0691887
0.0512782
0.0687158
0.0469543
0.0096011
0.0571499
0.0143513
0.0500991
0.116242
0.0304946
0.0643874
0.13298
0.106508
0.0165359
0.0234238
0.0110118
0.0480118
0.00930222
0.0791696
0.0242996
0.0487416
0.0137924
0.012635
0.106182
0.0187567
0.012909
0.0134961
0.0177743
0.0194598
0.011278
0.0134062
0.0118532
0.016673
0.0740791
0.0336807
0.0588932
0.0138936
0.0891441
0.0335941
0.0148159
0.0410208
0.0250119
0.1111
0.0245522
0.0280478
0.0103138
0.0206487
0.011966
0.016534
0.0115899
0.0179473
0.0094109
0.0551321
0.0543993
0.013889
0.0123131
0.0176902
0.0146794
0.0124011
0.0146569
0.0147853
0.0777233
0.014175
0.00948905
0.0862012
0.020107
0.0791624
0.0193452
0.0450021
0.0656719
0.0133871
0.0678646
0.0811542
0.10412
0.0848964
0.0728186
0.0110964
0.020329
0.00995871
0.0183909
0.050578
0.0124444
0.00960171
0.0120563
0.103064
0.0157993
0.0243414
0.0233564
0.0136976
0.0873973
0.0796958
0.0157189
0.0733123
0.0100833
0.0633263
0.0214429
0.0432838
0.00912198
0.00919456
0.0130711
0.0675649
0.10256
0.0732408
0.0133651
0.0497012
0.129561
0.0239361
0.0316832
0.0850496
0.02985
0.0561166
0.0196781
0.0150933
0.0102327
0.013699
0.143188
0.0258588
0.0993458
0.00975127
0.014052
0.0212554
0.012766
0.0318091
0.0251847
0.10209
0.0157757
0.0283391
0.00956099
0.00992025
0.0537265
0.124369
0.0112862
0.0126896
0.0105508
0.0461953
0.0169479
0.100347
0.0715075
0.0635161
0.0112298
0.0849561
0.0247261
0.117639
0.0591005
0.0160548
0.0570491
0.0756923
0.078242
0.015474
0.0138933
0.0102741
0.055134
0.0191172
0.0117936
0.0221192
0.0216269
0.0147196
0.0105916
0.0106273
0.105764
0.0143003
0.0221731
0.0443156
0.0648544
0.0103067
0.0110188
0.0299679
0.0152617
0.122941
0.0239216
0.0196469
0.108584
0.0131501
0.0122781
0.0153716
0.0532766
0.0106253
0.0592645
0.00951869
0.0522519
0.106902
0.0105115
0.0122241
0.0475667
0.0157779
0.0118345
0.0114742
0.0104534
0.0527228
0.0807293
0.0113478
0.015244
0.0160359
0.0130811
0.0570627
0.0176551
0.0535035
0.0461981
0.0132247
0.00925606
0.0287636
0.0145681
0.0221859
0.072803
0.0753642
0.0104132
0.0131488
0.0589689
0.0829504
0.0354371
0.0152868
0.01596
0.105506
0.0321322
0.0130608
0.0112746
0.0127766
0.0152574
0.0247829
0.0094348
0.0146543
0.0119253
0.0342266
0.0844289
0.103777
0.021371
0.026048
0.0151048
0.0135386
0.0111077
0.0123835
0.0103293
0.0125047
0.0136947
0.0111673
0.0292317
0.0130293
0.0127863
0.0314444
0.0126673
0.0295625
0.0842437
0.0214945
0.0179869
0.0184004
0.0201981
0.0184426
0.0331101
0.0594584
0.0156343
0.0132052
0.0156637
0.0219894
0.0885458
0.0125711
0.027376
0.093536
0.0162184
0.0783279
0.0217381
0.0145075
0.0164285
0.0180081
0.0241568
0.071175
0.0939628
0.0864101
0.00975227
0.0605957
0.0134594
0.0122722
0.0650041
0.00910139
0.0302361
0.00995107
0.0221965
0.0223832
0.0398525
0.00912636
0.0110243
0.12978
0.0123773
0.0705855
0.125672
0.0170948
0.0455083
0.0117076
0.0122678
0.0103425
0.0279668
0.0355049
0.0157868
0.0126324
0.0157664
0.0552039
0.091203
0.0224044
0.0135392
0.0240047
0.00986537
0.0351211
0.0305207
0.0129433
0.0121354
0.0123799
0.0323741
0.0253072
0.0343397
0.0187001
0.015744
0.0242643
0.0269215
0.0731078
0.0149002
0.0163826
0.0135519
0.0113832
0.0158278
0.0103259
0.0680436
0.0207273
0.0393749
0.0548158
0.0137846
0.0366631
0.00969507
0.0112623
0.0154723
0.100622
0.0281492
0.0149221
0.0110946
0.0494922
0.01234
0.0377158
0.0183898
0.0354362
0.0247691
0.0141191
0.012677
0.123541
0.0172758
0.0122487
0.0129303
0.0318775
0.0144382
0.0134284
0.135844
0.009152
0.06494
0.0155097
0.0111076
0.0122699
0.022454
0.0306844
0.0405041
0.0524497
0.0752864
0.0115059
0.0117102
0.1032
0.0659689
0.0156811
0.0167997
0.0549003
0.0266311
0.0163853
0.0173105
0.0159042
0.107909
0.0139248
0.0306973
0.0644693
0.012131
0.0533727
0.0346802
0.0940893
0.0645608
0.0351787
0.0553541
0.0209905
0.0519184
0.0241038
0.0728696
0.0959978
0.0208268
0.0866144
0.05054
0.0160515
0.0859498
0.0147624
0.0527782
0.0435323
0.05403
0.0105733
0.0840599
0.0788204
0.0185117
0.0141326
0.0196938
0.0592171
0.0180838
0.0336535
0.0211382
0.0469179
0.0287673
0.00925427
0.0296274
0.0106673
0.0170305
0.0181498
0.0117946
0.128084
0.020103
0.0225659
0.0139632
0.0908754
0.0219831
0.129802
0.0298256
0.0304099
0.0113651
0.0127915
0.0234874
0.0147961
0.0210462
0.00969774
0.0127667
0.0360577
0.00927358
0.0452421
0.0135057
0.0185553
0.0485934
0.0160156
0.0461417
0.0114809
0.0149415
0.0471259
0.0187142
0.0210497
0.110738
0.0127527
0.110271
0.0605539
0.0240943
0.0146542
0.0168885
0.0580655
0.01144
0.0130109
0.0270259
0.0499003
0.034204
0.0785952
0.0155335
0.0318549
0.0188192
0.0319407
0.00967345
0.0165229
0.0733057
0.0182341
0.00962968
0.0311715
0.129269
0.0455087
0.0157436
0.0531121
0.0325311
0.0504686
0.0160848
0.0335155
0.0601819
0.0593531
0.0104097
0.0978978
0.0139856
0.0887138
0.0117871
0.0284334
0.0141607
0.0740383
0.0159314
0.0106039
0.0121893
0.011029
0.0291373
0.110845
0.111921
0.0334382
0.128194
0.0137224
0.0726397
0.0107569
0.014826
0.0203532
0.0123429
0.09521
0.0513102
0.0534466
0.0150173
0.0806317
0.0148163
0.0289795
0.0168732
0.0477335
0.0712509
0.0841456
0.0137636
0.056163
0.0124573
0.0203045
0.0212049
0.0558542
0.0548708
0.0211053
0.028125
0.0619905
0.0105231
0.0131918
0.0357274
0.029304
0.0166491
0.0137357
0.0125274
0.0106735
0.0110182
0.0278896
0.0350813
0.011107
0.130651
0.082301
0.0193899
0.0143858
0.00957768
0.0865026
0.0619282
0.00941876
0.0293926
0.00926245
0.0701525
0.00965083
0.0107978
0.0137368
0.0515055
0.0345335
0.089405
0.0995342
0.0220291
0.110483
0.020253
0.0412161
0.0207105
0.018459
0.0123782
0.0933728
0.137833
0.0122032
0.0203703
0.078526
0.0128716
0.0127841
0.0765742
0.105816
0.114823
0.0678747
0.0390082
0.105375
0.0339431
0.00991183
0.0748778
0.0945604
0.0207918
0.0137651
0.0115156
0.0158135
0.0299832
0.132845
0.0108306
0.0726443
0.0117124
0.0651778
0.0272018
0.0206064
0.0263001
0.0239037
0.0825305
0.0113962
0.0130461
0.010275
0.100992
0.022205
0.0541196
0.0284492
0.0445586
0.0900962
0.0251582
0.0252006
0.0217903
0.0380934
0.0153217
0.0565399
0.0751023
0.0608266
0.0188522
0.0239695
0.0191865
0.0760977
0.0242576
0.0907435
0.135586
0.0166081
0.0110072
0.0579176
0.0697541
0.0308024
0.0116481
0.021866
0.0129739
0.0213551
0.0172006
0.0130961
0.016042
0.0100083
0.0531376
0.104551
0.0196618
0.00962486
0.0108213
0.0326055
0.121904
0.029713
0.0118366
0.0539748
0.0275867
0.0217637
0.0286615
0.0112506
0.0143536
0.00982377
0.0815236
0.0198993
0.012153
0.015561
0.0114597
0.0240695
0.0550589
0.0112186
0.0301489
0.107682
0.010448
0.0105708
0.0242235
0.0325683
0.0141735
0.0115226
0.0157145
0.00968227
0.0224381
0.0315156
0.0720903
0.0567189
0.0122006
0.0203343
0.00947932
0.0170715
0.0655359
0.0744121
0.0630893
0.0991934
0.0488324
0.0913643
0.0129107
0.0951526
0.0199819
0.0362206
0.0103921
0.0762422
0.0136217
0.0719664
0.0130588
0.124321
0.0618133
0.0588119
0.00919976
0.010736
0.0384063
0.032898
0.113705
0.0970144
0.0107109
0.0198903
0.0213013
0.0106274
0.0106236
0.0153301
0.0151114
0.0122019
0.0393186
0.0216205
0.0455433
0.0545986
0.104837
0.0101938
0.0471608
0.098883
0.0108806
0.0522493
0.0130353
0.0890593
0.015301
0.0112846
0.0237267
0.0288376
0.0127513
0.0183939
0.101657
0.0133359
0.0104145
0.0649267
0.0690339
0.0148656
0.0229355
0.114359
0.0431455
0.0126822
0.00997487
0.0229634
0.0133377
0.0219248
0.0243782
0.00941632
0.00932563
0.0316906
0.0168895
0.0272597
0.0322318
0.0142868
0.0217526
0.111642
0.00949272
0.021803
0.122494
0.0142715
0.0421405
0.0169117
0.120563
0.0150633
0.0267141
0.0204201
0.0157174
0.0164905
0.0617825
0.0144666
0.0253192
0.0225899
0.094289
0.0144976
0.0324786
0.0108025
0.0192981
0.062155
0.0772381
0.0181579
0.0737205
0.0443866
0.0244882
0.0792992
0.105642
0.0318958
0.0106285
0.017931
0.0111372
0.109139
0.0791531
0.103976
0.01176
0.0658719
0.0243427
0.00970062
0.0333304
0.0100598
0.0134867
0.0118592
0.0843502
0.0151561
0.0208326
0.115613
0.0269027
0.143432
0.014539
0.0182717
0.0848721
0.115658
0.0138637
0.117259
0.00974548