/*--------------------------------*- C++ -*----------------------------------*\
| =========                 |                                                 |
| \\      /  F ield         | OpenFOAM: The Open Source CFD Toolbox           |
|  \\    /   O peration     | Version:  2406                                  |
|   \\  /    A nd           | Website:  www.openfoam.com                      |
|    \\/     M anipulation  |                                                 |
\*---------------------------------------------------------------------------*/
FoamFile
{
    version     2.0;
    format      ascii;
    arch        "LSB;label=32;scalar=64";
    class       volScalarField;
    location    "18";
    object      k;
}
// * * * * * * * * * * * * * * * * * * * * * * * * * * * * * * * * * * * * * //

dimensions      [0 2 -2 0 0 0 0];

internalField   nonuniform List<scalar> 
59516
(
0.00403593
0.00484606
0.00440994
0.00564744
0.00864839
0.0174271
0.00498128
0.0041384
0.00421587
0.00660179
0.00815229
0.00532639
0.00406935
0.0122773
0.00562421
0.00564912
0.00751205
0.00572717
0.00426709
0.00670819
0.00726431
0.00577036
0.00612474
0.00785653
0.00625022
0.0053281
0.00769215
0.00791552
0.005677
0.0103391
0.00735294
0.00759846
0.00550897
0.00477789
0.00609363
0.00534771
0.00997395
0.00568796
0.00415827
0.00636639
0.00407988
0.00654707
0.00588202
0.00489278
0.00563586
0.00582832
0.0048055
0.00744215
0.00819806
0.00705911
0.00910952
0.00712724
0.00419144
0.0045173
0.00715373
0.00483815
0.00733176
0.00771751
0.00763624
0.00567804
0.00628867
0.0100344
0.00746211
0.00729627
0.00494229
0.00648372
0.0126128
0.00708354
0.00691017
0.0052919
0.00964141
0.00720614
0.0102664
0.0057965
0.00783448
0.00672596
0.00746304
0.00595099
0.00687482
0.00719322
0.00764221
0.00673679
0.00596343
0.0102679
0.00661404
0.00746565
0.00743326
0.00555313
0.00562514
0.0044006
0.00779989
0.00612613
0.0072797
0.00599932
0.0072302
0.00852252
0.00617269
0.00564371
0.0056854
0.0061217
0.0074643
0.0103133
0.0100937
0.00551523
0.00536617
0.00664344
0.00816258
0.00434459
0.00434901
0.0053899
0.0060452
0.0089499
0.0057534
0.0056739
0.00639965
0.00413765
0.00535216
0.00575375
0.00970369
0.00598922
0.00814787
0.00756864
0.00664566
0.00744938
0.00616221
0.00419516
0.0106693
0.00575001
0.0108272
0.0078171
0.00816006
0.00422282
0.00962952
0.00557752
0.0040799
0.0042295
0.00569575
0.00436919
0.00735751
0.00471975
0.00709384
0.00797972
0.0100983
0.00534049
0.00783261
0.00551587
0.0053697
0.00461171
0.0200669
0.00418242
0.00434371
0.00723489
0.00680744
0.00616039
0.00412477
0.0107612
0.00466001
0.00404368
0.00403944
0.0101854
0.00568603
0.00542823
0.00780861
0.0121487
0.0040198
0.00711853
0.00535694
0.00760847
0.00988932
0.00607224
0.0040903
0.00554027
0.00465238
0.00579713
0.00634412
0.00494666
0.00751965
0.00608459
0.00535583
0.00708229
0.00581837
0.00815007
0.0119925
0.00500959
0.00789135
0.00534171
0.00697868
0.0104494
0.00444227
0.00435316
0.00569281
0.00555848
0.00670951
0.00462663
0.00587272
0.00743033
0.00546235
0.00693829
0.00505423
0.00571811
0.00506768
0.00824791
0.00396887
0.0101496
0.00499194
0.0056035
0.00771873
0.00700432
0.0105649
0.00471051
0.0063615
0.0104736
0.0058831
0.00585274
0.00458116
0.00739663
0.00545828
0.00632073
0.0058376
0.00662246
0.00591714
0.00486352
0.00757937
0.00766681
0.0076284
0.00746149
0.00895602
0.00673844
0.00738754
0.00562198
0.00737739
0.00752631
0.00821421
0.00912453
0.00762652
0.00695142
0.00507124
0.00404284
0.00673828
0.00616671
0.00816526
0.0104088
0.00533858
0.0108607
0.00797467
0.00369012
0.00625897
0.00543678
0.00704882
0.0040955
0.00678485
0.00581419
0.00828078
0.00594584
0.00591708
0.00634322
0.00570336
0.0065024
0.00696413
0.00568057
0.00511377
0.00707159
0.00449637
0.00741202
0.00435123
0.00516245
0.00676043
0.00410213
0.0072163
0.00532405
0.00473029
0.00767011
0.0036994
0.00440697
0.00718125
0.00380112
0.00921679
0.00672671
0.00924564
0.00709672
0.00807193
0.00571736
0.00967782
0.00470483
0.00476289
0.00745895
0.00798936
0.0106797
0.00805391
0.00833722
0.00778906
0.00540858
0.00593269
0.00418372
0.00710416
0.00885689
0.00690291
0.00544634
0.00822477
0.0074587
0.0040888
0.00512878
0.00994793
0.00825089
0.00635183
0.0103516
0.00576009
0.00612738
0.00705221
0.00684727
0.00580829
0.00525895
0.00439616
0.00774563
0.00574048
0.00719148
0.00408631
0.00863871
0.00454403
0.00681388
0.00581723
0.00439512
0.00782323
0.00807162
0.00824475
0.00658958
0.00468904
0.00521519
0.00749146
0.0069859
0.00689568
0.00526663
0.00977935
0.00638676
0.00648853
0.00744409
0.00698564
0.00620659
0.00532725
0.0076715
0.00713973
0.00813962
0.00762627
0.00709241
0.00641201
0.00805414
0.00563056
0.00808716
0.0078363
0.00548273
0.00518103
0.00668492
0.00580574
0.00452954
0.00810204
0.00733674
0.00427889
0.00683599
0.0116017
0.00442652
0.00484045
0.00477953
0.0081778
0.00602519
0.0049545
0.00646573
0.0066418
0.00764385
0.00721992
0.00578739
0.00684733
0.00738759
0.00722446
0.00427103
0.0067689
0.00962666
0.00523335
0.00727989
0.00743099
0.00536838
0.00538782
0.00381154
0.00825468
0.0106428
0.00555573
0.00561377
0.00976233
0.00527025
0.00486364
0.00515221
0.00472141
0.00454595
0.00664713
0.0072664
0.00816524
0.00499502
0.00530737
0.00548107
0.0078653
0.00759794
0.00532137
0.00464328
0.00432467
0.00792991
0.00786181
0.00673271
0.00536798
0.00571903
0.00607118
0.00662397
0.0100796
0.00954562
0.00490972
0.00768582
0.00813548
0.00757823
0.00778125
0.00356971
0.0080195
0.00757017
0.00781811
0.0078041
0.00766623
0.00401035
0.00813709
0.00518647
0.00723095
0.00440828
0.00679309
0.00778253
0.00563056
0.005993
0.00665551
0.00772073
0.00969611
0.0076808
0.0080059
0.00576761
0.00498044
0.00727037
0.0102536
0.00472991
0.00658323
0.00785462
0.00628317
0.00501631
0.00803303
0.00495235
0.00939912
0.0047453
0.00566321
0.0123116
0.00664288
0.00420332
0.00588489
0.0102442
0.00779406
0.00776273
0.00810753
0.00386339
0.00693107
0.00766241
0.00527367
0.00820145
0.00447496
0.00747632
0.00595128
0.00971695
0.00796871
0.00472776
0.00675584
0.00373503
0.00715585
0.00487692
0.00421659
0.00958578
0.00771486
0.0045707
0.00670639
0.0047815
0.00691584
0.0056069
0.0102403
0.007117
0.00955112
0.00743155
0.00681566
0.00444195
0.00406224
0.0063967
0.0081724
0.00795123
0.0108981
0.00700879
0.00827236
0.00768794
0.00522326
0.00515008
0.00654496
0.00804202
0.0124954
0.0055294
0.00521093
0.00460007
0.0080991
0.00945861
0.00626778
0.00654122
0.00790277
0.0136811
0.00680518
0.00906687
0.00678135
0.0102149
0.00486943
0.0067906
0.00532609
0.00995726
0.00772184
0.0064188
0.00567092
0.00552059
0.00580964
0.00499331
0.00708958
0.00771539
0.00903832
0.0038049
0.00702234
0.00746167
0.00562572
0.00764344
0.00605579
0.00536646
0.0080562
0.0061403
0.00770165
0.00785242
0.0104686
0.00597661
0.00804081
0.00541926
0.00497521
0.00763757
0.0060694
0.00689824
0.0052138
0.00798045
0.00494225
0.00912618
0.00591078
0.00698911
0.00931681
0.00564129
0.00663822
0.00555639
0.00804954
0.00493161
0.00525694
0.00757016
0.00419259
0.008081
0.0077299
0.00787874
0.00804275
0.00686493
0.00578225
0.00779239
0.00699889
0.00822748
0.00696309
0.0075715
0.00735619
0.00773647
0.00416372
0.00999093
0.00751826
0.00482734
0.00688658
0.00395083
0.00906897
0.00818286
0.00445261
0.00510342
0.00791962
0.00593828
0.00969924
0.0098452
0.00790811
0.00754028
0.00823648
0.00677361
0.00387378
0.00635192
0.00764101
0.00916134
0.00810605
0.00593871
0.00780088
0.0049974
0.00532673
0.00590082
0.00541652
0.00470242
0.0041149
0.00795862
0.00463981
0.00736154
0.00747377
0.00801404
0.00768446
0.00746745
0.00661516
0.00787909
0.0104227
0.00527545
0.00765269
0.00522923
0.0054881
0.00774253
0.00728101
0.00609178
0.00748387
0.00737638
0.00967385
0.00797737
0.00784028
0.00459862
0.00593179
0.00784733
0.00417919
0.00685054
0.00507346
0.00837316
0.0109713
0.00971121
0.00497948
0.00580868
0.011054
0.00995913
0.0083169
0.00859971
0.00767436
0.00605959
0.00409125
0.00538609
0.00781825
0.00555563
0.00444938
0.00748383
0.00611971
0.00796338
0.0091687
0.0101466
0.00986297
0.00511128
0.00952079
0.00459045
0.0080127
0.00728946
0.00682843
0.00415326
0.00716723
0.010135
0.00785726
0.00993119
0.00732251
0.00707037
0.00656447
0.00579086
0.00996368
0.00538801
0.00631959
0.00715328
0.00734307
0.00591133
0.00399133
0.00810613
0.00733562
0.00964541
0.00666481
0.00812777
0.00417261
0.0055931
0.00361879
0.00779011
0.0081295
0.00931096
0.00680301
0.00554081
0.00747526
0.0101129
0.00555722
0.0040445
0.0062574
0.00634381
0.00864723
0.00636403
0.00685904
0.00817799
0.00822201
0.00447628
0.00764411
0.00679677
0.00801131
0.0049132
0.00753755
0.0040301
0.00522087
0.00965408
0.00781757
0.00921966
0.00465218
0.00751767
0.00774071
0.00735595
0.0049739
0.00672492
0.00707724
0.00771474
0.00878277
0.00441864
0.00497197
0.00425527
0.00573267
0.00710682
0.00431123
0.00386624
0.00838631
0.00524274
0.00835686
0.00644453
0.00740292
0.00399227
0.0038788
0.00994118
0.00431955
0.00598868
0.00787538
0.00779689
0.00904641
0.00700694
0.00400354
0.00958452
0.00538166
0.0115238
0.00781948
0.00571333
0.00567807
0.0105659
0.00749142
0.00957955
0.00666405
0.00427361
0.00642519
0.00606047
0.00817971
0.00724192
0.00694944
0.00756004
0.00789958
0.00655554
0.00583511
0.00636224
0.0110882
0.00456694
0.0044935
0.00775435
0.00507234
0.00639563
0.00484529
0.00816124
0.00968587
0.00422397
0.00700088
0.00941411
0.00643213
0.00525481
0.00991754
0.00488849
0.00762561
0.00520532
0.010131
0.00414715
0.00842849
0.00375485
0.00760559
0.00824056
0.00756899
0.00679918
0.00773891
0.00442582
0.00730374
0.00755089
0.00485225
0.00408544
0.00469895
0.00702399
0.00407377
0.00492161
0.00623621
0.00732874
0.00399939
0.00446571
0.00542114
0.00660461
0.00764044
0.00494226
0.00760065
0.0103817
0.00515275
0.0101273
0.00467585
0.0070024
0.00514523
0.00501878
0.00603582
0.00681137
0.0105347
0.00711682
0.00767532
0.00653294
0.0102816
0.00465297
0.00389453
0.00934318
0.00670018
0.0101758
0.00780344
0.00671236
0.00530559
0.00659581
0.00656002
0.00431726
0.00810718
0.0109923
0.0075299
0.00435649
0.00444503
0.0102258
0.00620007
0.00656962
0.00747097
0.00748658
0.00434904
0.00676123
0.00818993
0.00455583
0.00705549
0.00731042
0.00400547
0.00782756
0.00696133
0.00803673
0.00659801
0.00404428
0.00476562
0.00394587
0.00431917
0.0043533
0.00437974
0.00473596
0.00487643
0.00723565
0.00774898
0.00921942
0.00515973
0.00441513
0.00501326
0.00775853
0.00612367
0.00485057
0.00547396
0.00509099
0.00811626
0.00600962
0.0080985
0.00776583
0.0177117
0.0047217
0.00758259
0.0101343
0.00556156
0.00663611
0.00803087
0.00637444
0.00787476
0.00420803
0.00768858
0.00820633
0.00743647
0.0054011
0.00939596
0.00741719
0.00379756
0.00761404
0.00970027
0.00575683
0.00518878
0.00471227
0.00661752
0.00645563
0.00745491
0.00762817
0.00643739
0.00445475
0.00677868
0.00656664
0.00673315
0.00463338
0.00464624
0.0066272
0.00805941
0.00779727
0.00799671
0.00798464
0.00422751
0.00482158
0.00825051
0.00539578
0.00380047
0.00771038
0.0062346
0.0073051
0.00738031
0.00731955
0.00809071
0.00754644
0.00749303
0.00744849
0.00810998
0.00909892
0.00503077
0.00486228
0.00778822
0.00584267
0.00703401
0.00474474
0.00812452
0.00710826
0.00435803
0.00835166
0.00833574
0.00808248
0.00640907
0.00413102
0.00782325
0.01546
0.00414148
0.00802058
0.00786775
0.00810344
0.00727945
0.00394247
0.00737389
0.00487807
0.00727651
0.00751015
0.00704486
0.00599334
0.00710767
0.00786841
0.00725116
0.00428209
0.00495184
0.00506116
0.00411735
0.00817635
0.00535706
0.00647151
0.00719292
0.00451466
0.00805784
0.00812785
0.0043376
0.0079173
0.00774081
0.00529126
0.0081099
0.00639756
0.00765852
0.00795411
0.00682861
0.00912809
0.00778198
0.00428258
0.00375385
0.00758394
0.0112457
0.00696653
0.00780027
0.00436533
0.0101229
0.00755891
0.0044156
0.00666034
0.00522782
0.00500261
0.00430825
0.00986985
0.00387286
0.00729617
0.00701084
0.0083393
0.00800487
0.00473495
0.00677973
0.00780106
0.00416326
0.00592729
0.0076528
0.00486999
0.0067621
0.00813952
0.00491994
0.00679596
0.0040038
0.00450174
0.00960805
0.00503569
0.00437955
0.00730064
0.0050859
0.00741497
0.00704871
0.00407011
0.00790015
0.0086723
0.00807508
0.00453036
0.00530371
0.00411994
0.00585782
0.00948553
0.00707287
0.00639188
0.00525546
0.0117139
0.00724837
0.00816432
0.00628499
0.00791302
0.00467515
0.00529963
0.0065005
0.00751338
0.0046325
0.00794916
0.00587245
0.00566097
0.00535843
0.0104272
0.00432065
0.00640571
0.00803024
0.00776156
0.00642096
0.0044617
0.00822339
0.00697455
0.00685486
0.00783165
0.00630646
0.004484
0.00842214
0.00702151
0.00582379
0.010397
0.00703358
0.0065137
0.00709778
0.00440097
0.00702857
0.00563696
0.00751653
0.0086783
0.00527199
0.0047259
0.00686565
0.008124
0.00500312
0.00609401
0.00770112
0.00778725
0.00648643
0.005674
0.00999489
0.00998876
0.0072338
0.00574138
0.0069848
0.00414857
0.00558196
0.00654379
0.00758056
0.00562988
0.00503635
0.00507656
0.00580202
0.00399779
0.00774584
0.00975845
0.00761088
0.00425255
0.00387784
0.00718057
0.00697071
0.00743691
0.00712912
0.00778385
0.00762327
0.0104768
0.00766619
0.00769401
0.00861241
0.0102029
0.00787203
0.00441795
0.0106844
0.00431675
0.00788211
0.00714127
0.00776872
0.00552798
0.00696613
0.00957953
0.00694026
0.00794944
0.00765199
0.00408635
0.00678126
0.00544345
0.0055569
0.00685061
0.00611877
0.011216
0.00605471
0.00509218
0.00407385
0.00621456
0.0102188
0.00806808
0.00787145
0.00447497
0.00763551
0.0043848
0.00591812
0.00740178
0.00630558
0.0176307
0.00398228
0.00597402
0.00387363
0.00512404
0.00452434
0.00441152
0.00593616
0.00403319
0.00650319
0.00731598
0.00467914
0.00562188
0.0101516
0.00730145
0.00791148
0.00487092
0.00495189
0.00449915
0.00950552
0.00594219
0.00529298
0.0100132
0.00970164
0.00558794
0.0077629
0.00528632
0.00534846
0.00429888
0.00414593
0.00791908
0.00713644
0.00764795
0.00794247
0.00391343
0.00582165
0.00436683
0.00422371
0.00544794
0.0111208
0.00469092
0.00951229
0.00713802
0.00430656
0.00946834
0.00802432
0.00418822
0.00503116
0.00417596
0.00464188
0.0078119
0.00588503
0.00739992
0.00815349
0.00834533
0.00542615
0.00432013
0.00783962
0.00684772
0.00752093
0.0072485
0.00716512
0.00761127
0.00632071
0.00686506
0.00717723
0.00673152
0.00703391
0.00822014
0.00730873
0.00741354
0.0039843
0.00552298
0.00819219
0.00509425
0.00536086
0.00407488
0.0100397
0.0132987
0.00582218
0.00687644
0.00728067
0.00527253
0.00932392
0.00708113
0.00598451
0.00498875
0.00549997
0.00824215
0.00693121
0.00710665
0.0075431
0.00800196
0.00677066
0.00574759
0.00512619
0.00478435
0.00438798
0.0039013
0.00478423
0.00812979
0.00562349
0.00795066
0.00530273
0.00739522
0.00570263
0.00582057
0.00409032
0.00721788
0.00619169
0.00436862
0.00758335
0.00714219
0.00678947
0.00636174
0.00922813
0.00778482
0.00807021
0.010048
0.00422845
0.0051121
0.00784933
0.00570146
0.0105417
0.00449394
0.00601741
0.00427011
0.00740843
0.0043581
0.0106564
0.00470515
0.00997298
0.00370579
0.0104168
0.00642246
0.00589136
0.00769085
0.010294
0.00593776
0.00369387
0.00604654
0.00544735
0.0057615
0.00399624
0.00810817
0.00773158
0.00794736
0.00563316
0.00541066
0.00535863
0.00879272
0.00672668
0.00773028
0.00559063
0.00506871
0.00402357
0.00403752
0.00406456
0.00949781
0.00750211
0.00899303
0.00444223
0.00828674
0.00712637
0.00986276
0.00549685
0.0102903
0.00703321
0.0104056
0.00710878
0.00837532
0.00561446
0.00546539
0.00803386
0.00720229
0.00588241
0.00794321
0.00680398
0.0047611
0.00943387
0.00724265
0.00995398
0.00498145
0.00693039
0.00812199
0.00432592
0.00659756
0.00765624
0.00473347
0.0061604
0.00774015
0.00458674
0.00806829
0.00775999
0.00436516
0.00657298
0.007397
0.0097036
0.00423939
0.00586151
0.00563052
0.0102678
0.00527626
0.00775181
0.00963454
0.00735943
0.0105809
0.00412132
0.00396476
0.0079569
0.0100565
0.00763647
0.0049145
0.00597179
0.00417315
0.00721318
0.00735084
0.00670701
0.00929526
0.00436394
0.00825859
0.00495908
0.0103317
0.00510442
0.00416583
0.0100105
0.00739014
0.0054196
0.00424717
0.00910805
0.00652658
0.00602182
0.00810728
0.0072395
0.00721522
0.00437891
0.00454876
0.00647183
0.00555799
0.00536976
0.00759229
0.004076
0.00654178
0.00521231
0.00677681
0.00401944
0.00428272
0.00453982
0.00439236
0.00821474
0.00573076
0.00826679
0.00523379
0.00863181
0.0136098
0.00580168
0.00554365
0.00583994
0.00809172
0.00666827
0.00482138
0.00422515
0.00408553
0.0108167
0.0104239
0.0105977
0.00560621
0.0093534
0.00656452
0.00728169
0.00495223
0.00775745
0.00936983
0.00824059
0.00525233
0.00739541
0.00474628
0.0075549
0.00750755
0.00737587
0.00475093
0.0064051
0.0106689
0.00490951
0.00548443
0.00494318
0.00784897
0.00610786
0.00789927
0.00398124
0.00405042
0.00463932
0.00632029
0.00683223
0.00624523
0.00773612
0.00415644
0.00776789
0.00567133
0.00554905
0.00354442
0.00581255
0.00682148
0.00525186
0.00498513
0.00913201
0.006035
0.00635929
0.00721243
0.00398437
0.00439716
0.00462388
0.00414728
0.00625317
0.00404374
0.0045711
0.00733905
0.00428397
0.00721699
0.00993251
0.00898835
0.00512892
0.00381279
0.00608958
0.00501883
0.00415881
0.00962216
0.00566008
0.00466355
0.00618857
0.00397396
0.00782908
0.0055596
0.0063355
0.00480601
0.00513536
0.00433856
0.00991898
0.00439912
0.00732144
0.00424027
0.00785671
0.00566538
0.00590164
0.00675596
0.00726016
0.00956948
0.0046115
0.0113955
0.00652593
0.00734014
0.00433304
0.00662704
0.00413942
0.00453727
0.00929925
0.00427427
0.00434266
0.00810309
0.0101273
0.00713219
0.00475471
0.00431778
0.0051226
0.00743903
0.00751288
0.00925642
0.00669757
0.00458779
0.00574297
0.00458278
0.00704908
0.0100218
0.00807135
0.00769829
0.00713592
0.00419967
0.00723292
0.00442923
0.00585767
0.0100626
0.0039718
0.00620141
0.00429445
0.00756974
0.00434153
0.00518371
0.0078661
0.00787587
0.00957792
0.00476652
0.00756137
0.00786952
0.00549262
0.0109986
0.00690379
0.00842215
0.00837942
0.00680166
0.0056236
0.00702445
0.010713
0.00474787
0.00652015
0.0052711
0.0061324
0.00471987
0.00773765
0.00580673
0.00740926
0.00837506
0.00521994
0.00619892
0.00701242
0.00705748
0.00445456
0.0058987
0.00653704
0.00707823
0.00764087
0.00743381
0.0082212
0.00560328
0.00976554
0.00514086
0.00709561
0.00651733
0.0100889
0.00707502
0.00558556
0.00496801
0.00541113
0.00686223
0.00947112
0.00572043
0.00478001
0.00770822
0.00424091
0.00933612
0.00427476
0.00744784
0.00422477
0.00681008
0.00532953
0.00672362
0.00771397
0.0068637
0.00712811
0.00777016
0.00669645
0.00767285
0.00544548
0.0088011
0.0106135
0.00545684
0.0110944
0.00400937
0.00437469
0.00404483
0.00807776
0.0047376
0.00747868
0.00800551
0.00538462
0.00406208
0.00647247
0.00471036
0.00804124
0.00427948
0.00436195
0.00711907
0.00520642
0.00423503
0.00413694
0.00601551
0.0102888
0.00966892
0.00760903
0.00482339
0.0074483
0.00453783
0.0118714
0.00833559
0.00500773
0.00802605
0.00705195
0.00748099
0.0059377
0.0071044
0.00790574
0.00864191
0.00820058
0.00465936
0.0100679
0.00610537
0.0066652
0.0103536
0.00466834
0.00770032
0.00818433
0.00610393
0.00751779
0.00587182
0.00754863
0.00434333
0.00413225
0.0076568
0.00622894
0.0102643
0.00745221
0.00447142
0.00725245
0.00454498
0.00991394
0.0101066
0.00568336
0.00890452
0.00609973
0.00700416
0.00785129
0.00711485
0.00533689
0.0074866
0.00485675
0.00635629
0.00538983
0.00516754
0.00990216
0.00750186
0.0103433
0.00632519
0.00736288
0.00680844
0.00708405
0.00823789
0.00613039
0.00424075
0.00400068
0.00430201
0.0072148
0.00711571
0.0055307
0.00785523
0.00732087
0.00689673
0.0074382
0.0051009
0.0105853
0.00430855
0.00708636
0.00675817
0.00562459
0.00951982
0.00941245
0.00385285
0.00595376
0.0101284
0.00623221
0.00953143
0.00544602
0.00741211
0.00692417
0.0081016
0.00691757
0.00407613
0.00550565
0.00802171
0.00686301
0.00691461
0.00747283
0.00701487
0.00561965
0.0043239
0.00820286
0.00733352
0.00709399
0.00677322
0.00824996
0.00987663
0.00676443
0.00421512
0.00813153
0.00568508
0.0067292
0.00757032
0.00509899
0.00429695
0.00520308
0.00415833
0.00537262
0.00520151
0.0100223
0.00630559
0.00508305
0.00547894
0.00474079
0.00979654
0.00648607
0.00766711
0.0106582
0.00430046
0.00476346
0.00698465
0.0103949
0.0111405
0.00854284
0.00564048
0.00498447
0.0103603
0.00971677
0.0118487
0.00411968
0.00716066
0.00618727
0.00689403
0.00520879
0.0099198
0.00627612
0.0048284
0.00998735
0.0102325
0.00966563
0.00487017
0.00916561
0.00659016
0.00644344
0.00807966
0.00591185
0.00660561
0.00373846
0.00641646
0.00806182
0.0057915
0.00656889
0.00767384
0.00560513
0.00422614
0.00607563
0.00698583
0.0101518
0.00461072
0.00419682
0.00429274
0.00406084
0.00754999
0.00512945
0.00709345
0.0108519
0.00385328
0.00825158
0.00798577
0.00680334
0.00640603
0.00376496
0.00566454
0.00389965
0.00723399
0.0065342
0.00674661
0.00755112
0.00649521
0.0065999
0.00713678
0.0048488
0.00481891
0.00604512
0.00431453
0.00468939
0.00578403
0.00533659
0.00797572
0.00381103
0.00535704
0.0100071
0.0068377
0.0113784
0.00374691
0.00462978
0.00446165
0.0052587
0.00557925
0.0063922
0.00516838
0.00961898
0.00448953
0.00767528
0.00744853
0.00967723
0.0064103
0.00626996
0.00966416
0.00687562
0.00764166
0.00803501
0.00929042
0.00739215
0.00533295
0.00814248
0.0079028
0.0058868
0.0040441
0.00637539
0.00524671
0.00425122
0.00724117
0.00791009
0.00545498
0.00560702
0.00460804
0.00588495
0.00742278
0.0049944
0.0048051
0.00587037
0.00726768
0.00666902
0.00763827
0.0101243
0.00764603
0.00983091
0.00599773
0.00620411
0.00702191
0.00690372
0.00548545
0.0103756
0.00576072
0.00823422
0.00769269
0.00537699
0.00710173
0.00803966
0.00460734
0.00682301
0.00738876
0.00432922
0.0100107
0.00496889
0.0039671
0.00696543
0.00765907
0.00743503
0.007375
0.00610019
0.00580846
0.00389242
0.00750001
0.00749389
0.00591224
0.00472993
0.0093537
0.0097007
0.00425178
0.00405979
0.00758409
0.00777267
0.0097526
0.0045023
0.00528374
0.00538095
0.00438028
0.00678833
0.00559163
0.0055198
0.00788343
0.00399211
0.00490703
0.00662434
0.00450915
0.00569689
0.0099456
0.00463438
0.00619738
0.00539915
0.00646222
0.00783773
0.00805553
0.00715412
0.00452642
0.00710238
0.00398672
0.00742332
0.00440553
0.00439834
0.0043913
0.0100783
0.00426668
0.00694025
0.00749994
0.00570715
0.00941013
0.00765878
0.00664661
0.00749663
0.00533029
0.00441519
0.00980646
0.00510736
0.00700346
0.00412656
0.00636077
0.00653147
0.0074925
0.00621713
0.00655695
0.00799904
0.00688125
0.00691002
0.00681368
0.00737808
0.00486949
0.00809735
0.00781529
0.00563241
0.00594689
0.00713647
0.00747943
0.00948198
0.00570436
0.0103892
0.00796823
0.00974263
0.00680447
0.00477057
0.00508584
0.00575138
0.00424378
0.00864012
0.00734458
0.00966869
0.00863859
0.00606615
0.00580182
0.00408652
0.00492719
0.00660018
0.0100571
0.00535171
0.00737169
0.00755228
0.00726995
0.00513773
0.00612417
0.00425336
0.00522382
0.00781111
0.00915006
0.0055535
0.00682838
0.00792143
0.00625484
0.00766557
0.00752975
0.00441997
0.00803927
0.00591044
0.00768216
0.00475653
0.00476478
0.00771906
0.00455711
0.00679545
0.00612241
0.00692586
0.00647491
0.00797212
0.0059805
0.0075795
0.00702013
0.00798505
0.00501736
0.00457075
0.00805396
0.0118342
0.00695799
0.00768349
0.00416996
0.00476381
0.00682641
0.00404342
0.00725889
0.00685336
0.00436263
0.00527434
0.0054973
0.00485276
0.00708353
0.00707536
0.0104805
0.00526335
0.00719509
0.00796631
0.00543554
0.00573154
0.00609606
0.006198
0.00421601
0.00761755
0.00788147
0.00815083
0.00835092
0.0079638
0.0108689
0.010217
0.00486716
0.0069725
0.00787081
0.00780587
0.0043969
0.00650898
0.00742317
0.0100609
0.00835443
0.00718168
0.00733904
0.00806172
0.00554713
0.00621775
0.00419243
0.00688145
0.00654934
0.00584192
0.00449268
0.00628249
0.00404021
0.00476762
0.00409826
0.00801579
0.0039995
0.00495313
0.00756769
0.00505368
0.00717861
0.00738407
0.0080658
0.00553323
0.00772773
0.00403481
0.00745972
0.00770038
0.00545587
0.00670622
0.00816629
0.00796953
0.00709446
0.00505245
0.00748
0.00659799
0.00716856
0.00589576
0.00447479
0.0064195
0.00518457
0.00430766
0.00555487
0.00779713
0.00458327
0.00757762
0.00554219
0.00423688
0.00450827
0.00968995
0.00470113
0.00957
0.00444479
0.00600786
0.00585607
0.0073838
0.00639532
0.0075544
0.00740811
0.00703072
0.0037004
0.0058806
0.00484572
0.00698947
0.00741326
0.00492343
0.00650225
0.00445921
0.00697211
0.00454241
0.00686551
0.00703751
0.00764462
0.00775042
0.00741685
0.00542657
0.00503433
0.00487049
0.00814065
0.00765792
0.00804479
0.00619845
0.00453202
0.00415195
0.00423589
0.0070751
0.00612736
0.00730984
0.00526534
0.00781324
0.00567319
0.00674394
0.00503996
0.00931273
0.00405419
0.00663364
0.0112976
0.0102693
0.00625338
0.00427102
0.00761734
0.00533285
0.00801823
0.00829041
0.00431025
0.0047833
0.0066689
0.00699295
0.0102284
0.00520932
0.00700215
0.00707225
0.00582968
0.00494686
0.00739252
0.00671925
0.00725403
0.00547955
0.00994223
0.00419923
0.00556289
0.00628156
0.00791873
0.00437289
0.00587173
0.00455934
0.00379472
0.00955222
0.0047655
0.00451488
0.0076181
0.00550745
0.00646598
0.00570522
0.00682296
0.00502684
0.00791557
0.00553537
0.00548144
0.00596853
0.00720988
0.00561396
0.00621205
0.00698845
0.00660774
0.00563753
0.0075733
0.00579456
0.00824986
0.0087862
0.00453916
0.00851019
0.00530383
0.00494308
0.00711509
0.0062453
0.00677205
0.00966423
0.00974308
0.00774877
0.00707993
0.00732032
0.00472121
0.00771057
0.00467911
0.00564302
0.00700722
0.00798851
0.00690315
0.0100503
0.0053209
0.00395295
0.00401407
0.00644944
0.00928136
0.00724385
0.00539871
0.00966005
0.00794435
0.00735168
0.00485974
0.00464672
0.00821934
0.00821584
0.00701928
0.00729843
0.00948529
0.00749069
0.00590793
0.00503102
0.00947367
0.00447959
0.00415944
0.00940567
0.00415011
0.00872809
0.00470477
0.00573663
0.00797662
0.00685603
0.0118053
0.00415011
0.00758322
0.00777553
0.00643633
0.00480224
0.00692544
0.00428839
0.00421627
0.00848849
0.00599896
0.00420104
0.00823168
0.00783985
0.00547441
0.0102329
0.00713543
0.00680005
0.00778412
0.00488798
0.00571611
0.0107772
0.00981681
0.00705424
0.0076873
0.00804345
0.00418625
0.0104658
0.00701978
0.00635648
0.00541703
0.00735344
0.00755206
0.00571435
0.00683247
0.00794855
0.00528568
0.00559044
0.00681437
0.00433037
0.0044968
0.00670038
0.00782626
0.00763986
0.0107536
0.00632761
0.00446645
0.00541225
0.00845104
0.00776592
0.00746781
0.00417287
0.00655999
0.0109359
0.00428068
0.00499239
0.010242
0.00648945
0.00685195
0.00594168
0.00647873
0.00745699
0.00669413
0.00787821
0.00523705
0.00972558
0.00723346
0.00701591
0.00517746
0.00583297
0.00708687
0.00706814
0.00758362
0.00571219
0.00941936
0.00723078
0.00591081
0.00548349
0.00695837
0.00563377
0.0052765
0.00584257
0.00508586
0.00620401
0.00842043
0.00388241
0.00666039
0.00520094
0.00743921
0.00678339
0.00714111
0.00646472
0.00658176
0.0080195
0.00421767
0.00580163
0.0060021
0.0102027
0.0040869
0.00704996
0.00739329
0.00639223
0.0058533
0.00436185
0.00817929
0.00547294
0.00719993
0.00427144
0.00989599
0.0106159
0.00482107
0.00425733
0.00638767
0.00659713
0.00751086
0.00683358
0.00784413
0.00703562
0.00647197
0.0075481
0.00456583
0.00683517
0.00690912
0.00420712
0.0071716
0.00399384
0.00910611
0.0045055
0.00574473
0.00528303
0.00449287
0.00503685
0.00422953
0.00728634
0.00558303
0.00674737
0.0060819
0.00424334
0.00714595
0.00717241
0.00385232
0.0106473
0.00571682
0.00757497
0.00463168
0.00624615
0.0055335
0.00520472
0.00366853
0.00708229
0.0100321
0.0114767
0.00788253
0.00720987
0.00642849
0.00699463
0.0069153
0.00813245
0.00379508
0.00746122
0.00479448
0.00474508
0.00432918
0.00808805
0.0070676
0.0106103
0.00693441
0.00723581
0.0105495
0.00604104
0.00478346
0.00699927
0.00694195
0.0075534
0.00448886
0.00410576
0.00624194
0.00675829
0.00575213
0.00609707
0.00861157
0.00497036
0.00623027
0.00472882
0.00796597
0.00390993
0.00415271
0.00629691
0.00680559
0.00667838
0.00436864
0.00420087
0.00475055
0.00459834
0.00560083
0.00444575
0.00427859
0.00771192
0.00575697
0.00531729
0.00604342
0.00755717
0.00539886
0.00740059
0.00719141
0.00446934
0.00522306
0.00615137
0.00620508
0.00384786
0.00803194
0.0075027
0.00536283
0.00956595
0.00405308
0.00649599
0.00738025
0.00502067
0.00712418
0.00437861
0.00447822
0.00450195
0.00435306
0.00570361
0.00650259
0.0106223
0.00541142
0.00656729
0.00701395
0.00427034
0.00596708
0.00648024
0.0126106
0.00813706
0.00698552
0.00531013
0.00734719
0.00685202
0.00507051
0.00421223
0.00435261
0.00674553
0.00950922
0.00722971
0.00688431
0.00982738
0.00688575
0.0055226
0.00580105
0.00598101
0.00382451
0.00506473
0.00506622
0.00565082
0.010117
0.00604548
0.00419217
0.0072538
0.00673542
0.00519778
0.00401807
0.00947537
0.00774022
0.00391609
0.00543147
0.00474797
0.00584557
0.0049388
0.00734094
0.00816458
0.00435203
0.0095706
0.00607611
0.00543091
0.00937583
0.00593131
0.00624913
0.00526433
0.00590913
0.00768811
0.007827
0.00783995
0.00511747
0.00653647
0.0050385
0.0057389
0.00593701
0.00392636
0.00475692
0.00523709
0.00434223
0.00806089
0.00396777
0.00750717
0.00629981
0.00463128
0.00713488
0.0118986
0.00482034
0.00452767
0.00641935
0.00830542
0.00404294
0.0111764
0.00450353
0.00460439
0.00743632
0.00701545
0.00375814
0.00629307
0.00858406
0.007881
0.0068996
0.00416421
0.00811428
0.0052729
0.00644122
0.00543181
0.00521508
0.00736699
0.00521172
0.0071563
0.00685497
0.00499235
0.00512973
0.00453033
0.0101452
0.0066331
0.0108687
0.00689681
0.00436357
0.00645586
0.00528063
0.00853374
0.00723011
0.00671194
0.00420467
0.00509036
0.00436804
0.00749143
0.00605507
0.00418497
0.00514033
0.00413542
0.00808649
0.0058414
0.00957601
0.00541485
0.00813238
0.00429461
0.00985805
0.0061331
0.00590235
0.00548672
0.00385663
0.00507951
0.00601642
0.00388797
0.00588556
0.0067675
0.00782975
0.0104385
0.00649314
0.00849899
0.00713081
0.00414723
0.00626294
0.00695839
0.00588964
0.00728554
0.00700446
0.00758625
0.00462669
0.0102186
0.00994172
0.00647816
0.00979781
0.00652776
0.00732521
0.00736771
0.00543272
0.00491062
0.00740432
0.0082475
0.00586887
0.00569128
0.0057003
0.00755122
0.00651249
0.00361629
0.00542511
0.00495411
0.00693887
0.00786479
0.00623596
0.0057785
0.00661069
0.00464693
0.00487294
0.00680835
0.00664312
0.0035445
0.00458063
0.00581351
0.00780662
0.00704233
0.004043
0.0037216
0.00555751
0.00618273
0.00700388
0.00748173
0.00775128
0.00413319
0.0048128
0.00776183
0.0101189
0.00744308
0.00509506
0.00627748
0.00808194
0.00742305
0.00702427
0.00804877
0.00414397