/*--------------------------------*- C++ -*----------------------------------*\
| =========                 |                                                 |
| \\      /  F ield         | OpenFOAM: The Open Source CFD Toolbox           |
|  \\    /   O peration     | Version:  2406                                  |
|   \\  /    A nd           | Website:  www.openfoam.com                      |
|    \\/     M anipulation  |                                                 |
\*---------------------------------------------------------------------------*/
FoamFile
{
    version     2.0;
    format      ascii;
    arch        "LSB;label=32;scalar=64";
    class       volVectorField;
    location    "18";
    object      momentum:angularMomentum;
}
// * * * * * * * * * * * * * * * * * * * * * * * * * * * * * * * * * * * * * //

dimensions      [1 1 -1 0 0 0 0];

internalField   nonuniform List<vector> 
59516
(
(1.1785e-09 -6.7174e-10 2.47071e-07)
(-2.2471e-11 2.47791e-10 1.78808e-07)
(-4.34471e-10 3.01942e-09 2.1271e-07)
(-3.38044e-09 1.46018e-09 1.67275e-07)
(-6.96075e-09 -2.43392e-10 1.98394e-07)
(-5.15667e-09 2.76289e-09 5.036e-08)
(-6.25529e-10 -2.07825e-09 2.15461e-07)
(2.84524e-09 -1.82911e-09 2.11285e-07)
(-6.18038e-10 -2.94696e-09 1.64672e-07)
(4.83446e-09 2.12767e-09 9.35014e-08)
(-2.36292e-11 -1.13258e-09 1.83083e-07)
(-3.69318e-09 -4.98062e-09 1.16856e-07)
(-5.84648e-09 4.40149e-10 3.35309e-07)
(2.49312e-10 -9.94155e-11 2.07025e-08)
(-4.81798e-11 -9.31124e-09 1.7948e-07)
(-3.7633e-09 9.5716e-09 9.60422e-08)
(3.97434e-11 2.44245e-11 2.24374e-07)
(-9.7605e-09 -4.02354e-09 1.62129e-07)
(-7.79883e-09 -1.92419e-09 3.40949e-07)
(-2.6579e-09 1.30227e-09 3.18321e-07)
(-1.10406e-09 1.26726e-09 1.13641e-07)
(1.10252e-09 -1.60249e-09 2.96182e-07)
(-1.55236e-10 -6.4278e-10 3.19439e-07)
(2.02366e-09 2.94852e-10 4.24758e-08)
(1.09213e-09 2.88429e-09 2.79455e-07)
(-6.56704e-09 7.37569e-09 2.24062e-07)
(-1.06615e-10 2.8569e-09 6.28412e-08)
(-4.87565e-09 -3.90805e-09 8.19138e-08)
(-3.3248e-09 -7.80012e-10 1.62043e-07)
(2.0574e-09 2.16918e-09 1.71781e-08)
(-3.63646e-08 2.27351e-09 1.88128e-07)
(-4.44525e-09 4.12641e-09 9.20803e-08)
(-1.07142e-09 -8.94531e-10 1.69044e-07)
(-5.83469e-09 -1.87812e-09 1.78169e-07)
(-5.95478e-10 -1.16465e-09 1.25674e-07)
(1.92164e-09 7.0339e-11 3.74391e-07)
(-3.47848e-09 9.16548e-10 1.57638e-08)
(-1.15109e-08 -5.14124e-09 1.33448e-07)
(-5.49595e-09 2.37817e-09 2.92252e-07)
(4.89071e-09 -2.82568e-09 2.46457e-07)
(7.27254e-10 -3.1229e-09 2.76172e-07)
(-1.11737e-08 -2.20879e-09 3.86743e-07)
(2.26335e-09 -4.18289e-10 3.21818e-07)
(-2.40065e-09 2.14452e-09 1.16926e-07)
(-2.56907e-11 1.26444e-09 2.57675e-07)
(7.10664e-09 1.71435e-10 1.16288e-07)
(-2.81308e-09 -3.33758e-09 3.21221e-07)
(7.13602e-10 -1.19285e-10 2.20513e-07)
(-3.35645e-08 4.12889e-09 2.49646e-07)
(-3.50056e-09 -9.30074e-10 2.15962e-07)
(-2.89294e-08 7.75893e-10 1.63568e-07)
(-8.99521e-09 -4.04997e-09 8.69625e-08)
(-3.86823e-10 -3.23778e-09 3.25016e-07)
(-1.3128e-09 -1.76105e-09 3.03508e-07)
(-6.32392e-09 1.35561e-09 9.43701e-08)
(6.79982e-10 1.12939e-09 2.46336e-07)
(-9.25384e-09 -2.45822e-10 1.86112e-07)
(-1.1214e-08 -1.69399e-09 9.32667e-08)
(2.07654e-09 1.95983e-09 1.6774e-07)
(-5.02441e-09 -1.67823e-10 1.38748e-07)
(6.9441e-10 8.10418e-10 1.89091e-07)
(-2.06765e-09 1.95613e-09 1.80279e-08)
(2.00349e-09 -1.57841e-09 2.16028e-07)
(1.56503e-09 7.59725e-10 2.81632e-07)
(-2.97278e-09 9.57421e-11 3.06049e-07)
(-1.11606e-09 1.52559e-10 1.94381e-07)
(2.44952e-10 2.86681e-09 2.39996e-08)
(-1.31501e-09 7.49576e-10 7.82347e-08)
(-3.5476e-08 1.75986e-09 1.95085e-07)
(7.29365e-10 -1.34013e-09 1.64622e-07)
(-1.94841e-09 -1.78433e-09 6.53714e-08)
(-5.31737e-10 1.53104e-10 1.33552e-07)
(5.20609e-09 -2.65589e-09 2.8006e-08)
(1.68218e-09 1.52656e-10 1.75096e-07)
(-2.81107e-09 1.3372e-09 2.9275e-07)
(1.31648e-09 -8.64874e-10 3.22023e-07)
(7.64628e-10 -4.18258e-10 1.84584e-07)
(-1.85916e-09 -1.01965e-09 2.06904e-07)
(6.62217e-09 3.31508e-09 9.99008e-08)
(-2.83146e-09 6.46953e-10 1.70279e-07)
(-7.92932e-09 -6.54062e-10 6.0012e-08)
(-1.50711e-09 1.97041e-10 1.54693e-07)
(-1.44767e-09 3.30762e-10 1.71359e-07)
(-3.64243e-09 2.12349e-09 2.29732e-08)
(-1.64034e-09 1.30112e-10 1.95107e-07)
(-2.46702e-09 1.21582e-09 3.04558e-07)
(5.88957e-10 1.88025e-09 3.79105e-08)
(-1.07072e-09 3.37628e-09 4.65679e-07)
(-1.0445e-08 -5.48146e-09 1.24522e-07)
(-1.18591e-08 -5.50568e-09 1.68149e-07)
(-1.07283e-08 -1.05318e-09 1.76116e-07)
(-2.29098e-09 7.33288e-10 1.72843e-07)
(1.11554e-09 -4.19026e-10 2.11645e-07)
(7.19547e-10 -1.04891e-10 1.68497e-07)
(2.61011e-10 -1.09674e-09 1.50653e-07)
(-1.80563e-08 8.62815e-10 1.82545e-07)
(-1.52626e-09 -1.28149e-09 1.17776e-07)
(4.3146e-09 7.3692e-09 9.80564e-08)
(-2.59441e-09 -2.37558e-09 1.26689e-07)
(1.55667e-09 2.34963e-10 1.89553e-07)
(-3.24955e-09 1.96237e-09 7.09924e-08)
(4.00333e-09 1.80265e-09 3.25282e-08)
(4.06199e-09 2.655e-09 2.92488e-08)
(-3.86738e-09 3.45241e-09 1.0082e-07)
(6.79885e-10 -1.07845e-09 2.24785e-07)
(-6.70066e-10 7.18292e-10 1.44702e-07)
(4.32982e-09 -6.98279e-09 6.90942e-08)
(-3.48972e-10 -4.09781e-10 1.48642e-07)
(-2.45045e-09 2.46027e-10 1.89447e-07)
(-7.29188e-09 9.32866e-09 2.16647e-07)
(-3.5328e-08 -1.74469e-09 2.74118e-07)
(5.21521e-09 -5.19859e-09 5.20113e-08)
(-8.61069e-09 7.75671e-09 2.14172e-07)
(-3.19523e-08 -4.04995e-10 2.157e-07)
(-1.07025e-09 8.38326e-10 1.92703e-07)
(-2.25291e-10 -1.57123e-09 1.48567e-07)
(-7.2908e-09 -3.81353e-09 1.44335e-07)
(-1.34439e-09 2.60723e-10 1.39106e-07)
(3.28945e-10 -9.52934e-10 2.23004e-08)
(-1.3208e-09 2.20163e-09 2.38936e-07)
(-1.195e-09 -1.50159e-09 3.16272e-07)
(1.24138e-09 6.91767e-10 1.45976e-07)
(-6.38781e-10 -7.02375e-10 1.41753e-07)
(6.12957e-10 7.92978e-10 1.51098e-07)
(-1.28244e-08 1.68159e-09 1.29877e-07)
(-3.25353e-09 -1.11393e-10 1.52087e-07)
(-3.21865e-09 -1.12422e-09 4.52526e-08)
(-1.05839e-08 3.15146e-09 2.05904e-07)
(-2.28758e-08 5.88151e-09 1.62604e-07)
(6.82433e-10 5.88097e-10 1.24693e-07)
(2.72302e-09 -1.41092e-09 2.18297e-07)
(3.14234e-09 4.15298e-09 3.44321e-07)
(-6.82448e-10 -2.82208e-09 2.73903e-08)
(9.45695e-10 8.08902e-10 2.38993e-07)
(1.33911e-09 1.36406e-09 3.4562e-07)
(-1.6338e-09 2.56725e-09 2.05669e-07)
(-1.88837e-08 1.97171e-09 1.509e-07)
(2.02827e-09 2.07658e-09 3.18113e-07)
(-8.55072e-10 4.1763e-09 6.2134e-08)
(-2.93809e-09 1.34306e-09 1.75388e-07)
(-2.60443e-09 5.07098e-09 8.96635e-08)
(4.02888e-10 7.30985e-10 2.54212e-07)
(-6.16175e-10 -1.55948e-09 1.68454e-08)
(-9.28922e-10 6.49584e-10 1.49864e-07)
(-6.79596e-10 5.25524e-10 1.69524e-07)
(-2.49673e-09 1.05343e-09 2.67048e-07)
(-5.06536e-11 6.95314e-10 1.98498e-07)
(-3.87758e-09 2.5291e-09 2.1428e-07)
(1.14204e-09 -1.84191e-09 6.38789e-08)
(1.13149e-10 1.11766e-09 2.22523e-07)
(-2.37528e-09 -1.39982e-09 3.5046e-07)
(-1.31446e-10 2.43836e-09 6.38794e-08)
(2.94671e-09 1.73797e-09 3.28589e-07)
(1.62054e-09 -1.15137e-09 1.94993e-07)
(-3.63878e-10 -2.7836e-09 1.79241e-07)
(-1.95038e-09 1.22728e-09 1.81531e-08)
(1.69854e-09 -5.86191e-10 2.92262e-07)
(-2.92209e-09 4.70933e-10 3.5293e-07)
(-2.63751e-09 1.01149e-09 1.47536e-07)
(-3.26475e-09 -2.538e-09 2.01099e-08)
(4.08339e-09 2.21357e-09 1.04334e-07)
(6.6028e-09 -2.08346e-09 1.31969e-07)
(-1.36891e-09 1.77985e-09 4.9491e-08)
(-6.81901e-10 -5.89036e-10 2.85305e-08)
(3.84003e-09 1.57264e-09 1.76202e-07)
(-2.15674e-09 4.36217e-10 2.70315e-07)
(3.30994e-09 1.70567e-09 1.7446e-07)
(-1.47781e-10 -1.33413e-09 2.22553e-07)
(1.09815e-09 2.86518e-09 2.23006e-08)
(-4.60474e-10 -2.69911e-10 1.95569e-07)
(-1.88187e-09 -1.4368e-09 9.84971e-08)
(-1.62626e-09 1.14405e-09 8.04876e-08)
(-3.4036e-10 -2.91222e-09 1.24021e-07)
(4.32814e-10 -8.82337e-10 1.44881e-07)
(8.82589e-10 1.82655e-09 1.01082e-07)
(-2.44724e-09 -6.49715e-09 4.45194e-07)
(-9.93583e-10 -3.43065e-10 2.02816e-07)
(7.18306e-10 8.5408e-10 2.92583e-07)
(4.29139e-09 -7.03147e-09 1.704e-07)
(5.6194e-10 8.88434e-10 7.41197e-08)
(-4.36509e-10 -4.04624e-09 2.87479e-07)
(2.40982e-09 5.02546e-09 5.11258e-08)
(-2.61683e-09 -2.77381e-09 3.72578e-08)
(-4.59007e-10 3.96483e-09 1.21067e-07)
(6.36547e-10 -1.36035e-09 1.61748e-07)
(-4.05714e-10 6.07665e-10 1.09581e-07)
(-5.02356e-09 1.01342e-09 5.2624e-08)
(-1.62887e-10 7.34387e-10 2.43484e-08)
(-8.58005e-10 -2.19715e-09 1.95708e-07)
(1.28221e-09 1.19218e-09 2.45803e-07)
(-2.99252e-09 -5.6974e-10 1.47754e-07)
(-5.94349e-10 -8.1726e-09 1.33682e-07)
(-9.4274e-10 2.06677e-10 1.85784e-07)
(4.45075e-09 -3.75632e-09 1.12039e-07)
(1.75974e-10 3.42977e-09 3.07216e-07)
(1.36711e-09 7.8062e-10 3.29134e-08)
(1.59229e-09 -9.53084e-10 1.1132e-07)
(1.39849e-09 -1.61721e-09 6.72102e-08)
(-6.42763e-09 2.72079e-10 1.93965e-07)
(3.04002e-10 1.45273e-09 2.38051e-07)
(-1.19619e-09 -1.87852e-09 8.42745e-08)
(1.12422e-09 6.49703e-10 1.48337e-07)
(1.15271e-09 1.28994e-09 3.38927e-07)
(2.00819e-09 -2.34615e-09 1.9294e-08)
(2.23225e-09 1.70165e-09 2.2438e-07)
(-2.15551e-10 -3.23958e-10 2.23716e-07)
(1.54035e-09 7.8756e-10 2.73327e-07)
(-1.23999e-09 1.61773e-09 1.69488e-07)
(8.22758e-12 -1.71813e-10 2.21452e-08)
(1.68772e-09 2.90938e-09 3.17376e-07)
(5.83726e-10 7.08754e-09 6.91007e-08)
(-4.29169e-09 1.13137e-09 2.88672e-08)
(-2.44023e-09 1.63296e-09 2.21826e-07)
(-7.42568e-10 1.57952e-09 1.09279e-07)
(-1.98925e-09 -1.43963e-09 3.09995e-07)
(-2.62249e-09 -4.70326e-10 2.3777e-07)
(-1.37296e-09 -3.94697e-11 2.60018e-07)
(-5.14473e-10 2.85704e-10 1.8645e-07)
(-4.63249e-09 4.2353e-09 9.56014e-08)
(8.51609e-10 2.85153e-10 1.97749e-07)
(-4.08068e-09 -5.96594e-09 1.41404e-07)
(3.22304e-10 1.73701e-09 2.05562e-07)
(-7.66539e-10 -1.23615e-09 1.50057e-07)
(1.83559e-09 -1.12916e-09 9.03248e-08)
(-2.94739e-09 -1.62499e-09 2.40828e-07)
(-4.12378e-11 1.67045e-09 2.52859e-07)
(-6.33888e-10 -1.17068e-09 3.74518e-08)
(-5.66385e-09 3.36133e-10 7.81486e-08)
(-2.1455e-09 9.449e-10 1.6228e-07)
(-6.2508e-09 7.7825e-09 1.3382e-07)
(2.37223e-10 1.38952e-09 2.01886e-07)
(-1.07328e-09 2.87475e-10 1.46364e-07)
(-5.88681e-10 -1.745e-09 2.44619e-07)
(-2.2732e-09 -3.15858e-09 3.10677e-08)
(-2.48394e-09 -1.67289e-09 3.67157e-08)
(-1.84692e-09 6.47953e-10 4.81004e-08)
(2.63341e-09 -7.8907e-10 1.26342e-07)
(-4.10656e-09 -1.59285e-09 1.85454e-07)
(-1.64205e-09 -2.63512e-09 3.65129e-07)
(5.05729e-09 3.03049e-10 9.88308e-08)
(1.92054e-09 4.04439e-10 1.92845e-07)
(3.35054e-09 2.37366e-09 2.28187e-08)
(5.08623e-10 1.09524e-09 1.23372e-07)
(3.29759e-09 1.39367e-09 3.29884e-08)
(6.41723e-10 6.77805e-10 1.28192e-07)
(1.90846e-10 -1.42751e-09 1.73229e-07)
(-4.04009e-10 -9.0252e-10 1.81185e-07)
(1.84263e-09 6.91556e-09 2.11888e-07)
(1.59433e-09 1.66912e-09 2.35225e-07)
(-5.15063e-10 6.66827e-10 2.15008e-07)
(5.11806e-09 -2.95108e-09 3.28163e-07)
(-1.01302e-09 1.9938e-10 2.00964e-07)
(1.2058e-09 1.2012e-09 1.47236e-07)
(2.73202e-10 3.92806e-10 2.58219e-07)
(-4.52243e-10 1.35288e-09 2.60358e-07)
(-6.78206e-10 4.86125e-10 2.65029e-07)
(-2.37458e-09 -1.09531e-09 1.26542e-07)
(-1.2179e-09 -2.26333e-09 2.51487e-07)
(3.39151e-09 5.10661e-09 9.53322e-08)
(-5.61058e-10 3.60107e-09 1.1109e-07)
(-1.30494e-09 -1.99888e-10 2.16209e-07)
(-9.05957e-10 2.02112e-09 2.24552e-07)
(3.13379e-09 2.46769e-09 2.51994e-07)
(-1.23784e-09 2.50282e-09 2.30191e-07)
(1.75208e-09 9.39296e-10 8.05683e-08)
(3.15799e-10 -7.23967e-09 1.19044e-07)
(1.96257e-09 -2.46344e-10 2.66989e-07)
(-7.25206e-10 3.04926e-09 2.36478e-07)
(-4.25559e-10 -4.30976e-10 7.20023e-08)
(8.06397e-10 1.62195e-09 8.70903e-08)
(-4.2675e-09 3.26011e-09 1.80206e-07)
(-6.34474e-10 -7.1966e-10 1.50773e-07)
(-1.90147e-09 5.63208e-09 3.336e-07)
(-2.90711e-11 2.58248e-09 1.64695e-07)
(-3.3858e-09 2.20337e-09 2.83601e-07)
(-2.39277e-10 6.96549e-09 2.08523e-07)
(-1.48692e-09 -3.56478e-09 2.37206e-08)
(7.22698e-11 2.2785e-09 2.60288e-07)
(3.00751e-09 -2.50011e-09 3.50179e-08)
(4.02135e-09 1.57529e-09 6.10091e-08)
(2.16048e-10 -2.38932e-09 2.71202e-07)
(6.87035e-10 1.86269e-09 2.37737e-07)
(-5.14529e-09 2.42487e-09 3.21905e-08)
(-3.28605e-09 -4.93485e-10 3.08886e-07)
(-2.2365e-09 -3.26579e-09 2.54812e-07)
(1.11689e-09 4.05359e-11 2.07807e-07)
(1.53457e-11 -5.96655e-10 2.52845e-07)
(2.70549e-09 -2.93203e-09 2.86656e-08)
(-3.14972e-09 -3.12998e-10 2.16034e-07)
(-4.95608e-10 -1.62791e-09 1.11772e-07)
(2.82278e-10 -1.08369e-09 1.27751e-07)
(-1.13952e-09 -3.31728e-09 2.42355e-07)
(-2.06455e-09 2.75078e-10 1.5714e-07)
(-9.29255e-10 7.0768e-10 1.88639e-07)
(-9.69518e-11 -4.27039e-10 2.23095e-07)
(-8.65643e-10 3.47994e-09 4.43737e-08)
(2.44617e-09 -2.66111e-09 2.38802e-07)
(1.31218e-09 3.77479e-10 1.85909e-07)
(-8.73468e-10 -3.24818e-09 2.7862e-07)
(1.85702e-10 -2.68908e-09 2.13859e-07)
(9.53748e-10 7.24207e-10 3.19724e-07)
(4.68486e-09 -1.37146e-09 1.53658e-07)
(-3.95817e-10 -1.3673e-09 2.31729e-08)
(1.54376e-09 6.2773e-10 4.15947e-08)
(-2.67079e-09 4.35643e-09 4.4583e-07)
(-4.00896e-09 1.8852e-09 2.23473e-08)
(-2.75133e-09 -4.15941e-09 1.90585e-07)
(-1.67853e-09 5.36774e-09 8.24624e-08)
(1.86368e-09 1.64021e-11 2.63427e-07)
(1.60147e-10 -1.5359e-09 3.07833e-07)
(1.72375e-09 8.60408e-10 2.87249e-07)
(3.83645e-09 5.0469e-10 1.37928e-07)
(4.93677e-09 7.97126e-10 3.03683e-07)
(-8.41719e-10 9.00121e-09 7.80366e-08)
(1.40693e-09 -2.96567e-09 9.99998e-08)
(7.91905e-10 -2.0996e-09 1.68394e-07)
(2.12951e-09 -3.55532e-09 1.69117e-07)
(-3.335e-08 -4.46323e-09 2.68842e-07)
(-1.42196e-09 -4.6112e-09 2.03824e-07)
(-1.98255e-09 -2.63816e-10 7.33999e-08)
(3.55804e-09 3.70206e-10 1.14677e-07)
(-5.51209e-10 -1.188e-09 2.17046e-07)
(2.19542e-10 4.1017e-10 1.73183e-07)
(-4.42152e-09 5.42167e-10 3.28816e-07)
(-8.77813e-10 1.67553e-09 1.74216e-07)
(6.0392e-10 6.0192e-09 4.25023e-07)
(-4.76017e-09 -3.31152e-09 1.71763e-07)
(-2.70578e-09 3.28602e-09 3.27987e-07)
(-2.48386e-10 2.32259e-09 2.25322e-07)
(-7.58807e-10 -1.35697e-09 1.70856e-07)
(1.02321e-09 -3.37912e-10 2.88955e-07)
(-4.35744e-09 -3.84098e-09 1.21043e-07)
(3.18185e-09 -1.5366e-09 2.7758e-08)
(-4.21974e-10 -1.72377e-09 2.66465e-07)
(2.09252e-09 4.28928e-09 6.68337e-08)
(-2.75091e-10 -3.75135e-10 3.39384e-08)
(-2.0766e-09 -2.64472e-09 3.33427e-07)
(1.06162e-09 4.53746e-10 1.83984e-07)
(-1.86115e-09 4.89188e-09 1.16397e-07)
(-1.18208e-09 -1.59589e-10 2.04922e-07)
(5.85512e-11 2.38695e-09 2.76746e-07)
(-1.52981e-09 -1.80561e-09 3.25907e-07)
(1.35267e-09 -1.12492e-09 2.17146e-07)
(7.88559e-10 -1.86702e-09 3.46734e-08)
(9.65022e-10 -9.70419e-10 2.79634e-07)
(-4.8981e-10 2.46867e-10 1.71371e-07)
(-3.2544e-10 1.55775e-09 1.09038e-07)
(1.15521e-09 -1.92616e-09 2.27147e-07)
(9.80206e-10 7.18971e-10 2.00554e-07)
(1.83111e-09 1.59466e-09 1.69783e-07)
(3.98975e-10 3.18803e-10 1.99138e-07)
(2.52309e-10 -4.95374e-10 2.43935e-07)
(9.9345e-10 2.19941e-09 1.87917e-07)
(-8.05946e-10 1.33644e-09 8.78733e-08)
(-2.61787e-10 8.07234e-10 2.34626e-08)
(2.05115e-09 4.42049e-09 4.4056e-08)
(-2.26563e-10 3.04391e-09 2.37539e-07)
(-3.4398e-08 2.57105e-09 2.66467e-07)
(-1.04668e-08 1.04129e-09 1.1554e-07)
(-2.24995e-10 2.97847e-10 1.21857e-07)
(1.48222e-09 -2.91513e-09 2.54017e-07)
(-9.54114e-10 1.8285e-10 3.07685e-07)
(-1.17261e-09 1.4217e-09 1.9671e-07)
(1.80373e-09 -2.2758e-09 3.26079e-07)
(4.13467e-10 -1.26732e-09 3.34547e-07)
(-1.10584e-09 -1.34921e-10 2.02365e-07)
(-1.20401e-09 3.54723e-10 1.24021e-07)
(-4.88156e-10 1.24543e-09 2.94768e-08)
(-4.56142e-08 2.19092e-09 2.39063e-07)
(7.14941e-10 4.1054e-09 1.00622e-07)
(-3.28361e-09 3.61678e-09 7.31641e-08)
(4.52313e-09 -1.33208e-10 7.74974e-08)
(-2.12638e-10 -1.48443e-09 1.49277e-07)
(-9.0949e-10 -4.71885e-10 1.88911e-07)
(-8.05585e-10 -3.91139e-10 2.06147e-07)
(-1.54842e-09 1.61475e-09 2.06192e-08)
(6.03417e-10 5.55168e-10 1.68862e-07)
(2.61983e-09 -1.72774e-09 7.81552e-08)
(-6.19133e-10 1.11277e-09 1.57303e-07)
(-5.25551e-10 1.70805e-09 6.44283e-08)
(3.02245e-09 3.9299e-10 1.70083e-07)
(2.68717e-09 3.16051e-09 2.32873e-07)
(-1.35046e-10 1.268e-09 1.63996e-07)
(3.56824e-09 1.18347e-10 2.3433e-08)
(-2.52297e-10 7.12006e-09 1.27717e-07)
(-9.51783e-10 -1.32345e-10 2.29752e-07)
(-8.15613e-11 -3.07501e-09 2.98294e-08)
(-9.22245e-09 -1.01095e-11 2.79196e-07)
(7.08664e-10 -2.65701e-09 1.8563e-07)
(2.43515e-09 -1.27463e-09 2.96829e-07)
(5.50232e-09 -1.66648e-09 2.16338e-07)
(2.00305e-09 6.80709e-10 1.01372e-07)
(1.8919e-09 -2.27329e-09 3.48924e-07)
(-1.6961e-08 -6.0866e-09 1.42048e-07)
(-3.8284e-09 -1.23612e-09 2.551e-07)
(-1.43197e-08 6.78475e-10 1.52562e-07)
(-1.47911e-09 1.67669e-09 1.61744e-07)
(-9.91167e-10 5.89707e-09 1.63645e-07)
(-2.98746e-10 -9.02102e-10 2.15028e-07)
(1.65481e-09 -4.7054e-09 4.36061e-07)
(8.81379e-10 6.79087e-10 9.21378e-08)
(5.93614e-10 -2.76932e-09 3.36265e-07)
(-2.19926e-09 1.71632e-09 1.2979e-07)
(2.37041e-09 -1.77534e-10 3.4338e-07)
(1.9056e-09 -4.7821e-10 2.61709e-07)
(-1.71287e-09 -6.02318e-09 7.84397e-08)
(-6.7067e-10 5.2152e-10 2.10813e-07)
(3.5561e-09 1.86698e-09 3.58682e-07)
(1.6138e-10 -5.89835e-12 2.12088e-07)
(-1.40195e-10 2.42723e-10 1.99563e-07)
(4.77111e-09 -1.84066e-09 2.73581e-08)
(-3.69078e-09 -1.29072e-09 2.33121e-08)
(-3.33665e-10 2.79511e-09 2.87654e-07)
(5.95156e-10 -3.15102e-10 2.27585e-07)
(9.81091e-11 1.38503e-09 1.7219e-07)
(-2.67448e-09 1.44358e-09 4.33195e-08)
(1.05905e-12 2.65691e-11 7.23486e-08)
(-1.95709e-09 5.6619e-09 3.24917e-07)
(-1.28829e-09 3.96222e-10 1.29774e-07)
(2.33383e-09 1.57105e-10 2.51065e-07)
(5.8765e-10 -6.86774e-10 2.22757e-07)
(-2.52858e-10 -2.35768e-09 1.78439e-07)
(1.53867e-10 -2.61641e-09 1.91903e-07)
(-4.16599e-11 -4.7591e-10 1.36264e-07)
(-2.07531e-09 1.97305e-10 1.66381e-07)
(-4.47542e-09 4.10796e-09 1.01535e-07)
(1.35965e-09 2.47084e-09 2.40997e-07)
(4.66687e-10 -3.10462e-09 1.98827e-07)
(-1.40339e-09 1.31868e-09 1.87333e-07)
(6.41375e-11 -9.17461e-11 1.75944e-07)
(-8.32365e-10 -2.97584e-09 3.23871e-07)
(9.96095e-10 2.25115e-09 2.46155e-07)
(3.88666e-09 5.1332e-09 7.94818e-08)
(1.86183e-09 8.92221e-10 5.11718e-08)
(-2.23872e-09 -2.84569e-09 2.43011e-08)
(-4.33245e-09 2.42198e-10 2.02973e-07)
(-9.36618e-12 -3.01274e-11 2.26248e-07)
(-1.13775e-09 9.59497e-10 2.5391e-07)
(-2.30846e-10 -3.87701e-09 1.93634e-07)
(1.52286e-09 -5.97617e-10 3.49861e-08)
(-3.23727e-11 -3.37515e-09 2.72003e-08)
(-2.04973e-09 -3.23593e-09 1.87789e-07)
(-2.0902e-10 2.16961e-09 2.0469e-07)
(-2.06206e-09 1.00223e-09 2.47981e-07)
(2.26921e-09 -2.03528e-09 2.92238e-07)
(-1.34107e-09 -1.45208e-09 1.97745e-07)
(-1.98199e-09 2.29771e-09 2.59885e-07)
(1.4793e-09 -2.35629e-09 3.7034e-07)
(-1.16355e-09 3.5089e-09 3.82111e-08)
(-7.34286e-10 1.394e-09 1.85487e-07)
(3.28649e-09 -1.91937e-09 8.35933e-08)
(-9.24328e-09 -1.0933e-09 9.70895e-08)
(8.13426e-10 -3.1179e-10 1.12552e-07)
(-1.08542e-09 4.1062e-09 1.59039e-07)
(1.67218e-09 -9.5899e-10 2.34895e-07)
(-4.62425e-09 2.51683e-09 2.355e-08)
(4.31347e-09 -1.98051e-09 2.86481e-07)
(-2.05282e-10 7.21596e-11 2.10507e-07)
(-1.68059e-09 6.10083e-10 1.67432e-07)
(2.64675e-09 -2.10893e-09 2.22544e-07)
(-4.07525e-10 -5.38344e-10 1.49661e-07)
(-2.22111e-09 2.41205e-10 2.06126e-07)
(-1.27236e-09 -2.5027e-10 2.43133e-07)
(-4.14871e-10 -2.57029e-10 2.30665e-07)
(-6.47853e-09 -1.28856e-09 1.76846e-07)
(4.58421e-10 1.64567e-09 2.20749e-07)
(-3.21213e-09 3.05117e-11 2.65874e-07)
(1.01358e-09 -9.27118e-10 2.21927e-08)
(-1.24928e-09 1.83164e-09 2.40643e-07)
(1.40943e-09 1.96032e-09 1.90795e-07)
(-5.99069e-09 -4.42444e-09 7.43872e-08)
(-1.38883e-09 1.76053e-09 1.92701e-07)
(5.85559e-10 1.84558e-09 2.84334e-07)
(3.34818e-11 1.17615e-10 2.22642e-07)
(9.90603e-10 3.46383e-09 1.32272e-07)
(-3.00533e-09 1.78633e-09 2.17145e-08)
(-8.88653e-10 7.42601e-10 2.06288e-07)
(-1.67805e-09 6.97639e-09 3.33405e-07)
(-2.8255e-10 8.29717e-11 2.05737e-07)
(-6.92156e-10 4.55571e-10 1.88966e-07)
(-6.06938e-09 9.0563e-10 6.57695e-08)
(1.54611e-09 -2.09991e-10 2.33105e-07)
(-4.2855e-09 -2.92721e-10 3.0317e-08)
(-3.86333e-10 1.10147e-10 1.47516e-07)
(-2.45724e-08 9.722e-10 2.08465e-07)
(-9.72733e-10 -3.57463e-11 2.10713e-07)
(-1.05167e-09 3.15146e-09 1.0528e-07)
(-3.71654e-09 9.94032e-10 1.94799e-07)
(-1.60179e-09 2.00176e-09 1.26697e-07)
(3.93804e-09 -3.68226e-09 5.64283e-08)
(3.00679e-09 -1.89497e-10 3.4664e-07)
(-1.25607e-09 1.92125e-09 1.64163e-07)
(-1.50034e-09 -8.76808e-10 2.18832e-08)
(2.10961e-09 -1.99149e-09 2.34234e-07)
(-1.78489e-10 -3.68164e-09 2.10759e-07)
(-9.02504e-10 2.43793e-09 4.61005e-08)
(3.44666e-09 6.37562e-09 1.45058e-07)
(-5.0106e-09 4.32934e-09 1.0949e-07)
(-4.27644e-10 1.41132e-09 1.67329e-07)
(2.47554e-09 -5.059e-11 1.99608e-07)
(-1.21671e-09 1.32652e-09 3.85756e-08)
(5.5561e-09 1.59635e-10 1.05879e-07)
(5.21584e-10 1.10302e-09 1.17154e-07)
(1.98963e-09 2.76276e-10 1.81141e-07)
(3.19723e-09 -1.25994e-09 2.55709e-07)
(-4.13263e-09 -2.67357e-09 2.75784e-08)
(2.20188e-09 2.146e-09 3.21347e-07)
(-8.91438e-10 -2.05583e-10 2.15436e-07)
(-2.19327e-09 -1.01436e-10 2.09072e-07)
(-2.95775e-09 -6.13471e-09 1.14163e-07)
(6.83406e-10 -2.50244e-10 2.82853e-07)
(1.68828e-09 -3.3317e-09 2.68316e-08)
(-2.80088e-09 4.57352e-10 2.54477e-07)
(4.62512e-10 -5.4312e-10 3.34218e-08)
(3.07701e-09 -7.23895e-09 1.55495e-07)
(4.60014e-10 -2.75276e-10 2.00274e-07)
(-2.80073e-09 3.60792e-09 1.54796e-07)
(-3.08313e-09 2.27147e-09 2.34726e-08)
(1.42302e-09 -1.89917e-09 6.17788e-08)
(-1.41931e-09 4.38962e-09 8.96229e-08)
(2.97875e-09 -5.43936e-09 1.54133e-07)
(4.05296e-10 2.31121e-09 3.06448e-07)
(-1.2515e-09 1.77302e-09 6.66426e-08)
(3.99752e-09 -5.80605e-09 1.56019e-07)
(-2.07619e-08 -9.08772e-10 2.19409e-07)
(-1.88117e-09 1.06683e-09 1.69409e-07)
(3.37679e-09 -5.23855e-10 3.43506e-08)
(1.29709e-09 2.96509e-09 2.38067e-07)
(-1.28568e-08 -8.48507e-09 1.46235e-07)
(1.22771e-09 2.60085e-11 1.6533e-07)
(-2.36721e-09 1.14897e-09 1.18441e-07)
(-1.1969e-09 1.76379e-09 1.42164e-07)
(4.38369e-09 4.29446e-09 1.24931e-07)
(-1.11066e-09 1.01685e-09 1.59515e-07)
(-9.11735e-10 -1.04469e-09 1.24955e-07)
(5.71721e-09 -7.42683e-09 8.3634e-08)
(1.36222e-09 1.29016e-10 2.38009e-07)
(-3.19285e-09 -1.90703e-09 7.49409e-08)
(2.77096e-09 -2.10961e-09 1.95018e-08)
(-8.5717e-10 -2.52149e-09 2.88419e-07)
(-2.49088e-10 -1.71434e-09 1.4566e-07)
(-1.76628e-09 1.60276e-09 2.88791e-07)
(3.47075e-09 -3.32851e-09 2.27849e-07)
(3.58508e-09 -9.5307e-11 3.63112e-07)
(2.45715e-09 -1.14279e-09 1.56778e-07)
(3.21128e-09 -2.58281e-11 3.42278e-07)
(2.80851e-09 5.57177e-09 1.14629e-07)
(-1.12893e-09 -8.97175e-10 1.20039e-07)
(2.19876e-09 5.3226e-10 3.02123e-07)
(-5.48968e-09 -3.85584e-09 3.77761e-08)
(-4.9491e-10 1.15897e-09 2.76567e-07)
(3.84612e-10 -5.37336e-09 1.32734e-07)
(2.70974e-09 3.49075e-09 3.69538e-08)
(4.69191e-10 4.52563e-10 2.63129e-07)
(-3.08209e-09 8.13158e-10 7.11953e-08)
(-1.11324e-09 6.80479e-10 1.90776e-07)
(4.81618e-10 2.75241e-10 1.68875e-07)
(-2.87758e-09 3.58493e-09 3.62135e-07)
(3.48557e-09 8.23551e-09 1.11668e-07)
(8.78948e-10 -4.80067e-10 2.32289e-07)
(1.35007e-09 -2.16845e-10 1.68279e-07)
(-2.13668e-09 5.72866e-10 2.48484e-07)
(1.7636e-09 8.62568e-10 2.54896e-07)
(1.10132e-09 2.95807e-10 2.25485e-07)
(2.16863e-10 -1.12342e-09 1.30444e-07)
(4.41256e-09 -6.84562e-10 5.62688e-08)
(1.70047e-09 -1.66059e-10 7.92071e-08)
(-1.30802e-09 8.28861e-10 1.43491e-07)
(-2.23135e-09 -9.70605e-10 2.47672e-07)
(1.00069e-09 3.00748e-09 3.38052e-08)
(-2.25855e-09 -3.30135e-10 2.10642e-07)
(-2.0596e-09 3.78914e-09 3.85304e-07)
(1.06352e-09 2.40012e-09 2.85615e-07)
(1.4517e-09 2.232e-09 2.98596e-07)
(-1.00168e-09 2.56761e-09 2.61408e-07)
(-1.55959e-09 2.65439e-09 2.4502e-08)
(-5.73883e-10 1.38683e-09 1.87621e-07)
(2.88577e-09 -1.46523e-09 1.55639e-07)
(-1.59208e-09 -1.34716e-09 2.31531e-07)
(3.14582e-10 -4.49133e-11 1.72308e-07)
(-1.96201e-09 -2.11214e-09 4.20244e-08)
(-1.13432e-09 2.01295e-09 1.61073e-07)
(-1.98481e-09 4.61085e-09 1.63671e-07)
(1.93422e-09 7.1491e-10 2.45488e-07)
(8.8008e-10 2.26743e-09 2.11088e-07)
(-4.29346e-10 -4.36313e-11 1.8762e-07)
(1.63893e-09 2.09694e-09 1.65262e-08)
(-2.81023e-09 1.39125e-09 2.47296e-08)
(-1.54437e-10 -2.3649e-09 1.45859e-07)
(-1.34753e-09 9.24571e-10 2.45689e-07)
(-1.34832e-10 1.69055e-09 1.79187e-07)
(-3.93941e-10 2.09625e-09 1.57836e-07)
(1.15741e-09 2.79325e-09 1.72823e-07)
(-1.28683e-10 2.92529e-09 2.32861e-07)
(5.04603e-10 -9.61945e-10 2.33322e-07)
(1.00089e-09 2.03291e-09 2.30866e-08)
(2.03687e-10 -1.76375e-09 1.14923e-07)
(-1.14529e-08 1.80827e-09 1.69643e-07)
(-1.91408e-09 3.77122e-09 5.47217e-08)
(-1.22726e-09 6.87721e-09 9.46457e-08)
(-6.43504e-10 2.87406e-09 2.92913e-07)
(1.49559e-09 5.57152e-10 2.04138e-07)
(-2.25236e-10 -1.47358e-09 1.88625e-07)
(-4.28077e-10 -7.33717e-10 2.42508e-07)
(-4.47022e-09 2.02658e-09 1.49609e-07)
(-3.15686e-10 -6.93206e-10 2.62761e-07)
(2.94551e-09 -3.21585e-09 1.90499e-07)
(2.41493e-09 -1.46209e-09 3.57643e-07)
(3.51398e-10 -1.96915e-09 1.76427e-07)
(2.64464e-09 -2.07835e-09 1.8664e-07)
(1.93521e-09 -1.01511e-09 2.53171e-07)
(1.92151e-09 1.67598e-09 5.6124e-08)
(2.90125e-09 7.43688e-11 4.65165e-07)
(-1.68702e-09 -1.9836e-09 3.97477e-08)
(-1.58457e-08 -2.14958e-09 1.48059e-07)
(3.92659e-09 -1.08454e-09 1.32447e-07)
(-1.24065e-08 -9.83455e-10 1.56719e-07)
(2.19153e-09 -1.25457e-09 2.13173e-07)
(-4.32306e-08 1.60691e-09 2.88058e-07)
(-2.82475e-10 -8.73507e-11 1.13664e-07)
(6.37931e-10 7.93943e-10 2.68124e-07)
(-1.2258e-09 -8.24206e-10 3.04585e-07)
(1.42541e-09 4.89466e-10 1.74044e-07)
(-1.79563e-09 -1.71574e-10 4.20917e-08)
(-5.67392e-09 9.36682e-11 1.18476e-07)
(-2.9926e-08 8.18441e-10 2.08752e-07)
(2.52868e-10 -6.66946e-10 1.72006e-07)
(-5.29579e-10 2.52461e-09 1.05483e-07)
(-1.26749e-08 1.61605e-09 2.11204e-07)
(-1.25313e-09 1.63222e-09 2.07926e-07)
(5.69145e-10 7.53964e-10 3.24465e-07)
(-2.81564e-09 -1.36519e-09 5.1604e-08)
(2.72559e-09 2.56747e-09 6.22437e-08)
(-1.56312e-09 -1.39155e-09 3.03908e-08)
(1.12497e-09 1.34482e-09 2.50178e-08)
(-2.30703e-10 3.00515e-11 5.27935e-08)
(-6.89839e-09 1.86904e-09 2.19019e-07)
(-1.47782e-10 1.4397e-09 1.74027e-07)
(-2.01636e-09 -2.85002e-09 2.3346e-08)
(-3.58709e-09 1.28914e-09 2.56584e-08)
(1.65488e-09 1.62391e-09 2.75612e-07)
(-2.39538e-08 5.25418e-09 1.65191e-07)
(-3.65401e-09 6.53118e-11 5.47589e-08)
(1.75659e-11 -2.56326e-10 2.10832e-07)
(-2.04635e-09 7.06646e-10 1.14617e-07)
(1.32409e-09 1.09692e-10 1.9679e-07)
(2.93916e-09 3.35417e-09 5.23389e-08)
(-8.71501e-10 -1.38031e-09 1.04732e-07)
(8.06462e-10 1.0611e-09 2.02137e-07)
(-4.9333e-10 3.97137e-10 2.22618e-07)
(-9.33688e-10 1.20012e-09 3.60486e-07)
(-2.14686e-09 5.49774e-09 5.32397e-08)
(-7.795e-10 -2.96251e-09 2.82261e-08)
(-3.56851e-08 9.20615e-10 2.0133e-07)
(-5.0175e-09 2.79138e-09 3.37002e-08)
(-8.40863e-10 4.65023e-09 3.02488e-07)
(-6.26724e-09 -2.5039e-09 3.44157e-08)
(5.25771e-10 3.94281e-09 1.62647e-07)
(-8.64013e-11 -4.10243e-10 2.45693e-07)
(1.75796e-09 2.75171e-09 3.59007e-07)
(-2.74983e-09 -3.09838e-09 7.04687e-08)
(1.47122e-09 -1.68246e-09 1.50952e-07)
(-2.32505e-09 -7.09608e-10 4.56167e-08)
(-4.55306e-09 -5.31223e-10 3.42012e-08)
(2.66283e-10 -1.35917e-09 2.09186e-07)
(-2.99363e-09 1.4258e-09 1.85429e-08)
(1.74664e-09 -1.5034e-09 1.50798e-07)
(-2.91471e-09 -2.86549e-09 7.13204e-08)
(5.21732e-11 1.53588e-09 2.89389e-07)
(2.38949e-10 5.01657e-10 2.14156e-07)
(3.97847e-09 1.7292e-09 2.30922e-08)
(-4.03803e-09 -7.28417e-09 1.59582e-07)
(-1.85373e-10 6.03064e-10 2.23904e-07)
(-1.11498e-09 2.38818e-09 3.64608e-08)
(1.60155e-10 -7.78322e-10 2.43852e-07)
(-3.15821e-09 7.56219e-09 9.29315e-08)
(1.08768e-09 4.40222e-10 2.29575e-07)
(-2.0218e-10 1.51361e-09 1.79684e-07)
(4.38722e-09 2.53375e-10 6.67242e-08)
(-4.51423e-09 -1.14491e-09 2.52963e-08)
(2.10995e-10 -3.01035e-10 1.09753e-07)
(-3.94882e-08 2.10633e-10 2.42059e-07)
(1.49285e-09 1.77439e-09 2.46756e-07)
(1.04588e-09 5.74946e-09 9.03638e-08)
(3.33909e-09 7.80486e-12 2.06179e-07)
(2.88239e-10 1.56612e-09 2.89964e-08)
(1.0272e-10 1.42361e-09 1.58381e-07)
(5.20153e-10 9.308e-10 2.57444e-08)
(-6.5971e-10 3.79083e-09 2.83016e-07)
(2.44941e-10 2.18755e-09 2.83248e-07)
(2.54534e-10 4.35925e-10 1.85923e-07)
(-1.98449e-09 -5.35727e-10 1.74963e-08)
(1.49097e-09 2.18997e-09 3.1561e-07)
(4.74373e-10 1.11193e-09 1.78462e-07)
(-8.4436e-11 2.10979e-09 3.19097e-07)
(-1.93794e-10 1.35163e-10 7.27721e-08)
(-3.05056e-08 7.59363e-10 2.21628e-07)
(-1.64196e-09 1.63942e-09 2.3233e-07)
(4.92115e-09 5.23954e-10 7.74851e-08)
(1.62773e-10 -8.89424e-10 1.9565e-07)
(-3.96766e-08 4.35832e-09 2.09815e-07)
(-1.356e-10 -3.52984e-10 1.8578e-07)
(-1.83451e-09 -2.40745e-09 3.89253e-08)
(-2.78094e-09 5.11128e-09 1.22732e-07)
(5.11571e-10 2.08752e-10 1.5128e-07)
(3.49917e-10 -2.05264e-09 2.15282e-07)
(-7.60031e-10 1.43905e-09 3.81089e-08)
(6.88472e-10 -1.78978e-09 2.27989e-07)
(9.37272e-09 2.1012e-09 1.81977e-07)
(-2.71552e-09 2.79355e-09 3.09874e-08)
(2.64567e-10 2.36605e-11 1.63301e-07)
(-1.66303e-08 8.87572e-10 1.57851e-07)
(-2.56375e-09 -6.33404e-09 3.26466e-07)
(4.9154e-10 2.1074e-10 1.6514e-07)
(6.54971e-10 1.34698e-10 1.47826e-07)
(8.57769e-10 8.38022e-10 2.5502e-07)
(1.94837e-09 3.72801e-09 2.54408e-07)
(3.99061e-09 1.04251e-09 8.32936e-08)
(-1.62925e-09 7.28442e-09 8.28157e-08)
(3.50963e-09 -7.24003e-10 3.06309e-07)
(-2.74971e-08 -3.33633e-10 2.23839e-07)
(3.85136e-10 8.54343e-10 2.12021e-07)
(1.54436e-09 8.856e-11 1.89453e-07)
(2.36491e-09 -1.86497e-09 1.40932e-07)
(3.63274e-10 -1.70006e-11 2.99365e-07)
(-1.34387e-09 4.59438e-12 1.74025e-07)
(-4.24561e-09 -3.86507e-09 1.92974e-07)
(-3.21577e-09 5.2169e-09 2.39425e-07)
(-2.133e-09 3.36351e-09 5.3424e-08)
(-5.00558e-09 -3.02858e-09 1.90383e-07)
(-7.16921e-09 -4.0292e-09 4.73225e-08)
(-1.26085e-09 -9.36705e-10 2.82693e-07)
(-1.91346e-09 -2.32533e-09 2.64347e-07)
(1.38138e-10 4.67172e-09 1.80572e-07)
(1.50671e-10 -1.66003e-09 1.73824e-07)
(1.13542e-09 -2.50309e-09 2.08379e-08)
(3.74667e-10 -3.73379e-11 1.1797e-07)
(-5.89839e-09 -1.93986e-09 8.85087e-08)
(-1.1135e-09 1.48801e-10 2.12502e-07)
(5.05985e-10 1.61363e-09 1.90033e-07)
(-2.46644e-08 -1.44065e-09 2.20049e-07)
(-1.60536e-09 2.24648e-09 2.65955e-07)
(-5.18897e-10 3.39021e-09 9.18979e-08)
(-1.15111e-08 6.574e-10 1.36449e-07)
(-2.92437e-09 -1.90949e-09 2.37292e-07)
(2.69433e-09 1.80328e-09 3.38735e-08)
(-2.49086e-12 1.86008e-09 1.94661e-07)
(-8.67744e-10 2.52922e-09 6.14117e-08)
(-1.00115e-09 -4.18346e-10 1.9456e-07)
(5.5114e-09 -2.05417e-09 3.86704e-08)
(3.24169e-09 2.92605e-09 2.95612e-07)