/*--------------------------------*- C++ -*----------------------------------*\
| =========                 |                                                 |
| \\      /  F ield         | OpenFOAM: The Open Source CFD Toolbox           |
|  \\    /   O peration     | Version:  2406                                  |
|   \\  /    A nd           | Website:  www.openfoam.com                      |
|    \\/     M anipulation  |                                                 |
\*---------------------------------------------------------------------------*/
FoamFile
{
    version     2.0;
    format      ascii;
    arch        "LSB;label=32;scalar=64";
    class       volVectorField;
    location    "18";
    object      momentum:momentum;
}
// * * * * * * * * * * * * * * * * * * * * * * * * * * * * * * * * * * * * * //

dimensions      [1 1 -1 0 0 0 0];

internalField   nonuniform List<vector> 
59516
(
(2.47071e-07 1.07933e-09 -8.21674e-10)
(1.78808e-07 2.28036e-10 9.9523e-11)
(2.1271e-07 -3.03594e-09 -2.97894e-10)
(1.67275e-07 3.44225e-09 1.3078e-09)
(1.98394e-07 1.01944e-09 -6.89e-09)
(5.036e-08 -2.40401e-09 -5.33343e-09)
(2.15461e-07 -4.70683e-11 -2.16984e-09)
(2.11285e-07 8.14658e-10 3.28288e-09)
(1.64672e-07 2.45808e-10 3.00102e-09)
(9.35014e-08 -1.99788e-09 4.88953e-09)
(1.83083e-07 1.09434e-09 -2.92748e-10)
(1.16856e-07 2.12206e-09 -5.82606e-09)
(3.35309e-07 4.33394e-09 -3.94867e-09)
(2.07025e-08 8.69453e-11 -2.5393e-10)
(1.7948e-07 4.28951e-09 8.26448e-09)
(9.60422e-08 9.32992e-09 -4.32788e-09)
(2.24374e-07 3.21956e-11 3.3757e-11)
(1.62129e-07 8.0178e-09 -6.86812e-09)
(3.40949e-07 7.94733e-09 1.16802e-09)
(3.18321e-07 -2.94823e-09 -2.6128e-10)
(1.13641e-07 3.44338e-10 -1.64509e-09)
(2.96182e-07 1.40885e-09 1.34114e-09)
(3.19439e-07 4.25167e-10 -5.06455e-10)
(4.24758e-08 -2.01313e-09 3.59752e-10)
(2.79455e-07 -1.73168e-09 2.55209e-09)
(2.24062e-07 5.12149e-09 8.44377e-09)
(6.28412e-08 4.13436e-10 -2.82883e-09)
(8.19138e-08 5.91888e-09 2.00291e-09)
(1.62043e-07 3.25961e-09 -1.01863e-09)
(1.71781e-08 -2.96956e-09 3.46403e-10)
(1.88128e-07 -3.56315e-08 -7.61261e-09)
(9.20803e-08 5.87775e-09 -1.49654e-09)
(1.69044e-07 -1.03996e-10 1.39187e-09)
(1.78169e-07 -1.3964e-09 5.96833e-09)
(1.25674e-07 -1.94507e-10 1.29351e-09)
(3.74391e-07 -1.43251e-09 1.28279e-09)
(1.57638e-08 -1.35523e-09 -3.33215e-09)
(1.33448e-07 5.93237e-09 -1.11239e-08)
(2.92252e-07 -5.86234e-09 1.22235e-09)
(2.46457e-07 -5.27431e-09 2.02119e-09)
(2.76172e-07 -3.1986e-09 2.24408e-10)
(3.86743e-07 -6.70218e-09 -9.20925e-09)
(3.21818e-07 1.76638e-09 1.47568e-09)
(1.16926e-07 -2.51152e-09 2.01354e-09)
(2.57675e-07 -2.9559e-10 1.22967e-09)
(1.16288e-07 -5.01954e-09 -5.03368e-09)
(3.21221e-07 1.32595e-09 -4.15869e-09)
(2.20513e-07 7.14824e-10 1.11727e-10)
(2.49646e-07 -1.89961e-08 2.79781e-08)
(2.15962e-07 2.0797e-09 2.96544e-09)
(1.63568e-07 1.69835e-08 -2.34324e-08)
(8.69625e-08 -8.01393e-09 5.75265e-09)
(3.25016e-07 4.93852e-10 -3.22319e-09)
(3.03508e-07 2.67003e-10 -2.18024e-09)
(9.43701e-08 6.46365e-09 2.25757e-10)
(2.46336e-07 -8.1321e-10 -1.03758e-09)
(1.86112e-07 6.24482e-09 6.83346e-09)
(9.32667e-08 7.74374e-09 -8.28599e-09)
(1.6774e-07 -2.77278e-09 6.81623e-10)
(1.38748e-07 3.12878e-09 3.93492e-09)
(1.89091e-07 4.00538e-11 1.06648e-09)
(1.80279e-08 2.81477e-09 -4.2269e-10)
(2.16028e-07 -2.35165e-09 -9.87467e-10)
(2.81632e-07 -7.94039e-10 -1.54791e-09)
(3.06049e-07 2.52993e-09 -1.56398e-09)
(1.94381e-07 7.50684e-10 8.39848e-10)
(2.39996e-08 -1.67416e-09 2.34004e-09)
(7.82347e-08 1.509e-09 -1.18462e-10)
(1.95085e-07 -6.73418e-09 3.48755e-08)
(1.64622e-07 1.24401e-09 8.8339e-10)
(6.53714e-08 2.63242e-09 2.24688e-10)
(1.33552e-07 4.21129e-10 -3.58937e-10)
(2.8006e-08 1.732e-09 -5.58188e-09)
(1.75096e-07 -1.6251e-09 -4.60557e-10)
(2.9275e-07 -3.03805e-09 6.78588e-10)
(3.22023e-07 1.47318e-09 5.57541e-10)
(1.84584e-07 7.6443e-10 4.18619e-10)
(2.06904e-07 1.82188e-09 -1.08485e-09)
(9.99008e-08 -5.23403e-09 5.23907e-09)
(1.70279e-07 1.42469e-09 2.531e-09)
(6.0012e-08 6.85705e-09 4.0352e-09)
(1.54693e-07 9.33088e-10 1.19982e-09)
(1.71359e-07 6.69403e-10 1.32554e-09)
(2.29732e-08 -9.78913e-10 4.10101e-09)
(1.95107e-07 6.97845e-10 1.49018e-09)
(3.04558e-07 -2.7184e-09 -4.17966e-10)
(3.79105e-08 -1.93084e-09 3.92506e-10)
(4.65679e-07 -3.17826e-09 1.56345e-09)
(1.24522e-07 3.61343e-09 1.12289e-08)
(1.68149e-07 1.19822e-08 -5.23224e-09)
(1.76116e-07 2.08123e-10 -1.07778e-08)
(1.72843e-07 2.27161e-09 7.9124e-10)
(2.11645e-07 -5.79036e-10 1.04151e-09)
(1.68497e-07 -3.57293e-10 -6.33318e-10)
(1.50653e-07 -1.02581e-09 4.67631e-10)
(1.82545e-07 -1.65675e-08 7.23156e-09)
(1.17776e-07 -1.17754e-09 1.60782e-09)
(9.80564e-08 -3.85541e-09 -7.61949e-09)
(1.26689e-07 3.51374e-09 -1.6743e-10)
(1.89553e-07 2.08272e-11 1.57416e-09)
(7.09924e-08 1.16592e-09 3.61263e-09)
(3.25282e-08 1.58203e-09 -4.09553e-09)
(2.92488e-08 7.5633e-10 4.79341e-09)
(1.0082e-07 -7.86467e-10 -5.12418e-09)
(2.24785e-07 4.35262e-10 -1.19827e-09)
(1.44702e-07 2.85668e-10 9.39854e-10)
(6.90942e-08 7.71493e-09 -2.82606e-09)
(1.48642e-07 3.73526e-10 -3.87531e-10)
(1.89447e-07 -1.63115e-09 -1.84515e-09)
(2.16647e-07 2.95313e-09 -1.14662e-08)
(2.74118e-07 2.53209e-08 -2.46974e-08)
(5.20113e-08 7.24255e-09 -1.33013e-09)
(2.14172e-07 4.27433e-09 -1.07722e-08)
(2.157e-07 2.87027e-08 -1.40454e-08)
(1.92703e-07 -7.81175e-10 1.11265e-09)
(1.48567e-07 1.58477e-09 -8.94762e-11)
(1.44335e-07 1.65214e-09 -8.06035e-09)
(1.39106e-07 1.23486e-09 5.92004e-10)
(2.23004e-08 -8.40713e-10 5.56318e-10)
(2.38936e-07 2.56212e-09 1.65041e-10)
(3.16272e-07 1.91644e-09 -1.00313e-10)
(1.45976e-07 1.34007e-09 4.73043e-10)
(1.41753e-07 5.92383e-10 -7.41926e-10)
(1.51098e-07 8.00332e-10 6.03323e-10)
(1.29877e-07 -1.26262e-08 2.80546e-09)
(1.52087e-07 1.47822e-09 -2.90047e-09)
(4.52526e-08 -5.7921e-10 3.35978e-09)
(2.05904e-07 -1.10261e-08 6.14043e-10)
(1.62604e-07 -4.37703e-09 2.32107e-08)
(1.24693e-07 3.20237e-10 8.42034e-10)
(2.18297e-07 7.81601e-10 2.96557e-09)
(3.44321e-07 3.25854e-09 4.06245e-09)
(2.73903e-08 1.93488e-09 -2.16474e-09)
(2.38993e-07 2.39324e-10 1.22122e-09)
(3.4562e-07 1.41104e-09 1.28951e-09)
(2.05669e-07 -2.23713e-09 -2.06285e-09)
(1.509e-07 1.54009e-08 -1.11038e-08)
(3.18113e-07 -1.02436e-09 2.71602e-09)
(6.2134e-08 4.23744e-09 4.656e-10)
(1.75388e-07 1.93783e-09 -2.58476e-09)
(8.96635e-08 -1.87504e-09 -5.38351e-09)
(2.54212e-07 8.11719e-10 -1.94349e-10)
(1.68454e-08 5.42314e-10 1.58668e-09)
(1.49864e-07 -6.16983e-10 -9.50888e-10)
(1.69524e-07 7.38468e-10 4.38966e-10)
(2.67048e-07 2.68245e-09 3.84512e-10)
(1.98498e-07 -4.31466e-10 5.47599e-10)
(2.1428e-07 1.49664e-09 -4.38087e-09)
(6.38789e-08 -1.2025e-09 1.80302e-09)
(2.22523e-07 -9.30912e-10 -6.28782e-10)
(3.5046e-07 -2.50994e-09 -1.1409e-09)
(6.38794e-08 -2.4093e-09 -3.97653e-10)
(3.28589e-07 -1.43743e-09 3.10441e-09)
(1.94993e-07 6.04644e-10 1.89373e-09)
(1.79241e-07 -9.38369e-10 2.64581e-09)
(1.81531e-08 -3.60105e-10 2.27608e-09)
(2.92262e-07 1.52011e-09 -9.58083e-10)
(3.5293e-07 2.85289e-09 7.88315e-10)
(1.47536e-07 2.7425e-09 6.76966e-10)
(2.01099e-08 2.9244e-09 -2.92368e-09)
(1.04334e-07 9.4877e-10 -4.54684e-09)
(1.31969e-07 -4.94574e-09 -4.84535e-09)
(4.9491e-08 -2.24523e-09 2.66354e-11)
(2.85305e-08 -6.5359e-10 -6.203e-10)
(1.76202e-07 1.20699e-09 3.97017e-09)
(2.70315e-07 -1.33464e-10 2.19636e-09)
(1.7446e-07 -3.71639e-09 -2.3121e-10)
(2.22553e-07 6.72e-10 1.16196e-09)
(2.23006e-08 -1.72729e-09 2.53607e-09)
(1.95569e-07 -3.18142e-10 4.28571e-10)
(9.84971e-08 1.85477e-09 1.47161e-09)
(8.04876e-08 1.43157e-09 -1.37991e-09)
(1.24021e-07 2.71721e-09 1.10163e-09)
(1.44881e-07 -5.87098e-10 7.88138e-10)
(1.01082e-07 -2.00426e-09 3.13371e-10)
(4.45194e-07 5.09011e-09 -4.72151e-09)
(2.02816e-07 4.14211e-10 -9.6609e-10)
(2.92583e-07 6.35866e-11 1.11417e-09)
(1.704e-07 -5.17611e-09 6.40823e-09)
(7.41197e-08 1.81261e-10 -1.03549e-09)
(2.87479e-07 2.93057e-09 2.82388e-09)
(5.11258e-08 -5.38476e-09 -1.43766e-09)
(3.72578e-08 -1.65757e-09 -3.43428e-09)
(1.21067e-07 -3.7253e-09 -1.43273e-09)
(1.61748e-07 -1.16062e-10 1.49743e-09)
(1.09581e-07 2.42285e-10 6.89318e-10)
(5.2624e-08 -1.07115e-09 -5.01157e-09)
(2.43484e-08 -4.64233e-10 5.91898e-10)
(1.95708e-07 7.99063e-10 2.21927e-09)
(2.45803e-07 -1.655e-09 -5.71245e-10)
(1.47754e-07 -9.1754e-10 2.90481e-09)
(1.33682e-07 7.97566e-09 1.87977e-09)
(1.85784e-07 -7.97056e-10 5.44221e-10)
(1.12039e-07 5.82237e-09 1.37996e-10)
(3.07216e-07 -3.21984e-09 1.19456e-09)
(3.29134e-08 3.4805e-10 1.53532e-09)
(1.1132e-07 1.0758e-09 -1.51209e-09)
(6.72102e-08 -2.10141e-09 -3.93969e-10)
(1.93965e-07 4.36422e-09 4.72673e-09)
(2.38051e-07 -1.51039e-10 1.4765e-09)
(8.42745e-08 -2.22519e-09 9.08227e-11)
(1.48337e-07 1.05286e-09 -7.59916e-10)
(3.38927e-07 -2.8601e-10 1.70613e-09)
(1.9294e-08 2.55769e-09 -1.73075e-09)
(2.2438e-07 -2.71948e-09 -6.94968e-10)
(2.23716e-07 2.68609e-10 2.81532e-10)
(2.73327e-07 -1.21455e-09 1.23199e-09)
(1.69488e-07 2.02613e-09 2.22316e-10)
(2.21452e-08 -1.47154e-10 8.9068e-11)
(3.17376e-07 -2.8188e-09 -1.83502e-09)
(6.91007e-08 6.12168e-09 3.61925e-09)
(2.88672e-08 -4.41235e-09 -4.79269e-10)
(2.21826e-07 1.16761e-09 -2.69407e-09)
(1.09279e-07 -1.63312e-09 6.15787e-10)
(3.09995e-07 2.37424e-09 -6.2659e-10)
(2.3777e-07 -1.86236e-09 1.90534e-09)
(2.60018e-07 1.06688e-09 8.65067e-10)
(1.8645e-07 -5.79525e-10 1.02275e-10)
(9.56014e-08 5.21507e-09 -3.49296e-09)
(1.97749e-07 -5.25942e-10 7.27967e-10)
(1.41404e-07 6.39267e-09 3.37316e-09)
(2.05562e-07 1.31614e-09 -1.1785e-09)
(1.50057e-07 6.70141e-10 1.29095e-09)
(9.03248e-08 -1.31609e-09 1.70654e-09)
(2.40828e-07 -3.21156e-09 1.00678e-09)
(2.52859e-07 1.25555e-09 -1.10259e-09)
(3.74518e-08 -6.13103e-10 1.1817e-09)
(7.81486e-08 3.92092e-09 -4.10105e-09)
(1.6228e-07 -1.55298e-09 1.75621e-09)
(1.3382e-07 1.96608e-09 -9.78644e-09)
(2.01886e-07 -1.40887e-09 4.6071e-11)
(1.46364e-07 9.49336e-10 -5.77347e-10)
(2.44619e-07 -1.05726e-10 1.83859e-09)
(3.10677e-08 -3.35854e-09 -1.96577e-09)
(3.67157e-08 1.10216e-09 -2.78456e-09)
(4.81004e-08 5.7184e-10 -1.87189e-09)
(1.26342e-07 1.32698e-10 2.74588e-09)
(1.85454e-07 -4.19158e-09 1.35338e-09)
(3.65129e-07 -1.69662e-09 2.60032e-09)
(9.88308e-08 -3.96464e-09 3.15429e-09)
(1.92845e-07 -2.77434e-11 1.96246e-09)
(2.28187e-08 4.94662e-10 4.07624e-09)
(1.23372e-07 -5.28431e-10 1.08582e-09)
(3.29884e-08 7.35199e-10 3.50369e-09)
(1.28192e-07 5.47934e-10 7.55643e-10)
(1.73229e-07 -4.17501e-10 -1.37837e-09)
(1.81185e-07 -9.0082e-10 4.07786e-10)
(2.11888e-07 -1.05768e-09 -7.07825e-09)
(2.35225e-07 -1.20605e-09 1.96807e-09)
(2.15008e-07 7.66313e-10 -3.50303e-10)
(3.28163e-07 -4.83649e-09 3.3929e-09)
(2.00964e-07 4.03652e-11 1.03167e-09)
(1.47236e-07 -1.79465e-12 1.70201e-09)
(2.58219e-07 1.74364e-10 -4.4557e-10)
(2.60358e-07 1.26923e-09 6.51057e-10)
(2.65029e-07 -3.96986e-11 8.33489e-10)
(1.26542e-07 1.95208e-09 -1.74004e-09)
(2.51487e-07 -1.80048e-09 1.83419e-09)
(9.53322e-08 -1.23199e-09 -6.00517e-09)
(1.1109e-07 7.55043e-10 3.56544e-09)
(2.16209e-07 1.28532e-09 -3.01264e-10)
(2.24552e-07 -1.34288e-09 1.76135e-09)
(2.51994e-07 2.42433e-09 3.16745e-09)
(2.30191e-07 -2.23451e-09 1.67431e-09)
(8.05683e-08 -8.04876e-10 1.81776e-09)
(1.19044e-07 6.19874e-09 -3.75342e-09)
(2.66989e-07 1.91245e-09 5.04881e-10)
(2.36478e-07 -1.28865e-09 2.85715e-09)
(7.20023e-08 -5.23251e-10 -3.0504e-10)
(8.70903e-08 -1.05194e-09 -1.47459e-09)
(1.80206e-07 2.02491e-09 -4.97389e-09)
(1.50773e-07 -7.77483e-10 -5.62127e-10)
(3.336e-07 -5.54874e-09 2.13246e-09)
(1.64695e-07 -1.37477e-09 2.18634e-09)
(2.83601e-07 -3.66692e-09 1.69475e-09)
(2.08523e-07 -2.01621e-09 6.6716e-09)
(2.37206e-08 3.43821e-09 -1.7599e-09)
(2.60288e-07 -1.44887e-09 1.75999e-09)
(3.50179e-08 2.22977e-09 -3.21307e-09)
(6.10091e-08 -3.32712e-09 2.75374e-09)
(2.71202e-07 -1.82419e-09 1.55816e-09)
(2.37737e-07 -1.8177e-09 7.98494e-10)
(3.21905e-08 3.85631e-09 4.18125e-09)
(3.08886e-07 2.29769e-09 -2.40048e-09)
(2.54812e-07 3.95156e-09 -2.29123e-10)
(2.07807e-07 8.09703e-10 -7.70373e-10)
(2.52845e-07 -3.63337e-10 4.73517e-10)
(2.86656e-08 3.94184e-09 6.15122e-10)
(2.16034e-07 -2.5152e-09 1.92159e-09)
(1.11772e-07 -1.67461e-09 -3.02313e-10)
(1.27751e-07 -6.93052e-10 8.79629e-10)
(2.42355e-07 -2.62517e-09 2.32623e-09)
(1.5714e-07 1.01797e-09 1.81707e-09)
(1.88639e-07 -3.81651e-10 -1.10393e-09)
(2.23095e-07 4.33995e-10 -5.84021e-11)
(4.43737e-08 -1.4568e-09 -3.27674e-09)
(2.38802e-07 -3.6084e-09 2.11353e-10)
(1.85909e-07 -1.35669e-09 -1.53975e-10)
(2.7862e-07 -3.1868e-09 1.07607e-09)
(2.13859e-07 -2.65211e-09 4.81594e-10)
(3.19724e-07 -9.10306e-10 -7.78109e-10)
(1.53658e-07 1.11142e-10 4.88021e-09)
(2.31729e-08 -5.21764e-10 1.32437e-09)
(4.15947e-08 -1.20266e-09 1.15363e-09)
(4.4583e-07 -5.08486e-09 5.05811e-10)
(2.23473e-08 -1.43463e-09 4.19137e-09)
(1.90585e-07 -3.98824e-10 -4.97107e-09)
(8.24624e-08 5.26312e-09 1.98233e-09)
(2.63427e-07 -1.86331e-09 4.06335e-11)
(3.07833e-07 9.35259e-10 -1.22879e-09)
(2.87249e-07 -1.87757e-09 4.31668e-10)
(1.37928e-07 -1.59874e-09 -3.52379e-09)
(3.03683e-07 3.37082e-09 -3.69387e-09)
(7.80366e-08 -7.59289e-09 4.90696e-09)
(9.99998e-08 1.78816e-09 2.75266e-09)
(1.68394e-07 -2.24224e-09 -8.82507e-11)
(1.69117e-07 3.64409e-09 -1.97374e-09)
(2.68842e-07 3.22434e-08 9.61819e-09)
(2.03824e-07 -3.13763e-09 3.66612e-09)
(7.33999e-08 -8.01533e-10 -1.83239e-09)
(1.14677e-07 -2.04317e-09 2.93635e-09)
(2.17046e-07 -7.24746e-10 -1.09084e-09)
(1.73183e-07 -3.18049e-10 3.39534e-10)
(3.28816e-07 4.25626e-09 1.31453e-09)
(1.74216e-07 6.22162e-10 1.7863e-09)
(4.25023e-07 -5.83714e-09 1.58849e-09)
(1.71763e-07 1.06398e-09 5.70029e-09)
(3.27987e-07 4.20259e-09 -6.76318e-10)
(2.25322e-07 2.20727e-09 -7.64252e-10)
(1.70856e-07 1.24794e-09 9.27265e-10)
(2.88955e-07 -2.98833e-10 1.0353e-09)
(1.21043e-07 2.11686e-09 -5.40919e-09)
(2.7758e-08 -1.89003e-09 -2.98549e-09)
(2.66465e-07 8.732e-10 1.54498e-09)
(6.68337e-08 -2.98685e-09 3.72227e-09)
(3.39384e-08 4.04948e-10 -2.2895e-10)
(3.33427e-07 -1.82326e-09 2.82533e-09)
(1.83984e-07 -5.88274e-10 9.93407e-10)
(1.16397e-07 -3.41794e-09 -3.96385e-09)
(2.04922e-07 -2.66451e-10 1.16266e-09)
(2.76746e-07 -2.38755e-09 2.32108e-11)
(3.25907e-07 1.29936e-10 -2.36298e-09)
(2.17146e-07 1.65516e-09 -5.96339e-10)
(3.46734e-08 1.78226e-09 9.64967e-10)
(2.79634e-07 1.22609e-09 -6.08022e-10)
(1.71371e-07 -3.30507e-10 4.37747e-10)
(1.09038e-07 -6.66355e-10 1.44515e-09)
(2.27147e-07 -1.45723e-09 1.70913e-09)
(2.00554e-07 1.07413e-09 5.69186e-10)
(1.69783e-07 1.76112e-10 -2.42175e-09)
(1.99138e-07 -2.05385e-11 -5.10289e-10)
(2.43935e-07 -5.31658e-10 1.62466e-10)
(1.87917e-07 -2.3786e-09 4.0822e-10)
(8.78733e-08 -1.54252e-09 2.37138e-10)
(2.34626e-08 6.33656e-10 -5.64482e-10)
(4.4056e-08 -4.7441e-09 1.11422e-09)
(2.37539e-07 -1.20514e-10 3.04995e-09)
(2.66467e-07 -1.61933e-08 3.04568e-08)
(1.1554e-07 -5.94061e-09 -8.68028e-09)
(1.21857e-07 -2.96703e-10 -2.26501e-10)
(2.54017e-07 1.37744e-09 2.96607e-09)
(3.07685e-07 -3.42659e-10 9.09039e-10)
(1.9671e-07 8.3012e-10 1.64534e-09)
(3.26079e-07 2.86541e-09 4.71318e-10)
(3.34547e-07 -2.82577e-10 -1.30277e-09)
(2.02365e-07 1.10175e-09 1.65016e-10)
(1.24021e-07 1.25504e-09 -1.84889e-11)
(2.94768e-08 -1.29018e-09 -3.53323e-10)
(2.39063e-07 -4.52562e-08 6.10995e-09)
(1.00622e-07 3.76854e-09 1.77865e-09)
(7.31641e-08 -4.44904e-09 -2.01722e-09)
(7.74974e-08 4.52009e-09 -2.12673e-10)
(1.49277e-07 1.03685e-09 1.08337e-09)
(1.88911e-07 -5.07857e-10 -8.89903e-10)
(2.06147e-07 8.54233e-10 -2.68782e-10)
(2.06192e-08 1.32878e-09 -1.79982e-09)
(1.68862e-07 -5.48138e-10 -6.09809e-10)
(7.81552e-08 2.3481e-09 -2.08207e-09)
(1.57303e-07 -1.22996e-09 -3.29832e-10)
(6.44283e-08 -1.7285e-09 -4.53782e-10)
(1.70083e-07 -1.74187e-09 2.5011e-09)
(2.32873e-07 -3.11096e-09 2.74438e-09)
(1.63996e-07 9.88026e-10 8.0615e-10)
(2.3433e-08 2.43827e-09 -2.6079e-09)
(1.27717e-07 -1.70169e-09 6.91832e-09)
(2.29752e-07 8.91287e-10 3.59185e-10)
(2.98294e-08 -2.02728e-09 -2.31354e-09)
(2.79196e-07 1.52068e-09 9.09622e-09)
(1.8563e-07 -9.76159e-10 2.5708e-09)
(2.96829e-07 2.33665e-09 -1.4473e-09)
(2.16338e-07 5.35101e-09 -2.10222e-09)
(1.01372e-07 -1.07951e-09 1.81941e-09)
(3.48924e-07 2.64901e-09 -1.31526e-09)
(1.42048e-07 -1.28765e-08 -1.26063e-08)
(2.551e-07 3.878e-09 1.07043e-09)
(1.52562e-07 9.7072e-09 1.05492e-08)
(1.61744e-07 -2.10015e-09 7.67087e-10)
(1.63645e-07 -2.1606e-09 -5.57581e-09)
(2.15028e-07 8.99407e-10 3.06764e-10)
(4.36061e-07 4.92261e-09 8.04372e-10)
(9.21378e-08 -9.76879e-10 -5.32632e-10)
(3.36265e-07 2.79441e-09 -4.61305e-10)
(1.2979e-07 -1.46577e-09 -2.37361e-09)
(3.4338e-07 -2.27474e-09 6.89847e-10)
(2.61709e-07 -1.77666e-09 8.38749e-10)
(7.84397e-08 2.3453e-09 -5.80622e-09)
(2.10813e-07 -7.85824e-10 -3.22897e-10)
(3.58682e-07 -3.96213e-09 6.58035e-10)
(2.12088e-07 -6.12369e-11 1.49426e-10)
(1.99563e-07 -1.87763e-10 -2.08121e-10)
(2.73581e-08 -7.49498e-10 -5.05864e-09)
(2.33121e-08 1.73001e-09 -3.50641e-09)
(2.87654e-07 -2.45133e-10 -2.80426e-09)
(2.27585e-07 6.62982e-10 1.18128e-10)
(1.7219e-07 -4.37722e-10 -1.3177e-09)
(4.33195e-08 4.20508e-10 -3.00997e-09)
(7.23486e-08 9.49502e-12 -2.48371e-11)
(3.24917e-07 -4.45808e-09 4.0016e-09)
(1.29774e-07 1.2081e-09 5.97634e-10)
(2.51065e-07 2.2164e-09 -7.47683e-10)
(2.22757e-07 -6.9776e-11 -9.01178e-10)
(1.78439e-07 1.91669e-09 1.39602e-09)
(1.91903e-07 2.20367e-09 1.41885e-09)
(1.36264e-07 4.76752e-10 -3.0548e-11)
(1.66381e-07 2.02835e-09 4.81287e-10)
(1.01535e-07 -1.41198e-09 -5.90855e-09)
(2.40997e-07 -2.71466e-09 -7.64399e-10)
(1.98827e-07 2.24316e-09 -2.19652e-09)
(1.87333e-07 1.92551e-09 2.95033e-11)
(1.75944e-07 6.04532e-11 9.42146e-11)
(3.23871e-07 1.71157e-09 -2.57274e-09)
(2.46155e-07 2.22958e-09 1.04349e-09)
(7.94818e-08 4.9618e-09 4.10323e-09)
(5.11718e-08 1.50168e-09 1.41684e-09)
(2.43011e-08 2.662e-09 -2.45431e-09)
(2.02973e-07 2.30501e-09 3.67638e-09)
(2.26248e-07 -2.9753e-11 1.0495e-11)
(2.5391e-07 -5.42491e-10 1.38593e-09)
(1.93634e-07 3.80691e-09 7.69368e-10)
(3.49861e-08 7.70118e-10 1.44332e-09)
(2.72003e-08 4.50052e-10 3.34517e-09)
(1.87789e-07 -2.77553e-10 3.82042e-09)
(2.0469e-07 1.22632e-09 1.80195e-09)
(2.47981e-07 1.92413e-09 1.24669e-09)
(2.92238e-07 3.01718e-09 -4.33898e-10)
(1.97745e-07 -5.46301e-11 -1.97586e-09)
(2.59885e-07 3.02711e-09 2.1073e-10)
(3.7034e-07 2.71213e-09 -6.2031e-10)
(3.82111e-08 -2.98358e-10 3.68473e-09)
(1.85487e-07 -1.32506e-09 8.52439e-10)
(8.35933e-08 7.36957e-10 3.73389e-09)
(9.70895e-08 -9.11664e-09 1.8763e-09)
(1.12552e-07 -1.99599e-10 -8.4796e-10)
(1.59039e-07 -2.85417e-09 3.14527e-09)
(2.34895e-07 1.86951e-09 -4.6987e-10)
(2.355e-08 -4.82014e-09 -2.11764e-09)
(2.86481e-07 4.7456e-09 8.79751e-11)
(2.10507e-07 -1.27836e-10 -1.76084e-10)
(1.67432e-07 1.70826e-09 5.27653e-10)
(2.22544e-07 3.30912e-09 7.08919e-10)
(1.49661e-07 3.28831e-10 5.89713e-10)
(2.06126e-07 2.16866e-09 5.3704e-10)
(2.43133e-07 -4.69542e-10 1.20875e-09)
(2.30665e-07 1.82068e-10 4.52806e-10)
(1.76846e-07 5.45541e-09 -3.72428e-09)
(2.20749e-07 -1.68822e-09 -2.61358e-10)
(2.65874e-07 -2.71529e-09 -1.71637e-09)
(2.21927e-08 -8.86075e-10 1.04965e-09)
(2.40643e-07 2.03481e-10 -2.20776e-09)
(1.90795e-07 2.40819e-09 1.73127e-10)
(7.43872e-08 -1.66009e-09 7.26004e-09)
(1.92701e-07 1.17911e-09 -1.90736e-09)
(2.84334e-07 8.08089e-10 -1.75956e-09)
(2.22642e-07 1.46911e-11 -1.21402e-10)
(1.32272e-07 7.74764e-10 -3.5184e-09)
(2.17145e-08 -2.16176e-09 -2.74768e-09)
(2.06288e-07 -4.5188e-10 -1.06629e-09)
(3.33405e-07 6.71786e-09 -2.52116e-09)
(2.05737e-07 -2.52127e-10 -1.52153e-10)
(1.88966e-07 6.13903e-10 5.5655e-10)
(6.57695e-08 3.85227e-09 4.77678e-09)
(2.33105e-07 2.46116e-11 -1.56011e-09)
(3.0317e-08 2.79597e-09 -3.26094e-09)
(1.47516e-07 4.00822e-10 2.69611e-11)
(2.08465e-07 2.34988e-08 -7.24959e-09)
(2.10713e-07 9.52876e-10 1.98782e-10)
(1.0528e-07 -6.25201e-10 3.26295e-09)
(1.94799e-07 -1.13755e-10 -3.84549e-09)
(1.26697e-07 1.61368e-09 -1.9922e-09)
(5.64283e-08 4.11247e-09 3.48637e-09)
(3.4664e-07 2.88368e-09 8.72405e-10)
(1.64163e-07 2.2923e-09 1.19514e-10)
(2.18832e-08 3.1615e-10 1.70876e-09)
(2.34234e-07 -2.87051e-09 -4.20318e-10)
(2.10759e-07 -3.67382e-09 2.98978e-10)
(4.61005e-08 1.28727e-10 -2.59643e-09)
(1.45058e-07 7.23292e-09 4.61398e-10)
(1.0949e-07 4.34035e-09 5.00108e-09)
(1.67329e-07 1.34753e-09 5.99063e-10)
(1.99608e-07 -2.47603e-09 -1.17173e-11)
(3.85756e-08 -8.28312e-10 1.5981e-09)
(1.05879e-07 -3.98809e-09 -3.87181e-09)
(1.17154e-07 9.34234e-10 -7.84792e-10)
(1.81141e-07 1.93059e-09 -5.54785e-10)
(2.55709e-07 -3.42074e-09 3.29024e-10)
(2.75784e-08 1.7517e-09 -4.5998e-09)
(3.21347e-07 -2.75874e-09 1.35755e-09)
(2.15436e-07 9.01579e-10 -1.55185e-10)
(2.09072e-07 2.10784e-09 6.14585e-10)
(1.14163e-07 4.91909e-09 -4.71015e-09)
(2.82853e-07 6.50461e-10 -3.26446e-10)
(2.68316e-08 -4.86852e-10 -3.70318e-09)
(2.54477e-07 -2.82729e-09 -2.46051e-10)
(3.34218e-08 -6.48786e-10 -2.96602e-10)
(1.55495e-07 -7.8231e-09 -8.18208e-10)
(2.00274e-07 3.2779e-10 4.24196e-10)
(1.54796e-07 -4.25422e-09 -1.66218e-09)
(2.34726e-08 3.09938e-09 2.24924e-09)
(6.17788e-08 1.91672e-09 -1.39928e-09)
(8.96229e-08 -4.57497e-09 5.93988e-10)
(1.54133e-07 4.05884e-09 -4.68886e-09)
(3.06448e-07 -2.27391e-09 5.79029e-10)
(6.66426e-08 -1.83047e-09 -1.16586e-09)
(1.56019e-07 6.40837e-09 -2.93651e-09)
(2.19409e-07 -7.96359e-09 -1.91954e-08)
(1.69409e-07 2.14783e-09 2.5241e-10)
(3.43506e-08 3.41682e-09 4.96464e-11)
(2.38067e-07 1.11296e-10 -3.23447e-09)
(1.46235e-07 1.48782e-08 -3.99164e-09)
(1.6533e-07 -1.22244e-09 -1.16616e-10)
(1.18441e-07 3.13167e-10 -2.61261e-09)
(1.42164e-07 2.1186e-09 -2.34677e-10)
(1.24931e-07 -5.84965e-09 -1.8549e-09)
(1.59515e-07 1.09743e-09 1.03111e-09)
(1.24955e-07 1.36423e-09 -2.48003e-10)
(8.3634e-08 4.99864e-09 -7.9283e-09)
(2.38009e-07 1.36743e-09 -4.92266e-11)
(7.49409e-08 1.64847e-09 3.3337e-09)
(1.95018e-08 3.35572e-09 9.31565e-10)
(2.88419e-07 -4.27177e-10 2.62872e-09)
(1.4566e-07 1.72624e-09 -1.45198e-10)
(2.88791e-07 1.95444e-09 -1.36702e-09)
(2.27849e-07 4.80619e-09 -1.59902e-10)
(3.63112e-07 -3.54787e-09 5.23929e-10)
(1.56778e-07 2.41675e-09 -1.22592e-09)
(3.42278e-07 -3.18899e-09 3.78584e-10)
(1.14629e-07 -3.52631e-09 5.14757e-09)
(1.20039e-07 1.42894e-09 -1.93777e-10)
(3.02123e-07 -1.90644e-09 -1.21793e-09)
(3.77761e-08 1.3659e-09 -6.56799e-09)
(2.76567e-07 -3.293e-10 -1.21643e-09)
(1.32734e-07 3.40264e-09 4.17648e-09)
(3.69538e-08 -3.54862e-09 -2.63349e-09)
(2.63129e-07 6.1021e-11 6.49023e-10)
(7.11953e-08 -1.90015e-09 2.55929e-09)
(1.90776e-07 5.53198e-10 1.18166e-09)
(1.68875e-07 4.22108e-10 3.59914e-10)
(3.62135e-07 2.56968e-09 3.81168e-09)
(1.11668e-07 -8.04421e-09 -3.90686e-09)
(2.32289e-07 9.82318e-10 -1.95103e-10)
(1.68279e-07 -5.88384e-10 1.23431e-09)
(2.48484e-07 -6.08703e-10 2.12675e-09)
(2.54896e-07 1.83581e-09 -6.95784e-10)
(2.25485e-07 1.12839e-09 1.64728e-10)
(1.30444e-07 1.14416e-09 3.52542e-12)
(5.62688e-08 -2.68981e-09 -3.56431e-09)
(7.92071e-08 -6.72634e-10 -1.57058e-09)
(1.43491e-07 1.49366e-09 -4.0857e-10)
(2.47672e-07 2.43055e-09 1.15886e-10)
(3.38052e-08 -3.01271e-09 -9.84819e-10)
(2.10642e-07 1.51741e-09 -1.70514e-09)
(3.85304e-07 -1.11692e-09 4.16558e-09)
(2.85615e-07 -2.33632e-09 -1.19718e-09)
(2.98596e-07 -2.54463e-09 -7.83649e-10)
(2.61408e-07 -1.93485e-09 -1.96275e-09)
(2.4502e-08 2.49969e-09 1.79713e-09)
(1.87621e-07 -1.44594e-10 1.4939e-09)
(1.55639e-07 -2.80533e-10 -3.22426e-09)
(2.31531e-07 -1.52958e-09 1.41772e-09)
(1.72308e-07 -2.63572e-10 -1.77507e-10)
(4.20244e-08 2.82635e-09 5.67782e-10)
(1.61073e-07 2.24075e-09 -5.63619e-10)
(1.63671e-07 4.32968e-09 2.54034e-09)
(2.45488e-07 -1.92397e-09 -7.42035e-10)
(2.11088e-07 -2.29937e-09 -7.92889e-10)
(1.8762e-07 -1.01286e-10 -4.19503e-10)
(1.65262e-08 1.60715e-09 -2.12139e-09)
(2.47296e-08 -1.73692e-09 -2.61076e-09)
(1.45859e-07 -2.3615e-09 -1.99838e-10)
(2.45689e-07 1.45622e-09 7.41667e-10)
(1.79187e-07 1.53873e-09 7.1307e-10)
(1.57836e-07 2.05732e-09 -5.629e-10)
(1.72823e-07 -1.60233e-09 2.56406e-09)
(2.32861e-07 -2.89259e-09 -4.54752e-10)
(2.33322e-07 2.75546e-10 -1.05073e-09)
(2.30866e-08 2.22854e-09 4.09995e-10)
(1.14923e-07 -1.76672e-09 -1.76138e-10)
(1.69643e-07 -1.15675e-08 7.95249e-10)
(5.47217e-08 -2.856e-09 3.11914e-09)
(9.46457e-08 -6.87248e-09 1.2535e-09)
(2.92913e-07 -1.2018e-09 -2.68887e-09)
(2.04138e-07 -1.56238e-09 -3.25839e-10)
(1.88625e-07 9.88023e-10 -1.11623e-09)
(2.42508e-07 5.26179e-10 6.66878e-10)
(1.49609e-07 -4.87613e-09 5.5962e-10)
(2.62761e-07 7.07459e-10 -2.82301e-10)
(1.90499e-07 3.20121e-09 -2.96142e-09)
(3.57643e-07 2.79291e-09 -4.1134e-10)
(1.76427e-07 -1.802e-09 -8.68251e-10)
(1.8664e-07 -2.76321e-09 1.9179e-09)
(2.53171e-07 -2.16419e-09 -3.02924e-10)
(5.6124e-08 -6.73757e-10 2.45909e-09)
(4.65165e-07 -2.87435e-09 4.0112e-10)
(3.97477e-08 3.35122e-10 -2.58233e-09)
(1.48059e-07 -1.37719e-08 8.12657e-09)
(1.32447e-07 2.13627e-09 3.46853e-09)
(1.56719e-07 -1.45982e-09 -1.23595e-08)
(2.13173e-07 -2.22662e-09 1.19119e-09)
(2.88058e-07 -4.23503e-08 -8.82704e-09)
(1.13664e-07 1.53732e-10 2.52564e-10)
(2.68124e-07 4.19947e-10 9.27872e-10)
(3.04585e-07 1.14363e-09 9.34891e-10)
(1.74044e-07 4.06389e-10 1.45128e-09)
(4.20917e-08 3.86985e-10 -1.76181e-09)
(1.18476e-07 -4.66646e-09 -3.22896e-09)
(2.08752e-07 -2.615e-09 -2.98228e-08)
(1.72006e-07 -2.14552e-10 6.8024e-10)
(1.05483e-07 -2.55553e-09 -3.51257e-10)
(2.11204e-07 -1.22923e-08 -3.48763e-09)
(2.07926e-07 3.53274e-10 2.02723e-09)
(3.24465e-07 7.65706e-10 5.53247e-10)
(5.1604e-08 -1.71514e-09 2.61722e-09)
(6.22437e-08 -2.53583e-09 2.75505e-09)
(3.03908e-08 1.26802e-09 -1.6649e-09)
(2.50178e-08 4.01232e-10 -1.70678e-09)
(5.27935e-08 -6.92255e-11 2.22115e-10)
(2.19019e-07 -5.18431e-09 4.91976e-09)
(1.74027e-07 1.44493e-09 8.22547e-11)
(2.3346e-08 -1.24028e-09 3.26344e-09)
(2.56584e-08 2.32649e-09 3.01936e-09)
(2.75612e-07 2.29767e-09 -3.1053e-10)
(1.65191e-07 -2.02894e-08 1.37743e-08)
(5.47589e-08 3.33919e-09 1.48521e-09)
(2.10832e-07 2.44258e-10 7.96873e-11)
(1.14617e-07 -9.55883e-10 -1.94246e-09)
(1.9679e-07 -2.81204e-10 1.29853e-09)
(5.23389e-08 3.58183e-09 -2.65699e-09)
(1.04732e-07 1.57553e-09 -4.27171e-10)
(2.02137e-07 -1.15069e-09 6.72471e-10)
(2.22618e-07 5.15253e-10 3.68248e-10)
(3.60486e-07 1.43366e-09 -5.06628e-10)
(5.32397e-08 4.90466e-09 -3.28306e-09)
(2.82261e-08 -2.65455e-09 1.52888e-09)
(2.0133e-07 -2.89844e-08 -2.08369e-08)
(3.37002e-08 -5.72283e-09 -4.65106e-10)
(3.02488e-07 -2.56782e-09 -3.96711e-09)
(3.44157e-08 3.18841e-09 -5.94826e-09)
(1.62647e-07 -1.30071e-09 3.75904e-09)
(2.45693e-07 -1.5561e-10 -3.89294e-10)
(3.59007e-07 -2.94463e-09 1.41119e-09)
(7.04687e-08 1.27818e-09 -3.94053e-09)
(1.50952e-07 -1.2285e-09 -1.86707e-09)
(4.56167e-08 1.88027e-09 -1.54078e-09)
(3.42012e-08 4.38512e-09 -1.33542e-09)
(2.09186e-07 -4.81563e-10 -1.29859e-09)
(1.85429e-08 -1.78864e-09 -2.79204e-09)
(1.50798e-07 -2.23743e-09 5.52143e-10)
(7.13204e-08 -7.74792e-10 -4.01326e-09)
(2.89389e-07 -1.53476e-09 7.84435e-11)
(2.14156e-07 -4.74189e-10 2.89657e-10)
(2.30922e-08 -8.26529e-10 4.25854e-09)
(1.59582e-07 -8.13718e-09 1.77514e-09)
(2.23904e-07 1.82754e-10 6.03863e-10)
(3.64608e-08 -2.50025e-09 -8.33851e-10)
(2.43852e-07 -7.81604e-10 -1.43284e-10)
(9.29315e-08 -4.78715e-09 6.65163e-09)
(2.29575e-07 1.16411e-09 -1.47304e-10)
(1.79684e-07 3.66251e-10 -1.48248e-09)
(6.67242e-08 3.41783e-09 2.7623e-09)
(2.52963e-08 1.65935e-09 -4.35151e-09)
(1.09753e-07 5.05917e-11 3.64117e-10)
(2.42059e-07 3.86075e-08 8.29617e-09)
(2.46756e-07 3.75693e-10 -2.28821e-09)
(9.03638e-08 -3.318e-09 4.81051e-09)
(2.06179e-07 3.32004e-10 3.32255e-09)
(2.89964e-08 -1.46705e-09 6.19338e-10)
(1.58381e-07 4.95506e-10 -1.33854e-09)
(2.57444e-08 -8.02252e-11 -1.06326e-09)
(2.83016e-07 -3.83662e-09 2.93107e-10)
(2.83248e-07 -2.19282e-09 -1.92222e-10)
(1.85923e-07 -5.00123e-10 6.85226e-11)
(1.74963e-08 2.02013e-09 3.79876e-10)
(3.1561e-07 -2.64906e-09 -3.80053e-11)
(1.78462e-07 4.42829e-10 -1.12487e-09)
(3.19097e-07 1.40423e-09 1.57686e-09)
(7.27721e-08 1.61468e-11 -2.35721e-10)
(2.21628e-07 -2.7165e-08 1.39007e-08)
(2.3233e-07 -2.31981e-09 4.69724e-11)
(7.74851e-08 4.15992e-09 -2.68092e-09)
(1.9565e-07 -7.72275e-10 -4.70277e-10)
(2.09815e-07 4.15412e-09 -3.96985e-08)
(1.8578e-07 3.35059e-10 -1.75272e-10)
(3.89253e-08 5.55107e-10 -2.97541e-09)
(1.22732e-07 -8.76314e-10 -5.75246e-09)
(1.5128e-07 -8.1851e-11 5.46427e-10)
(2.15282e-07 2.02637e-09 -4.79161e-10)
(3.81089e-08 1.60311e-09 2.80282e-10)
(2.27989e-07 1.76657e-09 -7.46021e-10)
(1.81977e-07 -6.42978e-09 -7.13588e-09)
(3.09874e-08 -3.35692e-09 1.97713e-09)
(1.63301e-07 -3.91455e-11 2.62722e-10)
(1.57851e-07 -2.02463e-09 1.65305e-08)
(3.26466e-07 4.2943e-09 -5.31525e-09)
(1.6514e-07 -1.78356e-10 5.04195e-10)
(1.47826e-07 7.02168e-11 6.64981e-10)
(2.5502e-07 4.6744e-10 -1.10433e-09)
(2.54408e-07 1.58618e-09 3.89593e-09)
(8.32936e-08 3.99638e-09 1.02018e-09)
(8.28157e-08 -5.09841e-09 -5.45192e-09)
(3.06309e-07 3.55723e-09 -4.33354e-10)
(2.23839e-07 -1.95532e-08 1.93358e-08)
(2.12021e-07 -7.29841e-10 5.87847e-10)
(1.89453e-07 -1.49885e-09 -3.82556e-10)
(1.40932e-07 2.94592e-09 6.26462e-10)
(2.99365e-07 3.54927e-10 -7.9271e-11)
(1.74025e-07 1.3437e-09 -2.20228e-11)
(1.92974e-07 -1.51694e-09 -5.53741e-09)
(2.39425e-07 6.0815e-09 -7.56682e-10)
(5.3424e-08 6.66026e-10 -3.92674e-09)
(1.90383e-07 4.85313e-09 -3.26731e-09)
(4.73225e-08 -3.75713e-09 -7.31547e-09)
(2.82693e-07 1.27292e-09 9.2023e-10)
(2.64347e-07 -1.51787e-09 2.60087e-09)
(1.80572e-07 1.88226e-09 -4.27798e-09)
(1.73824e-07 1.37937e-09 -9.35812e-10)
(2.08379e-08 2.57634e-09 -9.57647e-10)
(1.1797e-07 2.55512e-10 -2.76555e-10)
(8.85087e-08 -4.41612e-09 -4.36484e-09)
(2.12502e-07 3.7845e-10 -1.05774e-09)
(1.90033e-07 -1.80564e-10 -1.68144e-09)
(2.20049e-07 -2.07933e-08 1.33434e-08)
(2.65955e-07 6.55011e-10 2.68232e-09)
(9.18979e-08 -3.2247e-09 -1.16794e-09)
(1.36449e-07 -3.39843e-09 1.10176e-08)
(2.37292e-07 1.8685e-09 2.95073e-09)
(3.38735e-08 -3.15808e-09 -7.33313e-10)
(1.94661e-07 4.89312e-10 -1.79457e-09)
(6.14117e-08 2.64695e-09 3.78895e-10)
(1.9456e-07 -4.13008e-10 1.00337e-09)
(3.86704e-08 5.87617e-09 2.56491e-10)
(2.95612e-07 4.23963e-09 -1.04683e-09)
(2.03717e-07 -9.39853e-09 5.94298e-09)
(2.30077e-07 -3.45243e-10 2.54376e-10)