/*--------------------------------*- C++ -*----------------------------------*\
| =========                 |                                                 |
| \\      /  F ield         | OpenFOAM: The Open Source CFD Toolbox           |
|  \\    /   O peration     | Version:  2406                                  |
|   \\  /    A nd           | Website:  www.openfoam.com                      |
|    \\/     M anipulation  |                                                 |
\*---------------------------------------------------------------------------*/
FoamFile
{
    version     2.0;
    format      ascii;
    arch        "LSB;label=32;scalar=64";
    class       volScalarField;
    location    "18";
    object      nut;
}
// * * * * * * * * * * * * * * * * * * * * * * * * * * * * * * * * * * * * * //

dimensions      [0 2 -1 0 0 0 0];

internalField   nonuniform List<scalar> 
59516
(
0.00012167
0.000154073
0.000188324
0.000351782
0.0013904
0.000186387
0.00028506
0.000134241
0.000152004
0.000139861
0.00151961
0.000110202
0.000155602
0.000182845
0.000135235
0.000113764
0.00124347
0.000123113
0.000158864
0.000924626
0.00018239
0.000474102
0.000614186
0.000173417
0.000636412
0.000133477
0.000165848
0.000190874
0.000138507
0.000160811
0.000254551
0.000184307
0.000342713
0.000212366
0.000453931
0.0003887
0.000155106
0.00011296
0.000105205
0.000667595
0.000133812
0.000718203
0.000527425
0.000179711
0.000424746
0.000115118
0.000260026
0.0011848
0.000986336
0.000864591
0.000631213
0.000165902
0.000173437
0.00019957
0.000197315
0.000268817
0.000946269
0.00018716
0.00129183
0.00038182
0.000608208
0.000179652
0.00110061
0.00114376
0.000248964
0.000651204
0.000229263
0.00016425
0.000499684
0.000326096
0.000255822
0.00103646
0.000200056
0.000444529
0.00140606
0.000867013
0.00120585
0.000519498
0.000165468
0.000936711
0.000161228
0.000725567
0.000473732
0.000182676
0.000685247
0.00126131
0.000156604
0.000460575
0.000120033
0.000114908
0.00101437
0.000445518
0.00119706
0.000438068
0.000958462
0.00125855
0.000504522
0.000113833
0.000119589
0.000557339
0.000184104
0.000201795
0.000200171
0.000114359
0.000344404
0.000634061
0.000179397
0.000148781
0.000147419
0.000135542
0.000366644
0.00022896
0.000140536
0.000216666
0.000752984
0.000126979
0.000117941
0.000363455
0.000189948
0.000482624
0.00170384
0.00111321
0.000770413
0.00111503
0.000464939
9.57856e-05
0.000224398
0.000419657
0.000284879
0.00141444
0.00163004
0.00015803
0.000179429
0.000485757
0.000120882
0.000163049
0.000156547
0.000233324
0.000172485
0.000145097
0.000170476
0.00155188
0.000157928
0.000273482
0.00145211
0.000438522
0.000375362
0.000190044
0.000252332
0.000148962
0.000127488
0.000154806
0.000944209
0.00062049
0.000104611
0.000168859
0.000210251
0.000156181
9.02852e-05
0.000174519
0.00015608
0.000152885
0.000165016
0.000204467
0.000124421
0.00108768
0.000123067
0.00138519
0.000168164
0.000449975
9.74402e-05
0.00010341
0.000113211
0.000430876
0.000147974
0.00029129
0.00116756
0.000610673
0.000142157
0.000141691
0.000484878
0.000154497
0.000230733
0.000106767
0.0015089
0.000109755
0.000136765
0.000170857
0.000184658
0.000130677
0.000394946
0.000109064
0.000889233
8.77889e-05
0.000589701
0.000131287
0.000113135
0.00014302
0.000219598
0.00052091
0.000133602
0.00170837
0.000118586
0.000162807
0.000272176
0.000418695
0.00144877
0.000826983
0.000177313
0.000194564
0.000124264
0.00020518
0.000478082
0.000123469
0.000194913
0.00114012
0.000383857
0.000645153
0.000123492
0.000732259
0.000127382
0.000170939
0.00115437
0.000188565
0.00125749
0.00123402
0.000219319
0.000164085
0.00118128
0.000118024
0.00121601
0.00120187
0.00171195
0.00019443
0.000154858
0.000137385
0.000104006
0.000132494
0.000790569
0.000135667
0.00162335
0.000187365
0.000108925
0.000210859
0.00155843
8.75137e-05
0.000560689
0.000137029
0.00106671
0.000135667
0.000900994
0.000429808
0.0017474
0.000510578
0.00049903
0.000749922
0.000119246
0.000692414
0.000164002
0.000136431
0.000290295
0.00090145
0.000183705
0.00123635
0.000136607
0.000100084
0.000827895
0.000102309
0.000210284
9.82133e-05
0.000136676
0.00129245
0.000102226
0.000113267
0.00101751
9.4878e-05
0.000172002
0.000848469
0.000197568
0.000162555
0.0016328
0.000394253
0.000211935
0.000206826
0.0002427
0.00119808
0.00155241
0.000222507
0.00158792
0.0018131
0.00136171
0.000341391
0.000422745
0.000113322
0.00106701
0.000237655
0.000872597
0.000403054
0.00173747
0.0011843
0.000155761
0.00010543
0.000189775
0.000205323
0.000778627
0.000181784
0.000174018
0.000126708
0.00103325
0.00105127
0.000567385
0.000112887
0.000145281
0.000178556
0.000110939
0.000950643
0.000113886
0.00118203
0.00012324
0.00014921
0.000147137
0.000160053
0.00143489
0.0016209
0.0017678
0.000757355
0.000129643
0.000297746
0.00111349
0.000869771
0.000869556
0.000113379
0.000193811
0.000604018
0.000156145
0.000157831
0.000962042
0.000505545
0.000112317
0.001305
0.00101869
0.00164972
0.00126244
0.000146159
0.00071054
0.00151944
0.000114409
0.00154821
0.00137936
0.000333787
0.000284231
0.000673845
0.000476474
8.50706e-05
0.000164215
0.00017069
0.000123329
0.000162038
0.000269742
9.62111e-05
0.000202947
0.000276424
0.00157925
0.00062055
0.000275566
0.000623858
0.000641752
0.0001681
0.000309339
0.000124244
0.000152257
0.000165149
0.00094928
0.000117362
0.000860924
0.000170447
0.000304923
0.000167651
0.00109264
9.30496e-05
0.000120363
0.000128567
0.00156563
0.0001947
0.000118408
0.000392878
0.000188906
0.000316214
0.000191484
0.000322748
0.00013466
0.000128359
0.000820102
0.000141761
0.00167086
0.000161312
0.000129938
0.000132614
0.00142928
0.00137695
0.000100526
0.000256565
0.000131677
0.00151102
0.00145974
0.000179642
0.000309519
0.000484771
0.000516131
0.000749668
0.0001993
0.000185298
0.000257635
0.00136029
0.00161853
0.00016324
0.00126552
0.00011459
0.00147073
0.00135634
0.0014813
0.00135001
0.00122655
0.00010683
0.00159964
0.000122136
0.00102901
0.000161659
0.000716958
0.001374
0.000455938
0.000469794
0.000147115
0.000160825
0.000175962
0.00121151
0.00169996
0.00042561
0.000246993
0.000143703
0.000188289
0.000202427
0.000669019
0.00143688
0.000680573
0.00033235
0.00168627
0.000313812
0.000215081
0.000221681
0.000121267
0.00026111
0.000744031
0.000112021
0.000456316
0.000186133
0.00144166
0.00149075
0.00159054
9.35406e-05
0.00075694
0.00128027
0.000301326
0.00163907
0.00011954
0.00119672
0.000537138
0.000177176
0.00151682
0.000206922
0.000172406
9.51075e-05
0.00107741
0.000281698
9.79515e-05
0.000178886
0.00132461
0.000230072
0.000790585
0.000255479
0.000145549
0.000423492
0.000203375
0.000957387
0.000793255
0.00116199
0.000189156
0.000158034
0.000118455
0.00012243
0.00174737
0.00144064
0.000205233
0.000975862
0.00177091
0.000184564
0.000127875
0.000109852
0.000703338
0.00154421
0.000234955
0.000108402
0.000103068
0.000181477
0.00163764
0.000196326
0.000681241
0.000718876
0.00146138
0.000233542
0.000991237
0.000181848
0.000937422
0.000184709
0.000102456
0.000724023
0.000115228
0.000185617
0.000178012
0.000170679
0.0001215
0.000443611
0.000114023
0.000112051
0.000741364
0.00126473
0.000211255
0.000130877
0.000133951
0.00115423
0.00011306
0.00115333
0.000125425
0.00029769
0.00150446
0.000143197
0.00130573
0.000175999
0.000168984
0.000498107
0.00153042
0.000325321
0.000249352
0.00132377
0.000146693
0.000960793
0.000111456
0.0014474
0.000260355
0.000207487
0.000584823
0.000185771
0.00020959
0.000461549
0.000147381
0.000374134
0.00152929
0.000276323
0.000105576
0.00135299
0.000104234
0.00171878
0.00141725
0.00150824
0.00155278
0.000158931
0.000121798
0.00144392
0.000918149
0.000167906
0.000908006
0.00141351
0.00123078
0.00138304
0.000164955
0.00017616
0.00128683
0.000163363
0.000775794
0.000118945
0.000217
0.00168761
0.000120748
0.000340058
0.00150591
0.000444659
0.000143143
0.000187677
0.00143848
0.00109238
0.00165256
0.000715016
9.53298e-05
0.000586091
0.00129825
0.00017344
0.00163559
0.000438828
0.000178186
0.000113005
0.00037574
0.000445759
0.000352899
0.000213815
0.00013206
0.00161278
0.000136525
0.00122814
0.00118063
0.00164695
0.0012968
0.000187848
0.000860031
0.000157333
0.000211441
0.000117439
0.000959845
0.000338294
0.000208601
0.00131774
0.00119253
0.000623029
0.00119818
0.000158135
0.00147051
0.000815964
0.00145847
0.000172109
0.000468529
0.00131215
0.000163243
0.000145777
9.60095e-05
0.000197448
0.000205237
0.000228149
0.000285892
0.00043414
0.00019544
0.000187861
0.00183756
0.000221764
0.000165445
0.000497868
0.000145611
0.000310827
0.000181664
0.000112069
0.000171996
0.00118802
0.000552745
0.000162402
0.000184847
0.000392353
0.000217978
0.000327742
0.000208556
0.000153549
0.00153417
0.00121692
0.00015701
0.000133644
0.000141201
0.00021552
0.001449
0.000166185
0.00106814
0.00018851
0.000710613
0.000457412
0.000178663
0.000111426
0.000573728
0.000158298
0.00102622
0.000118409
0.000130045
0.00160998
0.00015237
0.000184715
0.00016733
0.000707393
0.000133219
0.000109785
7.3417e-05
0.000141588
0.00163011
0.000203601
0.000939701
0.000400737
0.00114898
0.000169049
0.000436124
9.76415e-05
0.000699482
0.000128328
0.00093789
0.000716852
0.000138806
0.00171783
0.000505973
0.000205229
0.00015165
0.000192779
0.00153025
0.000262411
0.000155471
0.00015087
0.000114857
0.000197433
0.00144685
0.00126062
0.00025523
0.00124208
0.00136747
0.00111389
0.000300921
0.000161311
0.000163982
0.00139814
0.00103846
0.000168535
0.000292287
8.62983e-05
0.000438124
0.00096587
0.000126037
0.000117829
0.000200921
0.00015431
0.000187162
0.000653496
0.00122101
9.98539e-05
0.00011535
0.00016625
9.56416e-05
0.000124454
0.00140455
0.0014
0.00120965
0.000939332
8.77368e-05
0.000834673
0.000355851
0.000214703
0.00141935
0.000105737
0.000374894
0.000219634
0.00123961
0.0013404
0.000761234
0.000167374
0.00060784
0.000507651
0.00167541
0.000170609
0.000196126
0.000132638
0.00141232
0.000730897
0.00038105
0.000719817
0.000160105
0.00014171
0.000117926
0.00136788
0.000274681
0.000550036
0.000162253
0.00164435
0.000181158
9.93959e-05
0.000784064
0.000218695
0.000142876
0.000123901
0.000183845
0.000142751
0.00117281
0.00011912
0.000169594
0.000141161
0.000199029
0.00011634
0.00131334
0.00181976
0.00127099
0.000856026
0.00138337
0.000227373
0.00014541
0.001295
0.000274457
9.49762e-05
0.000156514
0.000978386
0.000150639
0.000114679
0.000594868
0.000163484
9.40539e-05
0.000129636
0.000132784
0.000677238
0.000278744
0.000248783
0.000154323
0.000219066
0.000109194
0.000178526
0.000224061
0.000783633
0.000270546
0.000144397
0.000392596
0.000659068
0.000195759
0.000821006
0.000998444
0.000143109
0.00019282
0.000188585
0.000134136
0.000194778
0.000849923
0.000188406
0.00138993
0.000759902
0.000280338
0.000663018
0.000771785
0.000133805
0.00155407
0.000167323
0.000161213
0.000136261
0.000139237
0.000166967
0.000527598
0.000606969
0.00128214
0.00115601
9.70839e-05
0.000747827
0.00172986
0.000122428
0.000186428
0.00112911
0.000117712
0.00018462
0.000930311
0.00146906
0.00071531
0.000109023
0.000258584
0.000130194
0.000105756
0.000140784
0.000127225
0.000269018
0.000100421
0.000922034
0.00137229
0.00168696
0.000355461
0.000170262
0.000256484
0.000179796
0.000159167
0.000245347
0.000394771
0.000314123
0.00158578
0.000534979
0.00166794
0.0014878
0.000226831
0.000210135
0.00129506
0.000189655
0.000393277
0.000667925
0.000150139
0.000675277
0.00144699
0.000135561
0.00134925
0.00170351
0.00124687
0.00012359
0.00145823
0.000181334
0.000130964
0.00128465
0.000203327
0.000117
0.000106315
0.000214042
0.000142775
0.000667655
0.0012552
0.00128612
0.000715698
0.000107716
0.000198712
0.000715921
0.000876282
0.000202693
0.000116988
0.000721883
0.0015211
0.00144004
0.0001829
0.00152849
0.000114734
0.000125297
0.000186862
0.000112415
8.9887e-05
0.00137963
0.000132334
0.00109463
0.0011662
0.00108919
0.00160837
0.0012061
0.00133167
0.00126357
0.00167087
0.00153323
0.000309397
0.000237807
0.000175364
0.000114384
0.000922265
0.000244711
0.000175627
0.00104735
0.000145872
0.00181583
0.00178695
0.00162733
0.0005982
0.000110882
0.00145369
0.000297772
0.000110953
0.00160633
0.000176436
0.00154961
0.000154426
8.75022e-05
0.00102086
0.000119487
0.000164581
0.00105155
0.000855086
0.000537512
0.000148991
0.00137622
0.000151547
0.000111226
0.000113401
0.000106677
0.000117916
0.00171537
0.000119551
0.000672041
0.00100703
0.000176364
0.00160568
0.00169918
0.000172389
0.00159301
0.00135072
0.000128548
0.00165958
0.000167441
0.000159597
0.00129074
0.000858888
0.00024388
0.00141929
0.000156746
8.01531e-05
0.00121413
0.00019846
0.00102274
0.00136962
0.000170808
0.000211921
0.00020715
0.000137792
0.000165157
0.000344195
0.000267555
0.000132667
0.000168253
0.000139438
0.00109706
0.000886147
0.00172122
0.00152706
0.000120437
0.000836062
0.00141606
0.000155223
0.000468504
0.000160144
0.000208605
0.000772201
0.00169905
0.000111293
0.000847579
0.000101664
0.00017528
0.000178898
0.000226778
0.00010844
0.000162434
0.000242836
0.000179919
0.000877385
0.000135948
0.00150846
0.000199662
0.00172103
0.000129205
0.00010087
0.000114697
0.000426392
0.000182295
0.000923967
0.000638215
9.87966e-05
0.000208615
0.000188242
0.0017027
0.000562619
0.00143038
0.000149845
9.52817e-05
0.000572342
0.000132822
0.000176627
0.00150705
0.00052371
0.000114675
0.000401874
0.000207643
0.000104398
0.000632809
0.00162296
0.000165472
0.000640083
0.000212315
0.000211303
0.000975587
0.000790505
0.00157497
0.000554962
0.000136887
0.000219121
0.000988523
0.000461361
0.000206865
0.000154186
0.000163693
0.00108713
0.000118527
0.000923557
0.000108156
0.00122295
0.000191512
0.00034321
0.000213514
0.00093944
0.00159067
0.000318062
0.000437793
0.00014659
0.000157548
0.000643208
0.000352206
0.000191159
0.000227999
0.00101097
0.000515834
0.000913245
0.000133858
0.000402082
0.000880119
0.00123666
0.000131736
0.000135592
0.000109441
0.000483605
8.9299e-05
0.000158571
0.000215257
0.00133408
0.000152601
0.000106143
0.000994707
0.000924871
0.000127462
0.00105413
0.00142738
0.000185815
0.000206868
0.00129588
0.00146398
0.000164598
0.000157363
0.0013677
0.000146931
0.000212588
8.5602e-05
0.00146312
0.00111402
0.00136727
0.000427612
0.000935147
0.000186141
0.000135091
0.0014876
0.00124135
0.000120853
0.000755677
0.0001041
0.000111852
0.00016863
0.000625869
0.000209505
0.000577535
0.000360415
0.000106861
0.000142053
0.00018597
0.00167254
0.00155745
0.000189838
0.00137845
0.000152972
0.000591086
0.00018389
0.000143627
0.000242796
0.000136017
0.000470566
0.000118912
9.7447e-05
0.000114137
0.000174854
0.000490322
0.000111014
0.00070145
0.00114474
0.000172644
0.000116771
0.000219425
0.000976775
0.000154647
0.000225806
0.000247054
0.000120909
0.0001776
0.000510002
0.000117159
0.000153114
0.000174312
0.000340017
0.00139408
0.0003136
0.000311148
0.000106888
0.000149519
0.000153289
0.000155221
0.000183878
0.0015022
0.000117193
0.00045956
0.000158492
0.000135945
0.000325454
0.000239304
0.000209055
0.000172316
0.000969204
0.000159449
0.00018426
0.00152128
0.000111845
0.000282671
9.85025e-05
8.52811e-05
0.000131927
0.000540348
0.000185733
0.00165554
0.00177379
0.00029824
9.04263e-05
0.000149229
0.000844032
0.000174706
0.00105258
0.0010268
0.00132285
0.000134265
0.000898465
0.000977134
0.000785305
0.000912539
0.000139662
0.000179626
0.00116004
0.000138486
0.000125167
0.00170312
0.000270283
0.000325463
0.000115291
0.000226281
0.000207758
0.000109989
0.000841314
0.00114026
0.000277594
0.00017638
0.000147654
0.000545543
0.000231479
0.000133686
0.00170026
0.000911066
0.00101366
0.00124911
0.00150716
0.000891939
0.000446856
0.000218005
0.000215428
0.000164499
7.76419e-05
9.78397e-05
0.00164373
0.000324199
0.000170432
0.00010762
0.00120631
0.000101995
0.000470885
0.000120907
0.00102777
0.000574522
0.000166162
0.00136914
0.00107707
0.000884032
0.000155719
0.000229672
0.00140048
0.00160504
0.00018446
0.000102143
0.000283939
0.00136669
0.000397101
0.000168141
0.000151342
0.000433097
9.66294e-05
0.00125184
0.000183907
0.000198157
0.000232074
0.000192559
9.0791e-05
0.000178554
0.0007338
0.000527396
0.00132714
0.000192859
0.000124574
8.02111e-05
0.000576524
9.72193e-05
0.000117181
0.000103099
0.00154116
0.000171151
0.00165319
0.000517628
0.000128942
0.000125481
0.000217413
0.000880361
0.00143521
0.000436864
0.000245556
0.000117132
0.000135727
0.000109528
0.000181557
0.000144548
0.000210241
0.000118105
0.00176731
0.000144879
0.000143678
0.000106476
0.000208036
0.000816679
0.000211286
0.00106858
0.00182164
0.00042762
0.000128517
0.00148256
0.000150553
0.000136761
0.00153601
0.000957557
0.000216307
0.00174797
0.00109716
0.000187682
0.000283276
0.000819947
0.00145942
0.000118888
0.000748636
0.00136279
0.000160239
0.000105004
0.00014866
0.000163384
0.0015933
0.000158506
0.000103288
0.000819928
0.000162138
0.000230921
0.000136643
0.00011459
0.000144454
0.000190886
9.45184e-05
0.000170548
0.000163488
0.000162823
0.000188335
0.00014198
8.36966e-05
0.00155286
0.000173648
0.00134193
0.000279911
0.000561434
0.00015767
0.000877606
0.000154247
0.000825186
0.00143694
0.000119426
0.00175089
0.000274582
0.000162289
0.000235733
9.57783e-05
0.000233746
0.000146113
0.000349918
0.000115701
0.000173427
0.000626497
0.000429427
0.00160815
0.00106166
0.000171958
0.000172509
0.000118869
0.000646462
0.000385254
0.000374717
0.00123856
0.000108165
0.000720731
0.000324933
0.000750482
0.000128238
0.000155189
0.000197711
0.000116252
0.00166432
0.000380808
0.000226204
0.000360698
0.000233309
0.000234605
0.000123327
0.000383789
0.000447658
0.00142347
0.000727992
0.000206731
8.72516e-05
0.000148717
0.000195786
0.000208552
0.000242202
0.000118514
0.000245965
0.000822192
0.000184438
0.000227752
0.000146327
0.000186661
0.00168751
0.0001078
0.00103457
0.000258192
0.00123298
0.000168279
0.000185492
0.000220675
0.000589433
0.00020163
0.000312657
0.000116769
0.000175202
0.00147093
0.000613689
0.00150596
0.000120713
0.000118398
0.000124361
0.000186623
0.000137896
0.000124427
0.000143399
0.000142861
0.00128805
0.000161639
0.000119695
9.56272e-05
0.000493743
0.000754413
0.000107407
0.000291636
0.000176786
0.000151068
0.000606443
0.00018139
8.96781e-05
0.000125512
0.000195035
0.000128998
0.000550322
0.000101369
0.000137365
0.0010926
0.000155819
0.00104146
0.0001934
0.000152325
0.000266697
0.000105093
0.000583782
0.000182799
0.000120739
0.000165705
0.000373825
0.000242001
0.000560537
0.000103292
0.000184567
0.000113534
0.000130954
0.000228606
0.000113591
0.00014808
0.000192918
0.000173815
0.000168276
0.000101572
0.00141624
0.000124645
0.000555154
0.000798094
0.000159039
0.000199688
0.000207526
0.000214794
0.000707933
0.00108008
0.000106455
0.000632428
0.000124557
0.000200576
0.000197653
0.000156261
0.00017803
0.00164015
0.000162321
0.000947051
0.000240052
0.000104566
0.000318014
0.000152531
0.00113321
0.000188411
0.000738082
0.000228785
0.00045051
0.000240364
0.000157331
0.000187205
0.00155599
0.00139649
0.000160935
0.000140126
0.000143948
0.00021415
0.000134703
0.000169502
0.000111737
0.00057282
0.000109376
0.00136202
0.000165901
0.000352269
0.000166317
0.00147558
0.000222086
0.000116874
0.001264
0.00144915
0.000318483
0.000231572
0.000162512
0.001817
0.00180274
0.000633016
0.000461438
0.000777833
0.000157888
0.000277882
0.000535954
0.000308006
0.000129265
0.000250237
0.00137963
0.000389616
0.00116762
0.00181808
0.000105999
0.000612836
0.000154652
0.000824606
0.000127632
0.00038662
0.000663335
0.00104683
0.00134292
0.000158687
0.00175279
0.000118875
0.000202553
0.000270091
0.000183859
0.000698436
0.000187987
0.000180798
0.000102772
0.000129599
0.000290657
0.000126511
0.000211296
0.000408563
0.000134022
0.00133301
0.000142514
0.000174328
0.000106892
0.000174931
0.000155708
0.000748993
0.000103492
0.000684933
0.00136482
0.000855866
0.000969141
0.00135585
0.00077138
0.00137021
0.000418491
0.000233393
0.000191831
0.000354783
0.00021094
0.000157522
0.000188587
9.0107e-05
0.0015523
0.0002328
0.00016967
0.00164681
9.60155e-05
0.000112021
0.000180734
0.000246461
0.00152555
9.82791e-05
0.000141862
0.000165687
0.000257112
0.000171988
0.000100537
0.000498174
0.000166185
0.0001908
0.00135631
0.000237965
0.00117969
0.000152039
0.000189225
0.00178592
0.000110517
0.00166861
0.000861617
0.000155859
0.000566871
0.00100069
0.000172165
0.000239248
0.00175352
0.000143138
0.000192472
0.000611043
0.000180845
0.000208016
0.000136267
0.00139482
0.00169105
0.000517546
0.00117376
0.000481203
0.00133952
0.000165239
0.000140455
0.00131347
0.000544642
0.000165877
0.000163171
0.000193707
0.00105004
0.000192363
0.000183231
0.000203317
0.000468853
0.000222521
0.000555208
0.00100189
0.00154679
0.00016459
0.000151052
0.00129762
0.000191965
0.000650607
0.000367852
0.000108069
0.000227168
0.00124196
0.000218207
0.000190163
0.000148892
0.000158985
0.0010236
0.00165723
0.000538808
0.000151941
0.000104085
0.00012476
0.00109201
0.00082147
0.000108621
0.00153424
0.00097205
0.000899894
0.000132323
0.000248016
0.000219784
0.000115131
0.000170343
0.000782086
0.000400807
0.00116544
0.000183125
8.66307e-05
0.000138801
0.000171083
0.000609174
0.00017908
0.000110586
0.00121246
0.000933018
0.00162888
0.000146531
0.000140174
0.000105392
0.00154785
0.000856576
0.000949881
0.00125998
0.000160591
0.000409109
0.000171289
0.00167924
0.00106906
0.00104922
0.000879777
0.00171225
0.000181549
0.000147311
0.000163124
0.0016754
0.000461495
0.000142335
0.00132825
0.000105441
0.000194552
0.000377109
9.67401e-05
0.000131671
0.000107911
0.000163212
0.000633307
0.00034342
0.000112556
0.000222635
0.000166915
0.000700227
0.00142247
0.000212365
0.000190338
0.000253412
0.000920947
0.000231276
0.000199313
0.000182171
0.000131114
0.000105897
0.000213185
0.000205319
0.000211599
9.65311e-05
0.00102432
0.000451532
0.000853252
0.000265273
0.000182279
0.000725416
0.000203347
0.000157202
0.000166146
0.00022363
0.000129865
0.000235398
0.000734901
0.000522764
0.00156295
0.000543806
0.000143464
8.29098e-05
0.000658787
0.00154045
0.000460918
0.000826974
0.00126002
0.00011162
0.000142777
0.000581752
0.00096337
0.000148304
0.000227847
0.000149561
0.000188488
0.00015456
0.00133289
0.000102028
0.000140223
0.000207089
0.000101264
0.00170714
0.0015985
0.000840083
0.000171415
0.000122407
0.0001095
0.000111143
0.00107037
0.000142215
0.000189456
0.00129907
0.000583697
0.000710614
0.000923528
0.000132753
0.000103012
0.000481014
0.000138173
0.000211912
0.000446585
0.000306382
0.00142216
8.52131e-05
0.000361849
0.000172141
0.000124281
0.000208646
9.92642e-05
0.000206178
0.000134021
9.4268e-05
0.000463064
0.000135736
0.00010789
0.000172984
0.000170657
0.00138897
0.00115857
0.000165136
0.000167651
0.000121042
0.000189696
0.000185416
0.00136478
0.0016508
0.000190046
0.000166245
0.000109321
0.00163923
0.00145903
0.000463766
0.000105148
0.000699544
0.000367582
0.000117608
0.000159203
0.00150828
0.0003791
0.000397943
0.000213966
0.000485386
0.00116636
0.000120996
0.000237132
0.000150348
0.000925461
0.000867008
0.00126523
0.000157969
0.00126334
0.000195597
0.000633225
0.000627968
0.000995442
0.000898503
0.000108906
0.000208774
0.000116935
0.00164335
0.00135007
0.000302895
0.00102004
0.000163604
0.000129035
0.000840548
0.00121793
0.000157595
0.000257871
0.000267583
0.000133892
0.00104194
0.00127941
0.00106895
0.00127156
0.000560154
0.000454634
9.54813e-05
0.00121226
0.00121093
0.000510505
0.000124826
0.000203984
0.000174828
8.9863e-05
0.000134275
0.00133319
0.00140716
0.000205304
0.0001848
0.000320496
0.000344444
0.000119741
0.000860709
0.000376954
0.000337764
0.00159941
0.000121114
0.000267552
0.000157464
0.000172945
0.000393423
0.000184532
0.000206367
0.00059871
0.000345236
0.00072284
0.00145995
0.000149004
0.00102646
0.000114494
0.00111204
8.3544e-05
0.00117256
0.000210052
0.000114589
0.000183411
0.000185689
0.000190337
0.00016528
0.00016767
0.000407904
0.000180357
0.00133948
0.000829352
0.00127452
9.41254e-05
0.000130622
0.000183988
0.000322595
0.000141664
0.000112545
0.000639184
0.00079843
0.00127978
0.000557325
0.000674582
0.0015609
0.000733655
0.000821758
0.000747743
0.000178702
0.000157808
0.00168105
0.00153995
0.000126446
0.000501476
0.00100419
0.00121271
0.000173192
0.00039074
0.000195086
0.00155655
0.000207282
0.000139515
0.000211191
0.000289541
0.0004223
0.000172555
0.000181507
0.00106946
0.000214303
0.000182246
0.00055604
0.000123053
0.000103757
0.000266126
0.000734315
0.000182101
0.000116697
0.000155679
0.00126704
0.00101505
0.00011407
0.000582391
0.000110169
0.000114277
0.00140725
0.000205989
0.000380758
0.000777536
0.0013798
0.000703889
0.00134605
0.00128225
0.00018867
0.00169952
0.000542189
0.00131148
0.000167411
0.000145504
0.0014497
0.000105671
0.00077377
0.000521566
0.000789957
0.000591112
0.00150523
0.000444174
0.000170653
0.000884652
0.00155693
0.000106183
0.000193518
0.00159957
0.00020011
0.000812159
0.0012698
0.000116781
0.000239042
0.000179368
0.000147427
0.00116993
0.000714968
0.000120669
0.000112785
0.000118054
0.000241659
0.000162926
0.000155368
0.000237154
0.000354742
0.00112551
0.00157317
0.000354039
0.000501937
0.000489792
0.000157963
0.000152394
0.00138516
0.0015056
0.00172523
0.00179087
0.000153707
0.000175862
0.000186234
0.000115427
0.000821025
0.00144382
0.00150099
0.000115088
0.000622589
0.0011212
0.000188857
0.00173547
0.000934401
0.00124814
0.00151786
0.000145725
0.000134602
0.000163203
0.000165097
0.000759566
0.000461034
0.000149443
0.000620626
0.000106898
0.000102672
0.000119164
0.00157065
9.83219e-05
0.000267321
0.00128407
0.000224819
0.000162534
0.00115786
0.00162449
0.000114301
0.000181514
0.000103407
0.000188254
0.00137679
0.000259922
0.000162383
0.00161027
0.00146431
0.00103796
0.000260426
0.00109785
0.000746805
0.000946361
0.000448998
0.000116852
0.000563616
0.000127616
0.000101502
0.0001098
0.00137356
0.000182502
0.00111643
0.00040509
0.000116335
0.00014548
0.00017666
0.00015784
0.000171477
0.000122128
0.00046012
0.000551719
0.0012062
0.00066409
0.00015382
0.00019482
0.00101339
7.91669e-05
0.0001556
0.000238562
0.00016388
0.00123161
0.000320968
0.000779852
0.000182042
0.00100106
0.000201653
0.000781165
0.000146158
0.00124796
0.000165571
0.000151653
0.000128845
0.000280476
0.000207632
0.00169364
0.000162971
0.00146346
0.00056759
0.000147774
8.71631e-05
0.000107855
0.000157832
0.000155048
0.000167972
0.000121212
0.00153946
0.000111048
0.000708663
0.000105982
0.000150311
0.000111637
0.000146941
0.000184703
0.000184561
0.000476477
0.000158192
0.0012721
0.00012671
0.00155451
0.000198394
0.000163189
0.00010021
0.000693268
0.000930454
0.000184142
0.000301858
0.000909439
0.000829238
0.000414131
0.000270454
0.00114263
0.000780831
0.00105642
0.000374006
0.000231508
0.000103276
0.000109136
0.000653552
0.00015083
0.000109654
0.000516891
0.000101649
0.000127088
0.000165229
0.000197043
0.000159344
0.00136745
0.000297204
0.000841222
0.000441887
0.000974215
0.000309132
0.0016194
0.00011593
0.000113547
0.000558347
0.00102625
0.000377012
0.00056152
0.000918319
0.000696507
0.000451037
0.000162022
0.000558615
0.00174599
0.000198309
0.000217125
0.000206303
0.000322403
0.000112853
0.000166339
0.000664778
0.000144827
0.000206066
0.000167101
0.000157681
0.000153974
0.00114109
0.000230179
0.00140294
0.000255148
0.000124511
0.000940419
0.00157762
0.000911167
0.000189058
0.000373261
0.000140479
0.000151731
0.000705542
0.000185019
0.000142212
0.000398922
0.00022995
0.00148947
0.000188373
0.000244996
0.000105053
0.00177996
0.00173994
0.000827459
0.000165627
0.000166945
0.000166428
0.000604938
0.000107066
0.000138208
0.000170246
0.000108787
0.000190038
0.000121267
0.000223953
0.000232691
0.000444755
0.00149617
0.000757984
0.000197887
0.000147793
0.000127483
0.00148674
0.000664618
0.000226977
0.000900844
0.000117236
0.00015336
0.000151027
0.000479397
0.000131788
0.00169708
0.00146704
0.000113168
0.000166807
0.00108904
0.000822226
0.00134182
0.000106527
0.000376777
0.000217836
0.000253389
0.000163932
0.00126732
0.000165361
0.000153616
0.000188214
0.000178647
0.000500781
0.00010459
0.000150632
0.000153528
0.000474079
0.000753786
0.0014693
0.00010308
0.00034013
0.000936274
0.000181493
0.000199481
0.000697416
0.00135595
0.00129879
0.0002099
0.00063558
0.000186734
0.000133693
0.000205226
0.00134111
0.00119048
0.000125017
0.000634541
0.00019861
0.000163125
0.000254393
0.000179291
0.000749534
0.000901127
0.000515543
0.000171346
0.00124959
0.000159257
0.00158292
0.000110006
0.000177511
0.00116411
0.000959403
0.000111497
0.000484782
0.000982112
0.00104358
0.00132787
0.000121928
0.000202739
0.00111055
0.00047948
0.000393172
0.000837146
0.000112933
0.000339843
0.000124224
0.000112136
0.000655243
0.0017807
0.000112854
0.000710919
0.00026594
0.000160885
0.000129748
0.00116386
0.000745264
0.000159743
0.000169231
0.00010177
0.000486462
0.000502593
0.000190893
0.000107675
0.00092022
0.00114568
0.000698409
0.000474776
0.000157497
0.00163853
0.000440493
0.00100186
0.000106698
0.000212359
0.000205804
0.000212099
0.000136774
0.000610861
0.000760382
0.00120037
0.000863802
0.00142044
0.000925525
0.000664417
0.00120992
0.000145494
0.000819729
0.000879234
0.00011368
0.000917503
0.000107724
0.000181153
0.000186612
0.000367884
0.000324571
0.000221805
0.000288867
0.000112484
0.000189973
0.000425552
0.000790175
0.000511467
0.00017449
0.000125781
0.000948085
0.000120342
0.000218297
0.00042538
0.000161124
0.000203987
0.000546545
0.000382789
0.000324643
0.000119919
0.000151585
0.000206487
0.000271274
0.00153099
0.000186464
0.000700537
0.000947002
0.000161128
0.00178501
0.000105147
0.0013001
0.000216261
0.000199734
0.000100298
0.00170224
0.0011053
0.000167816
0.000943891
0.000161037
0.000169848
0.000423688
0.000104963
0.00101802
0.000871555
0.00125433
0.000138502
0.000101465
0.00050137
0.000861445
0.000429489
0.000146106
0.000176823
0.000245058
0.000633525
0.000205046
0.00154304
8.6252e-05
0.000109645
0.000705342
0.000897167
0.000874261
0.000117213
0.000151172
0.000126736
0.000255968
0.000424968
0.00017472
0.000144842
0.000172854
0.000465537
0.000375845
0.000576659
0.00116256
0.000388878
0.00129399
0.000167751
0.000208283
0.000136621
0.000151012
0.000655751
8.35191e-05
0.00157797
0.0011883
0.000389968
0.000176815
0.000115435
0.000634413
0.00114817
0.000104256
0.00093424
0.000101466
0.000222222
0.000116354
0.000167705
0.000525802
0.000800521
0.000178895
0.000345942
0.000831983
0.000843176
0.000113691
0.000542956