/*--------------------------------*- C++ -*----------------------------------*\
| =========                 |                                                 |
| \\      /  F ield         | OpenFOAM: The Open Source CFD Toolbox           |
|  \\    /   O peration     | Version:  2406                                  |
|   \\  /    A nd           | Website:  www.openfoam.com                      |
|    \\/     M anipulation  |                                                 |
\*---------------------------------------------------------------------------*/
FoamFile
{
    version     2.0;
    format      ascii;
    arch        "LSB;label=32;scalar=64";
    class       volScalarField;
    location    "18";
    object      p;
}
// * * * * * * * * * * * * * * * * * * * * * * * * * * * * * * * * * * * * * //

dimensions      [0 2 -2 0 0 0 0];

internalField   nonuniform List<scalar> 
59516
(
0.406865
0.0165676
0.0193515
0.00107503
0.434503
0.455861
0.406727
0.332229
0.076171
-0.00209789
0.425001
0.414061
0.227375
0.406126
0.362971
0.0798581
0.409766
0.428714
0.417945
0.401979
0.416262
0.332092
0.408441
0.198731
0.0681728
0.186301
0.0971471
0.421423
0.413976
0.362853
0.437938
0.421115
0.129708
0.00141036
0.418529
0.302505
0.0674952
0.432333
0.41565
0.0152135
0.0155077
0.425792
0.417104
0.000727119
0.413512
0.0513691
0.416818
0.417545
0.436214
0.421392
0.44371
0.000174493
0.128946
0.346283
0.413343
0.413016
0.428395
0.00044681
0.196893
0.422639
0.00115329
0.292388
0.198931
0.411178
0.00233057
0.415799
0.0101284
0.31205
0.436301
0.414953
0.321195
0.403438
0.0524384
0.405827
0.314239
0.413575
0.415857
0.0381576
0.235513
0.42078
-0.00159388
0.419535
0.418428
0.11253
0.420144
0.400386
0.076958
0.402761
0.130604
0.427846
0.432755
0.325275
0.389935
0.318954
0.319601
0.435623
0.36244
0.335562
0.41929
0.221882
0.0834255
0.17205
0.351031
0.0134287
0.0516636
0.00664345
0.00750192
0.0719018
0.134968
0.236268
0.435558
0.0911093
0.327953
0.436161
0.380398
0.277594
0.0417209
0.34852
0.346644
0.0434688
0.351404
0.341976
0.0636433
0.346189
0.432587
0.420394
0.377613
0.427882
0.44186
0.386707
0.380989
0.01926
0.311178
0.38774
0.388458
0.30768
0.43381
0.371418
0.173381
0.394764
0.0915661
0.119117
0.334542
0.0926451
0.399149
0.393519
0.41514
0.4044
0.442558
0.389745
0.398536
0.00254918
0.382978
0.00244432
0.384759
0.00424693
0.00259534
0.38697
0.390907
0.363324
0.3971
0.396926
0.361564
0.00165296
0.274835
0.0411465
0.0769862
0.393677
0.396938
0.00418831
0.385325
0.385298
0.374386
0.377402
0.375307
0.418404
0.281832
0.418854
0.0201045
0.276529
0.381949
0.143874
0.179174
0.378043
0.382317
0.0850424
0.11987
0.0644978
0.383491
0.376883
0.000457164
0.141466
0.392791
0.376563
0.396054
0.0275835
0.172594
0.173279
0.00358504
0.372178
-0.00117919
0.0664272
0.337025
0.227198
0.292189
0.141449
0.395814
0.00358868
0.208739
0.358776
0.0523312
0.421472
0.355645
0.293485
0.357486
0.0976311
0.391229
0.026769
0.255289
0.356962
0.356822
0.391067
0.375261
0.00288905
0.364461
0.281944
0.207968
0.221688
0.373125
0.0463299
0.365053
0.139639
0.376239
0.151714
0.15816
0.373559
0.372732
0.057484
0.370997
0.0648614
0.38378
0.144257
0.133526
0.00184719
0.38567
0.382337
0.37746
0.0172929
0.375524
0.382451
0.0157149
0.375348
0.384344
0.182621
0.380762
0.381876
0.0787335
0.368258
0.245022
0.362962
0.210796
0.364214
0.366611
0.369307
0.301198
0.0610103
0.261422
0.0687255
0.363558
0.193844
0.408253
0.292112
0.0768303
0.199575
0.365879
0.302305
0.192741
0.36309
0.368274
0.0979817
0.374656
0.226207
0.199874
0.359421
0.355581
0.407838
0.382177
0.00859408
0.370025
0.30484
0.369022
0.358941
0.320026
0.0389769
0.325508
0.134627
0.309492
0.298219
0.363192
0.306685
0.305635
0.0672825
0.10486
0.291478
0.311421
0.184839
0.0263632
0.308065
0.308383
0.0851837
0.0701308
0.308424
0.18185
0.164185
0.414309
0.312803
0.338781
0.436856
0.312339
0.0671777
0.139534
0.337366
0.153685
0.345423
0.224773
0.312063
0.422406
0.339701
0.206146
0.342898
0.0306349
0.400569
0.201282
0.34327
0.248965
0.358413
0.369749
0.288821
0.42202
0.356273
0.294293
0.290387
0.345538
0.0609369
0.110307
0.355704
0.102104
0.369319
0.346887
0.244986
0.373044
0.375672
0.04776
0.126885
0.207808
0.0623589
0.00748155
0.433745
0.44006
0.277288
0.043763
0.38941
0.4217
0.327332
0.0461125
0.343619
0.342981
0.389945
0.438609
0.35222
0.0899067
0.0888198
0.34057
0.215652
0.269103
0.339109
0.344045
0.331411
0.238877
0.314944
0.392215
0.000871743
0.424475
0.0109984
0.0261515
0.343707
0.00785096
0.42329
0.341998
0.0178128
0.0163754
0.0632119
0.331316
0.432156
0.337507
0.432639
0.0151896
0.0775702
0.330628
0.332797
0.359867
0.325065
0.241966
0.362483
0.36633
0.0642525
0.167313
0.366435
0.361098
0.359423
0.0520795
0.0305283
0.0339857
0.150239
0.29277
0.0155466
0.0482418
0.0723043
0.00508863
0.328808
0.323026
0.337769
0.337296
0.36511
0.337185
0.220285
0.322929
0.177028
0.339622
0.253728
0.347549
0.336188
0.302474
0.153951
0.35797
0.424126
0.0311911
0.349785
0.211059
0.087512
0.217902
0.256711
0.352522
0.348897
0.338703
0.334499
0.0848596
0.334873
0.224424
0.038977
0.262198
0.43981
0.178407
0.0664498
0.340285
0.246161
0.333087
0.160914
0.333838
0.0667711
0.337721
0.00399749
0.0075032
0.325464
0.416442
0.320559
0.283156
0.0477502
0.290772
0.287855
0.0536335
0.306437
0.287359
0.277469
0.276662
0.106312
0.29215
0.280964
0.157124
0.27633
0.0928697
0.272658
0.421915
0.26985
0.443262
0.273403
0.371885
0.0915201
0.104301
0.219012
0.00449998
0.00321601
0.249368
0.303649
0.312015
0.204146
0.282449
0.0609425
0.325412
0.319897
0.426046
0.173574
0.145271
0.225981
0.319002
0.0276318
0.307848
0.407488
0.00468686
0.462181
0.322675
0.0697607
0.39888
0.246044
0.413754
0.28921
0.230886
0.270725
0.330153
0.235659
0.330525
0.389492
0.0799326
0.0817126
0.433361
0.00273425
0.32715
0.306452
0.43447
0.299874
0.397142
0.00092881
0.312364
0.0918427
0.00053841
0.196392
0.0509011
0.427795
0.345593
0.074841
0.00267239
0.361493
0.148042
0.306375
0.357249
0.304414
0.391173
0.000863188
0.114502
0.0729427
0.304996
0.0475764
0.186894
0.325799
0.156938
0.322284
0.00202726
0.332023
0.0717155
0.322811
0.218279
0.128285
0.119246
0.328429
0.00177737
0.0542847
0.305587
0.0870492
0.207265
0.258907
0.137366
0.131256
0.300873
0.299654
0.379227
0.298642
0.129299
0.302239
0.297475
0.126668
0.109755
0.000941874
0.303541
0.298816
0.302204
0.103752
0.285291
0.0129663
0.305563
0.00621694
0.32916
0.000998255
0.0342339
0.234706
0.143447
0.0120961
0.306607
0.429762
0.00066285
0.0230369
0.297438
0.290782
0.0438367
0.294494
0.295857
0.162509
0.0498725
0.329653
0.312509
0.0176952
0.303129
0.302306
0.184965
0.291008
0.441031
0.303145
0.433424
0.238745
0.435836
0.243229
0.0308273
0.397092
0.00557274
0.00573142
0.437829
0.436661
0.247332
0.301791
0.428114
0.421907
0.147945
0.112237
0.218439
0.0674812
0.240739
0.137004
0.423909
0.246446
0.250482
0.285588
0.261669
0.438934
0.222557
0.268615
0.0624628
0.271916
0.175536
0.0263992
0.27167
0.270782
0.271878
0.174671
0.0950577
0.447622
0.132951
0.140295
0.175066
0.360427
0.273522
0.0680486
0.238412
0.181416
0.0210685
0.0753224
0.277906
0.344853
0.192863
0.171949
0.276019
0.275717
0.0857472
0.375403
0.29597
0.153727
0.291904
0.203694
0.314581
0.285522
0.0135831
0.0350341
0.247088
0.439616
0.172295
0.155417
0.00262128
0.184349
0.284662
0.128184
0.305726
0.295519
0.093559
0.133781
0.302119
0.397834
0.330117
0.21125
0.438544
0.29996
0.0496161
0.322423
0.441844
0.0302273
0.128359
0.362524
0.274133
0.082673
0.261826
0.0324071
0.0227455
0.208067
0.275122
0.438388
0.334933
0.274471
0.273407
0.287341
0.0946553
0.0136466
0.072142
0.329851
0.437935
0.176107
0.280489
0.154775
0.0623782
0.273116
0.0658114
0.275469
0.407749
0.132432
0.00183497
0.344979
0.10099
0.289899
0.0238831
0.081346
0.182052
0.351414
0.284516
0.287777
0.439273
0.352633
0.0508092
0.441226
0.00305114
-0.00390416
0.286308
0.0527985
0.122014
0.181883
0.116561
0.438527
0.278246
0.341848
0.272498
0.0546801
0.201076
0.0627166
0.136668
0.336842
0.268832
0.275084
0.271007
0.0766072
0.382369
0.243866
0.0685058
0.270963
0.270131
0.269089
0.238497
0.270928
0.0250744
0.0169871
0.270104
0.00196855
0.129528
0.157614
0.0138711
0.17026
0.209302
0.401389
0.248363
0.320796
0.21765
0.141533
0.275075
0.277825
0.278203
0.117209
0.277084
0.386659
0.0215609
0.00221266
0.150021
0.123118
0.00205732
0.276236
0.26758
0.269557
0.0237114
0.0405228
0.266492
0.361034
0.0401928
0.0495381
0.438837
0.426403
0.279903
0.0494954
0.303665
0.250289
0.313193
0.212426
0.261957
0.432309
0.212841
0.2116
0.0916223
0.214305
0.433383
0.0438698
0.258802
0.21214
0.109213
0.295437
0.311667
0.0923644
0.29387
0.354088
0.300684
0.209986
0.412627
0.0629956
0.210691
0.339053
0.0206772
0.236055
0.0724659
0.204779
0.0976309
0.431868
0.21855
0.00264002
0.207247
0.205507
0.227041
0.206859
0.183323
0.00403339
0.0534353
0.295172
0.2333
0.174783
0.297362
0.116359
0.35494
0.0325633
0.230372
0.0853273
0.199041
0.301379
0.0198316
0.237617
0.229775
0.434551
0.0341458
0.314059
0.366279
0.050666
0.222626
0.0535523
0.162546
0.275233
0.310257
0.221919
0.219002
0.217578
0.439266
0.0410857
0.308035
0.114732
0.0258897
0.224159
0.322147
0.245845
0.244825
0.0442261
0.251827
0.255047
0.106447
0.372552
0.437169
0.403862
0.163132
0.253508
0.00387075
0.422069
0.2156
0.249374
0.186289
0.253349
0.250196
0.259593
0.29739
0.259652
0.312331
0.251582
0.395076
0.401143
0.249431
0.290664
0.248619
0.310282
0.31186
0.015638
0.132637
0.170215
0.0157652
0.272999
0.254826
0.279494
0.110379
0.0053914
0.119684
0.248856
0.28556
0.285822
0.130589
0.160195
0.281045
0.43484
0.258472
0.00818284
0.0284304
0.331485
0.262038
0.123878
0.182654
0.255814
0.135158
0.239638
0.240237
0.240289
0.184979
0.291205
0.239197
0.440595
0.0336556
0.238926
0.439886
0.239785
0.369008
0.0534874
0.235976
0.124855
0.0930028
0.23908
0.236917
0.122649
0.124561
0.236168
0.101966
0.231955
0.233738
0.247309
0.115515
0.228101
0.0442482
0.234773
0.233808
0.130774
0.229338
0.230719
0.406534
0.218489
0.16958
0.224336
0.226159
0.138142
0.0636079
0.11359
0.422238
0.23102
0.233666
0.177193
0.0651104
0.423465
0.182722
0.187387
0.183545
0.177079
0.0128699
0.00623881
0.0600557
0.107624
0.233055
0.233166
0.00523812
0.333722
0.212159
0.0808031
0.423636
0.172321
0.172851
0.428613
0.179157
0.313639
0.0554874
0.175355
0.302644
0.26985
0.175949
0.117137
0.0487272
0.17686
0.332578
0.277379
0.1261
0.0610736
0.0920873
0.185642
0.0958692
0.331547
0.0921922
0.182984
0.199592
0.433199
0.128551
0.011078
0.067968
0.0939836
0.177715
0.330566
0.198326
0.198607
0.0274106
0.144418
0.00662843
0.201765
0.201615
0.094941
0.0135929
0.269838
0.049137
0.381405
0.240072
0.234536
0.420888
0.092599
0.303537
0.325151
0.175084
0.0182925
0.234882
0.413566
0.231239
0.225957
0.17786
0.0817368
0.232749
0.0217275
0.417975
0.335027
0.129677
0.233133
0.213675
0.331901
0.404663
0.305903
0.0420083
0.0839732
0.226626
0.244078
0.294345
0.126711
0.28702
0.42491
0.223954
0.292245
0.073266
0.237141
0.153964
0.0893148
0.236873
0.238113
0.236887
0.289162
0.22837
0.053058
0.230559
0.0827863
0.284183
0.0264605
0.226288
0.290471
0.00320261
0.032191
0.22008
0.0681866
0.0567927
0.073617
0.0650082
0.115553
0.0495872
0.224547
0.221331
0.04201
0.219039
0.221366
0.289499
0.00823505
0.224302
0.210068
0.00182141
0.0331981
0.203946
0.102876
-5.25077e-05
0.0147325
0.204958
0.128073
0.215738
0.410609
0.0242631
0.284205
0.182121
0.214537
0.208574
0.177667
0.264106
0.230062
0.222342
0.189364
0.417973
0.338438
0.21431
0.221486
0.363536
0.0460252
0.333818
0.263002
0.126752
0.122216
0.219809
0.0849444
0.0250107
0.193493
0.202245
0.440764
0.160248
0.205298
0.198701
0.253137
0.0835405
0.198943
0.200498
0.395408
0.201423
0.0788588
0.209809
0.209918
0.151877
0.133945
0.169448
0.208299
0.205368
0.208773
0.120685
0.163817
0.214836
0.177358
0.123738
0.130395
0.131569
0.130774
0.15769
0.206976
0.169306
0.423702
0.36843
0.050756
0.107918
0.112568
0.163434
0.16377
0.169202
0.239995
0.156883
0.163352
0.0894389
0.112409
0.268238
0.0871321
0.045561
0.168023
0.165527
0.16942
0.376361
0.0155711
0.00680558
0.10545
0.181722
0.175918
0.334767
0.049832
0.163371
0.424896
0.0520277
0.178628
0.179863
0.231905
-0.000217483
0.174077
0.176078
0.174642
0.19533
0.00450222
0.00849592
0.196487
0.194961
0.190262
0.193135
0.204015
0.187391
0.0835006
0.0242734
0.434127
0.275985
0.197657
0.193234
0.131261
0.404259
0.386505
0.343012
-4.75254e-05
0.345616
0.19768
0.199261
0.195195
0.195618
0.1976
0.195054
0.32187
0.150904
0.311801
0.164996
0.0788905
0.0171239
0.199606
0.132103
0.00185175
0.165755
0.207809
0.418783
0.210516
0.127122
0.121651
0.273459
0.137404
0.204282
0.217678
0.212411
0.157163
0.175067
0.408959
0.203746
0.3062
0.079784
0.0679121
0.200487
0.0686216
0.0314979
0.209802
0.208963
0.133618
0.0886864
0.103292
0.371933
0.206573
0.0616309
0.00562571
0.172777
0.037496
0.127305
0.197033
0.27367
0.176104
0.0350962
0.384378
0.0209782
0.364462
0.148208
0.335059
0.18083
0.0547879
0.19977
0.171152
0.0988392
0.124228
0.20029
0.201138
0.385039
0.279187
0.306824
0.399118
0.292004
0.275427
0.275852
0.316191
0.195112
0.192934
0.135976
0.0672367
0.0751959
0.0218804
0.337725
0.137898
0.188274
0.186486
0.185723
0.0538271
0.184899
0.311359
0.00371516
0.181741
0.188775
0.234563
0.436184
0.313103
0.310119
0.182869
0.0131567
0.335385
0.185537
0.253771
0.200033
0.263604
0.286374
0.164616
0.329715
0.192251
0.279567
0.197402
0.0256779
0.314148
0.330971
0.141946
0.42887
0.0765512
0.086674
0.0771812
0.167112
0.302629
0.0626365
0.252773
0.064515
0.194351
0.194224
0.15739
0.204329
0.176467
0.361732
0.264424
0.17313
0.273702
0.185021
0.43717
0.325455
0.18581
0.177257
0.261889
0.351847
0.178834
0.0374729
0.251466
0.360566
0.174943
0.153032
0.182635
0.186203
0.190738
0.191081
0.0023931
0.0755879
0.19333
0.428755
0.191865
0.145327
0.294121
0.142217
0.121217
0.360682
0.430231
0.315229
0.316224
0.320219
0.0458646
0.175595
0.230499
0.427014
0.399048
0.428999
0.435367
0.397531
0.151257
0.145649
0.428764
0.0625821
0.15114
0.274879
0.145828
0.31568
0.283586
0.427982
0.380729
0.316422
0.0759546
0.152042
0.169876
0.162083
0.175564
0.31932
0.274839
0.172201
0.164215
0.168847
0.0203567
0.350262
0.0531297
0.175551
0.222851
0.183532
0.17844
0.168386
0.0540592
0.180946
0.151176
0.179294
0.178101
0.330173
0.158431
0.0833549
0.0525463
0.299258
0.115837
0.115072
0.287061
0.0932066
0.058698
0.0524832
0.0430158
0.278409
0.0700524
0.155366
0.211721
0.0421488
0.343275
0.346384
0.0995396
0.0967819
0.391375
0.164691
0.0204687
0.200239
0.0430883
0.267498
0.040867
0.0594218
0.0243351
0.0100553
0.0855
0.334505
0.057766
0.0339857
0.0347842
0.172209
0.0399685
0.169977
0.345773
0.17693
0.174015
0.278807
0.0578702
0.179072
0.177882
0.015098
0.0760237
0.336819
0.180601
0.181864
0.283649
0.349576
0.321782
0.348472
0.0649284
0.407325
0.424751
0.181575
0.182252
0.0128638
0.367089
0.42495
0.176869
0.123065
0.176021
0.0236905
0.322301
0.0057002
0.0579146
0.162951
0.237119
0.163732
0.128579
0.340561
0.113821
0.312251
0.162136
0.164482
0.0735076
0.152505
0.132398
0.417305
0.339139
0.262961
0.163933
0.349983
0.0817871
0.0537737
0.0675325
0.0195302
0.165879
0.343894
0.162543
0.019331
0.0139005
0.330678
0.165733
0.0753466
0.370152
0.166658
0.167715
0.333755
0.0288995
0.328611
0.168874
0.173677
0.172648
0.186657
0.173585
0.319692
0.308636
0.173074
0.388427
0.193115
0.3102
0.237756
0.172014
0.345435
0.167821
0.123782
0.394663
0.198984
0.170753
0.0127363
0.1741
0.173382
0.121256
0.164872
0.269552
0.0635815
0.338224
0.158097
0.292286
0.31866
0.169659
0.193758
0.00894418
0.0724126
0.0612877
0.166897
0.34027
0.0264764
0.167576
0.395994
0.0631279
0.286669
0.06133
0.168971
0.223768
0.163742
0.00081809
0.248611
0.342816
0.121428
0.0499504
0.062403
0.117757
0.120072
0.128362
0.333399
0.00987967
0.0516848
0.135469
0.131967
0.305963
0.273376
0.139689
0.144743
0.129827
0.238336
0.398464
0.357817
0.190639
0.0420243
0.30237
0.299467
0.0993464
0.0585839
0.261427
0.0939943
0.135232
0.27981
0.189536
0.19397
0.162876
0.127881
0.144022
0.143793
0.142739
0.29008
0.14746
0.225911
0.38862
0.342892
0.273595
0.323813
0.130609
0.0912444
0.335769
0.149309
0.27947
0.186246
0.295032
0.414382
0.132949
0.00669263
0.150864
0.154421
0.166728
0.334049
0.151846
0.160603
0.196722
0.166182
0.195745
0.155412
6.93959e-05
0.195794
0.164084
0.160776
0.00488905
0.2768
0.40507
0.192743
0.20864
0.137736
0.161339
0.160396
0.0679907
0.400938
0.162455
0.161134
0.165023
0.0458641
0.334014
0.17881
0.141583
0.195402
0.0865922
0.119948
0.302526
0.148038
0.141772
0.111493
0.141696
0.162777
0.0916069
0.148562
0.334148
0.177116
0.0799005
0.331351
0.334231
0.122762
0.127327
0.104862
0.149716
0.0627201
0.153689
0.06843
0.439223
0.295718
0.220538
0.0864316
0.0288073
0.35897
0.0266332
0.0302917
0.147155
0.00132219
0.147476
0.043857
0.223273
0.0968061
0.145691
0.270805
0.224934
0.147085
0.0356783
0.0293608
0.21628
0.14427
0.0507111
0.14989
0.147906
0.17476
0.15434
0.411227
0.281702
0.358349
0.217691
0.268455
0.148415
0.278313
0.220628
0.149431
0.361357
0.415479
0.266865
0.255392
0.149254
0.31839
0.141436
0.358151
0.207937
0.27738
0.0243995
0.0510052
0.253583
0.0123588
0.340159
0.439006
0.366985
0.0142217
0.0638744
0.0240625
0.329027
0.354161
0.00822686
0.226007
0.135967
0.318303
0.235895
0.134817
0.15109
0.044292
0.259473
0.266609
0.058539
0.410273
0.35601
0.165075
0.137448
0.433914
0.137033
0.421015
0.264449
0.26143
0.138364
0.380806
0.122602
0.376016
0.33278
0.38419
0.00761045
0.14324
0.406357
0.0718845
0.425074
0.146462
0.389385
0.1036
0.102007
0.110921
0.413116
0.298489
0.38157
0.29699
0.117978
0.405025
0.407975
0.105242
0.410813
0.122233
0.281757
0.116978
0.298829
0.160426
0.0994429
0.148697
0.0961407
0.152333
0.028408
0.125876
0.113962
0.360596
0.112143
0.265528
0.172603
0.222355
0.124205
0.053306
0.0896967
0.266208
0.117254
0.358774
0.0766873
0.12719
0.376414
0.277879
0.127511
0.31497
0.126155
0.116684
0.114026
0.159753
0.123621
0.00112426
0.0534217
0.0502143
0.117892
0.117047
0.273461
0.0534562
0.0372408
0.110859
0.0715029
0.355078
0.304388
0.0475483
0.131874
0.226996
0.127218
0.133995
0.10318
0.132524
0.304087
0.13168
0.204973
-0.000207593
0.348365
0.199772
0.429379
0.137601
0.130458
0.0296729
0.361565
0.0963509
0.138455
0.282539
0.142897
0.136163
0.126422
0.129198
0.0398152
0.141378
0.133495
0.133813
0.126887
0.159964
0.128986
0.345799
0.105972
0.134472
0.356628
0.428442
0.215855
0.110325
0.257192
0.133984
0.120382
0.113433
0.0615874
0.105626
0.0964792
0.399731
0.109233
0.160105
0.158648
0.0448098
0.104996
0.344109
0.124645
0.127859
0.195618
0.180866
0.123351
0.22999
0.160566
0.126331
0.120076
0.14531
0.122611
0.341
0.321916
0.110781
0.104078
0.118754
0.0549252
0.124552
0.160318
0.273068
0.122399
0.126806
0.112609
0.129659
0.347867
0.105381
0.329475
0.127579
0.121696
0.11212
0.123056
0.0919096
0.118045
0.0949978
0.0849734
0.118693
0.38999
0.14207
0.386478
0.19889
0.0768189
0.0351276
0.103548
0.346968
0.124069
0.121779
0.0883148
0.123186
0.0870467
0.351975
0.348224
0.0925583
0.0920136
0.0967358
0.0970775
0.243968
0.172109
0.0946282
0.0949276
0.0710879
0.118473
0.0968254
0.0952775
0.0587217
0.058341
0.00225967
0.0959691
0.246823
0.0425226
0.172679
0.100149
0.102249
0.109812
0.146376
0.34125
0.124701
0.0869031
0.0177966
0.0253021
0.173669
0.101043
0.0965391
0.138594
0.0436477
0.0297894
0.102218
0.34472
0.11519
0.119545
0.0568134
0.110072
0.41583
0.115559
0.112462
0.168861
0.112571
0.116966
0.344644
0.116784
0.135987
0.025739
0.00376634
0.233784
0.0514072
0.0286113
0.121296
0.0975701
0.344858
0.120986
0.367128
0.36745
0.116497
0.341066
0.0082668
0.111527
0.120175
0.0458437
0.119967
0.368908
0.429698
0.0625241
0.35877
0.119878
0.269932
0.317503
0.119695
0.12505
0.363577
0.11968
0.411727
0.11784
0.153328
0.130975
0.412846
0.357692
0.153324
0.121503
0.117121
0.287624
0.151556
0.290044
0.358431
0.348667
0.123475
0.0154362
0.124044
0.113532
0.286065
0.0898192
0.28697
0.0553829
0.316767
0.000339672
0.347473
0.155335
0.0998428
0.112132
0.356792
0.109907
0.345521
0.329236
0.354862
0.0193771
0.000869983
0.292349
0.00277355
0.109853
0.151161
0.23022
0.107972
0.330682
0.182564
0.339354
0.10392
0.333903
0.252281
0.285589
0.431198
0.160091
0.398532
0.103105
0.0136102
0.18207
0.0149027
0.425727
0.0577109
0.170977
0.287858
0.114855
0.109434
0.0193762
0.0491058
0.111541
0.298025
0.352365
0.00636247
0.370555
0.151521
0.407167
0.0682176
0.299749
0.111117
0.250971
0.356456
0.24701
0.221488
0.265705
0.305513
0.341307
0.218221
0.0534922
0.277176
0.11489
0.114391
0.114617
0.0731265
0.397089
0.399669
0.282478
0.125957
0.331722
0.346943
0.12523
0.11572
0.114026
0.109431
0.395394
0.0566402
0.105755
0.191197
0.10932
0.278005
0.244281
0.13198
0.0656266
0.110846
0.108703
0.167253
0.423368
0.203919
0.109414
0.334767
0.0776146
0.0602002
0.386027
0.00416888
0.0775297
0.0181879
0.0776321
0.07586
0.336254
0.106328
0.250746
0.333283
0.13759
0.113993
0.356874
0.0816609
0.350028
0.10119
0.105342
0.107436
0.283438
0.217588
0.348895
0.295667
0.326366
0.0905651
0.175526
0.357925
0.319099
0.116738
0.316438
0.0783026
0.278496
0.0604429
0.28516
0.109101
0.238083
0.0947124
0.159882
0.317441
0.0750848
0.320042
0.0662961
0.119391
0.0936036
0.0425886
0.0980954
0.0929241
0.137404
0.348734
0.0968532
0.0518711
0.0243867
0.286782
0.0252016
0.322882
0.00297101
0.0996306
0.0583875
0.0995208
0.319847
0.327741
0.0536689
0.392714
0.0449037
0.00155444
0.283662
0.242719
0.0980253
0.317967
0.0747699
0.0261193
0.132416
0.0012049
0.181599
0.270453
0.164868
0.100886
0.418444
0.102954
0.185749
0.285297
0.145439
0.32559
0.0982123
0.15879
0.0973044
0.166946
0.391933
0.106473
0.091636
0.171338
0.0978658
0.196039
0.0975934
0.0677215
0.096206
0.391658
0.0963244
0.0932447
0.095259
0.375001
0.122692
0.349998
0.401649
0.395114
0.228913
0.060137
0.0697689
0.248335
0.319429
0.0312841
0.0669001
0.0946112
0.0934857
0.323631
0.427552
0.00276597
0.0420763
0.0869493
0.353027
0.0454255
0.146664
0.326469
0.092303
0.0907303
0.0923856
0.0903823
0.0937071
0.233009
0.118434
0.313444
0.0321703
0.0961684
0.0941517
0.3775
0.15833
0.364923
0.405274
0.060725
0.0930403
0.0700866
0.376115
0.37837
0.366982
0.362093
0.135205
0.0690773
0.353082
0.0578915
0.0943475
0.308945
0.10598
0.093205
0.0724007
0.0901347
0.305687
0.300657
0.0935484
0.18624
0.108018
0.106135
0.421612
0.0363449
0.0662037
0.0940939
0.0948719
0.00966383
0.0946561
0.0724345
0.0990423
0.292796
0.0943464
0.0229956
0.100951
0.0085531
0.380483
0.365497
0.137473
0.0968596
0.0983747
0.120378
0.0860692
0.0760175
0.119767
0.0829223
0.0807283
0.0710171
0.0821168
0.385762
0.317869
0.145266
0.284775
0.0854349
0.299804
0.0673296
0.285629
0.212277
0.266446
0.0846508
0.172965
0.0233509
0.301213
0.342837
0.0963437
0.436206
0.0878536
0.0900794
0.164588
0.026768
0.120277
0.0907103
0.299092
0.0658177
0.0955079
0.0943009
0.0668106
0.221633
0.0677988
0.0678413
0.0667489
0.0689129
0.0666206
0.290014
0.292117
0.30218
0.285211
0.0482558
0.0672782
0.371176
0.0726764
0.0488907
0.0717412
0.0712691
0.0507584
0.0724764
0.0682773
0.071855
0.0903354
0.0865197
0.175486
0.0984664
0.112318
0.154041
0.128998
0.117804
0.0498961
0.0902716
0.0896021
0.066973
0.0724514
0.088598
0.202101
0.0239646
0.263272
0.420105
0.181718
0.393657
0.0886643
0.0245435
0.0272679
0.0280153
0.123736
0.0287199
0.086216
0.0882153
0.352665
0.433068
0.16361
0.0778133
0.364908
0.141624
0.189292
0.0871491
0.194125
0.0873245
0.203305
0.0716182
0.0515966
0.0559034
0.0836718
-0.000108081
0.0902784
0.359617
0.06686
0.257201
0.034759
0.0795722
0.0829096
0.320341
0.114632
0.206295
0.131395
0.20093
0.0811972
0.0188709
0.366313
0.0972035
0.18355
0.356661
0.357445
0.0806549
0.0701495
0.0837964
0.13283
0.0826408
0.198224
0.319658
0.135829
0.0847546
0.0851815
0.142702
0.174741
0.238189
0.0846599
0.0860974
0.0869763
0.360903
0.0852609
0.0874372
0.0395166
0.0755934
0.0517083
0.0183049
0.0493692
0.0321962
0.0745497
0.0762034
0.0143779
0.0622204
0.0141746
0.352451
0.0775172
0.0513622
0.35457
0.230442
0.121082
0.0700061
0.0823782
0.0161628
0.079735
0.212573
0.129083
0.0780244
0.370117
0.0485673
0.00369876
0.0803126
0.44337
0.127521
0.185158
0.0180297
0.0806915
0.0798842
0.235546
0.0177812
0.126039
0.175262
0.0733354
0.0801902
0.0828814
0.433635
0.386914
0.371248
0.123346
0.0466097
0.0205914
0.0176265
0.377098
0.0189138
0.0578951
0.0834821
0.425616
0.0973753
0.0848018
0.311493
0.372007
0.211672
0.19699
0.0817704
0.0777095
0.35457
0.276711
0.301726
0.0299589
0.265073
0.0620263
0.116482
0.0500794
0.0792265
0.128291
0.385969
0.129645
0.127786
0.406408
0.0743457
0.35768
0.0591042
0.195332
0.254004
0.382449
0.129713
0.366044
0.0713816
0.064743
0.0432144
0.0774346
0.369731
0.0606953
0.0590839
0.170325
0.0604947
0.0631194
0.0638188
0.0272013
0.121454
0.0761428
0.092122
0.0595147
0.0670764
0.0673861
0.0542636
0.374324
0.206875
0.0603371
0.0787138
0.440421
0.163233
0.0761036
0.18136
0.0756851
0.153344
0.0748187
0.370387
0.058519
0.436682
0.0570489
0.0532879
0.173338
0.0618859
0.196777
0.164657
0.217334
0.0302104
-0.00461325
0.0418763
0.0349007
0.0579582
0.0231995
0.0641141
0.0580435
0.0576304
0.4042
0.0415226
0.374102
0.377195
0.0482359
0.345241
0.0810393
0.360373
0.317887
0.0630288
0.350464
0.0629957
0.0016104
0.215204
0.11774
0.33193
0.316702
0.129324
0.0248844
0.0446016
0.219723
0.253296
0.0639666
0.0626702
0.0741749
0.264244
0.298842
0.183248
0.0263374
0.0203181
0.0747769
0.227282
0.26268
0.303027
0.404861
0.0757947
0.333903
0.289064
0.181223
0.43715
0.117304
0.164364
0.230374
0.0714858
0.38039
0.0145923
0.113943
0.286164
0.244107
0.318092
0.377446
0.029167
0.113913
0.0739069
0.139642
0.0752213
0.129511
0.144176
0.137123
0.0939977
0.0740666
0.0718221
0.0705341
0.0975728
0.401849
0.106372
0.0949897
0.100264
0.365282
0.296033
0.0277725
0.378997
0.0739444
0.0704589
0.166448
0.0644742
0.0664769
0.0886734
0.0280444
0.0661362
0.0678815
0.0184059
0.060994
0.0626183
0.0659953
0.0835563
0.0698824
0.0701376
0.372559
0.0548623
0.058319
0.0519552
0.0753976
0.0497476
0.0461325
0.0738108
0.020688
0.0220582
0.105278
0.0492367
0.0464833
0.376127
0.0722229
0.0643435
0.0570015
0.0280558
0.0566331
0.0713661
0.0731752
0.0691528
0.118071
0.182361
0.222763
0.145557
0.0257621
0.0706769
0.0699177
0.0722762
0.276536
0.102299
0.0730497
0.414353
0.0690329
0.101132
0.0671074
0.0682864
0.20921
0.220833
0.0666592
0.109368
0.31948
0.315733
0.103744
0.0676047
0.371193
0.0677405
0.152163
0.067172
0.429092
0.0671117
0.26978
0.065827
0.207603
0.283079
0.360466
0.308621
0.0641424
0.291159
0.178244
0.207231
0.0653873
0.0347208
0.116651
0.180343
0.0655671
0.0652637
0.065759
0.116962
0.0652523
0.407665
0.236033
0.0327042
0.374449
0.0678434
0.357168
0.0306706
0.0629639
0.0658542
0.276538
0.0690367
0.215667
0.401673
0.0639501
0.0632832
0.098655
0.387131
0.277226
0.27358
0.0636424
0.29799
0.230616
0.0620844
0.102489
0.0848119
0.0611345
0.0611381
0.217246
0.303307
0.06688
0.10477
0.0843466
0.367439
0.357075
0.366495
0.0671043
0.369914
0.0547507
0.251773
0.318539
0.142047
0.210165
0.0671751
0.380975
0.0433255
0.0446319
0.0478723
0.111063
0.0484488
0.121685
0.119286
0.102339
0.130547
0.263932
0.104452
0.172657
0.0104014
0.0541996
0.0874684
0.162128
0.0683109
0.188499
0.326988
0.124305
0.261441
0.240067
0.0142116
0.0494402
0.203583
0.0547041
-0.0010508
0.381411
0.276187
0.351111
0.0469859
0.380132
0.0976543
0.347582
0.0943518
0.358311
0.0915534
0.371944
0.0514856
0.301242
0.0632498
0.230096
0.0950454
0.242414
0.0969539
0.445322
0.0674339
0.0820076
0.26111
0.231974
0.0631574
0.132804
0.233043
0.064311
0.192829
0.0315662
0.191724
0.0635412
0.0620838
0.0836117
0.378195
0.065451
0.0472649
0.066332
0.0629961
0.11305
0.282588
0.0716763
0.0632553
0.11098
0.115324
0.00307471
0.360998
0.0627159
0.0773757
0.153354
0.247976
-0.000159812
0.0651377
0.374991
0.0535044
0.0576442
0.172439
0.0374796
0.0528713
0.317839
0.0680926
0.369833
0.11971
0.0491673
0.0584656
0.131455
0.0570294
0.0656915
0.0876166
0.0643111
0.0625666
0.0632687
0.0322978
0.164853
0.0605035
0.0785326
0.0628587
0.0689081
0.0802643
0.0640311
0.0582307
0.358781
0.0608764
0.0582788
0.0619412
0.37222
0.0620783
0.0606536
0.0682186
0.229921
0.0736358
0.0604618
0.0656563
0.0598396
0.00261365
0.368947
0.0782623
0.0618966
0.0458919
0.388593
0.101501
0.0361117
0.0595355
0.00994334
0.112086
0.366788
0.0597555
0.36123
0.0558679
0.0404952
0.371792
0.365591
0.385602
0.0443118
0.376338
0.0207225
0.0247544
0.0604343
0.0356503
0.0301565
0.0655928
0.231633
0.374107
0.34838
0.397442
0.341061
0.165928
0.110855
0.0515524
0.056864
0.060365
0.151879
0.179649
0.0976665
0.275947
0.0756751
0.0597862
0.198365
0.0718403
0.34384
0.345791
0.0386123
0.347323
0.180895
0.296523
0.389869
0.0569326
0.256531
0.180694
0.198741
0.181269
0.0574624
0.125147
0.353903
0.39235
0.0636313
0.337126
0.389848
0.365772
0.270596
0.0531042
0.39585
0.054466
0.324341
0.323648
0.0536992
0.0598182
0.0500228
0.154031
0.379406
0.104909
0.181811
0.0517561
0.211751
0.379057
0.0604844
0.273814
0.0591482
0.280223
0.346656
0.398169
0.341939
0.0866622
0.0973897
0.118773
0.26073
0.060387
0.310224
0.311179
0.0587049
0.284414
0.128396
0.0583976
0.183507
0.290571
0.0607611
0.352755
0.054771
0.303799
0.408799
0.0574831
0.147111
0.0580871
0.188023
0.0590173
0.0306126
0.37953
0.191709
0.0827584
0.113456
0.152525
0.144528
0.0234711
0.127761
0.127522
0.352214
0.201825
0.413085
0.322891
0.0672365
0.364323
0.0332232
0.0336596
0.214824
0.170073
0.284341
0.284267
0.0368114
0.0317031
0.127084
0.370858
0.261503
0.322727
0.408982
0.036819
0.266744
0.194918
0.268575
0.281938
0.175034
0.378682
0.289471
0.303314
0.0635642
0.0722396
0.405138
0.0376399
0.0323759
0.0542621
0.331904
0.37422
0.381068
0.054083
0.0533326
0.231751
0.0526308
0.0559115
0.240485
0.394905
0.279101
0.0663607
0.346383
0.129961
0.275882
0.27929
0.395858
0.0532574
0.171788
0.173571
0.0542522
0.05077
0.0490448
0.0503398
0.18748
0.0520188
0.396004
0.26754
0.234876
0.052279
0.0476421
0.0895073
0.257246
0.401452
0.123834
0.110627
0.391218
0.0254092
0.0446716
0.0697762
0.114792
0.0443639
0.0543905
0.0554176
0.0869664
0.0554209
0.389678
0.395474
0.0941411
0.3913
0.167569
0.0875102
0.0518444
0.0683334
0.0646899
0.0757464
0.054608
0.0482112
0.0567594
0.0623416
0.0495469
0.0688528
0.0715529
0.259604
0.0502231
0.0527743
0.074037
0.0349652
0.0537021
0.0516639