/*--------------------------------*- C++ -*----------------------------------*\
| =========                 |                                                 |
| \\      /  F ield         | OpenFOAM: The Open Source CFD Toolbox           |
|  \\    /   O peration     | Version:  2406                                  |
|   \\  /    A nd           | Website:  www.openfoam.com                      |
|    \\/     M anipulation  |                                                 |
\*---------------------------------------------------------------------------*/
FoamFile
{
    version     2.0;
    format      ascii;
    arch        "LSB;label=32;scalar=64";
    class       surfaceScalarField;
    location    "18";
    object      phi;
}
// * * * * * * * * * * * * * * * * * * * * * * * * * * * * * * * * * * * * * //

dimensions      [0 3 -1 0 0 0 0];

oriented        oriented;

internalField   nonuniform List<scalar> 
113358
(
-1.67855e-05
3.46008e-05
-2.35623e-05
5.74516e-06
2.43076e-05
5.3544e-07
-6.65384e-06
-1.82032e-05
-2.73263e-05
2.11361e-05
-3.55056e-06
9.75515e-06
-2.33916e-05
-6.80439e-06
2.37331e-05
6.38706e-06
-1.70777e-05
1.15935e-06
2.98958e-05
-1.39798e-05
1.3612e-05
-1.41961e-05
-7.95762e-06
8.54085e-06
-7.55961e-06
3.6128e-05
-2.61263e-05
-2.45672e-06
-9.68682e-07
-3.54502e-05
1.95363e-05
1.68754e-05
9.4512e-06
3.58956e-07
1.88289e-05
-2.86385e-05
8.80562e-06
4.87725e-06
-1.35331e-05
-2.86067e-07
-5.72172e-06
2.07931e-05
-1.8878e-05
3.8066e-06
-1.73688e-05
-4.28147e-07
-2.6993e-07
1.80608e-05
-4.8531e-05
3.69882e-06
1.39681e-05
3.08731e-05
1.62231e-06
-3.60025e-06
1.97464e-06
2.29897e-06
-1.63949e-06
2.42492e-05
-2.48889e-05
1.597e-06
2.44643e-07
1.38111e-05
-1.56285e-05
9.16237e-06
2.92364e-05
-2.46712e-05
-1.37296e-05
-1.99999e-05
1.14277e-05
7.56833e-06
1.0032e-06
1.4307e-05
-4.00035e-05
3.47709e-05
-9.07709e-06
2.18162e-05
3.00345e-06
2.47796e-05
-4.95952e-05
2.1709e-05
4.78814e-07
-3.53333e-07
-2.18371e-05
-1.10874e-05
4.36319e-05
4.08097e-06
-3.66074e-05
-4.64951e-07
-4.12413e-05
4.41929e-05
-2.49147e-06
-1.23771e-06
5.827e-06
4.12608e-07
-5.01072e-06
-4.34318e-05
1.91279e-05
-3.43637e-06
2.77546e-05
-2.6119e-05
6.10952e-06
2.17572e-05
-1.711e-06
-1.16542e-05
1.12838e-05
-3.17067e-07
6.82807e-07
-2.52832e-06
-8.4614e-06
6.39853e-06
4.58993e-06
2.23005e-05
-3.13812e-07
-2.81954e-07
-3.07332e-06
3.03928e-06
3.19781e-08
-5.26921e-06
-2.59651e-05
2.72315e-05
4.00127e-06
5.98827e-06
-4.40092e-07
-9.20591e-06
3.65559e-06
2.03318e-05
-1.11184e-06
1.01569e-06
-2.02351e-05
-2.87996e-05
1.27846e-05
-3.04186e-06
1.89382e-05
1.72124e-05
1.50431e-06
-1.94617e-05
7.42623e-07
-3.27051e-05
7.94229e-06
-1.13557e-05
3.61347e-05
-6.66709e-08
-2.80477e-06
2.87288e-06
9.27118e-06
1.14971e-05
2.08201e-06
-2.28478e-05
7.1933e-06
-4.08185e-05
3.37614e-05
-1.3854e-07
-2.87899e-06
4.76156e-06
3.26103e-05
-3.45016e-05
-2.17162e-05
1.73581e-05
-2.14902e-05
2.58411e-05
2.53434e-06
-2.24015e-05
-3.07164e-05
5.05793e-05
-1.9269e-07
4.10978e-05
-1.10492e-05
-2.98575e-05
5.36562e-06
-1.9318e-05
-8.47573e-06
-5.25513e-06
3.19499e-05
-5.78029e-07
-2.61194e-05
-2.49031e-06
1.86702e-05
-1.28266e-05
-3.35108e-06
-3.04851e-05
-1.10182e-05
4.13038e-05
-8.80892e-06
3.12308e-05
6.04523e-07
-2.30267e-05
-3.39459e-05
4.01756e-06
-5.44264e-06
3.53689e-05
3.1796e-05
1.34346e-05
-4.25385e-05
-2.69291e-06
2.31776e-05
-1.62236e-05
1.58181e-06
-8.53761e-06
-1.26625e-05
3.90771e-06
1.23055e-05
-3.63978e-06
3.1485e-05
-7.76064e-06
1.77512e-05
-4.14579e-05
-1.04464e-05
-3.95824e-05
4.22097e-05
7.81181e-06
-2.49702e-06
9.19781e-06
-1.05266e-05
3.82343e-06
2.92007e-05
-1.27728e-05
2.08312e-05
-3.7262e-05
-1.92003e-05
3.73749e-06
3.44639e-05
-1.90032e-05
1.4734e-05
-7.41539e-06
6.09672e-06
-1.34348e-05
3.16241e-05
-8.00096e-06
-2.4171e-05
5.57016e-07
-1.18701e-05
-1.43071e-05
7.05376e-06
1.91221e-05
-2.91841e-05
-4.34652e-06
1.40244e-05
1.95491e-05
-3.45047e-06
4.224e-06
-7.73567e-07
3.00934e-05
-5.09269e-06
-2.89783e-05
3.97386e-06
-1.32994e-05
-3.62701e-05
1.34348e-05
3.61339e-05
-4.42336e-06
4.91131e-06
-3.81589e-05
3.76438e-05
2.20063e-06
2.04065e-05
1.37532e-06
-2.39846e-05
4.94687e-06
-4.06531e-06
-8.95609e-07
1.9094e-08
-1.00931e-07
1.46219e-05
-1.45321e-05
5.83783e-06
-2.96484e-05
3.23517e-05
-8.54087e-06
1.07256e-05
-2.38381e-05
2.1929e-05
-8.81917e-06
1.00094e-05
-9.90926e-06
-1.11354e-07
-1.66824e-05
-5.45256e-06
2.89316e-05
-6.79604e-06
-2.99885e-07
5.1734e-06
-4.87367e-06
6.59272e-06
-2.81057e-05
9.4947e-06
1.20156e-05
3.73576e-05
-2.99355e-06
-2.82888e-06
-3.15433e-05
-2.48764e-05
-2.94468e-05
3.20769e-05
2.22375e-05
2.61905e-06
-3.25991e-05
5.10396e-06
3.32517e-05
-2.61139e-05
-1.27001e-06
-5.86884e-06
3.1465e-07
3.3453e-07
-1.86278e-05
1.79572e-05
7.24532e-06
6.20391e-06
1.10967e-05
-2.45479e-05
9.62717e-06
-4.92202e-06
3.83694e-06
-8.70973e-06
-1.49042e-05
-9.7255e-06
2.57669e-05
-1.13851e-06
-2.04287e-05
2.51653e-05
-1.75727e-05
1.28351e-05
-4.03847e-06
4.34954e-08
3.9978e-06
-2.80878e-05
2.73479e-05
-2.74033e-05
2.18701e-05
-3.79776e-06
-1.27596e-06
-6.55418e-07
5.72577e-06
5.91982e-05
-5.71666e-05
1.91093e-06
-3.92624e-06
-1.36362e-05
4.34088e-06
1.36942e-05
-4.39088e-06
-4.27293e-06
2.58386e-05
-2.90569e-05
7.49421e-06
-1.68243e-05
-2.05868e-05
3.05031e-05
6.90641e-06
8.56825e-06
-1.20325e-05
1.74882e-05
-1.40276e-05
6.62028e-06
2.02132e-05
-4.27041e-05
1.5873e-05
-3.19306e-05
1.13364e-05
1.33618e-05
7.2267e-06
6.65615e-07
-2.51848e-05
2.03104e-05
4.21033e-06
-2.71454e-05
2.84427e-06
9.58033e-06
1.472e-05
2.26814e-05
-1.92322e-05
6.72483e-06
-1.01618e-05
1.68493e-06
1.4772e-05
-1.60776e-05
-3.66243e-07
1.95824e-05
-2.51385e-06
-3.44147e-06
-1.36302e-05
1.50078e-05
1.68463e-05
-1.42226e-05
-1.76297e-05
2.95634e-06
-1.2162e-06
5.67232e-06
-7.41435e-06
6.18001e-06
-4.39124e-07
-5.74969e-06
9.63798e-08
5.27077e-06
-5.36824e-06
-4.83285e-07
3.43382e-06
-1.61526e-05
1.32029e-05
-1.94616e-05
4.05955e-05
4.5365e-07
-2.16133e-05
4.48442e-06
-1.96089e-05
1.51868e-05
-9.81542e-08
-4.00743e-06
-5.3272e-06
1.54899e-06
7.78824e-06
-6.39997e-06
-1.5493e-05
3.85843e-06
1.80514e-05
-3.1069e-06
2.16804e-05
9.23047e-06
-2.77773e-05
4.90609e-06
4.95959e-06
-2.22686e-05
1.2402e-05
-3.00998e-06
2.73647e-05
-3.19592e-05
7.60079e-06
-9.45708e-06
9.83726e-06
-3.51179e-07
2.22621e-05
-2.74371e-05
3.99946e-06
1.18698e-06
1.91206e-05
1.01195e-05
-3.22996e-05
3.05754e-06
-2.44004e-05
-1.27329e-05
6.45016e-06
3.0681e-05
-2.91096e-06
-2.30943e-05
1.15144e-06
2.48563e-05
1.53161e-05
-1.58946e-05
-1.81577e-07
7.62137e-07
1.61579e-05
-2.76584e-05
-5.59033e-06
1.70825e-05
-4.4585e-06
1.61456e-07
4.29893e-06
-4.07715e-06
-1.32542e-06
2.73152e-05
-2.19029e-05
-1.20537e-05
7.5139e-06
3.77162e-05
-3.31729e-05
-9.05629e-06
1.78616e-05
-2.70868e-05
1.82758e-05
1.60068e-06
-2.34948e-05
1.84136e-05
3.46218e-06
-3.43959e-06
-7.85157e-06
2.79265e-05
-1.66366e-05
2.29736e-05
-1.06241e-05
-9.40895e-06
-2.94172e-06
-2.55782e-06
-1.37805e-05
1.91959e-05
-2.86517e-06
7.96107e-06
-3.93002e-06
-4.03357e-06
-1.24941e-06
-2.56871e-05
-5.38649e-06
3.232e-05
-1.49759e-05
2.07704e-05
6.03273e-06
-1.18303e-05
4.39993e-06
-1.1156e-05
1.92793e-05
-1.25237e-05
-3.66682e-05
8.4019e-06
-6.28128e-07
2.88888e-05
-2.77052e-06
-4.51133e-05
4.00195e-05
7.84623e-06
-5.13233e-08
-5.12876e-06
5.16709e-06
2.07886e-05
-3.13225e-05
4.30175e-07
1.0102e-05
3.91751e-05
4.43555e-06
-4.18321e-05
-1.78305e-06
1.22832e-05
1.18881e-06
-2.82118e-05
1.47293e-05
-9.16175e-06
1.28639e-05
1.54181e-05
-2.77277e-05
-2.29954e-05
1.2789e-05
3.79457e-05
7.4415e-06
3.98452e-06
-5.26053e-06
7.58687e-06
-6.14928e-06
-2.8744e-05
2.7303e-05
5.67757e-06
1.73258e-05
-8.14582e-06
-1.48622e-05
-5.93081e-06
1.3011e-05
2.68945e-05
-3.39718e-05
2.19184e-07
3.19042e-06
-3.4071e-06
-2.27601e-05
3.71769e-06
1.38511e-05
5.18013e-06
2.76759e-05
-1.46991e-05
-1.88304e-05
5.85228e-06
3.16093e-05
-7.50922e-06
-3.67682e-06
-2.0424e-05
-2.88522e-05
-5.84574e-08
-9.83843e-07
2.98885e-05
2.61454e-05
1.29372e-05
-3.73011e-05
-1.77891e-06
6.90859e-06
4.86999e-06
-1.17794e-05
1.69938e-06
-2.78401e-05
-8.12984e-08
2.62312e-05
4.51011e-05
-3.45949e-05
-3.66771e-06
-6.84976e-06
6.03718e-06
-6.41172e-07
-4.87515e-06
-5.40042e-07
-2.90563e-05
4.10099e-05
1.65905e-05
-2.85507e-05
1.71474e-05
-2.71049e-05
-2.55814e-06
1.25032e-05
-2.69602e-05
2.91781e-05
-9.63997e-07
-1.26921e-06
-4.25616e-06
2.10367e-06
2.13391e-06
3.80591e-05
-4.07822e-06
9.77553e-06
-4.37504e-05
-2.75038e-05
3.66134e-05
-3.60831e-05
2.85128e-07
3.01376e-06
2.1502e-05
-2.48091e-05
3.69898e-06
-3.54648e-06
-1.50491e-07
-1.37595e-05
-7.16478e-06
1.19527e-06
1.97241e-05
-9.73216e-06
2.57551e-05
-2.00645e-05
4.0364e-06
1.82162e-06
-6.54357e-06
4.04438e-06
6.72235e-07
-2.62915e-06
-2.55617e-06
5.16592e-06
-2.58049e-05
2.55072e-05
2.51221e-05
-2.48216e-05
4.4e-05
-1.17691e-05
-9.25651e-06
-2.29766e-05
1.56275e-05
1.24333e-06
-6.598e-07
-1.62189e-05
2.8814e-05
-3.50821e-05
4.7394e-06
1.52881e-06
4.17644e-06
-3.51612e-08
-4.14203e-06
-5.60307e-06
2.64926e-05
-2.55237e-05
4.57737e-06
-1.61271e-05
1.696e-05
-1.86601e-06
1.03228e-06
-1.31305e-05
1.16005e-05
7.24135e-07
8.06579e-07
3.30131e-06
-2.44655e-05
8.44223e-06
1.27246e-05
-1.07662e-05
-1.05332e-05
2.53559e-05
-4.05564e-06
-1.82404e-05
1.78273e-05
3.97378e-07
1.34046e-08
-3.13426e-05
-3.4529e-05
3.53802e-05
-9.95517e-06
3.08963e-05
9.54999e-06
-3.04938e-05
5.48066e-06
3.05788e-05
5.25346e-06
-4.13136e-05
-1.62132e-05
6.68e-06
2.2266e-05
-1.27265e-05
-9.30619e-09
-3.23627e-08
1.3678e-05
-1.36516e-05
1.49592e-06
3.64531e-05
-5.63781e-06
-3.23153e-05
-5.04583e-06
-3.29206e-06
5.71463e-06
2.61786e-06
5.70398e-06
-5.41275e-06
-2.9627e-07
-4.70364e-06
-1.47095e-05
1.17023e-06
-2.37979e-05
1.94304e-07
-4.78278e-06
2.83858e-05
-1.77746e-05
1.61777e-05
2.42066e-07
1.35727e-06
-6.25134e-07
1.03342e-05
-2.3777e-07
-9.46247e-06
-3.75048e-06
3.91905e-06
-1.82002e-07
3.80085e-06
-8.95834e-07
2.16612e-05
-2.45608e-05
3.20236e-05
3.16859e-06
-2.71255e-05
-8.0736e-06
-3.12574e-06
-1.48787e-05
-1.02771e-05
1.71586e-05
-1.88866e-05
1.03405e-06
7.12315e-07
6.4796e-06
-2.78113e-05
3.30017e-05
-1.1672e-05
1.38745e-05
2.85789e-06
-7.42055e-06
-9.32729e-06
-1.49434e-05
-3.6104e-05
8.5766e-06
4.24802e-05
-1.07415e-07
3.40084e-06
-1.65014e-07
-3.13862e-06
1.20718e-05
-8.72346e-07
2.18087e-06
-1.33993e-05
-1.23637e-05
3.48168e-08
1.22083e-05
1.07352e-07
2.36033e-05
3.7854e-06
-2.95997e-05
2.21369e-06
-2.80417e-05
-1.66251e-05
3.65268e-05
8.13883e-06
-8.07284e-06
3.27556e-06
-7.62968e-06
5.42079e-06
2.3153e-05
-2.93434e-05
7.7465e-07
-2.51298e-05
-2.57814e-05
1.09865e-05
3.98987e-05
-3.71725e-06
4.0712e-06
-3.50916e-07
1.87337e-05
1.0844e-05
-2.30359e-06
-2.72945e-05
-8.69498e-07
-4.25712e-06
-2.73652e-05
3.2501e-05
-1.78929e-05
4.63376e-06
4.33411e-05
-3.0077e-05
2.40933e-05
-1.77251e-05
-9.18938e-06
2.85431e-06
3.36145e-06
5.27622e-08
-3.40593e-06
4.62797e-05
-2.20673e-05
3.1261e-06
-2.73335e-05
1.14698e-05
-1.24957e-05
1.33598e-06
-3.29338e-07
3.04627e-06
2.69659e-06
-5.74446e-06
-1.58412e-05
-2.12039e-05
4.06801e-06
3.29883e-05
-1.42769e-05
4.50011e-07
1.48807e-05
-1.06875e-06
2.25312e-05
-4.73815e-05
4.83299e-07
2.43667e-05
-1.79263e-05
-2.30518e-05
3.00124e-05
1.09673e-05
-1.29758e-05
1.66489e-05
2.7935e-05
5.13776e-06
2.58748e-05
-2.71599e-05
-3.85548e-06
2.462e-06
1.8323e-06
-1.60059e-05
1.17068e-05
-3.10741e-05
1.39322e-05
1.08911e-05
6.24582e-06
1.69748e-05
4.60803e-06
-2.06474e-06
-1.94988e-05
-3.78659e-06
-2.77105e-05
3.02664e-06
2.84636e-05
5.94257e-06
-2.3293e-06
2.28705e-05
-2.64852e-05
-3.08017e-06
5.18986e-08
-7.08392e-06
1.00526e-05
5.83909e-07
9.4209e-06
-3.3938e-05
2.39319e-05
-1.20578e-05
-2.38059e-05
-1.23147e-06
3.71015e-05
3.31794e-07
6.50202e-06
-6.839e-06
1.10885e-07
-4.34151e-07
1.3913e-05
-1.35829e-05
2.22063e-06
1.41342e-05
1.20744e-05
-2.843e-05
5.17273e-07
-1.79875e-05
-2.6088e-08
1.74987e-05
3.68845e-06
-1.80967e-05
-1.36161e-05
2.80225e-05
1.29397e-05
1.58785e-05
-1.35781e-05
-1.5235e-05
2.61491e-05
1.56155e-05
-3.53194e-05
-6.4441e-06
3.78744e-07
-5.93477e-06
5.55525e-06
3.50028e-06
1.72564e-06
3.45563e-08
-5.25882e-06
2.77682e-06
3.52075e-06
5.49398e-07
-6.84303e-06
3.58947e-06
-3.91177e-06
1.81481e-05
1.44564e-07
-3.20098e-05
1.20001e-05
1.98521e-05
5.07885e-05
5.79663e-06
-1.02609e-05
-4.63111e-05
-9.88421e-06
1.29623e-05
-3.13225e-06
6.2569e-08
-1.34783e-05
1.29787e-05
-2.14492e-05
2.19429e-05
4.10442e-06
1.09246e-07
-4.20689e-06
1.34944e-06
1.01608e-05
-1.94298e-05
7.91916e-06
4.08206e-06
-6.33732e-06
2.25907e-06
2.24908e-05
-1.19695e-05
-6.12204e-06
-1.90113e-05
6.84589e-06
-1.77236e-05
2.98873e-05
3.05814e-05
-2.97799e-05
4.78727e-06
-5.59273e-06
1.74853e-05
6.50905e-06
-2.1038e-05
-2.95255e-06
2.75756e-06
-3.41935e-05
1.14027e-05
2.00305e-05
2.98423e-05
-5.98352e-06
5.30772e-06
4.29755e-05
-4.84749e-05
2.61327e-06
-3.05384e-05
2.50717e-06
3.17583e-05
-3.7255e-06
-2.35095e-05
-1.52684e-05
2.52964e-05
-1.16385e-05
-1.0906e-05
-1.55936e-05
3.8135e-05
-1.10463e-06
4.32547e-06
3.60358e-05
-3.9267e-05
1.39613e-06
2.54422e-05
-4.4911e-05
1.80717e-05
-2.19457e-07
2.23171e-07
2.16052e-05
-2.15926e-05
-3.73355e-05
6.0997e-06
3.09585e-06
2.81563e-05
1.50359e-05
-1.49526e-05
5.25942e-06
-5.35737e-06
8.49786e-07
1.36584e-05
-1.743e-05
2.92143e-06
-2.36079e-05
3.58016e-05
-4.44111e-06
-7.75569e-06
-3.14223e-05
2.32128e-05
1.45116e-06
6.76631e-06
-3.10118e-05
2.9382e-05
3.94413e-05
-3.78181e-05
2.80632e-05
-2.25431e-05
1.27316e-06
-6.79261e-06
-1.45403e-05
1.9096e-05
-1.16911e-05
7.13506e-06
-8.66948e-06
2.02996e-05
2.20168e-06
-1.38569e-05
-3.35838e-05
2.36696e-06
3.66726e-05
-5.45416e-06
-5.53618e-06
-2.77895e-05
5.32207e-07
3.27443e-05
2.89277e-06
-1.06646e-05
8.62025e-06
1.22317e-05
9.7404e-07
-1.1248e-05
-1.96617e-06
1.08464e-05
2.08381e-05
-2.40401e-05
-7.64998e-06
-8.7832e-06
1.20109e-05
2.04677e-05
-2.36902e-05
1.22813e-06
4.42523e-06
-4.07021e-05
3.50304e-05
1.92739e-05
-2.94236e-05
9.40494e-06
7.2859e-07
-3.54178e-05
-5.64357e-06
9.63375e-06
-3.91506e-06
-9.07633e-07
-2.7746e-05
3.2577e-05
-4.59179e-06
2.41203e-07
4.34762e-06
-4.37846e-06
-6.10598e-06
3.84151e-05
-2.79306e-05
6.92049e-06
-6.50824e-06
-4.26549e-07
2.3262e-07
4.62975e-07
-1.17226e-05
1.10153e-05
-1.5949e-05
1.49492e-05
2.71492e-05
6.0208e-06
3.14583e-05
-2.29357e-05
-1.45477e-05
5.8067e-06
-5.68803e-06
-1.14177e-07
-4.61422e-06
5.24647e-05
-2.99399e-05
-1.79299e-05
-2.76753e-05
3.07817e-05
1.94263e-05
-2.05468e-06
2.12844e-05
1.00589e-05
-2.92898e-05
-2.72622e-05
-1.01843e-05
3.65337e-05
9.09894e-07
-6.39786e-06
5.78311e-06
6.10406e-07
2.64576e-05
-2.84363e-05
2.89908e-08
1.94229e-06
-1.70625e-05
-1.05542e-05
1.51855e-05
1.24284e-05
-3.21596e-06
1.40757e-06
-1.85688e-05
2.0374e-05
-2.74875e-05
-8.13649e-06
8.61783e-07
3.47621e-05
-1.68859e-05
-8.22037e-06
-6.82588e-06
1.69465e-05
-3.97423e-05
-3.22029e-06
2.60505e-05
7.02617e-06
-3.02036e-05
-8.8892e-06
3.20729e-05
9.38606e-06
-9.02752e-06
-3.5751e-07
-2.54057e-05
4.27861e-05
-6.15361e-06
-1.12393e-05
-6.03412e-06
-2.68158e-05
3.02058e-05
2.6421e-06
-3.70482e-05
3.81214e-05
-4.61068e-06
3.53735e-06
-2.23823e-05
-5.74187e-06
1.57502e-05
1.2371e-05
-2.81795e-05
-6.42266e-06
3.43978e-05
1.79996e-07
-2.66036e-07
4.23198e-07
-1.55274e-05
1.53714e-05
4.63411e-06
4.61053e-09
-4.63614e-06
-8.29298e-06
8.21051e-06
8.85071e-08
3.98731e-05
-3.27098e-05
-4.57982e-05
3.86615e-05
3.93285e-06
9.49019e-08
-4.0291e-06
-3.38018e-05
3.33932e-05
-5.19973e-07
9.30059e-07
-1.31051e-05
1.0908e-05
5.6176e-07
1.62114e-06
3.7961e-06
4.37268e-05
-2.33551e-05
-2.41675e-05
-2.44981e-05
-7.94901e-06
3.27948e-06
2.9191e-05
3.22056e-05
1.37881e-05
-1.41668e-05
-3.18243e-05
1.58216e-05
-5.90841e-06
2.1951e-06
-1.21101e-05
3.92927e-05
-3.48418e-06
-2.81582e-05
-7.63214e-06
-5.07848e-06
7.74882e-06
-8.35552e-06
5.69001e-06
-3.49979e-06
1.02668e-05
3.91531e-06
-1.06896e-05
-1.24069e-05
-6.21209e-06
3.53939e-05
-1.67839e-05
7.53552e-06
2.72238e-05
-2.72248e-05
-7.53405e-06
-2.25444e-05
2.33097e-05
1.49013e-05
-1.56677e-05
2.56666e-05
-2.29497e-05
-3.2045e-06
4.64868e-07
-2.69455e-07
-1.3566e-05
1.70126e-08
1.37943e-05
-8.80588e-06
1.59536e-05
-1.3443e-06
-5.80298e-06
-3.5384e-05
-1.19763e-05
1.79102e-05
2.9459e-05
2.03508e-05
-1.72383e-05
-3.44842e-06
3.31137e-07
7.80264e-06
-2.6873e-05
-2.97274e-05
4.87899e-05
1.65954e-05
-2.19055e-05
-1.06217e-05
1.59249e-05
-6.18485e-06
-4.85619e-05
1.39658e-05
4.07885e-05
1.91991e-05
-1.74251e-05
2.14992e-06
-3.92632e-06
3.10574e-05
-1.16514e-05
-3.57166e-05
1.6328e-05
1.15992e-05
1.83647e-05
-4.3353e-05
1.33967e-05
-7.34002e-06
2.76368e-05
-2.40879e-05
3.79213e-06
-2.66617e-05
2.98045e-05
2.99961e-05
-3.31403e-05
-2.07245e-07
-1.71201e-05
1.48582e-05
2.4651e-06
5.46868e-06
-5.04425e-06
-4.41604e-07
3.50827e-05
-4.38426e-05
1.41853e-06
-5.35674e-06
7.25566e-06
3.79132e-06
-5.69672e-06
-3.98779e-06
1.65577e-07
-1.8461e-06
5.66286e-06
1.59291e-05
-2.47773e-06
1.73812e-05
-2.61551e-05
1.08117e-06
7.69214e-06
-1.0444e-05
-2.33258e-06
1.02122e-05
2.11084e-05
-2.81862e-05
1.61689e-05
-9.09421e-06
-2.44494e-05
-3.42597e-06
2.92938e-05
-1.42171e-06
-4.52783e-05
-7.39191e-06
4.01867e-05
1.24969e-05
-3.51072e-05
9.26012e-06
7.16684e-07
2.51283e-05
-5.33791e-06
2.78341e-07
1.10437e-06
3.96907e-06
-2.46031e-05
-2.88623e-05
2.28292e-05
3.06285e-05
1.5708e-05
1.3904e-05
-2.37058e-05
-5.9121e-06
2.82937e-07
1.72503e-05
-1.45046e-05
-3.02161e-06
-2.91301e-07
-1.57211e-05
3.0871e-05
-1.48586e-05
3.29346e-05
-2.3657e-05
-1.27171e-05
2.77156e-05
-3.16286e-05
6.71769e-06
-2.79673e-06
-3.87087e-06
-2.67646e-05
2.88148e-05
1.81375e-06
3.63126e-05
-2.4451e-06
-3.7748e-05
2.26306e-05
-2.50858e-05
5.99407e-06
-3.52779e-06
2.20982e-06
-1.35291e-05
-1.28329e-06
1.25982e-05
-3.14899e-06
3.08639e-06
-3.88025e-06
3.94165e-06
-2.03328e-06
5.61154e-06
1.56133e-06
-5.108e-06
-8.40722e-06
-2.13192e-05
-1.29558e-06
3.10038e-05
1.138e-05
8.01374e-06
-2.99463e-05
1.05477e-05
-1.8838e-05
4.745e-07
6.64846e-06
1.17143e-05
-2.3399e-06
-2.04214e-05
1.98393e-05
-2.50867e-05
2.87024e-05
9.36061e-06
-1.29973e-05
-3.46964e-05
3.93987e-05
-1.18001e-05
7.08912e-06
-4.92543e-06
-1.74767e-05
2.57181e-06
1.98292e-05
1.57982e-06
3.26518e-05
-3.82954e-05
4.07049e-06
1.70373e-05
-5.54519e-05
1.22016e-05
2.62268e-05
4.67058e-06
-3.52404e-05
1.93721e-05
1.11911e-05
1.28946e-06
1.89026e-05
-6.4308e-06
-1.37651e-05
-5.22123e-06
2.32804e-06
5.09842e-06
-2.20957e-06
-3.60007e-06
7.76586e-06
-2.9293e-05
2.51256e-05
-1.80547e-06
-1.38693e-05
4.63731e-07
1.52116e-05
-9.11163e-08
1.3826e-05
-1.67753e-07
-1.35532e-05
2.89771e-07
3.50526e-07
1.39359e-05
-1.4613e-05
-8.43845e-06
-1.43109e-05
2.52013e-05
-2.45802e-06
3.71564e-06
-3.62702e-05
1.97531e-05
1.27879e-05
3.00957e-05
8.4221e-07
2.19484e-06
-3.3128e-05
3.62457e-06
-3.82595e-06
1.98325e-07
1.07216e-05
2.22494e-05
-2.83036e-05
-1.40296e-05
9.67207e-08
2.0693e-07
1.37095e-05
1.84469e-06
-2.37524e-05
8.50729e-06
1.33988e-05
1.02175e-06
9.22443e-06
-9.15837e-06
-1.08197e-06
-6.73884e-06
-1.47069e-05
2.73713e-05
-5.9341e-06
3.18757e-05
-3.26833e-05
2.7713e-05
-2.69344e-05
1.75419e-05
-7.94906e-06
-2.93263e-05
1.97333e-05
-2.67681e-06
-2.47183e-06
5.14449e-06
1.40106e-05
3.46426e-06
-4.2053e-06
-1.32713e-05
-2.4678e-05
3.66922e-05
3.63993e-06
3.18309e-06
-6.83033e-06
5.04602e-07
-2.95669e-05
5.7501e-08
2.90035e-05
-4.75386e-07
9.82231e-07
2.17389e-05
-6.94038e-07
2.31e-05
-4.44223e-05
2.20228e-05
-7.79491e-06
-2.27264e-05
-3.30011e-06
3.38002e-05
6.21128e-06
-1.09218e-05
1.07568e-05
-6.03836e-06
-6.47153e-06
-3.19451e-05
-4.11688e-06
4.2523e-05
2.02647e-05
3.30778e-06
-2.3035e-05
-5.38949e-07
5.24547e-06
2.52978e-05
-4.20632e-05
1.15247e-05
-2.08891e-06
-1.48996e-05
-7.97548e-06
2.49639e-05
-2.31644e-05
-6.81482e-06
1.15288e-05
1.84317e-05
-1.47566e-06
-1.1159e-06
-1.56314e-05
1.82283e-05
3.25078e-05
-1.36303e-05
-7.87891e-06
-1.10027e-05
-2.02957e-05
5.00001e-05
-2.80412e-05
-1.66271e-06
1.362e-05
3.19864e-07
4.95191e-07
-1.44214e-05
3.02975e-05
-3.54315e-05
3.591e-05
-3.07686e-05
-5.79184e-06
1.81181e-05
-1.47262e-05
2.39753e-06
1.19236e-05
-4.39889e-05
1.87435e-06
3.01872e-05
8.45228e-06
3.88334e-05
-3.35879e-05
-1.37003e-05
8.01287e-06
-7.39652e-06
-1.24811e-05
1.18497e-05
-2.2507e-05
-1.32729e-05
3.98474e-05
-4.05619e-06
3.40368e-05
-2.66315e-05
-4.18574e-05
3.44617e-05
1.69588e-05
1.4775e-05
-8.94623e-06
-2.28037e-05
2.96239e-07
-1.44136e-05
1.84686e-07
4.70697e-06
-4.90988e-06
-4.34136e-06
4.2521e-06
9.47318e-08
2.58828e-05
-2.43434e-05
-2.32262e-05
2.16932e-05
-6.15477e-06
7.56189e-06
-2.2215e-05
2.08174e-05
3.20785e-05
-2.51905e-05
-5.22283e-06
-1.66476e-06
-6.0885e-06
1.44121e-06
4.16838e-06
-7.33088e-06
2.55223e-05
-7.00545e-06
-1.11885e-05
-4.71406e-05
1.14487e-06
1.60242e-05
3.00128e-05
1.2102e-05
-5.18899e-06
-1.2063e-05
5.14162e-06
6.79614e-06
3.21598e-05
-2.99059e-05
-9.05727e-06
-1.78475e-05
-3.5995e-06
3.43592e-05
-1.2915e-05
2.17785e-06
2.04124e-05
4.31807e-06
-2.69088e-05
7.09981e-06
2.26903e-05
-2.76107e-05
2.15842e-05
-1.63452e-05
-8.12124e-06
2.88962e-06
1.8751e-05
-2.41136e-05
1.0608e-05
-1.59538e-05
1.01135e-05
9.23223e-06
-3.3911e-06
8.07406e-06
1.03298e-05
1.94595e-05
-3.78722e-05
5.20741e-06
-2.91749e-05
-4.51986e-06
2.85068e-05
6.7145e-07
2.43311e-05
2.25804e-06
-2.72671e-05
1.05551e-05
2.05621e-05
-3.38671e-05
2.7519e-06
-5.31866e-05
4.35818e-05
-8.39029e-07
-2.14734e-07
3.67303e-05
-3.0186e-06
-3.34873e-05
-4.29363e-06
8.80207e-06
-1.2312e-05
7.78969e-06
-9.66173e-07
-4.71607e-06
3.89782e-07
5.28199e-06
-4.52345e-06
4.36812e-06
1.58505e-07
-5.20659e-06
-6.58738e-06
3.3354e-05
-2.15608e-05
-2.48685e-05
3.8472e-06
-1.1053e-05
3.20759e-05
4.1736e-05
-1.02481e-05
-1.33588e-05
-1.8146e-05
3.60986e-06
-3.21241e-05
1.13124e-05
1.71932e-05
4.31959e-06
-3.99455e-06
-1.42719e-06
1.11591e-06
-5.24845e-06
4.91811e-06
3.24029e-07
1.98472e-06
2.92842e-05
-5.73526e-06
-2.5542e-05
-5.06782e-06
2.37294e-05
-3.1374e-05
1.27031e-05
1.02734e-05
1.66389e-05
-3.88796e-05
1.1965e-05
-2.10324e-06
2.50286e-05
1.77978e-05
-4.07214e-05
-4.21723e-05
2.1817e-05
2.50593e-05
-4.70452e-06
3.14758e-05
-3.20218e-05
6.16875e-06
-5.62697e-06
-3.15174e-05
-6.98247e-07
-9.96121e-06
2.74953e-07
6.77579e-06
-7.04883e-06
3.09203e-05
3.9989e-06
-2.48119e-05
-1.00852e-05
-1.88319e-06
-3.45251e-06
1.55052e-05
-1.01702e-05
2.9042e-06
5.44513e-07
1.01897e-05
-1.36416e-05
-3.07303e-05
1.33558e-05
1.50708e-05
2.3047e-06
1.55153e-05
-2.47182e-05
-3.31942e-06
1.25487e-05
-2.33861e-05
5.66891e-06
3.83778e-05
-2.06623e-05
-4.07736e-06
-3.62695e-07
4.45775e-06
-1.27922e-05
3.26729e-05
2.22902e-05
-4.21708e-05
2.77671e-05
7.71239e-07
-4.43213e-05
1.57805e-05
-1.81611e-06
2.80651e-05
-2.58657e-06
-2.36637e-05
2.10989e-05
-1.63866e-05
1.24351e-05
-1.71877e-05
-1.101e-06
-2.15376e-05
2.42213e-05
-1.58452e-06
-1.75398e-05
-2.59639e-06
-1.27519e-05
3.29076e-05
-8.27988e-06
-8.12296e-06
-1.48978e-05
3.13374e-05
-1.09224e-06
2.88536e-05
-3.26759e-06
-2.44955e-05
2.51317e-05
-2.44953e-05
-7.41614e-08
-5.65275e-07
3.23567e-05
6.49906e-08
-2.22218e-05
-1.02049e-05
-8.10001e-06
-3.85663e-06
-2.39443e-05
3.59073e-05
-2.7015e-07
-4.10879e-06
4.38896e-06
-2.60945e-05
3.94658e-05
-3.01903e-06
-1.03553e-05
2.67183e-06
1.924e-05
6.60787e-06
-2.85015e-05
-5.39167e-06
1.21241e-05
4.55725e-06
-1.12706e-05
-1.86956e-05
-4.79467e-06
1.945e-05
4.01639e-06
1.7785e-05
1.29078e-05
-4.5613e-05
1.49192e-05
1.23794e-05
-9.21357e-06
3.17131e-05
-3.48893e-05
-2.76115e-06
2.26938e-05
2.09744e-06
-2.20365e-05
3.84137e-06
-3.70117e-06
-1.38941e-07
2.33112e-06
2.71121e-05
1.36759e-06
-3.08094e-05
2.90523e-05
-4.58821e-06
-2.80723e-05
3.59844e-06
-4.84317e-06
6.1836e-06
-2.77131e-05
2.63581e-05
-2.9593e-05
-4.35666e-06
2.32444e-05
1.06775e-05
1.30867e-05
-1.22098e-05
-2.30092e-07
-6.36707e-07
-4.0505e-05
2.57716e-05
-1.78121e-06
1.65108e-05
-5.67557e-06
4.81659e-06
8.56838e-07
1.20883e-05
-1.04674e-05
1.56988e-05
-1.73125e-05
1.95752e-05
1.63796e-05
-8.54016e-06
1.23488e-05
-3.38452e-05
-1.45166e-05
3.60227e-05
2.41025e-07
-1.88899e-05
1.91123e-05
-4.56811e-07
9.2369e-06
-1.55481e-05
-1.77553e-05
2.4051e-05
1.57296e-05
6.81896e-06
-2.30167e-06
-2.02518e-05
-5.42958e-06
1.3223e-06
7.00796e-06
-2.90151e-06
-3.26282e-06
4.45577e-05
-1.5218e-05
-2.61182e-05
1.23104e-05
1.46216e-05
-5.58035e-07
-2.63775e-05
3.36235e-07
4.05735e-06
-4.39653e-06
-1.20394e-06
4.99284e-06
2.85894e-05
-3.23855e-05
3.25538e-05
4.41058e-06
-1.55472e-05
-2.14201e-05
-1.31005e-06
7.41639e-06
-5.73169e-06
-3.68014e-07
1.66865e-05
-1.89506e-06
-1.75763e-05
2.76776e-06
-4.55377e-06
-1.58073e-05
8.06505e-06
1.22792e-05
-5.35461e-06
2.48243e-05
4.29361e-06
-2.37603e-05
2.413e-05
-2.82657e-06
-2.67755e-05
5.46953e-06
-3.42508e-06
6.7258e-06
-3.30214e-06
3.22812e-06
-1.35374e-05
1.2015e-05
-1.70151e-06
8.89699e-07
1.28004e-05
-1.39554e-05
2.70296e-07
1.16297e-05
1.35918e-05
-1.73733e-06
-2.34816e-05
1.75807e-05
2.29473e-05
-1.63966e-05
-1.65385e-07
4.90837e-06
-4.73882e-06
-3.69126e-05
1.88779e-05
3.36654e-05
-1.56188e-05
3.72047e-05
6.17883e-06
-3.88007e-05
-4.58055e-06
2.25209e-05
-1.47342e-05
-2.53434e-05
8.31269e-06
1.43554e-05
-3.06152e-05
-1.57687e-06
-6.74415e-06
3.89338e-05
-4.22936e-07
5.0913e-06
-4.65842e-06
3.43759e-05
-1.30274e-06
-3.61149e-06
-2.94606e-05
5.41793e-06
-5.22847e-06
-1.9643e-07
-1.44498e-05
3.81348e-06
-9.09258e-06
1.97232e-05
-2.00638e-05
-1.63298e-05
1.5241e-05
2.11495e-05
2.45699e-05
-1.91246e-05
-5.00415e-06
-4.51167e-07
-8.46265e-09
4.32076e-06
-4.29932e-06
-9.4028e-07
-5.52497e-06
-1.08668e-08
6.46693e-06
9.6748e-06
3.92956e-06
-6.57587e-06
-7.02547e-06
-1.50207e-05
1.60591e-05
-1.98147e-06
1.8036e-08
3.92017e-05
-1.18144e-06
-3.80402e-05
-8.74147e-06
-1.02068e-06
1.14974e-05
-1.72747e-06
4.34813e-06
-1.71472e-05
1.39071e-05
-1.10416e-06
1.08832e-05
-2.05165e-05
1.34587e-05
-3.82721e-06
7.32351e-06
1.69216e-05
2.55368e-06
-2.68169e-05
7.10028e-06
-7.37344e-06
2.7543e-07
1.6422e-05
-1.35318e-05
-3.58724e-05
3.30046e-05
5.98302e-07
1.44354e-06
1.63448e-05
-1.83907e-05
3.51682e-06
1.62355e-05
-2.06354e-05
8.83534e-07
1.46509e-05
-7.36954e-07
-2.32016e-06
-1.15954e-05
8.8946e-06
1.84798e-05
-2.75618e-05
1.9941e-07
1.77624e-05
9.50614e-08
-1.68822e-06
-1.61719e-05
-2.63222e-05
9.62937e-06
1.36022e-06
1.53476e-05
-1.02732e-05
-9.52425e-06
-1.04981e-06
1.24996e-05
-2.11187e-05
1.56039e-05
-6.96652e-06
-3.62917e-06
-1.51753e-05
-2.28351e-05
4.16414e-05
-6.63538e-06
8.50859e-06
-2.10452e-06
2.30749e-07
9.86082e-08
3.44662e-06
-3.54105e-06
-6.87559e-06
3.67709e-05
1.20585e-05
-4.19365e-05
2.47917e-05
1.04574e-05
-9.40496e-06
-2.5822e-05
2.67277e-05
-2.35153e-05
2.75808e-05
-3.08e-05
3.59712e-05
-3.98175e-05
4.56967e-06
-7.24801e-07
-4.68431e-05
2.02291e-05
8.41797e-06
1.81977e-05
-1.44654e-05
-2.04626e-06
1.57498e-05
7.60645e-07
2.95429e-05
-3.95723e-05
1.41063e-05
-4.07779e-06
1.32583e-05
-1.44752e-05
4.51326e-06
-3.29852e-06
-1.44833e-05
1.29464e-05
-8.7518e-06
-1.5374e-05
4.93496e-05
5.47959e-06
-3.94838e-05
-7.42641e-06
4.08994e-07
7.02596e-06
-4.63251e-06
1.03209e-05
-3.83856e-05
-2.41283e-05
-2.3195e-07
1.32807e-07
2.4235e-05
6.54346e-06
-6.8172e-08
-6.4912e-06
8.0578e-06
-3.75345e-07
-3.02179e-05
2.25283e-05
7.12402e-10
-4.63881e-07
1.32007e-05
-1.27253e-05
7.97855e-06
1.7245e-05
-2.92053e-05
3.97452e-06
2.15162e-05
1.31202e-06
1.62197e-06
-2.4474e-05
-3.2109e-06
5.90245e-06
3.96765e-05
-4.23771e-05
-1.092e-05
-1.17018e-06
-4.54491e-07
1.25352e-05
-8.04431e-06
6.76693e-06
-2.66071e-05
2.78893e-05
-1.83935e-06
2.88712e-05
-2.44482e-05
-2.59274e-06
3.15053e-05
9.6441e-06
-1.46752e-05
-2.64804e-05
7.07521e-06
-3.7999e-05
2.49941e-05
-3.19267e-05
4.07442e-05
-2.02156e-06
1.74704e-05
-6.80524e-06
1.41397e-05
-1.6329e-05
-4.26553e-06
8.19422e-06
1.24018e-05
-8.94486e-06
1.19182e-06
8.15968e-06
-4.00665e-07
-1.06302e-05
2.56797e-05
-1.78822e-05
2.84045e-06
-3.08279e-05
2.68662e-05
2.81778e-05
-2.42158e-05
-4.45197e-06
4.03417e-06
1.59854e-07
2.54211e-07
2.90453e-05
-4.342e-05
-1.58766e-05
3.02632e-05
-3.89261e-05
-1.45933e-05
2.58919e-05
2.76289e-05
3.42765e-05
3.62325e-06
1.90609e-06
-3.98013e-05
2.91058e-05
-1.9259e-05
2.44309e-05
-4.11768e-05
-3.62617e-06
1.68435e-05
2.79431e-05
4.37666e-06
4.75653e-07
-4.85684e-06
3.30246e-05
-3.05863e-05
-1.02579e-05
7.82159e-06
-2.23962e-05
-7.90494e-06
6.7766e-06
2.35417e-05
1.44975e-05
2.38481e-05
-1.33503e-05
-2.49943e-05
7.72612e-06
2.49457e-05
-2.40738e-05
-8.61151e-06
6.3739e-07
-8.25586e-06
7.615e-06
-1.46248e-05
-1.2488e-05
1.24616e-05
1.46342e-05
2.2606e-06
2.23811e-05
-5.76715e-06
-1.88623e-05
-3.58012e-05
3.60903e-05
-6.31147e-06
-2.57841e-06
3.1505e-05
-3.07234e-05
1.79425e-06
1.88074e-05
3.93358e-06
1.10966e-05
-3.38471e-05
-1.3257e-07
-2.98494e-06
3.11064e-06
-4.42098e-06
4.36943e-06
4.45388e-08
-2.04541e-05
-1.03186e-05
1.22823e-05
1.84866e-05
-2.69397e-05
-4.79466e-07
3.25879e-05
-5.18879e-06
-7.9536e-06
2.92092e-05
-3.02527e-05
8.99691e-06
-2.3828e-05
1.92697e-05
-8.43925e-06
1.30038e-05
6.87035e-07
2.32219e-05
-2.66314e-05
2.72747e-06
-3.37222e-05
7.95742e-06
2.14979e-05
4.26921e-06
1.59558e-06
4.02468e-05
-1.52082e-05
-2.66254e-05
2.89679e-06
-5.5763e-06
-1.88516e-05
-9.38829e-06
7.78617e-06
1.91897e-05
-1.36445e-06
4.61522e-06
-2.24415e-05
-2.36885e-06
-6.06432e-06
7.59196e-06
7.99714e-07
1.64783e-05
-5.22052e-06
-1.1533e-05
2.63507e-07
1.29816e-05
-4.27791e-05
4.09355e-05
-1.11489e-05
-1.712e-05
2.96818e-05
4.27276e-06
-1.68418e-05
-3.50023e-06
4.06118e-06
2.80758e-05
-2.86278e-05
-3.98161e-05
2.98161e-06
1.67556e-07
3.66421e-05
-2.35551e-05
3.22972e-06
1.85689e-05
1.75123e-06
-2.14932e-05
1.32428e-05
3.04182e-05
-2.21729e-05
-1.58004e-05
-2.89794e-05
8.57026e-06
3.61887e-05
4.25753e-06
-3.59241e-05
-4.07186e-06
3.57327e-05
-2.61391e-05
3.74854e-06
-1.6364e-06
2.40289e-05
-2.68144e-05
-1.55461e-06
-2.16967e-06
3.05335e-05
6.38722e-06
-3.20822e-06
2.94118e-05
-3.25975e-05
9.03394e-06
-5.33921e-06
-9.74424e-08
-3.60277e-06
4.40384e-06
-4.39223e-05
-6.76288e-06
4.62862e-05
-5.56873e-06
3.37696e-06
2.92598e-06
-7.26947e-07
-2.88077e-05
-7.52841e-06
1.58508e-05
2.04836e-05
-1.66321e-06
1.68555e-05
3.4691e-06
-1.8664e-05
-1.30385e-05
-1.37783e-05
9.99166e-06
-5.99869e-06
2.36278e-06
3.20147e-05
-2.83884e-05
2.55357e-05
-3.39072e-05
2.30968e-06
6.05896e-06