/*--------------------------------*- C++ -*----------------------------------*\
| =========                 |                                                 |
| \\      /  F ield         | OpenFOAM: The Open Source CFD Toolbox           |
|  \\    /   O peration     | Version:  2406                                  |
|   \\  /    A nd           | Website:  www.openfoam.com                      |
|    \\/     M anipulation  |                                                 |
\*---------------------------------------------------------------------------*/
FoamFile
{
    version     2.0;
    format      ascii;
    arch        "LSB;label=32;scalar=64";
    class       volVectorField;
    location    "18";
    object      U;
}
// * * * * * * * * * * * * * * * * * * * * * * * * * * * * * * * * * * * * * //

dimensions      [0 1 -1 0 0 0 0];

internalField   nonuniform List<vector> 
59516
(
(0.114448 0.000499967 -0.000380616)
(0.102725 0.000131007 5.71759e-05)
(0.116256 -0.00165928 -0.000162813)
(0.12362 0.00254391 0.000966497)
(0.112757 0.000579401 -0.00391594)
(0.101081 -0.00482526 -0.0107051)
(0.13067 -2.85453e-05 -0.00131594)
(0.108509 0.000418381 0.00168598)
(0.116288 0.000173585 0.00211927)
(0.062258 -0.00133029 0.0032557)
(0.135311 0.000808791 -0.00021636)
(0.0686935 0.00124745 -0.00342484)
(0.12251 0.00158347 -0.0014427)
(0.0255112 0.000107141 -0.000312913)
(0.0699951 0.00167286 0.00322306)
(0.0575211 0.00558783 -0.00259203)
(0.141182 2.02583e-05 2.12407e-05)
(0.0710721 0.00351474 -0.00301076)
(0.118221 0.00275566 0.000404999)
(0.14157 -0.00131119 -0.000116201)
(0.0614316 0.000186141 -0.000889296)
(0.138221 0.000657479 0.000625877)
(0.140499 0.000187001 -0.000222754)
(0.0399119 -0.00189161 0.000338036)
(0.14398 -0.00089219 0.00131488)
(0.0715523 0.0016355 0.00269645)
(0.0489493 0.00032204 -0.00220348)
(0.0489313 0.00353565 0.00119644)
(0.073265 0.00147378 -0.000460559)
(0.021607 -0.00373518 0.000435714)
(0.107598 -0.020379 -0.00435394)
(0.0500957 0.00319775 -0.00081418)
(0.128132 -7.88273e-05 0.00105502)
(0.112962 -0.000885333 0.003784)
(0.131159 -0.000202996 0.00134996)
(0.13685 -0.00052362 0.000468894)
(0.0197431 -0.00169732 -0.00417328)
(0.0708776 0.00315083 -0.00590816)
(0.104182 -0.00208982 0.000435746)
(0.139611 -0.00298775 0.00114495)
(0.107171 -0.00124124 8.70835e-05)
(0.136883 -0.00237215 -0.0032595)
(0.139136 0.000763684 0.000638002)
(0.111678 -0.0023988 0.00192317)
(0.138768 -0.000159187 0.000662225)
(0.0611677 -0.00264029 -0.00264772)
(0.130971 0.000540625 -0.00169561)
(0.141543 0.000458831 7.17153e-05)
(0.110898 -0.00843847 0.0124285)
(0.135336 0.00130328 0.00185834)
(0.103835 0.0107813 -0.0148751)
(0.0486421 -0.00448256 0.00321772)
(0.122261 0.000185772 -0.00121247)
(0.127447 0.000112118 -0.000915511)
(0.0542444 0.00371533 0.000129766)
(0.129692 -0.000428142 -0.000546271)
(0.132605 0.00444944 0.00486885)
(0.0548498 0.00455406 -0.00487296)
(0.139392 -0.00230418 0.000566428)
(0.128671 0.00290153 0.00364912)
(0.135304 2.86604e-05 0.000763116)
(0.0218268 0.00340792 -0.000511761)
(0.135221 -0.001472 -0.0006181)
(0.136705 -0.000385429 -0.000751359)
(0.127202 0.00105151 -0.000650032)
(0.133205 0.000514427 0.00057553)
(0.033172 -0.00231401 0.00323438)
(0.0470898 0.000908271 -7.13026e-05)
(0.119538 -0.00412634 0.0213698)
(0.132051 0.000997872 0.000708606)
(0.0446961 0.00179986 0.000153625)
(0.138385 0.000436367 -0.000371924)
(0.0268052 0.00165774 -0.00534255)
(0.134198 -0.00124552 -0.000352984)
(0.1403 -0.00145598 0.000325213)
(0.141254 0.000646203 0.000244563)
(0.141015 0.000583997 0.00031981)
(0.135566 0.00119371 -0.000710807)
(0.0522767 -0.00273889 0.00274153)
(0.133763 0.00111917 0.00198823)
(0.0437944 0.00500401 0.00294473)
(0.132511 0.00079929 0.00102777)
(0.130947 0.000511535 0.00101293)
(0.024455 -0.00104205 0.00436552)
(0.133032 0.000475821 0.00101607)
(0.140188 -0.00125128 -0.00019239)
(0.0378209 -0.00192628 0.000391577)
(0.138886 -0.000947894 0.000466288)
(0.0599053 0.00173835 0.00540199)
(0.108002 0.00769621 -0.00336068)
(0.126309 0.000149264 -0.00772976)
(0.126957 0.00166855 0.000581184)
(0.140847 -0.00038534 0.000693108)
(0.126667 -0.000268594 -0.000476094)
(0.132918 -0.000905051 0.000412582)
(0.109405 -0.00992939 0.0043341)
(0.132614 -0.0013259 0.00181039)
(0.0600433 -0.0023608 -0.00466568)
(0.0708305 0.00196449 -9.36082e-05)
(0.13528 1.48639e-05 0.00112344)
(0.0417103 0.000685014 0.00212254)
(0.0291357 0.00141703 -0.0036684)
(0.0280392 0.000725051 0.00459517)
(0.062746 -0.000489463 -0.00318907)
(0.129549 0.000250852 -0.000690594)
(0.130206 0.000257051 0.000845703)
(0.0480954 0.00537023 -0.00196717)
(0.112147 0.000281815 -0.000292382)
(0.107706 -0.000927353 -0.00104902)
(0.073916 0.00100756 -0.00391207)
(0.122191 0.011287 -0.0110091)
(0.0358613 0.00499368 -0.000917112)
(0.0744463 0.00148576 -0.00374443)
(0.116142 0.0154547 -0.00756264)
(0.139508 -0.000565536 0.000805509)
(0.107459 0.00114627 -6.47185e-05)
(0.06022 0.000689313 -0.00336297)
(0.128512 0.00114082 0.000546921)
(0.0257846 -0.000972062 0.000643235)
(0.133727 0.00143396 9.23698e-05)
(0.140606 0.000851998 -4.45966e-05)
(0.1391 0.00127695 0.000450762)
(0.14053 0.000587272 -0.000735525)
(0.137555 0.000728599 0.000549248)
(0.129214 -0.0125618 0.00279114)
(0.0950682 0.000924022 -0.00181305)
(0.0363915 -0.000465794 0.00270189)
(0.134202 -0.00718649 0.000400216)
(0.0895067 -0.00240937 0.0127765)
(0.13893 0.0003568 0.000938174)
(0.138827 0.000497063 0.00188597)
(0.118942 0.00112563 0.00140333)
(0.0273022 0.00192866 -0.00215777)
(0.138662 0.000138854 0.000708545)
(0.110599 0.000451536 0.000412645)
(0.120204 -0.0013075 -0.00120564)
(0.106862 0.0109064 -0.00786335)
(0.131526 -0.000423529 0.00112295)
(0.0458083 0.00312405 0.000343264)
(0.107932 0.00119252 -0.00159064)
(0.0500539 -0.00104673 -0.0030053)
(0.139672 0.000445982 -0.000106781)
(0.0219399 0.000706323 0.00206653)
(0.124469 -0.000512434 -0.000789758)
(0.136864 0.000596195 0.000354395)
(0.133427 0.00134025 0.000192116)
(0.137347 -0.000298545 0.000378901)
(0.122702 0.000857013 -0.0025086)
(0.0619784 -0.00116672 0.00174937)
(0.114165 -0.0004776 -0.000322593)
(0.113059 -0.000809708 -0.000368055)
(0.041285 -0.00155712 -0.000257001)
(0.141643 -0.000619627 0.0013382)
(0.137773 0.000427212 0.00133802)
(0.0999592 -0.000523311 0.00147552)
(0.0224196 -0.000444738 0.00281101)
(0.118559 0.000616648 -0.000388657)
(0.12111 0.000978986 0.000270515)
(0.0937673 0.00174301 0.00043025)
(0.0236719 0.00344238 -0.00344154)
(0.0743281 0.000675909 -0.00323919)
(0.0771376 -0.00289084 -0.00283216)
(0.0419151 -0.00190154 2.25581e-05)
(0.030837 -0.000706429 -0.000670447)
(0.106943 0.000732559 0.00240962)
(0.141774 -6.99987e-05 0.00115194)
(0.0670989 -0.00142936 -8.89255e-05)
(0.139137 0.000420123 0.00072644)
(0.0246841 -0.00191191 0.00280714)
(0.124008 -0.000201731 0.000271753)
(0.0939354 0.00176887 0.00140346)
(0.0605211 0.00107644 -0.0010376)
(0.0728799 0.00159675 0.000647366)
(0.13072 -0.000529714 0.000711104)
(0.057579 -0.00114168 0.000178504)
(0.132598 0.00151605 -0.00140627)
(0.137895 0.000281623 -0.000656845)
(0.141098 3.06646e-05 0.000537308)
(0.0749382 -0.00227634 0.00281821)
(0.0468986 0.000114692 -0.000655196)
(0.136306 0.0013895 0.00133892)
(0.0385083 -0.00405584 -0.00108285)
(0.0345598 -0.00153754 -0.00318559)
(0.0722627 -0.00222355 -0.000855168)
(0.138776 -9.95783e-05 0.00128475)
(0.0644739 0.000142553 0.000405574)
(0.0389406 -0.000792627 -0.00370845)
(0.026527 -0.000505771 0.000644859)
(0.124214 0.000507157 0.00140855)
(0.107912 -0.000726572 -0.000250786)
(0.125893 -0.000781786 0.00247503)
(0.0582864 0.00347744 0.000819591)
(0.141037 -0.000605082 0.000413144)
(0.0654696 0.00340228 8.06376e-05)
(0.139814 -0.00146535 0.000543644)
(0.0325629 0.000344344 0.00151898)
(0.0631728 0.000610505 -0.000858093)
(0.046321 -0.00144829 -0.000271522)
(0.113625 0.00255656 0.00276892)
(0.138342 -8.77751e-05 0.000858055)
(0.086508 -0.00228416 9.32298e-05)
(0.138422 0.000982488 -0.000709126)
(0.110172 -9.29713e-05 0.000554598)
(0.022578 0.00299302 -0.00202533)
(0.129689 -0.00157182 -0.000401682)
(0.135831 0.000163089 0.000170935)
(0.13949 -0.000619834 0.000628735)
(0.130384 0.00155867 0.000171024)
(0.0268916 -0.000178693 0.000108158)
(0.118736 -0.00105456 -0.000686513)
(0.0556047 0.00492606 0.00291238)
(0.0271418 -0.00414862 -0.000450622)
(0.137278 0.000722582 -0.00166724)
(0.062031 -0.000927022 0.000349544)
(0.121591 0.000931262 -0.000245771)
(0.139638 -0.00109373 0.00111897)
(0.133217 0.000546602 0.000443206)
(0.140856 -0.00043781 7.72651e-05)
(0.0604037 0.00329503 -0.00220695)
(0.141252 -0.000375679 0.000519986)
(0.0635887 0.00287475 0.00151689)
(0.109345 0.000700097 -0.000626884)
(0.136322 0.000608802 0.00117279)
(0.046325 -0.000674984 0.000875236)
(0.135779 -0.00181068 0.000567622)
(0.137954 0.000684998 -0.000601544)
(0.0319207 -0.000522557 0.00100718)
(0.0540737 0.00271302 -0.00283765)
(0.137081 -0.00131183 0.0014835)
(0.0598206 0.000878884 -0.00437477)
(0.142233 -0.000992579 3.24581e-05)
(0.138339 0.000897289 -0.000545694)
(0.135846 -5.87137e-05 0.00102104)
(0.0279169 -0.00301792 -0.0017664)
(0.0370869 0.00111331 -0.00281272)
(0.0404599 0.000481007 -0.00157455)
(0.0712511 7.4836e-05 0.00154856)
(0.101599 -0.0022963 0.000741434)
(0.135606 -0.000630112 0.000965738)
(0.063322 -0.00254019 0.00202099)
(0.137554 -1.97891e-05 0.00139981)
(0.0240016 0.000520306 0.00428756)
(0.059171 -0.000253443 0.000520774)
(0.0293167 0.000653369 0.00311372)
(0.13771 0.000588616 0.000811747)
(0.103614 -0.000249722 -0.000824449)
(0.133849 -0.000665475 0.000301249)
(0.0723614 -0.000361205 -0.00241727)
(0.141867 -0.000727384 0.00118697)
(0.111623 0.000397835 -0.000181861)
(0.141374 -0.00208358 0.00146168)
(0.132423 2.65982e-05 0.000679804)
(0.136809 -1.66756e-06 0.00158148)
(0.13243 8.94247e-05 -0.000228516)
(0.135138 0.000658787 0.000337928)
(0.138724 -2.07794e-05 0.000436273)
(0.0611298 0.00094301 -0.000840574)
(0.13569 -0.000971446 0.000989636)
(0.0481047 -0.000621661 -0.00303021)
(0.0664547 0.000451671 0.00213286)
(0.128601 0.000764511 -0.000179192)
(0.137919 -0.000824793 0.00108181)
(0.120637 0.0011606 0.00151636)
(0.139878 -0.00135782 0.00101741)
(0.105905 -0.00105799 0.0023894)
(0.0625722 0.0032582 -0.00197289)
(0.139382 0.000998402 0.000263575)
(0.100937 -0.000550042 0.00121953)
(0.0528673 -0.000384194 -0.000223974)
(0.0590921 -0.000713756 -0.00100053)
(0.105351 0.00118378 -0.00290779)
(0.136991 -0.000706413 -0.000510743)
(0.105715 -0.00175835 0.000675762)
(0.101535 -0.000847549 0.00134788)
(0.138771 -0.00179429 0.000829269)
(0.100661 -0.000973298 0.00322062)
(0.0250887 0.00363652 -0.00186141)
(0.140706 -0.000783226 0.000951414)
(0.0302696 0.00192742 -0.00277739)
(0.0460544 -0.00251157 0.00207873)
(0.135154 -0.000909089 0.000776513)
(0.132435 -0.00101258 0.000444813)
(0.028458 0.00340918 0.00369644)
(0.124878 0.000928918 -0.000970474)
(0.128492 0.00199263 -0.000115539)
(0.138455 0.000539476 -0.000513272)
(0.137301 -0.000197301 0.000257131)
(0.029116 0.00400378 0.000624788)
(0.135434 -0.0015768 0.00120466)
(0.134115 -0.00200936 -0.000362745)
(0.136464 -0.00074032 0.000939623)
(0.129479 -0.0014025 0.00124279)
(0.12667 0.000820582 0.00146473)
(0.101105 -0.000204553 -0.000591675)
(0.14284 0.000277873 -3.7393e-05)
(0.03168 -0.00104006 -0.00233938)
(0.134429 -0.00203128 0.000118977)
(0.136251 -0.000994299 -0.000112846)
(0.137486 -0.00157254 0.000530989)
(0.133358 -0.0016538 0.000300311)
(0.120731 -0.00034374 -0.000293821)
(0.0658054 4.75975e-05 0.00208999)
(0.0264457 -0.000595455 0.00151142)
(0.0327843 -0.000947917 0.000909271)
(0.142853 -0.0016293 0.000162073)
(0.0246952 -0.00158536 0.00463174)
(0.0691773 -0.000144762 -0.00180436)
(0.0577833 0.00368799 0.00138906)
(0.139703 -0.000988169 2.15492e-05)
(0.142624 0.00043332 -0.00056932)
(0.141221 -0.000923073 0.000212221)
(0.0654389 -0.000758515 -0.00167184)
(0.105791 0.00117425 -0.00128679)
(0.0455622 -0.00443316 0.00286496)
(0.0623874 0.00111559 0.00171731)
(0.132393 -0.00176287 -6.93833e-05)
(0.106121 0.00228668 -0.00123853)
(0.107483 0.0128909 0.00384534)
(0.0954554 -0.00146942 0.00171692)
(0.0484833 -0.000529442 -0.00121036)
(0.0708265 -0.0012619 0.00181354)
(0.11323 -0.000378091 -0.000569077)
(0.139992 -0.000257093 0.000274461)
(0.140348 0.00181669 0.00056108)
(0.139523 0.000498266 0.00143058)
(0.140564 -0.00193046 0.000525344)
(0.0999521 0.000619148 0.0033171)
(0.123466 0.001582 -0.00025459)
(0.134619 0.00131874 -0.000456604)
(0.139254 0.00101711 0.000755754)
(0.139775 -0.000144553 0.000500799)
(0.0654949 0.00114541 -0.00292685)
(0.0263983 -0.00179745 -0.00283925)
(0.136304 0.000446666 0.000790302)
(0.0449771 -0.00201006 0.00250498)
(0.0376956 0.000449778 -0.000254297)
(0.136182 -0.000744678 0.00115395)
(0.1344 -0.000429732 0.00072568)
(0.065349 -0.00191894 -0.00222544)
(0.13853 -0.000180125 0.000785978)
(0.140259 -0.00121005 1.17636e-05)
(0.138013 5.50245e-05 -0.00100066)
(0.140305 0.00106945 -0.000385313)
(0.035986 0.00184972 0.0010015)
(0.141009 0.000618273 -0.000306604)
(0.137013 -0.000264244 0.000349984)
(0.063219 -0.000386346 0.000837885)
(0.137215 -0.000880282 0.00103245)
(0.138257 0.000740476 0.000392382)
(0.128736 0.000133535 -0.00183627)
(0.12272 -1.2657e-05 -0.000314468)
(0.134136 -0.000292351 8.93378e-05)
(0.133912 -0.00169502 0.000290903)
(0.0785617 -0.00137907 0.000212009)
(0.0367394 0.000992223 -0.000883905)
(0.0388214 -0.00418041 0.000981832)
(0.102564 -5.20352e-05 0.0013169)
(0.0858066 -0.0052145 0.00980757)
(0.0744453 -0.00382769 -0.00559292)
(0.0909863 -0.000221538 -0.00016912)
(0.117783 0.000638697 0.00137532)
(0.131446 -0.000146386 0.000388349)
(0.13513 0.000570248 0.00113026)
(0.142763 0.00125452 0.000206351)
(0.130879 -0.000110548 -0.000509659)
(0.134953 0.000734729 0.000110045)
(0.133908 0.00135509 -1.99628e-05)
(0.038413 -0.00168131 -0.000460437)
(0.112969 -0.0213858 0.00288725)
(0.0668576 0.00250397 0.00118181)
(0.0469101 -0.00285256 -0.00129337)
(0.0473006 0.00275885 -0.000129805)
(0.139199 0.000966843 0.00101023)
(0.102313 -0.000275052 -0.000481966)
(0.14038 0.000581709 -0.000183033)
(0.0240023 0.00154681 -0.00209513)
(0.126174 -0.000409569 -0.00045565)
(0.0534799 0.00160675 -0.00142472)
(0.138933 -0.00108632 -0.000291312)
(0.0553001 -0.00148361 -0.00038949)
(0.0710024 -0.000727154 0.0010441)
(0.113094 -0.00151083 0.0013328)
(0.134336 0.000809332 0.00066035)
(0.0241637 0.00251431 -0.00268923)
(0.0613986 -0.000818066 0.0033259)
(0.128385 0.00049805 0.000200712)
(0.0273957 -0.00186188 -0.00212479)
(0.126118 0.00068692 0.00410893)
(0.118352 -0.000622369 0.00163907)
(0.129175 0.00101687 -0.00062984)
(0.10223 0.0025286 -0.000993398)
(0.095416 -0.00101609 0.00171251)
(0.14332 0.00108807 -0.000540238)
(0.0772121 -0.00699922 -0.00685234)
(0.139218 0.00211637 0.000584173)
(0.109267 0.00695241 0.00755547)
(0.0674557 -0.000875874 0.000319916)
(0.070888 -0.000935933 -0.00241534)
(0.140235 0.000586568 0.000200063)
(0.143234 0.00161694 0.000264214)
(0.0598521 -0.000634574 -0.000345994)
(0.133326 0.00110796 -0.000182904)
(0.105975 -0.00119682 -0.00193808)
(0.1397 -0.000925448 0.000280655)
(0.139145 -0.000944609 0.000445945)
(0.0507712 0.00151803 -0.00375816)
(0.128498 -0.00047899 -0.000196818)
(0.136849 -0.00151168 0.000251062)
(0.13784 -3.97991e-05 9.71152e-05)
(0.141018 -0.00013268 -0.000147065)
(0.0246364 -0.000674936 -0.00455539)
(0.0244509 0.00181451 -0.00367769)
(0.124143 -0.000105793 -0.00121024)
(0.139482 0.000406326 7.2398e-05)
(0.139211 -0.000353889 -0.00106533)
(0.0412792 0.000400703 -0.00286821)
(0.136468 1.791e-05 -4.68491e-05)
(0.114522 -0.00157133 0.00141043)
(0.13378 0.00124539 0.000616083)
(0.141885 0.00125256 -0.00042254)
(0.139855 -4.38078e-05 -0.000565791)
(0.140535 0.00150955 0.00109948)
(0.141165 0.00162103 0.00104371)
(0.098851 0.000345853 -2.21606e-05)
(0.137768 0.00167952 0.000398517)
(0.0639397 -0.000889167 -0.00372079)
(0.139279 -0.00156888 -0.000441768)
(0.114025 0.00128643 -0.00125968)
(0.133851 0.0013758 2.10804e-05)
(0.138322 4.75268e-05 7.40691e-05)
(0.138152 0.000730096 -0.00109744)
(0.134045 0.00121412 0.000568235)
(0.0466381 0.00291147 0.00240768)
(0.038152 0.0011196 0.00105635)
(0.0259566 0.00284335 -0.00262151)
(0.133968 0.00152137 0.00242651)
(0.141875 -1.86574e-05 6.58114e-06)
(0.130165 -0.000278105 0.000710491)
(0.126662 0.00249023 0.000503271)
(0.0355086 0.00078162 0.00146487)
(0.0280777 0.000464569 0.00345307)
(0.118199 -0.000174698 0.00240466)
(0.134355 0.000804934 0.00118277)
(0.139069 0.00107906 0.000699153)
(0.141213 0.00145794 -0.000209665)
(0.134581 -3.71799e-05 -0.00134472)
(0.139048 0.00161961 0.000112748)
(0.132442 0.000969919 -0.000221837)
(0.0313001 -0.000244396 0.0030183)
(0.124011 -0.00088589 0.000569914)
(0.0647856 0.000571148 0.0028938)
(0.0701256 -0.00658474 0.00135521)
(0.134932 -0.000239287 -0.00101657)
(0.103387 -0.00185541 0.00204464)
(0.136163 0.00108371 -0.000272373)
(0.0245224 -0.00501917 -0.00220508)
(0.143627 0.00237919 4.41061e-05)
(0.140891 -8.556e-05 -0.000117852)
(0.136943 0.00139719 0.000431568)
(0.0998655 0.00148495 0.000318123)
(0.134054 0.00029454 0.000528216)
(0.135925 0.00143008 0.00035414)
(0.119105 -0.000230018 0.00059214)
(0.13634 0.000107615 0.000267641)
(0.103733 0.00319997 -0.00218455)
(0.140517 -0.00107463 -0.000166366)
(0.136339 -0.00139239 -0.000880147)
(0.024081 -0.00096147 0.00113897)
(0.139789 0.000118202 -0.00128248)
(0.11583 0.00146199 0.000105104)
(0.0517926 -0.00115585 0.00505485)
(0.100977 0.000617865 -0.000999475)
(0.138297 0.000393046 -0.000855831)
(0.127494 8.41272e-06 -6.95196e-05)
(0.0928743 0.000543996 -0.00247043)
(0.0237189 -0.0023613 -0.00300131)
(0.139965 -0.000306599 -0.00072347)
(0.123098 0.00248032 -0.000930846)
(0.140255 -0.000171881 -0.000103726)
(0.124057 0.000403029 0.000365376)
(0.0410232 0.00240282 0.00297948)
(0.130533 1.37819e-05 -0.000873625)
(0.0294968 0.00272033 -0.00317272)
(0.137958 0.000374853 2.52143e-05)
(0.102183 0.0115183 -0.00355351)
(0.138637 0.000626937 0.000130787)
(0.0600326 -0.000356501 0.0018606)
(0.111992 -6.53994e-05 -0.00221083)
(0.103012 0.001312 -0.00161976)
(0.0401307 0.00292471 0.00247944)
(0.134233 0.00111668 0.000337831)
(0.132689 0.00185281 9.66003e-05)
(0.0262385 0.000379072 0.00204884)
(0.135254 -0.00165752 -0.000242705)
(0.13446 -0.00234383 0.000190743)
(0.0427711 0.000119431 -0.00240892)
(0.0682251 0.00340185 0.000217009)
(0.0578157 0.0022919 0.0026408)
(0.135312 0.00108969 0.000484437)
(0.136287 -0.00169056 -8.00024e-06)
(0.0357573 -0.000767797 0.00148135)
(0.0609078 -0.00229418 -0.00222728)
(0.063246 0.000504348 -0.000423671)
(0.117391 0.00125114 -0.000359536)
(0.135919 -0.00181825 0.000174889)
(0.0264596 0.00168063 -0.00441319)
(0.140301 -0.00120448 0.000592714)
(0.138076 0.000577832 -9.94596e-05)
(0.135957 0.0013707 0.000399656)
(0.0900748 0.00388116 -0.00371631)
(0.143428 0.000329833 -0.000165533)
(0.0257491 -0.000467211 -0.00355378)
(0.141171 -0.00156844 -0.000136497)
(0.0317833 -0.000616979 -0.000282061)
(0.0670604 -0.00337387 -0.000352869)
(0.136586 0.000223551 0.0002893)
(0.0663145 -0.0018225 -0.000712074)
(0.0243126 0.0032103 0.00232974)
(0.0433697 0.00134557 -0.00098232)
(0.051816 -0.00264505 0.000343418)
(0.0666641 0.00175549 -0.00202798)
(0.137859 -0.00102295 0.000260483)
(0.0563044 -0.00154651 -0.000985004)
(0.06587 0.00270557 -0.00123978)
(0.124624 -0.00452332 -0.010903)
(0.134183 0.00170123 0.000199925)
(0.0273649 0.00272196 3.95502e-05)
(0.111257 5.20123e-05 -0.00151158)
(0.0806906 0.00820958 -0.00220253)
(0.140206 -0.00103667 -9.88947e-05)
(0.0671903 0.000177656 -0.0014821)
(0.13361 0.00199113 -0.000220557)
(0.065265 -0.00305591 -0.000969017)
(0.120878 0.000831619 0.000781363)
(0.136738 0.00149288 -0.00027139)
(0.0570352 0.00340888 -0.0054068)
(0.140683 0.000808263 -2.90969e-05)
(0.0501195 0.00110248 0.00222954)
(0.02317 0.00398692 0.00110679)
(0.132941 -0.000196899 0.00121166)
(0.136071 0.0016126 -0.000135639)
(0.126815 0.000858238 -0.000600291)
(0.124545 0.00262711 -8.74039e-05)
(0.138711 -0.00135531 0.000200145)
(0.0672604 0.00103682 -0.000525942)
(0.140271 -0.0013069 0.00015515)
(0.064781 -0.00199284 0.00290907)
(0.136933 0.00163004 -0.000221048)
(0.123911 -0.000781897 -0.000499515)
(0.0314805 0.00113826 -0.00547339)
(0.140603 -0.000167412 -0.00061842)
(0.0587715 0.0015066 0.00184924)
(0.0310583 -0.00298248 -0.00221335)
(0.141066 3.27141e-05 0.000347949)
(0.0475563 -0.00126924 0.00170953)
(0.129205 0.000374659 0.000800292)
(0.134557 0.000336328 0.000286773)
(0.126411 0.000897005 0.00133055)
(0.0605993 -0.0043654 -0.00212016)
(0.142669 0.000603328 -0.00011983)
(0.097656 -0.000341453 0.000716298)
(0.14281 -0.000349837 0.0012223)
(0.141469 0.00101889 -0.000386166)
(0.142002 0.000710618 0.00010374)
(0.136521 0.00119746 3.68966e-06)
(0.0493426 -0.00235872 -0.00312557)
(0.0566325 -0.000480928 -0.00112295)
(0.140258 0.00146 -0.000399364)
(0.139157 0.00136562 6.51113e-05)
(0.0363969 -0.00324369 -0.00106032)
(0.137054 0.0009873 -0.00110945)
(0.144097 -0.000417706 0.00155785)
(0.141656 -0.00115874 -0.000593763)
(0.140486 -0.00119722 -0.000368698)
(0.120946 -0.000895195 -0.000908103)
(0.0250355 0.00255411 0.00183626)
(0.143921 -0.000110916 0.00114595)
(0.104113 -0.000187659 -0.00215683)
(0.131358 -0.000867798 0.000804334)
(0.101081 -0.000154618 -0.00010413)
(0.0332234 0.00223444 0.000448874)
(0.134543 0.00187168 -0.000470785)
(0.0974735 0.00257852 0.00151289)
(0.132952 -0.00104199 -0.000401872)
(0.13872 -0.00151107 -0.00052106)
(0.132033 -7.12775e-05 -0.000295216)
(0.0200841 0.00195315 -0.0025781)
(0.0260604 -0.00183039 -0.00275125)
(0.133828 -0.00216672 -0.000183355)
(0.132211 0.000783631 0.000399109)
(0.138783 0.00119176 0.000552281)
(0.130719 0.00170386 -0.000466191)
(0.0973478 -0.000902562 0.00144429)
(0.1355 -0.00168318 -0.000264617)
(0.13923 0.000164427 -0.000627003)
(0.0229759 0.00221786 0.000408029)
(0.133642 -0.00205448 -0.000204827)
(0.13151 -0.00896733 0.000616493)
(0.0424248 -0.00221421 0.00241822)
(0.0589571 -0.00428103 0.000780837)
(0.137365 -0.000563599 -0.00126097)
(0.135053 -0.00103364 -0.000215568)
(0.131052 0.000686451 -0.000775526)
(0.126264 0.000273959 0.000347215)
(0.111116 -0.00362155 0.000415635)
(0.139734 0.000376221 -0.000150126)
(0.102031 0.00171455 -0.00158612)
(0.144328 0.00112709 -0.000165997)
(0.135696 -0.00138598 -0.000667801)
(0.139497 -0.00206526 0.00143347)
(0.136737 -0.00116887 -0.000163608)
(0.0452466 -0.000543176 0.00198249)
(0.139786 -0.000863765 0.00012054)
(0.036868 0.000310843 -0.00239524)
(0.0938712 -0.00873162 0.00515236)
(0.0660907 0.00106599 0.00173078)
(0.123365 -0.00114914 -0.00972913)
(0.129265 -0.00135019 0.000722318)
(0.116377 -0.0171098 -0.00356618)
(0.13659 0.00018474 0.000303506)
(0.143773 0.000225183 0.000497542)
(0.137879 0.000517697 0.000423205)
(0.136486 0.000318692 0.0011381)
(0.0385577 0.000354495 -0.00161389)
(0.100935 -0.00397554 -0.00275088)
(0.111663 -0.00139879 -0.0159525)
(0.136683 -0.000170492 0.000540547)
(0.116217 -0.0028156 -0.000387002)
(0.132541 -0.00771402 -0.00218866)
(0.136728 0.000232306 0.00133307)
(0.115091 0.000271604 0.000196243)
(0.0391717 -0.00130193 0.00198669)
(0.0597274 -0.00243331 0.00264367)
(0.0258552 0.00107878 -0.00141642)
(0.0279847 0.000448815 -0.00190919)
(0.0391536 -5.13402e-05 0.000164729)
(0.132078 -0.00312637 0.00296683)
(0.131275 0.00108996 6.20478e-05)
(0.0278586 -0.00148002 0.00389424)
(0.0263433 0.00238859 0.00309996)
(0.138244 0.00115248 -0.000155758)
(0.0955847 -0.0117401 0.00797024)
(0.0412716 0.00251674 0.0011194)
(0.136129 0.000157711 5.14522e-05)
(0.11066 -0.000922887 -0.00187541)
(0.129519 -0.000185077 0.000854637)
(0.0467504 0.00319938 -0.00237329)
(0.0582382 0.000876098 -0.000237535)
(0.115222 -0.000655915 0.000383321)
(0.13764 0.000318571 0.000227681)
(0.136341 0.000542231 -0.000191614)
(0.0417195 0.00384338 -0.00257266)
(0.0259262 -0.00243825 0.00140431)
(0.106086 -0.0152725 -0.0109794)
(0.0290691 -0.0049364 -0.000401191)
(0.129968 -0.0011033 -0.00170452)
(0.030386 0.00281508 -0.00525178)
(0.112539 -0.000899987 0.00260096)
(0.137222 -8.691e-05 -0.000217425)
(0.144855 -0.00118813 0.000569397)
(0.049211 0.0008926 -0.00275182)
(0.104005 -0.000846426 -0.0012864)
(0.0389857 0.00160694 -0.0013168)
(0.030973 0.00397121 -0.00120937)
(0.137401 -0.000316309 -0.000852965)
(0.0224571 -0.0021662 -0.00338141)
(0.136166 -0.00202034 0.000498569)
(0.0524527 -0.000569822 -0.00295156)
(0.136996 -0.000726552 3.71349e-05)
(0.132848 -0.000294155 0.000179683)
(0.0244706 -0.000875867 0.00451275)
(0.0637494 -0.00325062 0.000709129)
(0.133418 0.000108898 0.000359825)
(0.037194 -0.00255053 -0.000850619)
(0.133389 -0.000427543 -7.83774e-05)
(0.0596946 -0.00307503 0.00427268)
(0.113788 0.000576984 -7.30103e-05)
(0.138167 0.000281628 -0.00113995)
(0.0409278 0.00209646 0.00169436)
(0.0261923 0.00171812 -0.00450565)
(0.0562863 2.59457e-05 0.000186736)
(0.110077 0.0175568 0.00377269)
(0.111816 0.000170243 -0.00103689)
(0.0618118 -0.00226962 0.00329055)
(0.0925618 0.000149049 0.00149162)
(0.0337676 -0.00170844 0.000721246)
(0.137774 0.000431036 -0.00116438)
(0.024203 -7.54217e-05 -0.000999592)
(0.141665 -0.00192044 0.000146716)
(0.135619 -0.00104992 -9.20356e-05)
(0.139496 -0.000375235 5.14116e-05)
(0.0219083 0.00252953 0.000475667)
(0.138438 -0.00116197 -1.66705e-05)
(0.0918145 0.000227825 -0.000578719)
(0.1396 0.00061433 0.000689853)
(0.0595112 1.32045e-05 -0.000192767)
(0.107709 -0.0132019 0.00675559)
(0.140623 -0.00140412 2.84311e-05)
(0.04383 0.00235309 -0.00151648)
(0.13801 -0.000544755 -0.000331729)
(0.108741 0.00215296 -0.0205746)
(0.119128 0.000214851 -0.00011239)
(0.0364364 0.000519612 -0.00278516)
(0.0577068 -0.000412031 -0.00270473)
(0.138165 -7.47551e-05 0.000499055)
(0.129806 0.00122182 -0.000288914)
(0.0357907 0.00150559 0.000263233)
(0.11294 0.000875116 -0.000369561)
(0.066178 -0.00233827 -0.00259505)
(0.0287028 -0.00310942 0.00183136)
(0.138948 -3.33077e-05 0.000223542)
(0.103037 -0.00132158 0.0107903)
(0.130484 0.00171637 -0.00212443)
(0.138932 -0.00015005 0.000424177)
(0.139028 6.60381e-05 0.000625407)
(0.136573 0.000250332 -0.000591412)
(0.131193 0.000817963 0.00200905)
(0.0481926 0.00231225 0.000590265)
(0.0429477 -0.002644 -0.00282733)
(0.142802 0.00165838 -0.00020203)
(0.107128 -0.00935802 0.00925396)
(0.122146 -0.000420464 0.000338661)
(0.128238 -0.00101455 -0.000258946)
(0.0874187 0.00182732 0.000388587)
(0.136885 0.000162291 -3.62468e-05)
(0.13852 0.00106955 -1.75296e-05)
(0.103505 -0.000813638 -0.00297009)
(0.108623 0.00275908 -0.000343294)
(0.0439929 0.000548449 -0.00323353)
(0.0771309 0.00196617 -0.0013237)
(0.0489337 -0.00388505 -0.00756453)
(0.136316 0.000613809 0.000443739)
(0.139528 -0.000801162 0.00137279)
(0.100021 0.00104261 -0.00236962)
(0.104131 0.000826324 -0.000560605)
(0.0230398 0.00284858 -0.00105884)
(0.0863203 0.000186962 -0.00020236)
(0.064809 -0.00323363 -0.00319608)
(0.138661 0.000246946 -0.000690193)
(0.139078 -0.000132148 -0.00123058)
(0.104577 -0.00988186 0.00634134)
(0.136617 0.000336469 0.00137786)
(0.0888471 -0.00311765 -0.00112917)
(0.101616 -0.00253087 0.00820498)
(0.12829 0.00101018 0.00159528)
(0.0303329 -0.00282799 -0.000656665)
(0.138758 0.000348791 -0.0012792)
(0.0538283 0.0023201 0.000332108)
(0.130811 -0.000277682 0.000674605)
(0.0321479 0.00488503 0.000213228)
(0.14096 0.00202163 -0.000499171)
(0.101526 -0.00468392 0.00296179)
(0.137682 -0.000206599 0.000152223)
(0.120283 0.00168229 0.000172212)
(0.132565 -0.000162886 -0.000229233)
(0.137471 0.000157711 -0.000123965)
(0.13732 -0.00140082 -0.000711018)
(0.036881 -0.0022388 0.000419489)
(0.0540297 0.000830179 -0.000852823)
(0.0324041 -0.0011127 -0.000579408)
(0.137674 0.000181128 0.000454771)
(0.135395 -0.000282897 -0.0007787)
(0.128544 0.00121194 -0.000862003)
(0.141352 -0.000303221 0.00136548)
(0.0252903 0.000562144 0.000432653)
(0.103993 0.000390614 -0.000314379)
(0.0954342 0.00103241 -0.00135826)
(0.138913 -0.000297265 0.000332066)
(0.125508 -0.000698657 -0.000647391)
(0.13158 -0.000355881 0.000347534)
(0.109684 -0.000182003 0.00182539)
(0.13804 0.000103245 0.000536707)
(0.0234501 -0.00332363 -0.00352177)
(0.0924394 -0.00308901 0.000747476)
(0.133556 0.000140056 0.000471578)
(0.0294329 -0.00255648 0.00176912)
(0.0475256 -0.00134311 -0.00170408)
(0.0668163 -0.00124484 0.000855624)
(0.0251716 0.00215236 -0.00282064)
(0.100063 0.000802035 -0.00118986)
(0.137437 0.00141776 -0.000559295)
(0.0676759 -0.0013807 -0.00195355)
(0.0225156 -0.00325999 -0.00245173)
(0.111539 0.000165851 -0.00046651)
(0.0284021 0.000600005 0.00057011)
(0.103328 0.00162304 -0.00051798)
(0.137248 0.000126482 -0.000380565)
(0.137168 4.07228e-06 -0.000100798)
(0.137902 0.000678324 -0.000629506)
(0.139698 0.00213329 -0.000354674)
(0.137122 0.000183996 -0.00054405)
(0.131828 0.00011632 0.00131763)
(0.0536817 0.00135091 -0.00177095)
(0.136796 0.000691423 0.000186079)
(0.125747 -0.000265474 0.00094597)
(0.0941298 0.00117544 -0.00141277)
(0.0986595 -2.10006e-05 0.00195604)
(0.13638 4.53725e-05 -0.00051404)
(0.118412 -0.00138741 0.000102909)
(0.0728353 -0.000757066 0.00224714)
(0.137557 -0.00159332 0.00074172)
(0.0360959 0.00114924 0.000851939)
(0.0942549 -0.000399449 0.00150997)
(0.101918 0.000176971 -0.000320719)
(0.0667852 0.000560408 0.00170467)
(0.138647 0.000131694 -0.000287338)
(0.105242 -0.0117374 0.0134344)
(0.124677 0.00454909 0.00320808)
(0.0368868 0.000519506 -0.00295191)
(0.0305962 -0.000982284 0.00102432)
(0.0615806 0.00280973 -0.0011399)
(0.023054 -0.00231349 -0.00173816)
(0.125957 0.000812217 -0.000265492)
(0.131807 0.00195889 -0.000202901)
(0.127024 0.000990751 -7.86088e-05)
(0.10953 0.00892267 -0.00961535)
(0.124586 0.00100769 -2.25429e-05)
(0.130004 0.00197387 -8.53298e-05)
(0.0283763 -0.00119456 0.00676185)
(0.132238 0.00204508 -7.64884e-05)
(0.122645 -0.00203304 0.0102103)
(0.047508 0.00131446 -0.00153526)
(0.0256062 -0.00516736 0.00109395)
(0.116971 -0.00026992 0.00144597)
(0.115213 -0.00045536 -0.000675822)
(0.0295146 -0.00243014 0.0033365)
(0.140856 -0.00145998 -5.87177e-05)
(0.0271334 -0.00426021 0.00246154)
(0.137936 -0.000398691 -0.000743187)
(0.13607 -0.000169546 0.000985641)
(0.118073 -0.00185669 0.00167451)
(0.137648 0.00154005 0.000142971)