/*--------------------------------*- C++ -*----------------------------------*\
| =========                 |                                                 |
| \\      /  F ield         | OpenFOAM: The Open Source CFD Toolbox           |
|  \\    /   O peration     | Version:  2406                                  |
|   \\  /    A nd           | Website:  www.openfoam.com                      |
|    \\/     M anipulation  |                                                 |
\*---------------------------------------------------------------------------*/
FoamFile
{
    version     2.0;
    format      ascii;
    arch        "LSB;label=32;scalar=64";
    class       volVectorField;
    location    "18";
    object      U:Transformed;
}
// * * * * * * * * * * * * * * * * * * * * * * * * * * * * * * * * * * * * * //

dimensions      [0 1 -1 0 0 0 0];

internalField   nonuniform List<vector> 
59516
(
(0.000545905 -0.000311164 0.114448)
(-1.29096e-05 0.000142356 0.102725)
(-0.000237459 0.00165026 0.116256)
(-0.00249822 0.00107911 0.12362)
(-0.00395616 -0.000138332 0.112757)
(-0.0103503 0.0055456 0.101081)
(-0.000379362 -0.00126039 0.13067)
(0.00146122 -0.000939369 0.108509)
(-0.000436447 -0.00208109 0.116288)
(0.00321903 0.00141671 0.062258)
(-1.74635e-05 -0.000837048 0.135311)
(-0.00217103 -0.00292785 0.0686935)
(-0.0021361 0.000160815 0.12251)
(0.000307223 -0.000122508 0.0255112)
(-1.87896e-05 -0.00363128 0.0699951)
(-0.00225389 0.00573257 0.0575211)
(2.50075e-05 1.53685e-05 0.141182)
(-0.00427869 -0.00176379 0.0710721)
(-0.00270417 -0.000667196 0.118221)
(-0.00118207 0.000579167 0.14157)
(-0.000596827 0.00068505 0.0614316)
(0.00051452 -0.000747844 0.138221)
(-6.82774e-05 -0.000282714 0.140499)
(0.0019015 0.000277055 0.0399119)
(0.000562683 0.00148603 0.14398)
(-0.00209713 0.00235536 0.0715523)
(-8.30461e-05 0.00222534 0.0489493)
(-0.00291247 -0.00233447 0.0489313)
(-0.00150325 -0.00035267 0.073265)
(0.00258785 0.00272845 0.021607)
(-0.0207983 0.00130031 0.107598)
(-0.00241841 0.00224494 0.0500957)
(-0.000812118 -0.00067804 0.128132)
(-0.00369926 -0.00119075 0.112962)
(-0.000621468 -0.00121548 0.131159)
(0.000702409 2.57108e-05 0.13685)
(-0.00435655 0.00114791 0.0197431)
(-0.00611373 -0.00273064 0.0708776)
(-0.00195921 0.000847774 0.104182)
(0.00277045 -0.00160067 0.139611)
(0.000282217 -0.00121187 0.107171)
(-0.00395478 -0.000781774 0.136883)
(0.000978547 -0.000180845 0.139136)
(-0.0022929 0.00204827 0.111678)
(-1.38354e-05 0.000680949 0.138768)
(0.0037381 9.01749e-05 0.0611677)
(-0.00114697 -0.00136082 0.130971)
(0.000458047 -7.65669e-05 0.141543)
(-0.0149101 0.00183414 0.110898)
(-0.00219369 -0.000582847 0.135336)
(-0.0183647 0.000492546 0.103835)
(-0.00503144 -0.00226533 0.0486421)
(-0.000145511 -0.00121795 0.122261)
(-0.000551261 -0.000739487 0.127447)
(-0.00363502 0.000779213 0.0542444)
(0.000358 0.000594604 0.129692)
(-0.00659337 -0.000175148 0.132605)
(-0.00659491 -0.000996229 0.0548498)
(0.0017256 0.00162862 0.139392)
(-0.00465948 -0.000155634 0.128671)
(0.000496883 0.000579892 0.135304)
(-0.00250336 0.00236834 0.0218268)
(0.00125407 -0.000987999 0.135221)
(0.000759672 0.000368773 0.136705)
(-0.00123557 3.9793e-05 0.127202)
(-0.000764814 0.000104545 0.133205)
(0.00033857 0.00396248 0.033172)
(-0.000791507 0.000451173 0.0470898)
(-0.0217378 0.00107835 0.119538)
(0.000585055 -0.00107498 0.132051)
(-0.00133218 -0.00121999 0.0446961)
(-0.000550977 0.000158644 0.138385)
(0.00498288 -0.00254202 0.0268052)
(0.00128927 0.000117 0.134198)
(-0.00134721 0.000640851 0.1403)
(0.000577465 -0.000379372 0.141254)
(0.000584148 -0.000319534 0.141015)
(-0.00121814 -0.000668081 0.135566)
(0.00346529 0.00173474 0.0522767)
(-0.00222426 0.000508216 0.133763)
(-0.00578651 -0.000477309 0.0437944)
(-0.001291 0.000168787 0.132511)
(-0.00110626 0.000252757 0.130947)
(-0.00387736 0.00226046 0.024455)
(-0.00111845 8.87161e-05 0.133032)
(-0.00113557 0.00055964 0.140188)
(0.000587564 0.00187581 0.0378209)
(-0.000319334 0.00100695 0.138886)
(-0.00502489 -0.00263702 0.0599053)
(-0.00761711 -0.00353631 0.108002)
(-0.00769422 -0.000755335 0.126309)
(-0.00168277 0.000538616 0.126957)
(0.000742378 -0.000278856 0.140847)
(0.000540917 -7.88517e-05 0.126667)
(0.000230285 -0.000967631 0.132918)
(-0.0108217 0.000517112 0.109405)
(-0.00171856 -0.00144294 0.132614)
(0.00264198 0.00451242 0.0600433)
(-0.0014505 -0.00132816 0.0708305)
(0.00111096 0.000167688 0.13528)
(-0.00190922 0.00115295 0.0417103)
(0.00358581 0.00161465 0.0291357)
(0.003894 0.0025452 0.0280392)
(-0.00240689 0.00214863 0.062746)
(0.000391835 -0.00062154 0.129549)
(-0.000602942 0.000646336 0.130206)
(0.00301391 -0.00486061 0.0480954)
(-0.00026329 -0.000309169 0.112147)
(-0.00139315 0.000139873 0.107706)
(-0.00248786 0.00318277 0.073916)
(-0.0157478 -0.000777713 0.122191)
(0.00359584 -0.00358438 0.0358613)
(-0.00299308 0.00269624 0.0744463)
(-0.0172045 -0.000218067 0.116142)
(-0.000774813 0.000606911 0.139508)
(-0.000162954 -0.00113648 0.107459)
(-0.0030419 -0.0015911 0.06022)
(-0.00124201 0.000240868 0.128512)
(0.000380338 -0.00110182 0.0257846)
(-0.00073922 0.0012322 0.133727)
(-0.000531266 -0.000667567 0.140606)
(0.00118291 0.000659184 0.1391)
(-0.000633269 -0.000696315 0.14053)
(0.000558018 0.000721904 0.137555)
(-0.0127589 0.001673 0.129214)
(-0.00203375 -6.96307e-05 0.0950682)
(-0.0025884 -0.000904084 0.0363915)
(-0.00689832 0.00205403 0.134202)
(-0.0125922 0.00323752 0.0895067)
(0.00076035 0.000655244 0.13893)
(0.00173171 -0.000897283 0.138827)
(0.00108549 0.00143461 0.118942)
(-0.000680252 -0.002813 0.0273022)
(0.000548685 0.000469319 0.138662)
(0.000428518 0.000436501 0.110599)
(-0.000954885 0.00150044 0.120204)
(-0.0133728 0.0013963 0.106862)
(0.000838599 0.000858576 0.131526)
(-0.000630401 0.00307898 0.0458083)
(-0.00180807 0.000826503 0.107932)
(-0.0014539 0.00283084 0.0500539)
(0.000221358 0.000401624 0.139672)
(-0.000802522 -0.00203111 0.0219399)
(-0.000771515 0.000539511 0.124469)
(-0.000548665 0.000424277 0.136864)
(-0.00124746 0.000526335 0.133427)
(-3.50488e-05 0.00048111 0.137347)
(-0.0022204 0.00144823 0.122702)
(0.00110806 -0.00178711 0.0619784)
(5.80507e-05 0.000573409 0.114165)
(-0.000766266 -0.000451583 0.113059)
(-8.49528e-05 0.0015759 0.041285)
(0.00127022 0.000749176 0.141643)
(0.001145 -0.000813504 0.137773)
(-0.000202928 -0.00155236 0.0999592)
(-0.00240877 0.00151572 0.0224196)
(0.00068903 -0.000237795 0.118559)
(-0.00100273 0.000161604 0.12111)
(-0.00167629 0.000642861 0.0937673)
(-0.00384302 -0.00298755 0.0236719)
(0.00290903 0.00157696 0.0743281)
(0.00385941 -0.00121781 0.0771376)
(-0.00115936 0.0015074 0.0419151)
(-0.000737028 -0.000636655 0.030837)
(0.00233064 0.000954482 0.106943)
(-0.00113116 0.000228786 0.141774)
(0.00127303 0.000656017 0.0670989)
(-9.23899e-05 -0.000834076 0.139137)
(0.00121553 0.00317142 0.0246841)
(-0.000291982 -0.000171147 0.124008)
(-0.00179472 -0.00137026 0.0939354)
(-0.00122283 0.000860243 0.0605211)
(-0.00020001 -0.00171134 0.0728799)
(0.00039051 -0.000796096 0.13072)
(0.000502746 0.00104045 0.057579)
(-0.00072889 -0.00193513 0.132598)
(-0.000675538 -0.00023325 0.137895)
(0.000346403 0.00041188 0.141098)
(0.00188726 -0.00309229 0.0749382)
(0.000355563 0.000562149 0.0468986)
(-0.000206966 -0.00191848 0.136306)
(0.0018151 0.00378522 0.0385083)
(-0.00242733 -0.00257295 0.0345598)
(-0.000273971 0.00236652 0.0722627)
(0.000546141 -0.00116715 0.138776)
(-0.00023871 0.000357532 0.0644739)
(-0.00371732 0.00074991 0.0389406)
(-0.000177462 0.000800097 0.026527)
(-0.000544567 -0.00139451 0.124214)
(0.00056291 0.000523385 0.107912)
(-0.00254977 -0.000485445 0.125893)
(-0.00025914 -0.00356331 0.0582864)
(-0.000715678 0.000156898 0.141037)
(0.00260078 -0.00219499 0.0654696)
(8.00862e-05 0.0015609 0.139814)
(0.00135255 0.000772309 0.0325629)
(0.000903607 -0.000540865 0.0631728)
(0.000963835 -0.00111457 0.046321)
(-0.00376531 0.000159384 0.113625)
(0.000176669 0.000844246 0.138342)
(-0.00122789 -0.00192831 0.086508)
(0.00104908 0.00060628 0.138422)
(0.000374701 0.000419311 0.110172)
(0.00234999 -0.00274548 0.022578)
(0.00129021 0.000983532 0.129689)
(-0.000130874 -0.000196695 0.135831)
(0.000786103 0.000401924 0.13949)
(-0.00095391 0.0012445 0.130384)
(9.99098e-06 -0.000208638 0.0268916)
(0.000631409 0.00108845 0.118736)
(0.000469719 0.00570328 0.0556047)
(-0.00403517 0.00106374 0.0271418)
(-0.00151016 0.00101057 0.137278)
(-0.00042151 0.000896593 0.062031)
(-0.000780255 -0.000564672 0.121591)
(-0.00154014 -0.000276213 0.139638)
(-0.000703418 -2.02218e-05 0.133217)
(-0.000388666 0.000215839 0.140856)
(-0.00292694 0.00267598 0.0604037)
(0.000608303 0.000203685 0.141252)
(-0.00183506 -0.00268285 0.0635887)
(0.000171444 0.000923973 0.109345)
(-0.000696377 -0.001123 0.136322)
(0.00094142 -0.000579112 0.046325)
(-0.00166174 -0.000916171 0.135779)
(-2.24983e-05 0.000911356 0.137954)
(-0.000540272 -0.00099779 0.0319207)
(-0.00391901 0.000232582 0.0540737)
(-0.00181234 0.000798175 0.137081)
(-0.00279426 0.00347896 0.0598206)
(0.000167129 0.000978946 0.142233)
(-0.00101444 0.000271714 0.138339)
(-0.000326917 -0.000969068 0.135846)
(-0.00204265 -0.00283824 0.0279169)
(-0.00250906 -0.00168981 0.0370869)
(-0.00155355 0.000545029 0.0404599)
(0.00148513 -0.000445001 0.0712511)
(-0.00224973 -0.000872623 0.101599)
(-0.000609844 -0.000978663 0.135606)
(0.00324026 0.000194167 0.063322)
(0.0013699 0.000288483 0.137554)
(0.00352424 0.00249671 0.0240016)
(0.000243943 0.000525291 0.059171)
(0.00293056 0.00123855 0.0293167)
(0.000689368 0.000728129 0.13771)
(0.000114152 -0.000853843 0.103614)
(-0.000298459 -0.000666731 0.133849)
(0.000629272 0.00236172 0.0723614)
(0.00096156 0.00100667 0.141867)
(-0.000267397 0.000346186 0.111623)
(0.00220489 -0.00127134 0.141374)
(-0.000667519 0.000131379 0.132423)
(0.00112041 0.00111614 0.136809)
(0.000140115 0.000201455 0.13243)
(-0.000234735 0.000702207 0.135138)
(-0.000354993 0.000254452 0.138724)
(-0.00114711 -0.000529121 0.0611298)
(-0.000657119 -0.00122118 0.13569)
(0.00171136 0.0025768 0.0481047)
(-0.000335628 0.00215418 0.0664547)
(-0.000776177 -0.000118894 0.128601)
(-0.000556435 0.00124136 0.137919)
(0.00150024 0.00118136 0.120637)
(-0.000752188 0.00152086 0.139878)
(0.00230307 0.00123468 0.105905)
(0.000165991 -0.00380534 0.0625722)
(0.00102457 -0.000128605 0.139382)
(-0.000309543 0.00130153 0.100937)
(-0.000312465 -0.000316442 0.0528673)
(0.000547152 0.00110052 0.0590921)
(-0.00249482 0.00190589 0.105351)
(-0.000576477 -0.000653876 0.136991)
(-0.000602563 0.00178476 0.105715)
(-1.79224e-05 0.00159211 0.101535)
(-0.00165673 0.00107815 0.138771)
(-0.000115507 0.00336249 0.100661)
(-0.00157268 -0.00377038 0.0250887)
(3.90675e-05 0.00123171 0.140706)
(0.0025997 -0.0021611 0.0302696)
(0.00303562 0.00118915 0.0460544)
(0.000107668 -0.00119072 0.135154)
(0.000382723 0.00103764 0.132435)
(-0.0045487 0.00214371 0.028458)
(-0.0013285 -0.000199508 0.124878)
(-0.00112779 -0.00164682 0.128492)
(0.000744146 2.70076e-05 0.138455)
(8.33308e-06 -0.000323998 0.137301)
(0.00274801 -0.00297811 0.029116)
(-0.00197459 -0.000196222 0.135434)
(-0.00059468 -0.00195333 0.134115)
(0.000301531 -0.0011576 0.136464)
(-0.00060879 -0.00177227 0.129479)
(-0.00166422 0.000221739 0.12667)
(-0.000498052 0.000379295 0.101105)
(-6.20751e-05 -0.000273419 0.14284)
(-0.000618014 0.00248445 0.03168)
(0.00137702 -0.00149802 0.134429)
(0.000961681 0.00027665 0.136251)
(-0.000431015 -0.00160282 0.137486)
(0.0001158 -0.00167685 0.133358)
(0.000360144 0.000273467 0.120731)
(0.00200633 -0.000587338 0.0658054)
(-0.00045172 -0.00156042 0.0264457)
(0.00121677 0.000494767 0.0327843)
(-0.000855779 0.0013959 0.142853)
(-0.00443016 0.00208327 0.0246952)
(-0.00099866 -0.00150975 0.0691773)
(-0.00117618 0.0037613 0.0577833)
(0.000988366 8.69855e-06 0.139703)
(7.41989e-05 -0.000711608 0.142624)
(0.000847448 0.000423004 0.141221)
(0.00182018 0.000239447 0.0654389)
(0.00171977 0.000277685 0.105791)
(-0.000491443 0.00525541 0.0455622)
(0.000877746 -0.00185021 0.0623874)
(0.000622602 -0.00165072 0.132393)
(0.00133627 -0.00223097 0.106121)
(-0.0133333 -0.00178439 0.107483)
(-0.000665937 -0.00215953 0.0954554)
(-0.00130955 -0.00017426 0.0484833)
(0.00219751 0.000228646 0.0708265)
(-0.000287559 -0.000619767 0.11323)
(0.000177466 0.000331559 0.139992)
(-0.00188723 0.000231412 0.140348)
(-0.000703008 0.00134187 0.139523)
(0.000199728 0.00199067 0.140564)
(-0.00277003 -0.00192703 0.0999521)
(-0.00101855 0.00123698 0.123466)
(-0.000148399 0.00138764 0.134619)
(-0.000618454 -0.00110598 0.139254)
(0.000494951 -0.000163456 0.139775)
(-0.00235777 -0.00207831 0.0654949)
(0.003026 -0.00146133 0.0263983)
(-0.000215851 -0.000881757 0.136304)
(0.0014082 0.00288656 0.0449771)
(-0.000305545 -0.000416665 0.0376956)
(-0.000848148 -0.00108019 0.136182)
(0.00077551 0.00033146 0.1344)
(-0.00104491 0.00274646 0.065349)
(-0.000799104 -0.000107885 0.13853)
(2.96747e-05 0.00120974 0.140259)
(-0.000647837 -0.000764629 0.138013)
(0.000874002 -0.000726848 0.140305)
(0.00081841 -0.0019377 0.035986)
(0.000486627 -0.000489348 0.141009)
(-0.000391609 0.000197373 0.137013)
(-0.000188687 0.000903168 0.063219)
(0.000697842 -0.00116356 0.137215)
(0.000675729 0.000495641 0.138257)
(0.00138842 0.00120914 0.128736)
(0.00024587 0.000196464 0.12272)
(0.000138741 -0.000272399 0.134136)
(0.000707947 0.00156733 0.133912)
(-0.000720543 0.00119482 0.0785617)
(-0.000409925 0.00126402 0.0367394)
(0.00180743 0.00389526 0.0388214)
(-9.78247e-05 0.00131429 0.102564)
(-0.0110767 0.000827919 0.0858066)
(-0.00674402 0.00067093 0.0744453)
(-0.000167996 0.000222392 0.0909863)
(0.00068728 -0.0013517 0.117783)
(-0.000407605 7.81151e-05 0.131446)
(-0.000805519 0.000976636 0.13513)
(0.0007897 -0.000996381 0.142763)
(0.000161753 -0.000495792 0.130879)
(-0.000737456 -8.99757e-05 0.134953)
(-0.00129999 0.000383 0.133908)
(-0.000636147 0.001623 0.038413)
(-0.0215549 0.00103532 0.112969)
(0.000475036 0.0027278 0.0668576)
(-0.00210532 0.00231894 0.0469101)
(0.0027607 -8.13035e-05 0.0473006)
(-0.000198282 -0.00138421 0.139199)
(-0.000492574 -0.00025557 0.102313)
(-0.000548582 -0.000266355 0.14038)
(-0.00180249 0.00187969 0.0240023)
(0.000450873 0.000414822 0.126174)
(0.00179269 -0.00118226 0.0534799)
(-0.000546828 0.000982818 0.138933)
(-0.000451091 0.00146605 0.0553001)
(0.00126174 0.000164056 0.0710024)
(0.00130502 0.00153489 0.113094)
(-0.000110621 0.00103867 0.134336)
(0.00367951 0.000122038 0.0241637)
(-0.000121289 0.00342288 0.0613986)
(-0.000531855 -7.39541e-05 0.128385)
(-7.4907e-05 -0.00282413 0.0273957)
(-0.00416595 -4.56664e-06 0.126118)
(0.000451823 -0.00169403 0.118352)
(0.00105973 -0.000554697 0.129175)
(0.0026001 -0.000787489 0.10223)
(0.00188537 0.000640715 0.095416)
(0.000777094 -0.000933746 0.14332)
(-0.00921942 -0.00330847 0.0772121)
(-0.00208931 -0.000674599 0.139218)
(-0.010256 0.000485932 0.109267)
(-0.000616869 0.000699267 0.0674557)
(-0.000429356 0.00255451 0.070888)
(-0.000194834 -0.000588326 0.140235)
(0.000543558 -0.00154559 0.143234)
(0.000572538 0.00044113 0.0598521)
(0.000235363 -0.00109801 0.133326)
(-0.00179573 0.0014014 0.105975)
(0.000964367 -7.22273e-05 0.1397)
(0.00101317 -0.000254254 0.139145)
(-0.00110868 -0.00389859 0.0507712)
(-0.000408799 0.000317886 0.128498)
(0.00135677 0.000712314 0.136849)
(0.000104884 -3.83346e-06 0.13784)
(-9.90668e-05 0.000171517 0.141018)
(0.00429647 -0.00165754 0.0246364)
(-0.00387107 -0.00135377 0.0244509)
(-0.000144001 0.00120629 0.124143)
(0.000364757 -0.000193119 0.139482)
(7.9319e-05 0.00111977 0.139211)
(-0.00254852 0.00137559 0.0412792)
(1.99764e-06 5.01161e-05 0.136468)
(-0.000689808 0.00199563 0.114522)
(-0.00132806 0.000408454 0.13378)
(0.00131892 8.87853e-05 0.141885)
(0.000368947 -0.00043118 0.139855)
(-0.000199146 -0.00185686 0.140535)
(0.000113185 -0.00192464 0.141165)
(-3.02215e-05 -0.000345242 0.098851)
(-0.00171841 0.000163373 0.137768)
(-0.0028183 0.0025869 0.0639397)
(0.00078578 0.00142797 0.139279)
(0.00026764 -0.00178047 0.114025)
(-0.00100274 0.000942215 0.133851)
(5.04233e-05 -7.21285e-05 0.138322)
(-0.000355059 -0.00126939 0.138152)
(0.000542427 0.00122587 0.134045)
(0.00228061 0.00301205 0.0466381)
(0.00138812 0.00066521 0.038152)
(-0.00239124 -0.00303956 0.0259566)
(-0.00285954 0.000159858 0.133968)
(-5.87331e-06 -1.88922e-05 0.141875)
(-0.00058326 0.000491881 0.130165)
(-0.000151004 -0.00253608 0.126662)
(0.0015456 -0.000606542 0.0355086)
(-3.34169e-05 -0.00348402 0.0280777)
(-0.00129015 -0.00203677 0.118199)
(-0.000137196 0.00142409 0.134355)
(-0.00115641 0.000562054 0.139069)
(0.00109651 -0.00098347 0.141213)
(-0.000912699 -0.000988247 0.134581)
(-0.00106044 0.00122936 0.139048)
(0.000529032 -0.000842663 0.132442)
(-0.000953107 0.00287427 0.0313001)
(-0.000490921 0.000931987 0.124011)
(0.00254706 -0.00148753 0.0647856)
(-0.00667622 -0.000789669 0.0701256)
(0.000975167 -0.000373787 0.134932)
(-0.000705599 0.00266931 0.103387)
(0.000969323 -0.000555904 0.136163)
(-0.00481519 0.00262076 0.0245224)
(0.00216255 -0.000992924 0.143627)
(-0.000137394 4.8296e-05 0.140891)
(-0.00137455 0.000498988 0.136943)
(0.00118771 -0.000946367 0.0998655)
(-0.000365027 -0.000482205 0.134054)
(-0.00146466 0.000159058 0.135925)
(-0.000623303 -0.000122602 0.119105)
(-0.000245219 -0.000151923 0.13634)
(-0.00380011 -0.00075583 0.103733)
(0.000291805 0.00104754 0.140517)
(-0.00164717 1.56463e-05 0.136339)
(0.00109983 -0.001006 0.024081)
(-0.000725707 0.001064 0.139789)
(0.000855654 0.00119009 0.11583)
(-0.00417106 -0.00308055 0.0517926)
(-0.000727761 0.000922535 0.100977)
(0.00028481 0.000897672 0.138297)
(1.9173e-05 6.73509e-05 0.127494)
(0.000695547 0.00243211 0.0928743)
(-0.00328273 0.00195122 0.0237189)
(-0.000602947 0.000503851 0.139965)
(-0.00061956 0.00257578 0.123098)
(-0.000192621 5.65637e-05 0.140255)
(-0.000454402 0.000299084 0.124057)
(-0.00378573 0.000564879 0.0410232)
(0.000865785 -0.00011759 0.130533)
(-0.00416956 -0.000284802 0.0294968)
(-0.000361302 0.00010301 0.137958)
(-0.0120446 0.00047654 0.102183)
(-0.000640002 -2.3519e-05 0.138637)
(-0.000599682 0.00179702 0.0600326)
(-0.00213669 0.000571482 0.111992)
(-0.00130234 0.00162754 0.103012)
(0.00280066 -0.00261875 0.0401307)
(0.00116435 -7.3381e-05 0.134233)
(-0.00101525 0.00155291 0.132689)
(-0.00179894 -0.00105131 0.0262385)
(0.00121816 -0.00114995 0.135254)
(-0.000113873 -0.00234882 0.13446)
(-0.000837326 0.00226186 0.0427711)
(0.00162106 0.00299864 0.0682251)
(-0.00264583 0.0022861 0.0578157)
(-0.000345818 0.00114128 0.135312)
(0.00169022 -3.45414e-05 0.136287)
(-0.00112782 0.0012296 0.0357573)
(0.00319618 9.18313e-05 0.0609078)
(0.000281578 0.000595465 0.063246)
(0.00128941 0.000179044 0.117391)
(0.00169945 -0.000669704 0.135919)
(-0.00396497 -0.0025651 0.0264596)
(0.000961353 0.000936952 0.140301)
(-0.000571333 -0.00013176 0.138076)
(-0.00142625 -6.5962e-05 0.135957)
(-0.00233367 -0.00484029 0.0900748)
(0.000346539 -0.000126893 0.143428)
(0.00162017 -0.00319729 0.0257491)
(-0.00155379 0.000253717 0.141171)
(0.000439837 -0.000516493 0.0317833)
(0.00132702 -0.00312195 0.0670604)
(0.000313727 -0.000187737 0.136586)
(-0.00119983 0.00154563 0.0663145)
(-0.00319347 0.00235276 0.0243126)
(0.000998983 -0.00133325 0.0433697)
(-0.000820585 0.00253788 0.051816)
(0.00128834 -0.00235258 0.0666641)
(0.000182327 0.00103972 0.137859)
(-0.00105736 0.00149797 0.0563044)
(0.00168773 -0.00245127 0.06587)
(-0.0117928 -0.000516183 0.124624)
(-0.00149001 0.000844998 0.134183)
(0.00269007 -0.000417322 0.0273649)
(0.000606174 0.00138569 0.111257)
(-0.00709421 -0.00468194 0.0806906)
(0.00104115 2.20561e-05 0.140206)
(-0.00134289 0.000651796 0.0671903)
(-0.00112488 0.00165767 0.13361)
(0.00229008 0.00224347 0.065265)
(-0.000841645 0.000770554 0.120878)
(-0.000997714 -0.0011432 0.136738)
(0.00389892 -0.00506481 0.0570352)
(0.000805183 7.62591e-05 0.140683)
(-0.00213533 -0.00127539 0.0501195)
(0.00329217 -0.00250642 0.02317)
(-0.000395095 -0.00116223 0.132941)
(-0.000232691 -0.00160148 0.136071)
(-0.000775613 0.000703808 0.126815)
(0.00189715 -0.0018194 0.124545)
(0.00136953 -3.6408e-05 0.138711)
(0.00105416 -0.000490274 0.0672604)
(0.00131604 -1.05848e-05 0.140271)
(0.00158719 0.0031488 0.064781)
(-0.00128782 -0.00102344 0.136933)
(0.000901789 0.000218299 0.123911)
(-0.00457479 -0.00321324 0.0314805)
(-0.000251607 0.000589206 0.140603)
(0.000170297 -0.00237919 0.0587715)
(0.00227743 0.00293384 0.0310583)
(0.000251539 0.000242625 0.141066)
(-0.00205874 0.000543165 0.0475563)
(-0.000753952 0.000460862 0.129205)
(0.000383744 0.000219307 0.134557)
(-0.00100448 0.0012514 0.126411)
(0.00189153 0.00446921 0.0605993)
(0.000539839 -0.000294852 0.142669)
(0.000783478 -0.00012584 0.097656)
(-0.00122801 0.000329241 0.14281)
(0.000978813 0.000478732 0.141469)
(0.000693568 0.000186288 0.142002)
(0.000226966 -0.00117576 0.136521)
(0.00386942 -0.000600299 0.0493426)
(0.00121582 -0.000118731 0.0566325)
(-0.00127855 0.000810185 0.140258)
(-0.0012537 -0.000545343 0.139157)
(0.00107741 0.00323805 0.0363969)
(-0.00146952 -0.000214801 0.137054)
(-0.000770254 0.00141707 0.144097)
(0.00052747 0.00119038 0.141656)
(0.000683009 0.00105013 0.140486)
(-0.000463446 0.00118796 0.120946)
(-0.00159355 0.00271218 0.0250355)
(-0.000440218 0.00106382 0.143921)
(0.0019304 -0.000980144 0.104113)
(-0.000903256 -0.0007643 0.131358)
(0.000184542 -2.63473e-05 0.101081)
(-0.00155111 -0.0016698 0.0332234)
(-0.00094749 0.0016814 0.134543)
(-0.00118205 0.00274597 0.0974735)
(0.00104754 0.000387182 0.132952)
(0.000578359 0.00149008 0.13872)
(-0.000302143 -3.07046e-05 0.132033)
(0.00199177 0.00254839 0.0200841)
(-0.00296146 0.00146612 0.0260604)
(-0.000141699 -0.00216984 0.133828)
(-0.000725138 0.000497534 0.132211)
(-0.000104429 0.00130935 0.138783)
(-0.00032626 0.0017361 0.130719)
(0.000651948 0.00157339 0.0973478)
(-7.48799e-05 0.00170221 0.1355)
(0.000301112 -0.000574021 0.13923)
(0.000996088 0.00202316 0.0229759)
(0.000236864 -0.00205104 0.133642)
(-0.00887852 0.00140181 0.13151)
(-0.00148395 0.00292376 0.0424248)
(-0.000764493 0.00428398 0.0589571)
(-0.000301778 0.00134782 0.137365)
(0.00098945 0.0003686 0.135053)
(-0.000156488 -0.0010238 0.131052)
(-0.000222882 -0.000382016 0.126264)
(-0.00332007 0.00150516 0.111116)
(-0.000167879 -0.000368642 0.139734)
(0.0015776 -0.0017224 0.102031)
(0.000974548 -0.000590028 0.144328)
(0.000270272 -0.00151454 0.135696)
(0.00197664 -0.00155339 0.139497)
(0.0010452 -0.000548256 0.136737)
(0.0015491 0.00135116 0.0452466)
(0.000871849 2.23484e-05 0.139786)
(-0.0015648 -0.00183989 0.036868)
(-0.0100464 -0.00136287 0.0938712)
(0.00195936 -0.000541183 0.0660907)
(-0.00976612 -0.000774153 0.123365)
(0.00132891 -0.000760756 0.129265)
(-0.0174654 0.000649202 0.116377)
(-0.00033945 -0.000104969 0.13659)
(0.000342071 0.000425727 0.143773)
(-0.000554895 -0.000373101 0.137879)
(0.00111781 0.000383842 0.136486)
(-0.00164487 -0.000157168 0.0385577)
(-0.00483383 7.97996e-05 0.100935)
(-0.0160077 0.000437793 0.111663)
(0.000200939 -0.000529983 0.136683)
(-0.000583471 0.00278153 0.116217)
(-0.00795411 0.00101415 0.132541)
(-0.000824033 0.00107332 0.136728)
(0.000201882 0.000267439 0.115091)
(-0.0021373 -0.00103629 0.0391717)
(0.0026154 0.00246367 0.0597274)
(-0.00132983 -0.00118387 0.0258552)
(0.00125838 0.0015043 0.0279847)
(-0.000171098 2.22873e-05 0.0391536)
(-0.00416003 0.00112711 0.132078)
(-0.000111478 0.00108602 0.131275)
(-0.00240611 -0.00340091 0.0278586)
(-0.00368285 0.00132355 0.0263433)
(0.000830071 0.000814533 0.138244)
(-0.0138604 0.00304023 0.0955847)
(-0.00275402 4.92253e-05 0.0412716)
(1.13419e-05 -0.000165504 0.136129)
(-0.00197571 0.000682253 0.11066)
(0.000871462 7.21946e-05 0.129519)
(0.00262533 0.00299602 0.0467504)
(-0.000484613 -0.000767543 0.0582382)
(0.000459698 0.000604845 0.115222)
(-0.000305017 0.000245542 0.13764)
(-0.000353134 0.000453901 0.136341)
(-0.00168232 0.00430812 0.0417195)
(-0.000715986 -0.00272113 0.0259262)
(-0.0188033 0.000485093 0.106086)
(-0.004328 0.00240779 0.0290691)
(-0.000361288 0.00199803 0.129968)
(-0.00553341 -0.00221072 0.030386)
(0.000363793 0.00272812 0.112539)
(-4.82561e-05 -0.000229125 0.137222)
(0.000709316 0.00111028 0.144855)
(-0.00192031 -0.00216372 0.049211)
(0.00101366 -0.0011592 0.104005)
(-0.00198707 -0.000606456 0.0389857)
(-0.0041233 -0.000481082 0.030973)
(0.000174905 -0.000892753 0.137401)
(-0.00362555 0.00172677 0.0224571)
(0.00157716 -0.00135753 0.136166)
(-0.00214363 -0.00210743 0.0524527)
(2.46986e-05 0.000727081 0.136996)
(0.000148228 0.000311194 0.132848)
(0.00421595 0.00183242 0.0244706)
(-0.0016131 -0.00290987 0.0637494)
(-0.000110459 0.000359349 0.133418)
(-0.0011374 0.0024362 0.037194)
(8.76057e-05 -0.000425748 0.133389)
(-0.00202868 0.00485757 0.0596946)
(0.000539104 0.000218193 0.113788)
(-0.000155466 0.00116389 0.138167)
(0.00269107 0.000155417 0.0409278)
(-0.00467413 -0.00118546 0.0261923)
(0.000108208 -0.000154384 0.0562863)
(-0.0179573 9.57855e-05 0.110077)
(0.000676477 0.000804056 0.111816)
(0.000715415 0.00393282 0.0618118)
(0.00149904 3.5039e-06 0.0925618)
(0.000335667 0.00182381 0.0337676)
(8.93551e-05 0.00123838 0.137774)
(0.000489009 0.000875068 0.024203)
(-0.000330221 0.00189752 0.141665)
(0.000117278 0.0010474 0.135619)
(0.000190973 0.000327069 0.139496)
(-0.00248491 -0.000670817 0.0219083)
(0.000653995 0.000960599 0.138438)
(0.000244054 0.000572064 0.0918145)
(-3.69395e-05 0.000923003 0.1396)
(-0.00015848 0.000110532 0.0595112)
(-0.0148254 0.000369043 0.107709)
(-0.000993837 0.000992296 0.140623)
(0.00278368 0.000296378 0.04383)
(0.000114818 -0.000627391 0.13801)
(-0.0205632 0.00225878 0.108741)
(-8.6951e-05 -0.000226345 0.119128)
(-0.00171721 -0.00225351 0.0364364)
(-0.00130756 0.00240325 0.0577068)
(0.000467221 0.000190654 0.138165)
(0.000210985 -0.00123765 0.129806)
(-0.000713799 0.00135151 0.0357907)
(0.000341052 -0.000886615 0.11294)
(0.0034085 0.000764128 0.066178)
(-0.00251531 0.00258759 0.0287028)
(0.000225111 2.0132e-05 0.138948)
(-0.0108555 0.000579363 0.103037)
(-0.0010247 -0.00253163 0.130484)
(0.000413531 0.000177294 0.138932)
(0.000615992 0.000126682 0.139028)
(0.000459368 0.000448792 0.136573)
(0.00100474 0.00192246 0.131193)
(0.00230891 0.000603185 0.0481926)
(-0.00084492 0.00377765 0.0429477)
(0.00163619 -0.00033753 0.142802)
(-0.0131599 -0.000159674 0.107128)
(0.000221878 0.00049219 0.122146)
(0.00104536 5.99449e-05 0.128238)
(0.00146693 -0.00115682 0.0874187)
(0.000166108 -7.77357e-06 0.136885)
(-0.00106969 3.65701e-06 0.13852)
(-0.00227721 -0.0020731 0.103505)
(-0.00145894 0.00236682 0.108623)
(-0.00175645 0.00276973 0.0439929)
(-0.00202794 -0.00122698 0.0771309)
(-0.0074133 -0.00416638 0.0489337)
(-0.000607987 -0.000451683 0.136316)
(-0.00100996 -0.00122735 0.139528)
(7.65162e-05 0.00258772 0.100021)
(9.02607e-05 -0.000994456 0.104131)
(0.0012554 -0.00276759 0.0230398)
(0.00027415 -2.73208e-05 0.0863203)
(-0.00431899 -0.00142043 0.064809)
(-0.000726582 9.70952e-05 0.138661)
(0.000370311 0.00118096 0.139078)
(-0.0117216 -0.00068466 0.104577)
(-0.000824649 0.00115398 0.136617)
(-0.000501671 0.00327766 0.0888471)
(-0.00857248 0.000489576 0.101616)
(-0.00158103 -0.00103234 0.12829)
(0.00241271 0.00161479 0.0303329)
(-1.77554e-06 0.0013259 0.138758)
(-0.000760592 0.0022169 0.0538283)
(-0.000673116 -0.000281271 0.130811)
(0.00458179 -0.0017077 0.0321479)
(0.00154577 0.00139526 0.14096)
(-0.00553612 -0.000250426 0.101526)
(-0.000170209 0.000192052 0.137682)
(1.75787e-05 -0.00169099 0.120283)
(-3.6609e-05 -0.000278818 0.132565)
(0.000179739 8.90725e-05 0.137471)
(0.00155428 0.000228145 0.13732)
(0.000660813 0.0021798 0.036881)
(0.000167087 -0.00117838 0.0540297)
(-0.000712222 0.00103274 0.0324041)
(0.000283354 0.000399167 0.137674)
(0.000450728 -0.000695161 0.135395)
(0.00148403 -9.75052e-05 0.128544)
(-0.000551395 0.00128547 0.141352)
(4.55975e-05 -0.000707895 0.0252903)
(-0.000497611 6.16194e-05 0.103993)
(0.00142651 -0.000935855 0.0954342)
(-2.71449e-05 0.000444857 0.138913)
(-0.000803071 -0.000512165 0.125508)
(-0.000427212 0.000254794 0.13158)
(-0.001616 0.000868186 0.109684)
(0.00025241 0.000484771 0.13804)
(-0.00392751 0.00283268 0.0234501)
(0.000654403 0.00311006 0.0924394)
(-1.62244e-05 0.000491668 0.133556)
(-0.000496955 0.00306895 0.0294329)
(0.000959346 0.00194615 0.0475256)
(-0.00139138 -0.000588033 0.0668163)
(-0.00305223 -0.00180903 0.0251716)
(0.00139408 0.000339951 0.100063)
(-0.00134819 0.000710787 0.137437)
(-0.00104176 0.00215346 0.0676759)
(0.00304599 0.00271302 0.0225156)
(-0.000236447 -0.000435007 0.111539)
(0.00081211 -0.000159714 0.0284021)
(-0.000283353 0.00167997 0.103328)
(0.00039912 3.91212e-05 0.137248)
(7.91824e-05 6.25049e-05 0.137168)
(4.0238e-05 0.000924544 0.137902)
(0.00149236 0.00156512 0.139698)
(0.000540214 0.000194971 0.137122)
(-0.000589742 0.00118401 0.131828)
(0.00149306 -0.00165288 0.0536817)
(0.000582091 -0.000416967 0.136796)
(2.6223e-05 -0.000982165 0.125747)
(-0.000234287 -0.00182282 0.0941298)
(-0.00188749 0.000513731 0.0986595)
(0.000513454 -5.15805e-05 0.13638)
(-0.000680085 0.00121366 0.118412)
(0.000545806 0.00230757 0.0728353)
(0.0012727 -0.00121204 0.137557)
(0.00071456 -0.00123934 0.0360959)
(0.000988302 0.00120947 0.0942549)
(-0.000174292 0.000322183 0.101918)
(-0.00137592 0.00115188 0.0667852)
(-0.00016919 -0.000266986 0.138647)
(-0.0178389 0.000146126 0.105242)
(-0.00556651 3.1751e-07 0.124677)
(-0.00049726 0.00295574 0.0368868)
(0.00125185 -0.000668557 0.0305962)
(-0.00050492 0.00298982 0.0615806)
(0.00257733 -0.00131559 0.023054)
(-0.000836879 0.00017267 0.125957)
(-0.000630207 0.00186581 0.131807)
(-0.000411929 0.000904479 0.127024)
(-0.0131028 0.000620221 0.10953)
(-0.000297434 0.000963054 0.124586)
(-0.000454094 0.00192282 0.130004)
(0.00637009 0.00256349 0.0283763)
(-0.000878527 0.00184835 0.132238)
(-0.0103693 0.00092749 0.122645)
(-0.00189588 -0.000700361 0.047508)
(0.00396699 0.00348731 0.0256062)
(5.14203e-05 -0.00147005 0.116971)
(-0.00055123 -0.000600195 0.115213)
(-0.00317498 -0.00263767 0.0295146)
(0.000603364 0.00133077 0.140856)
(0.00424858 -0.00248157 0.0271334)
(-0.000697429 -0.000474209 0.137936)
(-0.000974337 0.000225615 0.13607)
(-0.00184102 -0.00169173 0.118073)