/*--------------------------------*- C++ -*----------------------------------*\
| =========                 |                                                 |
| \\      /  F ield         | OpenFOAM: The Open Source CFD Toolbox           |
|  \\    /   O peration     | Version:  2406                                  |
|   \\  /    A nd           | Website:  www.openfoam.com                      |
|    \\/     M anipulation  |                                                 |
\*---------------------------------------------------------------------------*/
FoamFile
{
    version     2.0;
    format      ascii;
    arch        "LSB;label=32;scalar=64";
    class       volScalarField;
    location    "46";
    object      epsilon;
}
// * * * * * * * * * * * * * * * * * * * * * * * * * * * * * * * * * * * * * //

dimensions      [0 2 -3 0 0 0 0];

internalField   nonuniform List<scalar> 
59516
(
0.0115647
0.0106458
0.00833478
0.00757401
0.00927046
0.345188
0.00746627
0.0103378
0.00912061
0.0230856
0.00732899
0.0247249
0.0087363
0.0753675
0.0199455
0.023448
0.00508985
0.0384129
0.0134569
0.00463304
0.0325557
0.00549536
0.00541786
0.0325653
0.00454151
0.0179557
0.0320322
0.042892
0.0227754
0.0562178
0.0458114
0.0383414
0.00643371
0.00940318
0.00889505
0.00553268
0.0541153
0.044119
0.0161242
0.00469862
0.0106268
0.00962476
0.00731805
0.0116655
0.00698924
0.0240443
0.0091286
0.00623989
0.012647
0.00798145
0.0271162
0.0265358
0.00799517
0.00769686
0.0263157
0.00933589
0.00959365
0.0277341
0.00450189
0.0109913
0.00550148
0.0423685
0.00487706
0.00532507
0.00764835
0.00714094
0.0535452
0.0266493
0.0200495
0.00793171
0.0260101
0.00511988
0.0426673
0.00645448
0.00432109
0.00598809
0.005932
0.00557438
0.0243124
0.0078596
0.0308407
0.00797453
0.00867188
0.04729
0.00821761
0.00457346
0.0331573
0.00533092
0.0220143
0.0256264
0.0099772
0.00662775
0.00428568
0.00678117
0.00524723
0.0106615
0.00641184
0.0245183
0.0299105
0.0056897
0.0270462
0.0413226
0.0409771
0.0214722
0.00664214
0.00604224
0.0299851
0.0100094
0.0109476
0.0174815
0.0199133
0.0225042
0.0191031
0.0301386
0.00482868
0.0123538
0.0211009
0.00704429
0.0394517
0.00565719
0.00439566
0.00509893
0.00474514
0.00502218
0.0155025
0.0188053
0.0396234
0.0126816
0.0817764
0.00421809
0.00421221
0.00921795
0.0400896
0.0051942
0.0109316
0.00825646
0.0365651
0.00641874
0.0281834
0.0121546
0.0250544
0.00411977
0.0540984
0.0076944
0.00472977
0.00589267
0.00772398
0.00956967
0.252814
0.00961635
0.0116128
0.0305334
0.00427079
0.0050199
0.0133042
0.0606865
0.00861319
0.00846453
0.0155041
0.0519664
0.0178846
0.0169058
0.0333061
0.0616026
0.0115608
0.00441453
0.0187721
0.00441083
0.0474488
0.00705997
0.0149057
0.0260972
0.0162653
0.00630823
0.0243972
0.00927259
0.00480262
0.0075186
0.0167689
0.032102
0.00542826
0.0392839
0.0535848
0.0205929
0.00423514
0.0225166
0.0337395
0.0485558
0.00789965
0.0115545
0.00704659
0.0245489
0.00468482
0.0214553
0.00485783
0.0383203
0.0236936
0.0299651
0.00986203
0.0049166
0.0162379
0.00434781
0.01047
0.0514549
0.00705152
0.0057565
0.0042819
0.00575861
0.0524046
0.00903569
0.0268105
0.0587544
0.00591099
0.0226055
0.00880616
0.0043669
0.00604036
0.00455794
0.0233548
0.00499501
0.0236088
0.0101884
0.00494181
0.0273919
0.00468698
0.00465936
0.0270668
0.0242941
0.00451767
0.0220458
0.00429093
0.00465947
0.00445098
0.0332143
0.0342447
0.0310261
0.0212841
0.010642
0.00516844
0.0256469
0.00420491
0.048166
0.0235802
0.0418644
0.00431549
0.0133427
0.00577926
0.0166932
0.00417073
0.0103085
0.00435173
0.00612425
0.00427876
0.00590486
0.00570362
0.00483183
0.0250002
0.00531478
0.0243063
0.0199832
0.00691807
0.00470159
0.00905629
0.00420083
0.0116073
0.0231283
0.00504315
0.013145
0.0217144
0.0252955
0.0131999
0.00458725
0.0107673
0.0127599
0.00452283
0.0129376
0.0391066
0.0045615
0.0306047
0.0265018
0.00448239
0.00627463
0.0371433
0.00833073
0.00760045
0.00500268
0.00429234
0.0378634
0.00451822
0.00468067
0.00464944
0.00687822
0.0067426
0.0121824
0.00435498
0.0232479
0.00505197
0.00567483
0.0044478
0.00476765
0.00826314
0.0210378
0.0402886
0.022964
0.00438513
0.0502262
0.0160709
0.0255162
0.00458822
0.0041449
0.00468082
0.0211807
0.0106682
0.0285124
0.0287779
0.00531215
0.0118408
0.0117287
0.013787
0.0291602
0.0184452
0.0105616
0.00445026
0.004351
0.0045077
0.00471707
0.0195442
0.00730294
0.00491091
0.00503154
0.00454386
0.0211385
0.0418092
0.00550763
0.0245665
0.0335129
0.00489538
0.00572839
0.0287012
0.00463921
0.0043336
0.00431483
0.0045986
0.031436
0.00482859
0.00471197
0.0235149
0.0044719
0.00476321
0.00709883
0.00759277
0.00536763
0.00551645
0.0195353
0.0381076
0.0281234
0.0117154
0.0525103
0.0969068
0.0168818
0.00921807
0.0068174
0.00687113
0.00481314
0.00665903
0.00551761
0.0057424
0.0324239
0.0360531
0.023408
0.0279338
0.0289598
0.00514594
0.0120014
0.00497438
0.0453497
0.00736152
0.0285533
0.00485995
0.0282082
0.0194575
0.00981151
0.00746538
0.0476006
0.0215862
0.00671457
0.0363542
0.0124746
0.00923004
0.0062831
0.0126229
0.0128253
0.00481399
0.0672603
0.00443155
0.0282899
0.0183239
0.0187602
0.00441289
0.00424389
0.0253931
0.00665109
0.0121897
0.00434605
0.00435225
0.0219712
0.00722698
0.00553212
0.00542171
0.00495192
0.040073
0.0418568
0.00691224
0.00432165
0.00430393
0.0304913
0.00484434
0.00944584
0.00474856
0.00443854
0.00433156
0.00452994
0.00451871
0.013106
0.00453184
0.0190404
0.0048624
0.0102967
0.00545768
0.00463405
0.00555758
0.00611594
0.0274147
0.0336429
0.0433736
0.00802603
0.00387238
0.00653637
0.00711361
0.0340896
0.0443456
0.0090596
0.00561718
0.0045319
0.0050284
0.0060767
0.00427819
0.0061756
0.0306485
0.00779481
0.0221555
0.11504
0.00548081
0.0118426
0.00596762
0.047021
0.00436828
0.00443484
0.00463198
0.0135333
0.00556881
0.00465264
0.00804133
0.00465717
0.0158826
0.00461075
0.00541344
0.0419542
0.00430261
0.0086439
0.0232357
0.012574
0.00451959
0.00717543
0.0157969
0.0444568
0.00422191
0.00710364
0.00479216
0.00740991
0.029836
0.00611184
0.0557298
0.00500809
0.0169933
0.0048161
0.021452
0.0101596
0.0118316
0.0303179
0.00447782
0.00494571
0.0490212
0.00483791
0.00464389
0.0289274
0.0191837
0.0210407
0.00536423
0.00472864
0.0853812
0.0239036
0.0228371
0.00934276
0.00465002
0.0379867
0.0047979
0.00567318
0.00447952
0.114205
0.00439081
0.034787
0.00470895
0.0430803
0.0223286
0.00528517
0.0207087
0.0455004
0.0313715
0.0214123
0.0229086
0.00536716
0.0258771
0.01906
0.0124113
0.00487745
0.0284108
0.00966492
0.0679044
0.00443593
0.0246962
0.00522009
0.0235082
0.00783028
0.00460397
0.0225125
0.00433229
0.0537467
0.0549525
0.00527612
0.00449394
0.00713762
0.00759292
0.00431002
0.0207988
0.0044974
0.020546
0.00467375
0.00728261
0.0296128
0.00494795
0.0218316
0.0294585
0.00542772
0.0287902
0.00658091
0.00460752
0.00702562
0.0215209
0.0042691
0.0143947
0.00396859
0.00399818
0.00442834
0.00453524
0.0262351
0.0243586
0.00443049
0.00470039
0.0362896
0.00500127
0.00397076
0.00411388
0.00414444
0.00857343
0.0470893
0.00405669
0.0109862
0.00552237
0.0113025
0.0268395
0.00465554
0.0138172
0.0061778
0.00423754
0.00605344
0.0548996
0.0415269
0.00467561
0.00495345
0.00454714
0.00595464
0.0140651
0.00585192
0.00455693
0.036657
0.0046887
0.0138405
0.0295568
0.0193048
0.0055438
0.0059256
0.00647076
0.00767625
0.0110294
0.0044924
0.0127976
0.00435091
0.0045898
0.00388503
0.0045408
0.0274458
0.00473865
0.0360443
0.0949225
0.0201509
0.0109113
0.00656712
0.0299808
0.00485172
0.00399515
0.00515407
0.00459308
0.0324267
0.0104291
0.014295
0.00467328
0.00911969
0.0126387
0.00717399
0.00911021
0.0286219
0.0246862
0.0268508
0.0468089
0.0299732
0.0115379
0.00647536
0.0521446
0.0453543
0.00454448
0.0657168
0.0318012
0.00585751
0.00974467
0.00685477
0.0313486
0.0235746
0.0093695
0.0046994
0.00544457
0.0334007
0.0347838
0.0596138
0.0360627
0.00643385
0.0336734
0.0109898
0.00464539
0.00386427
0.0268505
0.0114459
0.0330182
0.0372979
0.00463688
0.051851
0.00493182
0.0222151
0.00524278
0.00614939
0.045063
0.0230068
0.00554247
0.0302689
0.00517458
0.0247902
0.0102371
0.00444363
0.0306442
0.0418649
0.0232648
0.0190632
0.0109375
0.0246139
0.0162003
0.0400432
0.00447743
0.0297934
0.00422381
0.00546375
0.00471333
0.0537675
0.00518184
0.0143266
0.00507325
0.0256707
0.0141039
0.00456341
0.0297951
0.00440287
0.0295053
0.00780692
0.035571
0.0213674
0.00459096
0.00678011
0.0329189
0.0088263
0.0207654
0.0364849
0.00458221
0.012128
0.00675521
0.00471587
0.00465597
0.00466738
0.00658652
0.0235081
0.0269728
0.0043674
0.0125907
0.00879494
0.00707626
0.0171122
0.00542039
0.00501964
0.0110879
0.0109051
0.0336474
0.0141779
0.0321102
0.00540278
0.00436288
0.0132301
0.0113111
0.0470314
0.0168277
0.0238235
0.0045747
0.00442375
0.0127746
0.00511503
0.0163544
0.0160069
0.00667292
0.0431712
0.00445972
0.0271005
0.00625311
0.0380329
0.00421677
0.0106373
0.0051584
0.00905487
0.0059658
0.00544098
0.00442314
0.0288425
0.020947
0.0410178
0.00481964
0.00525134
0.0068694
0.00453217
0.0653406
0.0113794
0.0134985
0.0047275
0.00744294
0.00616768
0.0112433
0.00468424
0.0444615
0.0149565
0.00577029
0.0279789
0.0257669
0.0193871
0.0443745
0.013501
0.00471225
0.0198965
0.0500394
0.010253
0.0260585
0.0109438
0.00466992
0.00458761
0.00476082
0.00446537
0.0047229
0.00713986
0.0338294
0.0045276
0.00714597
0.0145416
0.0115993
0.00490625
0.00877902
0.0179676
0.00475813
0.0311724
0.0138352
0.0127647
0.0200261
0.00503614
0.0424194
0.0154762
0.0335849
0.0390904
0.0212585
0.0450462
0.00753762
0.00561482
0.00740984
0.0302856
0.00707649
0.00603796
0.0425444
0.0053916
0.0103887
0.0274186
0.0436808
0.00895434
0.00943765
0.0347277
0.00481141
0.0417645
0.00436587
0.00537432
0.00806155
0.00498075
0.00593152
0.010987
0.00451526
0.0621315
0.0333178
0.0114841
0.0111842
0.0517806
0.00598869
0.0128404
0.00435476
0.00502592
0.0171533
0.00556544
0.00441391
0.0136892
0.0231785
0.00482417
0.0116552
0.0281575
0.00502806
0.00492642
0.00479162
0.0122358
0.0068818
0.0101336
0.0150115
0.0110218
0.0116075
0.00652938
0.0215108
0.0054658
0.00458529
0.00932369
0.00558172
0.00980078
0.00799324
0.0309071
0.0210447
0.00769673
0.00608981
0.00659962
0.00448853
0.0052466
0.00434319
0.00411582
0.22825
0.00885969
0.00440274
0.0396831
0.00567519
0.0057202
0.0402436
0.0051765
0.00471185
0.0109959
0.00456335
0.00462897
0.00454299
0.0199568
0.0106238
0.0266741
0.00948031
0.00480027
0.0353434
0.0339606
0.0227194
0.00828738
0.0269832
0.0056463
0.00473201
0.00466352
0.00477389
0.0144229
0.0200734
0.00536503
0.00467744
0.00896348
0.0147154
0.00513344
0.00475638
0.00427908
0.032488
0.00398375
0.0126598
0.0162881
0.0314973
0.0226015
0.0137108
0.00465634
0.024682
0.00484039
0.00442855
0.00491206
0.0044084
0.0045636
0.00404326
0.00458167
0.00451826
0.00964716
0.00641885
0.00812108
0.0313357
0.026177
0.00519294
0.00690432
0.0319328
0.00482891
0.0107016
0.00475924
0.00466808
0.00463836
0.00576113
0.0137756
0.00455572
0.122688
0.0120223
0.00463213
0.0701237
0.00488824
0.0304183
0.0150106
0.00532354
0.0167826
0.0284682
0.0052426
0.00551515
0.00507083
0.0306094
0.0049536
0.0310968
0.0132004
0.0191302
0.0213434
0.0113527
0.00451801
0.0199041
0.0052956
0.00483921
0.00954561
0.00451387
0.004482
0.00903156
0.00418902
0.00479324
0.0176553
0.00450694
0.0222214
0.0324362
0.00502925
0.00823007
0.0231435
0.00457503
0.0100872
0.0158134
0.00793315
0.0486797
0.00454872
0.00494579
0.00921547
0.0361956
0.0235859
0.0117014
0.0229409
0.00653779
0.00704823
0.0110202
0.0487115
0.00927965
0.00443556
0.00888828
0.00474218
0.00479466
0.027936
0.00533021
0.00448991
0.0090852
0.0061008
0.0323505
0.00897403
0.00546396
0.00402159
0.0192713
0.00516432
0.0135261
0.00958653
0.0411573
0.00876075
0.0145578
0.0285052
0.00815965
0.0282482
0.00499062
0.0101827
0.00445108
0.0662254
0.00400099
0.0123479
0.0240068
0.0117222
0.00641216
0.0403648
0.00507402
0.00546846
0.0251111
0.0578297
0.0250203
0.00428923
0.00541966
0.00460859
0.011041
0.0263216
0.00565631
0.0385677
0.0102507
0.00464511
0.00854648
0.0243576
0.00566672
0.0421589
0.0146734
0.00504491
0.00447311
0.0386858
0.00532785
0.00772907
0.0228783
0.00445801
0.00519383
0.00372732
0.00816342
0.0123253
0.0225874
0.00467112
0.00527101
0.0412348
0.0292048
0.0219634
0.00442929
0.0124722
0.00486316
0.0257604
0.00432239
0.0313185
0.00644335
0.0157038
0.00456904
0.00455085
0.00576943
0.006405
0.0392125
0.0338366
0.0058045
0.00665416
0.0388254
0.0321311
0.00485152
0.00494938
0.00495536
0.0108128
0.00657212
0.00399022
0.00476131
0.0209616
0.0148526
0.0193887
0.00562827
0.0145415
0.0332453
0.0314029
0.00416343
0.00951117
0.0123016
0.00502381
0.00487732
0.0388906
0.00460465
0.00458193
0.028087
0.0400851
0.00469276
0.00405845
0.040347
0.0558763
0.00429986
0.0112927
0.0426737
0.0185225
0.00421638
0.0041158
0.00463788
0.00643428
0.0044891
0.0379855
0.0327768
0.00455305
0.00452921
0.0114748
0.0054038
0.0254416
0.0232095
0.0249781
0.00733621
0.0531584
0.00504679
0.00590196
0.0124122
0.0218288
0.0454652
0.00452637
0.0039608
0.00825961
0.00438017
0.0103602
0.00469416
0.0261352
0.0221403
0.210945
0.0100975
0.00608117
0.0110081
0.0241213
0.0135986
0.00863904
0.0057028
0.0124297
0.00506511
0.00421338
0.0105725
0.0237867
0.0366145
0.00497216
0.0388778
0.00848452
0.00796469
0.0141293
0.0403593
0.00582641
0.0201331
0.0526261
0.0438813
0.00688442
0.00429302
0.00720725
0.00710538
0.0149874
0.00996203
0.0526728
0.0307129
0.027531
0.00441331
0.0110029
0.00589454
0.0102408
0.0104649
0.00697526
0.0431375
0.00840395
0.0421638
0.0046973
0.00981075
0.0369507
0.0043442
0.0127155
0.00706702
0.01388
0.0239084
0.0430559
0.00506346
0.0259328
0.00491045
0.00469084
0.00802562
0.0189993
0.0386358
0.00894624
0.0282123
0.00510599
0.00507519
0.0046313
0.0251593
0.0049892
0.00512302
0.00520395
0.00497919
0.0443738
0.0262143
0.00474197
0.00990365
0.0196809
0.00460642
0.00771399
0.00745371
0.0114668
0.0307739
0.132173
0.0270874
0.00519342
0.00462305
0.00796113
0.0398355
0.0314049
0.00542922
0.00864061
0.0187087
0.00440518
0.00493059
0.00479124
0.00456449
0.00432712
0.0048023
0.00614752
0.00940382
0.00889131
0.00940004
0.0169371
0.0199281
0.00435524
0.00717489
0.0325186
0.0235675
0.00409228
0.0324939
0.00546403
0.0119177
0.0044612
0.0057166
0.00920302
0.00416989
0.00446731
0.00446719
0.0230738
0.0264144
0.00495997
0.00427725
0.0421777
0.0144979
0.00798772
0.00457131
0.00625451
0.0535835
0.0108531
0.00669861
0.0155579
0.00423414
0.00846951
0.0459396
0.00767437
0.0384392
0.0129663
0.0514746
0.00500961
0.00512711
0.00426711
0.0444131
0.0235178
0.0146072
0.00490352
0.0262102
0.0254074
0.0128215
0.00462425
0.0321079
0.00403273
0.00512074
0.0192865
0.0202252
0.025814
0.00453789
0.00422474
0.00555831
0.00817361
0.0116277
0.0112235
0.0117635
0.0357096
0.0362623
0.0294668
0.0131754
0.00458569
0.0333474
0.0542772
0.0250515
0.0397113
0.00541171
0.0378965
0.00457212
0.00473534
0.00582071
0.0192163
0.00508478
0.0321264
0.0206765
0.00451262
0.00468021
0.00828559
0.00988855
0.00464313
0.0430154
0.00704273
0.00509999
0.00474739
0.012856
0.00513629
0.00412157
0.0107532
0.0298049
0.0391078
0.0108785
0.00455835
0.0352156
0.0149821
0.00411824
0.029812
0.0322107
0.0114628
0.0449618
0.0177778
0.0449787
0.0257319
0.031868
0.046876
0.0306506
0.0495698
0.0103443
0.0155729
0.00458762
0.0468626
0.00422152
0.00725874
0.00533115
0.00883552
0.00544015
0.0335931
0.00483796
0.0107143
0.0130034
0.00458638
0.00704312
0.055692
0.00888673
0.0144627
0.0341699
0.0357447
0.00609369
0.0130036
0.0383616
0.00579869
0.00631075
0.00449087
0.00470481
0.0257813
0.00852683
0.0144149
0.0112096
0.00616164
0.00602183
0.00470353
0.0128904
0.00503812
0.00677546
0.010673
0.0105464
0.0102311
0.00840624
0.0137996
0.00466994
0.00692981
0.043707
0.00608931
0.0480643
0.119929
0.0237442
0.00609579
0.00643152
0.00810782
0.00526173
0.00884106
0.0165127
0.00931735
0.0497792
0.0414289
0.0552741
0.02311
0.0241874
0.00433252
0.0255935
0.00881169
0.0378435
0.0349318
0.00442284
0.0234221
0.00524808
0.00741784
0.00492983
0.0310287
0.02654
0.00769009
0.00569885
0.0475856
0.00633759
0.0215836
0.010466
0.00436898
0.00534034
0.00449422
0.0114886
0.0119502
0.0144364
0.0188674
0.031184
0.0263888
0.0358788
0.009843
0.0044771
0.0168431
0.0215798
0.0114009
0.00510618
0.00528556
0.0231428
0.00642596
0.0381189
0.0191869
0.00547518
0.0256348
0.015272
0.0124142
0.00824928
0.0106778
0.00579058
0.0128444
0.0113285
0.00476015
0.00974549
0.00477405
0.0421396
0.0433207
0.00749141
0.0108564
0.00561809
0.009998
0.0118825
0.0472824
0.00685754
0.00714979
0.00598161
0.013346
0.0283396
0.0222506
0.027273
0.00787799
0.0200189
0.010627
0.0426446
0.00851547
0.0277746
0.0157374
0.00476519
0.0229904
0.00522685
0.0052279
0.0301354
0.0377296
0.0087607
0.0685065
0.00550743
0.00484486
0.0144848
0.00583299
0.0183347
0.00860579
0.0343047
0.0101928
0.00786021
0.00434655
0.0530437
0.0048696
0.00755259
0.0154766
0.0067027
0.0319202
0.0050282
0.0336887
0.0056753
0.00796321
0.00610681
0.00655599
0.0280143
0.0418978
0.00631685
0.00436497
0.0288067
0.0102997
0.034303
0.00731154
0.0216824
0.0463124
0.0122429
0.00583113
0.0140657
0.00442562
0.00896495
0.00590776
0.035162
0.00456566
0.0322032
0.0163316
0.00462225
0.00465419
0.00776516
0.0436415
0.0258248
0.00490498
0.00477056
0.00607741
0.00549769
0.00549369
0.0610426
0.00610607
0.00627129
0.00710581
0.0243611
0.0071069
0.0045975
0.00721425
0.00454348
0.00503696
0.0223431
0.00519398
0.0264988
0.00548786
0.012485
0.00704574
0.00535123
0.00431642
0.00464227
0.0314142
0.00424623
0.0232973
0.0374833
0.00742522
0.0247141
0.00526195
0.0452388
0.0239413
0.0248457
0.0154579
0.007753
0.0345228
0.0342386
0.00630044
0.0126904
0.00431088
0.0110984
0.0423505
0.0141351
0.0291304
0.00964591
0.00566977
0.0236037
0.0057728
0.00428734
0.00482697
0.00488574
0.00426856
0.00484519
0.00425587
0.00543395
0.0219854
0.0488763
0.00591342
0.0507673
0.00801641
0.00813889
0.0150584
0.00445983
0.00729063
0.0298217
0.0044452
0.0278758
0.0119494
0.0205363
0.00662251
0.00431886
0.0155611
0.010422
0.0276937
0.00771753
0.00818447
0.0138671
0.00611286
0.0534052
0.0376036
0.00402006
0.00759287
0.0046257
0.0109985
0.0606536
0.00449394
0.0199086
0.00418497
0.00531335
0.0331133
0.00514464
0.00441019
0.0318961
0.0228662
0.00435178
0.0116383
0.0412316
0.00493566
0.0239808
0.0411241
0.0125047
0.00438462
0.00448816
0.0060634
0.00483913
0.0056779
0.00455975
0.00917911
0.0105451
0.00433542
0.00569945
0.047865
0.0305924
0.00799114
0.00475715
0.00862015
0.0428352
0.0377786
0.00566637
0.0271685
0.00544828
0.00478914
0.00443297
0.026962
0.0157532
0.00457737
0.00940864
0.0056734
0.00610136
0.0225315
0.0333568
0.00459056
0.0372587
0.0183457
0.0326868
0.0275193
0.00457644
0.00464536
0.00570777
0.010327
0.0128246
0.0131011
0.00454626
0.00561868
0.0240404
0.00396264
0.00508845
0.00503015
0.0391705
0.00775629
0.039536
0.01318
0.0264166
0.0049697
0.00587953
0.0117424
0.03378
0.0148513
0.019822
0.051877
0.00524035
0.0407395
0.0229597
0.0045556
0.00471884
0.00444045
0.0304555
0.0101245
0.0250566
0.00450889
0.00514694
0.0045486
0.00449811
0.028051
0.005688
0.00874649
0.00456607
0.00448987
0.00456105
0.00481931
0.00459121
0.0469486
0.0302728
0.00894907
0.00435754
0.00579517
0.0285047
0.004442
0.0215904
0.00789091
0.00603098
0.0143415
0.0215286
0.0217925
0.0510524
0.00508144
0.0056434
0.0227849
0.00823727
0.0483572
0.00537139
0.00390295
0.0433295
0.00828812
0.0071431
0.0046788
0.0917803
0.0506208
0.0347382
0.0187451
0.0209474
0.0408234
0.0342238
0.0477256
0.0146823
0.00486292
0.00673356
0.00527692
0.00773957
0.0438236
0.00483059
0.00877482
0.0530929
0.0521922
0.0355048
0.0135998
0.0273202
0.00512723
0.0149576
0.00460745
0.0083601
0.0275614
0.0141951
0.00523958
0.00446056
0.0054621
0.00472701
0.00470911
0.0253377
0.0101146
0.00525527
0.00499488
0.0581173
0.013634
0.0102926
0.00743969
0.00878763
0.004435
0.0222307
0.0357876
0.0447616
0.0116513
0.00436088
0.0039423
0.00533919
0.0203479
0.0100527
0.0262743
0.0116081
0.00477329
0.0276465
0.020886
0.004589
0.00568027
0.00515682
0.0046732
0.013682
0.0185185
0.00541581
0.011022
0.0079487
0.00606853
0.00698678
0.00482666
0.015399
0.00591589
0.0472861
0.0363672
0.0517557
0.0125757
0.00859412
0.0111272
0.0273527
0.00527913
0.026468
0.0221634
0.0462292
0.00835592
0.003995
0.00450327
0.0456786
0.0214577
0.0266088
0.03951
0.0223632
0.00408246
0.00400637
0.0345651
0.0301192
0.0227357
0.00468543
0.00391959
0.0059095
0.0125865
0.00505233
0.00575028
0.0119092
0.0311659
0.00418995
0.00612454
0.00588874
0.00807209
0.00557467
0.00431293
0.0169512
0.00809935
0.0183959
0.00971391
0.00449916
0.00420463
0.0549375
0.00466746
0.0399129
0.00477674
0.00533092
0.00462559
0.00488919
0.0238461
0.0423392
0.0236622
0.00481226
0.00436156
0.00747515
0.00436955
0.0382437
0.0132272
0.00475773
0.00437079
0.00958713
0.0276893
0.015169
0.0095671
0.00431105
0.00490528
0.0048514
0.00394379
0.00506769
0.00550863
0.0138118
0.00454239
0.00471799
0.00570614
0.01375
0.0316467
0.0427499
0.0169001
0.0103288
0.0040865
0.00414821
0.0363622
0.00965717
0.0061844
0.00667662
0.012349
0.00464941
0.00575816
0.00712253
0.00395891
0.0110991
0.00670836
0.0245555
0.00957519
0.00582043
0.0410201
0.00741316
0.00532758
0.00659885
0.00459777
0.00410176
0.0411364
0.00463307
0.0147902
0.00423221
0.0170201
0.00431171
0.00702686
0.0128858
0.00779229
0.0417259
0.00736274
0.0268681
0.0300485
0.00553725
0.0379865
0.00466284
0.00492863
0.00420267
0.0259131
0.0113649
0.0431817
0.00674526
0.0308659
0.0120507
0.00502476
0.00420346
0.00434627
0.00559336
0.00523639
0.00453609
0.00547254
0.00498836
0.00522722
0.0265674
0.0118488
0.00414489
0.00407325
0.0215093
0.00538108
0.00462773
0.00422917
0.0413842
0.0066518
0.0415197
0.00410481
0.0351675
0.0304441
0.00894808
0.00674834
0.00631579
0.0087714
0.0324785
0.0048656
0.0329444
0.0330249
0.00525099
0.0249457
0.0147405
0.00703538
0.0048429
0.0444988
0.0214003
0.0332416
0.0046579
0.00500458
0.0196533
0.00488832
0.0129947
0.0203524
0.00567685
0.0293676
0.00656007
0.00556288
0.00464863
0.00445534
0.00443354
0.00398223
0.00806425
0.00381795
0.00527352
0.00474895
0.0102348
0.0118868
0.00399794
0.0160405
0.00544772
0.00556497
0.00518545
0.00596862
0.00412592
0.00640686
0.0296947
0.00499492
0.00413157
0.0214879
0.00794923
0.00432377
0.106417
0.00516928
0.00475939
0.0125761
0.00737269
0.0245592
0.00901504
0.00399902
0.00539812
0.0123172
0.023368
0.0210405
0.00730295
0.0280515
0.0325439
0.0361617
0.00603849
0.0040959
0.00400074
0.00662519
0.0054452
0.00608868
0.0205891
0.00999539
0.00413878
0.00398741
0.00409661
0.00418645
0.0382442
0.0559091
0.0483189
0.0183911
0.00561128
0.00466335
0.00427912
0.0138157
0.0053342
0.00464664
0.0446561
0.00458922
0.00508978
0.00423549
0.00467506
0.017417
0.0240023
0.00814351
0.0252343
0.00480623
0.00573737
0.0117935
0.00540523
0.0124702
0.0199838
0.0111642
0.00440951
0.0141416
0.00755172
0.0044856
0.0193414
0.0286547
0.00474133
0.0044984
0.0227135
0.0298643
0.0130596
0.0377701
0.00422598
0.00873577
0.0235724
0.00417205
0.00442503
0.00421667
0.00735138
0.0049101
0.00505654
0.00509799
0.00598583
0.0141192
0.00578282
0.0181666
0.0162026
0.024078
0.00438881
0.00901054
0.00510079
0.00637174
0.0127007
0.0109278
0.0446163
0.011042
0.0453859
0.0128948
0.00605831
0.00488658
0.00426616
0.00493058
0.0321093
0.0257837
0.00480009
0.0159393
0.0191909
0.00732013
0.027347
0.00403789
0.00560576
0.00461693
0.00879533
0.00468261
0.00819153
0.00533981
0.0301741
0.00470545
0.0327298
0.033972
0.0196803
0.00643745
0.00837799
0.00451148
0.0335401
0.00741754
0.00536234
0.0111262
0.0152414
0.0136227
0.0293643
0.0212825
0.0287734
0.0194677
0.00386924
0.0243006
0.005217
0.0211281
0.0477083
0.0125379
0.0275809
0.0569582
0.0430796
0.00638042
0.00887667
0.00480991
0.0195695
0.00440022
0.0315269
0.00929009
0.0213344
0.00554758
0.00463641
0.0474585
0.0067896
0.00520496
0.00524428
0.00688016
0.00691278
0.00488299
0.00489663
0.00482046
0.00599521
0.0306573
0.0134999
0.0254656
0.00498354
0.0392501
0.0136996
0.00503065
0.0173684
0.0100009
0.0469112
0.00930679
0.0108034
0.00414454
0.00774484
0.00446099
0.00635788
0.00432516
0.00640025
0.00390845
0.0235549
0.0241754
0.00494982
0.00510553
0.00636966
0.00525996
0.00473027
0.00583447
0.00549199
0.0328053
0.00510891
0.00435835
0.0331135
0.00755391
0.0329935
0.00700564
0.0187229
0.0264762
0.00476905
0.0288106
0.0320069
0.0433623
0.0361629
0.0315537
0.00431541
0.0103917
0.00421147
0.00669604
0.0211643
0.00489464
0.00440685
0.00460589
0.0442653
0.00549198
0.00958214
0.00877507
0.00523804
0.035903
0.0341828
0.00549179
0.0306837
0.00434187
0.0256694
0.00784854
0.0184721
0.00412507
0.00425137
0.00482505
0.0279389
0.0426948
0.0309848
0.00486952
0.0214682
0.0564146
0.00891827
0.0124283
0.035426
0.0118166
0.0214133
0.00700281
0.00537269
0.00435288
0.00565881
0.0966343
0.00994064
0.0421559
0.00426843
0.0052952
0.00788874
0.00505702
0.0130789
0.00952901
0.0430193
0.0056992
0.0112549
0.00443509
0.00451634
0.0220898
0.0514892
0.00424375
0.00473852
0.00446825
0.0191793
0.00635646
0.042409
0.0292406
0.0264881
0.00453472
0.0353305
0.00925287
0.0491091
0.0251045
0.00589533
0.0245186
0.0313435
0.0325861
0.00537502
0.00536284
0.00471018
0.0236976
0.00708991
0.00411002
0.00811577
0.00835864
0.00569281
0.00451671
0.00457997
0.0424283
0.00538732
0.0137798
0.0184408
0.0262695
0.00433293
0.00439862
0.0117612
0.00580896
0.0513434
0.00904448
0.00734162
0.0470488
0.00455082
0.00472541
0.00569485
0.0218484
0.00427708
0.0238698
0.0040619
0.0215544
0.0440465
0.00440781
0.00448246
0.0194984
0.00549299
0.00455625
0.00428818
0.00420311
0.022197
0.0343625
0.0045728
0.00563515
0.00562446
0.00498464
0.024429
0.00641861
0.0224848
0.019305
0.00465216
0.00487198
0.0111097
0.00555356
0.00840471
0.0298273
0.0657023
0.00432593
0.00513046
0.0244643
0.0360931
0.0140687
0.00569385
0.00596305
0.0441737
0.0130395
0.00503544
0.00439584
0.00480128
0.00534142
0.0091375
0.00433836
0.00504482
0.00459716
0.0135658
0.0329324
0.0431966
0.00828077
0.0101369
0.00551439
0.00500236
0.0044935
0.0046059
0.00436377
0.0048356
0.00492537
0.00454789
0.0110301
0.0049817
0.00518575
0.0122633
0.00494023
0.0120172
0.0334866
0.00785906
0.00639489
0.00670895
0.00744806
0.00671637
0.0129328
0.0241351
0.00549627
0.00536047
0.00586576
0.00832756
0.0382639
0.00738283
0.0108209
0.0416252
0.00625405
0.0335057
0.00799848
0.00511246
0.00566746
0.00637848
0.00945776
0.029603
0.0392389
0.0664322
0.00461302
0.0247225
0.00488385
0.00484601
0.026891
0.00442534
0.011921
0.00426474
0.00835661
0.00787953
0.016522
0.00403509
0.0041217
0.0512345
0.0049986
0.0301761
0.0523666
0.00658233
0.0195109
0.00433378
0.00451838
0.00445365
0.0107081
0.0147106
0.00567424
0.00455807
0.00565697
0.0227746
0.0385399
0.00821469
0.00522307
0.00924176
0.00454925
0.014428
0.0117864
0.0046039
0.00435581
0.00450858
0.0128844
0.00996582
0.0138692
0.00675342
0.00566225
0.00932215
0.0107084
0.0305542
0.00533496
0.0057452
0.00488734
0.00485877
0.00553674
0.00422953
0.029041
0.00763412
0.0159294
0.0229588
0.00493503
0.0154887
0.00414003
0.00439577
0.00550633
0.0424982
0.0112565
0.00576657
0.00419792
0.0209241
0.00501262
0.0154694
0.00681629
0.0148469
0.00934734
0.00493281
0.00437453
0.0529805
0.00620993
0.00422005
0.00495969
0.0124372
0.00523966
0.00488754
0.132315
0.00399707
0.0266388
0.00545085
0.00434544
0.00456795
0.00875212
0.0121926
0.0164033
0.0210844
0.0305961
0.00428521
0.00423433
0.0885838
0.0286187
0.00554413
0.00609412
0.0232102
0.0103999
0.00572621
0.00610019
0.00570372
0.0458515
0.00481936
0.0206181
0.0266621
0.00447591
0.0226951
0.0139154
0.0393337
0.0258966
0.0143278
0.0231493
0.00788816
0.0222285
0.0090831
0.0322147
0.0414238
0.00772559
0.0341527
0.0207193
0.00566359
0.0362114
0.00554574
0.0219743
0.0180239
0.0233916
0.00418257
0.0352313
0.0327064
0.00685618
0.00568678
0.00752302
0.0252819
0.00675681
0.0137656
0.0075308
0.018959
0.0112929
0.00420404
0.0117539
0.00425767
0.00643985
0.00661133
0.00432834
0.054113
0.0073278
0.00848384
0.00505683
0.0369894
0.00828521
0.0542008
0.0115381
0.0119252
0.00468701
0.00520997
0.00903503
0.00536216
0.0206797
0.00458502
0.00470507
0.0150113
0.00398761
0.0187194
0.00484828
0.00674192
0.0205742
0.0150288
0.0186433
0.00430665
0.00579809
0.0200957
0.00676684
0.00816826
0.0466881
0.00465463
0.0430343
0.0262808
0.00927331
0.00534677
0.00608738
0.022766
0.00441734
0.00479277
0.011051
0.0218725
0.0138082
0.0333422
0.0057377
0.0130845
0.00666005
0.0127717
0.0046149
0.00610369
0.0302646
0.00671926
0.00459672
0.0126481
0.0541789
0.0186925
0.00579485
0.0228284
0.0133567
0.0212102
0.00618003
0.0133059
0.0248049
0.0241882
0.00423488
0.0416521
0.00528794
0.0361089
0.00424843
0.0112586
0.00501478
0.0314424
0.00593502
0.00408605
0.00489463
0.00438409
0.011671
0.0476276
0.0472105
0.0312957
0.053952
0.00540503
0.0310164
0.00416629
0.00517507
0.00741895
0.00494178
0.0398229
0.0208167
0.0232736
0.00515114
0.0343681
0.00563517
0.0115944
0.00616209
0.0202761
0.0307704
0.0359099
0.00512166
0.0228456
0.00434942
0.00741555
0.00747798
0.0230733
0.0232154
0.00801798
0.0111913
0.0263108
0.00466841
0.00524136
0.0148185
0.0116618
0.00575431
0.00455736
0.00518145
0.00437436
0.00471972
0.010813
0.0142226
0.00482964
0.0549698
0.0351765
0.00727702
0.00510999
0.00429166
0.0365352
0.0255837
0.00413241
0.0114827
0.00404681
0.0290497
0.00415603
0.00406735
0.00528682
0.0208729
0.0142813
0.0384586
0.0425201
0.00826279
0.0456498
0.00725292
0.0161298
0.0072538
0.00674735
0.00473182
0.0392004
0.0604642
0.00432929
0.00701337
0.0316935
0.00460353
0.00529659
0.0323101
0.044665
0.0481635
0.0267943
0.0161368
0.0433351
0.0135814
0.00437429
0.0311731
0.0468454
0.00771774
0.00513899
0.00462374
0.00579372
0.0117428
0.0575198
0.00427152
0.0292767
0.00471938
0.0253219
0.0105906
0.00745338
0.0103156
0.00886581
0.0333948
0.00450046
0.0103922
0.00426932
0.0414909
0.0080772
0.0236076
0.0109063
0.0181169
0.0381615
0.00946198
0.00979635
0.00843328
0.0160072
0.00525804
0.0246233
0.0316624
0.0250502
0.00671458
0.00901929
0.00687456
0.031898
0.00915435
0.0401753
0.0580735
0.00594658
0.00410396
0.0235406
0.0302552
0.0126637
0.00461101
0.00818204
0.00512284
0.00759154
0.00633522
0.00484198
0.00585597
0.00423152
0.0228042
0.0444306
0.00747598
0.0045673
0.00440242
0.0126202
0.0529262
0.0118981
0.00457139
0.0219483
0.0109061
0.00817014
0.0112517
0.00431771
0.00493982
0.00443267
0.0352132
0.00723218
0.00498473
0.00581731