/*--------------------------------*- C++ -*----------------------------------*\
| =========                 |                                                 |
| \\      /  F ield         | OpenFOAM: The Open Source CFD Toolbox           |
|  \\    /   O peration     | Version:  2406                                  |
|   \\  /    A nd           | Website:  www.openfoam.com                      |
|    \\/     M anipulation  |                                                 |
\*---------------------------------------------------------------------------*/
FoamFile
{
    version     2.0;
    format      ascii;
    arch        "LSB;label=32;scalar=64";
    class       volScalarField;
    location    "46";
    object      k;
}
// * * * * * * * * * * * * * * * * * * * * * * * * * * * * * * * * * * * * * //

dimensions      [0 2 -2 0 0 0 0];

internalField   nonuniform List<scalar> 
59516
(
0.000546285
0.000947363
0.000227652
0.000592386
0.00756393
0.0173741
0.000312677
0.000578468
0.000301133
0.00310416
0.00361249
0.00272014
0.000375462
0.00736781
0.00258492
0.00269977
0.00114188
0.00422681
0.000955365
0.000685505
0.00457379
0.000323359
0.000454281
0.00431344
0.000270587
0.00225662
0.00419284
0.00561899
0.00295288
0.00614004
0.00702876
0.00525128
0.000231674
0.000641069
0.000969947
0.000304162
0.00596332
0.00423994
0.00122239
0.000436164
0.000512336
0.0027156
0.00087496
0.000828067
0.000471362
0.00275673
0.000567368
0.00176952
0.0075989
0.00166475
0.00901607
0.00379558
0.000211068
0.000275711
0.00418357
0.000554857
0.00339613
0.00408828
0.00102602
0.0011858
0.000523203
0.00572727
0.00103059
0.00110364
0.000496562
0.000752627
0.00709883
0.0037705
0.00616088
0.000304968
0.00553278
0.00082401
0.00606857
0.000419175
0.00141803
0.000927415
0.00152585
0.000450153
0.00360251
0.00159607
0.00413493
0.00111222
0.000795574
0.0060429
0.00115751
0.00125463
0.0041637
0.00031813
0.00260442
0.00240277
0.00537767
0.000606014
0.000918506
0.000499197
0.000932653
0.00779502
0.00051654
0.00269449
0.00334516
0.000487007
0.00418803
0.00605628
0.00592076
0.00260135
0.00029263
0.000782116
0.00427185
0.000330119
0.00070615
0.0023901
0.00465893
0.0049404
0.0026341
0.00453932
0.000600453
0.000651473
0.00255129
0.000428568
0.00565589
0.000466331
0.00174006
0.0011245
0.000429797
0.00105733
0.00399449
0.0014378
0.00639035
0.0024704
0.0105257
0.0012984
0.00149716
0.000367506
0.00568621
0.000257468
0.000815787
0.000230538
0.00444591
0.000125935
0.00401433
0.00104005
0.0036917
0.0013203
0.0060175
0.000348467
0.00140861
0.000372436
0.000498546
0.000459419
0.0198336
0.000482681
0.000920243
0.00400351
0.00053013
0.000438115
0.000921812
0.00644394
0.000514706
0.000315457
0.00119109
0.00607676
0.0024563
0.00231926
0.00432274
0.00719547
0.000648412
0.00101211
0.00240359
0.00127743
0.0058802
0.000731834
0.00111299
0.0027907
0.00185024
0.000256407
0.00332575
0.000678802
0.00102608
0.00109916
0.0022742
0.0038802
0.000290452
0.0046764
0.00723701
0.00213861
0.00120886
0.00257128
0.00386434
0.00608703
0.00026917
0.000740635
0.000621241
0.00278274
0.000782625
0.00212021
0.000306012
0.00429928
0.00256305
0.0037441
0.00078087
0.000362953
0.00162639
0.00162519
0.00058394
0.00603342
0.000242859
0.000366156
0.00143281
0.000893213
0.00632532
0.000560161
0.00316486
0.00746362
0.000389857
0.00277956
0.000409792
0.000813227
0.000353981
0.000291171
0.00283678
0.000483038
0.0028838
0.000943944
0.000905832
0.00414591
0.00101705
0.00111584
0.00515583
0.00357997
0.00102912
0.00272143
0.000869833
0.00114284
0.00166785
0.0053608
0.0042859
0.00380551
0.00224481
0.000473415
0.000661687
0.00302027
0.00153646
0.00619809
0.00255321
0.00623458
0.00147003
0.000855832
0.00054603
0.00239978
0.000647955
0.000487876
0.000546632
0.000468611
0.00170893
0.000562059
0.000439891
0.000578499
0.00293146
0.000583798
0.00366424
0.00253431
0.000237395
0.000720572
0.00049182
0.00102676
0.000522062
0.00248632
0.000756534
0.000914
0.00377748
0.00266102
0.00105671
0.00107237
0.000580813
0.000984446
0.000750358
0.000851733
0.00537374
0.000550557
0.00527788
0.00376052
0.00158663
0.000345909
0.00580265
0.000408021
0.000295176
0.00114746
0.00139186
0.00602173
0.00161249
0.00202389
0.00119562
0.000365986
0.000496684
0.000855741
0.000808178
0.00498628
0.000810975
0.00023891
0.0017839
0.00115616
0.000239539
0.00237016
0.00575885
0.00460655
0.000404385
0.00613622
0.0027325
0.00310448
0.000862667
0.000869718
0.000263576
0.00241763
0.000700875
0.00424366
0.00298692
0.000838964
0.000798215
0.00822214
0.00114734
0.00377235
0.00259103
0.000681081
0.00117226
0.00158137
0.00178905
0.000517696
0.00172531
0.000399836
0.00101431
0.000686346
0.000514445
0.00247052
0.00589945
0.000488442
0.00349607
0.00418252
0.000739943
0.000278782
0.0030124
0.00116688
0.000527505
0.00149365
0.00113959
0.0038932
0.000528483
0.00151015
0.00268058
0.00158498
0.00135913
0.000428744
0.00044209
0.00058791
0.000257477
0.00156731
0.00448816
0.00405949
0.000903961
0.00603235
0.0111231
0.00125412
0.000526834
0.000436883
0.00300169
0.000396298
0.000276823
0.000484908
0.000586755
0.00426286
0.00682238
0.00287627
0.0037636
0.00402362
0.000792633
0.000958162
0.000670005
0.00570067
0.000348649
0.00398725
0.000952055
0.00271209
0.00236539
0.000367511
0.00387136
0.00617635
0.00262985
0.000375863
0.00558026
0.001266
0.000471898
0.00019699
0.00102637
0.00101414
0.000666049
0.00648892
0.00155844
0.00353202
0.00245396
0.0024557
0.00136378
0.00119884
0.00258821
0.000186291
0.000686079
0.00143633
0.00134598
0.00351956
0.00041569
0.000373865
0.000351773
0.000478271
0.00590306
0.0057044
0.000209278
0.00112909
0.0015304
0.00412771
0.00110773
0.000408395
0.00154144
0.00127936
0.00151209
0.00117915
0.00110261
0.00071098
0.00147792
0.0023918
0.000953779
0.000623678
0.000628205
0.00132495
0.000313848
0.000523425
0.00364759
0.00432547
0.00572008
0.00265554
0.00138114
0.000492778
0.000209306
0.00409979
0.0060847
0.000481782
0.000676851
0.00129228
0.000479267
0.000247882
0.00175231
0.000244236
0.0054027
0.000365199
0.00249771
0.0118182
0.000772718
0.000884386
0.00047762
0.0061432
0.00136353
0.00153962
0.00145828
0.000768798
0.000651706
0.00125251
0.000578781
0.00175208
0.00124545
0.00102765
0.000329902
0.00567388
0.00129012
0.000415806
0.00353146
0.000668827
0.000899805
0.000331803
0.00126585
0.00573086
0.000936798
0.000230234
0.000601052
0.0003365
0.0037629
0.000427091
0.00715622
0.000918814
0.00951615
0.00109334
0.00356609
0.000500142
0.000650236
0.00356125
0.0018725
0.00151637
0.00636344
0.000834558
0.00190897
0.00419852
0.00240388
0.00244259
0.000662356
0.00165321
0.00982285
0.0026002
0.00250508
0.000346538
0.00171554
0.00561457
0.000472215
0.000513622
0.00145776
0.0136549
0.000717932
0.00531053
0.000746922
0.00609881
0.00233467
0.000425186
0.00242256
0.00591946
0.00431012
0.00329094
0.00270932
0.000211575
0.00281426
0.00223533
0.00479704
0.00129485
0.00524315
0.000451572
0.00625114
0.00105158
0.00279823
0.00122014
0.00291705
0.000478694
0.00143255
0.00308099
0.00096378
0.00622883
0.00624211
0.000315841
0.00152794
0.000368268
0.000338605
0.00135594
0.00279161
0.000816847
0.0024139
0.00129086
0.000345025
0.0052322
0.000399595
0.00359836
0.00527393
0.000316431
0.00367727
0.000441301
0.00167612
0.000423474
0.00247394
0.00124317
0.00107259
0.00131426
0.00104563
0.00148976
0.00153343
0.00362558
0.00284411
0.00124751
0.000544251
0.00459513
0.00081606
0.00105917
0.00100944
0.00132046
0.000235763
0.00598513
0.000865748
0.000871778
0.000663804
0.000610691
0.00512592
0.00177569
0.00107001
0.000201873
0.001581
0.000338377
0.00581204
0.00566768
0.00145496
0.00106073
0.00183834
0.000868761
0.000979822
0.000477935
0.00128619
0.00532604
0.00164513
0.00312722
0.0042022
0.00229141
0.00023602
0.000338753
0.000310612
0.000244891
0.000551019
0.00182084
0.00104528
0.0010737
0.00103679
0.00120883
0.00127327
0.00407498
0.000782549
0.0043898
0.0101781
0.00231062
0.00548476
0.000350561
0.0045974
0.00130499
0.000778592
0.000447806
0.00115589
0.00411157
0.00959838
0.00729797
0.00152115
0.000275458
0.00293964
0.00277241
0.00044066
0.00378709
0.00238632
0.00483385
0.00635255
0.00563536
0.00139075
0.000519438
0.00649364
0.00590339
0.00194366
0.00808306
0.0042281
0.00040643
0.000334447
0.00033132
0.00433791
0.00267777
0.000373473
0.00110506
0.000555315
0.00429834
0.00534138
0.0100845
0.0058354
0.000364561
0.00550804
0.000710262
0.0014662
0.000722135
0.00366063
0.000756891
0.00398547
0.00585296
0.00138873
0.00592731
0.000970867
0.00364109
0.000603242
0.000384819
0.0059006
0.00265955
0.000381364
0.00395163
0.000898884
0.00291319
0.000441856
0.00157367
0.00405296
0.00574319
0.00354264
0.00783134
0.000548151
0.00277451
0.000980354
0.00448679
0.00165483
0.0052109
0.000639124
0.000127147
0.000917056
0.00608631
0.000314759
0.00109538
0.000609538
0.00301906
0.00837051
0.000379873
0.00375945
0.00183974
0.00801358
0.000209119
0.00433
0.00353098
0.00161131
0.000224159
0.00417349
0.000331445
0.00245634
0.00560341
0.00138799
0.00908601
0.000182485
0.0011396
0.00134812
0.00099214
0.000256721
0.00348685
0.00388176
0.00136107
0.00850506
0.000273599
0.000339954
0.00137128
0.000348677
0.000887397
0.000769655
0.000492573
0.00484143
0.00208154
0.00449452
0.000512863
0.00107893
0.000907451
0.000583679
0.00590553
0.00130037
0.00288422
0.00117759
0.0013035
0.00887024
0.000817171
0.00108724
0.00955227
0.000451469
0.00640056
0.00133232
0.00290843
0.0003062
0.00619078
0.000849909
0.00949791
0.000595305
0.00032398
0.000509171
0.000375403
0.00151107
0.00400611
0.00362017
0.00431572
0.00147212
0.000691776
0.000458649
0.000376355
0.0066715
0.0010603
0.00106751
0.00133698
0.000350971
0.000577779
0.000955287
0.00168672
0.00578933
0.000969341
0.000770779
0.00521271
0.00342181
0.00232402
0.00578105
0.00128948
0.000869162
0.00237017
0.00595772
0.000497687
0.00487989
0.000507533
0.0012629
0.00188287
0.00125403
0.000487831
0.00140007
0.000370065
0.0040528
0.00121052
0.000284689
0.000999177
0.0011253
0.00091051
0.000331245
0.00202371
0.00032155
0.00411719
0.000998665
0.000812372
0.00250276
0.000519638
0.00728227
0.00188329
0.00423352
0.00606754
0.00240024
0.00594449
0.000332762
0.000647841
0.000342173
0.00350296
0.000448944
0.000600585
0.00614927
0.000730695
0.00564609
0.00356429
0.00599706
0.00031575
0.000439041
0.00549392
0.000638392
0.00585097
0.0011063
0.00065655
0.000474442
0.000386299
0.000660853
0.000760158
0.00144292
0.00651128
0.00419567
0.000658435
0.000634438
0.00608057
0.000379951
0.00432116
0.0011312
0.00116698
0.00139767
0.000677854
0.0018272
0.00107009
0.00368397
0.00111037
0.00058781
0.00419715
0.000769492
0.00154636
0.000349591
0.000795977
0.000226933
0.000458105
0.00114815
0.000560016
0.000866506
0.000216278
0.00227292
0.000986328
0.00136138
0.00879876
0.000165845
0.000598759
0.000476797
0.00429398
0.00316452
0.000362385
0.000346341
0.000290852
0.00179817
0.000411175
0.00160546
0.0013193
0.017322
0.000542264
0.00133037
0.00577954
0.000235349
0.000598692
0.00463259
0.000614761
0.00147443
0.000654707
0.00134505
0.00182489
0.00128731
0.00241156
0.00922296
0.00405351
0.00039236
0.00129094
0.00565394
0.00363107
0.00256835
0.000477779
0.00352937
0.000629402
0.00118913
0.00103558
0.000448026
0.00118949
0.00344193
0.000679791
0.000737265
0.000412609
0.00120756
0.000491972
0.00171755
0.0014221
0.00441561
0.00102421
0.000908536
0.00134759
0.00441943
0.0025895
0.000851148
0.00135437
0.00324065
0.00105982
0.000811535
0.00102941
0.00141325
0.000858317
0.00110814
0.00121262
0.00163785
0.00867042
0.000274201
0.000473445
0.00432651
0.00286098
0.000903302
0.000152656
0.00439586
0.000929406
0.00053453
0.00209538
0.00207478
0.00169975
0.000452904
0.000885815
0.00151227
0.0151106
0.000783137
0.00162262
0.0074188
0.00164287
0.00403344
0.00106324
0.0010668
0.00206519
0.00393275
0.00118626
0.000870067
0.000235283
0.00389766
0.00149288
0.00400023
0.000964864
0.00216409
0.00222084
0.000786984
0.00178622
0.00247347
0.000608688
0.000949258
0.000464724
0.00168681
0.00179766
0.000311374
0.00149946
0.0012505
0.00235193
0.00167704
0.00336927
0.0042743
0.00119609
0.00199454
0.00510892
0.00148377
0.000520899
0.0010092
0.00303322
0.00644676
0.000941357
0.00163495
0.000342091
0.00595471
0.00404754
0.000834372
0.0034801
0.00040724
0.000448889
0.000744563
0.00588968
0.000343512
0.0007923
0.00235066
0.00200267
0.00158232
0.0026769
0.000862468
0.001511
0.000395035
0.000510165
0.00421629
0.000447467
0.000793268
0.00135866
0.0021065
0.000817177
0.000972863
0.00046576
0.0057179
0.000522029
0.00102052
0.00394013
0.000316609
0.00413422
0.000689903
0.000583034
0.0013196
0.00775326
0.00137555
0.000960356
0.0024812
0.000830939
0.000489307
0.00563655
0.000840478
0.000535505
0.00255685
0.00704895
0.00387314
0.00155705
0.000334697
0.00122895
0.000962067
0.00254402
0.000511066
0.00424021
0.000548903
0.00161368
0.00113149
0.00277659
0.000293339
0.00620973
0.00110641
0.000386837
0.00165904
0.0047849
0.000594229
0.000281
0.00466881
0.00070219
0.000802838
0.00112839
0.000967293
0.000756963
0.00473231
0.000882664
0.000263718
0.00612373
0.00387684
0.00345147
0.00098048
0.00098661
0.000799318
0.00269476
0.00091211
0.00511126
0.000282521
0.00155543
0.00070907
0.00151736
0.000145233
0.000397747
0.00444872
0.00429761
0.000510516
0.000330674
0.00567863
0.00572776
0.00089804
0.0002424
0.000747678
0.000540197
0.00039086
0.000364268
0.00107376
0.00257675
0.0015047
0.00230465
0.000394917
0.00112185
0.00430083
0.00562957
0.000987872
0.000380327
0.000602388
0.000859934
0.000719578
0.00424934
0.000887562
0.00128639
0.00421528
0.00613661
0.00118253
0.00116832
0.00484033
0.00620849
0.00111597
0.000745863
0.00620578
0.0014144
0.00111549
0.000733805
0.00124738
0.000330574
0.000536707
0.00557273
0.00380182
0.00143723
0.000925483
0.000478177
0.000680615
0.00265507
0.00270249
0.00361335
0.000984164
0.0067491
0.000322855
0.000238499
0.000802121
0.00272659
0.00615961
0.00166774
0.00105152
0.000235008
0.00129695
0.000535326
0.000249321
0.0039892
0.00299401
0.0173316
0.000516507
0.000421538
0.000479641
0.00253263
0.00112919
0.000269132
0.000278492
0.000950183
0.000372081
0.00078182
0.000648686
0.00271866
0.00594979
0.00090225
0.00447163
0.000396293
0.000395493
0.00110102
0.00560343
0.000487452
0.00227689
0.0059268
0.00583102
0.000398274
0.00127426
0.000420132
0.000467488
0.00114324
0.000575158
0.00566484
0.00398004
0.00412385
0.00168363
0.000554252
0.000460559
0.000572194
0.000474913
0.00038678
0.00663023
0.000413899
0.00564454
0.00072382
0.000529131
0.00534945
0.00145322
0.000691608
0.000326017
0.00089121
0.00224596
0.00439876
0.0004433
0.00395925
0.00189811
0.002061
0.000508243
0.00176696
0.00443337
0.00278635
0.00403722
0.00108272
0.00102195
0.0011979
0.0030959
0.000817086
0.000967297
0.000701536
0.000769199
0.00463833
0.00393363
0.000968719
0.000449252
0.00252433
0.00178798
0.000347395
0.000408285
0.00077726
0.00571123
0.0123613
0.00286799
0.000655688
0.000987233
0.000578992
0.00550984
0.00396793
0.000336835
0.000490852
0.00249133
0.00158547
0.00063036
0.000835719
0.00104423
0.00143158
0.000669765
0.000538841
0.00069345
0.000494252
0.000421635
0.00117943
0.0021172
0.00154302
0.000385976
0.00433491
0.00257627
0.00071731
0.00311712
0.000227407
0.000652739
0.000741834
0.000513552
0.000368834
0.001033
0.000902946
0.000617198
0.00334726
0.00527054
0.00126586
0.00149218
0.00586758
0.00105108
0.000500219
0.00115544
0.000340072
0.00629118
0.000529243
0.000477311
0.00116489
0.000991454
0.000353222
0.00626848
0.000343813
0.00576256
0.000722567
0.00619648
0.000609749
0.000208318
0.0010112
0.00600295
0.00289705
0.000878596
0.000228929
0.00264396
0.00281541
0.000820095
0.00146716
0.00431318
0.00137248
0.000253588
0.0023959
0.00239241
0.00494934
0.000549514
0.00123456
0.000179873
0.00038828
0.000628152
0.000716483
0.000642127
0.0053849
0.00426994
0.00522109
0.00108579
0.00185012
0.00402724
0.00585794
0.00260221
0.00602737
0.000732383
0.00602195
0.00105324
0.00194546
0.000477283
0.00240117
0.00168896
0.00400926
0.00269904
0.00171928
0.000859694
0.000388298
0.00924441
0.000904893
0.00589011
0.00040187
0.00048889
0.0014682
0.00105751
0.000556085
0.00103248
0.000928977
0.003147
0.00444237
0.000652066
0.00166199
0.00437053
0.00105526
0.000372152
0.00411649
0.00556163
0.000634886
0.00413949
0.0024411
0.00607574
0.00254288
0.00420388
0.0057471
0.00412081
0.00644155
0.000540047
0.00105005
0.00146599
0.00587938
0.000896716
0.000232017
0.000290185
0.000461195
0.000687937
0.00413927
0.000712687
0.00911249
0.00105545
0.00189935
0.000309253
0.00602062
0.000585939
0.000945564
0.00600716
0.00419307
0.000206568
0.000759893
0.00537682
0.000584839
0.000379655
0.00150606
0.000725087
0.00374804
0.000196428
0.00112262
0.00310269
0.000278459
0.000304506
0.00113136
0.000848881
0.000424771
0.000299393
0.00370526
0.000554364
0.000606525
0.000411159
0.00107956
0.00180216
0.000357336
0.00636491
0.000193444
0.00686961
0.0127764
0.00287459
0.000327266
0.000353066
0.00439077
0.000650289
0.000515938
0.00130217
0.000344135
0.00642804
0.00620259
0.00875272
0.00272465
0.00527004
0.000398052
0.00390832
0.000487436
0.00438555
0.0054443
0.00178231
0.00250704
0.000978098
0.000344284
0.00119926
0.00420647
0.0040152
0.000252627
0.000577482
0.00634391
0.000361129
0.00248973
0.000978207
0.00117726
0.000618293
0.00128345
0.000621991
0.000774432
0.00111498
0.00318699
0.00374697
0.00306575
0.00424137
0.000464523
0.0010138
0.00233969
0.00256821
0.000615956
0.000275968
0.000464722
0.00251768
0.000199059
0.00538548
0.00281103
0.000388524
0.00392079
0.00106452
0.000898227
0.000348994
0.00082205
0.000605214
0.000829978
0.000944291
0.000848961
0.000470831
0.000767871
0.00583385
0.00539882
0.000424731
0.000552586
0.00051455
0.000868222
0.000664717
0.0057618
0.000457578
0.00027061
0.000579729
0.000876793
0.00413531
0.00253005
0.003332
0.000317334
0.00231138
0.000609698
0.0058276
0.000184953
0.00402264
0.0010925
0.00147354
0.00269909
0.000360596
0.000717474
0.0040039
0.00561998
0.000416175
0.00839305
0.000774837
0.000956833
0.00108301
0.000511386
0.00124515
0.000448626
0.00544604
0.00060818
0.000204847
0.00169601
0.00596708
0.000660464
0.000336213
0.00108318
0.000424988
0.00409061
0.000926251
0.00528719
0.000653441
0.00041306
0.000482901
0.000106622
0.003865
0.00589288
0.00218478
0.00118746
0.00389638
0.000501883
0.00404293
0.000364067
0.00268357
0.00589422
0.000598589
0.000549145
0.00104973
0.00136274
0.000267932
0.000314182
0.00440362
0.00169704
0.00549685
0.00207257
0.00139718
0.00165346
0.000430137
0.00654759
0.00369812
0.0022425
0.00207036
0.00055153
0.000318555
0.000610888
0.00646233
0.000115192
0.000484968
0.00047729
0.00297108
0.000267499
0.00124459
0.000487128
0.000962458
0.00229187
0.00247556
0.000526732
0.00374398
0.000824656
0.000928017
0.000355645
0.000557607
0.000654711
0.00135251
0.00407449
0.00167117
0.00271732
0.00574052
0.000329927
0.00383002
0.000598007
0.00586085
0.00372728
0.00270062
0.00146255
0.000390606
0.00385487
0.0055111
0.000549306
0.00118982
0.00104751
0.00058683
0.00565546
0.00105882
0.00409188
0.000460349
0.000753336
0.00245725
0.000719467
0.000996046
0.000552032
0.000878487
0.00102956
0.000479039
0.0010261
0.00022123
0.00484518
0.00625892
0.000311136
0.00671322
0.000230663
0.000302291
0.00109955
0.00162714
0.000253871
0.00415467
0.00171893
0.00267942
0.000902587
0.00343682
0.000143372
0.00162154
0.00144422
0.000550777
0.003825
0.000386834
0.000255692
0.0010138
0.000360872
0.00608382
0.0057143
0.000856538
0.000367374
0.00105202
0.000697
0.00685836
0.00185246
0.00217511
0.00160912
0.000878507
0.00421986
0.000318628
0.000582799
0.00422702
0.00497071
0.00167825
0.000970634
0.0058957
0.000286007
0.0036815
0.00615541
0.00113406
0.00115829
0.0015894
0.000508947
0.00111744
0.000398558
0.00134278
0.000384756
0.000499069
0.00101001
0.00042522
0.00590664
0.00409473
0.000269762
0.000988795
0.000536994
0.00591818
0.00583095
0.000280657
0.00513316
0.000509137
0.000887351
0.00159409
0.00386461
0.00224224
0.00124338
0.000429192
0.000569535
0.000280965
0.00249467
0.00568019
0.00109128
0.00601942
0.00330967
0.00404393
0.00375111
0.000756104
0.00183095
0.000415766
0.000488768
0.000805912
0.000763697
0.000849756
0.000789918
0.00269769
0.0012188
0.000900191
0.000847212
0.00418621
0.000474709
0.00606332
0.000992936
0.00385225
0.000572009
0.000284319
0.0094536
0.00531488
0.000881175
0.002689
0.00604247
0.000344681
0.00567161
0.00266966
0.00100948
0.000781864
0.00161834
0.00389402
0.000545765
0.00257905
0.0015375
0.000759282
0.000765135
0.00109894
0.0038312
0.000209399
0.000274359
0.00177869
0.000684827
0.00082129
0.000684267
0.0018544
0.00593002
0.00389173
0.000383805
0.00163436
0.000315779
0.00355799
0.0011057
0.00238129
0.00022846
0.000286314
0.00102222
0.00262907
0.00237974
0.00586998
0.000542507
0.000150013
0.00251151
0.000356146
0.00578875
0.00055786
0.000985915
0.00623715
0.000451724
0.00038053
0.000664547
0.00996285
0.00657088
0.00462925
0.00248561
0.00231262
0.00612757
0.00561229
0.00653003
0.00104623
0.000948077
0.000552118
0.000852271
0.000547155
0.00592171
0.000535512
0.000288385
0.00596244
0.00607708
0.00589104
0.00117861
0.00534099
0.000638014
0.00456316
0.00192425
0.00106006
0.00355132
0.000898294
0.000617318
0.00149583
0.000240897
0.00060847
0.00110388
0.00283869
0.000514853
0.000478376
0.000709468
0.00595105
0.00143327
0.000518059
0.000179419
0.000442785
0.00131403
0.00239548
0.00419519
0.00624369
0.000680215
0.00176236
0.0012578
0.000654001
0.00333377
0.000443394
0.00288856
0.000512196
0.000903181
0.00358913
0.00342224
0.00124971
0.000438908
0.000638966
0.000634693
0.0012376
0.00212177
0.000206881
0.000591993
0.000298846
0.000450829
0.000302782
0.00139412
0.000974898
0.000210322
0.00590754
0.00386119
0.00662019
0.000630462
0.000448525
0.000814788
0.00264518
0.000400526
0.0033462
0.00237529
0.00573223
0.000234097
0.000980911
0.000824713
0.00571485
0.00329524
0.00304528
0.00574322
0.00362556
0.000993089
0.00124223
0.0053862
0.00408619
0.00246821
0.0016337
0.00112192
0.000345798
0.000799258
0.000518726
0.000210455
0.000745205
0.00400345
0.0016977
0.000399163
0.000236405
0.000361962
0.00023797
0.000726376
0.00161777
0.000407183
0.00259044
0.00410308
0.000652428
0.000876584
0.00622739
0.00110979
0.00574146
0.000381695
0.000444454
0.000789701
0.000826023
0.00262697
0.00619365
0.00268459
0.00179726
0.00132997
0.000519156
0.000651379
0.00460171
0.00114294
0.000651106
0.00109711
0.000438656
0.00562868
0.0024665
0.000424946
0.000818916
0.00131164
0.001017
0.000780284
0.000326703
0.000265844
0.00070454
0.000879281
0.00116528
0.000413373
0.00107875
0.00545023
0.00566535
0.00121975
0.00042947
0.000836945
0.000902403
0.00568538
0.000518361
0.000170675
0.000448978
0.000965227
0.000568366
0.000188923
0.000346027
0.00118747
0.00042475
0.00022351
0.00351933
0.000388119
0.000281766
0.00584844
0.000209667
0.000455602
0.000346767
0.000325804
0.000905155
0.0045708
0.00078802
0.00115971
0.00102536
0.00126389
0.000697457
0.000147254
0.00105618
0.000183042
0.00581798
0.000185179
0.00376493
0.00416019
0.000218223
0.00549298
0.00124776
0.000699999
0.000912876
0.00263682
0.000818558
0.00584984
0.000288325
0.00389691
0.000815387
0.000441843
0.000368958
0.000976885
0.000438027
0.000559213
0.00143532
0.000604653
0.000569397
0.000534436
0.00398741
0.00108624
0.00139038
0.0011598
0.00252351
0.000221254
0.000693667
0.000784801
0.00569156
0.000391662
0.00601282
0.00123656
0.00553457
0.00378937
0.000624627
0.000272035
0.000395299
0.000477826
0.00497726
0.000832437
0.00555925
0.00517166
0.000393959
0.00289225
0.000936676
0.000269598
0.000525208
0.00588797
0.00248139
0.00416369
0.00121084
0.000847023
0.00224678
0.000349143
0.00100622
0.00247253
0.00172711
0.00529136
0.00040977
0.000839996
0.00118521
0.000391839
0.00115703
0.000854818
0.000270283
0.00127301
0.000409556
0.00133981
0.00066137
0.000997662
0.00104108
0.00117801
0.000739657
0.000341788
0.000635349
0.000514411
0.00124567
0.000489097
0.00411357
0.000748601
0.00128674
0.00228312
0.000255006
0.00159732
0.0104104
0.00065203
0.00103318
0.000884219
0.00031589
0.00369975
0.000337042
0.000683685
0.000616052
0.000892771
0.00262557
0.00264091
0.000270557
0.0038528
0.00416986
0.00616339
0.000200609
0.000677426
0.00120672
0.000299687
0.000254926
0.00025635
0.00290759
0.000512084
0.00100768
0.00111674
0.00145963
0.00160217
0.00452759
0.00644211
0.00611588
0.00211245
0.000745964
0.00141516
0.00134667
0.00104393
0.000591925
0.000909969
0.00594838
0.001972
0.000995039
0.00104326
0.00155498
0.00247176
0.00296325
0.000201278
0.00360367
0.000692858
0.000348037
0.000742473
0.000566672
0.000916167
0.00213584
0.000713419
0.0016393
0.000855512
0.00046233
0.00117214
0.00260379
0.0039624
0.00107403
0.00168041
0.00260271
0.00425114
0.000939822
0.00521424
0.00102229
0.000492489
0.00348901
0.00134471
0.00165595
0.000589424
0.00027253
0.00096634
0.000476502
0.000824752
0.00052699
0.00111248
0.000482617
0.00219522
0.00136039
0.00260155
0.00128705
0.000548493
0.00102103
0.000420051
0.000869289
0.00083153
0.00575993
0.000950171
0.00577561
0.00104112
0.000446161
0.000292414
0.000847617
0.000405082
0.00414801
0.00409939
0.000862028
0.0010419
0.00298008
0.000371244
0.00384958
0.000698148
0.000220356
0.000461681
0.000366217
0.000892932
0.000437759
0.000752564
0.00383747
0.00123889
0.00437322
0.00416597
0.00233522
0.00016965
0.000452924
0.00185954
0.00431944
0.00350911
0.000549003
0.000770892
0.00100041
0.00100712
0.00395488
0.00322076
0.00401737
0.00232081
0.00109907
0.00276173
0.000462591
0.00228055
0.00542881
0.000871193
0.00361417
0.00671078
0.00593092
0.000557336
0.000265524
0.00114472
0.00237312
0.00182297
0.00456143
0.000408447
0.00217369
0.000696259
0.000515537
0.00627503
0.000266784
0.000867485
0.000716426
0.000503881
0.000198316
0.00111827
0.000467384
0.000922847
0.0003479
0.00577971
0.00100393
0.00267916
0.000393268
0.00458985
0.00115242
0.000179556
0.00159376
0.000487973
0.00567273
0.000386949
0.00051985
0.00105535
0.000368939
0.000596905
0.000444482
0.000609413
0.000283194
0.0011982
0.00263686
0.00266237
0.000350261
0.00102072
0.000311828
0.000406492
0.000723032
0.000653078
0.000416363
0.00417628
0.00036784
0.00154912
0.0046501
0.000288854
0.00473725
0.000319446
0.00220904
0.00377308
0.00035608
0.00369489
0.00547652
0.00572802
0.00437838
0.00395176
0.00094266
0.000732726
0.00133199
0.000239848
0.00256256
0.000759521
0.00152687
0.000694769
0.00597851
0.000229049
0.00050415
0.000292467
0.000665866
0.0054266
0.00407739
0.000230487
0.00565255
0.00121183
0.00394825
0.000286798
0.00202874
0.00152618
0.00158526
0.000586222
0.00394415
0.00559587
0.00408975
0.000341023
0.00238144
0.00574177
0.000435708
0.000964958
0.00548979
0.000825599
0.00479651
0.00018945
0.000277214
0.0012239
0.000831614
0.00937359
0.000471888
0.00435351
0.00130489
0.000496446
0.000422011
0.000721791
0.000972323
0.000467308
0.00481147
0.000346615
0.000600372
0.00156012
0.00146531
0.00253002
0.00593529
0.000628619
0.000525191
0.000964204
0.00210131
0.000415293
0.00630507
0.00561482
0.00381842
0.00097661
0.00446559
0.000337205
0.00607319
0.00380857
0.000519352
0.00257643
0.00403069
0.00418419
0.000219325
0.00053226
0.00143161
0.00259556
0.00030993
0.000466835
0.000377983
0.000400838
0.000606059
0.00104054
0.00129751
0.00612549
0.000578744
0.0013155
0.00230389
0.00491355
0.00100615
0.000827338
0.000688865
0.000472993
0.0064569
0.000427781
0.000266374
0.00616825
0.000347204
0.000781282
0.000480889
0.00338686
0.000961265
0.00347858
0.00129745
0.00234933
0.00570096
0.00118675
0.000606965
0.00224962
0.000244333
0.000714214
0.000711683
0.00106433
0.00270926
0.00557182
0.000927106
0.000393113
0.000311396
0.000673097
0.0027072
0.000241453
0.00278905
0.00222874
0.000374658
0.00218981
0.000505607
0.000591756
0.000533406
0.00396869
0.00595127
0.00116316
0.000737242
0.00344738
0.00454585
0.000957789
0.000519608
0.000443422
0.00601162
0.00096094
0.000677174
0.000803882
0.000521098
0.000282052
0.000402784
0.00151927
0.000229393
0.00072013
0.00104449
0.00555118
0.00619693
0.000362383
0.000601132
0.000436536
0.00057061
0.000897397
0.000578726
0.00111499
0.000658425
0.000445736
0.00091646
0.000633073
0.000577087
0.00080485
0.000809313
0.000782793
0.000775024
0.00517236
0.000229197
0.000285824
0.000234714
0.000281098
0.000304537
0.000822168
0.0039277
0.000278486
0.000759309
0.00038302
0.00023525
0.00397122
0.00156304
0.000481625
0.00640046
0.000489709
0.00428842
0.00033389
0.000291457
0.000153426
0.00022645
0.000296645
0.00387926
0.00584014
0.00986076
0.00175806
0.00385569
0.000479329
0.000804761
0.00370905
0.00187521
0.000555809
0.00135441
0.000341788
0.000266346
0.0015017
0.00146333
0.000734484
0.00614097
0.000928047
0.00398606
0.0062509
0.000534472
0.00220214
0.00065097
0.000565512
0.0011703
0.000756461
0.00106431
0.000331581
0.000423729
0.000324879
0.00315189
0.00486804
0.000432532
0.000652811
0.000577243
0.00150074
0.00100298
0.000796277
0.000419899
0.000546571
0.000562037
0.000989278
0.000562282
0.00126059
0.000206462
0.000322145
0.000495555
0.000705425
0.00420147
0.000324306
0.000305587
0.000448476
0.00106569
0.000262506
0.00106922
0.00398373
0.000235813
0.00216049
0.00327812
0.00044607
0.00106966
0.00121247
0.000827748
0.00023384
0.00568913
0.000764523
0.000548548
0.000752085
0.00232645
0.000814315
0.00125559
0.000233828
0.0013054
0.000500592
0.000207326
0.000398262
0.00628631
0.000278
0.000345048
0.000679557
0.000762505
0.000388946
0.000466108
0.0123967
0.00134289
0.00371932
0.00018033
0.000886238
0.00061267
0.000609295
0.000831794
0.00124771
0.00345409
0.00546957
0.000670805
0.000576794
0.00889951
0.00380322
0.000275609
0.000357632
0.00290088
0.000421775
0.000159511
0.000143433
0.000244981
0.00605027
0.000319331
0.00182982
0.00395954
0.000626039
0.00242433
0.000864787
0.00557325
0.00413434
0.000937972
0.00262016
0.000315088
0.00290918
0.000510036
0.00423429
0.00468795
0.000316302
0.00540851
0.00283499
0.000204938
0.00553986
0.00047005
0.00322379
0.0023123
0.0029125
0.000952808
0.00438309
0.00435968
0.000331571
0.000711174
0.000395907
0.00284526
0.00045023
0.000940471
0.000304679
0.00230848
0.000675661
0.0015978
0.000715268
0.000897663
0.00046281
0.00019709
0.00065813
0.00710272
0.000269843
0.000393995
0.000476171
0.00460463
0.000219092
0.00657626
0.000973507
0.000949813
0.00100781