/*--------------------------------*- C++ -*----------------------------------*\
| =========                 |                                                 |
| \\      /  F ield         | OpenFOAM: The Open Source CFD Toolbox           |
|  \\    /   O peration     | Version:  2406                                  |
|   \\  /    A nd           | Website:  www.openfoam.com                      |
|    \\/     M anipulation  |                                                 |
\*---------------------------------------------------------------------------*/
FoamFile
{
    version     2.0;
    format      ascii;
    arch        "LSB;label=32;scalar=64";
    class       volVectorField;
    location    "46";
    object      momentum:angularMomentum;
}
// * * * * * * * * * * * * * * * * * * * * * * * * * * * * * * * * * * * * * //

dimensions      [1 1 -1 0 0 0 0];

internalField   nonuniform List<vector> 
59516
(
(-1.12303e-09 -1.23614e-09 2.24994e-07)
(5.93178e-10 -4.1381e-10 1.68118e-07)
(-7.69449e-10 1.4701e-09 2.05125e-07)
(-3.22515e-09 -5.36738e-10 1.73851e-07)
(-8.01229e-09 5.35323e-10 2.00096e-07)
(-5.20283e-09 2.76954e-09 5.03646e-08)
(-2.87837e-09 -2.51505e-09 2.10675e-07)
(-6.06071e-10 -1.26889e-09 1.97273e-07)
(-1.34965e-09 2.25864e-10 1.57941e-07)
(3.13095e-09 1.59884e-09 8.01821e-08)
(-3.10656e-09 -3.93591e-10 2.08208e-07)
(-4.92435e-09 -3.82811e-09 1.02253e-07)
(-2.50702e-09 -1.79037e-09 3.23708e-07)
(6.63963e-11 -1.65725e-10 1.57402e-08)
(4.65864e-10 -9.0229e-09 1.52768e-07)
(-2.37888e-09 6.05261e-09 8.52401e-08)
(-2.78669e-09 -6.66468e-10 2.67977e-07)
(-1.29713e-08 -3.61109e-09 1.59841e-07)
(-1.68155e-08 -3.67948e-09 3.30173e-07)
(-1.20882e-09 1.3575e-09 3.71039e-07)
(-2.52959e-09 1.18439e-09 9.97882e-08)
(8.10868e-10 1.46196e-09 3.18487e-07)
(-4.00408e-09 -1.57265e-09 3.51439e-07)
(9.20991e-10 5.87169e-10 3.49998e-08)
(6.03394e-10 1.52494e-09 3.11582e-07)
(-6.45614e-10 4.80426e-09 2.02329e-07)
(-6.73383e-10 3.6662e-09 5.25478e-08)
(-5.79667e-09 -2.50401e-09 7.4203e-08)
(-5.6517e-09 -2.02429e-09 1.44926e-07)
(1.69602e-09 1.36639e-09 1.35534e-08)
(-3.76134e-08 2.10711e-09 1.89443e-07)
(-5.37742e-09 4.10248e-09 8.38154e-08)
(-1.05482e-09 -4.11655e-10 1.74954e-07)
(-3.3824e-09 -1.6601e-09 1.7579e-07)
(-6.16417e-09 -1.09216e-10 1.33516e-07)
(-9.0855e-10 3.41107e-10 3.99491e-07)
(-1.97517e-09 1.0349e-09 1.31318e-08)
(-1.30214e-08 -4.13554e-09 1.31727e-07)
(-1.04213e-08 1.20958e-09 2.67265e-07)
(1.13885e-09 1.02601e-09 2.80562e-07)
(1.55478e-10 -1.66971e-09 2.5827e-07)
(-3.24804e-08 1.34316e-11 4.06835e-07)
(-1.09432e-08 2.20558e-09 3.43178e-07)
(-7.08206e-10 4.25047e-10 1.1127e-07)
(-8.83884e-09 1.47331e-09 2.65141e-07)
(2.70589e-09 7.48905e-10 1.02842e-07)
(-1.23007e-08 3.12894e-10 3.24837e-07)
(-7.3379e-09 1.0668e-09 2.53959e-07)
(-3.43997e-08 3.11338e-09 2.51865e-07)
(-1.34795e-08 3.07993e-10 2.4077e-07)
(-2.81981e-08 8.22501e-10 1.63911e-07)
(-7.06241e-09 -3.38291e-09 7.67565e-08)
(7.70454e-10 -6.56081e-09 3.16623e-07)
(-8.29052e-10 1.08473e-09 3.01564e-07)
(-4.99743e-09 1.22753e-09 8.25002e-08)
(-5.31905e-09 8.37587e-10 2.46353e-07)
(-1.66578e-08 -3.97661e-12 2.03304e-07)
(-7.59157e-09 -2.82879e-09 7.8076e-08)
(-3.59919e-10 -2.96888e-10 2.07745e-07)
(-1.10007e-08 -4.18998e-10 1.45737e-07)
(-1.82548e-10 6.3259e-10 2.08468e-07)
(-1.17956e-09 1.63448e-09 1.53809e-08)
(-9.36523e-10 6.60911e-10 2.65249e-07)
(-6.02138e-09 1.75484e-10 3.41211e-07)
(-1.2375e-09 1.05012e-09 2.92774e-07)
(-9.16656e-09 1.64107e-10 2.15067e-07)
(1.44429e-10 2.07516e-09 1.82689e-08)
(-2.11618e-10 4.85108e-10 6.66272e-08)
(-3.7235e-08 6.10474e-10 1.983e-07)
(-3.8069e-09 -1.10904e-09 1.69282e-07)
(-8.94559e-10 -1.23812e-09 5.25705e-08)
(-1.56923e-09 -7.90201e-10 1.57217e-07)
(3.59598e-09 -1.44452e-09 2.3488e-08)
(-1.3829e-09 -5.01781e-10 1.86197e-07)
(2.05537e-11 -5.9345e-10 3.74137e-07)
(-7.79626e-09 4.53567e-10 3.60005e-07)
(-5.44595e-09 1.64845e-10 2.1436e-07)
(9.10028e-11 1.98214e-10 2.2639e-07)
(3.42573e-09 1.87772e-09 8.55732e-08)
(-1.04614e-08 9.3624e-10 1.9284e-07)
(-3.43026e-09 2.83676e-11 5.11003e-08)
(-8.40569e-09 4.98508e-10 1.71237e-07)
(-7.90374e-09 5.31906e-10 1.82703e-07)
(-2.32926e-09 1.25522e-09 1.82918e-08)
(-1.03291e-08 1.15111e-09 2.14911e-07)
(1.08102e-10 1.60269e-09 3.79147e-07)
(6.18153e-10 1.09684e-09 3.18528e-08)
(8.79614e-10 4.60041e-10 5.02784e-07)
(-4.22148e-09 -2.29675e-09 1.11048e-07)
(-1.54424e-08 -3.85716e-09 1.6683e-07)
(-1.6039e-08 -3.48349e-11 1.83411e-07)
(-1.62887e-09 1.71648e-09 1.89172e-07)
(-2.85316e-10 4.39027e-11 2.58535e-07)
(-2.07315e-10 1.69175e-09 1.82492e-07)
(-3.05141e-10 3.67063e-10 1.82222e-07)
(-1.88208e-08 -1.07722e-10 1.83439e-07)
(-5.05684e-10 -3.89862e-10 1.2445e-07)
(3.36207e-09 6.52323e-09 8.5451e-08)
(-4.30878e-09 -1.7715e-09 1.15393e-07)
(2.00242e-09 1.60581e-09 2.07535e-07)
(-2.0572e-09 1.52127e-09 6.25009e-08)
(2.94745e-09 1.51123e-09 2.65979e-08)
(2.96082e-09 1.55562e-09 2.35108e-08)
(-3.13475e-09 3.59433e-09 8.5399e-08)
(1.26122e-09 -1.03682e-10 2.34388e-07)
(-1.48421e-10 -2.85235e-10 1.6337e-07)
(2.61299e-09 -4.58927e-09 5.57332e-08)
(-9.44548e-10 -5.61788e-10 1.38237e-07)
(-5.2407e-10 1.14209e-09 1.76386e-07)
(-4.16615e-09 6.56265e-09 1.89931e-07)
(-4.19756e-08 -5.23296e-10 2.80291e-07)
(3.27077e-09 -3.03033e-09 4.34453e-08)
(-7.29864e-09 9.41198e-09 1.88806e-07)
(-3.61643e-08 -8.43152e-11 2.19223e-07)
(9.1946e-11 -9.00356e-11 2.20654e-07)
(1.37708e-09 -1.61604e-09 1.37998e-07)
(-4.28688e-09 -2.64702e-09 1.27313e-07)
(-4.52488e-10 -7.20642e-10 1.44094e-07)
(-3.37782e-10 -8.69398e-10 1.85199e-08)
(-1.59713e-09 1.71943e-09 2.62398e-07)
(1.20457e-09 2.37222e-10 4.08354e-07)
(-4.37003e-10 4.99258e-10 1.7585e-07)
(7.80657e-10 4.62503e-10 1.59655e-07)
(-7.68472e-10 4.59945e-10 1.82553e-07)
(-1.80543e-08 1.17909e-09 1.33037e-07)
(-5.13123e-09 1.72915e-10 1.43956e-07)
(-2.22054e-09 -1.02584e-09 3.61048e-08)
(-2.07652e-08 3.21946e-09 2.12187e-07)
(-2.37422e-08 5.58426e-09 1.63203e-07)
(3.88731e-10 -2.41386e-10 1.5937e-07)
(2.32508e-10 -5.41775e-10 2.82802e-07)
(4.66042e-09 5.66862e-09 3.24789e-07)
(-5.25608e-10 -1.99449e-09 2.28449e-08)
(5.62421e-10 9.71131e-10 2.55445e-07)
(3.79842e-09 1.05598e-09 3.16154e-07)
(-3.17687e-09 1.77322e-09 1.97681e-07)
(-2.19714e-08 1.99134e-09 1.51797e-07)
(4.86053e-10 1.23796e-09 3.1382e-07)
(-4.89735e-10 3.56232e-09 5.23376e-08)
(-1.54897e-09 1.42215e-09 1.59589e-07)
(-1.74333e-09 3.80317e-09 7.66437e-08)
(-9.3451e-10 -7.40742e-10 3.29614e-07)
(-6.68217e-10 -1.19066e-09 1.39855e-08)
(-5.07928e-10 1.36735e-09 1.50821e-07)
(-9.52844e-10 3.42473e-10 2.16313e-07)
(-3.11053e-09 1.41934e-09 2.83666e-07)
(-7.60078e-09 1.95876e-09 2.02963e-07)
(-5.02139e-09 2.1466e-09 2.05858e-07)
(9.76215e-10 -1.81796e-09 6.40334e-08)
(-3.30045e-10 2.15253e-09 2.07612e-07)
(-1.68225e-10 -2.60696e-09 3.19683e-07)
(2.55749e-10 1.97194e-09 5.26816e-08)
(2.32315e-09 2.40989e-09 3.85979e-07)
(7.14785e-10 2.99758e-10 2.18152e-07)
(-1.18397e-09 -3.5627e-09 1.59455e-07)
(-1.3872e-09 8.33539e-10 1.47275e-08)
(-3.87778e-10 -5.60128e-10 2.78432e-07)
(-3.25146e-09 2.13941e-09 3.31137e-07)
(-1.70088e-09 8.55745e-10 1.29272e-07)
(-2.29154e-09 -1.62926e-09 1.58641e-08)
(3.80769e-09 3.359e-09 8.91632e-08)
(6.29444e-09 -3.53585e-09 1.11933e-07)
(-7.03932e-10 1.53077e-09 3.99846e-08)
(-2.12419e-10 -4.33887e-10 2.25457e-08)
(4.93343e-09 1.25897e-10 1.63421e-07)
(-2.00204e-09 7.50896e-10 3.27997e-07)
(2.09061e-09 -6.00891e-11 1.56152e-07)
(-1.11465e-09 -5.0624e-10 2.81865e-07)
(1.03003e-09 2.01469e-09 1.7291e-08)
(-9.47598e-11 -8.83306e-10 2.14937e-07)
(-1.41263e-09 -1.17827e-09 8.72544e-08)
(-1.13178e-09 8.67789e-10 6.73852e-08)
(-8.46281e-11 -3.02329e-09 1.0633e-07)
(3.87328e-10 -7.04431e-10 1.51483e-07)
(8.13056e-10 1.15546e-09 8.5383e-08)
(-1.81053e-08 -1.85198e-09 4.5323e-07)
(-1.40288e-09 5.97907e-10 2.48279e-07)
(-1.3297e-08 1.23271e-09 3.09943e-07)
(9.36195e-10 -7.12709e-09 1.49006e-07)
(7.30915e-10 4.90201e-10 6.25716e-08)
(-2.48816e-09 -3.97798e-09 3.07818e-07)
(1.14891e-09 3.96449e-09 4.28255e-08)
(-1.05593e-09 -2.13892e-09 2.99308e-08)
(9.70639e-10 2.5308e-09 1.05137e-07)
(1.60086e-10 -6.20677e-10 2.05727e-07)
(-6.28076e-10 1.12431e-09 9.75021e-08)
(-3.59811e-09 7.31962e-10 4.60577e-08)
(1.35649e-10 2.31871e-10 2.02824e-08)
(-1.79724e-10 1.23757e-10 1.9128e-07)
(3.53565e-09 1.9817e-09 2.26283e-07)
(-3.33792e-09 -3.09595e-10 1.58732e-07)
(-2.08414e-09 -6.69443e-09 1.15235e-07)
(-7.28385e-10 -5.09454e-10 2.15176e-07)
(2.75349e-09 -2.30764e-09 9.45026e-08)
(-5.06914e-10 -4.89568e-11 3.39758e-07)
(4.13199e-10 7.2905e-10 2.87375e-08)
(1.29305e-09 3.43196e-10 9.73469e-08)
(4.35323e-10 -1.54805e-09 5.6864e-08)
(-7.87512e-09 -3.23707e-10 1.86068e-07)
(9.01925e-10 -1.09003e-09 2.64854e-07)
(-1.61764e-09 -2.14924e-09 7.74684e-08)
(-7.18334e-10 -4.22933e-10 1.93818e-07)
(5.72626e-10 3.4815e-09 3.13071e-07)
(1.36075e-09 -1.58475e-09 1.60319e-08)
(1.53316e-09 1.55206e-09 2.20544e-07)
(-3.34817e-10 -4.6436e-10 2.39054e-07)
(4.50317e-11 -6.02386e-10 3.50968e-07)
(1.32713e-09 -1.23792e-09 1.99324e-07)
(1.73956e-10 -5.6691e-10 1.82023e-08)
(4.72448e-09 2.49611e-09 3.02789e-07)
(-6.0636e-10 5.68484e-09 6.07292e-08)
(-4.10268e-09 8.48085e-10 2.51591e-08)
(-1.61156e-09 1.67862e-09 2.32183e-07)
(-5.22556e-10 2.32736e-09 9.52935e-08)
(-1.99966e-09 -3.04128e-09 2.94048e-07)
(2.28688e-10 -3.72614e-10 2.89111e-07)
(-2.10335e-09 8.6141e-10 2.72959e-07)
(-1.54018e-09 1.16297e-09 2.07966e-07)
(-2.66255e-09 4.85734e-09 8.31999e-08)
(1.17458e-09 -2.60278e-11 2.19259e-07)
(-2.1693e-09 -5.78288e-09 1.19133e-07)
(-3.19213e-10 5.63305e-10 1.95268e-07)
(-8.34915e-10 -9.52368e-10 1.80355e-07)
(8.04996e-10 -1.06982e-09 7.40898e-08)
(-1.49455e-10 -4.96523e-10 2.97905e-07)
(1.44066e-09 3.37019e-10 3.11611e-07)
(-1.15152e-09 -1.19895e-09 3.18711e-08)
(-3.63182e-09 8.29889e-10 6.53677e-08)
(1.83962e-10 9.31088e-10 2.00195e-07)
(-4.49444e-09 7.6042e-09 1.17678e-07)
(3.5508e-10 8.16436e-10 2.42865e-07)
(-4.06795e-10 3.25849e-10 1.80775e-07)
(-1.4275e-09 -8.58673e-10 3.22197e-07)
(-1.30322e-09 -2.22425e-09 2.67381e-08)
(-1.28488e-09 -1.14276e-09 3.12397e-08)
(-1.73091e-09 1.11292e-11 3.91318e-08)
(1.64484e-10 -6.93092e-10 1.09126e-07)
(-2.40902e-09 -4.44009e-10 1.74521e-07)
(-4.17301e-09 1.08712e-09 4.20661e-07)
(2.93029e-09 -4.39133e-10 8.66557e-08)
(7.57771e-10 4.40796e-10 2.53443e-07)
(2.27311e-09 1.61333e-09 1.87198e-08)
(1.48967e-09 1.0989e-09 1.09898e-07)
(2.54146e-09 1.5379e-09 2.68232e-08)
(6.81897e-10 2.65148e-10 1.65871e-07)
(-5.87613e-10 -7.81652e-10 1.52665e-07)
(-1.22857e-09 2.99158e-10 1.97222e-07)
(-2.02036e-09 4.39528e-09 1.85882e-07)
(-4.83472e-10 -1.79833e-10 2.79392e-07)
(-8.41509e-10 -5.36859e-10 1.9966e-07)
(1.29577e-09 -1.87954e-10 3.82906e-07)
(-9.38523e-10 1.88754e-10 2.13228e-07)
(7.11679e-10 2.96147e-10 1.95116e-07)
(5.35897e-10 1.53988e-09 2.82067e-07)
(-1.32758e-09 2.59435e-09 2.83105e-07)
(-8.1999e-10 1.08815e-09 3.01093e-07)
(-5.4647e-10 6.62705e-11 1.11639e-07)
(-3.49836e-09 7.8723e-10 2.84694e-07)
(2.36609e-09 3.84253e-09 8.04248e-08)
(-4.71605e-10 3.48278e-09 9.76363e-08)
(-1.88779e-09 1.07233e-09 2.18488e-07)
(-4.37088e-10 9.20294e-10 2.63004e-07)
(6.83623e-09 1.55415e-09 2.3887e-07)
(5.98029e-10 6.41124e-10 2.8683e-07)
(1.62324e-09 7.41952e-11 7.44225e-08)
(-5.48874e-11 -5.07423e-09 1.06881e-07)
(-1.0633e-09 -2.0206e-09 3.05324e-07)
(4.67044e-09 3.02807e-10 2.14414e-07)
(-7.366e-10 -1.15946e-09 6.12447e-08)
(-6.36674e-10 2.02504e-09 7.41027e-08)
(-4.02321e-09 3.84177e-09 1.64821e-07)
(-5.43594e-10 -3.76116e-10 1.87953e-07)
(-4.65908e-09 5.7803e-09 3.07263e-07)
(-1.06392e-09 2.44463e-09 1.48627e-07)
(-2.21439e-09 -4.61862e-10 3.35659e-07)
(1.20723e-10 5.2116e-09 1.90048e-07)
(-1.13136e-09 -2.40396e-09 1.93795e-08)
(1.44607e-09 1.01144e-09 2.98606e-07)
(2.42759e-09 -1.86011e-09 2.86304e-08)
(2.25968e-09 1.17238e-09 5.20213e-08)
(-1.78835e-09 -7.62066e-10 3.56867e-07)
(-6.72527e-10 4.13341e-11 2.50314e-07)
(-3.71186e-09 1.95248e-09 2.76098e-08)
(-3.24331e-10 -2.50898e-09 2.97858e-07)
(-2.38269e-09 -4.1537e-09 2.46033e-07)
(-2.33019e-09 7.99271e-10 2.50339e-07)
(9.73573e-10 -7.17078e-10 3.27398e-07)
(1.95285e-09 -1.97976e-09 2.30302e-08)
(-1.7866e-11 1.01752e-09 2.8218e-07)
(-2.88505e-10 -2.60834e-10 1.50217e-07)
(-4.26718e-10 -6.34914e-10 1.60511e-07)
(-1.8844e-09 4.07681e-10 2.52993e-07)
(-1.45311e-09 1.046e-09 1.70404e-07)
(-7.16626e-10 -7.28731e-10 1.76635e-07)
(2.29071e-10 -1.55342e-09 2.66832e-07)
(4.32277e-12 2.24291e-09 3.84183e-08)
(1.25254e-10 -1.38656e-09 2.83451e-07)
(7.8371e-10 9.00806e-10 1.90274e-07)
(-8.02121e-10 -3.9523e-10 3.64726e-07)
(-1.14544e-09 9.93554e-11 2.68724e-07)
(1.3178e-09 -1.70516e-09 3.07772e-07)
(2.34116e-09 -2.82667e-09 1.35479e-07)
(-6.01359e-10 -1.25893e-09 1.96108e-08)
(8.84652e-10 5.32742e-10 3.52034e-08)
(-3.93423e-09 1.06799e-09 5.11192e-07)
(-2.60624e-09 1.06846e-09 1.8097e-08)
(-2.25159e-09 -2.15273e-09 1.71858e-07)
(-1.39483e-09 4.10973e-09 7.29326e-08)
(-7.92169e-10 -1.60699e-09 3.14899e-07)
(-1.11881e-09 -1.73896e-10 3.73724e-07)
(-6.14896e-10 1.13177e-09 3.14176e-07)
(2.28209e-09 1.46565e-09 1.21995e-07)
(7.89191e-09 8.39024e-12 2.94955e-07)
(1.14072e-10 7.17267e-09 6.72425e-08)
(5.41402e-10 -2.68992e-09 8.70263e-08)
(-3.31736e-10 8.87841e-10 1.99959e-07)
(6.96717e-10 -2.14688e-09 1.55464e-07)
(-3.19169e-08 -3.84245e-09 2.69475e-07)
(4.88264e-10 -4.46905e-09 1.91208e-07)
(-6.75041e-10 -8.18377e-11 6.36099e-08)
(3.52101e-09 -2.27412e-10 1.02208e-07)
(-1.30684e-09 -3.39332e-09 2.06129e-07)
(-3.26791e-10 -7.39367e-11 2.15869e-07)
(8.66785e-10 -2.36593e-09 4.22559e-07)
(-9.09691e-10 7.74236e-10 2.2539e-07)
(4.42378e-10 3.77819e-09 4.89138e-07)
(-1.01619e-08 -1.15197e-09 1.66654e-07)
(-2.8978e-09 -2.86885e-10 3.36721e-07)
(-2.27227e-09 1.09628e-09 2.77255e-07)
(9.08699e-10 2.9838e-10 1.97197e-07)
(2.06653e-09 2.51938e-10 3.37419e-07)
(-4.84514e-09 -4.15038e-09 1.02907e-07)
(2.86385e-09 -1.17376e-09 2.29534e-08)
(2.51859e-09 1.53884e-10 2.94018e-07)
(1.6779e-09 3.8408e-09 5.77241e-08)
(4.15939e-11 -1.28595e-10 2.79634e-08)
(-4.27532e-09 -8.82303e-11 3.94074e-07)
(6.93088e-10 4.18515e-10 1.99748e-07)
(-3.54244e-09 4.5784e-09 1.06473e-07)
(-8.01233e-10 -1.2447e-09 2.54416e-07)
(9.14303e-10 2.47253e-09 3.28264e-07)
(-2.18692e-09 7.08026e-10 4.24702e-07)
(-1.85826e-09 1.50155e-10 2.67556e-07)
(-1.06709e-10 -1.46461e-09 3.08434e-08)
(-7.97559e-11 1.07065e-11 3.16554e-07)
(-1.56651e-09 3.93877e-10 2.18903e-07)
(4.37073e-10 1.30851e-09 9.78812e-08)
(-3.92152e-10 -1.93955e-09 2.95421e-07)
(-7.05297e-10 6.44237e-10 2.51541e-07)
(8.71016e-10 7.49497e-10 1.73313e-07)
(9.85696e-10 1.22791e-09 1.9908e-07)
(-5.25126e-10 -3.21054e-09 2.76242e-07)
(1.07723e-09 1.54574e-09 2.0098e-07)
(-4.13912e-10 1.5558e-10 7.71062e-08)
(-3.91891e-10 9.74654e-10 1.98613e-08)
(3.55366e-10 2.81807e-09 3.88279e-08)
(1.12388e-09 -3.46644e-10 2.17851e-07)
(-3.91359e-08 -2.09785e-10 2.67842e-07)
(-1.14141e-08 1.19282e-09 1.15792e-07)
(4.77535e-10 -4.90971e-10 1.1065e-07)
(3.33773e-09 -2.84936e-09 2.46577e-07)
(-1.1129e-09 1.33309e-09 3.07569e-07)
(-6.28991e-09 4.80799e-10 2.31591e-07)
(1.01443e-09 2.06053e-09 3.59071e-07)
(-1.21944e-09 -1.69618e-09 3.36789e-07)
(2.29153e-11 -9.22081e-10 2.23428e-07)
(-8.49991e-10 -1.31513e-10 1.38387e-07)
(-3.22472e-10 6.89291e-10 2.35682e-08)
(-4.78725e-08 1.73298e-09 2.41063e-07)
(6.65335e-10 2.2436e-09 8.63953e-08)
(-1.48304e-09 2.48312e-09 6.30269e-08)
(1.38741e-09 5.30195e-10 6.66848e-08)
(2.63717e-10 6.89938e-10 1.73175e-07)
(-8.58617e-10 5.14708e-10 1.72301e-07)
(-1.78863e-09 6.52877e-10 2.35945e-07)
(-1.09152e-09 1.30258e-09 1.67376e-08)
(5.32037e-10 -4.43127e-10 1.69074e-07)
(1.67111e-09 -1.01217e-09 6.37112e-08)
(-2.22978e-10 3.47634e-10 1.86832e-07)
(-5.85981e-10 6.99548e-10 5.48203e-08)
(4.18723e-09 1.76907e-09 1.46102e-07)
(1.62548e-09 5.64884e-09 2.17071e-07)
(-1.95271e-09 -3.59178e-10 1.85359e-07)
(2.49285e-09 -1.90041e-10 1.8554e-08)
(-2.5131e-10 4.86362e-09 1.11251e-07)
(1.08562e-10 -1.11237e-09 2.38232e-07)
(6.93195e-11 -2.49341e-09 2.47566e-08)
(-2.09216e-08 -6.38232e-10 2.8955e-07)
(8.40406e-10 -4.15168e-09 1.81471e-07)
(-4.61993e-10 -4.76614e-09 3.02584e-07)
(4.85339e-09 -5.60681e-09 1.98561e-07)
(2.37779e-09 7.81519e-10 9.30755e-08)
(1.58066e-09 -5.37513e-10 3.93854e-07)
(-1.87252e-08 -5.94039e-09 1.42007e-07)
(-5.94812e-10 -2.10119e-10 3.30574e-07)
(-1.73927e-08 1.14069e-09 1.55496e-07)
(-5.13146e-09 3.77239e-09 1.40252e-07)
(-9.08951e-10 3.35155e-09 1.42467e-07)
(-6.13995e-11 -6.56087e-10 2.72834e-07)
(1.44289e-09 -1.52776e-09 5.41421e-07)
(9.29509e-10 -8.17419e-10 7.95684e-08)
(-9.37707e-10 -1.65275e-09 3.36405e-07)
(-2.71305e-09 8.99456e-10 1.19014e-07)
(1.58385e-10 -1.46482e-09 4.37396e-07)
(6.72971e-10 -1.79389e-09 3.33584e-07)
(-1.6074e-09 -5.35813e-09 6.91177e-08)
(-7.242e-10 1.61662e-09 2.17463e-07)
(6.17419e-09 -5.07506e-10 3.8129e-07)
(-1.00028e-09 -6.14451e-10 2.27893e-07)
(4.59388e-10 -1.1826e-09 2.21862e-07)
(2.70403e-09 -1.43924e-09 2.33693e-08)
(-2.56211e-09 -6.81328e-10 1.95871e-08)
(-3.44571e-09 3.15955e-09 2.92804e-07)
(2.34479e-11 -6.71865e-11 2.84614e-07)
(1.70978e-09 1.19533e-09 2.21485e-07)
(-2.32463e-09 1.24075e-09 3.54323e-08)
(6.8286e-10 -5.49682e-10 8.91723e-08)
(-3.43814e-09 -4.27874e-10 3.00884e-07)
(-1.9247e-10 -4.93039e-10 1.683e-07)
(1.38306e-10 1.45694e-09 3.10018e-07)
(1.22905e-09 1.61498e-10 2.85366e-07)
(9.25482e-12 -1.15058e-09 2.19114e-07)
(-3.80788e-10 -2.07588e-09 2.33484e-07)
(4.12223e-10 -7.77976e-10 1.213e-07)
(-8.23735e-10 4.61328e-10 2.13976e-07)
(-2.92445e-09 3.58162e-09 8.77026e-08)
(-8.28482e-10 2.49012e-10 2.88354e-07)
(-1.70948e-09 -1.0417e-09 1.89596e-07)
(-1.36748e-09 -4.5932e-10 2.14631e-07)
(-2.55051e-10 -2.05841e-10 2.21095e-07)
(-3.17847e-10 1.11437e-09 3.50175e-07)
(1.79059e-09 -1.3818e-09 2.65648e-07)
(2.91921e-09 4.38628e-09 6.74519e-08)
(1.16922e-09 2.7649e-12 4.4452e-08)
(-1.78653e-09 -1.82274e-09 1.93843e-08)
(-1.29027e-08 6.29849e-11 2.31808e-07)
(3.29683e-10 5.30067e-11 2.94402e-07)
(-2.04677e-09 4.04843e-10 2.71857e-07)
(-1.46672e-10 -1.50521e-09 1.92811e-07)
(1.09071e-09 2.16958e-10 2.9691e-08)
(6.89746e-10 -2.50174e-09 2.2398e-08)
(-9.47082e-10 -2.64514e-09 1.80706e-07)
(-1.67245e-09 1.5085e-09 2.32525e-07)
(-6.84826e-10 -1.58865e-09 3.107e-07)
(8.56253e-10 -2.729e-10 3.19767e-07)
(-2.10712e-09 7.09704e-11 1.9858e-07)
(-7.88215e-10 1.98796e-10 3.41715e-07)
(3.30395e-09 2.72545e-10 3.75081e-07)
(-1.34269e-09 2.72149e-09 3.15338e-08)
(2.55932e-10 1.14306e-09 1.82748e-07)
(3.3407e-09 -1.89993e-09 7.28433e-08)
(-9.91403e-09 -1.09275e-09 9.75766e-08)
(-3.76076e-10 2.40324e-10 1.284e-07)
(6.79572e-10 -4.09396e-10 1.42154e-07)
(-1.98949e-10 2.99044e-10 2.52593e-07)
(-3.25711e-09 2.05592e-09 1.93024e-08)
(8.30044e-10 -1.2479e-09 3.54704e-07)
(-5.15747e-10 -9.30574e-11 2.65981e-07)
(-8.42947e-10 -1.34372e-10 2.15168e-07)
(1.53457e-09 -1.45619e-09 2.01911e-07)
(5.133e-10 -1.77829e-09 1.71202e-07)
(-5.76474e-10 -1.15629e-09 2.60868e-07)
(-1.21329e-10 8.93569e-10 2.46735e-07)
(-1.47364e-09 6.5416e-10 3.02748e-07)
(-8.74571e-09 -9.43465e-10 1.66913e-07)
(-7.5202e-10 -6.21007e-10 2.6753e-07)
(-4.98875e-09 2.08554e-09 2.90268e-07)
(1.34977e-09 -1.15189e-09 1.84313e-08)
(1.49795e-10 2.44422e-10 3.04939e-07)
(2.23129e-09 2.76996e-09 1.91304e-07)
(-4.12139e-09 -3.84024e-09 6.45635e-08)
(-1.82648e-09 2.75302e-09 1.71742e-07)
(5.4764e-10 2.57466e-10 3.43071e-07)
(8.18701e-12 -1.80347e-09 2.24343e-07)
(1.34117e-09 3.122e-09 1.18829e-07)
(-2.01346e-09 1.4129e-09 1.8182e-08)
(-1.51792e-10 7.41563e-10 2.55979e-07)
(1.62208e-09 6.48594e-09 3.36298e-07)
(-1.07959e-09 -1.18426e-10 2.35758e-07)
(-1.13336e-09 -2.84059e-10 1.88358e-07)
(-3.54471e-09 9.60158e-10 5.74127e-08)
(7.04374e-10 -4.679e-11 2.51489e-07)
(-4.01548e-09 3.16734e-10 2.65385e-08)
(4.02492e-11 8.37502e-10 1.73772e-07)
(-2.43916e-08 1.229e-09 2.08664e-07)
(1.85369e-09 7.97406e-10 2.54955e-07)
(-4.00569e-10 3.06667e-09 8.82671e-08)
(-2.10904e-09 2.72571e-09 1.82948e-07)
(-2.30876e-10 1.51861e-09 1.15672e-07)
(2.70738e-09 -2.42148e-09 4.75397e-08)
(5.91607e-10 1.15573e-09 4.64687e-07)
(-7.99762e-10 -6.05279e-10 2.11204e-07)
(-1.71966e-09 -6.60592e-10 1.77448e-08)
(-2.48296e-10 -7.38072e-10 2.79597e-07)
(-1.02808e-09 3.27108e-10 2.81884e-07)
(-6.06719e-10 2.23364e-09 3.88744e-08)
(3.09291e-09 4.70037e-09 1.27798e-07)
(-2.60246e-09 3.64718e-09 9.89487e-08)
(-7.53391e-10 4.14416e-10 1.90304e-07)
(-2.58656e-10 -5.20987e-10 2.58831e-07)
(-1.31544e-09 1.31114e-09 3.50225e-08)
(2.91126e-09 -1.31494e-09 9.10533e-08)
(-3.84378e-10 2.00148e-09 1.02001e-07)
(1.8609e-09 1.42879e-09 1.76276e-07)
(-7.8651e-10 -7.09699e-10 3.34952e-07)
(-2.74215e-09 -1.87429e-09 2.34434e-08)
(2.22651e-09 6.58676e-10 3.65128e-07)
(-4.88838e-09 -1.46096e-09 2.36822e-07)
(1.25081e-10 -1.84743e-09 2.72507e-07)
(-2.97643e-09 -6.12109e-09 1.14195e-07)
(1.56629e-09 7.14437e-10 3.31261e-07)
(1.18544e-09 -2.20863e-09 2.29231e-08)
(-1.10306e-09 -3.26179e-10 2.95823e-07)
(1.6893e-10 -3.97716e-10 2.77448e-08)
(-4.90152e-10 -4.17074e-09 1.36418e-07)
(-6.81264e-12 1.80785e-09 2.26787e-07)
(-2.48797e-09 3.51163e-09 1.37635e-07)
(-2.57329e-09 1.52245e-09 1.91839e-08)
(4.61801e-10 -1.81863e-09 5.07241e-08)
(7.22303e-10 4.80732e-09 7.59932e-08)
(1.75192e-09 -4.18909e-09 1.31916e-07)
(-1.63138e-09 -2.04866e-10 3.25524e-07)
(-3.56123e-11 1.31082e-09 5.76736e-08)
(2.54984e-09 -4.38053e-09 1.36257e-07)
(-2.72722e-08 1.116e-09 2.25755e-07)
(-6.86033e-10 -6.87185e-10 2.13278e-07)
(1.88831e-09 2.32459e-11 2.90493e-08)
(4.81135e-10 2.3162e-09 2.25997e-07)
(-1.5392e-08 -7.79785e-09 1.47305e-07)
(8.95308e-10 1.33635e-10 2.00933e-07)
(-1.84666e-09 1.46909e-09 1.00158e-07)
(-1.19867e-09 -6.38529e-10 1.75772e-07)
(2.44802e-09 4.74322e-09 1.06593e-07)
(-8.95952e-10 7.13048e-10 1.61442e-07)
(-5.65491e-10 2.36136e-10 1.60308e-07)
(3.84593e-09 -6.15631e-09 7.239e-08)
(-3.35982e-11 -8.62604e-11 2.95464e-07)
(-4.76151e-09 -1.2275e-09 7.10727e-08)
(2.13893e-09 -1.35092e-09 1.55607e-08)
(-1.2462e-09 1.67223e-09 3.16201e-07)
(2.47982e-10 -5.67413e-11 1.89362e-07)
(-2.12839e-09 1.25786e-09 2.94049e-07)
(1.35466e-09 -2.96878e-09 2.27504e-07)
(2.68383e-09 -1.9895e-10 4.62877e-07)
(3.95467e-09 -3.81907e-10 1.3776e-07)
(2.46986e-09 -7.82484e-10 4.07406e-07)
(2.2594e-09 4.74862e-09 9.80346e-08)
(-9.04899e-11 -3.06025e-10 1.5217e-07)
(4.4545e-09 1.90919e-09 3.0569e-07)
(-3.80622e-09 -2.53718e-09 3.23781e-08)
(-2.09888e-09 5.4266e-10 3.02236e-07)
(2.39326e-09 -2.73346e-09 1.13896e-07)
(1.47376e-09 2.66907e-09 2.98455e-08)
(-2.0685e-09 8.20211e-10 2.76848e-07)
(-2.37479e-09 1.24528e-10 6.25448e-08)
(-2.341e-12 4.09404e-10 2.03019e-07)
(4.55139e-11 1.28218e-09 2.21416e-07)
(-4.62218e-10 1.39232e-09 3.73666e-07)
(1.72533e-10 6.34611e-09 9.58593e-08)
(2.39191e-09 -2.11907e-10 2.89682e-07)
(2.98992e-09 7.49398e-10 1.52344e-07)
(1.16989e-10 6.2251e-10 3.19461e-07)
(-7.42e-10 4.79181e-10 3.23e-07)
(2.85384e-10 1.41251e-09 2.84121e-07)
(-9.54394e-11 5.40054e-11 1.68566e-07)
(3.28819e-09 -1.30876e-09 4.85039e-08)
(4.88794e-10 5.60949e-10 6.98728e-08)
(4.47142e-10 -1.32276e-10 1.8029e-07)
(3.99127e-10 -2.99612e-09 2.88379e-07)
(4.46303e-10 2.17574e-09 2.83969e-08)
(8.77265e-10 -2.84713e-10 2.47731e-07)
(-4.85184e-11 7.51213e-10 4.79261e-07)
(8.36949e-10 1.40313e-09 3.53587e-07)
(1.48057e-09 1.74807e-09 3.81093e-07)
(-3.21803e-09 1.61555e-09 2.48328e-07)
(-1.56237e-09 2.18971e-09 2.01744e-08)
(7.62482e-10 -4.90744e-11 2.30106e-07)
(1.16448e-09 -1.99086e-09 1.47635e-07)
(-9.75344e-10 1.17707e-09 2.6658e-07)
(-2.59257e-10 4.32475e-10 1.60414e-07)
(-2.13631e-09 -1.35209e-09 3.54616e-08)
(-7.46321e-10 -3.54455e-10 2.13109e-07)
(-3.40419e-09 4.27939e-09 1.50912e-07)
(2.5824e-10 -4.60743e-10 2.44085e-07)
(8.43335e-10 8.99702e-10 2.75328e-07)
(-1.12717e-09 1.98757e-09 2.00175e-07)
(1.23444e-09 1.61536e-09 1.36729e-08)
(-2.09728e-09 9.70053e-10 2.00236e-08)
(-2.32067e-10 1.15844e-10 1.89836e-07)
(1.98114e-09 -1.30268e-09 3.11146e-07)
(-9.46848e-10 1.26135e-09 2.33766e-07)
(-1.22532e-09 -1.0396e-09 1.83656e-07)
(-6.20481e-10 2.55281e-09 1.60265e-07)
(-8.0768e-10 1.86561e-09 2.56682e-07)
(4.2217e-11 1.24657e-09 2.91711e-07)
(6.97475e-10 1.61424e-09 1.94179e-08)
(-4.88646e-10 1.28325e-10 1.51186e-07)
(-1.93757e-08 1.18348e-09 1.74118e-07)
(-7.65967e-11 2.55059e-09 4.61403e-08)
(-6.01365e-10 5.5649e-09 8.4753e-08)
(-7.02289e-10 1.8546e-09 3.06619e-07)
(2.79464e-09 -1.12678e-09 2.12155e-07)
(3.60125e-10 -6.64749e-10 1.97363e-07)
(1.59598e-09 -1.04003e-09 2.35789e-07)
(-4.08952e-09 2.9261e-09 1.39011e-07)
(-2.38927e-10 -2.72916e-10 3.38438e-07)
(1.25652e-09 -5.52008e-09 1.79392e-07)
(1.6834e-09 -1.06765e-09 4.32958e-07)
(3.09026e-10 1.21055e-09 2.21943e-07)
(8.08358e-10 -3.04536e-10 2.45129e-07)
(7.52619e-10 -1.06209e-09 3.20655e-07)
(1.92554e-09 1.42317e-09 4.77149e-08)
(2.18658e-09 -6.70318e-12 5.43643e-07)
(-3.26276e-10 -1.6758e-09 3.35428e-08)
(-1.66897e-08 -2.26983e-09 1.48936e-07)
(3.89366e-09 -2.76336e-09 1.16311e-07)
(-1.68731e-08 -7.72633e-11 1.6166e-07)
(1.18433e-09 1.1057e-09 2.14001e-07)
(-4.83204e-08 1.15696e-09 2.90731e-07)
(1.08507e-10 4.39354e-10 1.40998e-07)
(-9.61229e-10 -3.14636e-10 3.26187e-07)
(-1.96701e-09 3.8089e-10 3.40266e-07)
(6.83348e-10 1.03199e-09 2.16939e-07)
(-6.41675e-10 -1.96618e-10 3.49399e-08)
(-5.36172e-09 1.66809e-10 1.18484e-07)
(-3.0141e-08 2.12818e-09 2.10298e-07)
(-3.5874e-10 -2.11327e-10 2.19755e-07)
(-6.69166e-10 2.04481e-09 1.00662e-07)
(-2.26728e-08 1.51321e-09 2.1815e-07)
(-8.77969e-09 4.2549e-10 2.38526e-07)
(1.69477e-09 3.06506e-09 3.08622e-07)
(-1.67208e-09 -6.86521e-10 4.40755e-08)
(1.4497e-09 2.67212e-09 5.40013e-08)
(-2.42304e-10 -1.48344e-10 2.71838e-08)
(1.11715e-09 1.02258e-09 1.96647e-08)
(-2.51373e-10 -1.91697e-12 4.41671e-08)
(-1.81368e-08 5.73864e-10 2.21561e-07)
(-1.09565e-09 -6.82751e-10 1.83256e-07)
(-1.79321e-09 -1.98222e-09 1.87133e-08)
(-2.61673e-09 7.04782e-10 2.06035e-08)
(4.95234e-10 3.71268e-10 3.61219e-07)
(-2.57666e-08 5.65444e-09 1.66143e-07)
(-2.16124e-09 1.59178e-10 4.68621e-08)
(-8.50167e-10 -1.31232e-10 2.28607e-07)
(-1.66246e-09 9.20494e-10 1.07785e-07)
(1.80826e-09 -5.39306e-10 2.03373e-07)
(1.43848e-09 2.1961e-09 4.43715e-08)
(-1.90822e-09 -2.44763e-09 9.33146e-08)
(3.71019e-10 2.1048e-09 1.92985e-07)
(1.157e-09 5.07501e-10 2.7331e-07)
(1.04125e-09 1.90556e-09 4.02035e-07)
(-2.21818e-09 3.01717e-09 4.29919e-08)
(-6.31409e-10 -2.16585e-09 2.45773e-08)
(-3.5879e-08 3.83619e-10 2.01611e-07)
(-2.94829e-09 2.13605e-09 2.79564e-08)
(-2.19452e-10 3.16347e-09 3.11541e-07)
(-3.74263e-09 -1.19662e-09 2.89102e-08)
(8.41159e-10 3.06849e-09 1.48391e-07)
(-1.55899e-09 -5.15556e-10 3.1247e-07)
(3.07116e-09 6.30237e-10 4.36191e-07)
(-5.52602e-10 -1.34108e-09 5.92141e-08)
(1.28156e-09 -8.11313e-10 1.40049e-07)
(-2.12476e-09 -2.94444e-10 3.87339e-08)
(-3.62216e-09 -2.12085e-10 2.88554e-08)
(4.89245e-11 -1.18442e-09 2.66744e-07)
(-2.04065e-09 1.00276e-09 1.4763e-08)
(9.1351e-10 3.96094e-10 1.82295e-07)
(-5.30606e-10 -3.14856e-09 6.15529e-08)
(-5.13617e-10 2.50878e-09 3.27993e-07)
(-3.73563e-10 1.00132e-09 2.27746e-07)
(2.87846e-09 1.16433e-09 1.92939e-08)
(-2.41479e-09 -6.19931e-09 1.35196e-07)
(-4.29636e-11 1.17445e-09 2.49359e-07)
(-1.18073e-10 1.50456e-09 3.14515e-08)
(1.05757e-09 -5.43739e-10 2.91043e-07)
(-1.95346e-09 5.5431e-09 7.94753e-08)
(5.18382e-10 2.46605e-10 2.15149e-07)
(1.04465e-09 3.58646e-10 2.32062e-07)
(2.04244e-09 2.66803e-11 5.5437e-08)
(-2.85741e-09 -5.83732e-10 2.13109e-08)
(-1.86787e-09 -6.51626e-10 9.2948e-08)
(-3.91183e-08 2.01737e-10 2.43634e-07)
(-1.25541e-09 -4.00253e-12 2.26542e-07)
(1.39833e-10 5.16223e-09 7.75756e-08)
(2.78064e-09 -4.91301e-10 1.83815e-07)
(3.77321e-10 1.04871e-09 2.45697e-08)
(1.20043e-09 2.56648e-10 2.06077e-07)
(1.06914e-09 1.41265e-09 2.32956e-08)
(-1.30537e-09 9.01335e-10 3.3739e-07)
(4.51803e-10 8.83007e-11 3.02205e-07)
(-3.87888e-10 1.01509e-10 2.2193e-07)
(-1.44063e-09 -1.69399e-10 1.44817e-08)
(1.08631e-09 -4.64267e-10 3.43626e-07)
(-1.2058e-09 8.41272e-10 1.56388e-07)
(1.11554e-10 2.96079e-10 3.58974e-07)
(1.93011e-10 6.71965e-10 6.30917e-08)
(-3.01104e-08 8.05294e-10 2.22561e-07)
(-2.16546e-09 1.12686e-09 2.64184e-07)
(1.10951e-09 -7.42385e-11 6.58837e-08)
(-7.18112e-11 1.00568e-09 2.58274e-07)
(-3.94811e-08 4.59843e-09 2.10057e-07)
(-1.21098e-09 -6.18203e-10 1.81878e-07)
(-7.67014e-10 -1.83994e-09 3.28792e-08)
(-2.46991e-09 4.85914e-09 1.01411e-07)
(-2.64347e-10 2.00225e-10 1.9437e-07)
(1.38275e-09 -1.74682e-09 2.18176e-07)
(-1.09737e-09 1.31778e-09 3.20766e-08)
(-5.51661e-10 -4.24145e-09 2.18907e-07)
(4.0482e-09 3.0997e-09 1.583e-07)
(-1.6936e-09 1.96133e-09 2.4679e-08)
(-5.46638e-10 6.77571e-11 2.06435e-07)
(-1.54944e-08 7.39567e-10 1.58318e-07)
(-2.57536e-09 -5.44965e-09 3.2583e-07)
(-1.35339e-10 5.0833e-10 2.03307e-07)
(5.06549e-10 4.52604e-10 1.8494e-07)
(5.33176e-10 -8.60962e-10 3.12442e-07)
(1.45443e-09 -3.3366e-10 2.55798e-07)
(1.84751e-09 6.10845e-10 7.0559e-08)
(-8.81016e-10 4.86871e-09 7.21694e-08)
(9.29329e-10 9.8583e-10 3.81861e-07)
(-2.6783e-08 -1.15625e-09 2.24787e-07)
(3.92258e-10 2.17885e-09 2.0934e-07)
(2.18767e-09 -1.60873e-09 1.88542e-07)
(2.9801e-09 -1.41401e-09 1.27311e-07)
(-1.23818e-09 2.66168e-09 3.22859e-07)
(4.28057e-10 1.23732e-09 2.03934e-07)
(-1.83402e-09 -1.68895e-09 1.81474e-07)
(-3.26691e-09 2.67341e-09 2.26035e-07)
(-1.56698e-09 2.33919e-09 4.35342e-08)
(-1.41321e-09 -7.91824e-10 1.70721e-07)
(-2.49023e-09 -1.89637e-09 3.9305e-08)
(1.73444e-09 -2.06365e-09 3.13267e-07)
(4.95225e-10 -2.90856e-10 3.26718e-07)
(-1.05096e-09 4.87824e-09 1.6627e-07)
(8.83871e-11 -1.59189e-09 1.61131e-07)
(1.03749e-09 -1.56917e-09 1.7776e-08)
(2.11146e-10 -9.91849e-10 1.05328e-07)
(-3.75322e-09 -1.75498e-09 7.56538e-08)
(-1.23963e-09 1.05563e-09 2.65792e-07)
(1.83778e-09 2.50919e-10 2.38822e-07)
(-2.37892e-08 -1.54362e-09 2.20565e-07)
(-2.40144e-09 7.68706e-10 3.14343e-07)
(-1.45719e-09 2.7326e-09 8.22062e-08)
(-1.11899e-08 5.08457e-10 1.36572e-07)
(1.11739e-09 -4.30142e-09 2.45227e-07)
(1.9191e-09 9.08836e-10 2.7345e-08)
(1.35358e-09 -3.2294e-10 2.45252e-07)
(-2.13092e-10 1.51457e-09 5.39689e-08)
(-1.98264e-09 -5.28444e-10 2.06626e-07)
(4.07746e-09 -2.09999e-09 3.20887e-08)