/*--------------------------------*- C++ -*----------------------------------*\
| =========                 |                                                 |
| \\      /  F ield         | OpenFOAM: The Open Source CFD Toolbox           |
|  \\    /   O peration     | Version:  2406                                  |
|   \\  /    A nd           | Website:  www.openfoam.com                      |
|    \\/     M anipulation  |                                                 |
\*---------------------------------------------------------------------------*/
FoamFile
{
    version     2.0;
    format      ascii;
    arch        "LSB;label=32;scalar=64";
    class       volVectorField;
    location    "46";
    object      momentum:momentum;
}
// * * * * * * * * * * * * * * * * * * * * * * * * * * * * * * * * * * * * * //

dimensions      [1 1 -1 0 0 0 0];

internalField   nonuniform List<vector> 
59516
(
(2.24994e-07 -1.27662e-09 -1.07679e-09)
(1.68118e-07 -2.05462e-10 -6.93458e-10)
(2.05125e-07 -1.5033e-09 -7.02384e-10)
(1.73851e-07 1.93955e-09 2.63207e-09)
(2.00096e-07 3.63064e-10 -8.02194e-09)
(5.03646e-08 -2.40749e-09 -5.37995e-09)
(2.10675e-07 -2.1011e-09 -3.1931e-09)
(1.97273e-07 1.3965e-09 -1.64842e-10)
(1.57941e-07 1.36728e-09 -5.58371e-11)
(8.01821e-08 -1.5147e-09 3.17251e-09)
(2.08208e-07 -3.57778e-10 -3.11089e-09)
(1.02253e-07 4.8195e-10 -6.21863e-09)
(3.23708e-07 3.07775e-09 -1.34327e-10)
(1.57402e-08 -8.25072e-11 -1.58322e-10)
(1.52768e-07 3.70053e-09 8.24232e-09)
(8.52401e-08 5.89917e-09 -2.73732e-09)
(2.67977e-07 -2.52439e-09 -1.35546e-09)
(1.59841e-07 9.10869e-09 -9.91595e-09)
(3.30173e-07 1.70907e-08 2.0512e-09)
(3.71039e-07 -1.7369e-09 5.35945e-10)
(9.97882e-08 1.6287e-09 -2.26913e-09)
(3.18487e-07 -1.57142e-09 5.70505e-10)
(3.51439e-07 -1.11095e-09 -4.15592e-09)
(3.49998e-08 -1.05935e-09 -2.66038e-10)
(3.11582e-07 -9.00615e-10 1.37056e-09)
(2.02329e-07 4.40272e-09 2.02824e-09)
(5.25478e-08 1.064e-09 -3.57244e-09)
(7.4203e-08 6.30363e-09 3.68415e-10)
(1.44926e-07 5.89594e-09 -1.13015e-09)
(1.35534e-08 -2.11036e-09 5.38392e-10)
(1.89443e-07 -3.67892e-08 -8.10946e-09)
(8.38154e-08 6.68484e-09 -1.02952e-09)
(1.74954e-07 2.79043e-10 1.09738e-09)
(1.7579e-07 -1.37894e-09 3.50643e-09)
(1.33516e-07 4.94646e-09 3.67988e-09)
(3.99491e-07 4.17517e-10 -8.76068e-10)
(1.31318e-08 -1.27974e-09 -1.82608e-09)
(1.31727e-07 5.03459e-09 -1.27009e-08)
(2.67265e-07 -1.04513e-08 -9.14414e-10)
(2.80562e-07 -9.63278e-10 -1.19238e-09)
(2.5827e-07 -1.64148e-09 3.43002e-10)
(4.06835e-07 -2.38517e-08 -2.20471e-08)
(3.43178e-07 -8.68141e-09 -7.01798e-09)
(1.1127e-07 -7.29851e-10 3.86702e-10)
(2.65141e-07 -8.9494e-09 -4.51644e-10)
(1.02842e-07 -1.43892e-09 -2.41085e-09)
(3.24837e-07 -6.8177e-09 -1.02432e-08)
(2.53959e-07 -7.3001e-09 -1.30053e-09)
(2.51865e-07 -2.03103e-08 2.79378e-08)
(2.4077e-07 1.05123e-08 8.44285e-09)
(1.63911e-07 1.65016e-08 -2.28803e-08)
(7.67565e-08 -6.46775e-09 4.41473e-09)
(3.16623e-07 2.49829e-09 -6.11525e-09)
(3.01564e-07 -1.34874e-09 2.11797e-10)
(8.25002e-08 5.14591e-09 2.68391e-11)
(2.46353e-07 5.17639e-09 -1.48286e-09)
(2.03304e-07 1.1557e-08 1.19966e-08)
(7.8076e-08 6.62894e-09 -4.65737e-09)
(2.07745e-07 4.44637e-10 -1.41358e-10)
(1.45737e-07 6.81105e-09 8.64873e-09)
(2.08468e-07 -5.36267e-10 3.81984e-10)
(1.53809e-08 1.90226e-09 -6.66568e-10)
(2.65249e-07 1.03199e-09 4.98865e-10)
(3.41211e-07 4.91756e-09 3.47928e-09)
(2.92774e-07 5.49861e-10 -1.52702e-09)
(2.15067e-07 5.26293e-09 7.50696e-09)
(1.82689e-08 -1.23687e-09 1.67251e-09)
(6.66272e-08 3.97997e-10 -3.4887e-10)
(1.983e-07 -8.26918e-09 3.63103e-08)
(1.69282e-07 1.55339e-09 -3.64821e-09)
(5.25705e-08 1.46422e-09 4.35026e-10)
(1.57217e-07 1.75548e-09 7.20151e-11)
(2.3488e-08 1.47558e-09 -3.58334e-09)
(1.86197e-07 1.26651e-09 7.48435e-10)
(3.74137e-07 1.5201e-10 -5.74019e-10)
(3.60005e-07 -4.94599e-09 -6.04356e-09)
(2.1436e-07 -3.07416e-09 -4.49834e-09)
(2.2639e-07 -2.1698e-10 -2.21359e-11)
(8.55732e-08 -2.8621e-09 2.65891e-09)
(1.9284e-07 3.86964e-09 9.76436e-09)
(5.11003e-08 3.10169e-09 1.46527e-09)
(1.71237e-07 4.68638e-09 6.99586e-09)
(1.82703e-07 2.4182e-09 7.5435e-09)
(1.82918e-08 -7.00295e-10 2.5516e-09)
(2.14911e-07 4.70496e-09 9.26708e-09)
(3.79147e-07 -8.30147e-10 1.37519e-09)
(3.18528e-08 -1.15459e-09 5.02098e-10)
(5.02784e-07 2.76594e-10 9.53338e-10)
(1.11048e-07 1.40342e-09 4.59634e-09)
(1.6683e-07 1.31224e-08 -9.00822e-09)
(1.83411e-07 -1.2238e-09 -1.59923e-08)
(1.89172e-07 2.33355e-09 -3.92491e-10)
(2.58535e-07 1.89052e-10 -2.18156e-10)
(1.82492e-07 1.6527e-09 -4.16654e-10)
(1.82222e-07 4.77086e-10 1.53566e-11)
(1.83439e-07 -1.76272e-08 6.59656e-09)
(1.2445e-07 -3.55497e-10 5.30406e-10)
(8.5451e-08 -2.95645e-09 -6.7168e-09)
(1.15393e-07 4.2929e-09 -1.80965e-09)
(2.07535e-07 -1.25949e-09 2.23652e-09)
(6.25009e-08 1.00965e-09 2.35095e-09)
(2.65979e-08 1.34852e-09 -3.02535e-09)
(2.35108e-08 8.32814e-10 3.23926e-09)
(8.5399e-08 -1.30478e-09 -4.58731e-09)
(2.34388e-07 1.2104e-09 -3.69246e-10)
(1.6337e-07 -3.2121e-10 -1.45447e-11)
(5.57332e-08 4.8873e-09 -2.00087e-09)
(1.38237e-07 4.66303e-10 -9.95157e-10)
(1.76386e-07 -1.23311e-09 2.41816e-10)
(1.89931e-07 1.19427e-09 -7.68107e-09)
(2.80291e-07 2.89501e-08 -3.03994e-08)
(4.34453e-08 4.41195e-09 -6.44642e-10)
(1.88806e-07 2.364e-09 -1.16733e-08)
(2.19223e-07 3.23176e-08 -1.62307e-08)
(2.20654e-07 6.18878e-11 -1.12829e-10)
(1.37998e-07 1.49177e-09 1.51082e-09)
(1.27313e-07 1.36043e-09 -4.85111e-09)
(1.44094e-07 -6.62345e-11 8.48341e-10)
(1.85199e-08 -2.60686e-10 8.95541e-10)
(2.62398e-07 2.26016e-09 6.31618e-10)
(4.08354e-07 -8.92881e-10 8.42638e-10)
(1.7585e-07 -3.46773e-10 5.65666e-10)
(1.59655e-07 -3.33073e-10 8.44035e-10)
(1.82553e-07 -6.20025e-10 6.46273e-10)
(1.33037e-07 -1.788e-08 2.76591e-09)
(1.43956e-07 2.01552e-09 -4.72198e-09)
(3.61048e-08 -6.46431e-10 2.35909e-09)
(2.12187e-07 -2.09461e-08 -1.67822e-09)
(1.63203e-07 -5.01372e-09 2.38692e-08)
(1.5937e-07 4.56767e-10 -2.72547e-11)
(2.82802e-07 4.77852e-10 3.45309e-10)
(3.24789e-07 4.81888e-09 5.53454e-09)
(2.28449e-08 1.34288e-09 -1.56555e-09)
(2.55445e-07 -1.61871e-10 1.1105e-09)
(3.16154e-07 3.85004e-09 8.48654e-10)
(1.97681e-07 -1.18223e-09 -3.44081e-09)
(1.51797e-07 1.80697e-08 -1.26568e-08)
(3.1382e-07 -9.16386e-10 9.63859e-10)
(5.23376e-08 3.59233e-09 1.58546e-10)
(1.59589e-07 6.80085e-10 -1.98981e-09)
(7.66437e-08 -1.55108e-09 -3.88554e-09)
(3.29614e-07 -9.62273e-10 7.043e-10)
(1.39855e-08 6.11606e-10 1.2207e-09)
(1.50821e-07 -1.34891e-09 -5.55035e-10)
(2.16313e-07 6.6862e-10 7.6036e-10)
(2.83666e-07 3.39704e-09 3.87419e-10)
(2.02963e-07 -7.3935e-09 -2.63529e-09)
(2.05858e-07 2.63329e-09 -4.78414e-09)
(6.40334e-08 -1.03597e-09 1.78458e-09)
(2.07612e-07 -1.44198e-09 -1.63187e-09)
(3.19683e-07 -4.42851e-10 -2.57457e-09)
(5.26816e-08 -1.98809e-09 3.82861e-11)
(3.85979e-07 -2.16784e-09 2.5505e-09)
(2.18152e-07 -5.02739e-10 5.89937e-10)
(1.59455e-07 -5.60905e-10 3.71215e-09)
(1.47275e-08 -2.85745e-10 1.59294e-09)
(2.78432e-07 -5.05294e-10 -4.5694e-10)
(3.31137e-07 3.84696e-09 -5.91581e-10)
(1.29272e-07 1.88484e-09 2.69595e-10)
(1.58641e-08 1.90165e-09 -2.07108e-09)
(8.91632e-08 2.12514e-09 -4.61142e-09)
(1.11933e-07 -6.08211e-09 -3.88975e-09)
(3.99846e-08 -1.63798e-09 3.94708e-10)
(2.25457e-08 -1.91882e-10 -4.43351e-10)
(1.63421e-07 3.01921e-09 3.90371e-09)
(3.27997e-07 2.10426e-10 2.12784e-09)
(1.56152e-07 -1.8901e-09 8.95435e-10)
(2.81865e-07 1.22413e-09 1.50582e-11)
(1.7291e-08 -1.06751e-09 1.99508e-09)
(2.14937e-07 -8.88374e-10 -1.35613e-12)
(8.72544e-08 1.39043e-09 1.20439e-09)
(6.73852e-08 9.85308e-10 -1.03109e-09)
(1.0633e-07 2.69166e-09 1.37927e-09)
(1.51483e-07 -5.09798e-10 6.21573e-10)
(8.5383e-08 -1.34194e-09 4.41969e-10)
(4.5323e-07 -5.12896e-09 -1.74621e-08)
(2.48279e-07 -4.94604e-10 -1.44254e-09)
(3.09943e-07 -1.13859e-08 -6.97783e-09)
(1.49006e-07 -1.8624e-09 6.94286e-09)
(6.25716e-08 -2.11553e-10 -8.54271e-10)
(3.07818e-07 4.46062e-09 1.45535e-09)
(4.28255e-08 -3.75878e-09 -1.70551e-09)
(2.99308e-08 -3.61101e-10 -2.35788e-09)
(1.05137e-07 -2.69286e-09 3.09218e-10)
(2.05727e-07 6.90218e-11 6.37262e-10)
(9.75021e-08 5.21892e-10 1.17737e-09)
(4.60577e-08 -7.73309e-10 -3.58945e-09)
(2.02824e-08 2.21363e-11 2.67722e-10)
(1.9128e-07 1.82963e-10 -1.18916e-10)
(2.26283e-07 -4.03517e-09 -3.8121e-10)
(1.58732e-07 -6.99797e-10 3.27839e-09)
(1.15235e-07 7.01133e-09 1.57514e-11)
(2.15176e-07 -8.6605e-10 -2.00112e-10)
(9.45026e-08 3.5913e-09 9.7523e-11)
(3.39758e-07 -1.05025e-10 -4.98326e-10)
(2.87375e-08 -2.5837e-10 7.97177e-10)
(9.73469e-08 1.32206e-09 -2.04707e-10)
(5.6864e-08 -1.55668e-09 4.03368e-10)
(1.86068e-07 4.84587e-09 6.2161e-09)
(2.64854e-07 1.1901e-09 -7.65046e-10)
(7.74684e-08 -2.67096e-09 3.19275e-10)
(1.93818e-07 -6.79851e-10 4.82368e-10)
(3.13071e-07 -2.35907e-09 2.62364e-09)
(1.60319e-08 1.73177e-09 -1.16793e-09)
(2.20544e-07 -2.01747e-09 -8.30218e-10)
(2.39054e-07 4.10477e-10 3.99051e-10)
(3.50968e-07 5.60919e-10 2.24201e-10)
(1.99324e-07 -1.74644e-09 -4.93641e-10)
(1.82023e-08 -5.67485e-10 1.72072e-10)
(3.02789e-07 -5.34248e-09 -9.61267e-11)
(6.07292e-08 4.28918e-09 3.77994e-09)
(2.51591e-08 -4.1345e-09 -6.76159e-10)
(2.32183e-07 4.46156e-10 -2.28382e-09)
(9.52935e-08 -1.9963e-09 1.30556e-09)
(2.94048e-07 3.61986e-09 3.80309e-10)
(2.89111e-07 -1.79786e-10 -3.98517e-10)
(2.72959e-07 2.19424e-09 5.92815e-10)
(2.07966e-07 -1.83528e-09 5.97007e-10)
(8.31999e-08 3.36063e-09 -4.4033e-09)
(2.19259e-07 -3.25124e-10 1.12899e-09)
(1.19133e-07 4.61664e-09 4.10295e-09)
(1.95268e-07 6.47148e-10 -2.02365e-11)
(1.80355e-07 7.59937e-10 1.0132e-09)
(7.40898e-08 -3.73463e-10 1.28571e-09)
(2.97905e-07 -4.62122e-10 -2.35191e-10)
(3.11611e-07 -7.29377e-10 -1.28728e-09)
(3.18711e-08 -3.45966e-10 1.62597e-09)
(6.53677e-08 2.09608e-09 -3.07982e-09)
(2.00195e-07 5.56808e-10 7.6859e-10)
(1.17678e-07 4.89005e-10 -8.81956e-09)
(2.42865e-07 -8.57137e-10 2.40762e-10)
(1.80775e-07 2.98903e-10 -4.26987e-10)
(3.22197e-07 1.00344e-09 1.32973e-09)
(2.67381e-08 -2.09306e-09 -1.50491e-09)
(3.12397e-08 8.41106e-10 -1.49979e-09)
(3.91318e-08 1.01623e-09 -1.40123e-09)
(1.09126e-07 6.33206e-10 3.26316e-10)
(1.74521e-07 -2.14965e-09 1.17454e-09)
(4.20661e-07 2.74585e-09 3.32508e-09)
(8.66557e-08 -1.88638e-09 2.28496e-09)
(2.53443e-07 -2.86923e-10 8.28368e-10)
(1.87198e-08 3.33395e-10 2.76743e-09)
(1.09898e-07 8.79791e-11 1.84904e-09)
(2.68232e-08 1.85594e-10 2.96474e-09)
(1.65871e-07 6.41534e-10 3.51739e-10)
(1.52665e-07 -8.58574e-10 -4.68101e-10)
(1.97222e-07 3.04302e-10 1.22731e-09)
(1.85882e-07 2.49922e-09 -4.14176e-09)
(2.79392e-07 5.02533e-11 -5.13381e-10)
(1.9966e-07 4.94744e-10 8.66939e-10)
(3.82906e-07 -1.27402e-09 3.02012e-10)
(2.13228e-07 4.13846e-11 9.56421e-10)
(1.95116e-07 2.9171e-10 7.1351e-10)
(2.82067e-07 9.81296e-10 -1.3021e-09)
(2.83105e-07 2.36452e-09 1.70358e-09)
(3.01093e-07 3.44382e-10 1.31828e-09)
(1.11639e-07 1.57359e-10 -5.27503e-10)
(2.84694e-07 1.78905e-09 3.10766e-09)
(8.04248e-08 -7.54656e-10 -4.44903e-09)
(9.76363e-08 7.96631e-10 3.42309e-09)
(2.18488e-07 1.35159e-09 -1.69907e-09)
(2.63004e-07 -6.35391e-10 7.96408e-10)
(2.3887e-07 6.23767e-09 3.20014e-09)
(2.8683e-07 2.44137e-10 8.42066e-10)
(7.44225e-08 4.80866e-11 1.62422e-09)
(1.06881e-07 4.19142e-09 -2.86057e-09)
(3.05324e-07 -2.31208e-10 -2.27156e-09)
(2.14414e-07 4.52894e-09 1.18039e-09)
(6.12447e-08 -1.01356e-09 -9.27162e-10)
(7.41027e-08 3.09572e-10 -2.10007e-09)
(1.64821e-07 1.51941e-09 -5.35134e-09)
(1.87953e-07 -6.13122e-10 -2.47061e-10)
(3.07263e-07 -7.42347e-09 1.04723e-10)
(1.48627e-07 -2.18491e-09 1.52786e-09)
(3.35659e-07 -2.1252e-09 -7.74821e-10)
(1.90048e-07 -1.21879e-09 5.06851e-09)
(1.93795e-08 2.3086e-09 -1.31507e-09)
(2.98606e-07 4.1946e-10 1.71411e-09)
(2.86304e-08 1.84203e-09 -2.44133e-09)
(5.20213e-08 -2.12078e-09 1.40817e-09)
(3.56867e-07 7.46721e-10 1.79482e-09)
(2.50314e-07 -8.19554e-11 -6.68793e-10)
(2.76098e-08 2.97579e-09 2.95547e-09)
(2.97858e-07 2.23703e-09 1.18147e-09)
(2.46033e-07 4.78744e-09 1.04126e-10)
(2.50339e-07 -1.05725e-09 2.22505e-09)
(3.27398e-07 -1.20913e-09 7.32121e-12)
(2.30302e-08 2.73178e-09 5.20058e-10)
(2.8218e-07 6.81599e-10 7.55701e-10)
(1.50217e-07 -3.63784e-10 1.37592e-10)
(1.60511e-07 1.3639e-10 7.5273e-10)
(2.52993e-07 1.10018e-09 1.58327e-09)
(1.70404e-07 1.50864e-09 9.64187e-10)
(1.76635e-07 9.1626e-10 -4.52846e-10)
(2.66832e-07 1.52673e-09 3.66974e-10)
(3.84183e-08 -1.38238e-09 -1.76626e-09)
(2.83451e-07 -1.05421e-09 9.09338e-10)
(1.90274e-07 -9.22619e-10 -7.57909e-10)
(3.64726e-07 -3.43989e-10 8.25394e-10)
(2.68724e-07 3.78111e-10 1.08579e-09)
(3.07772e-07 -1.41413e-09 1.62616e-09)
(1.35479e-07 2.12377e-09 2.99344e-09)
(1.96108e-08 -2.92821e-10 1.3641e-09)
(3.52034e-08 -8.47168e-10 5.90534e-10)
(5.11192e-07 -3.22896e-09 -2.48848e-09)
(1.8097e-08 -1.04553e-09 2.61553e-09)
(1.71858e-07 -9.30991e-10 -2.97273e-09)
(7.29326e-08 4.02337e-09 1.62725e-09)
(3.14899e-07 8.40971e-10 1.58199e-09)
(3.73724e-07 -8.65348e-10 -7.30176e-10)
(3.14176e-07 -2.44846e-10 -1.26453e-09)
(1.21995e-07 3.84436e-11 -2.71194e-09)
(2.94955e-07 4.32945e-09 -6.59835e-09)
(6.72425e-08 -5.56495e-09 4.52676e-09)
(8.70263e-08 2.007e-09 1.87102e-09)
(1.99959e-07 9.4717e-10 3.4347e-11)
(1.55464e-07 1.69355e-09 -1.49211e-09)
(2.69475e-07 3.09248e-08 8.78116e-09)
(1.91208e-07 -4.03831e-09 1.97557e-09)
(6.36099e-08 -2.79749e-10 -6.19773e-10)
(1.02208e-07 -1.50204e-09 3.19266e-09)
(2.06129e-07 -1.8056e-09 -3.1563e-09)
(2.15869e-07 -3.48188e-11 -3.33237e-10)
(4.22559e-07 -1.75901e-09 1.80411e-09)
(2.2539e-07 -5.72275e-11 1.19319e-09)
(4.89138e-07 -3.65347e-09 1.05951e-09)
(1.66654e-07 6.42639e-09 7.95564e-09)
(3.36721e-07 1.98436e-09 2.13117e-09)
(2.77255e-07 1.95949e-09 1.58916e-09)
(1.97197e-07 -9.51203e-10 9.98844e-11)
(3.37419e-07 -1.37475e-09 1.56335e-09)
(1.02907e-07 2.24058e-09 -5.97334e-09)
(2.29534e-08 -1.49324e-09 -2.71101e-09)
(2.94018e-07 -2.46609e-09 5.34213e-10)
(5.77241e-08 -2.75808e-09 3.15596e-09)
(2.79634e-08 1.22795e-10 5.64631e-11)
(3.94074e-07 1.31035e-09 4.07052e-09)
(1.99748e-07 -5.05299e-10 6.32612e-10)
(1.06473e-07 -2.34253e-09 -5.29369e-09)
(2.54416e-07 -1.31243e-09 6.84691e-10)
(3.28264e-07 -2.4858e-09 8.77602e-10)
(4.24702e-07 -2.07508e-09 -9.88914e-10)
(2.67556e-07 -1.79812e-09 -4.92403e-10)
(3.08434e-08 1.46808e-09 3.50592e-11)
(3.16554e-07 -7.89559e-11 -1.55436e-11)
(2.18903e-07 -1.2317e-09 1.04499e-09)
(9.78812e-08 1.32624e-10 1.37319e-09)
(2.95421e-07 6.67178e-11 1.97767e-09)
(2.51541e-07 -6.04389e-10 7.39729e-10)
(1.73313e-07 7.65379e-11 -1.14654e-09)
(1.9908e-07 2.81885e-10 -1.54916e-09)
(2.76242e-07 -1.94544e-09 2.60741e-09)
(2.0098e-07 -1.76702e-09 6.53738e-10)
(7.71062e-08 -3.84601e-10 -2.18198e-10)
(1.98613e-08 8.30505e-10 -6.43266e-10)
(3.88279e-08 -2.83168e-09 -2.22226e-10)
(2.17851e-07 1.11114e-09 -3.8554e-10)
(2.67842e-07 -2.10743e-08 3.29778e-08)
(1.15792e-07 -6.52853e-09 -9.4384e-09)
(1.1065e-07 4.88546e-10 4.80016e-10)
(2.46577e-07 1.79818e-10 4.38486e-09)
(3.07569e-07 5.5508e-10 1.64547e-09)
(2.31591e-07 -2.08925e-09 5.95224e-09)
(3.59071e-07 -1.30845e-09 1.88754e-09)
(3.36789e-07 -1.90874e-09 -8.48996e-10)
(2.23428e-07 -4.80424e-11 9.21113e-10)
(1.38387e-07 7.83487e-10 3.54863e-10)
(2.35682e-08 -7.19603e-10 -2.47553e-10)
(2.41063e-07 -4.75455e-08 5.84814e-09)
(8.63953e-08 2.21759e-09 7.47476e-10)
(6.30269e-08 -2.81814e-09 -6.50709e-10)
(6.66848e-08 1.39652e-09 5.05732e-10)
(1.73175e-07 -6.15993e-10 -4.07571e-10)
(1.72301e-07 -1.00051e-09 -3.36045e-11)
(2.35945e-07 8.52058e-10 -1.70278e-09)
(1.67376e-08 9.15639e-10 -1.43169e-09)
(1.69074e-07 -5.71605e-10 3.90759e-10)
(6.37112e-08 1.51054e-09 -1.23909e-09)
(1.86832e-07 -3.91434e-10 -1.31711e-10)
(5.48203e-08 -7.23403e-10 -5.56264e-10)
(1.46102e-07 -3.49994e-09 2.90051e-09)
(2.17071e-07 -5.61825e-09 1.72826e-09)
(1.85359e-07 -1.36808e-09 1.4389e-09)
(1.8554e-08 1.49815e-09 -2.00148e-09)
(1.11251e-07 -1.2397e-09 4.70968e-09)
(2.38232e-07 -3.75052e-10 1.05285e-09)
(2.47566e-08 -1.53964e-09 -1.9625e-09)
(2.8955e-07 2.84298e-09 2.07374e-08)
(1.81471e-07 -1.25977e-09 4.04422e-09)
(3.02584e-07 -8.05263e-10 -4.72028e-09)
(1.98561e-07 4.38829e-09 -5.97785e-09)
(9.30755e-08 -1.2555e-09 2.16526e-09)
(3.93854e-07 1.66309e-09 1.46845e-10)
(1.42007e-07 -1.45409e-08 -1.32092e-08)
(3.30574e-07 6.03293e-10 1.84358e-10)
(1.55496e-07 1.20332e-08 1.26099e-08)
(1.40252e-07 -6.30991e-09 8.64794e-10)
(1.42467e-07 -9.30832e-10 -3.34553e-09)
(2.72834e-07 5.5998e-10 3.47336e-10)
(5.41421e-07 1.75703e-09 1.15274e-09)
(7.95684e-08 -7.89982e-10 9.52937e-10)
(3.36405e-07 1.19479e-09 -1.47762e-09)
(1.19014e-07 -5.97666e-10 -2.79508e-09)
(4.37396e-07 1.64649e-10 1.46413e-09)
(3.33584e-07 -3.12237e-10 1.89036e-09)
(6.91177e-08 2.02031e-09 -5.21648e-09)
(2.17463e-07 -1.76277e-09 1.74768e-10)
(3.8129e-07 -4.61618e-09 4.13147e-09)
(2.27893e-07 9.72536e-10 -6.57489e-10)
(2.21862e-07 9.83692e-10 8.01203e-10)
(2.33693e-08 -8.11185e-10 -2.95384e-09)
(1.95871e-08 9.87872e-10 -2.46023e-09)
(2.92804e-07 2.72657e-09 -3.79757e-09)
(2.84614e-07 5.98424e-11 -3.85061e-11)
(2.21485e-07 -1.95236e-09 -7.35166e-10)
(3.54323e-08 3.76778e-10 -2.60795e-09)
(8.91723e-08 -8.442e-10 2.36165e-10)
(3.00884e-07 -2.7989e-09 -2.04207e-09)
(1.683e-07 -1.99061e-10 4.90415e-10)
(3.10018e-07 6.85157e-10 1.2932e-09)
(2.85366e-07 9.83529e-10 -7.54529e-10)
(2.19114e-07 8.46286e-10 7.79564e-10)
(2.33484e-07 1.99535e-09 6.87671e-10)
(1.213e-07 7.68149e-10 4.30257e-10)
(2.13976e-07 9.28396e-10 -1.71591e-10)
(8.77026e-08 -1.70661e-09 -4.29743e-09)
(2.88354e-07 4.0374e-10 -7.65104e-10)
(1.89596e-07 -7.36615e-10 -1.86141e-09)
(2.14631e-07 6.62477e-10 1.28144e-09)
(2.21095e-07 2.87384e-10 -1.57582e-10)
(3.50175e-07 -1.05178e-09 4.86421e-10)
(2.65648e-07 4.4286e-10 -2.21799e-09)
(6.74519e-08 3.84865e-09 3.5985e-09)
(4.4452e-08 1.11284e-09 3.58706e-10)
(1.93843e-08 1.67752e-09 -1.92354e-09)
(2.31808e-07 6.28827e-09 1.12668e-08)
(2.94402e-07 4.05442e-11 -3.31446e-10)
(2.71857e-07 -1.606e-09 1.3319e-09)
(1.92811e-07 1.4926e-09 2.43552e-10)
(2.9691e-08 -8.90595e-11 1.10851e-09)
(2.2398e-08 -3.7466e-10 2.5679e-09)
(1.80706e-07 -8.1238e-10 2.68957e-09)
(2.32525e-07 -3.21639e-10 2.22917e-09)
(3.107e-07 -1.00563e-09 1.40766e-09)
(3.19767e-07 8.63756e-10 2.48134e-10)
(1.9858e-07 -1.63356e-09 -1.33284e-09)
(3.41715e-07 6.31329e-10 5.1208e-10)
(3.75081e-07 2.1437e-09 2.52882e-09)
(3.15338e-08 -6.59091e-10 2.96225e-09)
(1.82748e-07 -3.39493e-10 1.12109e-09)
(7.28433e-08 7.00835e-10 3.77873e-09)
(9.75766e-08 -9.75301e-09 2.08827e-09)
(1.284e-07 1.87581e-10 4.04972e-10)
(1.42154e-07 7.91752e-10 -5.05168e-11)
(2.52593e-07 -2.72554e-10 2.33928e-10)
(1.93024e-08 -3.61907e-09 -1.3183e-09)
(3.54704e-07 1.28942e-09 -7.63955e-10)
(2.65981e-07 -5.82743e-11 -5.20826e-10)
(2.15168e-07 5.91086e-10 6.15819e-10)
(2.01911e-07 2.0991e-09 2.62968e-10)
(1.71202e-07 -7.55234e-10 1.6898e-09)
(2.60868e-07 1.43847e-10 1.28399e-09)
(2.46735e-07 8.5844e-10 2.76165e-10)
(3.02748e-07 1.57482e-09 3.45639e-10)
(1.66913e-07 6.79609e-09 -5.58486e-09)
(2.6753e-07 8.7595e-10 -4.2883e-10)
(2.90268e-07 -5.32243e-09 -9.53282e-10)
(1.84313e-08 -1.1906e-09 1.31575e-09)
(3.04939e-07 -2.49587e-10 -1.41022e-10)
(1.91304e-07 3.55635e-09 6.0516e-11)
(6.45635e-08 -1.87203e-09 5.31308e-09)
(1.71742e-07 1.50078e-09 -2.94327e-09)
(3.43071e-07 -2.32064e-10 -5.58878e-10)
(2.24343e-07 -7.06135e-10 1.6595e-09)
(1.18829e-07 3.03855e-10 -3.38427e-09)
(1.8182e-08 -1.66259e-09 -1.81276e-09)
(2.55979e-07 -6.65304e-10 -3.61009e-10)
(3.36298e-07 4.46175e-09 -4.97909e-09)
(2.35758e-07 -6.42431e-10 -8.7569e-10)
(1.88358e-07 7.79451e-12 1.16839e-09)
(5.74127e-08 2.6218e-09 2.57158e-09)
(2.51489e-07 5.95353e-11 -7.03412e-10)
(2.65385e-08 2.14596e-09 -3.4087e-09)
(1.73772e-07 2.45285e-10 -8.01789e-10)
(2.08664e-07 2.32581e-08 -7.45134e-09)
(2.54955e-07 -1.69323e-09 -1.09771e-09)
(8.82671e-08 8.94457e-12 3.09271e-09)
(1.82948e-07 -2.16837e-09 -2.67875e-09)
(1.15672e-07 2.3991e-10 -1.51721e-09)
(4.75397e-08 2.71799e-09 2.40957e-09)
(4.64687e-07 1.50781e-10 1.28957e-09)
(2.11204e-07 -1.20985e-10 9.95663e-10)
(1.77448e-08 6.23129e-10 1.73359e-09)
(2.79597e-07 -4.25112e-10 6.52442e-10)
(2.81884e-07 3.60605e-10 1.01681e-09)
(3.88744e-08 -9.20567e-11 -2.31274e-09)
(1.27798e-07 5.62523e-09 -1.27637e-10)
(9.89487e-08 3.65289e-09 2.59443e-09)
(1.90304e-07 3.17966e-10 7.98897e-10)
(2.58831e-07 2.45464e-10 5.27331e-10)
(3.50225e-08 -9.27634e-10 1.60903e-09)
(9.10533e-08 -3.03466e-09 -9.97696e-10)
(1.02001e-07 2.03345e-09 -1.36927e-10)
(1.76276e-07 2.28057e-09 5.50831e-10)
(3.34952e-07 5.60205e-10 8.99134e-10)
(2.34434e-08 1.26038e-09 -3.07307e-09)
(3.65128e-07 -1.36527e-09 1.87809e-09)
(2.36822e-07 5.07302e-09 -5.43339e-10)
(2.72507e-07 -5.56204e-10 1.76615e-09)
(1.14195e-07 4.90036e-09 -4.72371e-09)
(3.31261e-07 1.63747e-09 5.3141e-10)
(2.29231e-08 -2.68042e-10 -2.49228e-09)
(2.95823e-07 -9.88854e-10 -5.87624e-10)
(2.77448e-08 -4.28732e-10 -5.38913e-11)
(1.36418e-07 -3.84349e-09 1.69202e-09)
(2.26787e-07 -1.79594e-09 2.07222e-10)
(1.37635e-07 -4.07315e-09 -1.38958e-09)
(1.91839e-08 2.23103e-09 1.99051e-09)
(5.07241e-08 9.7405e-10 -1.60371e-09)
(7.59932e-08 -4.03681e-09 2.70855e-09)
(1.31916e-07 2.59594e-09 -3.72543e-09)
(3.25524e-07 8.08279e-11 -1.6422e-09)
(5.76736e-08 -1.31103e-09 2.66982e-11)
(1.36257e-07 4.43467e-09 -2.45448e-09)
(2.25755e-07 -1.25534e-08 -2.4237e-08)
(2.13278e-07 1.46732e-10 9.59862e-10)
(2.90493e-08 1.85769e-09 3.39476e-10)
(2.25997e-07 5.66811e-10 -2.29674e-09)
(1.47305e-07 1.60458e-08 -6.34457e-09)
(2.00933e-07 -8.82993e-10 -1.99397e-10)
(1.00158e-07 -2.37554e-10 -2.34775e-09)
(1.75772e-07 2.925e-10 1.32626e-09)
(1.06593e-07 -4.32462e-09 -3.12867e-09)
(1.61442e-07 7.78357e-10 8.39838e-10)
(1.60308e-07 8.68204e-11 -6.06632e-10)
(7.239e-08 3.25418e-09 -6.48858e-09)
(2.95464e-07 -4.45304e-11 -8.11586e-11)
(7.10727e-08 3.33495e-09 3.61343e-09)
(1.55607e-08 2.36927e-09 8.86877e-10)
(3.16201e-07 1.88547e-09 -8.91262e-10)
(1.89362e-07 4.16756e-11 2.50954e-10)
(2.94049e-07 2.27012e-09 -9.7918e-10)
(2.27504e-07 2.99085e-09 -1.30522e-09)
(4.62877e-07 -2.6407e-09 5.18903e-10)
(1.3776e-07 3.93934e-09 -5.16563e-10)
(4.07406e-07 -2.36891e-09 1.04918e-09)
(9.80346e-08 -3.07006e-09 4.26954e-09)
(1.5217e-07 2.83501e-10 1.46515e-10)
(3.0569e-07 -3.59225e-09 -3.2532e-09)
(3.23781e-08 8.21945e-10 -4.49989e-09)
(3.02236e-07 1.31169e-09 -1.72605e-09)
(1.13896e-07 1.30648e-10 3.63076e-09)
(2.98455e-08 -2.13722e-09 -2.17444e-09)
(2.76848e-07 -2.10353e-09 -7.25649e-10)
(6.25448e-08 -1.77748e-09 1.57977e-09)
(2.03019e-07 4.06634e-10 4.76006e-11)
(2.21416e-07 -1.93452e-10 1.26832e-09)
(3.73666e-07 1.19247e-09 8.54517e-10)
(9.58593e-08 -4.30632e-09 -4.6646e-09)
(2.89682e-07 2.34574e-09 5.1344e-10)
(1.52344e-07 -2.31507e-09 2.03511e-09)
(3.19461e-07 5.93924e-10 2.20135e-10)
(3.23e-07 -1.58321e-10 8.68972e-10)
(2.84121e-07 4.48921e-10 1.36934e-09)
(1.68566e-07 -7.08583e-11 -8.36921e-11)
(4.85039e-08 -2.70811e-09 -2.27842e-09)
(6.98728e-08 3.86823e-10 -6.35572e-10)
(1.8029e-07 -4.66273e-10 -4.74935e-12)
(2.88379e-07 6.89732e-10 2.94284e-09)
(2.83969e-08 -2.01436e-09 -9.35626e-10)
(2.47731e-07 -2.44448e-10 8.89326e-10)
(4.79261e-07 1.28407e-10 7.41745e-10)
(3.53587e-07 -1.53315e-09 -5.64532e-10)
(3.81093e-07 -2.25675e-09 -3.93593e-10)
(2.48328e-07 -1.60813e-10 -3.5972e-09)
(2.01744e-08 2.03672e-09 1.75716e-09)
(2.30106e-07 7.15043e-10 -2.69257e-10)
(1.47635e-07 -1.41139e-09 -1.82415e-09)
(2.6658e-07 1.05065e-09 1.11037e-09)
(1.60414e-07 4.82265e-10 -1.47206e-10)
(3.54616e-08 2.52372e-09 -1.50883e-10)
(2.13109e-07 2.56903e-10 7.8526e-10)
(1.50912e-07 3.82506e-09 3.90777e-09)
(2.44085e-07 -2.64692e-10 4.57067e-10)
(2.75328e-07 -1.23157e-09 6.2582e-11)
(2.00175e-07 -2.24895e-09 -4.03901e-10)
(1.36729e-08 1.24525e-09 -1.60704e-09)
(2.00236e-08 -1.22858e-09 -1.95709e-09)
(1.89836e-07 7.99536e-11 2.46743e-10)
(3.11146e-07 -2.0912e-09 -1.11747e-09)
(2.33766e-07 8.54422e-10 1.3257e-09)
(1.83656e-07 -3.98721e-10 1.55666e-09)
(1.60265e-07 -2.43876e-09 9.76894e-10)
(2.56682e-07 -1.76368e-09 -1.01109e-09)
(2.91711e-07 3.21246e-10 1.2052e-09)
(1.94179e-08 1.71153e-09 4.03622e-10)
(1.51186e-07 1.35935e-10 4.86584e-10)
(1.74118e-07 -1.94047e-08 -5.23066e-10)
(4.61403e-08 -7.58332e-10 2.43646e-09)
(8.4753e-08 -5.42418e-09 1.38132e-09)
(3.06619e-07 -5.45375e-10 -1.90665e-09)
(2.12155e-07 -2.59335e-09 1.53434e-09)
(1.97363e-07 7.41245e-10 -1.48785e-10)
(2.35789e-07 -1.43542e-09 1.25236e-09)
(1.39011e-07 -4.78933e-09 1.53251e-09)
(3.38438e-07 2.83989e-10 -2.25654e-10)
(1.79392e-07 1.70843e-09 -5.39735e-09)
(4.32958e-07 1.96568e-09 -3.31403e-10)
(2.21943e-07 1.24905e-09 2.80733e-11)
(2.45129e-07 -8.2499e-10 2.56077e-10)
(3.20655e-07 -1.23057e-09 4.24459e-10)
(4.77149e-08 -4.44346e-10 2.35281e-09)
(5.43643e-07 -2.15604e-09 3.64219e-10)
(3.35428e-08 1.02168e-09 -1.36783e-09)
(1.48936e-07 -1.4509e-08 8.55488e-09)
(1.16311e-07 3.73934e-09 2.96885e-09)
(1.6166e-07 -3.22135e-09 -1.65629e-08)
(2.14001e-07 -1.15213e-09 -1.13922e-09)
(2.90731e-07 -4.71829e-08 -1.04867e-08)
(1.40998e-07 2.09777e-10 -4.00998e-10)
(3.26187e-07 -8.52492e-10 -5.44256e-10)
(3.40266e-07 1.99395e-09 -1.95859e-10)
(2.16939e-07 -4.61531e-10 1.14846e-09)
(3.49399e-08 2.72607e-10 -6.13263e-10)
(1.18484e-07 -4.45531e-09 -2.98766e-09)
(2.10298e-07 -3.9353e-09 -2.99587e-08)
(2.19755e-07 3.70171e-10 1.90596e-10)
(1.00662e-07 -2.0867e-09 -5.24142e-10)
(2.1815e-07 -2.14478e-08 -7.50572e-09)
(2.38526e-07 -5.62951e-09 6.75075e-09)
(3.08622e-07 2.52121e-09 2.43112e-09)
(4.40755e-08 -8.95369e-10 1.57019e-09)
(5.40013e-08 -2.6552e-09 1.48045e-09)
(2.71838e-08 1.29392e-10 -2.52932e-10)
(1.96647e-08 1.48096e-10 -1.50724e-09)
(4.41671e-08 -1.06909e-10 2.27514e-10)
(2.21561e-07 -1.56906e-08 9.11483e-09)
(1.83256e-07 -6.32294e-10 1.12553e-09)
(1.87133e-08 -6.44588e-10 2.59409e-09)
(2.06035e-08 1.47285e-09 2.2748e-09)
(3.61219e-07 5.97018e-10 -1.63296e-10)
(1.66143e-07 -2.18239e-08 1.48191e-08)
(4.68621e-08 2.02599e-09 7.69209e-10)
(2.28607e-07 3.35058e-10 -7.92302e-10)
(1.07785e-07 -1.12028e-09 -1.53495e-09)
(2.03373e-07 2.9921e-10 1.86309e-09)
(4.43715e-08 2.30569e-09 -1.25534e-09)
(9.33146e-08 2.90047e-09 -1.10428e-09)
(1.92985e-07 -2.1342e-09 1.1422e-10)
(2.7331e-07 1.77397e-10 -1.25089e-09)
(4.02035e-07 1.51529e-10 -2.16619e-09)
(4.29919e-08 3.54492e-09 -1.20715e-09)
(2.45773e-08 -1.92457e-09 1.17712e-09)
(2.01611e-07 -2.88143e-08 -2.13819e-08)
(2.79564e-08 -3.63811e-09 1.39041e-10)
(3.11541e-07 -2.00401e-09 -2.45756e-09)
(2.89102e-08 1.60726e-09 -3.58551e-09)
(1.48391e-07 -6.26294e-10 3.11944e-09)
(3.1247e-07 -1.62439e-09 -2.39999e-10)
(4.36191e-07 -9.98124e-10 2.97204e-09)
(5.92141e-08 8.7627e-10 -1.15586e-09)
(1.40049e-07 -4.39633e-10 -1.45167e-09)
(3.87339e-08 1.42373e-09 -1.60445e-09)
(2.88554e-08 3.40429e-09 -1.25531e-09)
(2.66744e-07 -5.75899e-10 -1.03614e-09)
(1.4763e-08 -1.24985e-09 -1.89939e-09)
(1.82295e-07 -6.36025e-10 -7.6607e-10)
(6.15529e-08 1.34916e-09 -2.89392e-09)
(3.27993e-07 -2.5172e-09 -4.70618e-10)
(2.27746e-07 -1.03464e-09 -2.67769e-10)
(1.92939e-08 -5.13298e-10 3.06231e-09)
(1.35196e-07 -6.63171e-09 5.31999e-10)
(2.49359e-07 6.19815e-10 9.98507e-10)
(3.14515e-08 -1.50817e-09 5.51885e-11)
(2.91043e-07 -5.66484e-10 -1.04557e-09)
(7.94753e-08 -3.15685e-09 4.95745e-09)
(2.15149e-07 5.72785e-10 -3.80966e-11)
(2.32062e-07 -9.99241e-10 -4.70573e-10)
(5.5437e-08 1.64433e-09 1.21179e-09)
(2.13109e-08 9.10307e-10 -2.77072e-09)
(9.2948e-08 1.81136e-09 -7.95317e-10)
(2.43634e-07 3.82443e-08 8.22521e-09)
(2.26542e-07 8.13967e-10 9.55786e-10)
(7.75756e-08 -3.54518e-09 3.75498e-09)
(1.83815e-07 7.71694e-10 2.71621e-09)
(2.45697e-08 -9.4261e-10 5.94693e-10)
(2.06077e-07 -9.86672e-10 -7.30332e-10)
(2.32956e-08 -3.75512e-10 -1.73137e-09)
(3.3739e-07 -1.19476e-09 -1.04353e-09)
(3.02205e-07 -1.7585e-10 4.2544e-10)
(2.2193e-07 5.45086e-11 -3.97228e-10)
(1.44817e-08 1.44943e-09 5.69245e-11)
(3.43626e-07 -2.44183e-10 1.15585e-09)
(1.56388e-07 1.4493e-09 2.47455e-10)
(3.58974e-07 2.85866e-10 1.35601e-10)
(6.30917e-08 -6.44569e-10 -2.70777e-10)
(2.22561e-07 -2.6789e-08 1.37709e-08)
(2.64184e-07 -2.34295e-09 -6.85303e-10)
(6.58837e-08 8.17141e-10 -7.54186e-10)
(2.58274e-07 9.13386e-10 4.26943e-10)
(2.10057e-07 3.87802e-09 -3.95584e-08)
(1.81878e-07 4.74918e-10 -1.27401e-09)
(3.28792e-08 8.50201e-10 -1.80301e-09)
(1.01411e-07 -9.7154e-10 -5.36356e-09)
(1.9437e-07 -2.5706e-10 -2.09498e-10)
(2.18176e-07 2.14802e-09 5.91105e-10)
(3.20766e-08 1.59153e-09 6.38569e-10)
(2.18907e-07 2.67165e-09 -3.34014e-09)
(1.583e-07 -1.50899e-09 -4.87022e-09)
(2.4679e-08 -2.15148e-09 1.44437e-09)
(2.06435e-07 -3.55616e-11 -5.49672e-10)
(1.58318e-07 -1.97237e-09 1.53861e-08)
(3.2583e-07 3.51538e-09 -4.89625e-09)
(2.03307e-07 -5.1605e-10 -1.02023e-10)
(1.8494e-07 -2.77726e-10 6.19928e-10)
(3.12442e-07 -9.96119e-10 -1.8243e-10)
(2.55798e-07 1.47951e-09 -1.94277e-10)
(7.0559e-08 1.8509e-09 6.00504e-10)
(7.21694e-08 -3.52485e-09 -3.47216e-09)
(3.81861e-07 8.45236e-10 1.05881e-09)
(2.24787e-07 -1.9637e-08 1.82497e-08)
(2.0934e-07 -2.00988e-09 9.28244e-10)
(1.88542e-07 -2.45517e-09 1.16019e-09)
(1.27311e-07 2.99238e-09 1.38782e-09)
(3.22859e-07 -7.61598e-10 2.83506e-09)
(2.03934e-07 -4.44068e-10 -1.23167e-09)
(1.81474e-07 -6.44946e-10 -2.40836e-09)
(2.26035e-07 4.12968e-09 8.74985e-10)
(4.35342e-08 5.40255e-10 -2.76322e-09)
(1.70721e-07 1.31281e-09 -9.49048e-10)
(3.9305e-08 -1.03098e-09 -2.95542e-09)
(3.13267e-07 -1.70746e-09 2.08603e-09)
(3.26718e-07 -4.44487e-10 -3.63699e-10)
(1.6627e-07 3.04476e-09 -3.95363e-09)
(1.61131e-07 1.28718e-09 -9.4078e-10)
(1.7776e-08 1.84456e-09 -3.69191e-10)
(1.05328e-07 -5.00217e-10 -8.82117e-10)
(7.56538e-08 -2.57806e-09 -3.24349e-09)
(2.65792e-07 -3.6954e-10 -1.58571e-09)
(2.38822e-07 -1.75319e-09 -6.05564e-10)
(2.20565e-07 -2.01461e-08 1.27453e-08)
(3.14343e-07 -9.84287e-10 2.32142e-09)
(8.22062e-08 -2.39726e-09 -1.96053e-09)
(1.36572e-07 -3.42603e-09 1.06647e-08)
(2.45227e-07 -2.80138e-09 3.45008e-09)
(2.7345e-08 -2.11652e-09 -1.71025e-10)
(2.45252e-07 -1.39091e-09 -4.26426e-11)
(5.39689e-08 1.52769e-09 -7.42262e-11)
(2.06626e-07 -5.17878e-10 1.98543e-09)
(3.20887e-08 4.5735e-09 -3.44616e-10)
(3.61986e-07 4.94156e-10 -1.56937e-09)
(2.0396e-07 -8.69763e-09 5.35216e-09)