/*--------------------------------*- C++ -*----------------------------------*\
| =========                 |                                                 |
| \\      /  F ield         | OpenFOAM: The Open Source CFD Toolbox           |
|  \\    /   O peration     | Version:  2406                                  |
|   \\  /    A nd           | Website:  www.openfoam.com                      |
|    \\/     M anipulation  |                                                 |
\*---------------------------------------------------------------------------*/
FoamFile
{
    version     2.0;
    format      ascii;
    arch        "LSB;label=32;scalar=64";
    class       volScalarField;
    location    "46";
    object      nut;
}
// * * * * * * * * * * * * * * * * * * * * * * * * * * * * * * * * * * * * * //

dimensions      [0 2 -1 0 0 0 0];

internalField   nonuniform List<scalar> 
59516
(
6.0464e-06
1.7039e-05
1.5029e-06
1.07567e-05
0.00108751
0.000186195
3.14848e-06
7.40442e-06
2.37511e-06
7.46335e-05
0.000377099
6.07412e-05
3.81632e-06
0.000149561
6.71917e-05
6.11398e-05
5.74001e-05
9.21291e-05
1.58725e-05
2.35293e-05
0.000134004
4.51477e-06
8.88153e-06
0.000123252
3.8362e-06
5.60548e-05
0.000117406
0.000156103
7.33564e-05
0.000129698
0.000242175
0.000147884
2.00601e-06
1.00185e-05
2.32697e-05
3.94177e-06
0.000126529
8.37394e-05
1.99707e-05
9.30025e-06
5.78564e-06
0.000170171
2.41158e-05
1.36691e-05
7.44468e-06
6.06714e-05
8.17786e-06
0.000113369
0.000862305
7.6492e-05
0.000623669
0.000111862
1.33971e-06
2.31009e-06
0.000138952
7.87826e-06
0.000253186
0.000127234
5.37568e-05
2.95773e-05
1.13383e-05
0.000138011
4.5876e-05
5.13397e-05
7.51171e-06
1.84722e-05
0.000180985
0.000111793
0.000424317
2.81498e-06
0.000197938
2.93777e-05
0.00016043
6.25121e-06
0.0001087
3.284e-05
8.95657e-05
8.4839e-06
0.000107403
7.17813e-05
0.000114322
3.52741e-05
1.70635e-05
0.000147332
3.7578e-05
7.7174e-05
0.000113349
4.46878e-06
6.1347e-05
4.94691e-05
0.000534607
1.18253e-05
4.58121e-05
8.51547e-06
3.65181e-05
0.00108754
9.80962e-06
6.05125e-05
7.38143e-05
9.66399e-06
0.000130837
0.000161387
0.000158233
6.08931e-05
3.10782e-06
2.14437e-05
0.000122396
2.59012e-06
1.05084e-05
6.42375e-05
0.000244368
0.000172336
6.87235e-05
0.000154052
1.6839e-05
8.26207e-06
6.09376e-05
5.99622e-06
0.000146899
8.69247e-06
0.000167542
5.36535e-05
9.2355e-06
4.9913e-05
0.000234932
2.28344e-05
0.000176928
0.000108756
0.000281009
9.26997e-05
0.000129025
3.47623e-06
0.00014072
3.0422e-06
1.32929e-05
1.54153e-06
0.000112093
6.03824e-07
0.000121097
1.92224e-05
0.000113199
9.87601e-05
0.000125689
3.65279e-06
9.65846e-05
5.50722e-06
7.62015e-06
5.21827e-06
0.000251068
5.60385e-06
1.56305e-05
0.000110543
1.50419e-05
8.76512e-06
1.41289e-05
0.000137927
7.17367e-06
2.80244e-06
1.98754e-05
0.000140173
6.94168e-05
6.72408e-05
0.00011831
0.000166614
8.58318e-06
5.15743e-05
5.98558e-05
8.22332e-05
0.000132315
1.68894e-05
1.85962e-05
6.01307e-05
4.44451e-05
2.50415e-06
9.60538e-05
1.16066e-05
4.8736e-05
3.76926e-05
6.16758e-05
9.89291e-05
3.70669e-06
0.000114643
0.000188103
4.68301e-05
7.91057e-05
5.8689e-05
9.59442e-05
0.000136195
2.16933e-06
1.07771e-05
1.25496e-05
6.20164e-05
2.96122e-05
4.34445e-05
4.60368e-06
9.80599e-05
5.81319e-05
9.87821e-05
1.42656e-05
6.27232e-06
3.36369e-05
0.000143856
7.4556e-06
0.000129104
2.01245e-06
5.45088e-06
0.000111918
3.0719e-05
0.000142043
8.01613e-06
7.13797e-05
0.000177563
6.07889e-06
6.59936e-05
4.52878e-06
3.46972e-05
4.78137e-06
4.40095e-06
6.75511e-05
1.08227e-05
6.9529e-05
1.80927e-05
3.7775e-05
0.000132336
5.21433e-05
5.91785e-05
0.000167147
0.000111489
5.41612e-05
6.42697e-05
4.0932e-05
6.24534e-05
0.000149795
0.000152853
0.000112056
9.75039e-05
4.89225e-05
5.03243e-06
1.91811e-05
7.28228e-05
0.000136049
0.000149737
5.68307e-05
0.000165199
0.000117083
1.24123e-05
1.16229e-05
6.41541e-05
2.38945e-05
5.40148e-06
1.58752e-05
8.13771e-06
0.000167007
1.22511e-05
7.86415e-06
1.62506e-05
7.28516e-05
1.47052e-05
0.000110396
6.3825e-05
1.952e-06
2.42603e-05
6.33167e-06
5.80249e-05
5.59294e-06
5.3655e-05
2.47022e-05
1.38901e-05
0.000137831
5.75154e-05
1.78883e-05
5.5381e-05
7.18292e-06
1.58476e-05
2.90102e-05
1.26683e-05
0.000135437
1.49702e-05
0.000151347
0.000110693
0.000128933
4.4232e-06
0.000169765
4.65873e-06
2.75492e-06
5.86711e-05
0.000106805
0.000170918
0.000133409
0.000210829
6.77299e-05
4.59618e-06
8.44787e-06
1.30292e-05
3.50249e-05
0.000179995
2.91836e-05
2.39772e-06
0.000173025
6.18192e-05
1.66216e-06
5.31412e-05
0.00014652
0.000154842
8.89169e-06
0.000147063
9.59902e-05
7.26752e-05
3.5407e-05
3.8739e-05
3.58231e-06
5.53774e-05
1.03613e-05
0.000124731
6.32407e-05
2.88205e-05
1.19747e-05
0.00108072
2.04694e-05
0.000105051
7.0031e-05
1.03504e-05
7.16286e-05
0.00013411
0.000172756
1.30846e-05
3.21172e-05
5.13325e-06
4.69151e-05
2.14803e-05
1.35295e-05
5.75853e-05
0.000155419
9.98477e-06
0.00010603
0.00011496
2.59369e-05
3.20636e-06
6.50983e-05
6.53947e-05
1.48126e-05
0.00011988
6.58029e-05
0.000102202
1.31347e-05
0.000110043
6.03516e-05
0.000131885
8.70842e-05
6.06942e-06
5.90021e-06
1.44883e-05
2.89425e-06
2.56065e-05
0.000119096
0.00012131
1.52419e-05
0.000142998
0.00026363
1.98026e-05
7.04934e-06
6.43855e-06
0.000282838
7.58015e-06
2.72783e-06
9.89069e-06
1.33392e-05
0.000121213
0.000287806
7.00627e-05
0.000106268
0.000116347
2.7355e-05
1.62806e-05
2.10809e-05
0.000134957
3.9274e-06
0.000117165
4.16246e-05
5.42458e-05
5.43896e-05
3.29176e-06
0.000399932
0.00015568
6.25796e-05
4.97307e-06
0.000146421
3.00152e-05
5.51673e-06
1.49716e-06
1.79444e-05
1.74844e-05
2.0365e-05
0.000128105
0.000129726
9.79011e-05
6.48505e-05
6.33305e-05
9.69355e-05
7.91972e-05
5.44063e-05
1.27465e-06
9.06635e-06
0.000108772
9.45988e-05
0.000119769
5.58706e-06
6.01659e-06
5.29171e-06
1.07528e-05
0.000158354
0.000149102
1.52839e-06
6.85521e-05
0.000130267
0.000115806
5.73595e-05
4.1891e-06
0.000110306
8.49758e-05
0.000120579
7.33438e-05
6.35172e-05
9.00771e-06
0.000112856
6.13135e-05
4.24869e-05
8.89719e-06
1.60279e-05
8.82585e-05
4.2234e-06
1.00176e-05
0.000101219
0.000116002
0.000138559
0.000195788
0.000119057
8.50125e-06
1.48057e-06
0.000104431
0.000148274
6.01117e-06
1.84481e-05
8.29808e-05
1.06803e-05
2.45088e-06
0.000172523
2.33448e-06
0.000164482
3.99075e-06
5.72425e-05
0.000254388
2.44003e-05
1.40084e-05
8.7952e-06
0.000149398
0.00010182
0.000123954
0.000104885
9.91196e-06
1.72345e-05
7.47983e-05
9.68659e-06
0.000148015
2.07908e-05
5.18202e-05
4.77443e-06
0.000139746
8.80849e-05
4.67833e-06
0.000113929
8.24387e-06
4.06079e-05
3.69637e-06
2.24891e-05
0.000144499
4.74547e-05
1.80446e-06
1.66395e-05
3.66728e-06
0.000100374
7.01234e-06
0.000174509
3.79348e-05
0.000792436
5.63754e-05
0.000123383
5.74361e-06
8.31326e-06
8.62021e-05
0.000185046
0.000106512
0.000162577
3.25695e-05
0.000186468
0.000130621
6.20046e-05
5.73049e-05
1.81929e-05
0.000129722
0.000214376
5.77711e-05
5.53463e-05
3.0304e-06
0.000147393
0.000156119
1.0779e-05
1.10563e-05
0.000110841
0.000233244
2.66338e-05
0.00014257
2.73663e-05
0.000144964
4.99936e-05
7.99475e-06
5.56612e-05
0.00014875
0.000126468
0.000108438
6.35966e-05
2.00615e-06
6.16484e-05
5.32795e-05
0.000392778
7.68506e-05
0.000161726
5.05395e-06
0.000119547
5.85267e-05
6.30764e-05
6.56663e-05
6.84463e-05
6.76648e-06
9.86651e-05
8.79042e-05
4.81654e-05
0.000149578
0.000136378
4.44208e-06
0.000119221
4.50345e-06
3.52695e-06
9.64613e-05
7.19077e-05
3.39074e-05
5.58584e-05
7.95526e-05
3.90948e-06
0.000160825
7.5434e-06
0.000119413
0.00016088
4.33883e-06
0.000101917
6.79979e-06
0.000141649
5.97797e-06
5.51539e-05
8.1994e-05
1.79172e-05
0.000104028
6.47639e-05
0.000112068
0.000121509
0.00010779
6.76041e-05
8.00216e-05
1.47394e-05
0.000123261
3.10729e-05
6.6227e-05
5.70004e-05
9.86165e-05
1.57269e-06
0.000139747
4.14673e-05
1.5133e-05
1.85288e-05
7.74588e-06
0.000165783
0.000148231
1.842e-05
1.61588e-06
0.000139031
4.39829e-06
0.000114209
0.000147768
0.000103163
5.04164e-05
0.000174223
2.7493e-05
1.56092e-05
9.09799e-06
8.08535e-05
0.000135618
0.000133371
0.00015593
0.00012492
5.57171e-05
2.3962e-06
4.45165e-06
3.53992e-06
1.87584e-06
6.50279e-06
0.000175552
1.88199e-05
5.85268e-05
5.22698e-05
9.08251e-05
8.18474e-05
0.000130693
2.91321e-05
0.000114191
0.000207525
5.39675e-05
0.00054253
4.3904e-06
0.000159648
7.84216e-05
3.48194e-05
9.09459e-06
6.37849e-05
0.000113367
0.00148394
0.000701929
0.000111894
1.97881e-06
0.000154211
0.00023613
5.10086e-06
0.000103756
4.89499e-05
0.000152607
0.00016117
0.000177157
3.80625e-05
9.50962e-06
0.000156222
0.000150375
0.000205054
0.000209418
0.000113596
6.66063e-06
2.7766e-06
3.7058e-06
0.000130604
5.95852e-05
3.51169e-06
5.74165e-05
1.29561e-05
0.00011502
0.000144181
0.00039129
0.000174204
4.87503e-06
0.000163601
1.04883e-05
0.000107756
3.18268e-05
0.000106054
1.14171e-05
0.000101352
0.000170877
9.43988e-05
0.000133614
4.36684e-05
0.000125036
1.56237e-05
5.65933e-06
0.000143343
6.12379e-05
6.17072e-06
0.000113337
3.47644e-05
6.65381e-05
4.54958e-06
0.000128081
0.000110299
0.000148724
0.00011209
0.000667383
6.46841e-06
6.44585e-05
1.32944e-05
0.000105468
0.000143943
0.000151679
2.16799e-05
7.19801e-07
4.01429e-05
0.000138346
4.4552e-06
1.826e-05
1.68378e-05
7.01507e-05
0.000881469
7.44036e-06
9.70594e-05
0.000189836
0.000486875
1.36005e-06
0.000110924
0.000125052
0.000127
1.77638e-06
0.000112256
2.98062e-06
5.89986e-05
0.000155185
9.74939e-05
0.00124511
1.19555e-06
6.10915e-05
9.07452e-05
4.72424e-05
2.39972e-06
0.000106915
0.000114383
9.83397e-05
0.000984177
2.02505e-06
3.94256e-06
2.26282e-05
5.20242e-06
3.48668e-05
1.18438e-05
5.26428e-06
0.00014783
6.05262e-05
0.00013538
1.1304e-05
5.97306e-05
1.39761e-05
7.0525e-06
0.000132183
2.18116e-05
6.76956e-05
6.82962e-05
8.69332e-05
0.00118126
3.06246e-05
1.66774e-05
0.000839681
7.18628e-06
0.000167065
9.08663e-05
6.32594e-05
3.4936e-06
0.00017218
3.847e-05
0.0013482
1.59891e-05
2.76891e-06
1.02542e-05
5.99473e-06
0.000121719
0.000123026
0.000128756
9.82963e-05
0.000100955
2.09858e-05
7.02697e-06
7.46139e-06
0.000128072
2.09537e-05
1.85385e-05
8.76389e-05
3.89992e-06
1.22424e-05
1.70825e-05
0.000143578
0.000146342
1.41072e-05
2.31015e-05
0.000164157
9.50429e-05
5.70175e-05
0.000145678
2.59255e-05
3.61328e-05
5.70135e-05
0.000136993
5.69551e-06
0.000151777
5.63534e-06
7.51682e-05
0.000185423
7.53113e-05
1.24041e-05
8.94699e-05
4.47974e-06
0.000104835
7.42347e-05
2.75337e-06
1.50507e-05
2.33139e-05
3.855e-05
2.97207e-06
4.75588e-05
5.04453e-06
0.000116354
1.54027e-05
1.1574e-05
6.51352e-05
1.19933e-05
0.000264358
5.23564e-05
0.000111513
0.000174478
5.55021e-05
0.000139304
3.45846e-06
1.70661e-05
3.70747e-06
8.62275e-05
6.38672e-06
1.37721e-05
0.000153333
2.19207e-05
0.000586119
9.66492e-05
0.000152901
2.64958e-06
4.86568e-06
0.00015289
1.9788e-05
0.000147732
6.30927e-05
1.84869e-05
6.43432e-06
6.81914e-06
1.72133e-05
1.16047e-05
0.000106673
0.000134916
0.000117218
8.64704e-06
8.23692e-06
0.000133479
5.68064e-06
0.000315767
6.636e-05
5.80039e-05
2.4956e-05
1.88301e-05
0.000185494
1.81926e-05
0.000124513
5.63782e-05
6.95061e-06
0.000129656
2.68509e-05
0.000106761
6.04381e-06
1.1686e-05
1.79952e-06
4.89214e-06
1.91052e-05
6.6359e-06
1.40897e-05
1.7309e-06
4.99822e-05
3.89045e-05
8.89589e-05
0.00155891
1.19834e-06
8.53262e-06
6.54594e-06
0.000129666
0.000100822
4.01412e-06
4.66947e-06
3.08392e-06
0.000174558
7.50847e-06
0.00014302
9.86981e-05
0.000224663
7.85622e-06
8.88422e-05
0.000145396
2.32473e-06
1.4388e-05
0.000113529
1.62729e-05
0.000102993
8.94461e-06
9.18303e-05
0.000171948
8.13927e-05
5.8775e-05
0.00143788
0.000125226
3.86382e-06
7.83198e-05
0.00016037
7.77279e-05
5.83712e-05
6.35339e-06
9.68923e-05
1.62552e-05
6.61329e-05
5.39683e-05
9.57739e-06
2.04224e-05
0.000126527
1.92296e-05
2.70247e-05
4.48611e-06
2.12995e-05
1.06728e-05
0.000139459
0.000107188
0.000131292
6.15513e-05
1.42137e-05
2.45643e-05
0.00012963
6.00436e-05
1.20971e-05
8.9292e-05
8.57909e-05
5.21326e-05
3.42379e-05
4.51877e-05
0.000105638
3.76061e-05
7.2018e-05
7.19264e-05
0.000141458
0.00139951
2.80951e-06
6.54285e-06
0.000122814
6.26385e-05
3.63946e-05
8.25814e-07
0.000122469
4.20829e-05
6.18662e-06
0.000220982
0.000223614
0.000141387
8.31137e-06
1.31356e-05
0.000111463
0.000294735
1.123e-05
0.000132044
0.000166315
0.000117128
0.00011027
1.6394e-05
4.72106e-05
5.15315e-05
0.000115394
5.35372e-05
3.12864e-05
2.62697e-06
0.000104277
9.90279e-05
0.000106579
1.52337e-05
5.11823e-05
4.8792e-05
1.21835e-05
0.000169503
6.08006e-05
1.60139e-05
4.30346e-05
5.40158e-06
0.000148223
0.000177322
2.56974e-06
0.000130701
7.46096e-05
5.95849e-05
0.000147065
0.000109278
0.000114475
6.1238e-05
0.000110404
0.000185701
0.000104637
6.40491e-06
1.45068e-05
0.000251216
0.000156363
4.47259e-05
0.000115968
3.02462e-06
0.00016738
0.000142378
1.36407e-05
0.000108666
6.03612e-06
6.41522e-06
1.11726e-05
0.000134567
3.06972e-06
3.22024e-05
0.00014621
0.000206221
0.000119564
5.50499e-05
3.13045e-05
0.000113655
4.09317e-06
9.83159e-06
0.000112816
5.14076e-06
2.59126e-05
0.000111003
4.79741e-05
2.9091e-05
1.52901e-05
5.33604e-06
0.000142074
7.19296e-06
1.58121e-05
0.000113771
2.8968e-06
0.000124861
2.16192e-05
7.66776e-06
8.94855e-05
0.000185611
0.000111906
1.65149e-05
5.16982e-05
1.28603e-05
8.5111e-06
0.000144442
3.11273e-05
1.22757e-05
5.30144e-05
0.000170446
0.000125406
0.000136485
4.78836e-06
7.16785e-05
1.77222e-05
5.04246e-05
1.03942e-05
9.78916e-05
6.99159e-06
0.000130282
3.4333e-05
6.28591e-05
3.56861e-06
0.000164788
1.79363e-05
6.66996e-06
0.000143968
0.000123951
1.50244e-05
2.45579e-06
0.000161256
2.48937e-05
2.71106e-05
8.0048e-05
2.64654e-05
1.04963e-05
0.000165304
3.79249e-05
3.10513e-06
0.000163295
0.000106611
0.000110077
4.66694e-05
1.64932e-05
2.9753e-05
5.75644e-05
4.46228e-05
0.000150455
2.97353e-06
3.61078e-05
2.53803e-05
0.000115741
8.86202e-07
5.70943e-06
0.000110217
0.000113874
1.07154e-05
3.79627e-06
0.000146024
0.00017707
3.68033e-05
2.82448e-06
2.57132e-05
6.3653e-06
5.56139e-06
7.76352e-06
5.56315e-05
6.42119e-05
3.12994e-05
5.29033e-05
6.51173e-06
1.84257e-05
0.000113262
0.000166475
5.37823e-05
3.629e-06
6.93524e-06
3.39729e-05
2.39127e-05
9.46678e-05
3.95368e-05
8.46019e-05
0.000130393
0.000163145
6.78481e-05
7.63599e-05
0.00012472
0.000128374
6.57808e-05
1.12955e-05
0.000170986
2.26914e-05
6.92121e-05
2.92967e-05
7.75166e-05
4.01938e-06
1.46159e-05
0.000146649
9.33797e-05
0.000102955
4.32605e-05
4.69101e-06
1.9332e-05
5.74454e-05
6.16519e-05
0.000110593
3.07923e-05
0.000169764
4.88093e-06
2.32817e-06
1.15037e-05
6.63834e-05
0.000147652
0.00014409
6.5152e-05
1.60967e-06
8.58228e-05
6.52854e-06
3.20759e-06
0.000127742
7.62508e-05
0.000241058
6.22431e-06
6.79288e-06
4.97549e-06
5.51482e-05
1.9352e-05
1.98832e-06
3.25259e-06
1.5984e-05
6.47926e-06
3.26418e-05
9.19006e-06
6.22396e-05
0.000173678
3.60212e-05
0.000112098
4.41083e-06
4.56531e-06
1.9154e-05
0.000141424
9.3599e-06
5.19857e-05
0.000121545
0.000138797
5.2482e-06
8.6659e-05
5.84134e-06
7.013e-06
1.95159e-05
7.81299e-06
0.000125363
0.000111577
0.000126815
0.000148314
6.50793e-06
8.23363e-06
7.54535e-06
4.98287e-06
5.01995e-06
0.000193326
4.70723e-06
0.000137747
2.55686e-05
6.74561e-06
0.000140962
0.000112939
8.53951e-06
3.5298e-06
1.25062e-05
4.6245e-05
9.79379e-05
8.86478e-06
0.000128018
0.00017278
0.000218105
7.43601e-06
3.57273e-05
0.000110867
0.000195283
0.000120607
5.20662e-05
4.58188e-05
6.90218e-05
7.53427e-05
3.01958e-05
4.01481e-05
2.15809e-05
2.70699e-05
0.000102707
0.00012201
4.40719e-05
4.87979e-06
6.27174e-05
0.000164503
3.73007e-06
5.30775e-06
1.18354e-05
0.000171992
0.000201474
6.0726e-05
1.91226e-05
4.7994e-05
9.74944e-06
0.000138416
0.000103167
5.03283e-06
6.45578e-06
6.42256e-05
0.00013804
1.85049e-05
3.29814e-05
5.41238e-05
0.000108534
2.12421e-05
1.06954e-05
1.14668e-05
6.35255e-06
4.44489e-06
1.79787e-05
4.61289e-05
0.000124113
4.73948e-06
0.000120553
5.73961e-05
2.88362e-05
6.13175e-05
2.27322e-06
8.34395e-06
2.76119e-05
1.07946e-05
3.48077e-06
5.88098e-05
4.08787e-05
1.96151e-05
0.000103041
0.000176076
7.28432e-05
0.000119792
0.000143446
1.68487e-05
7.40766e-06
6.72763e-05
4.35271e-06
0.000135615
6.01401e-06
7.72416e-06
1.83035e-05
5.30809e-05
3.51493e-06
0.000156875
3.64102e-06
0.000148264
9.20835e-06
0.000144065
1.70353e-05
2.04805e-06
5.40367e-05
0.000153144
6.73783e-05
1.17342e-05
2.5486e-06
5.3122e-05
6.3995e-05
1.18446e-05
0.000105913
0.000122015
0.000109013
3.07349e-06
6.0795e-05
5.89887e-05
0.000165872
1.51072e-05
8.48518e-05
1.42215e-06
4.27298e-06
7.9453e-06
1.07883e-05
7.92357e-06
0.000138637
0.000106269
0.000164594
1.90663e-05
0.000178986
0.000104236
0.000114804
5.56212e-05
0.000165676
2.21324e-05
0.000165215
5.46172e-05
0.000186687
9.00144e-06
5.94797e-05
0.000119935
0.000107921
6.91935e-05
0.00015677
3.60018e-05
4.2511e-06
0.00171327
4.07926e-05
0.000148863
5.42426e-06
1.10163e-05
9.84401e-05
1.90416e-05
1.419e-05
5.8384e-05
1.70796e-05
6.3269e-05
0.000109031
9.03759e-06
0.000142996
0.000115608
1.63308e-05
7.8473e-06
0.000115969
0.000178718
8.33634e-06
7.93765e-05
6.68588e-05
0.000153193
5.04508e-05
0.000121231
0.000129289
0.000117242
0.000150964
6.70326e-06
1.53071e-05
0.000107333
0.000139184
4.16516e-05
1.82011e-06
3.82281e-06
5.54785e-06
1.98829e-05
0.000110685
2.3768e-05
0.00140607
1.81537e-05
0.000192371
3.21737e-06
0.000130946
8.59366e-06
1.32357e-05
0.000187547
0.00010598
1.67305e-06
1.00678e-05
0.000136778
1.34242e-05
5.24389e-06
0.000118357
2.5293e-05
0.000112618
1.0945e-06
1.93926e-05
0.00019036
2.99049e-06
3.60134e-06
6.06593e-05
1.27253e-05
8.40944e-06
3.17313e-06
0.000276869
6.8228e-06
8.54239e-06
4.6489e-06
1.87384e-05
0.000160335
4.39368e-06
0.000192769
1.49305e-06
0.00020451
0.000228291
6.85386e-05
4.10029e-06
4.61897e-06
0.000461231
1.85608e-05
7.08282e-06
2.09964e-05
3.05537e-06
0.000157439
0.000165466
0.000221272
6.41338e-05
0.00018593
8.67598e-06
0.000126878
6.36097e-06
0.000107465
0.000144831
0.000176874
5.65431e-05
4.1051e-05
3.78894e-06
6.64595e-05
0.00012159
0.000127326
1.977e-06
1.27212e-05
0.000161467
4.83914e-06
5.84382e-05
1.92341e-05
6.89222e-05
1.65497e-05
8.28445e-05
7.94655e-06
1.15245e-05
1.89474e-05
0.000115417
9.66152e-05
6.95221e-05
0.000104627
5.16756e-06
5.09696e-05
6.51958e-05
6.03633e-05
7.80477e-06
3.55266e-06
9.3306e-06
5.65169e-05
1.49795e-06
0.000139599
7.85689e-05
6.50095e-06
0.000124655
1.64403e-05
1.45159e-05
3.44474e-06
1.389e-05
1.40684e-05
1.16817e-05
1.61827e-05
3.34352e-05
5.37016e-06
2.88044e-05
0.000154575
0.000121587
5.62962e-06
6.36442e-06
1.11355e-05
1.59051e-05
8.52907e-06
0.00013318
7.11718e-06
2.47134e-06
1.29742e-05
1.30737e-05
0.000126783
5.69653e-05
8.50458e-05
3.04519e-06
5.47834e-05
8.06543e-06
0.000153491
9.72615e-07
0.000117472
1.72213e-05
0.000100634
6.60048e-05
5.89745e-06
2.22921e-05
0.000111735
0.000159481
4.71196e-06
0.000188381
2.45425e-05
4.37112e-05
1.7536e-05
1.04546e-05
1.95831e-05
5.46453e-06
0.000155974
8.60168e-06
1.27398e-06
0.000162504
0.000131351
2.0989e-05
3.5559e-06
1.7098e-05
6.27203e-06
0.000108268
3.92147e-05
0.000146648
1.77007e-05
5.11067e-06
8.78628e-06
4.24988e-07
0.000110345
0.000148442
0.000167386
7.31527e-05
0.00011107
5.71317e-06
0.000103637
4.3003e-06
6.66521e-05
0.000132976
6.84271e-06
1.19474e-05
1.70217e-05
9.77331e-05
1.9142e-06
3.91163e-06
0.000119696
0.000145049
0.000175431
5.31027e-05
9.54965e-05
0.000139062
5.60794e-06
0.000186602
0.000109781
0.000251022
0.00021059
1.14113e-05
4.35297e-06
1.55813e-05
0.000126118
5.33026e-07
8.28261e-06
7.38382e-06
7.20422e-05
2.40862e-06
7.76261e-05
7.64357e-06
4.65103e-05
0.000242593
5.53802e-05
1.20329e-05
0.000105245
2.75338e-05
1.55215e-05
4.2369e-06
1.30272e-05
2.2841e-05
8.87765e-05
0.000111182
0.000160984
6.42377e-05
0.000160205
3.45549e-06
0.000125675
1.54582e-05
0.000150628
0.000118772
5.72125e-05
2.88474e-05
4.63961e-06
8.90884e-05
0.00016664
1.07129e-05
2.20407e-05
5.75054e-05
7.3662e-06
0.000141447
1.74062e-05
0.000121753
5.23617e-06
2.2934e-05
5.25263e-05
1.99364e-05
5.34447e-05
1.43932e-05
3.61457e-05
5.65678e-05
1.09552e-05
5.44878e-05
2.16203e-06
0.000175326
0.000156452
3.75803e-06
0.000172257
1.60047e-06
2.67235e-06
1.72368e-05
0.000139057
2.11483e-06
0.000120189
0.000160288
5.29883e-05
1.52042e-05
0.000117984
7.56301e-07
0.000141864
2.90041e-05
6.69921e-06
0.000114071
4.45739e-06
1.90363e-06
1.60247e-05
5.09078e-06
0.000133602
0.000148164
4.19484e-05
4.13279e-06
5.20864e-05
1.01129e-05
0.000151716
0.000188695
4.97442e-05
0.000152029
3.14773e-05
0.000111283
4.65066e-06
1.74e-05
0.000120012
0.000183943
0.000156244
1.73363e-05
0.000152012
3.98927e-06
0.000122031
0.000166114
2.17316e-05
7.01439e-05
0.000127836
9.87249e-06
5.53231e-05
6.49657e-06
9.0213e-05
3.83872e-06
5.69156e-06
5.29224e-05
7.3958e-06
0.000132352
0.000115269
2.17007e-06
4.56602e-05
7.7263e-06
0.000145346
0.000158976
3.34546e-06
0.00017094
1.09304e-05
3.82723e-05
0.000128407
0.000114078
6.49439e-05
7.56696e-05
4.48117e-06
1.34158e-05
3.11053e-06
5.6601e-05
0.000177734
5.91215e-05
0.000171416
0.000124808
0.000106083
0.000109994
2.86245e-05
0.000168476
6.94782e-06
5.52471e-06
1.14335e-05
1.04826e-05
3.6405e-05
2.43599e-05
6.09864e-05
8.67099e-05
3.50417e-05
3.09297e-05
9.62735e-05
6.65859e-06
0.000172238
1.62971e-05
0.000117561
1.49944e-05
3.237e-06
0.00116712
0.000141155
1.1769e-05
6.85475e-05
0.000139654
5.42305e-06
0.000141018
6.18341e-05
5.12879e-05
2.92622e-05
0.00014277
0.000105342
6.91086e-06
5.37432e-05
0.000122847
2.52604e-05
2.96586e-05
6.14303e-05
0.000112428
1.85002e-06
2.05582e-06
0.00016344
2.35419e-05
3.41954e-05
2.21996e-05
0.000182066
0.000146852
0.000103187
3.91559e-06
0.000148863
4.1552e-06
9.3248e-05
6.44243e-05
5.37216e-05
1.60868e-06
3.27284e-06
1.57927e-05
6.46002e-05
5.36505e-05
0.000130202
1.27742e-05
9.68922e-07
5.62812e-05
3.71761e-06
0.000134127
1.32732e-05
5.73402e-05
0.000168932
5.85038e-06
4.82551e-06
2.15545e-05
0.000223833
0.000158066
0.000128259
6.15821e-05
5.30529e-05
0.000168984
0.000158241
0.000162261
1.63329e-05
4.04464e-05
1.00845e-05
2.94438e-05
8.53115e-06
0.000146627
1.36392e-05
2.24547e-06
0.000125156
0.000135145
0.000180761
2.086e-05
0.000182304
1.81379e-05
0.000305372
0.000189247
3.13144e-05
9.66708e-05
1.26236e-05
1.61893e-05
0.000117646
2.53811e-06
1.80782e-05
5.85256e-05
6.54416e-05
6.10914e-06
1.02947e-05
2.34366e-05
0.000120149
3.51159e-05
6.25587e-06
1.04296e-06
5.26729e-06
8.88854e-05
5.26484e-05
0.000102408
0.000163222
8.89941e-06
0.000170287
9.75544e-05
1.86862e-05
0.000108806
4.68497e-06
6.3432e-05
5.34875e-06
3.99732e-05
9.88949e-05
0.000118288
7.58732e-05
7.96453e-06
1.76486e-05
1.9319e-05
2.34717e-05
4.8736e-05
1.8935e-06
7.3667e-06
2.64748e-06
7.61231e-06
3.10703e-06
9.02159e-05
1.40373e-05
1.79333e-06
0.000138555
8.8154e-05
0.000166514
7.42658e-06
5.58546e-06
1.30886e-05
5.30875e-05
6.98193e-06
8.82722e-05
5.32999e-05
0.000139313
1.54951e-06
5.48788e-05
3.32843e-05
0.000130403
0.000107095
6.73486e-05
0.000152419
0.000122865
5.36534e-05
9.22792e-05
0.000148469
0.000118544
5.51437e-05
0.00012637
7.66535e-05
4.7611e-06
1.12305e-05
1.23862e-05
1.84643e-06
1.04081e-05
0.000111315
0.000165117
6.03077e-06
2.283e-06
3.86269e-06
2.44962e-06
2.83157e-05
3.23504e-05
4.86931e-06
6.96851e-05
0.000356131
2.17695e-05
4.08633e-05
0.000128152
5.96784e-05
0.000155432
7.35169e-06
8.73588e-06
3.03007e-05
3.14882e-05
5.87397e-05
0.000166035
6.12988e-05
0.000159503
9.53585e-05
8.36154e-06
2.2075e-05
0.000121053
2.08781e-05
1.98576e-05
6.32856e-05
4.74086e-06
0.000197173
8.97217e-05
4.41699e-06
3.66765e-05
7.61683e-05
4.69717e-05
3.55807e-05
4.96423e-06
3.03587e-06
8.21868e-06
3.84622e-05
6.38829e-05
7.00988e-06
1.7922e-05
0.000158007
0.000139144
1.90431e-05
4.24673e-06
4.07547e-05
4.59837e-05
0.000162205
6.70437e-06
1.13593e-06
7.07169e-06
1.60733e-05
1.56847e-05
1.48463e-06
3.92153e-06
8.57598e-05
3.86662e-06
1.77642e-06
0.000106213
3.74148e-06
3.2118e-06
0.000144326
1.42757e-06
8.96302e-06
4.29349e-06
5.35001e-06
4.60512e-05
0.000111087
3.08363e-05
1.98915e-05
5.59484e-05
2.04653e-05
2.61255e-05
7.52479e-07
1.79771e-05
1.03699e-06
0.000146455
1.12456e-06
0.000112984
0.000119777
2.03392e-06
0.000139708
7.77803e-05
2.28854e-05
4.55372e-05
5.36182e-05
1.26802e-05
0.000147953
2.96755e-06
0.00010254
1.23818e-05
8.98733e-06
7.61083e-06
4.96628e-05
7.93455e-06
1.35573e-05
0.000104384
1.48921e-05
1.45981e-05
1.25255e-05
0.000124233
2.10416e-05
0.000111466
7.94116e-05
6.08493e-05
2.1909e-06
2.42695e-05
3.33734e-05
0.000137564
5.42841e-06
0.000155589
8.84219e-05
0.000162258
9.98295e-05
9.98462e-06
2.59988e-06
5.87829e-06
6.18994e-06
0.000141388
3.24551e-05
0.000168259
0.000144795
6.91495e-06
6.81389e-05
1.36689e-05
2.47421e-06
1.30941e-05
0.000144315
5.84609e-05
0.000112965
7.10599e-05
3.30109e-05
5.20713e-05
5.8137e-06
1.67956e-05
6.094e-05
0.000118909
0.000158914
6.0026e-06
2.90889e-05
6.99715e-05
7.98089e-06
6.75417e-05
4.18233e-05
2.17578e-06
0.000104733
7.37394e-06
8.59741e-05
9.60047e-06
1.78089e-05
6.244e-05
1.87283e-05
2.28948e-05
4.9333e-06
1.70615e-05
1.02641e-05
8.70097e-05
8.67119e-06
0.000119461
2.54236e-05
9.43838e-05
5.10933e-05
1.94888e-06
0.000140684
0.000190429
1.87873e-05
5.21235e-05
1.41062e-05
3.2024e-06
0.000119896
3.03683e-06
2.70316e-05
1.5895e-05
1.40994e-05
5.99534e-05
6.48104e-05
2.38267e-06
0.0001134
0.000112647
0.000186223
1.61855e-06
2.62004e-05
8.61762e-05
3.26874e-06
2.91345e-06
2.59397e-06
8.05789e-05
6.19394e-06
5.61255e-05
7.30896e-05
0.000127153
0.000150224
0.000113294
0.00014242
0.000150221
5.13099e-05
2.22881e-05
9.79127e-05
9.72157e-05
1.71905e-05
1.43409e-05
4.05919e-05
0.000149385
0.000206827
4.19434e-05
6.10202e-05
0.000114784
6.94424e-05
7.19917e-05
1.20153e-06
0.000105906
2.25987e-05
4.9788e-06
1.09131e-05
1.37498e-05
1.48387e-05
4.83115e-05
1.02434e-05
0.000145527
1.1949e-05
6.53681e-06
6.86459e-05
7.69079e-05
0.000114462
5.4371e-05
0.00014833
6.0745e-05
0.000127533
1.51284e-05
0.000148962
5.70951e-05
6.42741e-06
0.000107525
0.000101584
0.000146408
1.91541e-05
2.4086e-06
4.1209e-05
1.07061e-05
3.05814e-05
1.02455e-05
1.92221e-05
9.20307e-06
5.43444e-05
2.46162e-05
5.65198e-05
8.31234e-05
7.64175e-06
4.52679e-05
6.54587e-06
1.33599e-05
1.40519e-05
0.000141127
1.78912e-05
0.000137247
1.82708e-05
7.44041e-06
4.1316e-06
3.79725e-05
7.8423e-06
0.000111885
0.000136611
3.4184e-05
1.53836e-05
9.53119e-05
4.33066e-06
0.000113143
2.73411e-05
2.07851e-06
1.07848e-05
3.60089e-06
3.90846e-05
5.51861e-06
2.27605e-05
0.000103196
7.16177e-05
0.00011962
0.000109263
5.63962e-05
1.07803e-06
5.57096e-06
0.000189154
0.000117738
0.000343213
1.25723e-05
1.21418e-05
1.36596e-05
1.6219e-05
0.000113281
0.000101476
0.000118404
5.5898e-05
7.2913e-05
6.07566e-05
9.60383e-06
5.12109e-05
0.000120121
1.35227e-05
9.98783e-05
0.000148384
0.000144236
1.08755e-05
1.8803e-06
5.96489e-05
6.14402e-05
0.000181754
0.000149209
4.25464e-06
4.69159e-05
1.92224e-05
1.35793e-05
0.00014882
2.49481e-06
3.18581e-05
2.15096e-05
8.66289e-06
1.37613e-06
5.89517e-05
1.05069e-05
3.95516e-05
4.72076e-06
0.000177649
1.61322e-05
5.80033e-05
7.44079e-06
0.000112017
2.01392e-05
1.55643e-06
3.02508e-05
5.64446e-06
0.000133239
3.80534e-06
5.93458e-06
6.21702e-05
4.0887e-06
1.83725e-05
7.3505e-06
1.99668e-05
3.00618e-06
8.57655e-05
6.07348e-05
5.96245e-05
5.7216e-06
4.48546e-05
3.61042e-06
7.2709e-06
2.50411e-05
1.68931e-05
7.26747e-06
0.000113874
6.29588e-06
0.000130317
0.000142219
2.6281e-06
0.000149542
3.51951e-06
5.37421e-05
0.000113163
6.24664e-06
9.94181e-05
0.000157435
0.00013065
0.000115022
0.000108593
4.57366e-05
1.17508e-05
9.83228e-05
2.06423e-06
6.02201e-05
2.66185e-05
0.000121847
2.36162e-05
0.000150602
2.2925e-06
6.26463e-06
2.35654e-06
1.94845e-05
0.000143491
0.000102759
2.33817e-06
0.000179
7.58284e-05
0.000129332
2.52475e-06
4.63706e-05
0.000135507
0.000143964
1.61294e-05
0.000114119
0.000132273
0.000114572
5.76458e-06
5.49812e-05
0.000112551
4.89046e-06
1.63176e-05
0.00014795
1.30897e-05
0.000162984
1.23411e-06
3.35725e-06
7.99928e-05
2.75699e-05
0.000181745
5.29983e-06
9.61211e-05
9.25678e-05
1.06495e-05
5.28966e-06
2.28969e-05
1.59105e-05
5.40963e-06
0.000111223
4.90097e-06
7.37835e-06
0.000127287
0.000109273
5.78732e-05
0.000131815
2.18678e-05
1.3342e-05
4.90354e-05
4.73747e-05
6.1093e-06
0.000173128
0.000196697
0.000111872
4.67597e-05
0.000119383
2.94828e-06
0.000149272
0.000121168
1.00352e-05
5.4746e-05
0.000107234
0.000110083
2.15932e-06
1.20663e-05
0.000101676
5.6665e-05
3.23154e-06
1.26461e-05
4.16655e-06
4.54937e-06
1.50856e-05
5.68566e-05
8.15826e-05
0.0001641
1.42456e-05
2.78744e-05
5.77333e-05
0.000159754
5.4092e-05
3.54809e-05
9.26249e-06
9.02512e-06
0.000161237
4.75583e-06
2.28407e-06
0.000141656
6.36239e-06
2.88648e-05
9.48368e-06
0.000111841
4.83188e-05
0.000104231
0.000100064
5.33581e-05
0.000142236
7.16364e-05
1.91794e-05
5.13199e-05
2.62907e-06
2.52201e-05
2.67999e-05
6.26496e-05
6.41505e-05
0.000158535
4.33405e-05
6.29718e-06
4.08633e-06
2.00511e-05
6.02827e-05
2.19044e-06
6.58356e-05
5.11586e-05
7.14208e-06
0.000239026
5.38035e-06
1.47512e-05
7.94028e-06
0.000108744
0.000114055
6.83719e-05
2.37355e-05
0.000103074
0.000121996
1.43658e-05
1.09288e-05
7.68139e-06
0.000152289
1.58155e-05
2.14039e-05
3.45556e-05
1.29042e-05
3.48009e-06
4.16589e-06
0.000122965
2.47926e-06
2.53145e-05
1.72653e-05
0.000163034
0.000163045
3.63518e-06
8.10174e-06
8.15484e-06
1.51019e-05
3.97531e-05
1.63201e-05
6.55115e-05
2.05292e-05
9.26562e-06
4.13895e-05
8.28049e-06
1.51919e-05
2.84013e-05
1.19159e-05
2.73117e-05
1.10822e-05
0.000138288
1.58558e-06
3.03005e-06
1.97059e-06
2.57116e-06
3.25928e-06
1.19008e-05
0.000131628
3.35339e-06
2.41176e-05
5.85175e-06
1.59856e-06
8.81775e-05
7.67925e-05
5.10806e-06
0.000174191
8.8612e-06
0.000116954
3.32148e-06
3.87569e-06
1.00165e-06
1.9319e-06
2.23368e-06
0.000107157
0.000162348
0.000253769
0.000156208
0.000127514
1.09462e-05
2.86699e-05
0.000109798
0.000190114
6.1345e-06
0.000100983
3.3178e-06
2.13887e-06
2.98005e-05
0.000129881
2.91899e-05
0.000134437
3.91057e-05
0.000111778
0.000137114
9.54914e-06
5.15186e-05
2.28579e-05
1.56802e-05
7.15744e-05
1.1577e-05
1.73063e-05
4.48344e-06
9.38049e-06
4.30009e-06
9.32821e-05
0.000131106
5.47627e-06
1.81066e-05
8.56826e-06
0.000109038
1.49602e-05
1.16354e-05