/*--------------------------------*- C++ -*----------------------------------*\
| =========                 |                                                 |
| \\      /  F ield         | OpenFOAM: The Open Source CFD Toolbox           |
|  \\    /   O peration     | Version:  2406                                  |
|   \\  /    A nd           | Website:  www.openfoam.com                      |
|    \\/     M anipulation  |                                                 |
\*---------------------------------------------------------------------------*/
FoamFile
{
    version     2.0;
    format      ascii;
    arch        "LSB;label=32;scalar=64";
    class       volScalarField;
    location    "46";
    object      p;
}
// * * * * * * * * * * * * * * * * * * * * * * * * * * * * * * * * * * * * * //

dimensions      [0 2 -2 0 0 0 0];

internalField   nonuniform List<scalar> 
59516
(
0.248017
0.0142467
0.0135306
0.00187866
0.26146
0.281978
0.248844
0.220743
0.0718081
-0.000541087
0.256149
0.250117
0.173013
0.247287
0.232243
0.0728368
0.249181
0.257079
0.253425
0.246176
0.252566
0.220176
0.248737
0.159442
0.0637232
0.153814
0.0901857
0.255854
0.251237
0.23126
0.264793
0.256007
0.115245
0.00144116
0.253612
0.207877
0.0618936
0.259924
0.251845
0.0123959
0.0146763
0.256194
0.252722
0.00150757
0.251249
0.038821
0.252052
0.252567
0.263096
0.253893
0.269118
0.00117778
0.117468
0.224818
0.252026
0.251118
0.257377
0.00155231
0.159118
0.254693
0.00150136
0.203276
0.16027
0.249691
0.00310803
0.251544
0.00770951
0.211736
0.263417
0.251109
0.215504
0.246179
0.0432236
0.247419
0.213019
0.250693
0.252087
0.0275064
0.176397
0.253769
0.00141067
0.253778
0.252814
0.102733
0.253772
0.24568
0.0720775
0.246373
0.116221
0.257048
0.259603
0.216812
0.241254
0.214019
0.214948
0.262812
0.23128
0.221444
0.253532
0.171121
0.0781953
0.141873
0.227104
0.00827346
0.0431838
0.00645357
0.00592544
0.0676672
0.122614
0.177917
0.261725
0.0843748
0.217329
0.262268
0.238841
0.197776
0.0302112
0.225244
0.225721
0.030331
0.227102
0.22366
0.0581713
0.22521
0.260201
0.253678
0.239039
0.257809
0.26887
0.240404
0.238045
0.0145186
0.212873
0.240966
0.24167
0.20973
0.260602
0.234708
0.142952
0.244755
0.0854509
0.107324
0.220895
0.084774
0.245345
0.243031
0.251602
0.24708
0.267904
0.241894
0.245185
0.00294256
0.238951
0.00286651
0.240501
0.0051833
0.00378878
0.241203
0.241824
0.233068
0.245462
0.245202
0.232478
0.00427311
0.196016
0.0284764
0.0719184
0.242829
0.243467
0.0040412
0.240568
0.240593
0.236032
0.236896
0.236435
0.252627
0.198828
0.253404
0.0131597
0.196412
0.238757
0.126101
0.149877
0.238131
0.238481
0.0797422
0.11038
0.0612626
0.239799
0.237331
0.000343154
0.12499
0.242642
0.237314
0.243964
0.019353
0.143618
0.143076
0.00382035
0.235636
-0.000539555
0.0601782
0.222136
0.172007
0.203025
0.126169
0.243526
0.00328298
0.164063
0.229203
0.0404304
0.25563
0.22819
0.204167
0.229357
0.0907481
0.242203
0.0193345
0.187834
0.229742
0.22957
0.243201
0.235897
0.00426409
0.23239
0.198167
0.163403
0.172098
0.235579
0.035169
0.231634
0.12413
0.236071
0.130797
0.137755
0.23627
0.234768
0.0490768
0.234604
0.0522754
0.239047
0.12633
0.122372
0.00313664
0.240222
0.239775
0.237325
0.0117419
0.236152
0.239376
0.0122212
0.237462
0.239515
0.148826
0.238488
0.239259
0.0733049
0.234032
0.18162
0.230867
0.165794
0.232702
0.234283
0.233979
0.207728
0.055643
0.188652
0.0664
0.231596
0.156667
0.249372
0.202591
0.0705474
0.15955
0.232643
0.207926
0.156968
0.231438
0.232397
0.0912881
0.235705
0.172661
0.160613
0.23025
0.228545
0.248569
0.239124
0.00706055
0.23427
0.208892
0.233368
0.230717
0.214461
0.0280043
0.217614
0.121922
0.209766
0.205348
0.231306
0.208702
0.208225
0.0583834
0.0954671
0.202602
0.211931
0.153449
0.0192189
0.208156
0.209208
0.0778367
0.0636932
0.209338
0.149774
0.141058
0.251455
0.211101
0.222771
0.263517
0.210416
0.06113
0.124296
0.221639
0.132155
0.22466
0.172886
0.211651
0.255506
0.22287
0.163326
0.224132
0.0219939
0.245146
0.160569
0.224088
0.183842
0.230802
0.23416
0.202164
0.254842
0.228981
0.204226
0.202028
0.225104
0.0487187
0.101
0.228881
0.0938491
0.233371
0.22538
0.182115
0.235453
0.23718
0.0360353
0.117143
0.163402
0.0496706
0.00742348
0.261581
0.266164
0.19759
0.0322372
0.241615
0.25456
0.217882
0.0317367
0.224141
0.223562
0.242006
0.265216
0.227628
0.0828317
0.0813129
0.223192
0.16786
0.192907
0.222932
0.224585
0.219151
0.178996
0.213329
0.242485
0.00115392
0.255381
0.00985413
0.018627
0.224542
0.00728661
0.254867
0.223918
0.0136096
0.0133043
0.0550736
0.219375
0.260181
0.222116
0.26067
0.0108884
0.072931
0.219313
0.220445
0.230736
0.217367
0.180068
0.23109
0.232199
0.0587691
0.142454
0.232355
0.230767
0.229768
0.038663
0.0217855
0.0237025
0.129779
0.203714
0.00989907
0.0349812
0.0677232
0.00461397
0.218959
0.216641
0.222512
0.222145
0.233151
0.221848
0.170539
0.21623
0.147549
0.222392
0.185517
0.225697
0.220906
0.207865
0.131315
0.23122
0.255232
0.0225858
0.226339
0.167421
0.0805131
0.170111
0.188542
0.228141
0.226118
0.222963
0.221321
0.0778039
0.221022
0.172055
0.0278585
0.190677
0.266318
0.147145
0.0626783
0.223359
0.18361
0.220619
0.138133
0.220599
0.0617902
0.22145
0.00399956
0.0075499
0.217814
0.252751
0.215561
0.199371
0.0370012
0.202532
0.200793
0.0415873
0.209534
0.200842
0.196206
0.195547
0.0982692
0.203062
0.19796
0.134695
0.196036
0.086514
0.193575
0.255999
0.193777
0.268371
0.194817
0.235093
0.0841903
0.0971506
0.169324
0.00392536
0.00300107
0.183643
0.207599
0.211694
0.162994
0.198628
0.0493255
0.217437
0.215355
0.25718
0.143636
0.125856
0.172758
0.215103
0.0205407
0.20982
0.248359
0.00467006
0.288021
0.216237
0.0649797
0.244973
0.182129
0.250252
0.201845
0.17522
0.193841
0.218563
0.17855
0.218808
0.24155
0.0746744
0.0749534
0.260874
0.00307096
0.21729
0.208684
0.260412
0.207025
0.24498
0.000892102
0.210415
0.0849213
0.000350274
0.15843
0.0389716
0.258358
0.224661
0.0693678
0.00238568
0.231078
0.128595
0.209404
0.230278
0.208733
0.242238
0.000782205
0.104642
0.0682821
0.208519
0.0353705
0.152885
0.217261
0.134017
0.215902
0.00262501
0.220351
0.0646588
0.216695
0.170281
0.115934
0.10799
0.218447
0.0022248
0.0428262
0.20747
0.0802007
0.164113
0.187934
0.123028
0.118097
0.207168
0.206543
0.237443
0.205743
0.117068
0.207366
0.205238
0.112119
0.100097
0.000924139
0.206306
0.206093
0.207842
0.0955237
0.199166
0.0103348
0.208639
0.0055253
0.218893
0.000873925
0.0241235
0.176699
0.125417
0.0108082
0.209101
0.258628
0.00354853
0.0170192
0.205859
0.202443
0.0332718
0.204676
0.205396
0.138644
0.0399074
0.218879
0.211901
0.0135986
0.20741
0.207735
0.15214
0.20402
0.267423
0.20818
0.260664
0.178792
0.263073
0.181642
0.0229995
0.244183
0.00544124
0.0060124
0.264772
0.263441
0.183417
0.20748
0.258111
0.254889
0.12827
0.10271
0.168561
0.0624175
0.179537
0.118906
0.255138
0.182394
0.184678
0.200839
0.189912
0.265287
0.171506
0.193686
0.0535343
0.193893
0.143949
0.0177742
0.193889
0.192908
0.194314
0.145172
0.0875146
0.273521
0.122004
0.125327
0.148969
0.230705
0.194487
0.0631739
0.17994
0.148763
0.0130512
0.0658111
0.196973
0.226605
0.155995
0.145613
0.196106
0.19601
0.0783243
0.23678
0.205414
0.134743
0.20244
0.162624
0.21249
0.200178
0.0100704
0.0254984
0.182105
0.265921
0.142801
0.133213
0.00322947
0.152623
0.199832
0.114655
0.209662
0.204976
0.0870456
0.120014
0.207915
0.244748
0.219065
0.166015
0.265274
0.207807
0.0335323
0.216489
0.26807
0.0213444
0.119101
0.231113
0.195547
0.0755525
0.189771
0.0229363
0.0172201
0.165539
0.195931
0.265344
0.220709
0.195377
0.194982
0.200682
0.0883409
0.0106244
0.0639762
0.219251
0.264694
0.147303
0.198026
0.132737
0.0568047
0.194677
0.0606297
0.195615
0.249516
0.120703
0.00223916
0.224246
0.0933453
0.20122
0.0174131
0.0749999
0.15034
0.227317
0.199357
0.201299
0.265988
0.227556
0.0378363
0.267987
0.00327706
-0.000622598
0.200623
0.0407276
0.108975
0.150131
0.104658
0.265518
0.197331
0.223998
0.193201
0.0443048
0.161334
0.0508257
0.123255
0.222501
0.193135
0.194929
0.192605
0.0709875
0.239834
0.181179
0.0631305
0.19393
0.192281
0.191642
0.178525
0.19393
0.0188367
0.0116961
0.192873
0.00347799
0.116678
0.133863
0.0102082
0.14077
0.16483
0.246959
0.183288
0.215883
0.168989
0.123934
0.194474
0.196323
0.196813
0.105343
0.195731
0.240207
0.0162376
0.00276717
0.131125
0.111526
0.00298033
0.195385
0.192722
0.194222
0.0178493
0.0294533
0.191978
0.230341
0.028317
0.0373575
0.265496
0.256971
0.197827
0.0385744
0.207205
0.182879
0.212215
0.166088
0.189553
0.259469
0.166257
0.165703
0.0845222
0.167705
0.26047
0.0317549
0.187604
0.166177
0.0997364
0.204924
0.211331
0.0858976
0.20363
0.227872
0.206509
0.166272
0.250712
0.0503792
0.165784
0.222877
0.0145592
0.178161
0.068012
0.163002
0.0896096
0.259501
0.1698
0.0030317
0.163818
0.163021
0.173709
0.165018
0.15204
0.00462542
0.0409874
0.204077
0.176056
0.144903
0.206548
0.104958
0.228921
0.02313
0.175591
0.0777985
0.158901
0.206791
0.0150081
0.178346
0.174772
0.261798
0.0244005
0.212412
0.232844
0.0391376
0.171651
0.0408751
0.139166
0.195999
0.211138
0.171421
0.170283
0.169664
0.265411
0.0303927
0.21005
0.103675
0.0182843
0.172212
0.215179
0.182769
0.181714
0.0314934
0.184491
0.186146
0.0973902
0.235397
0.264007
0.247053
0.138615
0.186442
0.00393535
0.254194
0.167873
0.183499
0.152427
0.185795
0.184154
0.188926
0.205879
0.189096
0.211226
0.184635
0.244489
0.245742
0.184149
0.202263
0.183245
0.211185
0.211985
0.0129078
0.121319
0.144589
0.0126909
0.195598
0.18663
0.197202
0.102338
0.00630439
0.106844
0.182973
0.200286
0.200336
0.118318
0.136959
0.197815
0.26237
0.187854
0.00827872
0.0182388
0.219794
0.189112
0.112447
0.150768
0.18671
0.122253
0.179038
0.179513
0.179282
0.152671
0.202508
0.178664
0.266533
0.0232107
0.178413
0.266759
0.178922
0.234435
0.0401743
0.177168
0.112145
0.0852758
0.179387
0.178653
0.110216
0.112379
0.177461
0.0943379
0.175725
0.176464
0.18321
0.104641
0.174341
0.0298385
0.176849
0.176498
0.118555
0.174827
0.175282
0.24809
0.170065
0.143345
0.171422
0.173349
0.120137
0.0573461
0.103414
0.254927
0.175591
0.176585
0.14843
0.0587381
0.255413
0.151066
0.153861
0.149735
0.14866
0.0109655
0.00575313
0.0484837
0.0985792
0.176755
0.176016
0.00562133
0.219701
0.166118
0.0753587
0.255493
0.145171
0.14396
0.257871
0.146781
0.212811
0.0443685
0.1449
0.207082
0.191945
0.145261
0.106848
0.0385765
0.145921
0.219661
0.19688
0.111793
0.0528884
0.0858057
0.15262
0.0890058
0.21941
0.0850378
0.150134
0.160722
0.261715
0.115913
0.0102186
0.0559351
0.0866214
0.14746
0.21788
0.159457
0.159164
0.0198423
0.125917
0.00801039
0.161737
0.161733
0.087986
0.0123043
0.193726
0.0379105
0.238965
0.180103
0.17674
0.253945
0.0860291
0.207989
0.216796
0.144769
0.0152035
0.176783
0.251594
0.175031
0.172847
0.14734
0.075918
0.176558
0.0163494
0.252975
0.221175
0.117889
0.176021
0.168309
0.218999
0.246629
0.209413
0.0286063
0.0767764
0.173608
0.181458
0.204214
0.114762
0.200826
0.256943
0.172353
0.202999
0.0687628
0.178872
0.134186
0.0826039
0.178472
0.17851
0.177594
0.203143
0.174415
0.0398014
0.175242
0.0754841
0.199285
0.0195064
0.173401
0.202443
0.00371599
0.0222296
0.170218
0.0643557
0.0437754
0.0682469
0.0571487
0.104108
0.0374036
0.173004
0.171087
0.030066
0.170199
0.17138
0.201292
0.00962347
0.17269
0.16563
0.0021927
0.0236577
0.162785
0.0940507
0.0036126
0.0122397
0.163245
0.116663
0.168432
0.249612
0.0158955
0.201638
0.151403
0.167609
0.164696
0.148812
0.190421
0.175121
0.169547
0.1549
0.25257
0.22233
0.168224
0.170874
0.232749
0.0339366
0.220118
0.190834
0.115115
0.108598
0.170674
0.0774218
0.0192453
0.157519
0.162251
0.267445
0.136489
0.162504
0.160456
0.18695
0.0768237
0.160651
0.1617
0.24335
0.162158
0.0725555
0.165068
0.164804
0.131969
0.119486
0.144885
0.164884
0.161963
0.164746
0.110963
0.139982
0.168279
0.146522
0.109755
0.116894
0.117641
0.118041
0.137153
0.16299
0.140009
0.255647
0.234048
0.041417
0.0989167
0.103124
0.138203
0.136067
0.140286
0.180306
0.137102
0.136354
0.0817033
0.103149
0.191755
0.0811422
0.0326559
0.139478
0.138423
0.141199
0.237655
0.0134422
0.00662279
0.0967524
0.149258
0.146296
0.220241
0.0333146
0.138837
0.255749
0.0392603
0.147724
0.147477
0.176045
0.00176711
0.145844
0.146185
0.145409
0.157588
0.00491997
0.00722474
0.158063
0.158105
0.154918
0.156565
0.162449
0.153449
0.0763552
0.0153008
0.260597
0.196479
0.158394
0.15728
0.118599
0.248289
0.241474
0.224531
0.00132483
0.224754
0.159263
0.159337
0.157963
0.158764
0.159462
0.158014
0.215667
0.132603
0.209786
0.140003
0.0759854
0.0134581
0.160464
0.119107
0.00432249
0.141718
0.165172
0.252328
0.166374
0.112899
0.109329
0.193795
0.123752
0.163093
0.169574
0.16743
0.13578
0.146605
0.248344
0.162586
0.208197
0.0727362
0.0600514
0.160471
0.0622321
0.0218026
0.165304
0.164765
0.121905
0.0818377
0.0940502
0.234662
0.164193
0.0482796
0.00556144
0.147548
0.0270373
0.115955
0.158881
0.196388
0.146842
0.0246422
0.239077
0.0144795
0.232745
0.128775
0.221079
0.151489
0.0428017
0.160543
0.144806
0.0912825
0.109907
0.161133
0.161483
0.240014
0.198018
0.209796
0.24478
0.203428
0.196108
0.196463
0.214315
0.157642
0.156889
0.123518
0.0612138
0.070413
0.0171506
0.222254
0.124144
0.154502
0.152456
0.153669
0.0430112
0.150429
0.211162
0.00493614
0.150373
0.154878
0.177257
0.263122
0.21221
0.211008
0.15118
0.0121336
0.221637
0.15335
0.185312
0.160893
0.189155
0.200453
0.141083
0.218865
0.156382
0.197858
0.160796
0.0193563
0.212622
0.219292
0.126575
0.258739
0.0706103
0.0814524
0.0709457
0.139491
0.206992
0.0571079
0.18475
0.0585333
0.157039
0.157
0.135019
0.163041
0.147738
0.230916
0.190631
0.14595
0.195744
0.15293
0.264135
0.216957
0.152591
0.148329
0.190339
0.227216
0.149987
0.0252867
0.184304
0.230689
0.146957
0.133865
0.151283
0.154062
0.155405
0.156257
0.00367526
0.0708796
0.157402
0.25802
0.155921
0.127662
0.204006
0.125218
0.108534
0.231851
0.258214
0.213221
0.21329
0.214892
0.0336832
0.146252
0.175371
0.256708
0.245183
0.258772
0.262404
0.244966
0.12973
0.126564
0.257158
0.0555934
0.130883
0.195201
0.127724
0.212737
0.200507
0.256932
0.238588
0.212404
0.0703681
0.129918
0.14403
0.138262
0.14523
0.215315
0.196313
0.144637
0.140242
0.142369
0.0151757
0.227503
0.0400064
0.145853
0.172356
0.151372
0.147305
0.142093
0.0403118
0.148761
0.130996
0.148017
0.147101
0.219589
0.134007
0.0760738
0.0456832
0.206031
0.104918
0.104082
0.201189
0.0868566
0.048313
0.0416247
0.0312727
0.19828
0.0653358
0.133376
0.166401
0.0309793
0.224526
0.225299
0.0928875
0.0900617
0.242545
0.137944
0.0147769
0.16113
0.0313856
0.193739
0.029916
0.046641
0.0186747
0.00969496
0.0779015
0.220682
0.0448206
0.0236901
0.024768
0.144894
0.0286129
0.142747
0.226212
0.146437
0.143897
0.197715
0.04419
0.149393
0.14803
0.011642
0.0709512
0.221508
0.149281
0.149754
0.199656
0.226554
0.215825
0.225583
0.053183
0.249106
0.257136
0.149348
0.150243
0.0124788
0.233351
0.25603
0.147563
0.111647
0.146925
0.0169085
0.21654
0.00648032
0.0440991
0.13857
0.1787
0.140252
0.113947
0.22277
0.104537
0.211802
0.138896
0.139986
0.0684828
0.132024
0.11963
0.252349
0.222901
0.191599
0.139027
0.227617
0.0764143
0.0435167
0.0630826
0.0130439
0.139245
0.224819
0.138748
0.0132271
0.011049
0.219263
0.141063
0.0662262
0.234201
0.141166
0.141619
0.21958
0.0192392
0.217971
0.142123
0.144869
0.146104
0.15326
0.146098
0.214121
0.210862
0.146246
0.24143
0.156212
0.210648
0.178218
0.144108
0.225753
0.141114
0.112857
0.243585
0.159494
0.143396
0.0114208
0.146841
0.145562
0.109203
0.140131
0.194361
0.0554202
0.223142
0.13357
0.203687
0.21393
0.143641
0.156853
0.0101365
0.0664305
0.053603
0.141931
0.223624
0.0184867
0.1392
0.243791
0.052844
0.201888
0.049877
0.140049
0.171328
0.138227
0.00132622
0.184003
0.223582
0.109327
0.034264
0.0539166
0.10567
0.107368
0.114634
0.221315
0.0106056
0.0348175
0.120105
0.121416
0.209941
0.194586
0.121992
0.127357
0.116408
0.178266
0.244966
0.22944
0.155601
0.0285545
0.207501
0.206406
0.0926223
0.0475739
0.189738
0.0876847
0.119947
0.197796
0.155787
0.159536
0.135841
0.116113
0.126376
0.126125
0.124426
0.201403
0.128863
0.173881
0.241099
0.223413
0.195624
0.216174
0.11717
0.0853862
0.222219
0.129665
0.198434
0.153831
0.204289
0.250604
0.121701
0.00674841
0.130997
0.132882
0.139492
0.220644
0.130279
0.137079
0.158629
0.139377
0.158378
0.132873
0.00182881
0.157175
0.136972
0.136368
0.00494854
0.196597
0.246735
0.156787
0.163963
0.123584
0.138755
0.137327
0.055751
0.244726
0.139089
0.138712
0.140726
0.0337424
0.221108
0.149533
0.124898
0.156881
0.0810914
0.106059
0.209262
0.128858
0.125283
0.101274
0.125776
0.136357
0.0847993
0.128973
0.221031
0.146276
0.0737125
0.220044
0.221015
0.112344
0.113277
0.0952843
0.129021
0.0562842
0.132429
0.0620181
0.266152
0.205632
0.170231
0.0810319
0.0202106
0.229623
0.0181842
0.0210295
0.12837
0.00207182
0.128902
0.0294702
0.171429
0.0896785
0.127549
0.192397
0.172481
0.128671
0.0255398
0.0208091
0.167786
0.126518
0.0372195
0.129478
0.127973
0.146255
0.134604
0.24976
0.198512
0.229517
0.169371
0.193804
0.128419
0.198015
0.170749
0.128831
0.231124
0.253446
0.192766
0.188139
0.128891
0.214536
0.125832
0.230378
0.166111
0.196138
0.0187614
0.0393635
0.185971
0.0100262
0.222937
0.26579
0.232739
0.0118322
0.054268
0.018141
0.219343
0.228385
0.00610766
0.172498
0.121837
0.214222
0.176847
0.121294
0.129769
0.0300955
0.189241
0.192817
0.0527571
0.249676
0.229304
0.138486
0.123282
0.260769
0.122454
0.254643
0.191186
0.189198
0.123605
0.238152
0.109514
0.236151
0.220446
0.240597
0.00672512
0.126719
0.247788
0.066216
0.256445
0.12711
0.24206
0.0955186
0.0947634
0.100882
0.250659
0.206303
0.239597
0.205185
0.107684
0.247563
0.247973
0.0960972
0.24919
0.111923
0.198725
0.105794
0.206163
0.136708
0.0921349
0.129896
0.0892401
0.130699
0.0198672
0.113364
0.103655
0.230641
0.100613
0.192079
0.144576
0.171426
0.11102
0.0374019
0.0826003
0.193555
0.105874
0.230257
0.07123
0.115634
0.236923
0.197078
0.117774
0.214149
0.116008
0.105516
0.103279
0.135138
0.1108
0.00207354
0.0374399
0.0411093
0.10613
0.106835
0.195688
0.0472027
0.0273038
0.100914
0.0670755
0.228761
0.208297
0.0331974
0.118492
0.174022
0.112104
0.119867
0.0961986
0.117384
0.207768
0.116913
0.163495
0.000668443
0.225659
0.160712
0.258094
0.120656
0.116993
0.021146
0.23092
0.0894285
0.121371
0.198538
0.125482
0.122358
0.1148
0.112829
0.0308914
0.125087
0.119856
0.120608
0.115238
0.134812
0.117418
0.225879
0.097171
0.122665
0.227832
0.257781
0.168021
0.100722
0.187111
0.120221
0.109691
0.104453
0.0561612
0.097758
0.0893533
0.245692
0.0990124
0.135316
0.133029
0.0330987
0.0979453
0.225394
0.111824
0.11478
0.159353
0.150463
0.109485
0.174652
0.135529
0.113052
0.110534
0.125692
0.110907
0.224035
0.215829
0.100503
0.0971403
0.107074
0.0434824
0.113461
0.135276
0.194994
0.110351
0.11449
0.104589
0.116371
0.226501
0.0965654
0.219397
0.114233
0.110353
0.101913
0.110787
0.0860234
0.10733
0.0878062
0.0767132
0.109419
0.242985
0.124643
0.240947
0.16026
0.0736651
0.0237906
0.0950561
0.225483
0.111697
0.110318
0.0810979
0.112134
0.0807459
0.227399
0.225937
0.0846016
0.0852575
0.0889507
0.0894803
0.181095
0.142406
0.0870931
0.0876494
0.0659266
0.108607
0.089088
0.0894778
0.0513651
0.0497686
0.00238433
0.0897282
0.183113
0.0308927
0.142517
0.0929718
0.0958132
0.100089
0.128221
0.223261
0.113715
0.0820275
0.0118931
0.0192889
0.144417
0.0942346
0.0893164
0.12331
0.0321973
0.0211388
0.0954603
0.224819
0.106125
0.107946
0.0503636
0.100185
0.251455
0.102652
0.100771
0.141447
0.10294
0.106444
0.224766
0.107076
0.121131
0.0190861
0.00418662
0.176249
0.0374276
0.0216494
0.110444
0.091072
0.225199
0.108417
0.233172
0.233658
0.105395
0.224071
0.00739564
0.101837
0.108398
0.0350485
0.109563
0.233521
0.258225
0.0504737
0.229618
0.107934
0.194087
0.213343
0.108587
0.113286
0.232001
0.106253
0.250085
0.107968
0.131324
0.117469
0.250875
0.229588
0.132732
0.110821
0.107566
0.202119
0.130997
0.201852
0.229688
0.226325
0.111087
0.0124917
0.111646
0.103824
0.200723
0.0844576
0.201397
0.0427507
0.212859
0.000317757
0.226025
0.131747
0.0935858
0.103002
0.228439
0.10059
0.225682
0.219156
0.228068
0.013764
0.003652
0.203423
0.00381673
0.100392
0.129712
0.175228
0.0981814
0.219502
0.14962
0.22352
0.0958275
0.221812
0.184092
0.20029
0.259299
0.135988
0.244878
0.0954367
0.0103619
0.149646
0.0101086
0.256641
0.0468282
0.144786
0.200556
0.105158
0.100093
0.0142126
0.0344388
0.102172
0.205987
0.228079
0.00693129
0.233853
0.131972
0.249595
0.0599913
0.208381
0.101994
0.18478
0.229775
0.18218
0.170923
0.192832
0.209963
0.223567
0.168743
0.0438011
0.196979
0.10367
0.103971
0.10356
0.0620106
0.2441
0.245098
0.198672
0.113552
0.219466
0.226172
0.113266
0.104589
0.103399
0.0999701
0.244183
0.0496781
0.0977416
0.15498
0.100323
0.196647
0.182008
0.120509
0.0590276
0.101344
0.0994205
0.141414
0.255201
0.163519
0.0995186
0.220938
0.0705878
0.0537991
0.240161
0.0049587
0.0702433
0.0143103
0.0704166
0.0706395
0.222035
0.0981683
0.183505
0.22062
0.12287
0.104606
0.229322
0.0744112
0.226483
0.0940473
0.0969356
0.0971841
0.200491
0.168956
0.226055
0.204934
0.217319
0.0833258
0.145183
0.230016
0.214755
0.104568
0.213963
0.0724254
0.197222
0.0473878
0.199306
0.100034
0.179048
0.088574
0.135566
0.214286
0.0704146
0.214979
0.0540329
0.108148
0.0865399
0.0311759
0.0912194
0.0854009
0.12081
0.226162
0.0892662
0.0411402
0.0181855
0.201289
0.020215
0.216567
0.00429659
0.0936375
0.0505896
0.0924955
0.214698
0.218384
0.0470656
0.243138
0.0330498
0.00231502
0.199848
0.180601
0.0912613
0.215005
0.0687745
0.0197178
0.117801
0.00262743
0.150001
0.191667
0.13936
0.0934115
0.253667
0.0948192
0.153525
0.199841
0.125721
0.217465
0.0911985
0.137294
0.0903573
0.142003
0.24266
0.0970624
0.0836291
0.142521
0.0910719
0.159045
0.0897196
0.0586873
0.0896431
0.242508
0.0893576
0.0858634
0.0886021
0.236263
0.11321
0.227517
0.246139
0.244529
0.174746
0.0485017
0.0649599
0.1827
0.215441
0.0225782
0.0625431
0.0886132
0.0871211
0.216773
0.256788
0.00307549
0.0322157
0.0800586
0.227461
0.0326901
0.127216
0.216939
0.0862112
0.0849557
0.0856904
0.0831885
0.0860291
0.175671
0.106437
0.213248
0.0229444
0.0892764
0.0861453
0.238057
0.135785
0.234044
0.24792
0.0468945
0.086699
0.0647866
0.23633
0.238871
0.233538
0.232622
0.120212
0.0639554
0.228342
0.0471184
0.0865026
0.209472
0.0966145
0.0855818
0.0679762
0.0840993
0.207794
0.206568
0.0864558
0.153348
0.0970148
0.0963902
0.254137
0.0248288
0.0532151
0.086418
0.0871735
0.00781405
0.0871242
0.0662379
0.0923913
0.203322
0.0873779
0.0165655
0.0939792
0.00778382
0.238772
0.231612
0.121512
0.0896334
0.0923685
0.106228
0.0788789
0.0716618
0.108413
0.0758314
0.0745917
0.0652549
0.0761246
0.240181
0.214186
0.127668
0.200403
0.080351
0.206894
0.0636467
0.199996
0.16602
0.191846
0.0773879
0.145073
0.0180076
0.207171
0.223502
0.0888101
0.261816
0.0799655
0.0819899
0.137985
0.0211679
0.10691
0.0827666
0.206049
0.0627492
0.088612
0.0858878
0.0596439
0.171069
0.0597644
0.0588093
0.0602752
0.0610726
0.0598794
0.202399
0.20296
0.209232
0.199536
0.0382707
0.0604307
0.234929
0.0663656
0.0368506
0.0657089
0.0651935
0.03935
0.0660997
0.0647744
0.0653998
0.0831738
0.0797746
0.14736
0.0913468
0.103132
0.133469
0.115021
0.105807
0.039269
0.0837211
0.0829547
0.062666
0.0676559
0.0809989
0.161138
0.0166055
0.190908
0.253799
0.149629
0.243764
0.0820329
0.0182218
0.0198746
0.0195897
0.111116
0.0208657
0.0786445
0.0808967
0.228551
0.261377
0.138583
0.0731912
0.23204
0.125368
0.154661
0.0802552
0.157151
0.0803972
0.161975
0.067361
0.0359123
0.0434863
0.0762474
0.00151162
0.0825175
0.23042
0.0608859
0.188613
0.0244155
0.0738157
0.0760341
0.215567
0.10372
0.162245
0.116333
0.161153
0.0751184
0.0145729
0.233053
0.0903883
0.15023
0.229391
0.229462
0.0770924
0.0653893
0.0779333
0.118689
0.0773977
0.158011
0.215055
0.121834
0.0785864
0.079233
0.126144
0.144162
0.177954
0.0784564
0.0803166
0.0807597
0.230477
0.0794312
0.0808269
0.029015
0.0708585
0.03744
0.0142107
0.036796
0.0228816
0.069461
0.0712513
0.0116427
0.0563376
0.0112336
0.227924
0.0727078
0.0410884
0.228188
0.174936
0.109047
0.0628199
0.0759566
0.0117135
0.074119
0.167534
0.117353
0.0726105
0.233893
0.0357488
0.00346771
0.0734376
0.268901
0.115495
0.152303
0.0131119
0.0738517
0.0731523
0.177924
0.0132318
0.114418
0.147431
0.0679173
0.0733698
0.0756759
0.261053
0.240735
0.234336
0.110919
0.0373621
0.0145811
0.0131176
0.235797
0.0132017
0.046402
0.0767629
0.257255
0.090182
0.0782214
0.212301
0.23541
0.16792
0.15931
0.077334
0.07527
0.228274
0.195464
0.207269
0.0225349
0.191611
0.0500673
0.104953
0.0411992
0.0746167
0.118906
0.240534
0.119656
0.117733
0.248585
0.0702009
0.229904
0.0527582
0.157098
0.184627
0.24026
0.119603
0.233387
0.0662321
0.0553563
0.033117
0.0703536
0.233495
0.0533388
0.0481314
0.144158
0.0547904
0.0549301
0.0591532
0.0190091
0.109013
0.0718086
0.0849898
0.0499341
0.0651363
0.0576337
0.0395045
0.235736
0.163519
0.0531481
0.0737168
0.266031
0.139176
0.0705046
0.149718
0.0711263
0.133006
0.0691836
0.23405
0.0516419
0.262897
0.0450082
0.0398625
0.145428
0.0542608
0.159136
0.139159
0.168227
0.0220081
-0.00101693
0.0302738
0.025133
0.0448861
0.0161486
0.0496253
0.0461074
0.0455015
0.246936
0.0304459
0.236226
0.236487
0.0356518
0.224963
0.0744615
0.230952
0.214535
0.051628
0.227118
0.0518507
0.00175974
0.16774
0.107243
0.219217
0.213723
0.117543
0.017919
0.0324561
0.169821
0.185098
0.0532253
0.0515619
0.0694576
0.188488
0.205525
0.151744
0.0186974
0.0135267
0.0686797
0.172988
0.190493
0.208567
0.247327
0.0707685
0.219765
0.201192
0.150503
0.263779
0.107119
0.138218
0.175553
0.0665631
0.23842
0.0114995
0.103291
0.200899
0.181313
0.213012
0.237127
0.0211021
0.103076
0.0689611
0.123265
0.0698191
0.114098
0.126625
0.122361
0.0884116
0.0695338
0.0686166
0.066345
0.0901091
0.245881
0.0973555
0.0873642
0.0935308
0.232249
0.204093
0.0200114
0.23804
0.0691384
0.0662719
0.139165
0.0583504
0.0589711
0.0816621
0.020467
0.0574403
0.0621673
0.014318
0.054601
0.0534954
0.0587989
0.0774365
0.064562
0.0651363
0.236152
0.0431792
0.0524213
0.0385149
0.0709837
0.0381118
0.0358311
0.0671925
0.0157825
0.0170096
0.0959004
0.0392681
0.0347461
0.237412
0.0677529
0.052094
0.0479936
0.0181541
0.0428933
0.0670738
0.0693106
0.0614844
0.108258
0.14868
0.171581
0.128198
0.0171602
0.0612636
0.0596836
0.0615167
0.19618
0.0941523
0.0686539
0.253057
0.0603338
0.0934462
0.0598333
0.0621898
0.164707
0.170836
0.0597306
0.100037
0.215247
0.214097
0.0943325
0.0604466
0.235271
0.0604059
0.130431
0.0610384
0.257821
0.0614283
0.19371
0.0600542
0.164472
0.199663
0.230393
0.209428
0.0586425
0.202541
0.146699
0.164098
0.0605399
0.0249898
0.106401
0.149395
0.06036
0.05992
0.060776
0.106351
0.0541888
0.248071
0.179263
0.0230862
0.2359
0.0569732
0.229278
0.0232477
0.0523454
0.0556591
0.195619
0.0602093
0.168596
0.246071
0.0529756
0.0566246
0.0916684
0.241752
0.195718
0.194746
0.0577986
0.20547
0.175438
0.0561274
0.0942245
0.0796153
0.0551758
0.0553634
0.168256
0.208087
0.0612076
0.0966188
0.0781646
0.233509
0.228577
0.232884
0.0602847
0.23485
0.0408733
0.184608
0.213126
0.122003
0.165858
0.0600402
0.239629
0.0291372
0.0328529
0.0352074
0.101483
0.0352016
0.108816
0.106751
0.0948502
0.118105
0.190667
0.0969121
0.144156
0.00828936
0.0407391
0.0823189
0.137602
0.0575127
0.154001
0.216446
0.11143
0.186349
0.179656
0.0107299
0.0351639
0.162922
0.0412897
0.000372984
0.238076
0.19709
0.228195
0.0333664
0.237905
0.0906358
0.226139
0.0865526
0.22952
0.0856785
0.234552
0.0382476
0.206009
0.0553531
0.175197
0.0876534
0.180732
0.0904636
0.272148
0.0558666
0.0755052
0.19139
0.175631
0.0539561
0.117932
0.175789
0.0559121
0.157788
0.0224321
0.157332
0.0512459
0.0496668
0.0763143
0.237758
0.056051
0.0358421
0.0551473
0.0570206
0.102608
0.198474
0.0638927
0.0574506
0.10215
0.102209
0.00448239
0.231298
0.0553914
0.0732355
0.13285
0.182453
0.00176244
0.0570133
0.236074
0.0474106
0.0457446
0.145168
0.0271728
0.0404167
0.213374
0.057341
0.233448
0.106549
0.0363768
0.044899
0.119796
0.042437
0.0552027
0.0815182
0.0523508
0.0537795
0.053151
0.0221726
0.140017
0.051466
0.0726881
0.0491266
0.0664106
0.0739614
0.0509079
0.0478651
0.230817
0.0520732
0.0451732
0.0478345
0.235798
0.0560162
0.0468043
0.0649279
0.174156
0.06984
0.0508865
0.0568565
0.0495849
0.00280696
0.233836
0.0705641
0.0496727
0.0367828
0.241248
0.0940999
0.0252846
0.048194
0.0101924
0.102524
0.232587
0.0472096
0.231191
0.0440257
0.0290818
0.235404
0.232014
0.240237
0.0354942
0.236782
0.0140617
0.0170985
0.0484736
0.025451
0.0217882
0.0596057
0.176417
0.236299
0.226709
0.244596
0.224576
0.138797
0.100783
0.037175
0.0453948
0.0532837
0.13176
0.148181
0.0906688
0.197364
0.0695413
0.0497298
0.160034
0.0626851
0.225406
0.22499
0.0278482
0.226759
0.148882
0.205399
0.241176
0.046494
0.187269
0.151089
0.160349
0.150467
0.0469986
0.11498
0.227853
0.243014
0.0564179
0.222539
0.241049
0.232042
0.192766
0.0394906
0.244421
0.0419696
0.216215
0.216878
0.0417468
0.0463721
0.0373198
0.133191
0.237556
0.0967417
0.14974
0.0379661
0.166128
0.237929
0.049728
0.194464
0.0479866
0.198426
0.225132
0.24452
0.224267
0.0809457
0.0893923
0.106142
0.188088
0.049868
0.210652
0.211048
0.0481903
0.20006
0.115044
0.0483043
0.149755
0.20342
0.0468542
0.228079
0.0394512
0.207714
0.248275
0.0439945
0.126176
0.0447085
0.153684
0.0469294
0.0223891
0.237988
0.15601
0.0761433
0.103277
0.131729
0.124697
0.0189494
0.118532
0.116458
0.226928
0.15958
0.251445
0.216749
0.0629215
0.231785
0.0237225
0.0246392
0.168237
0.143162
0.200236
0.199544
0.026103
0.0223834
0.114492
0.234772
0.189822
0.216437
0.248858
0.0254483
0.192152
0.157169
0.19271
0.198728
0.146868
0.239012
0.202867
0.206626
0.0581317
0.0624649
0.247671
0.0255402
0.0226642
0.0428973
0.219259
0.235308
0.23857
0.0416446
0.0394577
0.174433
0.040991
0.0421845
0.179697
0.243364
0.198497
0.0654195
0.226218
0.114575
0.195788
0.197709
0.244607
0.0399866
0.144135
0.144825
0.0421672
0.0401731
0.0383484
0.0407311
0.153961
0.0422381
0.243872
0.193174
0.177921
0.0421185
0.037286
0.0831253
0.187249
0.245229
0.111792
0.10041
0.242763
0.0183117
0.0326495
0.0662051
0.103821
0.032171
0.0413818
0.0428408
0.0801272
0.0431289
0.2427
0.243833
0.088332
0.242746
0.141525
0.0795162
0.0386094
0.0633183
0.0593543
0.0707983
0.0412664
0.0351876
0.0448377
0.0517459
0.0375363
0.0614751
0.0657144
0.188171
0.0376445