/*--------------------------------*- C++ -*----------------------------------*\
| =========                 |                                                 |
| \\      /  F ield         | OpenFOAM: The Open Source CFD Toolbox           |
|  \\    /   O peration     | Version:  2406                                  |
|   \\  /    A nd           | Website:  www.openfoam.com                      |
|    \\/     M anipulation  |                                                 |
\*---------------------------------------------------------------------------*/
FoamFile
{
    version     2.0;
    format      ascii;
    arch        "LSB;label=32;scalar=64";
    class       surfaceScalarField;
    location    "46";
    object      phi;
}
// * * * * * * * * * * * * * * * * * * * * * * * * * * * * * * * * * * * * * //

dimensions      [0 3 -1 0 0 0 0];

oriented        oriented;

internalField   nonuniform List<scalar> 
113358
(
-1.46973e-05
3.06205e-05
-2.14413e-05
5.51864e-06
2.20015e-05
2.81838e-07
-5.9153e-06
-1.63681e-05
-2.56773e-05
1.93969e-05
-3.04253e-06
9.32321e-06
-2.39125e-05
-6.28593e-06
2.35353e-05
6.66299e-06
-1.72971e-05
9.21076e-07
3.01473e-05
-1.37714e-05
1.36158e-05
-1.41962e-05
-7.96044e-06
8.54089e-06
-7.17558e-06
3.40513e-05
-2.47786e-05
-2.09659e-06
-7.40492e-07
-3.15695e-05
1.72378e-05
1.50725e-05
8.2918e-06
6.04028e-07
1.80889e-05
-2.69848e-05
7.27623e-06
3.67947e-06
-1.06542e-05
-3.01489e-07
-6.1066e-06
2.30956e-05
-2.17418e-05
4.75288e-06
-1.4749e-05
8.12838e-08
-3.40763e-07
1.50085e-05
-4.48776e-05
3.48564e-06
1.20293e-05
2.93619e-05
1.2084e-06
-2.57603e-06
1.36775e-06
1.96244e-06
-1.4217e-06
1.9309e-05
-1.98515e-05
1.03866e-06
3.30801e-07
1.16752e-05
-1.30446e-05
9.9909e-06
3.53744e-05
-2.90669e-05
-1.62981e-05
-1.95148e-05
1.07972e-05
6.72092e-06
1.99686e-06
1.50417e-05
-3.79963e-05
3.18574e-05
-8.90276e-06
2.57225e-05
3.32854e-06
2.80424e-05
-5.70937e-05
1.89578e-05
3.80023e-07
-4.81982e-07
-1.88557e-05
-1.16426e-05
4.65464e-05
4.34333e-06
-3.92494e-05
-7.62215e-07
-4.53763e-05
4.92613e-05
-3.12199e-06
-9.13427e-07
4.3551e-06
3.23061e-07
-3.7646e-06
-4.76795e-05
2.08707e-05
-4.02908e-06
3.08378e-05
-2.2084e-05
5.16441e-06
1.81922e-05
-1.27328e-06
-9.41916e-06
9.12973e-06
-1.81061e-07
4.70535e-07
-1.89866e-06
-7.46302e-06
5.34916e-06
4.01258e-06
1.89562e-05
-3.90693e-07
3.92518e-07
-2.22846e-06
2.22178e-06
6.93205e-09
-5.44166e-06
-2.58612e-05
2.74638e-05
3.83908e-06
5.08613e-06
-2.58118e-07
-8.09224e-06
3.26432e-06
2.03512e-05
-1.10442e-06
1.19667e-06
-2.04435e-05
-2.76793e-05
1.26993e-05
-2.96691e-06
1.79468e-05
1.75151e-05
2.51474e-06
-1.98424e-05
-1.87291e-07
-3.404e-05
8.55978e-06
-1.19048e-05
3.73836e-05
-3.74874e-08
-2.1646e-06
2.20209e-06
9.34536e-06
1.07856e-05
1.76287e-06
-2.18936e-05
7.30273e-06
-3.70856e-05
3.04439e-05
-6.61025e-07
-3.5449e-06
4.50979e-06
3.67312e-05
-3.76968e-05
-1.88681e-05
1.5952e-05
-1.98551e-05
2.27711e-05
1.52513e-07
-2.40569e-05
-3.10367e-05
5.49412e-05
-1.21432e-06
4.33794e-05
-1.23238e-05
-2.98412e-05
5.21622e-06
-1.83453e-05
-7.34044e-06
-6.21824e-06
3.24886e-05
-3.6622e-07
-2.59041e-05
-2.26195e-06
1.56805e-05
-1.04815e-05
-2.93705e-06
-3.04454e-05
-1.20328e-05
4.12639e-05
-1.15315e-05
3.56757e-05
1.51505e-06
-2.56591e-05
-3.41003e-05
4.26373e-06
-5.52693e-06
3.53636e-05
3.55232e-05
1.57854e-05
-4.70069e-05
-4.30158e-06
2.32261e-05
-1.61793e-05
1.55175e-06
-8.5985e-06
-1.04193e-05
3.03409e-06
1.0523e-05
-3.13799e-06
2.91942e-05
-7.69664e-06
1.65219e-05
-3.80195e-05
-1.02578e-05
-3.78788e-05
4.10864e-05
7.05105e-06
-2.06048e-06
7.59765e-06
-8.80518e-06
3.26807e-06
2.80884e-05
-1.21232e-05
2.01461e-05
-3.61113e-05
-2.13745e-05
4.96505e-06
3.7392e-05
-2.09826e-05
1.17424e-05
-5.7449e-06
4.56422e-06
-1.05617e-05
3.83978e-05
-9.94197e-06
-2.97033e-05
1.24726e-06
-1.29901e-05
-1.47846e-05
8.14002e-06
1.96347e-05
-3.08106e-05
-5.01079e-06
1.45808e-05
2.12405e-05
-2.85083e-06
3.25974e-06
-4.08877e-07
3.52976e-05
-6.01383e-06
-3.4861e-05
5.57703e-06
-1.57725e-05
-4.29871e-05
1.6993e-05
4.17669e-05
-4.11603e-06
4.3704e-06
-3.44102e-05
3.41559e-05
1.66697e-06
2.17246e-05
2.95674e-06
-2.63482e-05
3.51345e-06
-2.90957e-06
-6.04158e-07
-1.96128e-08
6.57537e-08
1.15512e-05
-1.1598e-05
6.24549e-06
-3.01946e-05
3.26511e-05
-8.7019e-06
9.82061e-06
-2.42828e-05
2.33777e-05
-8.91541e-06
7.35725e-06
-7.59742e-06
2.41133e-07
-1.95197e-05
-6.47547e-06
3.39302e-05
-7.93502e-06
-2.44857e-07
4.09136e-06
-3.84674e-06
7.43973e-06
-2.93867e-05
9.03191e-06
1.29153e-05
4.70431e-05
-3.49442e-06
-3.07221e-06
-4.04759e-05
-2.73698e-05
-3.29924e-05
3.57792e-05
2.45833e-05
3.79189e-06
-3.73356e-05
6.174e-06
3.64829e-05
-2.92821e-05
-8.79191e-07
-6.32165e-06
1.07625e-07
1.74792e-07
-1.52405e-05
1.4959e-05
6.49506e-06
8.37461e-06
1.29061e-05
-2.77756e-05
7.84694e-06
-4.11982e-06
3.19924e-06
-6.92648e-06
-1.61048e-05
-1.11484e-05
2.73406e-05
-8.73289e-08
-2.11702e-05
2.61002e-05
-1.88275e-05
1.38976e-05
-3.05768e-06
3.35707e-09
3.05432e-06
-3.078e-05
3.37502e-05
-3.47253e-05
2.66978e-05
-2.87147e-06
-9.53715e-07
-6.22403e-07
4.44756e-06
6.40612e-05
-6.19312e-05
1.91091e-06
-4.04166e-06
-1.17567e-05
3.66574e-06
1.13335e-05
-3.24244e-06
-4.63527e-06
2.57587e-05
-2.82987e-05
7.17529e-06
-1.79845e-05
-2.12976e-05
3.14807e-05
7.80144e-06
9.104e-06
-1.29569e-05
1.84721e-05
-1.46186e-05
7.6707e-06
2.51245e-05
-5.18064e-05
1.90114e-05
-3.37421e-05
1.20446e-05
1.46896e-05
7.00809e-06
9.13451e-07
-3.01353e-05
2.4585e-05
4.63622e-06
-2.71023e-05
2.49778e-06
9.68158e-06
1.4923e-05
2.34673e-05
-2.03179e-05
7.00053e-06
-1.01515e-05
1.31582e-06
1.19088e-05
-1.30218e-05
-2.03643e-07
1.71822e-05
-2.42757e-06
-2.54192e-06
-1.22126e-05
1.59203e-05
1.83507e-05
-1.59001e-05
-1.83711e-05
2.39056e-06
-7.53119e-07
4.28388e-06
-5.92133e-06
4.65521e-06
-2.79503e-07
-4.37543e-06
3.62075e-08
3.86224e-06
-3.89858e-06
-4.78916e-07
2.9915e-06
-1.29655e-05
1.04529e-05
-2.03873e-05
4.13889e-05
4.35419e-07
-2.14373e-05
4.82641e-06
-2.20412e-05
1.70405e-05
1.74271e-07
-3.03737e-06
-4.03016e-06
1.13207e-06
5.93534e-06
-5.73498e-06
-1.39942e-05
3.67836e-06
1.60509e-05
-3.04032e-06
1.96348e-05
8.48817e-06
-2.50827e-05
4.11513e-06
3.68025e-06
-1.78325e-05
1.00374e-05
-2.72118e-06
2.8375e-05
-3.22776e-05
6.62388e-06
-7.39273e-06
7.59039e-06
-1.97601e-07
1.81234e-05
-2.24695e-05
3.58338e-06
7.61887e-07
1.84106e-05
1.08453e-05
-3.24458e-05
3.19008e-06
-2.65408e-05
-1.50446e-05
7.47349e-06
3.41122e-05
-2.19329e-06
-2.1003e-05
8.9256e-07
2.23034e-05
1.27657e-05
-1.325e-05
9.98048e-08
3.84805e-07
1.61984e-05
-2.83365e-05
-5.42639e-06
1.75654e-05
-3.45624e-06
2.69857e-07
3.18604e-06
-4.39771e-06
-1.35811e-06
2.94923e-05
-2.37367e-05
-1.49802e-05
9.39921e-06
4.81008e-05
-4.25204e-05
-1.07773e-05
2.19649e-05
-3.21329e-05
2.09462e-05
1.63367e-06
-2.55015e-05
2.04081e-05
3.46003e-06
-3.84694e-06
-9.24408e-06
3.2788e-05
-1.96968e-05
2.31793e-05
-9.82557e-06
-1.02883e-05
-3.06531e-06
-2.8143e-06
-1.22838e-05
1.81175e-05
-3.01924e-06
6.03515e-06
-2.94696e-06
-3.08804e-06
-1.09391e-06
-2.50254e-05
-6.58713e-06
3.27066e-05
-1.47469e-05
2.06286e-05
5.87033e-06
-1.1752e-05
5.76436e-06
-1.42392e-05
2.42716e-05
-1.57969e-05
-4.70786e-05
1.12223e-05
-7.85332e-07
3.66425e-05
-2.55993e-06
-4.23399e-05
3.83491e-05
6.55006e-06
5.58769e-08
-3.93513e-06
3.88009e-06
2.10028e-05
-3.25244e-05
6.32219e-07
1.08895e-05
3.55166e-05
4.08293e-06
-3.8323e-05
-1.27649e-06
1.09142e-05
1.20303e-06
-2.58031e-05
1.36867e-05
-9.41576e-06
1.2988e-05
1.48383e-05
-2.63011e-05
-2.19428e-05
1.30334e-05
3.52093e-05
5.71918e-06
3.02881e-06
-4.09239e-06
6.86896e-06
-5.10007e-06
-2.62194e-05
2.44506e-05
4.49056e-06
1.4175e-05
-6.37533e-06
-1.22902e-05
-7.74207e-06
1.68088e-05
3.41524e-05
-4.32191e-05
1.78082e-07
2.4119e-06
-2.58995e-06
-2.2392e-05
3.55129e-06
1.38103e-05
5.03054e-06
3.46768e-05
-1.8712e-05
-2.34941e-05
7.52967e-06
3.28388e-05
-8.13847e-06
-3.63438e-06
-2.10659e-05
-2.87247e-05
-1.05632e-06
-7.95286e-07
3.05763e-05
2.55847e-05
1.15707e-05
-3.52352e-05
-1.91991e-06
6.92823e-06
4.83029e-06
-1.17585e-05
1.76283e-06
-2.51835e-05
-1.97905e-07
2.36178e-05
3.9685e-05
-3.05019e-05
-2.86082e-06
-6.32067e-06
4.46103e-06
-6.35979e-07
-3.56684e-06
-2.58327e-07
-3.27336e-05
4.65451e-05
1.96823e-05
-3.3493e-05
1.8224e-05
-2.95448e-05
-2.97735e-06
1.42979e-05
-2.39367e-05
2.6021e-05
-8.75766e-07
-1.2075e-06
-3.02306e-06
1.49429e-06
1.5286e-06
3.49141e-05
-3.8726e-06
9.88535e-06
-4.09269e-05
-2.60772e-05
3.53422e-05
-3.32008e-05
6.7735e-08
2.40314e-06
1.87798e-05
-2.12501e-05
2.67233e-06
-2.58256e-06
-9.003e-08
-1.11681e-05
-6.2887e-06
1.06958e-06
1.63877e-05
-8.54534e-06
2.12742e-05
-1.62051e-05
3.47667e-06
1.57907e-06
-4.8189e-06
3.01553e-06
2.24573e-07
-1.90224e-06
-1.7744e-06
3.67644e-06
-2.25567e-05
2.25372e-05
2.26028e-05
-2.25832e-05
5.25649e-05
-1.31774e-05
-1.14871e-05
-2.78999e-05
1.30963e-05
5.46507e-07
-4.18232e-07
-1.32246e-05
3.6211e-05
-4.41525e-05
6.10466e-06
1.83683e-06
3.1021e-06
-5.43793e-08
-3.04757e-06
-5.97257e-06
2.88251e-05
-2.7651e-05
4.79853e-06
-1.40676e-05
1.46799e-05
-1.61569e-06
1.00336e-06
-1.04958e-05
9.18176e-06
6.3055e-07
6.83295e-07
2.49212e-06
-1.98645e-05
7.22845e-06
1.01439e-05
-1.14346e-05
-1.07405e-05
2.62273e-05
-4.05215e-06
-1.48596e-05
1.45638e-05
2.63188e-07
3.2752e-08
-3.03052e-05
-3.59745e-05
3.58345e-05
-1.14973e-05
3.67046e-05
1.1727e-05
-3.69343e-05
5.9602e-06
3.04549e-05
6.98579e-06
-4.34008e-05
-1.34872e-05
6.02513e-06
1.81502e-05
-1.06877e-05
-2.03465e-08
7.58614e-08
1.07101e-05
-1.07651e-05
1.37026e-06
3.84768e-05
-5.66733e-06
-3.41791e-05
-3.94138e-06
-2.54264e-06
4.24398e-06
2.24017e-06
4.29056e-06
-4.05284e-06
-2.37713e-07
-3.5467e-06
-1.23235e-05
1.01083e-06
-3.02428e-05
4.68348e-07
-5.93456e-06
3.57092e-05
-1.5095e-05
1.35636e-05
4.25466e-07
1.10547e-06
-4.43718e-07
8.31723e-06
-1.35002e-07
-7.73855e-06
-2.90182e-06
2.83302e-06
6.85535e-08
3.14015e-06
-8.1035e-07
2.11347e-05
-2.3465e-05
2.85798e-05
3.2293e-06
-2.49539e-05
-6.85486e-06
-3.3736e-06
-1.57326e-05
-1.01323e-05
1.38483e-05
-1.52433e-05
1.02717e-06
3.67366e-07
7.69662e-06
-3.19685e-05
3.76768e-05
-1.34049e-05
1.1114e-05
2.28792e-06
-5.81681e-06
-7.5836e-06
-1.66829e-05
-3.85117e-05
9.81712e-06
4.53775e-05
5.40157e-08
2.63556e-06
-2.03474e-07
-2.48563e-06
9.87054e-06
-6.49148e-07
1.54455e-06
-1.07654e-05
-1.00251e-05
2.14961e-07
9.90258e-06
-9.22028e-08
2.25221e-05
3.77217e-06
-2.83114e-05
2.01717e-06
-3.14271e-05
-1.7774e-05
4.01883e-05
9.01268e-06
-7.05785e-06
3.01437e-06
-6.51393e-06
7.08534e-06
2.97299e-05
-3.82593e-05
1.44397e-06
-2.25263e-05
-2.27603e-05
9.13655e-06
3.61519e-05
-2.77062e-06
3.02578e-06
-2.55179e-07
1.7763e-05
1.01905e-05
-2.05337e-06
-2.58986e-05
-7.1571e-07
-4.41671e-06
-2.93741e-05
3.45063e-05
-2.26526e-05
5.76963e-06
5.51397e-05
-3.82571e-05
2.77858e-05
-2.06121e-05
-1.09852e-05
3.8115e-06
2.64886e-06
-9.96455e-08
-2.54937e-06
4.26355e-05
-2.12658e-05
2.9658e-06
-2.43357e-05
9.49107e-06
-1.0226e-05
1.30437e-06
-5.69435e-07
2.43264e-06
2.31876e-06
-4.75141e-06
-1.65605e-05
-2.11987e-05
4.32081e-06
3.34369e-05
-1.14598e-05
2.19515e-07
1.18656e-05
-6.24417e-07
2.1018e-05
-4.31452e-05
5.23558e-07
2.16038e-05
-2.19128e-05
-2.66833e-05
3.55905e-05
1.30055e-05
-1.30822e-05
1.78009e-05
2.81201e-05
5.39927e-06
2.88878e-05
-3.01694e-05
-4.1175e-06
1.89064e-06
1.43182e-06
-1.27244e-05
9.40169e-06
-3.36959e-05
1.47947e-05
1.20748e-05
6.82678e-06
1.34641e-05
3.53736e-06
-1.53509e-06
-1.54687e-05
-3.31069e-06
-2.5806e-05
2.63721e-06
2.648e-05
6.82182e-06
-2.60165e-06
2.75136e-05
-3.17337e-05
-2.02756e-06
-7.8263e-08
-5.08857e-06
7.19365e-06
6.76957e-07
1.09221e-05
-4.08781e-05
2.92794e-05
-1.45856e-05
-2.96988e-05
-1.03981e-06
4.53228e-05
3.62306e-07
5.08303e-06
-5.44489e-06
8.31176e-08
-1.93961e-07
1.1131e-05
-1.10205e-05
2.72881e-06
1.71501e-05
1.47214e-05
-3.46001e-05
2.73596e-07
-1.46103e-05
1.43304e-07
1.41934e-05
4.3304e-06
-2.11318e-05
-1.61835e-05
3.29852e-05
1.56614e-05
1.94948e-05
-1.70256e-05
-1.81305e-05
3.41457e-05
2.04237e-05
-4.58842e-05
-8.68527e-06
1.31739e-07
-4.4154e-06
4.28354e-06
2.75093e-06
1.34807e-06
-7.34163e-09
-4.09172e-06
1.9668e-06
2.54495e-06
3.22841e-07
-4.8348e-06
2.52272e-06
-3.01423e-06
1.50555e-05
1.80799e-07
-2.8543e-05
1.0674e-05
1.76883e-05
5.87422e-05
6.02471e-06
-1.2335e-05
-5.24339e-05
-8.11634e-06
1.09937e-05
-2.72349e-06
-1.53644e-07
-1.7373e-05
1.64916e-05
-2.79842e-05
2.88666e-05
3.14623e-06
6.11574e-08
-3.20749e-06
1.17786e-06
8.56789e-06
-1.63788e-05
6.63325e-06
3.12477e-06
-4.71314e-06
1.58824e-06
2.88797e-05
-1.54622e-05
-7.65319e-06
-1.62987e-05
5.90871e-06
-1.51177e-05
2.55078e-05
3.32474e-05
-3.23944e-05
5.15774e-06
-6.01043e-06
1.43756e-05
4.81603e-06
-1.72032e-05
-1.98771e-06
3.34724e-06
-3.98117e-05
1.37194e-05
2.27453e-05
2.70219e-05
-5.56311e-06
4.56303e-06
5.07601e-05
-5.63185e-05
2.01295e-06
-3.24823e-05
2.52393e-06
3.35073e-05
-3.54943e-06
-3.09132e-05
-1.98892e-05
3.34299e-05
-1.19676e-05
-1.19788e-05
-1.65812e-05
4.05278e-05
-1.34223e-06
4.58938e-06
3.96785e-05
-4.29248e-05
1.47493e-06
2.91501e-05
-5.04326e-05
1.98074e-05
-9.77033e-08
5.18404e-08
1.80765e-05
-1.80307e-05
-4.23043e-05
7.16401e-06
3.14795e-06
3.19901e-05
1.2168e-05
-1.22477e-05
4.16743e-06
-4.08728e-06
7.47196e-07
1.11807e-05
-1.42437e-05
2.31561e-06
-2.31329e-05
3.52377e-05
-4.62829e-06
-7.47641e-06
-3.62875e-05
2.68511e-05
1.68862e-06
7.74588e-06
-2.76326e-05
2.7795e-05
3.63034e-05
-3.64655e-05
3.47113e-05
-2.83504e-05
1.15643e-06
-7.51756e-06
-1.32116e-05
1.70153e-05
-1.02101e-05
6.40672e-06
-7.5163e-06
1.73284e-05
1.46021e-06
-1.12723e-05
-3.76562e-05
3.09426e-06
4.11351e-05
-6.57342e-06
-4.47002e-06
-2.47427e-05
3.93148e-07
2.88192e-05
2.39807e-06
-8.27671e-06
6.62589e-06
9.49164e-06
7.77713e-07
-9.08857e-06
-1.18093e-06
9.8432e-06
1.84976e-05
-2.15608e-05
-6.77937e-06
-1.05891e-05
1.477e-05
2.52816e-05
-2.94627e-05
8.88548e-07
4.29899e-06
-3.61569e-05
3.09693e-05
1.6876e-05
-2.56415e-05
8.54194e-06
2.23724e-07
-4.09148e-05
-6.53805e-06
1.11667e-05
-3.27685e-06
-8.63384e-07
-2.43612e-05
2.85003e-05
-3.25687e-06
4.38481e-08
3.21309e-06
-5.32471e-06
-6.68457e-06
4.37227e-05
-3.17134e-05
5.25733e-06
-5.0033e-06
-2.52893e-07
2.55693e-07
2.00465e-07
-9.57345e-06
9.11716e-06
-2.01606e-05
1.97056e-05
3.46006e-05
5.84466e-06
3.27853e-05
-2.35151e-05
-1.51147e-05
4.48192e-06
-4.55355e-06
7.15059e-08
-4.42218e-06
4.90822e-05
-2.70336e-05
-1.76248e-05
-2.63194e-05
2.80452e-05
1.92921e-05
-2.07351e-06
2.57343e-05
1.10227e-05
-3.46834e-05
-3.52212e-05
-1.30343e-05
4.69498e-05
1.30611e-06
-4.71334e-06
4.27525e-06
4.37942e-07
3.43666e-05
-3.65989e-05
-4.6998e-07
2.70376e-06
-2.25432e-05
-1.42327e-05
2.04494e-05
1.63267e-05
-4.07088e-06
1.88718e-06
-2.31467e-05
2.53309e-05
-2.84661e-05
-7.46392e-06
6.61041e-07
3.52693e-05
-1.79516e-05
-9.01188e-06
-6.77894e-06
1.57415e-05
-3.60308e-05
-3.09757e-06
2.33865e-05
8.41516e-06
-3.50333e-05
-1.06597e-05
3.72775e-05
7.44848e-06
-7.08872e-06
-3.59927e-07
-2.96582e-05
4.9703e-05
-7.02821e-06
-1.30156e-05
-6.4004e-06
-2.67068e-05
3.01595e-05
2.94787e-06
-4.79457e-05
4.92026e-05
-5.61366e-06
4.35644e-06
-2.79226e-05
-6.89816e-06
2.00787e-05
1.47422e-05
-2.63569e-05
-5.66022e-06
3.2145e-05
-1.2622e-07
-3.50469e-07
9.18899e-08
-1.25689e-05
1.28272e-05
3.43491e-06
1.71532e-07
-3.60649e-06
-6.27096e-06
6.33407e-06
-6.34996e-08
4.34495e-05
-3.7378e-05
-5.06924e-05
4.46174e-05
2.92262e-06
1.19524e-07
-3.04201e-06
-2.88203e-05
2.83605e-05
-3.59143e-07
8.19252e-07
-1.05369e-05
8.91777e-06
2.15166e-07
1.40479e-06
5.16323e-06
5.14798e-05
-2.78485e-05
-2.87946e-05
-2.95246e-05
-9.10246e-06
3.57898e-06
3.50478e-05
3.36252e-05
1.52945e-05
-1.52242e-05
-3.36958e-05
1.28535e-05
-4.7842e-06
1.58476e-06
-9.65443e-06
3.64574e-05
-3.51554e-06
-2.63281e-05
-6.61371e-06
-3.96512e-06
5.8936e-06
-6.54221e-06
4.61365e-06
-2.58744e-06
8.48932e-06
3.12251e-06
-9.02417e-06
-1.47659e-05
-7.62384e-06
4.15149e-05
-1.9124e-05
6.26341e-06
2.44854e-05
-2.39275e-05
-6.82142e-06
-2.255e-05
2.32381e-05
1.49983e-05
-1.56864e-05
2.30454e-05
-2.0849e-05
-2.78137e-06
5.86478e-07
-5.78682e-08
-1.1027e-05
-4.56491e-08
1.11306e-05
-7.0716e-06
1.33429e-05
-1.46729e-06
-4.80415e-06
-3.25259e-05
-1.11892e-05
1.60747e-05
2.76396e-05
2.49154e-05
-2.09839e-05
-4.26458e-06
3.33186e-07
9.79703e-06
-3.32364e-05
-3.83616e-05
6.18021e-05
2.1478e-05
-2.79544e-05
-1.35857e-05
2.00627e-05
-6.23399e-06
-5.54862e-05
1.48559e-05
4.68633e-05
1.77101e-05
-1.57236e-05
2.44802e-06
-4.43439e-06
3.05163e-05
-1.08249e-05
-3.66001e-05
1.69068e-05
1.32579e-05
2.28383e-05
-5.23638e-05
1.62665e-05
-7.81418e-06
3.16798e-05
-2.79762e-05
4.11079e-06
-2.96885e-05
3.41052e-05
3.45258e-05
-3.8942e-05
-1.05434e-07
-1.39036e-05
1.21267e-05
1.88276e-06
4.10719e-06
-3.85891e-06
-2.47775e-07
3.83372e-05
-4.75452e-05
1.3939e-06
-4.07737e-06
5.47775e-06
2.88449e-06
-4.28441e-06
-2.94757e-06
1.3532e-07
-1.44214e-06
4.25514e-06
1.89117e-05
-2.47369e-06
1.79885e-05
-2.74335e-05
1.11199e-06
8.33295e-06
-9.18628e-06
-2.2945e-06
8.66659e-06
2.61112e-05
-3.41009e-05
1.93494e-05
-1.13591e-05
-2.84591e-05
-4.06697e-06
3.4183e-05
-1.65685e-06
-5.88367e-05
-8.93479e-06
5.2139e-05
1.56312e-05
-4.27531e-05
1.18198e-05
9.65779e-07
2.9968e-05
-4.11283e-06
3.26344e-07
8.57328e-07
2.92932e-06
-2.68326e-05
-3.2396e-05
2.45932e-05
3.46356e-05
2.00631e-05
1.74599e-05
-3.01395e-05
-7.38254e-06
1.39884e-07
1.42331e-05
-1.20657e-05
-2.30726e-06
-4.27759e-07
-1.99856e-05
3.93843e-05
-1.89712e-05
4.10169e-05
-2.9248e-05
-1.56158e-05
2.81109e-05
-3.16023e-05
6.2839e-06
-2.79365e-06
-3.98928e-06
-2.58179e-05
2.80616e-05
1.7466e-06
4.08642e-05
-2.84542e-06
-4.20067e-05
2.33061e-05
-2.61106e-05
6.44045e-06
-3.6363e-06
1.76924e-06
-1.17923e-05
-9.67609e-07
1.09907e-05
-2.51818e-06
2.42453e-06
-2.90155e-06
2.99514e-06
-1.79275e-06
4.45001e-06
1.46176e-06
-4.1187e-06
-7.1132e-06
-1.89104e-05
-1.46308e-06
2.74864e-05
1.09308e-05
8.75466e-06
-2.97785e-05
1.00931e-05
-1.87058e-05
5.9724e-07
6.69766e-06
1.1411e-05
-1.67552e-06
-1.78608e-05
1.73436e-05
-2.27381e-05
2.69385e-05
8.53431e-06
-1.2734e-05
-3.32196e-05
3.86582e-05
-1.24134e-05
6.9756e-06
-6.08599e-06
-1.98374e-05
2.08969e-06
2.38337e-05
1.49194e-06
3.47562e-05
-4.07634e-05
4.51414e-06
1.7334e-05
-5.46032e-05
1.16352e-05
2.5634e-05
4.97555e-06
-3.83164e-05
2.09324e-05
1.24088e-05
1.61599e-06
2.10643e-05
-7.25227e-06
-1.5428e-05
-3.89854e-06
1.88332e-06
3.82206e-06
-1.80645e-06
-3.96712e-06
7.89647e-06
-2.9274e-05
2.53447e-05
-1.53794e-06
-1.09121e-05
2.84543e-07
1.2165e-05
1.67833e-07
1.1206e-05
-1.75648e-07
-1.11985e-05
1.74524e-07
2.46436e-07
1.14259e-05
-1.18469e-05
-9.49707e-06
-1.61161e-05
2.86616e-05
-3.04739e-06
3.24998e-06
-3.23438e-05
1.74454e-05
1.16485e-05
3.35373e-05
8.37632e-07
2.68032e-06
-3.70561e-05
2.64674e-06
-2.70991e-06
6.32303e-08
1.06246e-05
2.14347e-05
-2.70837e-05
-1.10034e-05
4.22417e-08
1.32814e-07
1.08299e-05
2.20705e-06
-2.8175e-05
1.02331e-05
1.57352e-05
8.66788e-07
7.23214e-06
-7.32036e-06
-7.79101e-07
-5.56672e-06
-1.17882e-05
2.26232e-05
-5.26787e-06
2.78483e-05
-3.07975e-05
2.65112e-05
-2.35623e-05
1.91088e-05
-8.77119e-06
-3.26455e-05
2.2308e-05
-1.90677e-06
-1.81052e-06
3.71737e-06
1.15353e-05
2.44243e-06
-3.32831e-06
-1.0649e-05
-2.46107e-05
3.68507e-05
2.82906e-06
2.38862e-06
-5.21767e-06
2.3581e-06
-3.10572e-05
-3.65118e-07
2.90644e-05
-1.66003e-07
5.55425e-07
2.10454e-05
-1.36772e-06
2.22705e-05
-4.44111e-05
2.35087e-05
-7.09501e-06
-2.02873e-05
-2.86006e-06
3.02424e-05
5.64265e-06
-9.19252e-06
9.51903e-06
-5.96943e-06
-7.2415e-06
-3.56381e-05
-4.48759e-06
4.73685e-05
1.97375e-05
3.73783e-06
-2.274e-05
-7.35256e-07
6.86652e-06
3.2326e-05
-5.34315e-05
1.42383e-05
-2.43426e-06
-1.42232e-05
-8.31614e-06
2.49736e-05
-1.86568e-05
-5.97237e-06
9.84971e-06
1.47792e-05
-1.08365e-06
-1.15618e-06
-1.27446e-05
1.49844e-05
4.09626e-05
-1.69857e-05
-9.86905e-06
-1.41076e-05
-2.53258e-05
6.14388e-05
-3.36531e-05
-2.45932e-06
1.10371e-05
2.8926e-07
2.9384e-07
-1.16218e-05
2.95452e-05
-3.54196e-05
3.52201e-05
-2.93465e-05
-5.23467e-06
1.64269e-05
-1.32678e-05
2.07532e-06
1.52701e-05
-5.54471e-05
2.09723e-06
3.808e-05
1.01837e-05
4.92148e-05
-4.20474e-05
-1.7351e-05
6.25225e-06
-6.09606e-06
-1.00854e-05
9.92949e-06
-2.23889e-05
-1.37713e-05
3.99226e-05
-3.7623e-06
3.5461e-05
-2.89124e-05
-4.20294e-05
3.54793e-05
1.81989e-05
1.4959e-05
-9.48764e-06
-2.36684e-05
1.17965e-07
-1.56147e-05
8.57324e-08
3.82341e-06
-3.90902e-06
-3.32915e-06
3.218e-06
1.11011e-07
2.60468e-05
-2.44968e-05
-2.2371e-05
2.08209e-05
-7.49762e-06
9.61014e-06
-2.72923e-05
2.51798e-05
4.07638e-05
-3.1777e-05
-6.64272e-06
-2.34382e-06
-4.65223e-06
1.15444e-06
3.01904e-06
-8.81943e-06
3.11794e-05
-8.41236e-06
-1.39475e-05
-4.14831e-05
1.03766e-06
1.43566e-05
2.60885e-05
1.55726e-05
-6.75448e-06
-1.51564e-05
6.33799e-06
8.78334e-06
3.84212e-05
-3.62124e-05
-1.09911e-05
-2.28777e-05
-4.49895e-06
4.34521e-05
-1.60747e-05
2.19058e-06
2.48087e-05
5.55203e-06
-3.25514e-05
8.36708e-06
2.70331e-05
-3.32098e-05
1.86548e-05
-1.37467e-05
-7.24015e-06
2.33116e-06
2.37467e-05
-3.02697e-05
1.33897e-05
-1.29246e-05
8.2242e-06
7.70155e-06
-3.00127e-06
9.97741e-06
1.15433e-05
2.31176e-05
-4.46377e-05
4.33838e-06
-2.69025e-05
-4.19205e-06
2.67556e-05
3.41478e-07
2.78758e-05
2.51875e-06
-3.07352e-05
1.32985e-05
2.49854e-05
-4.17084e-05
3.4242e-06
-5.65998e-05
4.70613e-05
-7.19464e-07
2.59919e-07
3.89335e-05
-3.01213e-06
-3.61831e-05
-3.25402e-06
7.3011e-06
-9.99134e-06
5.94491e-06
-7.99179e-07
-3.4868e-06
2.32216e-07
4.05348e-06
-3.34701e-06
3.22592e-06
1.20871e-07
-4.87501e-06
-8.30605e-06
3.80185e-05
-2.48373e-05
-3.18867e-05
4.77041e-06
-1.40639e-05
4.11802e-05
4.38821e-05
-1.05742e-05
-1.42827e-05
-1.90242e-05
3.38015e-06
-3.16855e-05
1.15018e-05
1.68036e-05
3.38354e-06
-3.05817e-06
-1.18509e-06
8.59514e-07
-3.90803e-06
3.76602e-06
1.42179e-07
1.88525e-06
2.67763e-05
-4.76387e-06
-2.38972e-05
-5.53479e-06
2.68418e-05
-3.48344e-05
1.3528e-05
1.23024e-05
2.07285e-05
-4.80161e-05
1.49852e-05
-1.93662e-06
2.59041e-05
1.919e-05
-4.31577e-05
-4.12341e-05
2.22073e-05
2.39062e-05
-4.8796e-06
4.06293e-05
-4.16538e-05
8.36477e-06
-7.34013e-06
-3.13764e-05
-5.43088e-07
-9.31431e-06
2.34685e-07
5.20811e-06
-5.4428e-06
2.96291e-05
3.95507e-06
-2.4511e-05
-9.07362e-06
-1.85339e-06
-2.64834e-06
1.26018e-05
-8.10034e-06
3.03766e-06
5.32168e-07
9.97145e-06
-1.35413e-05
-3.41998e-05
1.53548e-05
1.65041e-05
2.34091e-06
1.3358e-05
-2.11954e-05
-3.04428e-06
1.08821e-05
-2.48906e-05
5.61778e-06
4.08123e-05
-2.15394e-05
-3.06387e-06
-1.89305e-07
3.25203e-06
-1.53276e-05
3.8962e-05
2.7848e-05
-5.14824e-05
3.48573e-05
9.62971e-07
-5.52215e-05
1.94011e-05
-2.36268e-06
3.56497e-05
-3.07963e-06
-3.02072e-05
1.82901e-05
-1.41905e-05
1.10043e-05
-1.51042e-05
-1.31369e-06
-2.46013e-05
2.75751e-05
-1.66002e-06
-2.24657e-05
-3.46478e-06
-1.50521e-05
4.09823e-05
-7.87972e-06
-8.42698e-06
-1.45842e-05
3.08911e-05
-1.29803e-06
3.71569e-05
-4.11264e-06
-3.17464e-05
2.2903e-05
-2.28418e-05
7.62254e-07
-8.23337e-07
3.83868e-05
1.00665e-07
-2.65612e-05
-1.19253e-05
-8.57951e-06
-4.4503e-06
-2.46335e-05
3.7663e-05
-2.936e-07
-3.0785e-06
3.3719e-06
-3.31403e-05
4.92075e-05
-3.69355e-06
-1.23732e-05
2.75146e-06
1.88019e-05
6.03629e-06
-2.75911e-05
-4.2963e-06
9.95039e-06
3.48568e-06
-9.13971e-06
-1.5639e-05
-3.86897e-06
1.62103e-05
3.29876e-06
2.15233e-05
1.49251e-05
-5.37561e-05
1.73076e-05
1.22345e-05
-9.54559e-06
3.04846e-05
-3.31734e-05
-2.38708e-06
1.94878e-05
1.59469e-06
-1.86954e-05
2.97744e-06
-2.93142e-06
-4.60061e-08
2.66804e-06
3.30804e-05
1.39808e-06
-3.71467e-05
2.83225e-05
-4.43651e-06
-2.72602e-05
3.37501e-06
-5.48088e-06
6.66982e-06
-3.13121e-05
3.01229e-05
-2.83604e-05
-4.41174e-06
2.19732e-05
1.08002e-05
1.0532e-05
-9.97527e-06
-8.86288e-08
-4.68255e-07
-4.2398e-05
2.76627e-05
-1.63531e-06
1.63712e-05
-4.8065e-06
4.0451e-06
7.61452e-07
1.38711e-05
-1.1836e-05
1.84434e-05
-2.04792e-05
1.95605e-05
1.64089e-05
-8.55324e-06
1.47285e-05
-3.96794e-05
-1.81098e-05
4.30601e-05
1.44327e-07
-1.52845e-05
1.534e-05
-2.00619e-07
8.67931e-06
-1.40822e-05
-1.62682e-05
2.16714e-05
1.39012e-05
6.05935e-06
-2.36074e-06
-1.75998e-05
-4.18269e-06
9.82727e-07
5.31901e-06
-2.11907e-06
-4.84182e-06
5.89828e-05
-2.00425e-05
-3.40982e-05
1.59245e-05
1.81256e-05
-9.57267e-07
-3.30928e-05
1.38121e-07
2.96825e-06
-3.10605e-06
-8.77002e-07
5.41352e-06
3.30396e-05
-3.75757e-05
4.32504e-05
5.61195e-06
-2.11965e-05
-2.76655e-05
-1.07088e-06
5.54085e-06
-4.36598e-06
-1.04209e-07
1.33768e-05
-1.2086e-06
-1.45724e-05
2.40532e-06
-4.04499e-06
-1.27908e-05
6.57484e-06
1.02611e-05
-6.23919e-06
2.82051e-05
4.48457e-06
-2.64511e-05
3.16147e-05
-4.25468e-06
-3.43273e-05
6.96754e-06
-2.9763e-06
5.7622e-06
-2.78589e-06
2.5015e-06
-1.09775e-05
9.8039e-06
-1.32796e-06
6.7101e-07
1.05404e-05
-1.11077e-05
-1.0371e-07
1.07121e-05
1.25244e-05
-1.44866e-06
-2.17878e-05
2.20293e-05
3.02374e-05
-2.06526e-05
-1.32724e-07
3.91819e-06
-3.78558e-06
-4.07995e-05
2.00407e-05
3.81792e-05
-1.74217e-05
3.99198e-05
7.01603e-06
-4.2001e-05
-4.93482e-06
2.89987e-05
-1.94707e-05
-3.19939e-05
8.34089e-06
1.43277e-05
-3.53283e-05
-2.01278e-06
-7.64409e-06
4.49851e-05
-9.37716e-08
3.84029e-06
-3.74647e-06
3.92874e-05
-1.50022e-06
-4.64182e-06
-3.31457e-05
4.04866e-06
-4.04506e-06
-3.07343e-09
-1.22653e-05
3.03655e-06
-7.45149e-06
1.66804e-05
-2.16907e-05
-1.84785e-05
1.64737e-05
2.36958e-05
2.04173e-05
-1.55856e-05
-4.31639e-06
-5.14906e-07
-4.51415e-08
3.08355e-06
-3.03908e-06
-6.94926e-07
-4.02866e-06
1.59375e-08
4.70826e-06
7.57699e-06
3.02971e-06
-5.35674e-06
-5.25027e-06
-1.17831e-05
1.27655e-05
-1.67722e-06
-3.10512e-07
4.23717e-05
-1.16575e-06
-4.08951e-05
-7.32142e-06
-7.2499e-07
9.60421e-06
-1.55782e-06
3.51779e-06
-1.388e-05
1.09122e-05
-5.49921e-07
1.07864e-05
-2.01883e-05
1.44409e-05
-5.03895e-06
8.96102e-06
2.08366e-05
3.53675e-06
-3.33344e-05
5.54608e-06
-5.69392e-06
1.47642e-07
1.5652e-05
-1.27308e-05
-3.20162e-05
2.90936e-05
1.10587e-06
1.18505e-06
1.59541e-05
-1.82449e-05
4.43291e-06
1.91487e-05
-2.45862e-05
1.0044e-06
1.16642e-05
-5.33109e-07
-1.83338e-06
-9.29755e-06
1.09831e-05
2.29606e-05
-3.36996e-05
-2.44166e-07
1.41336e-05
-1.03978e-07
-1.20593e-06
-1.28239e-05
-2.57961e-05
9.36477e-06
1.28723e-06
1.51438e-05
-1.25733e-05
-1.19003e-05
-1.65706e-06
9.88094e-06
-1.73702e-05
1.30968e-05
-5.60826e-06
-4.48111e-06
-1.85725e-05
-2.78566e-05
5.091e-05
-6.09964e-06
7.5435e-06
-1.738e-06
2.94234e-07
4.18031e-08
2.56581e-06
-2.60798e-06
-7.88742e-06
4.05962e-05
1.2062e-05
-4.47708e-05
3.16195e-05
1.32786e-05
-1.16887e-05
-3.32092e-05
2.76834e-05
-2.31541e-05
2.65865e-05
-3.11158e-05
3.50014e-05
-3.85551e-05
4.29623e-06
-7.42553e-07
-5.87242e-05
2.56502e-05
1.11215e-05
2.19525e-05
-1.17515e-05
-1.46523e-06
1.29467e-05
2.69832e-07
3.49448e-05
-4.65587e-05
1.63221e-05
-4.70823e-06
1.06479e-05
-1.16659e-05
3.71026e-06
-2.69213e-06
-1.76815e-05
1.61043e-05
-1.09962e-05
-1.42209e-05
4.83399e-05
5.30452e-06
-3.94234e-05
-5.42407e-06
1.43629e-07
5.28045e-06
-4.77601e-06
1.08276e-05
-4.00923e-05
-1.99587e-05
-3.36469e-07
1.96037e-07
2.00991e-05
4.60029e-06
1.23842e-07
-4.72408e-06
8.51829e-06
-5.46821e-07
-3.0397e-05
2.24256e-05
-5.94268e-08
-2.03132e-07
1.06677e-05
-1.04052e-05
8.35972e-06
1.81979e-05
-3.03731e-05
3.81595e-06
2.79422e-05
1.91887e-06
1.81645e-06
-3.16773e-05
-2.65023e-06
6.49343e-06
3.90711e-05
-4.29142e-05
-8.81785e-06
-1.06956e-06
-3.70071e-07
1.02575e-05
-9.58804e-06
8.27186e-06
-3.3193e-05
3.45082e-05
-1.37325e-06
2.49523e-05
-2.18077e-05
-1.77086e-06
3.99142e-05
1.228e-05
-1.81765e-05
-3.40177e-05
8.70598e-06
-4.7088e-05
3.06402e-05
-3.99426e-05
5.10204e-05
-2.29462e-06
2.21545e-05
-8.73923e-06
1.82043e-05
-1.35407e-05
-3.3266e-06
6.54709e-06
1.03202e-05
-7.14028e-06
7.42107e-07
6.50568e-06
-1.08075e-07
-1.26368e-05
3.20359e-05
-2.24975e-05
3.09827e-06
-3.39313e-05
3.04035e-05
3.24018e-05
-2.88741e-05
-3.30173e-06
3.03999e-06
1.81064e-07
8.10634e-08
3.4436e-05
-5.01908e-05
-1.87357e-05
3.44906e-05
-4.6744e-05
-1.87863e-05
3.12328e-05
3.42972e-05
4.24659e-05
4.41874e-06
2.0177e-06
-4.89021e-05
3.63174e-05
-2.44732e-05
3.06217e-05
-3.81514e-05
-3.70534e-06
1.48275e-05
2.70303e-05
3.2336e-06
2.73609e-07
-3.50702e-06
3.99242e-05
-3.6869e-05
-1.25334e-05
9.47807e-06
-2.04613e-05
-7.21217e-06
5.95949e-06
2.1713e-05
1.56629e-05
2.73244e-05
-1.57356e-05
-2.72519e-05
6.92453e-06
2.18034e-05
-2.1212e-05
-7.51597e-06
4.61595e-07
-6.40135e-06
5.93967e-06
-1.86162e-05
-1.6571e-05
1.60859e-05
1.91012e-05
1.57416e-06
2.02138e-05
-4.67918e-06
-1.71095e-05
-3.43862e-05
3.44738e-05
-6.48928e-06
-3.00691e-06
4.06063e-05
-3.962e-05
2.02109e-06
2.05803e-05
4.21596e-06
1.11718e-05
-3.59681e-05
-5.38458e-08
-2.23236e-06
2.28651e-06
-3.24532e-06
3.23123e-06
1.4358e-08
-2.67727e-05
-1.26583e-05
1.52696e-05
2.41617e-05
-3.37145e-05
-6.95815e-07
4.07581e-05
-6.34814e-06
-1.03008e-05
3.78956e-05
-3.91414e-05
1.15466e-05
-2.64511e-05
2.16495e-05
-9.72772e-06
1.45292e-05
3.63729e-07
2.07801e-05
-2.32641e-05
2.11971e-06
-3.63147e-05
8.04415e-06
2.37902e-05
4.4801e-06
2.42074e-06
4.90644e-05
-1.84653e-05
-3.30194e-05
2.20307e-06
-4.10984e-06
-2.43433e-05
-1.27143e-05
1.02846e-05
2.04876e-05
-1.29954e-06
3.38834e-06
-2.25763e-05
-1.97923e-06
-4.59161e-06
5.78902e-06
7.81595e-07
1.35816e-05
-4.12501e-06
-9.65592e-06
1.99133e-07
1.29904e-05
-4.40409e-05
4.21583e-05
-1.11068e-05
-1.68178e-05
2.96829e-05
4.34906e-06
-1.72134e-05
-3.53342e-06
4.26883e-06
2.79999e-05
-2.87356e-05
-3.76808e-05
2.80199e-06
3.81656e-07
3.4499e-05
-2.10485e-05
2.47389e-06
1.69624e-05
1.61261e-06
-2.72108e-05
1.68253e-05
3.8603e-05
-2.82176e-05
-1.42419e-05
-2.63671e-05
7.1642e-06
3.34446e-05
5.48844e-06
-4.27843e-05
-5.2755e-06
4.25718e-05
-3.28042e-05
4.30091e-06
-1.3064e-06
2.98095e-05
-3.47174e-05
-2.53984e-06
-2.2758e-06
3.95331e-05
7.40694e-06
-4.10729e-06
3.74481e-05
-4.07474e-05
7.0111e-06
-3.99738e-06
-1.06695e-08
-3.00271e-06
4.92277e-06
-5.10204e-05
-7.87138e-06
5.39695e-05
-4.02687e-06
2.55202e-06
2.06467e-06
-5.90007e-07
-2.87879e-05
-7.5557e-06
1.58096e-05
2.0534e-05
-1.42497e-06
1.39246e-05
2.62457e-06
-1.51236e-05
-1.31017e-05
-1.42003e-05
9.31746e-06
-6.13072e-06
2.45805e-06
3.16774e-05
-2.80041e-05