/*--------------------------------*- C++ -*----------------------------------*\
| =========                 |                                                 |
| \\      /  F ield         | OpenFOAM: The Open Source CFD Toolbox           |
|  \\    /   O peration     | Version:  2406                                  |
|   \\  /    A nd           | Website:  www.openfoam.com                      |
|    \\/     M anipulation  |                                                 |
\*---------------------------------------------------------------------------*/
FoamFile
{
    version     2.0;
    format      ascii;
    arch        "LSB;label=32;scalar=64";
    class       volVectorField;
    location    "46";
    object      U;
}
// * * * * * * * * * * * * * * * * * * * * * * * * * * * * * * * * * * * * * //

dimensions      [0 1 -1 0 0 0 0];

internalField   nonuniform List<vector> 
59516
(
(0.104222 -0.000591357 -0.00049879)
(0.096584 -0.000118038 -0.000398392)
(0.11211 -0.000821623 -0.000383887)
(0.12848 0.00143337 0.00194516)
(0.113725 0.000206348 -0.00455928)
(0.10109 -0.00483225 -0.0107985)
(0.127767 -0.00127425 -0.00193651)
(0.101313 0.000717198 -8.46574e-05)
(0.111535 0.000965545 -3.94312e-05)
(0.0533893 -0.00100856 0.00211242)
(0.15388 -0.000264421 -0.00229915)
(0.0601092 0.000283314 -0.00365562)
(0.118272 0.0011245 -4.90785e-05)
(0.0193963 -0.000101672 -0.000195096)
(0.0595778 0.00144317 0.00321441)
(0.0510515 0.0035331 -0.00163942)
(0.168618 -0.00158841 -0.000852891)
(0.0700691 0.00399296 -0.00434683)
(0.114484 0.00592604 0.000711235)
(0.165015 -0.000772465 0.000238355)
(0.0539431 0.000880438 -0.00122664)
(0.14863 -0.000733344 0.000266241)
(0.154573 -0.000488631 -0.0018279)
(0.0328871 -0.000995403 -0.00024998)
(0.160532 -0.000464011 0.000706134)
(0.0646119 0.00140597 0.000647703)
(0.0409314 0.000828791 -0.0027827)
(0.0443253 0.00376548 0.000220073)
(0.0655262 0.00266576 -0.00051098)
(0.0170478 -0.00265447 0.000677204)
(0.10835 -0.0210411 -0.0046381)
(0.0455992 0.00363684 -0.000560104)
(0.132612 0.00021151 0.000831796)
(0.111453 -0.000874265 0.00222312)
(0.139344 0.00516234 0.00384049)
(0.146025 0.000152613 -0.000320226)
(0.0164466 -0.00160278 -0.00228704)
(0.0699633 0.002674 -0.00674576)
(0.095275 -0.0037257 -0.000325972)
(0.158931 -0.00054567 -0.000675448)
(0.100224 -0.000636991 0.000133105)
(0.143994 -0.008442 -0.00780329)
(0.148371 -0.00375336 -0.00303418)
(0.106276 -0.000697093 0.000369345)
(0.142789 -0.00481959 -0.000243228)
(0.0540949 -0.000756874 -0.00126811)
(0.132445 -0.00277976 -0.00417643)
(0.163011 -0.00468579 -0.000834784)
(0.111884 -0.00902227 0.0124106)
(0.150883 0.00658773 0.00529086)
(0.104053 0.0104754 -0.0145247)
(0.0429335 -0.00361771 0.00246936)
(0.119104 0.000939782 -0.00230038)
(0.12663 -0.000566353 8.89362e-05)
(0.0474215 0.00295789 1.54272e-05)
(0.129701 0.00272529 -0.000780703)
(0.144854 0.00823439 0.00854757)
(0.0459162 0.00389846 -0.00273898)
(0.172636 0.000369493 -0.000117469)
(0.135152 0.00631635 0.00802056)
(0.149169 -0.000383724 0.000273328)
(0.018622 0.00230311 -0.000807032)
(0.166031 0.000645971 0.000312262)
(0.165625 0.002387 0.00168885)
(0.121685 0.000228537 -0.00063467)
(0.14738 0.00360657 0.00514435)
(0.0252511 -0.00170959 0.00231173)
(0.0401032 0.000239556 -0.000209986)
(0.121507 -0.00506691 0.022249)
(0.135789 0.00124604 -0.00292639)
(0.0359438 0.00100113 0.000297439)
(0.162906 0.001819 7.46209e-05)
(0.022481 0.00141232 -0.00342971)
(0.142707 0.000970689 0.000573622)
(0.179305 7.28508e-05 -0.000275098)
(0.157914 -0.00216953 -0.00265098)
(0.163763 -0.00234854 -0.00343657)
(0.148333 -0.000142167 -1.45036e-05)
(0.0447793 -0.0014977 0.00139137)
(0.151486 0.00303981 0.00767042)
(0.037291 0.00226349 0.0010693)
(0.146682 0.00401438 0.0059927)
(0.139616 0.0018479 0.00576449)
(0.0194716 -0.000745463 0.00271617)
(0.146535 0.00320805 0.0063187)
(0.174521 -0.000382116 0.000633)
(0.0317774 -0.00115186 0.00050091)
(0.149952 8.2492e-05 0.000284326)
(0.0534232 0.000675159 0.00221121)
(0.107156 0.00842857 -0.005786)
(0.131541 -0.000877703 -0.0114695)
(0.138951 0.00171405 -0.000288293)
(0.172051 0.000125812 -0.000145179)
(0.137188 0.00124241 -0.000313218)
(0.160771 0.000420923 1.35489e-05)
(0.10994 -0.0105645 0.00395352)
(0.14013 -0.000400286 0.000597232)
(0.0523246 -0.00181034 -0.00411293)
(0.0645147 0.00240011 -0.00101176)
(0.148113 -0.00089887 0.00159615)
(0.0367212 0.000593201 0.00138126)
(0.0238239 0.00120788 -0.00270983)
(0.0225385 0.000798373 0.0031053)
(0.0531487 -0.00081204 -0.00285495)
(0.135084 0.000697585 -0.000212806)
(0.147004 -0.000289033 -1.30877e-05)
(0.038795 0.00340197 -0.00139277)
(0.104296 0.000351813 -0.00075082)
(0.10028 -0.000701056 0.000137479)
(0.0648009 0.000407462 -0.00262064)
(0.124942 0.0129048 -0.0135508)
(0.0299551 0.003042 -0.000444475)
(0.0656291 0.000821726 -0.00405766)
(0.118039 0.0174012 -0.00873933)
(0.159744 4.4804e-05 -8.16832e-05)
(0.0998144 0.001079 0.00109278)
(0.0531182 0.000567602 -0.002024)
(0.13312 -6.11905e-05 0.000783736)
(0.0214133 -0.000301414 0.00103546)
(0.146858 0.00126496 0.000353502)
(0.181543 -0.00039695 0.000374614)
(0.167567 -0.000330439 0.000539023)
(0.158277 -0.0003302 0.000836753)
(0.166191 -0.000564453 0.000588348)
(0.132357 -0.0177888 0.00275179)
(0.0899853 0.00125988 -0.00295165)
(0.029035 -0.000519852 0.00189715)
(0.138297 -0.0136521 -0.00109382)
(0.0898363 -0.00275984 0.013139)
(0.177567 0.000508919 -3.03665e-05)
(0.179849 0.000303892 0.0002196)
(0.112195 0.00166463 0.00191185)
(0.0227714 0.00133856 -0.00156051)
(0.148207 -9.39166e-05 0.000644304)
(0.10117 0.00123202 0.00027157)
(0.115536 -0.000690963 -0.002011)
(0.107498 0.0127964 -0.00896312)
(0.129751 -0.000378885 0.000398513)
(0.0385858 0.00264845 0.000116888)
(0.0982098 0.000418517 -0.00122451)
(0.0427857 -0.000865879 -0.00216907)
(0.1811 -0.000528701 0.000386963)
(0.0182151 0.00079657 0.00158987)
(0.125264 -0.00112034 -0.000460983)
(0.174638 0.000539804 0.000613869)
(0.14173 0.00169729 0.000193569)
(0.140437 -0.00511579 -0.00182344)
(0.117879 0.00150789 -0.00273952)
(0.0621283 -0.00100515 0.00173149)
(0.106514 -0.000739802 -0.000837223)
(0.10313 -0.000142864 -0.000830559)
(0.0340479 -0.00128489 2.47441e-05)
(0.166382 -0.000934479 0.00109943)
(0.154135 -0.000355211 0.000416821)
(0.088925 -0.000312806 0.0020702)
(0.0181888 -0.000352902 0.00196732)
(0.112949 -0.000204978 -0.000185363)
(0.113632 0.00132011 -0.000203005)
(0.0821597 0.00119792 0.000171343)
(0.0186741 0.00223848 -0.00243792)
(0.0635203 0.00151397 -0.0032852)
(0.0654262 -0.00355507 -0.0022736)
(0.0338639 -0.00138724 0.000334288)
(0.0243684 -0.000207395 -0.000479193)
(0.0991855 0.00183246 0.00236929)
(0.172027 0.000110364 0.001116)
(0.0600574 -0.000726949 0.000344392)
(0.176217 0.000765306 9.41412e-06)
(0.0191391 -0.00118161 0.00220832)
(0.136289 -0.000563308 -8.59907e-07)
(0.0832134 0.00132603 0.00114861)
(0.050669 0.000740883 -0.000775309)
(0.0624841 0.00158174 0.000810518)
(0.136677 -0.000459969 0.000560819)
(0.0486364 -0.000764406 0.000251757)
(0.134991 -0.00152762 -0.00520094)
(0.168805 -0.000336282 -0.000980785)
(0.14947 -0.00549087 -0.00336505)
(0.0655299 -0.000819045 0.00305333)
(0.0395917 -0.000133858 -0.000540533)
(0.145949 0.00211496 0.000690042)
(0.0322565 -0.00283114 -0.0012846)
(0.0277634 -0.000334952 -0.00218713)
(0.062754 -0.00160731 0.000184566)
(0.176508 5.92189e-05 0.000546754)
(0.0573673 0.000307066 0.000692727)
(0.0340817 -0.000572231 -0.00265611)
(0.0220972 2.4117e-05 0.000291676)
(0.121404 0.000116125 -7.54749e-05)
(0.0993416 -0.00177151 -0.000167357)
(0.135247 -0.000596259 0.00279334)
(0.0502431 0.00305699 6.8677e-06)
(0.16335 -0.000657459 -0.000151914)
(0.0552222 0.00209856 5.69872e-05)
(0.154625 -4.7797e-05 -0.000226789)
(0.0284316 -0.00025562 0.00078869)
(0.0552434 0.000750257 -0.000116169)
(0.0391905 -0.00107286 0.000278)
(0.108999 0.00283871 0.00364139)
(0.153918 0.000691619 -0.000444601)
(0.0795215 -0.00274175 0.000327737)
(0.180864 -0.000634412 0.000450128)
(0.101767 -0.000766846 0.000852848)
(0.0187606 0.00202652 -0.00136672)
(0.127472 -0.00116607 -0.000479855)
(0.145144 0.000249225 0.000242288)
(0.179113 0.00028626 0.000114419)
(0.153337 -0.00134351 -0.000379751)
(0.0221036 -0.000689112 0.000208951)
(0.113279 -0.00199872 -3.59628e-05)
(0.0488682 0.00345146 0.00304168)
(0.0236553 -0.00388737 -0.000635745)
(0.143688 0.000276107 -0.00141336)
(0.0540922 -0.00113317 0.000741083)
(0.115336 0.00141984 0.00014917)
(0.169789 -0.000105585 -0.000234041)
(0.139847 0.00112419 0.000303721)
(0.157111 -0.00138649 0.000451017)
(0.052568 0.00212334 -0.00278213)
(0.156616 -0.000232236 0.000806433)
(0.0535734 0.00207608 0.00184507)
(0.103869 0.000344238 -1.07645e-05)
(0.163847 0.000690379 0.000920464)
(0.0379985 -0.000191538 0.000659405)
(0.167959 -0.000260545 -0.000132601)
(0.170007 -0.000397931 -0.000702307)
(0.0271642 -0.000294872 0.00138584)
(0.0452301 0.00145035 -0.00213103)
(0.169108 0.000470346 0.000649242)
(0.0526051 0.000218597 -0.00394255)
(0.171104 -0.000603872 0.000169622)
(0.170864 0.000282515 -0.000403577)
(0.178928 0.000557251 0.000738448)
(0.0240263 -0.00188079 -0.00135228)
(0.0315555 0.00084961 -0.00151495)
(0.0329159 0.000854812 -0.00117866)
(0.0615423 0.0003571 0.000184028)
(0.0956092 -0.00117766 0.000643455)
(0.15623 0.00101979 0.00123491)
(0.0555213 -0.00120862 0.001464)
(0.180778 -0.000204659 0.000590867)
(0.0196903 0.000350678 0.0029109)
(0.0527084 4.2196e-05 0.000886828)
(0.0238377 0.000164937 0.00263476)
(0.178186 0.000689166 0.000377854)
(0.0913141 -0.000513543 -0.000279988)
(0.145696 0.000224801 0.000906667)
(0.0634799 0.000853503 -0.00141444)
(0.168505 3.03085e-05 -0.000309627)
(0.103655 0.000256849 0.000450075)
(0.164958 -0.000548856 0.000130108)
(0.140504 2.72698e-05 0.000630222)
(0.181299 0.000271053 0.000662982)
(0.144661 0.000503268 -0.000667798)
(0.146945 0.0012273 0.000884234)
(0.157601 0.00018026 0.000690025)
(0.0539303 7.60168e-05 -0.000254825)
(0.153607 0.00096528 0.00167674)
(0.0405824 -0.0003808 -0.00224498)
(0.0584065 0.000476548 0.00204771)
(0.129957 0.000803928 -0.00101061)
(0.161536 -0.000390254 0.00048915)
(0.114354 0.00298616 0.00153201)
(0.174295 0.000148352 0.00051169)
(0.0978268 6.32088e-05 0.00213501)
(0.0561793 0.00220311 -0.00150358)
(0.159395 -0.000120703 -0.00118588)
(0.0915194 0.00193311 0.000503832)
(0.0449686 -0.000744199 -0.000680764)
(0.0502798 0.00021005 -0.00142493)
(0.0963562 0.000888261 -0.00312845)
(0.170773 -0.000557077 -0.000224477)
(0.0973694 -0.00235245 3.3186e-05)
(0.0916293 -0.001347 0.000941928)
(0.164244 -0.0010399 -0.000379133)
(0.0917431 -0.000588355 0.00244675)
(0.0204973 0.00244175 -0.00139092)
(0.16142 0.000226751 0.000926612)
(0.0247482 0.00159225 -0.0021103)
(0.0392697 -0.00160093 0.001063)
(0.177845 0.000372129 0.000894449)
(0.139441 -4.56545e-05 -0.000372561)
(0.0244085 0.00263075 0.00261279)
(0.120419 0.000904396 0.000477648)
(0.124066 0.00241413 5.25072e-05)
(0.166792 -0.000704405 0.00148247)
(0.177785 -0.000656585 3.97559e-06)
(0.0233921 0.0027747 0.000528229)
(0.176901 0.000427301 0.000473756)
(0.180246 -0.000436504 0.000165096)
(0.171458 0.000145692 0.000804069)
(0.135162 0.000587773 0.000845869)
(0.137362 0.0012161 0.000777226)
(0.0946709 0.000491088 -0.000242712)
(0.170844 0.000977517 0.000234961)
(0.0274282 -0.000986929 -0.001261)
(0.159563 -0.000593444 0.000511894)
(0.139449 -0.000676176 -0.000555462)
(0.179975 -0.000169742 0.000407293)
(0.167571 0.000235782 0.000677075)
(0.116218 -0.000533989 0.000614054)
(0.0580199 0.000909524 0.00128197)
(0.0223805 -0.000334178 0.00155677)
(0.0277468 -0.000667725 0.000465451)
(0.163797 -0.00103463 -0.000797363)
(0.0199983 -0.00115538 0.00289033)
(0.0623796 -0.000337924 -0.00107902)
(0.0511056 0.00281927 0.00114025)
(0.167001 0.000445993 0.000838981)
(0.173152 -0.000400929 -0.000338302)
(0.154459 -0.000120374 -0.000621685)
(0.0578798 1.82393e-05 -0.00128666)
(0.10275 0.0015082 -0.00229859)
(0.03926 -0.00324914 0.00264298)
(0.0542936 0.00125212 0.00116728)
(0.157209 0.000744672 2.70039e-05)
(0.097554 0.00106271 -0.000936304)
(0.107736 0.0123637 0.0035107)
(0.089547 -0.00189123 0.000925202)
(0.0420167 -0.000184784 -0.000409383)
(0.0631257 -0.000927687 0.00197184)
(0.107535 -0.000941961 -0.0016466)
(0.174496 -2.81456e-05 -0.00026937)
(0.18036 -0.000750794 0.000770045)
(0.180507 -4.58314e-05 0.000955582)
(0.161768 -0.00120828 0.000350402)
(0.0969789 0.00373963 0.00462953)
(0.126754 0.000746984 0.000802248)
(0.165646 0.0011707 0.000949446)
(0.160723 -0.000775264 8.14093e-05)
(0.163218 -0.000664998 0.000756233)
(0.0556816 0.00121235 -0.00323211)
(0.0218291 -0.00142009 -0.00257822)
(0.150399 -0.00126147 0.000273265)
(0.0388466 -0.00185611 0.00212387)
(0.0310592 0.000136389 6.2714e-05)
(0.160952 0.000535187 0.00166253)
(0.145915 -0.000369119 0.000462121)
(0.0597777 -0.00131517 -0.00297205)
(0.171989 -0.00088722 0.000462862)
(0.166369 -0.00125984 0.000444782)
(0.17985 -0.000878741 -0.000418779)
(0.172876 -0.00116182 -0.000318157)
(0.032011 0.00152365 3.63863e-05)
(0.159627 -3.98147e-05 -7.83809e-06)
(0.175016 -0.000984757 0.000835485)
(0.0567505 7.68939e-05 0.000796161)
(0.178458 4.03029e-05 0.00119467)
(0.173406 -0.00041665 0.00050995)
(0.131413 5.80341e-05 -0.000869354)
(0.122684 0.000173713 -0.000954677)
(0.151901 -0.00106977 0.00143378)
(0.143221 -0.0012592 0.000465863)
(0.0689355 -0.000343846 -0.000195076)
(0.0311002 0.00130046 -0.00100727)
(0.0342144 -0.00249522 -0.000195821)
(0.0940631 0.000479765 -0.000166467)
(0.0862494 -0.00678627 0.0106194)
(0.0746078 -0.00420649 -0.0060814)
(0.0826188 0.000364781 0.000358411)
(0.114334 8.33788e-05 0.00203319)
(0.131396 0.000237134 0.000702956)
(0.159091 -0.0014352 0.00408887)
(0.157207 -0.00057286 0.000826396)
(0.131756 -0.000746721 -0.000332137)
(0.148999 -3.20383e-05 0.000614269)
(0.149419 0.000845944 0.000383151)
(0.0307132 -0.00093776 -0.000322602)
(0.113914 -0.0224676 0.00276353)
(0.0574045 0.00147346 0.000496653)
(0.0404105 -0.00180688 -0.00041721)
(0.0407012 0.000852366 0.000308675)
(0.161483 -0.000574404 -0.000380054)
(0.0933174 -0.00054187 -1.82e-05)
(0.160672 0.000580228 -0.00115955)
(0.0194839 0.00106587 -0.00166659)
(0.126332 -0.000427103 0.000291975)
(0.0435962 0.00103363 -0.000847886)
(0.165012 -0.000345721 -0.00011633)
(0.0470533 -0.000620911 -0.000477452)
(0.0609912 -0.00146107 0.00121084)
(0.10542 -0.00272848 0.000839324)
(0.151835 -0.00112065 0.00117866)
(0.0191326 0.00154487 -0.0020639)
(0.0534826 -0.000595973 0.00226412)
(0.133124 -0.000209578 0.000588329)
(0.0227368 -0.00141402 -0.00180239)
(0.130795 0.00128423 0.00936748)
(0.1157 -0.000803192 0.00257847)
(0.131679 -0.000350436 -0.00205418)
(0.0938294 0.00207367 -0.00282481)
(0.087607 -0.00118174 0.00203804)
(0.161775 0.000683108 6.03162e-05)
(0.0771902 -0.00790392 -0.00718008)
(0.180407 0.000329241 0.000100611)
(0.111368 0.00861831 0.00903135)
(0.0584927 -0.00263157 0.000360665)
(0.0617141 -0.00040322 -0.00144923)
(0.177935 0.000365204 0.000226523)
(0.177842 0.000577135 0.000378645)
(0.0516871 -0.000513167 0.000619022)
(0.133382 0.000473725 -0.000585864)
(0.0971763 -0.000488002 -0.00228222)
(0.177949 6.69852e-05 0.000595661)
(0.177359 -0.000166009 0.00100506)
(0.0447374 0.00130767 -0.00337644)
(0.132552 -0.00107448 0.000106528)
(0.145475 -0.00176123 0.0015763)
(0.148112 0.000632071 -0.000427316)
(0.156776 0.00069511 0.000566157)
(0.0210444 -0.000730486 -0.00265998)
(0.0205439 0.00103613 -0.00258041)
(0.126366 0.00117671 -0.00163893)
(0.174433 3.6676e-05 -2.35995e-05)
(0.179065 -0.00157844 -0.000594366)
(0.0337635 0.000359033 -0.00248512)
(0.168202 -0.00159238 0.000445467)
(0.106052 -0.000986519 -0.000719763)
(0.173495 -0.000205206 0.000505554)
(0.175201 0.000387204 0.00073083)
(0.179163 0.000617493 -0.000473719)
(0.17257 0.000666518 0.000613969)
(0.171751 0.00146778 0.000505853)
(0.087995 0.000557242 0.000312124)
(0.177177 0.000768733 -0.000142081)
(0.0552289 -0.0010747 -0.00270622)
(0.166648 0.000233333 -0.000442176)
(0.108731 -0.000422441 -0.0010675)
(0.153356 0.000473348 0.000915604)
(0.173819 0.000225934 -0.000123887)
(0.149373 -0.000448656 0.000207491)
(0.144659 0.000241161 -0.00120781)
(0.0395793 0.0022583 0.00211152)
(0.033142 0.000829698 0.000267439)
(0.0207049 0.0017918 -0.00205458)
(0.153 0.00415044 0.00743643)
(0.184612 2.54243e-05 -0.000207842)
(0.139366 -0.000823305 0.000682789)
(0.126124 0.000976361 0.000159316)
(0.0301344 -9.03895e-05 0.00112506)
(0.0231204 -0.000386746 0.00265073)
(0.113741 -0.000511331 0.00169287)
(0.152625 -0.000211117 0.00146319)
(0.174242 -0.000563963 0.000789424)
(0.154515 0.000417377 0.000119901)
(0.135149 -0.00111176 -0.000907098)
(0.182829 0.000337783 0.000273981)
(0.134138 0.000766638 0.000904364)
(0.0258305 -0.000539885 0.00242649)
(0.122179 -0.000226974 0.000749523)
(0.0564543 0.000543154 0.00292855)
(0.0704774 -0.00704438 0.00150831)
(0.153932 0.000224879 0.000485496)
(0.0924095 0.000514693 -3.28393e-05)
(0.146422 -0.000157993 0.000135603)
(0.0200995 -0.0037685 -0.00137274)
(0.17783 0.000646446 -0.000383007)
(0.17802 -3.90026e-05 -0.000348585)
(0.175986 0.00048345 0.000503679)
(0.0906065 0.00094196 0.000118005)
(0.153348 -0.000676477 0.00151358)
(0.172024 9.48568e-05 0.000846701)
(0.12087 0.000420531 0.000135287)
(0.178946 0.000930836 0.000204298)
(0.0979058 0.00398638 -0.0032759)
(0.170295 0.000557581 -0.000272969)
(0.148849 -0.00272933 -0.00048884)
(0.0199996 -0.00129191 0.0014277)
(0.177139 -0.000144984 -8.19194e-05)
(0.116139 0.00215903 3.67387e-05)
(0.0449528 -0.00130341 0.00369927)
(0.0899944 0.000786424 -0.0015423)
(0.166866 -0.000112874 -0.000271833)
(0.128468 -0.000404361 0.000950295)
(0.083435 0.00021335 -0.00237625)
(0.0198603 -0.00181606 -0.00198009)
(0.17368 -0.000451406 -0.000244943)
(0.124166 0.00164734 -0.00183835)
(0.160722 -0.00043796 -0.000596977)
(0.123658 5.11711e-06 0.000767049)
(0.0358107 0.00163533 0.001604)
(0.140828 3.33383e-05 -0.000393893)
(0.0258205 0.0020879 -0.00331648)
(0.162514 0.000229393 -0.000749841)
(0.10228 0.0114004 -0.0036524)
(0.167746 -0.00111405 -0.000722232)
(0.0503315 5.10036e-06 0.00176352)
(0.105179 -0.00124663 -0.00154005)
(0.0940472 0.00019506 -0.00123357)
(0.0338093 0.00193298 0.00171364)
(0.179946 5.83887e-05 0.000499373)
(0.170711 -9.77897e-05 0.000804772)
(0.0212765 0.000747147 0.00207861)
(0.161448 -0.000245473 0.000376741)
(0.179837 0.000230059 0.000648709)
(0.0360669 -8.54084e-05 -0.00214572)
(0.060107 0.00264571 -6.00314e-05)
(0.0522495 0.0019289 0.00136998)
(0.153891 0.000257126 0.000646034)
(0.176722 0.000167596 0.000360046)
(0.0324638 -0.000859862 0.00149147)
(0.052379 -0.00174571 -0.000573931)
(0.0550653 0.00109776 -7.39204e-05)
(0.114238 0.00147795 0.000356973)
(0.17804 0.00029777 0.000477924)
(0.0224924 0.00120925 -0.0029484)
(0.159417 -0.000596081 0.000819984)
(0.151782 0.00325135 -0.000348232)
(0.177207 -0.000361691 0.0011485)
(0.0900995 0.00386638 -0.003727)
(0.167975 0.00083032 0.000269465)
(0.0219983 -0.000257229 -0.00239174)
(0.164108 -0.000548567 -0.000325985)
(0.0263846 -0.000407713 -5.12493e-05)
(0.0588329 -0.00165758 0.000729716)
(0.154668 -0.00122483 0.000141324)
(0.0589626 -0.00174493 -0.000595293)
(0.0198704 0.00231088 0.00206175)
(0.0356092 0.0006838 -0.00112583)
(0.0439359 -0.00233391 0.00156597)
(0.0570551 0.00112277 -0.00161129)
(0.146441 3.63613e-05 -0.000738764)
(0.0487267 -0.00110765 2.25565e-05)
(0.0575267 0.00187229 -0.00103626)
(0.128229 -0.00713033 -0.0137666)
(0.16893 0.000116222 0.000760275)
(0.0231418 0.00147991 0.000270439)
(0.105616 0.00026489 -0.00107335)
(0.0812808 0.00885383 -0.00350084)
(0.170399 -0.000748811 -0.000169096)
(0.0568186 -0.000134762 -0.00133185)
(0.165196 0.000274901 0.00124646)
(0.0556853 -0.00225922 -0.00163445)
(0.122339 0.000589829 0.000636418)
(0.175425 9.50078e-05 -0.000663838)
(0.0493672 0.00221923 -0.00442496)
(0.174643 -2.63211e-05 -4.79714e-05)
(0.0475325 0.00223037 0.00241661)
(0.0184877 0.00281493 0.0010537)
(0.145747 0.000869071 -0.000410809)
(0.176896 3.89321e-05 0.000234433)
(0.129124 0.000996862 -0.000429981)
(0.124356 0.00163483 -0.000713445)
(0.176823 -0.00100877 0.000198225)
(0.0591013 0.00169004 -0.000221614)
(0.166962 -0.000970818 0.00042997)
(0.0554027 -0.001735 0.00241286)
(0.173586 0.0003234 0.000167135)
(0.125374 -0.00147331 -0.00133425)
(0.026982 0.000684962 -0.00374995)
(0.153653 0.000666849 -0.000877505)
(0.0504304 5.78478e-05 0.00160761)
(0.025084 -0.00179625 -0.00182754)
(0.148421 -0.00112773 -0.000389029)
(0.041778 -0.0011873 0.00105524)
(0.137497 0.000275397 3.2238e-05)
(0.17642 -0.000154139 0.00101058)
(0.130436 0.000416259 0.000298288)
(0.0520205 -0.00233693 -0.00253137)
(0.177919 0.00144073 0.000315348)
(0.088409 -0.00134349 0.00118102)
(0.183603 0.000341343 0.000126517)
(0.179268 -8.78696e-05 0.000482287)
(0.178928 0.000282713 0.000862359)
(0.176419 -7.41594e-05 -8.75911e-05)
(0.0425335 -0.00237476 -0.00199796)
(0.0499585 0.000276575 -0.000454429)
(0.176227 -0.000455766 -4.64233e-06)
(0.162028 0.000387532 0.00165346)
(0.0305739 -0.0021688 -0.00100736)
(0.161186 -0.00015905 0.000578638)
(0.179235 4.80219e-05 0.000277399)
(0.175368 -0.000760394 -0.00027999)
(0.1793 -0.00106178 -0.000185181)
(0.114894 -7.44031e-05 -0.00166431)
(0.0206136 0.00208106 0.00179541)
(0.176511 0.0005485 -0.000206543)
(0.0987584 -0.000944128 -0.00122025)
(0.151242 0.00059608 0.000629959)
(0.0941029 0.000282909 -8.63547e-05)
(0.028035 0.00199519 -0.000119285)
(0.178008 0.000214589 0.00065592)
(0.0898746 0.00227799 0.00232725)
(0.132192 -0.000143352 0.000247539)
(0.180936 -0.000809346 4.11268e-05)
(0.140869 -0.00158265 -0.000284236)
(0.0166166 0.00151334 -0.00195302)
(0.0211011 -0.0012947 -0.0020624)
(0.174178 7.33589e-05 0.000226391)
(0.167435 -0.00112533 -0.000601338)
(0.181055 0.000661759 0.00102677)
(0.152103 -0.000330218 0.00128922)
(0.090274 -0.00137371 0.000550266)
(0.149361 -0.00102627 -0.000588344)
(0.174072 0.000191697 0.00071918)
(0.0193248 0.00170332 0.000401687)
(0.175812 0.000158077 0.00056584)
(0.13498 -0.0150429 -0.000405491)
(0.0357717 -0.000587922 0.00188894)
(0.0527947 -0.00337885 0.00086046)
(0.143792 -0.00025576 -0.000894145)
(0.140357 -0.0017157 0.00101509)
(0.137122 0.000514996 -0.000103371)
(0.122765 -0.000747362 0.000652052)
(0.103245 -0.00355708 0.00113821)
(0.179979 0.000151023 -0.000120001)
(0.0960814 0.000915025 -0.0028908)
(0.174721 0.000793254 -0.000133738)
(0.170704 0.000960688 2.15921e-05)
(0.183213 -0.000616609 0.000191395)
(0.173185 -0.000664627 0.000229248)
(0.0384672 -0.000358227 0.00189681)
(0.163369 -0.000647908 0.000109451)
(0.0311126 0.000947658 -0.00126873)
(0.0944278 -0.00919893 0.00542392)
(0.0580389 0.00186592 0.00148145)
(0.127255 -0.00253577 -0.013038)
(0.129767 -0.000698632 -0.000690807)
(0.117457 -0.0190622 -0.0042367)
(0.169437 0.000252089 -0.00048188)
(0.174907 -0.000457122 -0.00029184)
(0.154031 0.000902619 -8.86612e-05)
(0.170125 -0.000361935 0.000900628)
(0.0320064 0.000249719 -0.000561774)
(0.100941 -0.00379565 -0.0025453)
(0.112491 -0.00210503 -0.0160252)
(0.174626 0.000294153 0.000151455)
(0.110906 -0.00229906 -0.000577482)
(0.136899 -0.0134595 -0.0047102)
(0.15685 -0.00370185 0.00443916)
(0.109472 0.0008943 0.000862345)
(0.0334569 -0.000679658 0.0011919)
(0.0518182 -0.00254786 0.0014206)
(0.0231268 0.000110081 -0.000215183)
(0.0219967 0.000165658 -0.00168598)
(0.0327559 -7.92879e-05 0.000168733)
(0.133611 -0.0094621 0.00549664)
(0.138237 -0.000476963 0.000849026)
(0.0223305 -0.000769182 0.0030955)
(0.0211536 0.00151217 0.00233553)
(0.181183 0.000299458 -8.19071e-05)
(0.0961356 -0.012628 0.00857481)
(0.0353198 0.00152698 0.000579751)
(0.147606 0.000216339 -0.000511571)
(0.104064 -0.00108161 -0.00148196)
(0.133851 0.000196927 0.00122621)
(0.0396337 0.0020595 -0.0011213)
(0.0518892 0.00161286 -0.000614053)
(0.110005 -0.00121653 6.51076e-05)
(0.168982 0.000109681 -0.000773404)
(0.152055 5.73103e-05 -0.000819285)
(0.0336892 0.00277786 -0.000945941)
(0.0225747 -0.00176775 0.00108121)
(0.106234 -0.0151829 -0.0112666)
(0.0241146 -0.00313816 0.000119934)
(0.133858 -0.00086105 -0.00105593)
(0.0255251 0.00141907 -0.00316569)
(0.102675 -0.000433346 0.00215841)
(0.174518 -0.00090724 -0.000134042)
(0.175998 -0.000402732 0.00119918)
(0.0413515 0.000611933 -0.000807183)
(0.0964927 -0.000302903 -0.00100019)
(0.0331034 0.00121677 -0.00137122)
(0.0261317 0.00308297 -0.00113683)
(0.175207 -0.000378272 -0.000680573)
(0.0178793 -0.00151368 -0.00230033)
(0.164608 -0.000574312 -0.000691739)
(0.0452692 0.000992239 -0.00212834)
(0.155271 -0.00119163 -0.000222789)
(0.141278 -0.000641822 -0.000166105)
(0.0204456 -0.000543939 0.0032451)
(0.0540079 -0.00264922 0.000212522)
(0.148586 0.00036933 0.000594982)
(0.032084 -0.0015385 5.62984e-05)
(0.159203 -0.000309871 -0.000571933)
(0.051051 -0.0020278 0.00318442)
(0.106637 0.000283897 -1.88823e-05)
(0.178443 -0.000768364 -0.000361846)
(0.0340044 0.00100861 0.000743297)
(0.0220658 0.000942552 -0.00286886)
(0.0476679 0.000928946 -0.000407874)
(0.110793 0.0173916 0.00374043)
(0.102656 0.000368845 0.000433109)
(0.0530643 -0.00242502 0.00256853)
(0.0825214 0.000346443 0.00121941)
(0.0286125 -0.00109771 0.000692545)
(0.179264 -0.000858296 -0.000635309)
(0.0219007 -0.000353028 -0.0016277)
(0.168882 -0.000598043 -0.000522344)
(0.144696 -8.41968e-05 0.0002037)
(0.166511 4.0897e-05 -0.000298035)
(0.0181334 0.00181493 7.12788e-05)
(0.150727 -0.000107108 0.000506997)
(0.0804582 0.000745631 0.00012731)
(0.157046 0.000125062 5.93236e-05)
(0.0515948 -0.000527112 -0.000221434)
(0.108162 -0.0130192 0.00669251)
(0.159904 -0.00141812 -0.000414796)
(0.0372676 0.000462221 -0.000426611)
(0.182184 0.000644293 0.000301161)
(0.108866 0.00200986 -0.0205019)
(0.116626 0.000304533 -0.000816937)
(0.0307769 0.000795838 -0.00168772)
(0.047682 -0.000456805 -0.00252187)
(0.17752 -0.000234775 -0.000191336)
(0.131551 0.00129517 0.000356412)
(0.0301254 0.00149472 0.000599725)
(0.108441 0.00132347 -0.00165462)
(0.0575676 -0.00054876 -0.00177111)
(0.0228595 -0.00199286 0.00133788)
(0.175649 -3.02582e-05 -0.000467698)
(0.103342 -0.00128747 0.0100433)
(0.13023 0.00140505 -0.00195697)
(0.171041 -0.00043415 -8.58318e-05)
(0.173934 -0.000261197 0.000583035)
(0.167325 -0.000533459 -9.7698e-05)
(0.13191 0.000762955 -0.000100185)
(0.0408245 0.0010709 0.000347444)
(0.0374266 -0.00182796 -0.00180064)
(0.178024 0.000394049 0.00049362)
(0.107581 -0.00939814 0.00873416)
(0.120601 -0.0011579 0.000534764)
(0.127621 -0.00166187 0.000785318)
(0.0789694 0.00185614 0.000860849)
(0.147627 -0.000348242 0.00129634)
(0.162327 -0.000353468 -0.000980376)
(0.097337 -0.000345928 -0.00129177)
(0.102549 0.00187357 0.000396967)
(0.0358489 0.000444881 -0.00227542)
(0.069165 0.000531865 -0.000384493)
(0.0406432 -0.00106608 -0.00305604)
(0.151059 -0.000823346 0.00100589)
(0.172448 -0.000234609 -0.000191967)
(0.0920987 0.00168653 -0.00218996)
(0.0965265 0.000771098 -0.000563582)
(0.0196544 0.00203947 -0.000408204)
(0.0770706 -0.000366017 -0.00064546)
(0.0553962 -0.00188774 -0.00237499)
(0.173435 -0.000241132 -0.00103471)
(0.174785 -0.0012831 -0.000443189)
(0.104822 -0.00957429 0.0060571)
(0.161473 -0.000505613 0.00119248)
(0.0794772 -0.00231767 -0.00189544)
(0.101707 -0.00255142 0.00794217)
(0.132579 -0.00151454 0.00186525)
(0.0244868 -0.0018953 -0.000153149)
(0.17482 -0.000991472 -3.03965e-05)
(0.0473046 0.00133904 -6.50605e-05)
(0.138923 -0.000348191 0.00133489)
(0.0266763 0.00380208 -0.00028649)
(0.17261 0.000235634 -0.00074834)
(0.101647 -0.00433461 0.00266734)
(0.157226 -0.000413371 -0.000351534)
(0.114281 0.000396126 0.000480295)
(0.146093 -1.6223e-05 0.000623439)
(0.149299 0.00109165 0.000318672)
(0.180306 0.000823492 0.000146895)
(0.0325219 -0.00192594 -3.14534e-05)
(0.0449783 0.000612026 -0.000968374)
(0.0272383 -0.00070938 -0.000231145)
(0.17335 -0.000231534 0.000663366)
(0.156176 0.000341225 -0.000694903)
(0.135983 0.00173268 -0.000326969)
(0.159011 0.000667801 -0.0012848)
(0.0197526 0.000355623 0.000520597)
(0.0963892 -0.000196064 -0.000222626)
(0.0871773 0.000941104 -0.00183665)
(0.173152 -0.000153113 -0.000382807)
(0.125968 -0.000894067 -0.000279727)
(0.145117 -5.97428e-05 -0.000543369)
(0.104367 -0.000282989 0.00133961)
(0.176545 -0.00012609 -7.0173e-05)
(0.0194347 -0.00224418 -0.00236679)
(0.0831666 -0.0033692 0.00045005)
(0.151784 -0.00028191 0.000426752)
(0.0245009 -0.00220025 0.00189566)
(0.0423515 -0.00074846 -0.00197863)
(0.0594228 -0.000993628 0.000632421)
(0.020319 0.00126399 -0.00215495)
(0.0929662 0.000498585 -0.00129804)
(0.16765 0.000378771 -5.80178e-05)
(0.0575059 -0.00174054 -0.00151831)
(0.018066 -0.00233748 -0.00168523)
(0.102771 0.000429252 -0.000779014)
(0.024321 0.000166147 0.000360499)
(0.0967442 0.00121915 -0.000706271)
(0.171198 0.000165399 4.05429e-05)
(0.1812 -9.0778e-05 -0.000337825)
(0.170739 -0.000199715 -0.000232698)
(0.163053 0.00086881 -0.000123447)
(0.172108 -6.51324e-05 -6.28314e-07)
(0.129038 0.00062323 0.00191)
(0.0443544 0.000886576 -0.00112)
(0.172683 0.00055088 0.000694184)
(0.122984 -0.000304947 0.000921966)
(0.0859159 0.000521004 -0.00161282)
(0.0942278 -0.000940916 0.00133638)
(0.162194 -0.000120341 0.000181726)
(0.114258 -0.00123977 -0.000627074)
(0.0631957 8.71989e-05 0.00170256)
(0.153982 0.000745446 0.00123327)
(0.0316361 0.00115012 0.0005033)
(0.0854275 4.14341e-05 0.000699606)
(0.0945135 -0.000289737 0.000214437)
(0.0586778 0.000321576 0.0010009)
(0.159666 -1.4657e-05 5.02163e-05)
(0.105999 -0.0126036 0.013437)
(0.127184 0.00802756 0.00528061)
(0.031038 0.00057178 -0.00266634)
(0.025035 -0.00160622 0.000819276)
(0.0538955 0.00200164 -0.00102936)
(0.0194374 -0.00124428 -0.00154625)
(0.125181 0.000624894 -0.000595444)
(0.153169 0.000818178 -0.000786228)
(0.128029 0.00167111 0.00023478)
(0.110228 0.0100796 -0.0115748)
(0.132911 -8.32356e-05 0.000350692)
(0.146145 0.000510038 -0.000525958)
(0.0238529 -0.00196633 0.00457672)
(0.156254 0.000713279 -7.03488e-05)
(0.127575 -0.00406723 0.0125532)
(0.0420746 0.000762979 -0.00108187)
(0.0209859 -0.0035003 0.000698948)
(0.113843 0.00032236 0.0006413)
(0.107331 -0.00125936 -0.000688104)
(0.0245204 -0.00168039 0.00276004)
(0.161977 -0.000486615 -0.000691848)
(0.0219898 -0.00238637 0.00178561)