/*--------------------------------*- C++ -*----------------------------------*\
| =========                 |                                                 |
| \\      /  F ield         | OpenFOAM: The Open Source CFD Toolbox           |
|  \\    /   O peration     | Version:  2406                                  |
|   \\  /    A nd           | Website:  www.openfoam.com                      |
|    \\/     M anipulation  |                                                 |
\*---------------------------------------------------------------------------*/
FoamFile
{
    version     2.0;
    format      ascii;
    arch        "LSB;label=32;scalar=64";
    class       volVectorField;
    location    "46";
    object      U:Transformed;
}
// * * * * * * * * * * * * * * * * * * * * * * * * * * * * * * * * * * * * * //

dimensions      [0 1 -1 0 0 0 0];

internalField   nonuniform List<vector> 
59516
(
(-0.00052021 -0.000572605 0.104222)
(0.000340781 -0.000237734 0.096584)
(-0.00042054 0.00080348 0.11211)
(-0.00238346 -0.000396662 0.12848)
(-0.0045538 0.000304252 0.113725)
(-0.010443 0.00555895 0.10109)
(-0.00174564 -0.00152529 0.127767)
(-0.000311258 -0.000651658 0.101313)
(-0.000953096 0.000159501 0.111535)
(0.00208475 0.00106459 0.0533893)
(-0.00229596 -0.00029089 0.15388)
(-0.00289477 -0.00225035 0.0601092)
(-0.000915978 -0.00065414 0.118272)
(8.18188e-05 -0.000204219 0.0193963)
(0.000181682 -0.00351883 0.0595778)
(-0.00142474 0.003625 0.0510515)
(-0.00175346 -0.000419358 0.168618)
(-0.0056862 -0.00158298 0.0700691)
(-0.00583061 -0.00127582 0.114484)
(-0.000537607 0.000603733 0.165015)
(-0.00136744 0.000640251 0.0539431)
(0.000378413 0.000682262 0.14863)
(-0.00176111 -0.000691699 0.154573)
(0.000865398 0.000551727 0.0328871)
(0.000310878 0.000785676 0.160532)
(-0.000206171 0.0015342 0.0646119)
(-0.000524522 0.00285573 0.0409314)
(-0.00346265 -0.00149577 0.0443253)
(-0.00255532 -0.000915249 0.0655262)
(0.00213329 0.00171868 0.0170478)
(-0.0215125 0.00120514 0.10835)
(-0.00292555 0.00223193 0.0455992)
(-0.000799537 -0.000312028 0.132612)
(-0.00214448 -0.00105252 0.111453)
(-0.00643321 -0.000113983 0.139344)
(-0.000332099 0.000124684 0.146025)
(-0.00247376 0.00129613 0.0164466)
(-0.00691599 -0.00219649 0.0699633)
(-0.003715 0.000431192 0.095275)
(0.000645125 0.000581205 0.158931)
(6.03346e-05 -0.000647946 0.100224)
(-0.011496 4.75396e-06 0.143994)
(-0.00473124 0.000953571 0.148371)
(-0.000676419 0.000405969 0.106276)
(-0.00476005 0.000793432 0.142789)
(0.0014233 0.000393925 0.0540949)
(-0.00501532 0.000127576 0.132445)
(-0.00471006 0.000684761 0.163011)
(-0.0152811 0.00138303 0.111884)
(-0.00844713 0.000193009 0.150883)
(-0.0179005 0.000522133 0.104053)
(-0.00395033 -0.00189221 0.0429335)
(0.000289822 -0.00246798 0.119104)
(-0.000348129 0.000455491 0.12663)
(-0.00287255 0.000705593 0.0474215)
(-0.0028004 0.000440976 0.129701)
(-0.0118687 -2.83334e-06 0.144854)
(-0.00446458 -0.0016636 0.0459162)
(-0.000299093 -0.000246713 0.172636)
(-0.0102017 -0.000388566 0.135152)
(-0.000130622 0.000452648 0.149169)
(-0.00142812 0.00197891 0.018622)
(-0.000586212 0.000413694 0.166031)
(-0.0029228 8.51805e-05 0.165625)
(-0.000514336 0.000436456 0.121685)
(-0.00628165 0.000112459 0.14738)
(0.000199628 0.00286827 0.0252511)
(-0.000127374 0.000291989 0.0401032)
(-0.0228156 0.000374066 0.121507)
(-0.00305368 -0.000889607 0.135789)
(-0.000611633 -0.000846538 0.0359438)
(-0.00162601 -0.000818793 0.162906)
(0.0034418 -0.00138259 0.022481)
(-0.0010599 -0.000384579 0.142707)
(9.85036e-06 -0.000284411 0.179305)
(-0.00341979 0.000198955 0.157914)
(-0.00416051 0.000125935 0.163763)
(5.96258e-05 0.000129872 0.148333)
(0.00179263 0.000982583 0.0447793)
(-0.00821796 0.000735466 0.151486)
(-0.00250327 2.07016e-05 0.037291)
(-0.00720038 0.000427026 0.146682)
(-0.00603977 0.000406465 0.139616)
(-0.0024795 0.00133618 0.0194716)
(-0.00704283 0.000784879 0.146535)
(4.97595e-05 0.000737717 0.174521)
(0.000616691 0.00109425 0.0317774)
(0.000262338 0.000137204 0.149952)
(-0.00203087 -0.00110492 0.0534232)
(-0.00991871 -0.00247746 0.107156)
(-0.011503 -2.49833e-05 0.131541)
(-0.00119644 0.00126079 0.138951)
(-0.000189874 2.92166e-05 0.172051)
(-0.000155848 0.00127177 0.137188)
(-0.00026922 0.000323853 0.160771)
(-0.0112799 -6.45613e-05 0.10994)
(-0.000569396 -0.000438981 0.14013)
(0.00205871 0.0039944 0.0523246)
(-0.00240899 -0.000990422 0.0645147)
(0.00142909 0.00114603 0.148113)
(-0.00120867 0.000893797 0.0367212)
(0.00264005 0.00135362 0.0238239)
(0.00283837 0.00149129 0.0225385)
(-0.00195094 0.00223695 0.0531487)
(0.00072687 -5.97546e-05 0.135084)
(-0.000133553 -0.000256661 0.147004)
(0.00181886 -0.00319452 0.038795)
(-0.000712636 -0.000423854 0.104296)
(-0.000297948 0.000649313 0.10028)
(-0.00142141 0.00223906 0.0648009)
(-0.0187111 -0.000233264 0.124942)
(0.00225517 -0.00208938 0.0299551)
(-0.00253701 0.00327161 0.0656291)
(-0.0194724 -4.53989e-05 0.118039)
(6.65648e-05 -6.51818e-05 0.159744)
(0.000996048 -0.00116889 0.0998144)
(-0.00178859 -0.0011044 0.0531182)
(-0.000418029 -0.000665762 0.13312)
(-0.000390556 -0.00100523 0.0214133)
(-0.000893874 0.000962323 0.146858)
(0.000535521 0.000105463 0.181543)
(-0.00041642 0.000475742 0.167567)
(0.000773921 0.000458512 0.158277)
(-0.000699595 0.000418721 0.166191)
(-0.0179621 0.00117307 0.132357)
(-0.00320747 0.000108087 0.0899853)
(-0.00178573 -0.000824971 0.029035)
(-0.0135342 0.00209835 0.138297)
(-0.0130691 0.00307389 0.0898363)
(0.000433115 -0.000268947 0.177567)
(0.000147865 -0.000344544 0.179849)
(0.00160989 0.00195817 0.112195)
(-0.000523917 -0.00198807 0.0227714)
(0.000326312 0.000563443 0.148207)
(0.0012155 0.000337915 0.10117)
(-0.00185674 0.00103637 0.115536)
(-0.0155594 0.0014102 0.107498)
(0.000200962 0.000511841 0.129751)
(-0.000361057 0.00262632 0.0385858)
(-0.000953224 0.000875179 0.0982098)
(-0.000973199 0.00212309 0.0427857)
(-0.000513447 -0.000406985 0.1811)
(-0.000870302 -0.00155074 0.0182151)
(-0.000421859 0.00113565 0.125264)
(-0.000769269 0.000276492 0.174638)
(-0.00155414 0.000709154 0.14173)
(-0.00525922 0.00135533 0.140437)
(-0.00287538 0.0012292 0.117879)
(0.000947171 -0.00176387 0.0621283)
(-0.000169328 0.00110434 0.106514)
(-5.42696e-05 -0.000841007 0.10313)
(0.00016529 0.00127446 0.0340479)
(0.00100143 0.00103882 0.166382)
(0.000505032 0.000211795 0.154135)
(-0.000660281 -0.00198685 0.088925)
(-0.00171322 0.00102944 0.0181888)
(-0.000157307 -0.000227222 0.112949)
(-0.00111576 0.000734151 0.113632)
(-0.00108101 0.000543874 0.0821597)
(-0.00269743 -0.00191784 0.0186741)
(0.00271262 0.00239297 0.0635203)
(0.00367918 -0.00206674 0.0654262)
(-0.000596178 0.00129644 0.0338639)
(-0.000229591 -0.000468963 0.0243684)
(0.00299426 7.64109e-05 0.0991855)
(-0.00105002 0.000393828 0.172027)
(0.000804069 -2.31108e-05 0.0600574)
(-0.000696861 -0.000316493 0.176217)
(0.00114013 0.00223002 0.0191391)
(-6.00862e-05 -0.000560095 0.136289)
(-0.0013472 -0.0011237 0.0832134)
(-0.000851019 0.000652517 0.050669)
(-4.9731e-05 -0.00177661 0.0624841)
(0.00034947 -0.000635579 0.136677)
(0.000463138 0.00065818 0.0486364)
(-0.00539251 -0.000551597 0.134991)
(-0.000953818 0.000406518 0.168805)
(-0.00641247 0.000594476 0.14947)
(0.000411719 -0.00313435 0.0655299)
(0.00046248 0.00031017 0.0395917)
(-0.00117973 -0.00188612 0.145949)
(0.000865367 0.00298609 0.0322565)
(-0.000979468 -0.00198403 0.0277634)
(0.000579354 0.00151058 0.062754)
(0.000137349 -0.000532525 0.176508)
(-0.000369541 0.000661513 0.0573673)
(-0.00266252 0.000541636 0.0340817)
(0.000147786 0.000252618 0.0220972)
(-0.000114069 7.85471e-05 0.121404)
(0.00155221 0.000869996 0.0993416)
(-0.00284406 -0.000263789 0.135247)
(-0.0009087 -0.00291881 0.0502431)
(-0.000552951 -0.00038675 0.16335)
(0.00160899 -0.00134846 0.0552222)
(-0.000230697 -2.22803e-05 0.154625)
(0.000408799 0.000721288 0.0284316)
(0.000733791 0.00019476 0.0552434)
(0.000300024 -0.00106691 0.0391905)
(-0.00461325 -0.000189628 0.108999)
(0.000524147 -0.000633464 0.153918)
(-0.00166051 -0.0022062 0.0795215)
(-0.000670323 -0.000394666 0.180864)
(0.000186139 0.0011317 0.101767)
(0.00159236 -0.00185448 0.0187606)
(0.000886145 0.000897071 0.127472)
(-0.000203288 -0.000281941 0.145144)
(2.29815e-05 -0.000307422 0.179113)
(0.00102094 -0.000952315 0.153337)
(0.00021124 -0.000688414 0.0221036)
(0.00176752 0.000933843 0.113279)
(-0.000487932 0.00457453 0.0488682)
(-0.00385746 0.000797394 0.0236553)
(-0.000997323 0.00103883 0.143688)
(-0.000296623 0.0013211 0.0540922)
(-0.000784337 -0.0011929 0.115336)
(0.000134304 -0.000218829 0.169789)
(-0.00107762 0.000441333 0.139847)
(-0.00116355 0.000878579 0.157111)
(-0.00168227 0.003069 0.052568)
(0.000839001 -1.85916e-05 0.156616)
(-0.000975523 -0.00260053 0.0535734)
(-0.000169799 0.00029964 0.103869)
(-0.000758494 -0.000865196 0.163847)
(0.000412859 -0.000548679 0.0379985)
(-8.4263e-05 -0.00027994 0.167959)
(0.000785987 0.00018387 0.170007)
(-0.000981455 -0.00102188 0.0271642)
(-0.00251298 0.000574228 0.0452301)
(0.000155396 0.000786507 0.169108)
(-0.00200912 0.00339926 0.0526051)
(0.000250162 0.000575198 0.171104)
(-0.000384493 0.000307985 0.170864)
(-0.000792745 -0.000476854 0.178928)
(-0.00117105 -0.00199866 0.0240263)
(-0.00129787 -0.00115432 0.0315555)
(-0.00145597 9.36137e-06 0.0329159)
(9.27616e-05 -0.000390873 0.0615423)
(-0.00131975 -0.000243245 0.0956092)
(-0.00154982 0.000403746 0.15623)
(0.00187747 -0.000281358 0.0555213)
(0.000540511 0.000314416 0.180778)
(0.00239095 0.00169696 0.0196903)
(0.000714469 0.000527047 0.0527084)
(0.00225859 0.00136673 0.0238377)
(0.000732525 0.000284834 0.178186)
(-0.000351471 -0.000467533 0.0913141)
(-0.000907601 0.000221001 0.145696)
(-0.000689967 0.00150102 0.0634799)
(-0.000291589 -0.00010846 0.168505)
(-0.000436873 -0.000278713 0.103655)
(0.000558224 -8.09715e-05 0.164958)
(-0.000618428 0.000124377 0.140504)
(0.000661282 0.000275175 0.181299)
(0.00027484 0.000789744 0.144661)
(-0.000689077 0.00134659 0.146945)
(-0.000429207 0.00056957 0.157601)
(-0.000263988 3.20139e-05 0.0539303)
(-0.00188754 0.000424749 0.153607)
(0.00119393 0.00193894 0.0405824)
(-0.000282116 0.00208341 0.0584065)
(-0.00112286 0.000637823 0.129957)
(-0.000268458 0.000565241 0.161536)
(0.00327271 0.000744017 0.114354)
(0.000363398 0.000389585 0.174295)
(0.00213371 9.7528e-05 0.0978268)
(-2.88501e-05 -0.00266714 0.0561793)
(-0.0005551 -0.00105486 0.159395)
(0.0019935 0.000129249 0.0915194)
(-0.000540845 -0.000851327 0.0449686)
(-0.000431993 0.00137402 0.0502798)
(-0.00235201 0.00224594 0.0963562)
(-0.000493904 -0.000341735 0.170773)
(-0.00147643 0.00183174 0.0973694)
(-0.000655913 0.00150712 0.0916293)
(-0.00108354 -0.000225997 0.164244)
(5.82772e-05 0.00251582 0.0917431)
(-0.00119662 -0.00254262 0.0204973)
(0.000781713 0.000546765 0.16142)
(0.00209841 -0.00160788 0.0247482)
(0.00170578 0.000885007 0.0392697)
(-0.000891229 -0.000379777 0.177845)
(-0.000374641 2.30258e-05 0.139441)
(-0.00328148 0.00172609 0.0244085)
(-0.000131122 -0.00101434 0.120419)
(-0.00120151 -0.00209456 0.124066)
(-0.00155252 0.000532526 0.166792)
(0.000528673 -0.00038939 0.177785)
(0.00198354 -0.00201087 0.0233921)
(-1.12004e-05 0.000637891 0.176901)
(-0.000346177 -0.000312975 0.180246)
(-0.000455821 -0.000678218 0.171458)
(-0.00100674 0.000217805 0.135162)
(-0.00117135 0.000843172 0.137362)
(-0.00038409 -0.000390578 0.0946709)
(0.000146667 -0.000994603 0.170844)
(3.08618e-06 0.00160129 0.0274282)
(7.05093e-05 -0.000780538 0.159563)
(0.000574371 0.000660189 0.139449)
(-0.000395809 -0.000195027 0.179975)
(-0.000714272 6.19559e-05 0.167571)
(0.000497614 -0.000643884 0.116218)
(0.00100262 -0.00121055 0.0580199)
(-0.000686292 -0.00143673 0.0223805)
(0.00069727 0.000419899 0.0277468)
(-0.00126061 0.000342206 0.163797)
(-0.00288007 0.00118072 0.0199983)
(-0.000817266 -0.000781381 0.0623796)
(-0.000977386 0.00287978 0.0511056)
(-0.000420112 -0.000852235 0.167001)
(-0.000518364 -8.05685e-05 0.173152)
(-0.000302302 0.000556413 0.154459)
(0.00108273 0.000695371 0.0578798)
(0.00274921 2.92281e-06 0.10275)
(6.66019e-05 0.00418781 0.03926)
(0.000337767 -0.00167817 0.0542936)
(-0.000260813 0.000698027 0.157209)
(0.000437192 -0.00134717 0.097554)
(-0.0127603 -0.00153621 0.107736)
(0.000228665 -0.00209295 0.089547)
(-0.00044589 -5.40568e-05 0.0420167)
(0.00217464 -0.000140454 0.0631257)
(-0.000681763 -0.00177025 0.107535)
(-0.00026416 -5.97664e-05 0.174496)
(0.000369968 -0.00100984 0.18036)
(-0.000728538 0.000620057 0.180507)
(0.000146303 0.00124952 0.161768)
(-0.00591338 -0.000670351 0.0969789)
(-0.00109084 -0.000107994 0.126754)
(-0.00135757 0.000654974 0.165646)
(0.000740621 0.00024319 0.160723)
(0.000999629 0.000121868 0.163218)
(-0.00262165 -0.00224572 0.0556816)
(0.00272357 -0.00111627 0.0218291)
(0.00128833 7.87157e-05 0.150399)
(0.00112918 0.00258474 0.0388466)
(4.61986e-05 -0.000142831 0.0310592)
(-0.00174618 -3.60361e-05 0.160952)
(0.000506298 0.000305724 0.145915)
(-0.00198884 0.00257047 0.0597777)
(-0.000541646 -0.00084144 0.171989)
(0.000463383 0.00125312 0.166369)
(-0.000926102 0.00029983 0.17985)
(-0.00120068 9.702e-05 0.172876)
(-0.000110748 -0.00152006 0.032011)
(-4.02181e-05 5.39889e-06 0.159627)
(-0.00125244 0.000314909 0.175016)
(0.00025341 0.000758662 0.0567505)
(-0.000236891 -0.00117164 0.178458)
(-0.000486214 0.000444121 0.173406)
(0.00066044 0.000568299 0.131413)
(0.000607441 0.000756703 0.122684)
(-0.000288759 -0.00176543 0.151901)
(0.000767646 0.00110152 0.143221)
(-0.000370051 0.000139093 0.0689355)
(-0.00061365 0.00152618 0.0311002)
(0.000313142 0.00248323 0.0342144)
(0.000485267 -0.000149673 0.0940631)
(-0.0126024 -6.75543e-05 0.0862494)
(-0.0073544 0.000768566 0.0746078)
(0.000356559 -0.000366591 0.0826188)
(0.00154765 -0.0013212 0.114334)
(-0.00047544 0.000569505 0.131396)
(-0.00432083 0.000330283 0.159091)
(0.000444133 0.000902133 0.157207)
(-0.00047706 -0.000663567 0.131756)
(1.52817e-05 -0.000614914 0.148999)
(-0.000917749 -0.000141996 0.149419)
(-0.000420234 0.000898259 0.0307132)
(-0.0226221 0.00081892 0.113914)
(0.000442076 0.00149074 0.0574045)
(-0.000950869 0.00159209 0.0404105)
(0.00084681 0.000323606 0.0407012)
(0.000245912 0.000643357 0.161483)
(-0.000465022 0.000278763 0.0933174)
(-0.00121801 0.000444591 0.160672)
(-0.00127061 0.0015163 0.0194839)
(0.000397538 -0.000331105 0.126332)
(0.0011435 -0.000692605 0.0435962)
(-0.000196938 0.000307036 0.165012)
(-0.000502959 0.000600436 0.0470533)
(0.00174798 0.000738511 0.0609912)
(0.000789411 0.00274334 0.10542)
(-0.00159954 -0.000294217 0.151835)
(0.00257058 -0.000195968 0.0191326)
(-0.000120814 0.00233812 0.0534826)
(6.06646e-05 -0.00062159 0.133124)
(6.3664e-05 -0.00228998 0.0227368)
(-0.0094507 -0.000288302 0.130795)
(0.000535817 -0.00264699 0.1157)
(-0.000201051 -0.00207414 0.131679)
(0.00229345 -0.00264948 0.0938294)
(0.00223808 0.000735602 0.087607)
(0.000649253 -0.000220782 0.161775)
(-0.0101784 -0.00322899 0.0771902)
(-0.000324612 -0.00011467 0.180407)
(-0.0124568 0.000816977 0.111368)
(-0.00214009 0.00157329 0.0584927)
(-0.000393742 0.00145183 0.0617141)
(-4.0043e-05 -0.000427882 0.177935)
(0.000473949 -0.000501826 0.177842)
(0.000603803 -0.00053099 0.0516871)
(-0.000371793 -0.000655303 0.133382)
(-0.00221524 0.000734418 0.0971763)
(6.44366e-05 -0.000595942 0.177949)
(0.000357804 -0.000953773 0.177359)
(-0.00104041 -0.00346813 0.0447374)
(-0.000441427 0.000985388 0.132552)
(0.00235566 -0.00019363 0.145475)
(-0.000650105 -0.000399344 0.148112)
(0.000324619 -0.000835664 0.156776)
(0.00243502 -0.00129606 0.0210444)
(-0.00268726 -0.000714609 0.0205439)
(-0.00148708 0.00136357 0.126366)
(1.43707e-05 -4.1177e-05 0.174433)
(0.00138232 0.0009664 0.179065)
(-0.00221514 0.00118231 0.0337635)
(0.00128805 -0.00103684 0.168202)
(-0.00121183 -0.000150811 0.106052)
(-0.000198411 -0.000508259 0.173495)
(7.8161e-05 0.000823365 0.175201)
(0.000771639 0.000101394 0.179163)
(7.28891e-06 -0.000906174 0.17257)
(-0.000280109 -0.00152703 0.171751)
(0.000299041 -0.000564371 0.087995)
(-0.000682071 0.00038199 0.177177)
(-0.00184161 0.00225545 0.0552289)
(-0.000478804 0.000143911 0.166648)
(-0.000980369 -0.000597403 0.108731)
(-0.000977078 -0.00032819 0.153356)
(-0.000200515 -0.000161827 0.173819)
(-0.000135583 0.000475354 0.149373)
(0.000975071 -0.000752467 0.144659)
(0.00171293 0.00257377 0.0395793)
(0.000871733 2.06142e-06 0.033142)
(-0.00190824 -0.00194692 0.0207049)
(-0.00851616 4.15718e-05 0.153)
(0.000206736 3.32393e-05 0.184612)
(-0.00104927 0.000207541 0.139366)
(-9.59433e-05 -0.00098461 0.126124)
(0.001107 0.000220198 0.0301344)
(0.000711995 -0.00258244 0.0231204)
(-0.000596115 -0.00166491 0.113741)
(-0.00109776 0.00099015 0.152625)
(-0.000384054 -0.000890925 0.174242)
(0.000413752 -0.000131869 0.154515)
(-0.00143405 4.83007e-05 0.135149)
(-0.000421723 0.000106363 0.182829)
(0.00118157 9.74683e-05 0.134138)
(-0.00109984 0.00222928 0.0258305)
(0.000171108 0.000764215 0.122179)
(0.00258907 -0.00147247 0.0564543)
(-0.00716068 -0.000789269 0.0704774)
(-0.000450855 0.00028811 0.153932)
(0.000441768 -0.000266136 0.0924095)
(-0.000115326 0.000173349 0.146422)
(-0.0033916 0.00214081 0.0200995)
(0.00041614 -0.000625631 0.17783)
(-0.000345186 -6.22827e-05 0.17802)
(-0.000689447 -0.000109903 0.175986)
(0.000688627 -0.000653458 0.0906065)
(0.000459772 -0.00159285 0.153348)
(-0.000380144 -0.00076249 0.172024)
(-5.94365e-05 0.00043774 0.12087)
(-0.000871028 0.000386656 0.178946)
(-0.00512996 -0.000553407 0.0979058)
(-0.000478694 -0.000395299 0.170295)
(-0.00255821 0.00106946 0.148849)
(0.00146462 -0.0012499 0.0199996)
(8.70157e-05 0.000141984 0.177139)
(0.00135459 0.00168161 0.116139)
(-0.00286955 -0.00267379 0.0449528)
(-0.000957094 0.00144261 0.0899944)
(0.000266366 0.000125229 0.166866)
(4.68821e-06 -0.00103274 0.128468)
(0.000941696 0.0021921 0.083435)
(-0.00219931 0.00154332 0.0198603)
(-0.00010299 0.000503148 0.17368)
(0.000598895 0.0023947 0.124166)
(-0.000735984 -8.07335e-05 0.160722)
(-0.000744052 -0.000186486 0.123658)
(-0.00221098 0.00059889 0.0358107)
(0.000394432 -2.62013e-05 0.140828)
(-0.00390684 0.000308165 0.0258205)
(3.76415e-05 0.000783241 0.162514)
(-0.011956 0.000602416 0.10228)
(0.00121962 0.000524647 0.167746)
(-0.000228412 0.00174867 0.0503315)
(-0.00121252 0.00156705 0.105179)
(-0.000187714 0.00123471 0.0940472)
(0.00192544 -0.00172211 0.0338093)
(0.000229094 0.000447547 0.179946)
(-0.00064643 -0.000489233 0.170711)
(-0.00206192 -0.000792066 0.0212765)
(-0.000143374 -0.000426186 0.161448)
(-0.000655896 0.000208689 0.179837)
(-0.000562902 0.00207233 0.0360669)
(0.00145469 0.00221072 0.060107)
(-0.00137422 0.00192588 0.0522495)
(-0.000609235 0.000335121 0.153891)
(-0.000176603 -0.000355715 0.176722)
(-0.00121934 0.00121535 0.0324638)
(0.00167472 -0.00075643 0.052379)
(-0.000207507 0.0010805 0.0550653)
(0.00120598 0.000925948 0.114238)
(-0.00041806 -0.000377232 0.17804)
(-0.0026309 -0.00179825 0.0224924)
(0.000972103 0.000287581 0.159417)
(-0.00313302 -0.000936348 0.151782)
(8.13385e-05 -0.00120136 0.177207)
(-0.00234841 -0.00482954 0.0900995)
(0.000794229 0.000362274 0.167975)
(0.00113762 -0.00211953 0.0219983)
(-0.000611923 -0.000180948 0.164108)
(0.000160648 -0.000378218 0.0263846)
(-0.000211388 -0.00179872 0.0588329)
(-4.64619e-06 0.00123294 0.154668)
(-0.00106584 0.00150438 0.0589626)
(-0.00266538 0.00157694 0.0198704)
(0.000324192 -0.00127671 0.0356092)
(0.000417604 0.00277938 0.0439359)
(0.000757724 -0.00181183 0.0570551)
(-0.000733894 -9.21612e-05 0.146441)
(-3.00878e-05 0.00110747 0.0487267)
(0.00107653 -0.00184943 0.0575267)
(-0.0154906 0.000633891 0.128229)
(-0.000543384 -0.000544297 0.16893)
(0.0015043 1.85185e-05 0.0231418)
(0.000224851 0.00108244 0.105616)
(-0.0084931 -0.00430274 0.0812808)
(0.000759255 0.000113327 0.170399)
(-0.00104759 0.000833396 0.0568186)
(-0.00112655 -0.00060011 0.165196)
(0.00127887 0.0024779 0.0556853)
(-0.00067894 0.000540338 0.122339)
(-0.000618818 0.000258404 0.175425)
(0.00262278 -0.00419837 0.0493672)
(-1.98593e-05 -5.09869e-05 0.174643)
(-0.00318444 -0.000820939 0.0475325)
(0.00254126 -0.00160502 0.0184877)
(-0.000574409 0.00077078 0.145747)
(0.000231657 -5.3006e-05 0.176896)
(-0.000934623 0.000552356 0.129124)
(0.000740473 -0.00162277 0.124356)
(0.00102524 -7.60006e-05 0.176823)
(0.00169662 -0.000163844 0.0591013)
(0.00101219 -0.000320675 0.166962)
(0.00127686 0.00268361 0.0554027)
(-0.000103225 -0.000349094 0.173586)
(0.00182695 0.000783027 0.125374)
(-0.00317188 -0.00211434 0.026982)
(-0.00106705 0.000275882 0.153653)
(0.00105968 -0.00121031 0.0504304)
(0.00123864 0.00224325 0.025084)
(-0.00110894 0.000439725 0.148421)
(-0.00158629 8.31806e-05 0.041778)
(-1.58547e-06 0.000277273 0.137497)
(3.62647e-05 0.00102162 0.17642)
(-0.000161348 0.000486019 0.130436)
(9.36297e-05 0.00344388 0.0520205)
(0.00146908 -0.000130151 0.177919)
(0.00173512 0.000434893 0.088409)
(6.72363e-05 0.000357772 0.183603)
(-0.000411816 0.00026595 0.179268)
(0.000179724 0.000889545 0.178928)
(-9.98857e-05 5.65213e-05 0.176419)
(0.00288344 -0.00114766 0.0425335)
(0.000349484 0.000401074 0.0499585)
(0.000437067 -0.000129295 0.176227)
(0.000224253 -0.0016834 0.162028)
(0.00048052 0.00234255 0.0305739)
(0.00057079 -0.000185248 0.161186)
(-1.8145e-05 0.00028094 0.179235)
(0.0004151 0.000695906 0.175368)
(0.00069659 0.000822449 0.1793)
(-0.00148888 0.000747464 0.114894)
(-0.00159639 0.00223738 0.0206136)
(0.000584889 -3.76443e-05 0.176511)
(0.000778966 -0.00133176 0.0987584)
(-0.000553355 0.000667802 0.151242)
(-0.000152087 0.000253701 0.0941029)
(-0.00168891 -0.00106892 0.028035)
(-0.000623394 -0.000296073 0.178008)
(-0.00202735 0.00254857 0.0898746)
(0.000139858 -0.00024953 0.132192)
(0.000554212 0.000591254 0.180936)
(-0.000793218 0.00139871 0.140869)
(0.0015002 0.00196312 0.0166166)
(-0.00221015 0.00102225 0.0211011)
(-0.000212926 0.000106289 0.174178)
(0.0010661 -0.000701002 0.167435)
(-0.000733344 0.000976927 0.181055)
(-0.0010148 -0.000860987 0.152103)
(-0.000349506 0.00143795 0.090274)
(-0.000469983 0.00108559 0.149361)
(2.51921e-05 0.000743863 0.174072)
(0.000694131 0.0016065 0.0193248)
(-0.000568238 0.000149227 0.175812)
(-0.0150204 0.000917457 0.13498)
(-5.93841e-05 0.00197743 0.0357717)
(-0.000374605 0.00346651 0.0527947)
(-0.000329346 0.000869735 0.143792)
(0.00184888 -0.000745455 0.140357)
(0.000250205 -0.000461849 0.137122)
(0.000830962 -0.000541501 0.122765)
(-0.00303733 0.00217324 0.103245)
(-0.00012706 -0.000145134 0.179979)
(0.000672985 -0.00295653 0.0960814)
(0.000679341 -0.000430853 0.174721)
(0.000237682 0.000931072 0.170704)
(0.000604178 -0.000227615 0.183213)
(0.000406487 -0.000573631 0.173185)
(0.00155235 0.00114735 0.0384672)
(0.000657084 -2.01436e-06 0.163369)
(-0.000302638 -0.00155439 0.0311126)
(-0.0105815 -0.00143911 0.0944278)
(0.00194292 -0.00137891 0.0580389)
(-0.0132821 -6.08199e-05 0.127255)
(0.000718162 0.00067048 0.129767)
(-0.0195217 0.00046742 0.117457)
(0.000130392 0.000527972 0.169437)
(-0.000515429 -0.000168714 0.174907)
(-0.000890423 0.000172421 0.154031)
(0.000535885 0.000809293 0.170125)
(-0.000587801 -0.00018011 0.0320064)
(-0.00456786 0.000142111 0.100941)
(-0.0161227 0.00113838 0.112491)
(-0.00028507 -0.000167929 0.174626)
(-0.000737263 0.00225291 0.110906)
(-0.0142283 0.000949612 0.136899)
(-0.00577335 0.000279794 0.15685)
(0.000601152 0.00108721 0.109472)
(-0.00126925 -0.000521125 0.0334569)
(0.00139109 0.00256409 0.0518182)
(-0.000206141 -0.000126204 0.0231268)
(0.00124963 0.00114385 0.0219967)
(-0.000186428 -1.42169e-06 0.0327559)
(-0.0109373 0.000346065 0.133611)
(-0.000826492 -0.000515025 0.138237)
(-0.00213982 -0.00236536 0.0223305)
(-0.00268659 0.000723597 0.0211536)
(0.000248403 0.000186224 0.181183)
(-0.0149093 0.00327183 0.0961356)
(-0.00162892 0.000119972 0.0353198)
(-0.000548933 -8.47331e-05 0.147606)
(-0.00160507 0.000888719 0.104064)
(0.00119012 -0.000354948 0.133851)
(0.00128489 0.00196161 0.0396337)
(-0.0010611 -0.00136104 0.0518892)
(0.000211488 0.00119978 0.110005)
(0.000715351 0.000313778 0.168982)
(0.000393815 0.00072071 0.152055)
(-0.0017382 0.00236431 0.0336892)
(-0.000579961 -0.00198937 0.0225747)
(-0.0189055 0.000202138 0.106234)
(-0.00254314 0.00184251 0.0241146)
(-9.42905e-05 0.00135923 0.133858)
(-0.00330441 -0.00105651 0.0255251)
(0.000582017 0.00212315 0.102675)
(-0.000870713 -0.000287944 0.174518)
(0.00123918 0.000254294 0.175998)
(-0.000385903 -0.000936528 0.0413515)
(0.000882981 -0.000558987 0.0964927)
(-0.00181589 -0.000251643 0.0331034)
(-0.00328027 -0.000192067 0.0261317)
(3.21355e-05 -0.000777969 0.175207)
(-0.00247141 0.00121443 0.0178793)
(0.000824873 0.000357661 0.164608)
(-0.000390235 -0.00231562 0.0452692)
(-0.000243144 0.00118765 0.155271)
(-0.000231733 0.000621149 0.141278)
(0.00305028 0.00123383 0.0204456)
(-0.000964655 -0.00247648 0.0540079)
(-2.56008e-05 0.000699824 0.148586)
(-0.000120447 0.00153481 0.032084)
(0.000578501 -0.000297429 0.159203)
(-0.0012548 0.00356061 0.051051)
(0.000256933 0.000122228 0.106637)
(0.000803282 0.00027578 0.178443)
(0.00125281 1.63654e-05 0.0340044)
(-0.00295863 -0.00060441 0.0220658)
(-0.000957927 -0.000334183 0.0476679)
(-0.0177891 9.17403e-05 0.110793)
(-0.000568882 -1.81372e-06 0.102656)
(9.56505e-05 0.00353113 0.0530643)
(0.00124834 -0.000220564 0.0825214)
(0.000439406 0.00122127 0.0286125)
(0.00104424 0.000223256 0.179264)
(0.00100513 0.00132807 0.0219007)
(-0.000653411 0.000451168 0.168882)
(0.000216323 4.22783e-05 0.144696)
(-0.000291027 7.61612e-05 0.166511)
(-0.0018039 -0.000212115 0.0181334)
(0.000476494 -0.000203644 0.150727)
(-0.000620358 0.000432815 0.0804582)
(4.88031e-05 0.00012953 0.157046)
(0.000157839 0.000549515 0.0515948)
(-0.0146334 0.000391365 0.108162)
(-0.0013107 0.00068206 0.159904)
(0.0006276 -4.19935e-05 0.0372676)
(-5.06549e-05 0.000709398 0.182184)
(-0.0204619 0.00238323 0.108866)
(-0.00077652 -0.000396412 0.116626)
(-0.00071797 -0.00172229 0.0307769)
(-0.00116132 0.0022847 0.047682)
(-0.00024143 0.000182867 0.17752)
(0.000833741 -0.00105326 0.131551)
(-0.00103062 0.00123762 0.0301254)
(-0.000273279 -0.00210111 0.108441)
(0.00147218 0.00112724 0.0575676)
(-0.00156873 0.00181672 0.0228595)
(-0.000465116 5.76524e-05 0.175649)
(-0.010114 0.000482753 0.103342)
(-0.00102934 -0.00217815 0.13023)
(-0.00011386 0.000427656 0.171041)
(0.000476403 0.000425669 0.173934)
(0.000285536 -0.000461078 0.167325)
(0.000750021 -0.000172062 0.13191)
(0.00106894 0.000353427 0.0408245)
(-0.000456889 0.00252488 0.0374266)
(0.000433253 0.000459594 0.178024)
(-0.0128181 -0.000553374 0.107581)
(0.000225981 0.00125524 0.120601)
(0.0014808 -0.00108892 0.127621)
(0.00184852 -0.000877091 0.0789694)
(-0.000566161 0.00121705 0.147627)
(0.000340723 0.000984877 0.162327)
(-0.000983708 -0.000905897 0.097337)
(-0.00148215 0.00121288 0.102549)
(-0.00129036 0.00192624 0.0358489)
(-0.000572543 -0.000320795 0.069165)
(-0.00257501 -0.00196093 0.0406432)
(0.000836357 -0.000995102 0.151059)
(0.00026139 -0.00015352 0.172448)
(-0.000582138 0.00270211 0.0920987)
(5.2949e-05 -0.000953631 0.0965265)
(0.00114713 -0.00173498 0.0196544)
(0.000154499 -0.000725753 0.0770706)
(-0.00274823 -0.00128505 0.0553962)
(-0.000808883 0.000688818 0.173435)
(0.001345 0.000183638 0.174785)
(-0.0113056 -0.000733595 0.104822)
(-0.00123358 0.000394872 0.161473)
(-0.00140881 0.00264188 0.0794772)
(-0.00833333 0.000378656 0.101707)
(0.000604104 -0.00232552 0.132579)
(0.00171851 0.000813841 0.0244868)
(0.000964857 -0.000230198 0.17482)
(-0.000186778 0.00132755 0.0473046)
(-0.00133301 -0.000355294 0.138923)
(0.00338971 -0.00174579 0.0266763)
(0.000751933 -0.000223902 0.17261)
(-0.00508117 -0.000292088 0.101647)
(-0.00047773 -0.000257343 0.157226)
(0.00044204 -0.000438406 0.114281)
(-0.000306217 0.000543296 0.146093)
(0.000181755 0.00112259 0.149299)
(-0.000827418 0.00012287 0.180306)
(0.00017848 0.00191791 0.0325219)
(-7.72243e-05 -0.00114296 0.0449783)
(-0.000316873 0.000675455 0.0272383)
(-6.84103e-05 0.000699273 0.17335)
(0.000760135 -0.000146693 0.156176)
(0.0016464 0.000631238 0.135983)
(0.000894665 -0.00113852 0.159011)
(0.000233774 -0.000585524 0.0197526)
(4.94763e-05 0.000292499 0.0963892)
(0.00150008 -0.00141729 0.0871773)
(-0.000357569 -0.000205253 0.173152)
(-0.000929656 -0.000115507 0.125968)
(6.88287e-05 -0.000542293 0.145117)
(-0.00126936 0.000513174 0.104367)
(-0.000140892 -3.11858e-05 0.176545)
(-0.00264085 0.00191415 0.0194347)
(0.0003487 0.00338119 0.0831666)
(-0.000402373 0.000315731 0.151784)
(-0.000158825 0.0028999 0.0245009)
(0.000320601 0.00209103 0.0423515)
(-0.00106802 -0.000496586 0.0594228)
(-0.00228755 -0.00100427 0.020319)
(0.00139039 1.78151e-05 0.0929662)
(-0.000370169 9.90375e-05 0.16765)
(-0.00048676 0.00225783 0.0575059)
(0.00219005 0.00187283 0.018066)
(-0.000293121 -0.000839762 0.102771)
(0.000390178 7.2973e-05 0.024321)
(6.90858e-05 0.00140726 0.0967442)
(-2.9326e-06 0.00017027 0.171198)
(0.000326722 0.000124975 0.1812)
(0.000306647 -1.43384e-06 0.170739)
(0.000590415 0.000649216 0.163053)
(1.9466e-06 -6.51063e-05 0.172108)
(-0.000467344 0.001954 0.129038)
(0.000976363 -0.00104266 0.0443544)
(0.000886099 1.37327e-05 0.172683)
(7.03658e-05 -0.000968536 0.122984)
(-0.000826415 -0.00147975 0.0859159)
(-0.00154247 -0.000540395 0.0942278)
(-0.000201028 -8.42252e-05 0.162194)
(-0.00120726 0.000687581 0.114258)
(0.000974367 0.0013989 0.0631957)
(-0.0011005 -0.000930345 0.153982)
(0.000368118 -0.00120024 0.0316361)
(0.000590816 0.000376963 0.0854275)
(0.00028794 -0.000216845 0.0945135)
(-0.000810638 0.000669389 0.0586778)
(3.41223e-05 3.96506e-05 0.159666)
(-0.0184161 -0.000499745 0.105999)
(-0.00960362 0.00031153 0.127184)
(-0.000551683 0.00267057 0.031038)
(0.00178124 -0.000279863 0.025035)
(-0.00017476 0.00224402 0.0538955)
(0.00193552 -0.000439165 0.0194374)
(-0.000687767 0.000521558 0.125181)
(0.00037471 0.00107106 0.153169)
(-0.00101604 0.00134736 0.128029)
(-0.0153007 0.0012096 0.110228)
(-0.000306343 -0.000189914 0.132911)
(0.000367623 0.000633738 0.146145)
(0.00407277 0.00286799 0.0238529)
(-0.000267696 0.000664872 0.156254)
(-0.0131906 -0.000363804 0.127575)
(-0.00127935 -0.000340369 0.0420746)
(0.00265346 0.00238742 0.0209859)
(-0.00041433 -0.000586099 0.113843)