/*--------------------------------*- C++ -*----------------------------------*\
| =========                 |                                                 |
| \\      /  F ield         | OpenFOAM: The Open Source CFD Toolbox           |
|  \\    /   O peration     | Version:  2406                                  |
|   \\  /    A nd           | Website:  www.openfoam.com                      |
|    \\/     M anipulation  |                                                 |
\*---------------------------------------------------------------------------*/
FoamFile
{
    version     2.0;
    format      ascii;
    arch        "LSB;label=32;scalar=64";
    class       volScalarField;
    location    "6";
    object      epsilon;
}
// * * * * * * * * * * * * * * * * * * * * * * * * * * * * * * * * * * * * * //

dimensions      [0 2 -3 0 0 0 0];

internalField   nonuniform List<scalar> 
59516
(
0.0308429
0.0331708
0.0200315
0.0149475
0.00951049
0.381854
0.017113
0.0304423
0.0237164
0.103542
0.00947426
0.0984327
0.0253601
0.419979
0.0865251
0.109271
0.00966039
0.0904811
0.0266961
0.0100359
0.113788
0.0117602
0.0110708
0.176147
0.0107638
0.0823352
0.164607
0.141478
0.0744798
0.304474
0.0498204
0.139607
0.0146101
0.0230127
0.0130424
0.0133921
0.344275
0.0985639
0.0482042
0.0113017
0.0356979
0.0105022
0.012058
0.03025
0.0130695
0.118928
0.0165855
0.00967357
0.0112608
0.0101049
0.0265564
0.120677
0.0218459
0.0189897
0.115914
0.0185709
0.00976107
0.146022
0.00973813
0.013606
0.0113107
0.242046
0.00976173
0.00976549
0.0206567
0.011293
0.280282
0.1438
0.0164398
0.0137316
0.128624
0.00998238
0.237342
0.0136481
0.00955559
0.0102971
0.00972951
0.0117786
0.118456
0.0102702
0.163489
0.0109264
0.0132183
0.316044
0.0111261
0.00956098
0.173738
0.0121398
0.106491
0.0391208
0.0095738
0.013187
0.0095611
0.012647
0.00997043
0.00998401
0.011899
0.11525
0.0895763
0.0119945
0.144271
0.216533
0.217811
0.0950703
0.0148353
0.0118528
0.151347
0.0241235
0.0325473
0.0790368
0.0163959
0.139015
0.0823533
0.0296153
0.0106419
0.0371411
0.10247
0.0139205
0.204335
0.0118407
0.00937382
0.00983296
0.0105521
0.00985758
0.0123756
0.0492104
0.19134
0.0127035
0.10887
0.0095068
0.0095113
0.0272349
0.203527
0.0121725
0.0382211
0.020791
0.0448456
0.0168381
0.149654
0.0389474
0.134606
0.00947513
0.26841
0.0158213
0.00950143
0.0127888
0.0135108
0.0226826
0.32907
0.0272973
0.0407101
0.159253
0.00984583
0.0114915
0.0435771
0.24888
0.0210802
0.021046
0.0531848
0.273335
0.065463
0.0657761
0.188436
0.261557
0.0377392
0.00980723
0.0944711
0.00944746
0.236857
0.0142177
0.0531791
0.125482
0.0693913
0.0128908
0.124251
0.0158827
0.00979637
0.0111692
0.0765275
0.158337
0.0120367
0.21688
0.286047
0.0969461
0.00950432
0.103202
0.171866
0.276937
0.0182305
0.0413618
0.0147175
0.119599
0.0104571
0.102478
0.0110776
0.206566
0.115496
0.152551
0.0249678
0.0115605
0.0526537
0.00950264
0.034006
0.290539
0.0163632
0.013249
0.00935967
0.0106204
0.287723
0.0242154
0.132134
0.232211
0.0125128
0.106837
0.0224839
0.00973101
0.0131305
0.0108225
0.111253
0.0105981
0.109225
0.0295185
0.00983658
0.139898
0.00966052
0.0096586
0.149333
0.130061
0.00969097
0.108925
0.00960015
0.00969289
0.00947129
0.185277
0.200069
0.16789
0.0975078
0.0311264
0.0104242
0.12469
0.00948273
0.269521
0.111777
0.212021
0.00954196
0.0481608
0.0118613
0.0725801
0.00971004
0.0274503
0.0102717
0.013197
0.00951357
0.011976
0.0123054
0.0108875
0.123083
0.0107569
0.123942
0.0888945
0.0154847
0.0101987
0.0252436
0.00957305
0.0303212
0.11985
0.0104001
0.0503679
0.110679
0.128336
0.0394115
0.00967553
0.0411135
0.0413122
0.00988836
0.0447858
0.208691
0.0102342
0.181061
0.139891
0.009446
0.013272
0.193479
0.020574
0.0175367
0.00992192
0.00949755
0.209247
0.00947135
0.00953218
0.00955322
0.0149374
0.0124052
0.0397773
0.00967632
0.128694
0.0102968
0.0126089
0.00941717
0.00973493
0.0209694
0.108358
0.207221
0.131872
0.0103335
0.28263
0.0797218
0.121695
0.00971488
0.0096626
0.0112545
0.0975004
0.0315911
0.148584
0.124747
0.0100682
0.0398278
0.0104586
0.0471523
0.154691
0.0837256
0.0301595
0.00962741
0.00939185
0.00945982
0.0103385
0.0472596
0.0170427
0.0097137
0.0102675
0.0100304
0.0940457
0.209671
0.0112641
0.128489
0.173355
0.00990613
0.012044
0.0971788
0.00958468
0.00987125
0.00946607
0.00961718
0.165457
0.0109644
0.00954051
0.116787
0.00943751
0.00958807
0.0144317
0.0168681
0.0109533
0.0119224
0.0836716
0.22051
0.157857
0.0410792
0.0851325
0.132376
0.0620461
0.0244609
0.0180631
0.00950717
0.0109311
0.0153829
0.0111461
0.0112514
0.152489
0.0352528
0.111697
0.15427
0.152655
0.0102123
0.0409187
0.0104219
0.248249
0.0163312
0.146967
0.00985207
0.13921
0.0850799
0.0294829
0.00951359
0.249066
0.104285
0.0141425
0.173207
0.0161865
0.022174
0.0155804
0.0452866
0.0413955
0.0103327
0.109628
0.0094731
0.0332694
0.0889989
0.0911267
0.00945364
0.00945552
0.109175
0.0165844
0.0361475
0.00941528
0.00943251
0.119293
0.0160316
0.0125508
0.0118241
0.0104108
0.265393
0.225975
0.0161568
0.00953249
0.00948798
0.156386
0.00983835
0.0326699
0.00959413
0.00953097
0.009414
0.00962687
0.00967427
0.0434472
0.00953047
0.0847067
0.0099023
0.029505
0.0107857
0.0095659
0.0121388
0.0121086
0.147726
0.183762
0.224204
0.00967791
0.00935806
0.013311
0.0169431
0.202158
0.20776
0.0215464
0.0112508
0.00948077
0.010978
0.0145836
0.009361
0.0147615
0.15905
0.0180528
0.0982508
0.15787
0.0106979
0.0411665
0.0129005
0.270129
0.00953145
0.00940477
0.00953943
0.0480858
0.0107936
0.00963567
0.0212431
0.00946939
0.0420553
0.00968508
0.01142
0.232491
0.00953343
0.0201781
0.124473
0.0413387
0.00977141
0.0161079
0.0535875
0.250232
0.00964016
0.0168918
0.0103121
0.0178493
0.172291
0.0130939
0.217663
0.0101889
0.0170386
0.00983137
0.109749
0.0266305
0.0361417
0.171632
0.00939334
0.00959736
0.234493
0.010054
0.00951648
0.14929
0.0805172
0.109148
0.0107204
0.009506
0.262342
0.114387
0.118424
0.0215796
0.00947636
0.207335
0.0106253
0.0109126
0.00949794
0.126676
0.00977663
0.201736
0.0101612
0.227753
0.0953323
0.010798
0.0941169
0.236111
0.1586
0.111175
0.107763
0.0117107
0.120048
0.0944505
0.0105277
0.00969185
0.164036
0.0301124
0.112215
0.00965832
0.110764
0.00977636
0.109563
0.0179344
0.00962417
0.111281
0.00957829
0.136016
0.301097
0.0116943
0.00954625
0.0147996
0.0171768
0.00942477
0.0987124
0.00984413
0.0926863
0.00966481
0.0187738
0.169957
0.0111385
0.10971
0.172939
0.0120108
0.146291
0.0142619
0.0095056
0.0174857
0.115424
0.00949851
0.054159
0.00939752
0.00951516
0.00949593
0.00959178
0.140658
0.11651
0.0095201
0.0100994
0.199948
0.0101375
0.00940027
0.00951123
0.00944275
0.023203
0.221099
0.00951841
0.0310814
0.0105161
0.0363831
0.1484
0.00949931
0.0446098
0.0139654
0.0094195
0.0124862
0.303356
0.2127
0.00955476
0.00983374
0.00948866
0.0109914
0.0510676
0.0113871
0.00960747
0.193159
0.0095428
0.0122173
0.145918
0.0887017
0.0135277
0.0126212
0.0143074
0.0184185
0.0308416
0.00932522
0.041938
0.00959467
0.00975048
0.00941323
0.00957549
0.142843
0.0100688
0.203279
0.113762
0.088188
0.00978747
0.0143654
0.0298828
0.00967877
0.00963435
0.0114172
0.00965453
0.171749
0.0102421
0.0115092
0.00951494
0.0197431
0.0123213
0.00959866
0.0258849
0.173749
0.113059
0.157035
0.21692
0.158117
0.0152739
0.0140444
0.253333
0.233586
0.00944074
0.0850836
0.165328
0.0115097
0.0253722
0.0141088
0.163686
0.111552
0.021524
0.00970571
0.011798
0.193451
0.199976
0.0629433
0.198322
0.0153901
0.194026
0.0285193
0.00952425
0.00945701
0.142932
0.0354403
0.179228
0.20887
0.00954284
0.282717
0.00980514
0.114729
0.0105787
0.0123823
0.250107
0.109225
0.0114551
0.167933
0.00992413
0.114336
0.0296351
0.00945505
0.182134
0.235885
0.12203
0.0162446
0.0312293
0.120766
0.0684536
0.200492
0.00945465
0.178814
0.00985684
0.012564
0.00986136
0.303081
0.0121642
0.0502441
0.010891
0.122971
0.0125292
0.0106358
0.160951
0.0093958
0.0257684
0.0198626
0.193027
0.102697
0.00948929
0.0159867
0.209105
0.025043
0.100528
0.195791
0.00950992
0.011371
0.0168285
0.00963382
0.00955796
0.00964691
0.017565
0.120778
0.149469
0.00951166
0.0113118
0.0208945
0.0159538
0.069284
0.0124283
0.0100768
0.0384582
0.0343024
0.163138
0.0560889
0.178934
0.0108601
0.00958967
0.0472379
0.0369531
0.25429
0.0612174
0.107976
0.00958301
0.00952988
0.0116373
0.0102922
0.0580775
0.0162904
0.0152861
0.233069
0.00952804
0.143186
0.0132671
0.191669
0.00977612
0.01038
0.0107395
0.0246176
0.0114163
0.0114643
0.0094572
0.160129
0.100538
0.231764
0.00962489
0.01093
0.0139441
0.010652
0.341612
0.040683
0.0470491
0.00960997
0.0162054
0.0117738
0.0324248
0.00953137
0.237765
0.0452638
0.0104757
0.139622
0.135858
0.0881421
0.208338
0.0442489
0.00965432
0.0828235
0.286539
0.0285639
0.151572
0.035389
0.00960031
0.00940303
0.00964778
0.010246
0.00953916
0.0197802
0.163693
0.00965587
0.0162415
0.0563578
0.0386153
0.0100474
0.0248626
0.0848929
0.0112349
0.166321
0.0516978
0.0358824
0.0855939
0.0108305
0.0474758
0.0182531
0.186844
0.212598
0.102221
0.262736
0.0161672
0.0104869
0.0161706
0.0364554
0.0135968
0.0108368
0.263405
0.0103073
0.00972635
0.135372
0.250034
0.019986
0.0301749
0.189566
0.0102132
0.229665
0.00956174
0.0108307
0.017295
0.0106209
0.0105469
0.0347516
0.00948055
0.374331
0.1787
0.0336636
0.0311188
0.3006
0.0119771
0.0107654
0.0094683
0.00974704
0.0598428
0.0105927
0.0094102
0.0471363
0.116302
0.00982222
0.036649
0.148069
0.010094
0.00964072
0.0104518
0.0451687
0.0171673
0.0296843
0.0554835
0.0297273
0.0382279
0.0158031
0.103872
0.0102376
0.00946849
0.00971899
0.0133688
0.026173
0.0182208
0.170595
0.102513
0.0187275
0.0132265
0.0151758
0.00944074
0.0112294
0.00936677
0.00932501
0.329603
0.0234401
0.00946683
0.25437
0.0133534
0.0109044
0.202113
0.0110366
0.00958087
0.0326102
0.00955164
0.00948425
0.00955692
0.089662
0.010196
0.132639
0.0295677
0.00968858
0.188208
0.108675
0.117055
0.0214357
0.142589
0.0109452
0.00955061
0.00965347
0.0106541
0.0489696
0.0996563
0.0104702
0.0102543
0.0214193
0.0483281
0.0107158
0.00957942
0.00947033
0.176261
0.00950528
0.0432818
0.0588654
0.169967
0.0996365
0.0502227
0.0095539
0.122445
0.00981386
0.00976433
0.00987433
0.00947205
0.00976937
0.00945239
0.00946759
0.00940991
0.00981722
0.0143801
0.0205166
0.160213
0.12418
0.0101464
0.016098
0.168904
0.00997893
0.0274836
0.00948981
0.00949998
0.00951604
0.0112668
0.0441374
0.00951652
0.160644
0.0366884
0.0095022
0.0919925
0.00958366
0.163838
0.0612815
0.00996385
0.076147
0.150044
0.0100317
0.0103213
0.0114607
0.167153
0.00963881
0.171086
0.0442897
0.08038
0.0866807
0.0450801
0.00943354
0.0909143
0.0107955
0.00989613
0.0255476
0.00943168
0.00941159
0.0232463
0.00931748
0.00952003
0.0834957
0.00944762
0.112718
0.171857
0.00990465
0.0102828
0.130729
0.00949206
0.0285943
0.0625541
0.00968418
0.28769
0.00983212
0.00958343
0.0222024
0.202178
0.116598
0.0377863
0.117236
0.0143814
0.0163449
0.0379379
0.310767
0.0289156
0.00983676
0.0103121
0.0095383
0.00951048
0.0483824
0.0103355
0.00947116
0.0280907
0.0128631
0.175
0.0207031
0.0105063
0.00948439
0.0942539
0.0102666
0.0485319
0.0245781
0.222978
0.0193496
0.0510102
0.157898
0.0170996
0.134373
0.0101075
0.0307448
0.00944336
0.1191
0.00944604
0.0378131
0.113153
0.0427411
0.0127209
0.242347
0.0100401
0.0110533
0.121256
0.295565
0.130034
0.00937985
0.0117256
0.00967378
0.0372376
0.135028
0.0118908
0.222211
0.0261954
0.00948013
0.0119488
0.11506
0.0126205
0.214196
0.0524675
0.0108919
0.00941265
0.185757
0.0106706
0.0185916
0.132934
0.0101214
0.010335
0.00932873
0.0118785
0.0367859
0.128766
0.00989942
0.0115425
0.233255
0.150659
0.113786
0.00978424
0.0442195
0.00993321
0.118332
0.00961504
0.181411
0.0145477
0.02053
0.00981248
0.00949298
0.0149757
0.012717
0.223743
0.180356
0.0111217
0.0136024
0.224277
0.1666
0.00989347
0.011286
0.0100275
0.0304612
0.0133344
0.00994599
0.00969095
0.0978817
0.0480896
0.0925847
0.0126513
0.0577936
0.19266
0.171238
0.00954456
0.0279521
0.0372434
0.0102035
0.0100928
0.243507
0.00987397
0.00957504
0.145333
0.197921
0.00967375
0.00940586
0.207737
0.295062
0.00948642
0.0344934
0.222595
0.0762243
0.00948856
0.00963753
0.00955452
0.0133694
0.010091
0.208822
0.164223
0.00946584
0.00957238
0.0299654
0.01083
0.115277
0.105818
0.116158
0.0111193
0.247722
0.0108232
0.0130899
0.0441507
0.100351
0.237326
0.00944796
0.00945822
0.0208662
0.0094103
0.0310031
0.0116015
0.150137
0.0975299
0.270674
0.0290426
0.01242
0.0340129
0.111697
0.049539
0.0214619
0.0120786
0.0435166
0.0106896
0.00970644
0.0314594
0.117511
0.233477
0.00990925
0.219726
0.0208487
0.0182672
0.0492315
0.223762
0.0124439
0.0952389
0.288606
0.227437
0.0144338
0.00946532
0.0161013
0.0155373
0.0509041
0.0292494
0.194339
0.161051
0.163543
0.00941351
0.0347061
0.0118793
0.027494
0.0280292
0.0145709
0.2505
0.0192458
0.227014
0.0100601
0.02881
0.199683
0.00947481
0.0367447
0.0154174
0.0490624
0.118551
0.235767
0.012081
0.142344
0.00951908
0.0095238
0.0177225
0.0864598
0.213119
0.0100088
0.155533
0.00989365
0.00988772
0.00950016
0.11449
0.0102366
0.00993623
0.0103043
0.0100313
0.213095
0.135762
0.00963542
0.0306631
0.0906059
0.00944287
0.0183581
0.0161646
0.0410066
0.160352
0.211854
0.131365
0.0101495
0.00979867
0.0193013
0.201052
0.161522
0.0115981
0.0203099
0.0812181
0.00945982
0.0102909
0.00998092
0.00981106
0.00944099
0.010562
0.0132698
0.0251432
0.0217839
0.022633
0.0728325
0.101807
0.00941308
0.0145651
0.15689
0.12021
0.00957799
0.129905
0.0115232
0.0379127
0.00986922
0.0116036
0.0236411
0.00945968
0.00963126
0.0100049
0.124472
0.154754
0.00956675
0.00937158
0.224748
0.0499927
0.0196284
0.00955398
0.0136921
0.304244
0.0281352
0.0135943
0.0608634
0.00948756
0.0231427
0.238621
0.0183295
0.222692
0.0481017
0.298088
0.0104787
0.0111543
0.00954791
0.21874
0.105499
0.0577585
0.0106625
0.12153
0.123804
0.0456879
0.00955082
0.18054
0.00935268
0.0115154
0.0869596
0.0892088
0.149289
0.00999474
0.00939916
0.0117984
0.0179168
0.0351157
0.0345126
0.0399617
0.190159
0.202483
0.165868
0.0437252
0.0094864
0.183346
0.331764
0.112701
0.214858
0.0106675
0.20786
0.00981488
0.00950177
0.0129327
0.0908322
0.00960895
0.175797
0.0850164
0.009427
0.0102281
0.0203939
0.00987943
0.00984609
0.212635
0.0158124
0.0104855
0.00961853
0.0472712
0.0106509
0.00944737
0.0335524
0.153167
0.203633
0.0292236
0.00948373
0.188005
0.0514369
0.0100722
0.155835
0.174653
0.0341985
0.109954
0.078458
0.307081
0.140705
0.178189
0.241229
0.170357
0.240425
0.0288971
0.0582298
0.00944231
0.273892
0.00958128
0.0155677
0.0115044
0.025962
0.0102169
0.182105
0.0103082
0.0102685
0.0436309
0.00946039
0.017798
0.337259
0.0195623
0.0517608
0.201627
0.186075
0.0137369
0.0394843
0.199437
0.0113012
0.0135591
0.00944926
0.00989188
0.124828
0.0206766
0.050995
0.0106179
0.0137505
0.0131556
0.00964779
0.0430424
0.0106309
0.0155519
0.0101933
0.0320508
0.0299295
0.0211424
0.0479191
0.00955013
0.0133737
0.110714
0.0131116
0.11591
0.168164
0.10951
0.0133681
0.0124914
0.0094157
0.0105536
0.0219761
0.0673478
0.0244238
0.260543
0.237932
0.133588
0.0988125
0.130969
0.010121
0.133992
0.0238941
0.214618
0.180563
0.00952742
0.111222
0.0101834
0.0180291
0.00963343
0.177066
0.132227
0.0177994
0.0114291
0.234785
0.0159606
0.100915
0.0318766
0.00952839
0.0114143
0.00951966
0.0337287
0.0366292
0.0467438
0.0967073
0.165519
0.133369
0.224095
0.0285614
0.00980606
0.0705951
0.10863
0.0439433
0.0124147
0.0103364
0.111793
0.0151033
0.208039
0.080151
0.0114929
0.129368
0.056415
0.0416356
0.0204867
0.0355973
0.0116385
0.0433229
0.034539
0.00985727
0.0261347
0.00993757
0.227574
0.246567
0.0196731
0.0353941
0.0114519
0.0321767
0.0365641
0.285619
0.0147349
0.0184457
0.0117434
0.0520175
0.150388
0.104422
0.128377
0.01873
0.0894442
0.0310997
0.226927
0.0200306
0.148038
0.0561379
0.00957617
0.110664
0.0112384
0.0103412
0.160227
0.218353
0.0216696
0.243844
0.0109704
0.00984351
0.0565582
0.0109084
0.0329223
0.021814
0.190418
0.0275251
0.0202363
0.00943316
0.310283
0.0101839
0.0163321
0.0549164
0.0159904
0.182979
0.00984905
0.182465
0.0109434
0.0197162
0.0122643
0.0166994
0.150581
0.213151
0.00953797
0.00953685
0.151927
0.0257886
0.176753
0.0201818
0.10048
0.238651
0.035516
0.0113355
0.0514646
0.00940677
0.0211294
0.0148213
0.192838
0.00938795
0.184511
0.0696734
0.00950543
0.00943513
0.0155837
0.225601
0.140354
0.00946786
0.00950321
0.0108992
0.012004
0.0104451
0.279542
0.0152636
0.01168
0.0150058
0.1147
0.0174396
0.00959005
0.0144092
0.00973675
0.0095041
0.106102
0.0112362
0.140457
0.0106315
0.0416112
0.0133376
0.0111679
0.00971966
0.00945852
0.159324
0.00946696
0.10989
0.206052
0.0170727
0.119696
0.0107597
0.28349
0.121809
0.136313
0.0529267
0.0159848
0.17274
0.203346
0.0134296
0.0385385
0.00952349
0.0330628
0.250541
0.0537772
0.158068
0.0240979
0.0104272
0.103884
0.0106564
0.0095891
0.0103335
0.00995661
0.00959343
0.0106186
0.00962525
0.0124719
0.13103
0.294539
0.0131776
0.274192
0.0246538
0.0211664
0.0605352
0.00943342
0.0178923
0.145283
0.00932865
0.142558
0.0417444
0.0978852
0.0154698
0.00944499
0.07113
0.0303083
0.143502
0.0177647
0.020454
0.051727
0.012008
0.288195
0.202656
0.00950432
0.018486
0.00973368
0.0330837
0.371635
0.00951574
0.0866913
0.0093728
0.0101907
0.182685
0.0112124
0.00986762
0.182638
0.125264
0.00944162
0.0357164
0.272843
0.0111485
0.110357
0.225759
0.0424288
0.0094596
0.00950437
0.0114917
0.00975303
0.012616
0.00943378
0.0260456
0.0287295
0.00958383
0.0120863
0.239595
0.157001
0.0183011
0.00973908
0.0245587
0.211435
0.197915
0.012149
0.152929
0.0118432
0.0098158
0.00941503
0.153239
0.059584
0.00948213
0.0201139
0.0110784
0.0133512
0.100928
0.171052
0.00966903
0.194471
0.0943883
0.204544
0.129839
0.00989553
0.00951441
0.0123215
0.0272772
0.0429244
0.0382957
0.00982335
0.0106274
0.128279
0.00938278
0.00993209
0.0102694
0.215168
0.020816
0.224891
0.0437836
0.137395
0.0104244
0.0129613
0.0112792
0.214409
0.0546132
0.0878316
0.283293
0.0110321
0.211047
0.107257
0.00964684
0.0102747
0.0094265
0.178353
0.0325441
0.117259
0.00948184
0.0102873
0.00988954
0.00955653
0.145515
0.0128264
0.0210576
0.00949614
0.00978827
0.00986223
0.0102572
0.00949165
0.259554
0.162894
0.0254296
0.00939905
0.0118508
0.138019
0.00954038
0.0990379
0.0195812
0.0140992
0.0524291
0.0750953
0.105436
0.270995
0.0110684
0.0137977
0.105187
0.020125
0.314059
0.0106007
0.00944607
0.240582
0.0236728
0.0195084
0.00999472
0.125664
0.248985
0.192482
0.0862247
0.0972116
0.220506
0.165609
0.26702
0.0499973
0.00992838
0.012512
0.0102543
0.0179572
0.235076
0.0108925
0.0199397
0.258331
0.30757
0.212163
0.0419004
0.150136
0.0104869
0.0123815
0.00945197
0.0113532
0.140882
0.0521234
0.0109319
0.0096002
0.0120273
0.0103098
0.00961767
0.116684
0.0301582
0.0115719
0.010007
0.388228
0.0198862
0.0314921
0.0185707
0.0248067
0.00946814
0.107427
0.190804
0.278026
0.0408628
0.00942622
0.0094447
0.0106329
0.100132
0.0306032
0.122147
0.0343954
0.00983555
0.150404
0.104641
0.00957179
0.0114048
0.0107205
0.0101412
0.0471779
0.0797291
0.0119156
0.0329056
0.0196999
0.013111
0.0143548
0.0096207
0.0605214
0.0131987
0.269199
0.188071
0.272807
0.0458541
0.0219346
0.0366213
0.140974
0.0125122
0.120163
0.105632
0.275423
0.0210473
0.00950338
0.00994816
0.231253
0.118208
0.123149
0.237201
0.119877
0.00950117
0.00948539
0.198226
0.162317
0.102652
0.00949819
0.00944504
0.0123363
0.0413352
0.0112622
0.0127202
0.0397591
0.175439
0.00935671
0.0133187
0.0128834
0.020007
0.0117413
0.00970266
0.0614528
0.0194115
0.0792149
0.0096896
0.00993989
0.00960225
0.242371
0.0096224
0.242209
0.0106446
0.0110871
0.00993592
0.0101156
0.126703
0.237299
0.119809
0.00959055
0.00949313
0.0166428
0.00986714
0.204866
0.0436931
0.0101294
0.0095142
0.0273997
0.150875
0.0171689
0.0273317
0.00989873
0.00967771
0.00976279
0.00951257
0.0117706
0.0125369
0.0427177
0.00981779
0.00974054
0.0116808
0.0457189
0.168629
0.247084
0.0628534
0.0316807
0.00947057
0.00951907
0.184231
0.0251377
0.0140248
0.0157044
0.0424471
0.010329
0.0124329
0.014725
0.0093847
0.0310558
0.0147618
0.125127
0.0235605
0.0126762
0.241271
0.0197299
0.0112654
0.0137151
0.0104465
0.00948505
0.221237
0.00992962
0.0538485
0.00961527
0.0680727
0.00969115
0.0192743
0.0440722
0.0205241
0.244006
0.0201384
0.139315
0.165294
0.0129884
0.174317
0.00960827
0.0104065
0.00953163
0.139665
0.0354811
0.245618
0.0147473
0.181623
0.0454808
0.0105725
0.0101423
0.00957716
0.0114617
0.0107365
0.00948562
0.0105825
0.0102115
0.0104236
0.140201
0.0376193
0.00944267
0.00940975
0.0955155
0.0115791
0.00984206
0.0096411
0.21245
0.0132873
0.204155
0.0094655
0.207697
0.163695
0.0250574
0.0153369
0.0130067
0.0251405
0.190259
0.00984413
0.200673
0.191981
0.0115529
0.115256
0.049627
0.0160307
0.0104574
0.23961
0.100587
0.180501
0.00957842
0.00994654
0.0900926
0.0111669
0.0460986
0.10139
0.00950848
0.157704
0.0143379
0.010669
0.00972581
0.0110276
0.00956496
0.00957852
0.0180781
0.00938068
0.0119532
0.00955857
0.0288185
0.0369005
0.00944735
0.0533777
0.0109155
0.0120961
0.0102588
0.011502
0.00957701
0.013029
0.138039
0.0104138
0.00947651
0.10542
0.0208035
0.00943466
0.206822
0.0102763
0.00968941
0.0433868
0.0185344
0.118903
0.0268195
0.00957808
0.0110946
0.0399375
0.111581
0.104577
0.0173983
0.14755
0.167033
0.202372
0.0140683
0.00966853
0.00949801
0.0145791
0.0119977
0.0124609
0.0945902
0.0278323
0.00953991
0.0094615
0.0094463
0.00954168
0.209831
0.313108
0.263889
0.0821512
0.0102644
0.00958024
0.00941765
0.0454774
0.010748
0.0100596
0.262339
0.00949001
0.0101802
0.00957746
0.00950342
0.0769567
0.107449
0.0215608
0.128322
0.0107235
0.0121385
0.0342882
0.0108471
0.046303
0.0919537
0.0364558
0.00942332
0.0474804
0.0185892
0.00958321
0.0193059
0.14734
0.0098211
0.00944581
0.108095
0.152824
0.0445846
0.118696
0.00956224
0.0187544
0.120907
0.00955912
0.00943309
0.00987109
0.0175134
0.00997376
0.0104358
0.0100678
0.0134736
0.0493348
0.0117665
0.0752312
0.0711942
0.109483
0.00959776
0.0243144
0.00989274
0.0142131
0.0434317
0.0343997
0.235982
0.0337903
0.235185
0.0460331
0.0125048
0.0120285
0.00985714
0.0113348
0.18367
0.135635
0.00992092
0.0636356
0.0954202
0.0177078
0.132781
0.00954349
0.0148696
0.0107127
0.0223839
0.0101122
0.021841
0.010294
0.173886
0.00963121
0.182917
0.179589
0.0864039
0.0152972
0.0200213
0.00943517
0.164296
0.00951189
0.0115586
0.0315599
0.0528014
0.0488919
0.176303
0.109417
0.142975
0.0864766
0.0094056
0.120431
0.0108407
0.0976835
0.262343
0.0421121
0.139983
0.28648
0.237051
0.0127356
0.0227653
0.00966675
0.0900702
0.0094169
0.169966
0.0257006
0.109246
0.0111536
0.0101629
0.23284
0.0146007
0.0102224
0.010278
0.0132167
0.0172873
0.00969525
0.0103989
0.0097719
0.0136503
0.149169
0.0517927
0.120906
0.0111415
0.206268
0.0473782
0.011048
0.0633311
0.0319381
0.310538
0.0206328
0.0278376
0.00948601
0.0150491
0.00995929
0.0135506
0.00987891
0.0171084
0.00936786
0.108137
0.111375
0.0111175
0.010018
0.0132078
0.0116563
0.00993212
0.0106875
0.0123484
0.174136
0.0116546
0.00951326
0.19301
0.0195483
0.171418
0.0150239
0.0803742
0.170443
0.011089
0.152226
0.152374
0.238951
0.197928
0.164594
0.00974047
0.0180332
0.009443
0.0166343
0.0925709
0.0100478
0.0094214
0.0100102
0.238554
0.0133714
0.0297107
0.0244099
0.0106446
0.214102
0.193553
0.0131815
0.164011
0.00950105
0.138511
0.0166684
0.0781545
0.009443
0.00947337
0.0103606
0.156627
0.229218
0.165136
0.0109019
0.0955854
0.311336
0.0223082
0.0467016
0.198458
0.0372707
0.112224
0.0176718
0.0125393
0.00955753
0.0106798
0.298237
0.0271063
0.261242
0.00941259
0.0110908
0.0207609
0.0103514
0.0439962
0.0275045
0.234707
0.0121244
0.033548
0.00952396
0.00941497
0.107486
0.266488
0.00971522
0.010273
0.00954203
0.086864
0.0133104
0.222979
0.143054
0.137808
0.00973194
0.203332
0.0250295
0.270039
0.123517
0.0122668
0.120353
0.180517
0.167239
0.0116121
0.0105288
0.009559
0.115134
0.0139922
0.00999715
0.0258247
0.0205795
0.0107899
0.00957795
0.00960623
0.245689
0.0108203
0.0211258
0.0804243
0.156584
0.00952324
0.00961826
0.0360522
0.011095
0.294981
0.0264049
0.0174834
0.236921
0.0106155
0.00998679
0.0128268
0.111595
0.00953315
0.114874
0.00938634
0.104692
0.276423
0.0095069
0.0101188
0.0899437
0.0117605
0.00989879
0.0097612
0.00960131
0.0959595
0.183795
0.00971115
0.0120894
0.0133704
0.0101326
0.107405
0.0137137
0.0998893
0.091383
0.0104504
0.00955028
0.0338738
0.01078
0.0193266
0.15706
0.1144
0.00948115
0.0106571
0.125951
0.182968
0.053498
0.0122463
0.0124525
0.234855
0.051881
0.0102493
0.00964323
0.0102641
0.0115951
0.025234
0.00947801
0.0123279
0.00976576
0.0496966
0.190106
0.264515
0.0182721
0.037297
0.0109911
0.0105141
0.00965878
0.0100433
0.00952413
0.0100732
0.011244
0.00967641
0.0312744
0.0102822
0.0102348
0.0372215
0.00997847
0.0457467
0.185848
0.0200215
0.0138257
0.0154818
0.0202998
0.0171138
0.0406346
0.134234
0.0129418
0.010327
0.0117396
0.021129
0.185374
0.00998482
0.0310745
0.200022
0.0133054
0.174489
0.0229741
0.0114862
0.0128422
0.0152151
0.0267135
0.150708
0.238828
0.139638
0.0093743
0.13532
0.0107025
0.0100378
0.152369
0.00939485
0.0364303
0.00937761
0.020044
0.0194306
0.0687086
0.00934817
0.00960996
0.253612
0.0101533
0.145679
0.271338
0.0127518
0.0928259
0.00989444
0.00991949
0.00945994
0.0345206
0.0508618
0.01288
0.0101216
0.0132089
0.12352
0.192876
0.0181887
0.0113278
0.0244728
0.00944819
0.0534431
0.0354275
0.0107616
0.00991171
0.0103835
0.0423503
0.0261664
0.0463478
0.0164409
0.0123277
0.0249465
0.0327741
0.159786
0.0115922
0.014004
0.0112314
0.00971396
0.0130561
0.00944925
0.150384
0.0204923
0.0747905
0.123771
0.0111004
0.0645488
0.00945416
0.00969808
0.0140849
0.225271
0.0399988
0.0110462
0.0096508
0.11126
0.00998597
0.0554363
0.0175444
0.0614875
0.0276979
0.0116763
0.0104206
0.265302
0.0135782
0.0100112
0.0101565
0.0417112
0.0118068
0.0104596
0.168911
0.00943813
0.143658
0.0133434
0.00964631
0.00998068
0.0206663
0.0411307
0.0698851
0.113928
0.173338
0.00974454
0.00981017
0.155044
0.133599
0.0129284
0.0137795
0.111899
0.029981
0.0140712
0.0137545
0.0122279
0.295442
0.0111695
0.0345386
0.145687
0.00985039
0.108939
0.0505527
0.230889
0.138171
0.0509191
0.11323
0.0174311
0.106714
0.020669
0.16694
0.232134
0.0188852
0.243525
0.097646
0.0126883
0.186273
0.0117589
0.107688
0.0798503
0.0985845
0.00960641
0.191087
0.18669
0.0143161
0.0109781
0.0169769
0.126878
0.0133173
0.0521312
0.0188487
0.0879836
0.037543
0.00940452
0.0404258
0.00962995
0.012104
0.0168718
0.009845
0.276666
0.017473
0.0243589
0.0113973
0.20576
0.0232625
0.333656
0.0410275
0.043173
0.00971174
0.0102896
0.0293039
0.0114362
0.0187497
0.00937363
0.0102304
0.0531959
0.00945335
0.0824202
0.0105206
0.0144319
0.100189
0.012385
0.0836702
0.009777
0.0110724
0.0921948
0.0156788
0.0201427
0.28448
0.0103529
0.223341
0.145895
0.0269687
0.0107886
0.013543
0.131362
0.00971955
0.0102947
0.0370532
0.101575
0.0472524
0.193587
0.0120222
0.044981
0.0143805
0.039178
0.00952163
0.0122224
0.161191
0.0136906
0.00952858
0.0431
0.345481
0.0868277
0.0125083
0.109806
0.048107
0.0927402
0.0127639
0.045791
0.11388
0.115969
0.009573
0.225752
0.0108405
0.199611
0.00985233
0.0346474
0.0108611
0.161586
0.0122248
0.00960828
0.0100303
0.00962685
0.0317699
0.24867
0.24366
0.0279539
0.352584
0.0103756
0.169584
0.00958621
0.0123431
0.0184506
0.0100589
0.210621
0.0911626
0.107175
0.0116175
0.183426
0.0117512
0.0452395
0.0138406
0.0961719
0.158094
0.191547
0.0107215
0.10291
0.0102562
0.0196182
0.0182643
0.115738
0.114418
0.0248492
0.0302995
0.124103
0.00953884
0.0102955
0.0592626
0.0396707
0.0123224
0.0106
0.00994286
0.00958668
0.00967307
0.0308714
0.0608649
0.00969561
0.349211
0.18999
0.0159264
0.0111315
0.0094569
0.20871
0.127685
0.00945859
0.0395381
0.0093794
0.161554
0.00944577
0.00957575
0.0103609
0.103316
0.0547828
0.216584
0.232114
0.0233973
0.276773
0.0167884
0.0949465
0.0182753
0.0146398
0.0101077
0.196107
0.329105
0.0101142
0.0159674
0.18621
0.0104394
0.0102415
0.1645
0.240488
0.263848
0.154325
0.0670633
0.268379
0.04312
0.00945091
0.170278
0.231276
0.022293
0.0112391
0.00972007
0.0114805
0.0345892
0.315128
0.00954582
0.155506
0.00990193
0.147275
0.0322655
0.0174063
0.0348305
0.0232728
0.190127
0.00965866
0.00990906
0.00945144
0.253915
0.0218694
0.115113
0.0326731
0.0748958
0.182437
0.0268094
0.0244204
0.0224163
0.0651755
0.0129404
0.12905
0.194033
0.129759
0.0179282
0.0262727
0.0180452
0.197087
0.022582
0.206405
0.286352
0.0136666
0.00975308
0.117727
0.143406
0.0464679
0.00976366
0.0213455
0.0105494
0.0184025
0.01429
0.0108269
0.0119959
0.00942731
0.107647
0.232909
0.0174699
0.00948047
0.00957924
0.0357958
0.280471
0.0468479
0.0099454
0.110288
0.0382334
0.0237466
0.0302047
0.00971389
0.0113229
0.00943802
0.213064
0.0145968
0.00989148
0.0108338
0.00978932
0.0192847
0.122654
0.00977703
0.034624
0.235274
0.00949824
0.00956129
0.0256606
0.052961
0.0112288
0.00992485
0.0134594
0.00945818
0.0206496
0.0421075
0.157749
0.114104
0.0102183
0.0152228
0.00952454
0.0150372
0.14983
0.167408
0.152981
0.22388
0.0915486
0.210443
0.0101937
0.236797
0.0159845
0.0559707
0.00953378
0.164507
0.0108713
0.132703
0.0103631
0.330593
0.127428
0.114635
0.00963596
0.0096289
0.0580856
0.0450927
0.245307
0.239728
0.00952845
0.0160968
0.0167327
0.00957273
0.0095385
0.0114805
0.011299
0.0100745
0.0413073
0.0211503
0.0869211
0.104385
0.23646
0.0095109
0.0935641
0.226988
0.00960551
0.103631
0.0102469
0.197181
0.0116585
0.00971312
0.0218875
0.0325106
0.01021
0.0137293
0.243131
0.010911
0.0096508
0.147727
0.150579
0.0124134
0.0190419
0.283858
0.0743082
0.0100418
0.00943342
0.0246523
0.010443
0.0220725
0.021664
0.00945223
0.00948024
0.0414844
0.0128463
0.0297025
0.0416581
0.0109736
0.019384
0.271168
0.00941968
0.0201189
0.262895
0.0112812
0.0774168
0.0130221
0.273601
0.0114372
0.0292804
0.0158246
0.0132558
0.0120538
0.129147
0.0116714
0.031424
0.022049
0.255742
0.0117482
0.0435317
0.00954923
0.0172732
0.132602
0.1844
0.0144162
0.167171
0.0932189
0.0249514
0.177612
0.231121
0.0413844
0.00964966
0.0149127
0.00969481
0.252549
0.185283
0.221603
0.00989246
0.15483
0.0234565
0.00939418
0.0443918
0.00944984
0.0103451
0.00985181
0.207306
0.0115403
0.0181187
0.253528
0.0294874
0.316831
0.0113295
0.0163524
0.192633
0.276734
0.0109564
0.263864
0.00940116
0.0414084
0.189245
0.00991291
0.0738353
0.0609049
0.0245116
0.0132333
0.0238863
0.0099906
0.0207373
0.00984343
0.0092761
0.0196975
0.282895
0.240864
0.124344
0.0794086
0.0110665
0.0494785
0.0118159
0.157172
0.0142307
0.148025