/*--------------------------------*- C++ -*----------------------------------*\
| =========                 |                                                 |
| \\      /  F ield         | OpenFOAM: The Open Source CFD Toolbox           |
|  \\    /   O peration     | Version:  2406                                  |
|   \\  /    A nd           | Website:  www.openfoam.com                      |
|    \\/     M anipulation  |                                                 |
\*---------------------------------------------------------------------------*/
FoamFile
{
    version     2.0;
    format      ascii;
    arch        "LSB;label=32;scalar=64";
    class       volScalarField;
    location    "6";
    object      k;
}
// * * * * * * * * * * * * * * * * * * * * * * * * * * * * * * * * * * * * * //

dimensions      [0 2 -2 0 0 0 0];

internalField   nonuniform List<scalar> 
59516
(
0.00936303
0.00967132
0.00934648
0.0096226
0.00967795
0.0183361
0.00940842
0.00930728
0.0093836
0.0115565
0.00964506
0.00996699
0.00914334
0.0175664
0.0103531
0.0104835
0.00961529
0.00998206
0.00924182
0.00942031
0.0113612
0.00944455
0.00940569
0.0128709
0.00952668
0.0100311
0.0120881
0.0121033
0.010075
0.0143435
0.00982734
0.01224
0.00949859
0.00956033
0.00958352
0.00935629
0.0154086
0.0097161
0.00930373
0.00953651
0.00909427
0.00953386
0.00951602
0.00959209
0.00948231
0.0110428
0.00932951
0.00960394
0.00982272
0.00960866
0.00997499
0.0113119
0.00921404
0.00929709
0.0118897
0.00935261
0.00959955
0.0127381
0.00964002
0.00954335
0.00961111
0.0155062
0.00958511
0.00952786
0.00951319
0.00955793
0.0173868
0.0120982
0.00958494
0.00947591
0.0133729
0.00958844
0.0149507
0.00949788
0.0096472
0.00955834
0.00965275
0.00947595
0.0115744
0.00967308
0.0127628
0.00963129
0.0095321
0.0156276
0.00961599
0.00951763
0.0120963
0.00927776
0.0106617
0.00933199
0.00959375
0.00951894
0.00953407
0.00958601
0.00961239
0.00979817
0.00961974
0.0104831
0.00998735
0.0095045
0.0124545
0.0137355
0.014399
0.0101667
0.0095113
0.00960017
0.0129147
0.00947369
0.00930118
0.0101015
0.00946088
0.0137925
0.0103343
0.00930094
0.00958323
0.00930644
0.0104876
0.00960124
0.0145447
0.00959271
0.00957241
0.00970683
0.00964384
0.00964096
0.00953181
0.00939455
0.0144436
0.00954901
0.0123743
0.00961182
0.00966598
0.00924915
0.0133673
0.00938309
0.00920705
0.0092998
0.00943738
0.00919515
0.0119813
0.0095305
0.012168
0.00962496
0.0138452
0.00955902
0.00959948
0.00939952
0.0094527
0.00934549
0.0199098
0.00918115
0.00921625
0.011714
0.00949678
0.00954162
0.00926954
0.0130132
0.00939625
0.00920804
0.00917195
0.0139423
0.00995303
0.00989316
0.0130506
0.0148284
0.00926448
0.00955349
0.010497
0.00953656
0.0134597
0.00958659
0.00927124
0.0102423
0.00945272
0.00954617
0.0106264
0.00933429
0.00961956
0.00954436
0.0100316
0.0116407
0.00951398
0.0135913
0.0166538
0.00974936
0.00962014
0.0101677
0.0115373
0.0149822
0.00938549
0.00947193
0.00963329
0.0103602
0.00953854
0.00949509
0.00940322
0.0121943
0.0102535
0.0116049
0.00952671
0.00940598
0.00983348
0.00965297
0.00919091
0.0144057
0.00958261
0.0094567
0.00951452
0.00964967
0.0146947
0.00940803
0.0115264
0.0142309
0.00951785
0.0106593
0.00930729
0.00960025
0.00938447
0.00953379
0.0106757
0.00954594
0.0106555
0.0094123
0.00968294
0.0120846
0.00963809
0.00956425
0.0135234
0.0116057
0.00961653
0.0105295
0.00955801
0.00964354
0.00963489
0.0135405
0.0127654
0.0112568
0.00970149
0.00925459
0.00948923
0.0110791
0.00964493
0.0148267
0.0102914
0.014144
0.00965224
0.00927935
0.0095447
0.0100758
0.00951768
0.00923309
0.00959257
0.00951885
0.00967606
0.00948206
0.00949922
0.00951209
0.0104897
0.00951007
0.0115802
0.0103386
0.00948654
0.00962936
0.00941374
0.00955634
0.00956521
0.0103157
0.00956598
0.00947297
0.0118469
0.0101785
0.00960633
0.00964154
0.00914216
0.00961423
0.00961879
0.00914416
0.0129009
0.00954298
0.0135185
0.0118754
0.0095872
0.00948098
0.0138337
0.00936465
0.00934915
0.00972043
0.00963923
0.0153106
0.00962049
0.00968375
0.00959837
0.00944903
0.00957698
0.00916985
0.00952699
0.0135095
0.00954855
0.009529
0.00960359
0.00957006
0.0092845
0.010311
0.014388
0.0123157
0.00950669
0.0149102
0.0105858
0.0109872
0.00956267
0.00949932
0.009399
0.0100981
0.00925711
0.012529
0.0105781
0.00961508
0.00937236
0.00978238
0.00945356
0.0116309
0.0104247
0.0093812
0.00969942
0.00959274
0.00964806
0.00960528
0.00954648
0.00942009
0.00956827
0.00960587
0.00958716
0.00993364
0.0133923
0.00955718
0.011081
0.0120806
0.00951376
0.00960385
0.00993441
0.0095772
0.00966242
0.00962213
0.0096159
0.0118107
0.00949294
0.00963862
0.0105398
0.00959998
0.00964958
0.00950945
0.00939605
0.00953224
0.00956161
0.00996721
0.0137183
0.0124497
0.00918175
0.00996452
0.0129224
0.00957617
0.00941397
0.00932893
0.00967569
0.00944832
0.00934645
0.00957254
0.0096213
0.0116714
0.00964701
0.0105376
0.0119517
0.0123781
0.00966569
0.00935105
0.00954352
0.0137178
0.00948242
0.01207
0.0096879
0.0102558
0.0100682
0.00924063
0.00968862
0.0140634
0.0105308
0.00951384
0.0128809
0.00949199
0.00950923
0.00945051
0.00967248
0.00980797
0.00959799
0.0103098
0.00964973
0.00933928
0.0101967
0.0104987
0.00958344
0.00955343
0.0100155
0.00930962
0.00943415
0.00956291
0.00956904
0.0117414
0.00947606
0.00941646
0.00949947
0.00954027
0.0165212
0.0136603
0.00944925
0.00961529
0.00965142
0.0122452
0.00975781
0.008991
0.00970262
0.00957934
0.00956104
0.00966576
0.00965321
0.00924454
0.0096752
0.00973483
0.00957611
0.00935427
0.00958816
0.00962455
0.00943817
0.00947368
0.0115117
0.0128104
0.0134141
0.00965687
0.00955456
0.00944648
0.0095105
0.0126813
0.0140025
0.00945371
0.00952563
0.00959432
0.0095041
0.00941904
0.00954419
0.00937278
0.0133449
0.0094702
0.0103746
0.0135455
0.00959908
0.00951782
0.00950206
0.0152109
0.00966025
0.00953643
0.00967511
0.0092581
0.00964945
0.00962008
0.00939946
0.00963899
0.00948373
0.00962223
0.00947274
0.0144211
0.00966184
0.00938079
0.011536
0.00922927
0.00949476
0.00934468
0.00941842
0.0140433
0.00968799
0.00934849
0.00958834
0.00944751
0.0121952
0.00946151
0.0136351
0.00964888
0.00990646
0.00965088
0.0114844
0.009473
0.00935883
0.0112127
0.00961016
0.00967531
0.0145955
0.00957636
0.00966713
0.0120222
0.00994953
0.0103077
0.00955964
0.00962522
0.0164303
0.0103993
0.0102229
0.00936782
0.00961621
0.0135435
0.00946932
0.00956125
0.00963094
0.0142265
0.00949048
0.0137838
0.00949862
0.0140881
0.00975966
0.00963599
0.0100735
0.0134088
0.0123947
0.0111773
0.0104382
0.0094217
0.0108384
0.010172
0.00963558
0.00965192
0.0140783
0.0090826
0.0100799
0.00965384
0.0100836
0.00968797
0.0110141
0.00951044
0.00976875
0.0112904
0.00961697
0.0113976
0.0143298
0.00945012
0.00968232
0.00950312
0.00951135
0.00954035
0.0107218
0.00954038
0.00997112
0.00976666
0.00936482
0.0135552
0.00940755
0.0117797
0.0137169
0.0094592
0.0114478
0.00949655
0.00967217
0.00926987
0.0106751
0.00958088
0.0093771
0.00958717
0.00962626
0.00963641
0.00972476
0.011959
0.0106764
0.00962206
0.00957109
0.0133127
0.00961146
0.00954372
0.00953776
0.0095733
0.00923025
0.0130479
0.00956961
0.00956508
0.00959475
0.009188
0.0134616
0.00969957
0.00961336
0.00951348
0.00957567
0.00958621
0.013709
0.013228
0.00962394
0.00965773
0.00965909
0.00967159
0.0093525
0.0096048
0.00960543
0.0129318
0.00965462
0.00954651
0.0117377
0.00993157
0.00947932
0.00962249
0.00945094
0.00949415
0.00936508
0.00951199
0.00959934
0.00958984
0.00960998
0.00959998
0.00962968
0.012271
0.00948389
0.0127555
0.0117042
0.00997761
0.00964447
0.00954026
0.0092567
0.00965814
0.00958623
0.00942631
0.00958279
0.0118307
0.00999914
0.00979381
0.00960242
0.00960649
0.00953685
0.00969363
0.00928445
0.0117837
0.00998018
0.0134681
0.0146496
0.0136426
0.00940752
0.0095172
0.0146523
0.0140738
0.00964123
0.0108016
0.0126574
0.00954919
0.00936494
0.0094802
0.012655
0.0102564
0.00939752
0.00960315
0.00946596
0.0134971
0.0142019
0.0108254
0.0143816
0.00937332
0.0140626
0.00961894
0.00965763
0.00948813
0.0117381
0.00927697
0.0117817
0.0141827
0.00961469
0.014134
0.00959265
0.0117997
0.00952477
0.0095112
0.014081
0.0101542
0.00956304
0.0120402
0.00960083
0.0105395
0.00927861
0.0096006
0.012364
0.0140696
0.0114749
0.00976128
0.00939198
0.0104652
0.0087626
0.0122477
0.0095976
0.01476
0.00952035
0.00953809
0.00966535
0.0139695
0.00940439
0.00906587
0.00943349
0.0109396
0.00987658
0.00951982
0.0121502
0.00959545
0.00988252
0.00942267
0.012289
0.0112515
0.00962717
0.00947374
0.0134038
0.00926688
0.0102601
0.0134824
0.00959978
0.0099078
0.0093047
0.00959876
0.00962236
0.00952029
0.00939837
0.0111822
0.0122289
0.00962276
0.00992495
0.00945187
0.00938504
0.00946292
0.00942852
0.00962821
0.00958271
0.00913368
0.013395
0.00967178
0.0133638
0.00955107
0.00954458
0.00921875
0.00916017
0.0144206
0.00955812
0.0105715
0.00962887
0.00959306
0.00992692
0.00955822
0.00933929
0.00995996
0.00943756
0.0157745
0.00959745
0.0106546
0.00956361
0.0141474
0.00967812
0.00996453
0.00958631
0.00926884
0.00962635
0.00948852
0.00961533
0.0122756
0.0111073
0.0125196
0.00966959
0.00952218
0.00959164
0.00945577
0.0154447
0.00956277
0.00979776
0.00964326
0.00946924
0.00958665
0.00962004
0.00967969
0.0134304
0.00947648
0.00967769
0.0127495
0.0114106
0.010125
0.013047
0.00970361
0.00963526
0.00963538
0.01442
0.00936785
0.013434
0.00905857
0.00955914
0.0095845
0.0096029
0.00959561
0.00958429
0.00919538
0.0115174
0.00963892
0.00945204
0.00933778
0.00937709
0.00954071
0.00921941
0.00984812
0.00952118
0.0121323
0.00936351
0.00933829
0.0101001
0.00957781
0.00992128
0.00936202
0.0126458
0.0147375
0.0100221
0.0148246
0.0094324
0.00965298
0.00953466
0.00936377
0.00957985
0.00966059
0.0164694
0.00966945
0.00958856
0.0111402
0.0151118
0.00948031
0.00918923
0.0133635
0.00958623
0.0143668
0.00961905
0.00952852
0.00953822
0.00957789
0.00951574
0.00937816
0.00962815
0.0162422
0.012189
0.00929438
0.00956744
0.0148751
0.00956757
0.00950108
0.00950547
0.00963767
0.00958974
0.00955033
0.00959691
0.00956493
0.0117154
0.00959042
0.00922027
0.0125332
0.00954572
0.00972411
0.00963173
0.00938388
0.00932089
0.00923576
0.00930334
0.00964074
0.00928997
0.00938534
0.00980281
0.00975108
0.00958025
0.00984716
0.00943954
0.009426
0.00939021
0.0130114
0.0107025
0.00932988
0.00945705
0.00941265
0.00960423
0.00946195
0.00955361
0.00948404
0.0186126
0.00942
0.00955422
0.0155788
0.00950469
0.00959643
0.012509
0.00955815
0.00965037
0.0092222
0.009583
0.00963704
0.00956436
0.0100408
0.0099376
0.0120661
0.00907501
0.00962319
0.0134463
0.0101491
0.0103276
0.00939812
0.0113039
0.00952268
0.00953662
0.00966413
0.00961774
0.00953351
0.0115895
0.00951617
0.00953729
0.00935833
0.00971138
0.009582
0.00968381
0.0096167
0.0128776
0.00964099
0.00937897
0.00972923
0.0132331
0.010007
0.00924939
0.00958948
0.0108689
0.00957286
0.00961771
0.00962803
0.00961278
0.00962368
0.00956506
0.0095196
0.00956988
0.00989596
0.00941169
0.00931199
0.0123398
0.0108851
0.00958245
0.00944568
0.0133794
0.00954335
0.00945926
0.00966128
0.009668
0.00966024
0.00964828
0.00941459
0.00960739
0.0153813
0.00945403
0.00964219
0.0104106
0.00969374
0.0117719
0.00959009
0.00974134
0.00980096
0.0120696
0.00972006
0.0097096
0.0095114
0.0118893
0.00971317
0.0124355
0.00922853
0.00952833
0.00979622
0.00933377
0.00960425
0.0103295
0.00955273
0.00962248
0.00940211
0.00958656
0.00958574
0.00930992
0.00949108
0.00955294
0.0102542
0.00960514
0.011199
0.0124578
0.00981507
0.00963238
0.0135947
0.00959282
0.0093999
0.00907874
0.00968732
0.016047
0.00952542
0.00959992
0.0094601
0.0146025
0.0117421
0.00975841
0.0114488
0.00943252
0.00941402
0.00933447
0.0151912
0.00920631
0.00964845
0.00965687
0.00969377
0.00962187
0.00950138
0.00956685
0.00957624
0.00929905
0.00955814
0.0125439
0.00945335
0.0096216
0.00964556
0.00981629
0.00958563
0.00921117
0.00932328
0.0136774
0.00959799
0.00965478
0.0123583
0.00958727
0.0119833
0.00959484
0.00914095
0.00957151
0.0115807
0.00963733
0.00947189
0.0105145
0.00929539
0.00952548
0.0144615
0.00954415
0.00948217
0.00991812
0.0155078
0.0117363
0.00957245
0.00955323
0.00970748
0.0094378
0.0103926
0.00967241
0.0124379
0.00957568
0.00962182
0.0095079
0.0105738
0.0094384
0.0145855
0.00950741
0.00959054
0.00958324
0.0128633
0.00952709
0.00925282
0.0130033
0.00956956
0.00960072
0.00952713
0.0096778
0.00936591
0.0130315
0.00956455
0.00946382
0.0149829
0.0117583
0.0111483
0.00954101
0.0095318
0.00955492
0.010236
0.00963292
0.0133644
0.00947179
0.0093758
0.00948162
0.00962421
0.00941662
0.00961258
0.0128664
0.0124767
0.00965886
0.009541
0.0146231
0.0138263
0.00957756
0.00945058
0.00954571
0.00935192
0.00947106
0.00945215
0.00963497
0.0104199
0.00980187
0.0101221
0.00943853
0.00937669
0.0129468
0.0140908
0.00958526
0.00936392
0.00928484
0.00963509
0.00955172
0.0132386
0.00950493
0.00961699
0.0120973
0.0140748
0.00964445
0.00954903
0.0128667
0.0141659
0.00958451
0.00946374
0.0145365
0.00938826
0.00959735
0.00956061
0.00960783
0.00941902
0.00953496
0.0131368
0.0116349
0.00959676
0.00959521
0.00945706
0.00967599
0.0100984
0.0103788
0.0112838
0.00951632
0.0146149
0.00946496
0.00934048
0.00923411
0.010905
0.0146544
0.00961224
0.00960624
0.00941794
0.00950121
0.00947212
0.00941284
0.0127616
0.0110203
0.0174093
0.00928029
0.00947395
0.00906511
0.00999243
0.00963888
0.00932805
0.00955682
0.00899718
0.00961138
0.00955427
0.0093861
0.0105405
0.0158959
0.00964393
0.013076
0.00942575
0.00934175
0.00951568
0.0137169
0.00944256
0.0102899
0.0143198
0.0130468
0.00953765
0.00958534
0.00945923
0.00959693
0.00940441
0.00933322
0.0126952
0.011485
0.0133662
0.00956665
0.00910418
0.00946554
0.00953973
0.00943769
0.0095269
0.0165206
0.00949887
0.0138785
0.00959064
0.0093318
0.0135954
0.00962396
0.00954982
0.00945754
0.00950187
0.00949392
0.0126888
0.0094251
0.0123875
0.00964426
0.00969145
0.00959609
0.00953274
0.0127001
0.00954092
0.0127039
0.0095981
0.00956847
0.00955425
0.0112659
0.00955691
0.00962734
0.00957515
0.00954869
0.0121419
0.0120115
0.00954156
0.0090842
0.0103858
0.00960774
0.00938515
0.00953791
0.00937724
0.0139139
0.0134914
0.0106327
0.0095335
0.00956922
0.00949117
0.0129479
0.0117314
0.00953278
0.00963103
0.0101479
0.00963115
0.00956582
0.00956334
0.0096354
0.00958835
0.00959892
0.00943468
0.00959625
0.00930962
0.00932853
0.00949293
0.00996547
0.00958606
0.00957085
0.0120062
0.010473
0.00960641
0.0103548
0.00957294
0.00929054
0.0095883
0.00956393
0.00938909
0.00955247
0.00952708
0.00957446
0.0114315
0.0135966
0.00960434
0.00955198
0.0143951
0.00944501
0.00945961
0.00961978
0.00947936
0.0152587
0.0095159
0.009532
0.00942237
0.00951865
0.00933449
0.0145645
0.00933594
0.015162
0.00894738
0.0148679
0.00950031
0.00951488
0.00960701
0.0131478
0.0106438
0.00916082
0.00949516
0.0102294
0.0105856
0.00944099
0.00967825
0.0130485
0.00952949
0.00940956
0.0103234
0.010047
0.013605
0.00952366
0.00953125
0.00951232
0.00946546
0.00935116
0.00910586
0.00929858
0.0137073
0.0124443
0.0131277
0.00950334
0.00964289
0.01191
0.0151025
0.0101833
0.0141067
0.00964156
0.015118
0.00953024
0.00967071
0.0094988
0.0104253
0.00967532
0.012007
0.0103663
0.009578
0.00953944
0.00928656
0.00988544
0.00970302
0.0134292
0.0094672
0.00969962
0.00971809
0.00946835
0.00955792
0.00955371
0.00946412
0.0112313
0.0124363
0.00940478
0.00961552
0.0123787
0.00971799
0.00947477
0.0119163
0.0141551
0.00938819
0.0100667
0.0100591
0.01626
0.0108879
0.0129522
0.0128244
0.0122742
0.0142417
0.0093557
0.00947294
0.00957113
0.0147302
0.00963909
0.00949727
0.00948181
0.00922043
0.00972186
0.0124387
0.00955796
0.00993148
0.00920749
0.00963382
0.00939493
0.0147826
0.00946965
0.00945572
0.0147252
0.0117543
0.00942713
0.00946211
0.0127899
0.00962478
0.0095663
0.00961299
0.00960529
0.0114891
0.00946685
0.00979951
0.00949717
0.00953968
0.00940925
0.00958081
0.00936981
0.00956785
0.00943004
0.00947919
0.00927603
0.00937325
0.00928126
0.00951021
0.00970326
0.00956394
0.0119245
0.00940182
0.012222
0.0138792
0.0104246
0.00943133
0.00958234
0.00958067
0.00960384
0.00948801
0.00952791
0.0092201
0.0145718
0.0156288
0.0133368
0.00996991
0.0136178
0.00949089
0.0118769
0.00941116
0.0131415
0.0133363
0.00968891
0.0102862
0.00964055
0.00928644
0.00953821
0.0121997
0.0122557
0.00937348
0.00965781
0.0143374
0.00929877
0.0105051
0.00957465
0.00960518
0.00949759
0.00963324
0.00932643
0.00933658
0.00959204
0.0110979
0.0117731
0.0112558
0.0132932
0.0092232
0.00976694
0.0100107
0.0104721
0.00917125
0.00947464
0.00959808
0.0100926
0.00940941
0.0133921
0.0103967
0.00951915
0.0119627
0.00932869
0.00965127
0.00935004
0.00927607
0.00952759
0.00931219
0.00953814
0.00959733
0.0094063
0.00958221
0.014273
0.0135609
0.00952583
0.00923601
0.00947471
0.00973515
0.00933101
0.0143961
0.00955701
0.00932427
0.00952399
0.00922304
0.0129629
0.0105605
0.0109609
0.00950326
0.0100886
0.00936293
0.0141522
0.00943911
0.0122802
0.00946307
0.00961359
0.0103423
0.00948143
0.00953718
0.0118946
0.0141897
0.00944153
0.0150669
0.0095284
0.00959037
0.00952403
0.00970102
0.00934523
0.00933218
0.0135993
0.00933669
0.0093028
0.00961556
0.0138969
0.00962981
0.00934136
0.00952422
0.00932803
0.0126837
0.00967593
0.0129818
0.00957562
0.00930305
0.00942439
0.00936219
0.0116472
0.0136201
0.00967579
0.00963171
0.0119527
0.00936096
0.0116094
0.00917783
0.0106465
0.0139001
0.00920525
0.00952942
0.00932572
0.00949552
0.00932201
0.00943311
0.0131004
0.00952456
0.0142802
0.00945599
0.00951963
0.00954788
0.00957614
0.0149615
0.0121805
0.0096425
0.00967189
0.00973628
0.00947798
0.00972175
0.0143008
0.00935305
0.00973355
0.00937294
0.0109292
0.00933162
0.00962643
0.00953011
0.00961265
0.00966611
0.0101811
0.00950583
0.0121043
0.00957843
0.00951148
0.00969578
0.00959197
0.00954402
0.00952393
0.0119479
0.00964337
0.0104917
0.0139592
0.00950798
0.011678
0.00949631
0.014595
0.0115999
0.0110405
0.010028
0.00954204
0.0114022
0.0140684
0.00953111
0.00952848
0.00960179
0.00940467
0.014356
0.00959455
0.0126131
0.00938599
0.00962469
0.0102435
0.00967073
0.00963775
0.00961926
0.00960379
0.00966459
0.00960071
0.00965532
0.00938559
0.0132406
0.0158896
0.00945617
0.015165
0.00907662
0.00924508
0.00949205
0.00958465
0.00936068
0.0119232
0.0095286
0.0101304
0.00928785
0.0109029
0.009369
0.00960835
0.00953129
0.0096061
0.0118529
0.00946159
0.00931175
0.00947035
0.0095933
0.0140489
0.0139963
0.00958993
0.00935125
0.00958641
0.00947918
0.0172938
0.00967205
0.0100088
0.00956973
0.00965268
0.0127022
0.00947333
0.00959531
0.0132948
0.0128802
0.00961209
0.00952128
0.0161093
0.00962139
0.0110731
0.0150078
0.00941994
0.00954853
0.00966594
0.00949874
0.00959846
0.00941721
0.00951457
0.00942193
0.00936781
0.00960884
0.00953863
0.0137043
0.0122063
0.00937361
0.00956942
0.00944914
0.0135969
0.0138773
0.00956444
0.01365
0.00953688
0.00950754
0.00956284
0.0123058
0.00962804
0.00952362
0.00949612
0.00953668
0.00954295
0.00980887
0.0136951
0.00962285
0.0140781
0.0111678
0.0127785
0.0112011
0.00961668
0.00965598
0.00963265
0.00937245
0.00928862
0.00958926
0.00957118
0.00971105
0.0107466
0.0095516
0.00963367
0.00954115
0.012308
0.00949972
0.0156544
0.00943786
0.0120373
0.00959988
0.00953362
0.00993651
0.0149351
0.009219
0.0104451
0.0134075
0.00952828
0.0132386
0.0101713
0.00955821
0.00969209
0.00958894
0.0121805
0.00916874
0.0106212
0.00961147
0.00959123
0.00947549
0.00952746
0.0118329
0.00952841
0.00940668
0.00964286
0.00964824
0.00949081
0.00952081
0.00966589
0.0145408
0.0119589
0.00931329
0.00958063
0.00951098
0.0112868
0.00953954
0.00986694
0.00931329
0.00933157
0.00946642
0.0098632
0.0100906
0.0134591
0.00945828
0.00943298
0.0102861
0.00937795
0.0151875
0.0095188
0.00954719
0.0148048
0.00921096
0.00936879
0.00962598
0.0121152
0.0151615
0.0133372
0.0105801
0.00992385
0.0146542
0.013317
0.0170217
0.00938453
0.00961694
0.00959973
0.00959264
0.00956143
0.0139136
0.00949348
0.00945289
0.0133999
0.0143792
0.0145424
0.00978346
0.0134073
0.00952497
0.00952971
0.00961634
0.00954595
0.011213
0.0092865
0.00947743
0.00970509
0.00947649
0.00956339
0.00962274
0.0105008
0.00932667
0.00944305
0.00954965
0.0155553
0.00928391
0.00931518
0.00933269
0.00919754
0.00952794
0.0101727
0.0121559
0.0161472
0.00915637
0.00960431
0.00960477
0.00957101
0.0110372
0.00914616
0.010356
0.0093047
0.00957315
0.011274
0.011345
0.00957138
0.00967255
0.00951012
0.00959707
0.00980441
0.00967058
0.00953464
0.00939027
0.0093648
0.00949787
0.00952521
0.00968085
0.00909985
0.0094388
0.0140264
0.0116349
0.0160964
0.00915929
0.00944975
0.00954671
0.0103065
0.00937876
0.0108137
0.00997491
0.0141556
0.00936322
0.00957424
0.00973762
0.0137646
0.0115813
0.0108624
0.0148945
0.0120591
0.00957442
0.00963178
0.0139695
0.0121739
0.0102175
0.00963413
0.00960487
0.0095061
0.00924608
0.00951244
0.00935919
0.0095384
0.0126207
0.00956012
0.00950127
0.00958
0.00936818
0.00959779
0.00964431
0.0101396
0.00940804
0.0101728
0.00950599
0.0094846
0.00962597
0.012867
0.00961224
0.0145739
0.00944668
0.00950767
0.00955561
0.00959627
0.0106689
0.014758
0.0109861
0.00970417
0.00959872
0.00958375
0.00961104
0.0127633
0.00940055
0.0095937
0.00954774
0.00939423
0.0141247
0.0092943
0.00926114
0.00946333
0.00961708
0.00965977
0.00953034
0.00946015
0.0095968
0.00930275
0.0096946
0.00961306
0.00956066
0.00979503
0.0134133
0.0144032
0.00953012
0.00920849
0.00953821
0.00957831
0.0132963
0.00948032
0.00944349
0.00947042
0.0094925
0.00952243
0.00953969
0.0095997
0.00955423
0.00928571
0.0094333
0.0113117
0.00939908
0.00949803
0.0149784
0.00940113
0.00951192
0.00945675
0.00953753
0.00959369
0.0129276
0.00963358
0.00963107
0.00955583
0.00913999
0.00954931
0.00931548
0.00941695
0.00936892
0.0145575
0.00920568
0.0118101
0.0125356
0.00945162
0.0125301
0.00962646
0.00953975
0.0095701
0.0108084
0.00956225
0.0142275
0.00943555
0.012035
0.00930957
0.00950403
0.00947557
0.00956917
0.00955735
0.00955441
0.00959931
0.00963195
0.00955932
0.00959435
0.0122796
0.00948219
0.00960309
0.00953409
0.0104149
0.00954471
0.00954537
0.00960776
0.0139457
0.00963987
0.013228
0.00961237
0.0138175
0.0114917
0.00928803
0.00950424
0.00955916
0.00932491
0.0132682
0.00964121
0.0147926
0.0138506
0.00957685
0.0102478
0.00925998
0.00947033
0.00949635
0.0139277
0.0103427
0.0122706
0.0095783
0.00964639
0.010152
0.00949908
0.00945623
0.0102026
0.00958473
0.0130723
0.00952238
0.00958207
0.00975395
0.00947766
0.00960977
0.00959226
0.00947214
0.00956538
0.00953028
0.00961394
0.00968802
0.0095045
0.00957054
0.0096742
0.00965732
0.0095596
0.00963834
0.00963777
0.00971097
0.00956225
0.0115678
0.009661
0.00962837
0.0101744
0.00938482
0.00959589
0.0128833
0.00960634
0.00961809
0.00935805
0.00936353
0.0114395
0.00926309
0.0095251
0.00968903
0.00953492
0.0102311
0.0105595
0.00941393
0.0116277
0.0120475
0.0150703
0.00949411
0.00957006
0.00963142
0.00946117
0.00957892
0.00959469
0.010663
0.00925408
0.00959412
0.00961265
0.00961394
0.00970425
0.0129141
0.014921
0.0144649
0.0097406
0.00962216
0.00971312
0.00957359
0.00943193
0.00961311
0.00978231
0.0148217
0.00965706
0.00963839
0.00955439
0.00962057
0.0102359
0.0105567
0.00939242
0.0115499
0.00947879
0.00955095
0.00947884
0.00955883
0.00930404
0.00981678
0.0094126
0.00959008
0.00937324
0.00934551
0.00956381
0.00945622
0.0119444
0.0096063
0.00960039
0.0102756
0.0125113
0.00923833
0.0114436
0.00965254
0.00959263
0.0116366
0.00968355
0.00957101
0.00955504
0.00955849
0.0097139
0.00956025
0.00957399
0.00952735
0.0094827
0.00959349
0.0097647
0.00954967
0.0104283
0.00961661
0.00942498
0.00965791
0.00945804
0.00936994
0.0095151
0.0132962
0.00957998
0.0136416
0.00957448
0.00956412
0.00943944
0.0096156
0.00970456
0.0127155
0.0123181
0.00951285
0.00892504
0.0106631
0.00943893
0.0115625
0.00953402
0.0092937
0.00960243
0.00936433
0.00955203
0.0093421
0.00962047
0.0123705
0.0096385
0.0129115
0.0118097
0.00997769
0.00945826
0.00959949
0.00959691
0.011832
0.00966826
0.00945941
0.00965342
0.00947028
0.00935499
0.0126651
0.010711
0.0116717
0.00993796
0.00957175
0.0106656
0.00967341
0.00992174
0.0136078
0.00921476
0.0112103
0.0144544
0.0143637
0.00958285
0.00924788
0.00961582
0.0101053
0.00958839
0.0134373
0.00933079
0.00987625
0.00959014
0.00962023
0.013867
0.00941911
0.00964766
0.00965217
0.00955186
0.00943523
0.00959111
0.00958432
0.00955817
0.00944098
0.0134013
0.00954354
0.0103741
0.00951668
0.0129009
0.00958322
0.00950642
0.00951169
0.00905293
0.0150544
0.00957236
0.0094657
0.00955964
0.00963261
0.00944376
0.00946869
0.00943433
0.00939041
0.00955063
0.0104624
0.010092
0.00947851
0.00962644
0.00952474
0.00956626
0.00959411
0.00959528
0.00939841
0.0125663
0.00943616
0.00967742
0.0144608
0.00933305
0.0134287
0.00958602
0.00963996
0.0132791
0.00960731
0.0116343
0.0128785
0.0141784
0.0126039
0.0119382
0.00960038
0.00934513
0.0095699
0.00940095
0.0103921
0.00963352
0.00958365
0.00950488
0.0144746
0.00936448
0.00914044
0.00924864
0.00956275
0.0141061
0.0121308
0.00935867
0.0140047
0.00962611
0.0124204
0.00946211
0.00937955
0.00963017
0.00963157
0.00960044
0.0123513
0.0139828
0.012736
0.00933879
0.00975715
0.0133818
0.00960288
0.00951178
0.0139999
0.00939186
0.0123766
0.00935092
0.0094313
0.00963741
0.00958648
0.0145955
0.0096079
0.0130125
0.00953572
0.00954876
0.0094485
0.00964945
0.00931869
0.00942178
0.0136981
0.00959267
0.00928926
0.00966103
0.0095682
0.0104586
0.0137893
0.00957113
0.00958477
0.0096001
0.00979153
0.00951784
0.015166
0.0135509
0.0120669
0.00964506
0.0131976
0.00931737
0.0148433
0.0117149
0.00966713
0.0105571
0.0129011
0.0120954
0.00952962
0.00958838
0.00963961
0.0102328
0.00952489
0.00954505
0.00945769
0.00932916
0.00961607
0.00963942
0.00961819
0.0160832
0.00958431
0.00931765
0.0104283
0.0137965
0.00959412
0.00956031
0.00934015
0.00958529
0.0154397
0.00933741
0.00938092
0.0142671
0.0095011
0.00953395
0.00949678
0.0111359
0.0095439
0.0114544
0.00954405
0.0103172
0.0147373
0.00945775
0.00962921
0.0102063
0.00953756
0.0095617
0.00955192
0.0096116
0.0102988
0.0137862
0.00952523
0.00949289
0.00944152
0.00959309
0.0102592
0.009442
0.0104978
0.00995414
0.00950098
0.00970813
0.00919317
0.00959926
0.0095581
0.0125799
0.0101465
0.00943269
0.00951106
0.0114602
0.0125797
0.00955915
0.00950188
0.00956383
0.0143716
0.00942824
0.00963766
0.00956212
0.00943742
0.00951605
0.00940018
0.00962966
0.0094173
0.00956913
0.00941258
0.014389
0.0160441
0.00940772
0.00927426
0.00957993
0.00961337
0.00959487
0.00955596
0.00961054
0.00957373
0.00960693
0.00960407
0.00959454
0.00956196
0.00952076
0.00948974
0.00964816
0.0090926
0.013645
0.00948814
0.00954453
0.00954479
0.00930428
0.00939739
0.00946184
0.0124551
0.00945945
0.00954427
0.00952653
0.00923169
0.0113516
0.00963384
0.00918191
0.0141987
0.00945292
0.01229
0.00938912
0.00955341
0.00948174
0.00948113
0.00905964
0.0116345
0.0152447
0.013706
0.00952637
0.0124231
0.00949432
0.00954913
0.012221
0.00956775
0.0094066
0.00946499
0.00941492
0.00947463
0.00935747
0.00955176
0.00954531
0.01394
0.0095853
0.0114821
0.0141787
0.00958851
0.0099718
0.00957196
0.00959085
0.00952664
0.00937119
0.00922582
0.00958256
0.00957865
0.00948907
0.0108993
0.0133863
0.00955302
0.00950045
0.00940744
0.0095886
0.00920343
0.00950327
0.00943544
0.00957343
0.00951204
0.00940974
0.00928673
0.00968834
0.00935256
0.00947139
0.00932536
0.00932988
0.0125761
0.00947794
0.00941424
0.00940717
0.0096121
0.0093954
0.00947889
0.0119262
0.00936583
0.0102702
0.0109364
0.00956308
0.00908057
0.00960567
0.00964356
0.00938134
0.0134382
0.00925768
0.00965144
0.0096034
0.0101952
0.00961168
0.00958031
0.00922885
0.00955595
0.00936482
0.00938771
0.0095056
0.0145491
0.00945923
0.00945818
0.00959406
0.00950915
0.00956291
0.00951749
0.0138897
0.00961509
0.0121929
0.00933721
0.00956654
0.00953538
0.00952595
0.00930788
0.00982118
0.0117626
0.014082
0.0095773
0.00954866
0.0120503
0.0110543
0.00941121
0.00953503
0.0107654
0.00923265
0.00932414
0.00938444
0.00948568
0.0158202
0.00955301
0.00928995
0.012145
0.00951421
0.0099938
0.00926581
0.0142589
0.0126687
0.00924411
0.0102942
0.00941512
0.0107334
0.00955165
0.0120172
0.0136106
0.0094073
0.0156693
0.0109379
0.00946791
0.0131873
0.00946613
0.0110539
0.0101448
0.010471
0.00964455
0.0126072
0.0133966
0.009414
0.00952088
0.00940461
0.0107653
0.00961477
0.00908767
0.00951176
0.0102054
0.00943209
0.00958932
0.00936424
0.00965726
0.00961242
0.00936328
0.0095552
0.0159553
0.00941495
0.00934276
0.00964502
0.013289
0.00928397
0.0165441
0.00966945
0.00956698
0.00954143
0.00957142
0.00919808
0.00955703
0.00983064
0.00952224
0.00956231
0.00944168
0.00964029
0.00995455
0.00949267
0.0094721
0.0104146
0.0096143
0.0101754
0.00956507
0.00964141
0.0100643
0.00951561
0.00937995
0.0158349
0.00953719
0.0147983
0.0122322
0.00929199
0.00961138
0.00937434
0.0129713
0.00956227
0.00957275
0.00906386
0.00984625
0.009372
0.0125741
0.00951391
0.00934499
0.00951022
0.00931078
0.00964664
0.00952122
0.0138219
0.0094763
0.00970446
0.00925284
0.0147022
0.0106959
0.00960353
0.010564
0.00908223
0.0100548
0.00957773
0.0093357
0.0108487
0.0115199
0.00965049
0.0144248
0.00959012
0.0139524
0.00957859
0.0091951
0.00948362
0.0116363
0.00958341
0.00955221
0.00952904
0.00962767
0.00958818
0.0139742
0.0139717
0.00956228
0.014859
0.00949405
0.0123103
0.009545
0.00932534
0.00945525
0.00971756
0.0130461
0.0104007
0.0105198
0.00944201
0.0122542
0.00964098
0.0090684
0.00948823
0.00986428
0.0117948
0.012642
0.00945519
0.0104435
0.00952417
0.00931727
0.00953758
0.0115272
0.011214
0.00913387
0.00940648
0.0108965
0.00959717
0.00960258
0.00914863
0.00904757
0.00952575
0.00949276
0.00951429
0.00955267
0.00965525
0.00927836
0.00969214
0.00966835
0.0152548
0.0122018
0.00950228
0.00955127
0.00960838
0.0127867
0.0116311
0.00961445
0.00938693
0.00955888
0.0125039
0.00960279
0.00958079
0.0097251
0.0102907
0.00921615
0.0126929
0.013947
0.00930206
0.0152188
0.0095748
0.0117405
0.00941002
0.0095155
0.00957607
0.0153248
0.0154622
0.00948524
0.00952743
0.0137336
0.00956905
0.00957366
0.0123314
0.0131651
0.0135644
0.0140974
0.00967826
0.0163103
0.00954762
0.00957842
0.0125924
0.0153624
0.00925065
0.00955146
0.00958249
0.00958322
0.00950294
0.0147643
0.00956319
0.0118803
0.0096248
0.0131738
0.0093405
0.00939705
0.00897576
0.00935617
0.0136153
0.00956658
0.00960432
0.00956651
0.0152538
0.00939587
0.0103469
0.00946573
0.0100386
0.0134502
0.00939413
0.00935889
0.00946023
0.0094991
0.00941915