/*--------------------------------*- C++ -*----------------------------------*\
| =========                 |                                                 |
| \\      /  F ield         | OpenFOAM: The Open Source CFD Toolbox           |
|  \\    /   O peration     | Version:  2406                                  |
|   \\  /    A nd           | Website:  www.openfoam.com                      |
|    \\/     M anipulation  |                                                 |
\*---------------------------------------------------------------------------*/
FoamFile
{
    version     2.0;
    format      ascii;
    arch        "LSB;label=32;scalar=64";
    class       volVectorField;
    location    "6";
    object      momentum:angularVelocity;
}
// * * * * * * * * * * * * * * * * * * * * * * * * * * * * * * * * * * * * * //

dimensions      [0 1 -1 0 0 0 0];

internalField   nonuniform List<vector> 
59516
(
(-0.001865 -0.0012034 0.0705727)
(0.00187043 -0.00215952 0.0520231)
(-0.00248352 -0.000710002 0.0677448)
(-0.00080279 -0.000368804 0.0747167)
(-0.00243923 -0.00221536 0.0743987)
(0.00369435 0.00236891 0.0945177)
(0.000968903 0.00207465 0.0798935)
(0.00925651 -0.000387679 0.0549369)
(0.0024065 -0.00687093 0.0630917)
(0.000684549 -0.000870392 0.0229237)
(0.00293384 7.56107e-05 0.0876868)
(-0.00759708 -0.00206901 0.0228317)
(-0.005383 0.00402231 0.0656189)
(0.00332046 0.000304272 0.0165624)
(0.00554297 -0.00815547 0.0198814)
(-0.0105211 0.00944809 0.00467638)
(-0.00217455 -0.000531434 0.0905491)
(-0.00356127 0.00146408 0.0179284)
(-0.00323489 0.00336925 0.0663857)
(-0.00263524 6.6791e-05 0.0861728)
(0.00027279 -0.0017789 0.0171435)
(0.00139452 -0.00133301 0.0865998)
(-0.00101474 0.00157762 0.085702)
(0.00761739 -0.00278722 0.0021581)
(-0.00178011 -0.000744037 0.0901091)
(-0.000916979 0.000121483 0.00441951)
(0.00511935 0.00442493 0.00568359)
(-0.00795467 -0.00797324 0.0162207)
(-0.000614259 0.0019792 0.0235263)
(9.06252e-05 0.00821556 0.00229916)
(-0.021868 0.00266091 0.0629856)
(-0.0103465 0.00545438 0.0198159)
(0.00103805 0.00187296 0.0741125)
(-0.004693 -0.00164087 0.0637209)
(0.00101173 -0.00349324 0.0795412)
(0.00402618 -0.00246143 0.0808564)
(-0.0104822 0.00297623 -0.00543973)
(-0.00536025 -0.00529178 0.0193389)
(-0.00460888 -0.000172134 0.051303)
(0.00120765 -5.5125e-05 0.0866417)
(0.00466798 -3.03312e-05 0.0498406)
(0.00313004 -0.00313645 0.0896955)
(0.000497831 -7.16764e-05 0.0852902)
(-0.00294679 0.000982292 0.0657742)
(0.0016989 0.00175691 0.088106)
(0.00652099 -0.00470276 0.00228698)
(-0.00442999 -0.0027617 0.0719635)
(0.00109353 -0.00163846 0.0920163)
(-0.01357 0.00135479 0.0811652)
(-0.00163231 0.000685004 0.085855)
(-0.0242785 -0.000133485 0.094782)
(-0.00796751 -0.0088257 0.0051928)
(-0.00110705 -0.000129861 0.0560467)
(-0.000896221 4.83475e-05 0.070202)
(-0.0171736 -0.00132317 0.00810336)
(-0.000902262 0.00228202 0.0754442)
(-0.00413397 -5.00418e-05 0.0884151)
(-0.0120267 -0.00301682 0.0145521)
(0.00190233 0.000591716 0.0873673)
(-0.00502946 -0.00313668 0.0795184)
(0.000324809 -0.000107557 0.0869206)
(-0.0098392 0.00315091 -0.00761067)
(0.000711739 0.000142088 0.0830412)
(-0.000289168 0.000335769 0.0871707)
(0.00102467 0.00115875 0.0780528)
(0.0019459 -7.38848e-05 0.0850527)
(-0.00105968 0.00976714 0.0165775)
(-0.00392807 -0.000554315 0.0049329)
(-0.0152485 0.00300403 0.0799937)
(-9.07919e-05 -0.000368488 0.0801288)
(-0.0109454 -0.00250929 0.0116577)
(-0.000351723 -0.00209728 0.0907888)
(0.00556885 -0.00920399 -0.00467298)
(0.00245959 -0.00108928 0.0852123)
(-0.00178565 0.000603522 0.0839886)
(0.00140853 -0.00147129 0.0858591)
(0.000117735 0.00192536 0.0877312)
(-0.00365407 -0.0020468 0.0855804)
(0.0139361 0.00531857 0.00240558)
(-0.00455842 0.000861556 0.0858544)
(-0.0179468 -0.00277986 0.00355202)
(-0.00210908 -0.000191259 0.0837481)
(-0.00158329 0.00137647 0.0810416)
(-0.00906705 0.00532124 -6.63577e-05)
(-0.00161748 0.000438248 0.0849325)
(-0.00203401 0.000834544 0.0871396)
(-0.000841497 0.00571433 -0.00351921)
(-0.000573594 0.00434504 0.0830991)
(-0.00922831 -0.00750939 -0.00040921)
(-0.00692944 -0.00738944 0.0595642)
(-0.00667813 0.000352417 0.0852074)
(-0.00638362 0.00122263 0.077609)
(0.000326016 0.00317454 0.0936844)
(0.00256644 0.000146039 0.0782021)
(-0.000535956 0.0016454 0.0851623)
(-0.00625192 0.00219553 0.0786256)
(-0.00344677 0.00100185 0.0878841)
(0.0128462 0.00780269 0.00958469)
(-0.00129391 -0.00346734 0.0321537)
(0.00090792 0.00141977 0.0806268)
(-0.00195842 -0.0014012 -0.0143927)
(0.00232267 -0.00103701 -0.00299384)
(0.00671969 0.0114269 0.00226638)
(-0.0100278 -0.00124786 0.0183789)
(0.00355604 0.00285707 0.0674964)
(-0.00256783 -0.000837543 0.0810729)
(0.00954105 -0.0105507 0.0136468)
(0.00390736 0.000159043 0.061954)
(-0.00241173 0.00347557 0.0569097)
(-0.00722427 0.00572271 0.0186903)
(-0.00742525 -0.00222624 0.0806401)
(0.00390543 -0.0100231 -0.00945655)
(-0.00501506 0.000928078 0.0209412)
(-0.0104248 -0.00383281 0.068536)
(-0.00110637 0.000877066 0.0843946)
(-0.00313039 -0.000907944 0.0558398)
(-0.00427699 -0.0012624 0.00198072)
(-0.00200766 0.000142163 0.0820433)
(0.0110766 -0.00405261 0.000345725)
(0.00222936 0.00242555 0.0773658)
(-0.00362402 -0.00264056 0.0911374)
(0.000582333 0.00411647 0.0883337)
(-0.000162521 -0.00244002 0.0897531)
(0.000523913 0.00144167 0.0869309)
(-0.00456855 0.00225111 0.0897241)
(-0.00802517 0.00192181 0.0403246)
(-0.00924218 0.00195521 0.00772066)
(-0.00428129 -5.33022e-05 0.0935347)
(-0.00832382 -0.00111651 0.0484545)
(-0.00177324 0.00210445 0.0913172)
(0.0032331 -0.00234193 0.0890098)
(0.00313207 0.00086164 0.0711661)
(0.00185274 -0.00855783 -0.000451059)
(0.00219175 0.000587547 0.0849654)
(0.000502032 -0.000701008 0.0515486)
(0.000113321 0.000354098 0.0640999)
(-0.00692227 0.000238795 0.0603352)
(0.000934295 -0.00279535 0.0770373)
(-0.00382281 0.00164022 -0.00506518)
(-0.00101216 0.00693675 0.0620127)
(-0.0019589 5.49023e-05 -0.00273869)
(-0.00240675 0.00086434 0.0860321)
(0.00549818 -0.00199202 -0.00182934)
(-0.000800076 -0.00175662 0.0717162)
(-0.00098911 -0.00122292 0.0866405)
(-0.0004107 -0.000485455 0.085509)
(-0.00185037 -0.000416012 0.0873365)
(-0.00476414 0.00227052 0.0760277)
(0.0087059 -0.00217417 0.0360712)
(0.00117232 -0.000157553 0.0672699)
(-0.00460489 0.00298308 0.0617177)
(-0.00173974 0.00207834 0.000464666)
(-0.000201243 0.00233673 0.0903174)
(0.00124706 -0.00156941 0.0830171)
(-0.000653239 0.00061178 0.0437563)
(0.000137603 0.0046035 0.00675868)
(-0.00104481 0.00170966 0.0704587)
(-0.00257081 0.00166201 0.0703099)
(-0.00424216 -0.000533096 0.0431927)
(-0.00628869 -0.0070074 0.0040948)
(0.0039272 -0.00353355 0.0315296)
(0.00995451 -0.000109726 0.0343456)
(-0.00698876 -0.00193208 0.00558264)
(-0.000999319 -0.000280128 0.0156966)
(0.00296999 0.00153232 0.0569059)
(-0.000495057 0.00126732 0.0863469)
(0.00280977 0.00253084 -0.000593696)
(5.48139e-05 -0.00170867 0.0910308)
(-0.00196286 0.007362 0.00592759)
(0.00197919 -0.00276193 0.0726908)
(-0.00729979 0.00148375 0.0512336)
(-0.000373194 0.000146317 0.0142445)
(0.000369916 0.0032286 0.024316)
(-0.000681331 0.000900585 0.0814485)
(0.00222624 0.00357706 0.00793327)
(-0.00194196 -0.0029853 0.0744238)
(0.000192054 0.000391334 0.0856528)
(-0.00320905 -0.000368588 0.0891194)
(0.00525909 -0.000967221 0.0223752)
(-7.52897e-05 0.00353281 0.00649324)
(-0.00150284 -0.00279368 0.0856034)
(0.0089885 0.004885 -0.00277502)
(-0.0107498 -0.00438788 0.0116708)
(-0.00403952 0.00319673 0.0144371)
(0.000321317 -0.00170891 0.0895392)
(0.00156143 -0.0053104 0.00501025)
(-0.00934107 0.00138168 -0.00856724)
(0.00196642 -0.00193042 -0.00775512)
(-0.000182404 -0.00464605 0.0752296)
(-0.00100063 -0.00161286 0.0595033)
(-0.000640719 -0.000739869 0.0772356)
(-0.00362869 -0.00606914 -0.00373257)
(-0.00191026 0.00297324 0.0879125)
(0.00591651 -0.00154582 0.0166678)
(-0.00261713 0.00162931 0.0870045)
(0.0080222 0.000965292 -0.00558647)
(-0.00119957 -0.00649979 0.0121619)
(0.00429606 -0.001061 -0.00408991)
(-0.00281537 -1.46085e-05 0.0633428)
(0.00283386 -2.95541e-06 0.0867269)
(-0.00472572 -0.00648192 0.0465722)
(0.000173334 0.0038913 0.0880985)
(-0.000361971 -0.000880662 0.0510604)
(0.000624866 -0.00624416 -0.00349651)
(0.00393076 0.00025914 0.0812623)
(-0.00439405 -0.00104808 0.0834608)
(0.00207781 -0.00117618 0.0906174)
(-0.000468406 0.00479643 0.0797384)
(-0.00245152 0.00157777 0.0034479)
(-0.000336153 -0.000749485 0.0699412)
(-4.57514e-05 0.00983566 0.00100459)
(-0.00558914 0.00474369 0.00217023)
(-0.00384198 0.00411701 0.0852893)
(0.000874027 -0.00112299 0.00627421)
(-0.00255403 -0.00179167 0.0686725)
(-0.00166369 -0.000671279 0.0835542)
(0.000578679 -0.000313053 0.0826415)
(-0.00141336 -0.000524783 0.0910996)
(-0.00480678 0.00314837 0.00724984)
(0.00141868 -0.00121377 0.0922956)
(0.00319276 -0.00205643 0.0106379)
(0.00212861 0.000493453 0.0599185)
(9.29328e-05 -0.00276046 0.0877165)
(0.00694106 0.00179508 0.00936902)
(-0.00092207 -0.00169889 0.0835767)
(-0.000628432 0.00151331 0.0859636)
(0.0080065 0.000767309 -0.00534867)
(-0.0110098 -0.00303316 0.00784146)
(-0.000392208 0.00178367 0.0863988)
(-0.0103216 0.00394346 -0.00382914)
(-0.00110787 0.00109397 0.0945085)
(-0.000324641 -0.00164169 0.0855914)
(0.00163561 0.00208193 0.0839994)
(-0.00427961 -0.00366122 -0.00984034)
(-0.00708754 -0.00117346 -0.00853315)
(0.000499789 0.0037858 0.00689773)
(0.00832977 0.00175885 0.0144587)
(0.0014303 -0.00266751 0.0490032)
(0.000309367 -0.00265449 0.0863405)
(0.0129762 0.00232011 0.00203879)
(0.00226652 0.00127808 0.0866123)
(0.00550955 0.00876724 -0.00179929)
(0.00816351 0.00137707 -0.000273212)
(0.00378684 0.00149984 0.00483414)
(-0.000377095 0.000229973 0.0914256)
(0.00198941 -0.00357 0.0579127)
(0.00201854 -0.00272416 0.0845199)
(-0.000248727 0.0017589 0.016739)
(0.00029648 0.00037962 0.0956465)
(0.000111702 0.00528773 0.0571471)
(-0.00065365 -0.000975928 0.0868715)
(-8.91927e-05 0.000679154 0.0807695)
(0.000956499 0.00310208 0.089548)
(0.00143698 -0.000942146 0.0841418)
(6.38462e-05 0.00128422 0.0840026)
(-0.000971519 0.000723269 0.0861026)
(-0.0106826 -0.00187351 0.00147708)
(-0.00377746 -0.00255662 0.0860777)
(-0.000122324 0.00248664 0.00447136)
(-0.000652091 0.000811467 0.0158409)
(0.000793758 1.62963e-05 0.0733161)
(0.00143261 0.000663466 0.0863178)
(-0.000976055 0.00182093 0.0784361)
(-0.00162109 -0.00175338 0.0890644)
(0.000941545 0.0042713 0.062558)
(-0.00115132 -0.00593634 -0.00443575)
(0.00264449 0.00367438 0.0895528)
(-0.00174505 0.000692864 0.0317905)
(0.00149681 0.00528585 0.00487205)
(0.0032422 -0.000215528 0.0110295)
(-0.00644431 1.7627e-05 0.057219)
(-0.000565955 -0.000665744 0.0869474)
(-0.000597961 0.00389006 0.0437313)
(0.000409076 0.00367714 0.0462689)
(-0.00137158 0.00296429 0.0876767)
(-0.00485728 0.00413711 0.0489867)
(-0.00183386 -0.00732746 0.000791908)
(0.00200715 -0.000574178 0.0882627)
(0.00287109 -0.00652288 -0.00241825)
(0.0142398 0.00333692 -0.00402879)
(0.00170271 -0.0010419 0.0810052)
(-0.000269037 0.00109917 0.0789829)
(-0.0063381 0.00683364 -0.00734173)
(-0.00466973 0.000489636 0.0711956)
(-0.000673028 -0.00291314 0.0729539)
(-0.000983547 -0.0038463 0.0850577)
(-0.00248755 0.000917607 0.0877914)
(-0.00200797 -0.00636615 0.00495493)
(-0.00137951 -0.00142768 0.081961)
(0.000350997 -0.0017844 0.0852717)
(0.0014245 -0.000801258 0.0904364)
(0.00065117 -0.00678065 0.0736798)
(9.44614e-05 0.00099911 0.0777508)
(-0.00157268 0.00300444 0.0407414)
(-0.000315822 0.000765899 0.0921289)
(-0.00424939 0.00356423 -0.0113671)
(-0.000877952 -0.000599139 0.0823931)
(0.00225946 -0.00186123 0.0881432)
(0.00145425 -0.00275995 0.0887292)
(-0.00147656 -0.00021315 0.0828785)
(-0.00217969 0.00186011 0.072973)
(0.00417943 -0.00671519 -0.00290828)
(0.00805112 -0.00263086 -0.0042352)
(0.00152481 -0.00298898 -0.00614901)
(-0.000476902 -0.00156588 0.0890828)
(-0.00591473 0.0115514 0.000657427)
(-0.00336595 -0.00328478 0.00559637)
(-0.00370452 0.00673029 0.00944487)
(-0.00070259 0.000165562 0.0909426)
(-0.0010869 -0.00188299 0.0872837)
(-0.000514701 -0.000663032 0.0874216)
(0.00476881 0.00298793 0.0135686)
(-0.00127981 -0.00261616 0.0461871)
(0.00165267 0.00504509 -0.00136616)
(0.00730033 -0.00126912 0.0188814)
(0.000864066 -0.000891195 0.0816705)
(0.00237566 -0.00654301 0.0525275)
(-0.0143349 -0.00294849 0.0915794)
(-0.00169703 0.000703138 0.0434542)
(-0.00713681 -0.0037853 -0.00907836)
(0.00335357 0.00415257 0.0118015)
(-0.00204349 0.00426277 0.0622969)
(0.00268774 0.00245482 0.0854005)
(-0.00491688 -0.000916996 0.0919381)
(0.00100677 4.68348e-05 0.0898275)
(0.00210368 0.00225811 0.0864587)
(0.00315687 -0.00921464 0.0552481)
(-0.00270666 0.0019951 0.0679721)
(-0.000298723 0.000913451 0.0822708)
(-0.000267364 -0.00247003 0.0920317)
(-0.00152153 0.00109897 0.086766)
(-0.00586711 -0.000996832 0.0171289)
(-0.00270628 -0.00314298 0.00142734)
(0.000349272 -0.00149272 0.0867315)
(0.00044556 0.00282573 -0.00467969)
(-0.00454159 0.000904406 0.000780574)
(-0.00252964 -0.00103917 0.0851628)
(0.00203115 -0.00107805 0.0834893)
(-0.00254635 0.000954541 0.0199049)
(-0.001577 0.000252359 0.0905944)
(0.00111971 0.00362509 0.0884285)
(0.00112106 -0.00234403 0.0844187)
(0.00235773 0.00138549 0.0870063)
(0.00281604 -0.0066299 -0.00931431)
(-0.000168649 0.00190841 0.0865784)
(0.000716092 -0.000274992 0.0870196)
(0.000747596 0.000267957 -0.002631)
(-0.00139784 0.000919368 0.0905704)
(0.00254539 -0.000868109 0.0877545)
(0.00302977 0.00411439 0.0826233)
(0.00194474 -0.000569691 0.0703641)
(0.00318748 0.0021093 0.0841879)
(0.000932882 0.00485515 0.0798146)
(-0.000951817 0.00444153 0.0318214)
(0.00246059 -0.000232273 0.00755086)
(0.0050172 0.00128463 -0.0142506)
(-0.000697554 0.00351971 0.0442136)
(-0.00278696 0.0048476 0.0292038)
(0.00493033 0.00048067 0.0300165)
(0.00172523 0.00272344 0.0384251)
(-0.00300181 -0.00415526 0.0600589)
(0.000865058 -0.0020123 0.0791094)
(-0.00292483 0.000811167 0.0873258)
(0.00100474 -0.00419062 0.0920656)
(-0.000283028 -0.00137487 0.0758348)
(0.000749097 -0.00201606 0.0878789)
(-0.00171975 0.000131896 0.089225)
(-0.00156157 0.00730217 0.00723021)
(-0.0206849 0.00423475 0.0709977)
(8.37203e-06 0.00517598 0.0251768)
(-0.00501983 0.00624501 -0.00716172)
(0.0132909 0.0022022 -0.00510013)
(0.00109883 -0.0016382 0.0928416)
(-0.0070566 -0.00557128 0.0482295)
(-0.00136187 -0.000923009 0.0864947)
(-0.00546827 0.00145578 0.00338032)
(0.000538224 7.4799e-05 0.0809965)
(0.00268471 -0.00866141 0.0155389)
(0.0024622 0.000469734 0.0909886)
(2.55268e-05 0.00982863 0.00783771)
(-0.00219451 0.00219021 0.0266699)
(0.000954058 0.000478656 0.070062)
(0.00312263 0.000119048 0.0906444)
(0.00278721 0.000947919 0.00300998)
(-0.00507748 0.00257762 0.0105964)
(-0.00171335 -0.000281635 0.0783447)
(0.00191737 -0.00493177 -0.00312516)
(-0.00218709 -0.000689116 0.0748965)
(0.0043381 -0.00244461 0.0699412)
(0.000463493 -0.000295 0.0779363)
(-6.68545e-05 0.000928965 0.0537538)
(-0.00155869 0.00141113 0.0487131)
(-0.000736084 -0.000923168 0.0957829)
(-0.0108404 -0.00484928 0.0266656)
(-0.0012853 0.00111938 0.0851741)
(-0.00573847 0.0015269 0.0555276)
(-0.00119827 -0.00613407 0.0161603)
(-0.00445491 0.00520954 0.016599)
(0.000311597 -0.000866534 0.08576)
(0.000480887 -0.000681265 0.0892633)
(-0.00027078 0.00399439 0.0117327)
(0.00231429 -0.00159378 0.0786209)
(-0.00300826 0.000720381 0.0535049)
(0.00120355 0.000249621 0.0879845)
(0.00286098 0.000283707 0.0867708)
(-0.000204784 -0.00711769 -0.00846333)
(-0.000766407 9.06663e-05 0.0730533)
(0.000732025 0.00209702 0.0875645)
(-0.000520771 -0.0024843 0.0849188)
(-0.00182078 0.000125365 0.090486)
(0.00857464 -0.00592351 -0.0160776)
(-0.00479924 -0.00978829 -0.00153466)
(-0.00175506 -0.00177373 0.0690981)
(0.00181001 0.000636183 0.08786)
(0.000530506 0.000131592 0.0889149)
(-0.00292113 0.00429543 0.00778203)
(-0.000517655 0.00129618 0.0873525)
(-0.000477119 0.00202234 0.0541714)
(0.00153751 0.000423905 0.087816)
(0.000748558 -0.000870006 0.0907744)
(0.00218396 -0.00196295 0.0873408)
(0.000543318 -0.00226625 0.0928254)
(0.000868433 -0.00128148 0.0897049)
(-0.00290107 0.00165145 0.0492016)
(0.00363474 -0.000996078 0.082527)
(-0.00530898 0.00443742 0.0124792)
(0.000770144 0.00176435 0.0886403)
(0.00586558 -0.00133582 0.0576445)
(-0.000298741 0.00160199 0.0835052)
(0.0023246 0.00250931 0.0861576)
(-0.00216187 -0.0020909 0.0847002)
(-0.000387895 -0.000222326 0.0800771)
(0.00573288 0.00275825 -0.00122984)
(0.00552028 -0.00162601 -0.0144982)
(-0.00129214 -0.00691124 0.00232939)
(-0.00128454 -0.00155429 0.0864527)
(0.000383736 0.000382945 0.0877165)
(-0.000678278 9.45111e-05 0.0809978)
(-0.00419072 -0.00289461 0.0734786)
(0.00443387 -0.00614386 -0.0100712)
(-0.00987533 -0.0069305 0.000479325)
(-0.000132435 -0.00538736 0.0692501)
(0.00189483 0.00222633 0.0885982)
(-4.8561e-05 0.00211386 0.0877447)
(0.00313246 -0.00142107 0.0883676)
(0.00120474 -0.00147118 0.0852113)
(-0.00315644 0.00122616 0.0837378)
(0.00175759 -0.000323336 0.0804722)
(0.00257974 0.00508381 -0.000735778)
(-0.00225841 0.000451328 0.0722451)
(0.00245326 -0.00123532 0.00832946)
(-0.00438278 0.000388036 0.0235432)
(0.00158135 -0.00250319 0.0859339)
(0.001773 0.0102681 0.0443123)
(0.00142579 0.000680141 0.084364)
(-0.0106097 0.00461039 -0.00399777)
(0.00298404 -0.00366778 0.0956401)
(-0.00116128 -0.000662471 0.0938182)
(0.000196003 -0.00153867 0.0859532)
(0.00319292 -0.00056933 0.0372791)
(0.000722599 -0.00178405 0.0821796)
(-0.000439622 -5.48044e-05 0.0856959)
(0.00141399 -0.00307639 0.0652071)
(1.16594e-05 -6.83701e-05 0.0877464)
(-0.00399894 -0.00381922 0.0568098)
(-0.000551432 0.00257819 0.0887576)
(-0.00248756 0.00187878 0.0833537)
(-0.00752179 -0.00339873 -0.00336869)
(-0.00177768 0.000393351 0.0891589)
(0.0019225 0.00206903 0.061091)
(-0.00756067 -0.00209038 -0.00726186)
(-2.51701e-05 -0.00230562 0.0576638)
(-0.000856492 -0.000346907 0.0853281)
(0.000754613 0.00107871 0.071098)
(-0.00221395 0.0009535 0.0413841)
(-0.0056379 0.00768318 -0.00212049)
(0.000390632 -0.00231344 0.0859255)
(-0.00101059 0.00475272 0.066425)
(0.00139387 -0.0036791 0.0868062)
(0.000191747 -0.000204418 0.0737493)
(-0.0115609 -0.00316768 -0.0107461)
(-0.00306009 -0.000845204 0.0742914)
(-0.00334942 -0.00524222 0.00579581)
(-0.000382168 0.00102741 0.0862382)
(-0.0167926 -0.00145863 0.0989102)
(-0.000511653 -0.000589931 0.0911787)
(-0.00663278 0.00057556 0.0139147)
(-0.00224938 -1.56605e-05 0.0586315)
(-0.00134163 -0.00281451 0.0515306)
(0.00296832 -0.0021663 -0.00598218)
(0.0042888 0.00122303 0.085286)
(-0.000560679 0.00118444 0.0855281)
(0.00768194 0.00013739 0.00516555)
(0.00338695 -0.000373656 0.0858292)
(0.00187682 -0.00206774 0.0828051)
(-0.00304005 0.00382173 0.000416832)
(0.00378138 0.00258121 0.014905)
(-0.0100316 -0.000541455 -0.00931692)
(0.00133028 0.00392347 0.0856304)
(0.00233766 0.000133333 0.0879018)
(-0.00684561 0.00130934 0.0204368)
(0.00871285 -0.000224255 0.000531974)
(-0.00241675 -0.00547763 0.00998738)
(0.000137045 -0.00287297 0.0643586)
(0.00206519 -0.00114234 0.085585)
(-0.00453872 -0.00587276 0.000276326)
(0.000889948 0.000269187 0.0875539)
(0.00200596 -0.00203275 0.0871413)
(-0.000179357 0.000106487 0.0859509)
(-0.00275987 -0.00559185 0.0875965)
(-0.000442584 -0.00210902 0.0921599)
(3.45147e-05 -0.000409486 -0.010827)
(-0.00121736 -0.000261324 0.0904842)
(0.00159847 0.000943201 0.00474032)
(0.00445575 -0.00615056 0.0168698)
(0.00176822 0.000498606 0.0852972)
(-0.00298637 0.00102969 0.0077475)
(-0.00117948 0.00370853 -8.21869e-05)
(0.00622421 0.00458652 0.000478611)
(-0.00950816 -0.00121198 -0.00196975)
(0.00277998 -0.00375703 0.013314)
(0.00228273 7.98737e-05 0.0892629)
(-0.00174091 -0.00318732 0.00788303)
(0.00325416 -0.00579813 0.00619608)
(-0.00617317 -0.00277839 0.0855371)
(-0.000928922 -0.000267327 0.0851575)
(0.0117262 -0.00176592 -0.0116013)
(0.00269809 0.00203722 0.0502252)
(-0.00157309 -0.00228694 0.026182)
(-0.000933736 -0.00165114 0.0926777)
(-0.00187424 0.00180089 0.0229753)
(-0.00104706 -0.000213177 0.0856541)
(0.00357354 0.000232386 0.0160552)
(0.000647258 0.0013825 0.0627087)
(-0.00418351 -0.00135608 0.0843419)
(0.00388366 -0.004379 0.00914362)
(0.00277955 0.000101447 0.0828015)
(-0.00414567 -0.000918175 0.0163537)
(0.00297288 -0.00646783 0.00242282)
(0.00296598 -0.00395087 0.0779515)
(-0.00400303 -0.00264211 0.0861865)
(-0.0016441 0.00313585 0.0770791)
(0.00458035 -0.00243211 0.0757209)
(-0.00042634 -0.00122763 0.0842992)
(0.00256799 -0.00214951 0.0102715)
(-0.000532535 -0.000887679 0.0912278)
(0.00453388 -0.00215104 0.0126305)
(-0.00160922 -0.0023807 0.0832101)
(0.000395143 -0.00299161 0.0646438)
(-0.00369497 -0.00700808 -0.00847681)
(-0.00288426 0.000915837 0.0898543)
(-0.010516 -0.00281003 0.00274647)
(0.00551782 1.02482e-05 -0.000594957)
(-0.000571505 0.000561725 0.0887294)
(-0.008356 0.00393365 -0.00532657)
(-0.00180306 0.0020843 0.0762414)
(0.000195965 0.00412013 0.0858815)
(-0.000565485 -0.00204373 0.0684259)
(0.0054614 0.000939519 0.000397137)
(0.000808221 -0.000330186 0.0908714)
(-0.000579609 0.00191084 0.0428827)
(-8.12063e-05 -0.00129707 0.086914)
(-0.000326197 0.00264007 0.0902376)
(-0.000141322 -0.00251381 0.0931796)
(-0.000808735 -0.000734236 0.08709)
(0.0100944 0.00810011 0.000864654)
(0.00102235 -0.00377502 0.00558198)
(-0.00220609 0.00116507 0.0918831)
(-0.00103924 0.00180291 0.0874452)
(0.00432753 0.00527097 -0.00159115)
(-0.00451126 -0.00103284 0.0875692)
(-0.00247515 0.00287064 0.0925225)
(-0.00125038 -0.000283773 0.0877656)
(0.00193166 -0.00233008 0.0877889)
(-0.000970054 0.00517073 0.067322)
(0.00255415 0.00260786 0.0010954)
(0.000163202 0.00248879 0.0917399)
(0.00479439 0.000537136 0.0535423)
(-0.00209869 -0.000751637 0.0818517)
(0.000397485 -0.000653774 0.0468959)
(0.00774844 -0.00309127 -0.00963179)
(-0.00104678 0.00161166 0.0824502)
(-0.000167907 0.00287818 0.0471322)
(0.00575255 0.00405519 0.0840863)
(-0.000661272 0.00015544 0.0854467)
(0.00139032 -0.00494114 0.0799148)
(0.00272845 0.00377706 -0.000300169)
(-0.00143736 0.00428236 0.00567983)
(0.000916815 -0.00336617 0.0834008)
(-0.00128063 -0.00121482 0.0814964)
(0.000525118 0.00152802 0.0927473)
(0.00192229 0.00445191 0.0774402)
(0.00129418 0.00266145 0.0354745)
(0.00180826 0.00357746 0.0845886)
(-0.00201582 -0.00131117 0.0815337)
(0.00449385 0.00501207 -0.00347763)
(0.000239139 -0.00136896 0.0843824)
(-0.00465628 0.00131107 0.0924071)
(-0.00385966 0.00371357 0.00214337)
(0.000198437 0.00489601 0.00600809)
(-0.00283523 0.00164886 0.0839693)
(0.00176782 0.00174996 0.0858784)
(0.00272511 0.00273408 0.074265)
(-0.00143016 -0.00046083 0.0719612)
(-0.00261642 0.00404605 0.0607633)
(-6.0407e-05 -0.000715619 0.0910753)
(0.00370146 0.00133363 0.0395703)
(-0.00261994 0.000528789 0.0973694)
(-0.00154965 -0.00197659 0.0826011)
(-0.00100481 0.00240477 0.086311)
(0.00187401 -0.000235344 0.0878895)
(0.000265319 -0.00351086 0.00184911)
(0.00267336 0.00133438 0.0827608)
(-0.00585178 -0.00310552 -0.00560947)
(-0.00674332 -0.00278753 0.0495159)
(8.73639e-05 0.00215807 0.0150803)
(-0.00657172 1.11587e-05 0.0818887)
(0.00645475 0.00178766 0.0785204)
(-0.0104002 -0.000209972 0.0643745)
(-0.00178824 -0.000452084 0.0882205)
(0.000911781 0.00265413 0.0905701)
(-0.000780366 -0.000932164 0.0871759)
(0.00182449 0.000250942 0.0840517)
(-0.00296238 0.00148677 0.00313348)
(-0.00969195 -0.00105704 0.100825)
(-0.0164713 -0.00167573 0.0810181)
(0.0011831 -0.00116946 0.085923)
(-0.00309847 0.00180461 0.0712958)
(-0.00455252 0.00236111 0.0883083)
(-0.00358723 0.000362174 0.0863026)
(-0.00476779 0.00632261 0.0556006)
(-0.00666098 0.00192665 -0.00932809)
(0.00392022 0.00204789 0.00791779)
(-0.0047415 -0.00682778 -0.0146603)
(-0.00370285 0.00498117 0.0111658)
(-0.00523058 0.000336252 -0.00329534)
(0.000910406 0.00100699 0.0836644)
(0.00137413 0.00122817 0.0804648)
(0.000836164 -0.00608618 0.00874064)
(-0.00198754 0.00414008 0.00926224)
(0.00290643 0.000619847 0.0875736)
(-0.0146244 0.00404793 0.0455535)
(-0.00911519 -0.000881317 -0.00171243)
(-0.0024744 0.00301548 0.0851823)
(-0.00139181 -0.00214243 0.0544364)
(-0.00103151 0.000871781 0.0775608)
(0.00642317 0.000778972 0.00616707)
(0.00117636 0.00165222 0.00305283)
(0.000228131 -0.000882987 0.0679229)
(-0.00326891 -0.0021553 0.0888698)
(-0.00141942 -0.00250337 0.0820268)
(0.00333588 9.44275e-05 0.00121867)
(0.00329788 -0.00917717 -0.00982895)
(-0.015042 0.0048518 0.0955768)
(-0.00983498 0.00289087 -0.00781952)
(-0.00202628 0.00150871 0.0770477)
(-0.0102902 -0.00788202 -0.00286794)
(0.00139491 0.00436318 0.0765763)
(0.00225909 -0.00229934 0.0870166)
(0.00011856 0.00242472 0.0891404)
(-0.0136541 -0.0117586 0.00175698)
(3.48788e-05 0.00264844 0.0507265)
(-0.00220311 -0.00292981 0.000101481)
(-0.000607992 0.00344559 -0.00186554)
(-0.00125639 -0.00119185 0.0879616)
(-0.006111 0.00907224 0.00386969)
(0.00142761 -0.00303936 0.0867671)
(-0.0142766 0.000288318 -0.00396027)
(-0.000863335 0.00309549 0.0839545)
(0.0015486 0.000197207 0.0812193)
(0.00436074 0.00535231 -0.00468407)
(-0.00355021 -0.00253035 0.00698899)
(-0.00272726 -0.0010408 0.0810759)
(-0.00585699 -4.50281e-05 -0.00345014)
(0.00272775 0.00213779 0.0827652)
(-0.00717547 0.00937642 0.00198655)
(0.00275585 0.00561548 0.0655739)
(-0.000616345 0.000610274 0.0909034)
(0.00676843 0.0030353 -0.00330751)
(-0.00723728 -0.00798762 -0.00196458)
(0.00647763 0.00619626 0.00755329)
(-0.022428 -0.000249142 0.0975199)
(0.00525135 0.00361638 0.0580713)
(-0.0060678 0.00473532 0.0117399)
(0.00143786 0.00139664 0.0334708)
(0.000165495 0.00247813 -0.00538013)
(0.000618846 0.00152549 0.089608)
(0.00239974 0.00182693 -0.0178033)
(0.000537433 0.000275666 0.0906446)
(-0.00437838 -0.00038804 0.0762818)
(-0.00269902 -0.000179468 0.0863206)
(0.00131217 0.000942449 -0.00345551)
(-0.00116374 0.000350032 0.0869966)
(0.000716283 0.00144227 0.0410395)
(-0.000514272 0.000193162 0.0877343)
(-0.00410733 -0.00230156 0.0120186)
(-0.0176199 0.00125818 0.0952835)
(0.00122844 3.91527e-05 0.0917506)
(0.0106789 0.00494526 -0.0151101)
(0.000682079 -0.00140836 0.086776)
(-0.0273445 0.00246525 0.101205)
(4.14796e-05 -0.00142369 0.0632423)
(-0.00455029 0.000472621 -0.00324174)
(-0.00597533 0.00155328 0.00370969)
(0.00139782 -0.000165129 0.0895926)
(0.00228297 -0.00252986 0.0766481)
(0.00241171 -0.00737328 -0.00500069)
(-0.00051527 0.00281132 0.0535828)
(0.00894536 0.00672288 0.0115732)
(-0.00295059 0.00407736 0.000558276)
(-0.000371775 0.000972472 0.0922359)
(-0.0193451 0.00130776 0.0985132)
(0.000538446 -0.00336049 0.0728087)
(0.000674615 0.000680653 0.0896181)
(0.000402076 0.000205648 0.0926797)
(-0.00138649 0.00130538 0.084047)
(0.00488942 0.00138695 0.0657275)
(0.00357997 -0.00151486 0.0028186)
(-0.00712698 -0.000821021 -0.0158632)
(0.00310227 -0.0012673 0.0926404)
(-0.0179876 0.00545892 0.0920449)
(-0.000690865 0.00277936 0.0668685)
(0.00345796 0.000542202 0.0721983)
(0.00120401 -0.00353257 0.0242386)
(-0.001222 0.00281368 0.0837612)
(-0.00320338 0.00161122 0.0886853)
(0.00345562 -0.00565114 0.04165)
(0.000241714 0.00543149 0.0541753)
(-0.0066703 0.00359284 0.0120505)
(-0.00361148 -0.00264608 0.0159815)
(-0.0274989 -0.00968405 0.00890598)
(-0.000569768 -0.000943058 0.089595)
(-0.001009 -0.00256318 0.0828796)
(-0.00175505 0.00235 0.0370418)
(0.00649441 -0.00329715 0.0589211)
(-0.00407963 -0.0060307 -0.00380569)
(0.00228546 0.00695532 0.031127)
(-0.00770379 -0.0011317 0.0159256)
(-0.00110323 -0.000913102 0.0887021)
(0.00199246 0.00180468 0.0903303)
(-0.0198345 0.00158787 0.0995332)
(-0.00105189 0.000806951 0.0890997)
(-0.00327655 -0.00236613 0.0334086)
(-0.013882 0.00476812 0.099051)
(-0.000585995 -0.00346562 0.0742844)
(-0.00330507 -0.000233757 0.00713558)
(-0.0018579 0.00380702 0.0889453)
(0.000547799 0.00261416 -0.0103629)
(-1.70746e-05 -0.000192964 0.0781697)
(0.00557276 -0.00482118 -0.00336963)
(-0.00237198 0.00364241 0.0890599)
(-0.0112153 0.000620068 0.0994078)
(-0.00211941 0.00105643 0.0876886)
(-0.00096842 -0.00380261 0.0611723)
(-0.00161723 -0.00156163 0.0794336)
(0.000773487 0.0012757 0.0831866)
(0.00116245 0.000502789 0.0875644)
(0.000763433 -0.0033179 -0.0143074)
(0.00528348 0.00364361 0.00261709)
(-0.00611136 0.00353643 -0.00636778)
(-0.000691921 -0.000571993 0.0866329)
(-0.00119518 0.000233032 0.0824376)
(0.00188006 -0.00118645 0.0766577)
(-0.00155073 0.000947839 0.0875029)
(-0.00770638 0.00137097 0.0105527)
(-0.000677495 0.00246776 0.052475)
(0.000498551 0.000779647 0.0380029)
(-0.00302159 0.00100591 0.0915128)
(0.000765317 -0.000841323 0.0714063)
(-0.000750147 9.07252e-05 0.0787119)
(-0.00238204 0.00174546 0.0574539)
(-0.00100991 -0.00208391 0.091458)
(-0.00461485 0.00473999 9.6198e-05)
(-0.000512516 0.000250623 0.0456711)
(0.000677228 0.000168709 0.0825381)
(-0.0052518 0.00437901 0.00156054)
(0.00942127 -0.000111848 -0.00302254)
(-0.00210469 0.00207807 0.0105552)
(-8.82953e-05 -0.0108778 0.00447179)
(0.00159007 0.00133557 0.0414441)
(-0.00244766 5.84434e-05 0.0860341)
(-0.00139982 0.00152786 0.01932)
(0.00100212 0.00674406 0.00404632)
(0.000585844 -0.000823627 0.0641644)
(0.00202517 -0.00171003 -0.00585451)
(0.00242499 0.00545426 0.0416126)
(0.00052601 2.78753e-05 0.0888493)
(-0.0030175 -0.000942793 0.0865935)
(-0.000274692 0.00169565 0.0880118)
(-0.00107147 0.00481727 0.081501)
(0.00101358 -0.000871906 0.0894676)
(-0.000593986 -0.00274917 0.0797614)
(-0.00434141 -0.00442484 0.0148099)
(-0.00146883 -0.00316658 0.084592)
(0.00316605 -0.000844249 0.0758538)
(-0.00361689 0.000718382 0.0352279)
(-0.00714808 -0.00301191 0.0485975)
(-0.000670011 -0.00156225 0.0851792)
(0.00300622 -0.00425145 0.0655395)
(0.00263368 0.00945523 0.0258559)
(0.00180069 -0.0023868 0.083386)
(0.00577863 -0.000116893 -0.011497)
(0.00397768 -9.87676e-05 0.0420214)
(-0.002678 0.00339808 0.0523659)
(-0.0044587 0.00501051 0.00935923)
(0.000731995 -0.000209373 0.0851381)
(-0.0158386 0.0021262 0.0619703)
(-0.00274108 -0.00124831 0.0773181)
(0.00055332 0.00183202 -0.00376332)
(-0.00876207 -2.21577e-05 0.000819536)
(-0.00367471 0.00421322 0.0126698)
(0.00221677 -0.00660133 -0.002466)
(-0.00346358 0.00131117 0.0830757)
(-0.000768862 0.00130244 0.0827196)
(-0.00313008 -0.00129149 0.0757082)
(-0.0111055 -0.00010261 0.0634443)