/*--------------------------------*- C++ -*----------------------------------*\
| =========                 |                                                 |
| \\      /  F ield         | OpenFOAM: The Open Source CFD Toolbox           |
|  \\    /   O peration     | Version:  2406                                  |
|   \\  /    A nd           | Website:  www.openfoam.com                      |
|    \\/     M anipulation  |                                                 |
\*---------------------------------------------------------------------------*/
FoamFile
{
    version     2.0;
    format      ascii;
    arch        "LSB;label=32;scalar=64";
    class       volVectorField;
    location    "6";
    object      momentum:momentum;
}
// * * * * * * * * * * * * * * * * * * * * * * * * * * * * * * * * * * * * * //

dimensions      [1 1 -1 0 0 0 0];

internalField   nonuniform List<vector> 
59516
(
(1.52352e-07 -4.33432e-09 -2.04271e-09)
(9.05538e-08 -2.53938e-09 -4.27566e-09)
(1.2395e-07 1.09287e-09 -4.59795e-09)
(1.01102e-07 4.31534e-10 1.11483e-09)
(1.30903e-07 4.35289e-09 -3.82948e-09)
(4.709e-08 -1.30326e-09 1.75561e-09)
(1.31736e-07 6.24773e-10 3.7235e-09)
(1.06971e-07 -5.09361e-09 1.73057e-08)
(8.9342e-08 -4.5942e-09 9.22891e-09)
(3.44277e-08 1.33416e-09 9.92827e-10)
(1.18645e-07 8.46282e-10 3.87975e-09)
(3.88393e-08 -4.1823e-09 -1.27245e-08)
(1.79598e-07 4.82239e-09 -1.77485e-08)
(1.34404e-08 1.94239e-09 -1.88382e-09)
(5.09794e-08 -3.11137e-09 2.50928e-08)
(7.8081e-09 2.35999e-08 7.11648e-10)
(1.43906e-07 -3.12602e-09 -1.69845e-09)
(4.0898e-08 7.14435e-10 -8.75456e-09)
(1.91456e-07 8.35538e-09 -1.05662e-08)
(1.93761e-07 -5.14782e-09 -2.93813e-09)
(3.17133e-08 1.16714e-09 3.11792e-09)
(1.85567e-07 2.35014e-09 3.40076e-09)
(1.94853e-07 -4.25612e-09 2.7223e-10)
(2.29674e-09 -6.75394e-09 5.37607e-09)
(1.74896e-07 -8.05342e-10 -3.65711e-09)
(1.38394e-08 -4.79771e-10 2.85655e-09)
(7.2966e-09 -5.92275e-09 -6.355e-09)
(2.71544e-08 1.70812e-08 7.98272e-09)
(5.20338e-08 -1.05559e-09 -4.46023e-09)
(1.82788e-09 -5.27106e-09 -3.85776e-09)
(1.10127e-07 -3.80738e-08 -5.82584e-09)
(3.64234e-08 2.14966e-08 2.95717e-10)
(9.77758e-08 1.21259e-09 -2.55164e-09)
(1.00504e-07 -1.97625e-09 7.58835e-09)
(7.62148e-08 -2.7379e-09 2.15572e-09)
(2.21205e-07 -3.25858e-09 1.24921e-08)
(-4.34335e-09 -3.43045e-09 -7.9955e-09)
(3.64113e-08 1.06437e-08 -9.372e-09)
(1.43915e-07 -1.25665e-08 -3.07727e-09)
(1.5295e-07 -2.12065e-09 -2.39243e-10)
(1.28436e-07 -3.61624e-09 -1.14729e-08)
(2.53422e-07 1.25094e-08 -4.99466e-10)
(1.97274e-07 8.62437e-10 7.80748e-10)
(6.88651e-08 -3.13569e-09 8.62572e-10)
(1.63602e-07 2.38373e-09 3.86171e-09)
(4.34785e-09 -1.51398e-08 -2.10098e-09)
(1.76499e-07 -5.58937e-11 -1.28033e-08)
(1.43354e-07 2.42139e-09 -1.88547e-09)
(1.82713e-07 -1.78215e-08 2.49972e-08)
(1.37003e-07 2.69683e-09 8.40626e-10)
(1.49307e-07 2.34335e-08 -3.02261e-08)
(9.2837e-09 -2.07937e-08 4.41434e-09)
(1.48993e-07 -2.74319e-09 -1.12028e-09)
(1.67183e-07 -1.62294e-09 -1.39089e-09)
(1.40976e-08 2.84164e-08 9.51082e-09)
(1.43298e-07 1.16987e-09 -4.51174e-09)
(1.24091e-07 3.97584e-09 4.22629e-09)
(2.47443e-08 1.5804e-08 -1.39557e-08)
(1.05135e-07 -1.83982e-09 1.53705e-09)
(8.57463e-08 9.39472e-10 6.32223e-09)
(1.21474e-07 4.48994e-10 1.64479e-10)
(-6.28604e-09 8.15535e-09 2.51126e-09)
(1.32665e-07 -3.52532e-10 -1.10461e-09)
(1.79584e-07 8.91891e-10 -1.94709e-10)
(1.87795e-07 -3.52655e-09 -1.18918e-09)
(1.24114e-07 -1.67756e-09 -2.2936e-09)
(1.19936e-08 -5.16929e-09 4.87857e-09)
(8.19549e-09 5.51316e-09 3.61149e-09)
(1.30549e-07 -1.16119e-09 2.53372e-08)
(9.98933e-08 4.69571e-10 -5.78173e-11)
(1.70502e-08 1.4922e-08 -6.86094e-09)
(8.76185e-08 1.14464e-09 1.70346e-09)
(-4.88232e-09 -2.82498e-09 -1.08787e-08)
(1.11181e-07 -3.41637e-09 8.0442e-10)
(1.7525e-07 -3.91268e-09 3.99203e-10)
(1.95737e-07 4.60065e-09 6.28953e-10)
(1.14837e-07 -2.03976e-09 1.48818e-09)
(1.30615e-07 5.52134e-09 -3.22115e-09)
(4.59706e-09 -1.80427e-08 2.20686e-08)
(1.09292e-07 2.70009e-09 5.25215e-09)
(4.86737e-09 2.04931e-08 1.41189e-08)
(9.77672e-08 1.05425e-09 2.23618e-09)
(1.06052e-07 2.24692e-09 1.57758e-09)
(-6.23371e-11 -2.26519e-09 9.6129e-09)
(1.24563e-07 1.43483e-09 1.99544e-09)
(1.89311e-07 -4.66009e-09 -1.04749e-09)
(-3.52755e-09 -5.61079e-09 -1.42797e-09)
(2.78629e-07 -1.1848e-08 8.69327e-09)
(-8.50607e-10 2.7532e-09 2.45773e-08)
(9.27354e-08 1.57651e-08 -4.54907e-10)
(1.18807e-07 -1.22051e-09 -9.24423e-09)
(1.05659e-07 7.94578e-09 3.89438e-09)
(1.40776e-07 -3.46132e-09 -3.31884e-09)
(1.04027e-07 -1.04983e-09 -3.25434e-09)
(9.65251e-08 1.84482e-09 -6.66044e-10)
(1.31189e-07 -8.44516e-09 7.1355e-09)
(7.80505e-08 1.09063e-09 2.99542e-09)
(1.56527e-08 -2.01596e-08 -1.40028e-08)
(5.75109e-08 6.03168e-09 2.72707e-09)
(1.12974e-07 -1.75649e-09 1.57821e-09)
(-2.44969e-08 -3.08496e-09 2.69845e-09)
(-3.34244e-09 -1.29721e-09 -2.52624e-09)
(2.36415e-09 -4.13655e-09 1.31949e-08)
(2.95311e-08 1.04636e-08 -1.24158e-08)
(1.17115e-07 7.0825e-09 3.53344e-09)
(9.00987e-08 -2.23583e-09 2.00276e-09)
(1.96051e-08 2.01376e-08 -3.47721e-09)
(8.21156e-08 2.98868e-10 5.17459e-09)
(1.001e-07 -7.43982e-09 1.2814e-10)
(5.47811e-08 1.27003e-08 -2.3841e-08)
(1.80905e-07 1.49956e-08 -8.80608e-09)
(-1.37152e-08 1.29022e-08 -8.77165e-09)
(6.0245e-08 1.17445e-08 -8.79507e-09)
(1.27286e-07 2.04908e-08 -2.37592e-09)
(1.16574e-07 -1.11127e-09 1.60258e-09)
(7.72011e-08 1.62244e-09 -4.20407e-09)
(4.74737e-09 7.75713e-11 -1.0688e-08)
(8.88062e-08 1.83662e-09 1.17179e-09)
(2.99009e-10 -9.73593e-09 -3.04473e-09)
(1.38233e-07 2.02663e-09 -5.52644e-09)
(2.05e-07 9.57014e-09 -3.18442e-09)
(9.27e-08 1.32924e-09 4.15554e-09)
(9.05343e-08 2.40425e-09 -5.51541e-10)
(9.54895e-08 9.72634e-10 1.37585e-09)
(9.01844e-08 -4.37467e-09 2.65862e-09)
(6.45102e-08 2.64945e-09 -1.29328e-08)
(9.60057e-09 4.28943e-09 1.09358e-08)
(1.43508e-07 -6.37109e-09 -1.60115e-09)
(8.8026e-08 -8.25098e-09 1.28336e-08)
(8.19593e-08 -2.29872e-09 9.03549e-10)
(1.39963e-07 2.48225e-09 5.76586e-09)
(2.06016e-07 9.13384e-09 2.23689e-09)
(-4.52515e-10 8.12162e-09 -3.34728e-09)
(1.46443e-07 2.33311e-09 3.13887e-09)
(1.61089e-07 1.44786e-09 -2.27242e-09)
(1.09675e-07 -6.3063e-10 8.34689e-11)
(8.51992e-08 8.31205e-09 -5.1549e-09)
(1.86325e-07 7.08234e-09 -8.10543e-10)
(-6.87037e-09 2.69429e-09 4.95753e-09)
(1.0077e-07 -3.94707e-09 -1.06858e-08)
(-4.90591e-09 2.34925e-09 -2.60847e-09)
(1.56585e-07 3.53669e-10 4.64092e-09)
(-1.40456e-09 -4.28862e-09 1.32968e-09)
(8.63481e-08 2.14714e-09 -8.89394e-10)
(1.07316e-07 -9.58643e-10 1.69601e-09)
(1.71142e-07 2.03436e-10 1.25631e-09)
(1.26221e-07 -1.87842e-09 -1.9961e-09)
(1.3277e-07 4.11142e-09 -8.24849e-09)
(3.71773e-08 -9.04224e-09 1.942e-09)
(1.31119e-07 -1.22734e-09 1.95174e-09)
(1.91313e-07 -1.32169e-08 1.0704e-08)
(7.18968e-10 -2.90168e-09 -3.02779e-09)
(2.09522e-07 -5.44041e-09 7.25793e-11)
(1.17496e-07 1.58005e-09 2.35638e-09)
(7.8461e-08 1.54152e-09 -4.46324e-10)
(5.47251e-09 2.8792e-09 2.36993e-09)
(1.73689e-07 -1.54664e-09 4.6908e-09)
(2.04892e-07 8.8279e-09 -1.28478e-09)
(6.79605e-08 4.99848e-09 4.5023e-09)
(3.47864e-09 6.5713e-09 -4.56042e-09)
(4.4258e-08 -6.33325e-09 -3.85752e-09)
(5.87595e-08 -8.18057e-09 -1.49382e-08)
(6.59166e-09 -3.31636e-09 -7.89306e-09)
(1.45225e-08 -9.11432e-10 -3.02158e-10)
(9.37599e-08 1.1345e-09 5.38822e-09)
(1.64634e-07 2.09209e-09 1.53392e-09)
(-1.54364e-09 -9.33449e-09 -3.0884e-09)
(1.45607e-07 1.01922e-09 2.53744e-09)
(5.35521e-09 -6.4748e-09 2.33645e-09)
(1.14638e-07 -3.99251e-09 -3.57422e-09)
(5.37216e-08 7.68194e-09 -1.41291e-09)
(1.8944e-08 4.60602e-10 -2.684e-10)
(4.13789e-08 -5.1202e-09 -2.0894e-09)
(9.02719e-08 9.25182e-10 -8.42952e-10)
(1.39271e-08 -7.14471e-09 1.91353e-09)
(2.49877e-07 6.815e-09 -9.82496e-09)
(1.25978e-07 -5.94543e-10 2.39992e-10)
(1.84799e-07 -4.87062e-09 -4.59797e-09)
(5.08783e-08 -1.21436e-08 6.12723e-10)
(1.02621e-08 3.84161e-09 -4.05339e-09)
(1.80545e-07 6.2113e-09 2.48653e-09)
(-3.68427e-09 -1.26877e-08 4.84746e-09)
(1.25819e-08 -9.6208e-09 -8.00771e-09)
(2.41876e-08 -3.4999e-09 -7.88903e-09)
(1.04361e-07 3.51779e-10 1.99594e-09)
(8.51547e-09 -5.62362e-09 -7.54183e-09)
(-1.15777e-08 -2.01229e-09 -1.26011e-08)
(-7.11821e-09 2.39336e-09 -8.17982e-10)
(1.1853e-07 9.19302e-11 7.32526e-09)
(1.35538e-07 3.57111e-09 2.43703e-09)
(9.06472e-08 -9.50714e-10 6.44696e-10)
(-8.56081e-09 1.57731e-08 -3.77323e-09)
(1.15804e-07 -8.69156e-10 4.57338e-09)
(2.85239e-08 9.33431e-09 4.73121e-09)
(1.91176e-07 -5.13732e-09 -4.41532e-09)
(-5.64659e-09 4.7586e-09 6.63746e-09)
(2.1431e-08 -6.5336e-09 -9.64182e-09)
(-5.93432e-09 -4.46875e-09 -4.61041e-09)
(1.0813e-07 3.08899e-09 3.68193e-09)
(1.49235e-07 4.6481e-09 1.47449e-09)
(4.53698e-08 -7.77258e-09 8.09217e-10)
(9.44084e-08 3.88089e-09 1.53693e-09)
(1.57079e-07 1.41815e-09 -2.56294e-09)
(-2.98794e-09 1.92765e-09 -5.00416e-09)
(1.40595e-07 -6.43599e-09 2.24268e-09)
(1.37461e-07 7.42698e-09 4.41207e-10)
(1.77563e-07 9.72818e-10 4.57621e-09)
(1.03652e-07 5.64814e-09 -2.70988e-09)
(2.83935e-09 2.20487e-09 9.49946e-10)
(1.86949e-07 1.70571e-09 1.38248e-09)
(1.24842e-09 9.94265e-09 7.10961e-09)
(2.3082e-09 -7.3562e-09 2.58403e-09)
(1.37817e-07 1.618e-09 -8.95436e-09)
(1.10532e-08 2.48288e-09 -3.46527e-10)
(1.7508e-07 7.65988e-09 -2.14261e-09)
(1.42273e-07 -2.53706e-09 1.70147e-09)
(1.61303e-07 -1.26844e-09 -2.00387e-10)
(1.20588e-07 -1.54196e-09 -1.26687e-09)
(1.14744e-08 8.26876e-09 -3.78614e-09)
(1.29212e-07 1.0303e-09 2.40221e-09)
(2.36558e-08 -4.14646e-09 7.35708e-09)
(1.12643e-07 -1.28835e-09 -3.9005e-09)
(9.65543e-08 -3.3348e-10 3.02197e-09)
(1.82678e-08 -1.38956e-08 1.52499e-09)
(1.48238e-07 -3.30802e-09 -9.00904e-10)
(1.57565e-07 2.81959e-09 -1.03468e-09)
(-6.27546e-09 -4.52746e-09 -8.2799e-09)
(1.13327e-08 1.46413e-08 -7.61762e-09)
(1.02281e-07 4.62188e-10 2.11202e-09)
(-8.56586e-09 1.64358e-08 -1.8461e-08)
(1.34145e-07 -1.32453e-09 -1.76906e-09)
(9.05561e-08 8.1748e-10 1.57053e-09)
(1.51258e-07 -1.33177e-09 -4.57772e-09)
(-1.0951e-08 -6.00553e-09 -1.79373e-09)
(-8.44774e-09 -3.67799e-10 -7.1026e-09)
(8.20029e-09 -3.97826e-09 -2.18699e-09)
(2.5638e-08 -6.57886e-09 1.3587e-08)
(8.94485e-08 -1.04425e-09 -5.42538e-09)
(2.32478e-07 -6.83183e-09 2.2595e-09)
(3.18207e-09 -1.74861e-08 1.0841e-08)
(1.21426e-07 -1.14762e-09 3.46272e-09)
(-1.71061e-09 -2.65054e-09 9.4808e-09)
(-5.69648e-10 8.51688e-09 1.5014e-08)
(5.43958e-09 1.04302e-09 4.4629e-09)
(8.51068e-08 -3.75934e-10 1.66514e-10)
(9.68221e-08 5.55465e-10 -6.81011e-09)
(1.1441e-07 -3.69897e-09 -2.71693e-09)
(4.90151e-08 1.29974e-09 -5.03663e-09)
(1.58588e-07 -4.82839e-10 6.36166e-10)
(1.10077e-07 4.55211e-09 -9.11396e-09)
(2.01649e-07 1.71201e-09 2.12203e-09)
(1.22575e-07 9.97361e-10 2.93078e-10)
(9.63727e-08 -1.64194e-09 3.08371e-09)
(1.64064e-07 -3.08544e-09 -1.30591e-09)
(1.6184e-07 2.46445e-09 2.51451e-10)
(1.64497e-07 -6.83429e-11 2.31293e-09)
(3.05764e-09 1.23825e-08 -1.87276e-08)
(1.59536e-07 -2.44964e-09 8.09123e-09)
(8.86119e-09 2.0705e-09 -4.47843e-09)
(2.64808e-08 -5.36973e-10 1.65531e-09)
(1.23262e-07 -1.24841e-09 4.72331e-10)
(1.40538e-07 2.0248e-09 1.58355e-09)
(1.63842e-07 -2.91802e-09 3.17959e-09)
(1.4657e-07 -1.07758e-09 -3.77911e-09)
(4.75915e-08 -3.18636e-09 9.58624e-10)
(-8.43902e-09 8.18164e-09 -8.08768e-09)
(1.7154e-07 2.0685e-09 8.42136e-09)
(7.44797e-08 -4.32153e-09 8.20989e-10)
(6.63545e-09 3.84596e-09 6.41798e-09)
(1.62553e-08 -4.6686e-09 1.06675e-09)
(9.78754e-08 9.48553e-09 -5.61585e-09)
(9.56949e-08 -7.69067e-10 -5.77421e-10)
(1.38e-07 -1.06526e-08 6.38537e-09)
(7.50505e-08 -2.55227e-09 5.43153e-09)
(1.79182e-07 -3.64328e-09 5.59312e-09)
(1.01477e-07 -1.19221e-08 5.70557e-09)
(7.48723e-10 6.77188e-09 -2.26789e-09)
(1.63275e-07 3.49106e-09 1.65131e-09)
(-2.79759e-09 1.18346e-09 -8.15937e-09)
(-5.33702e-09 -1.30102e-08 1.43567e-08)
(1.62546e-07 -3.905e-09 -8.92039e-10)
(1.41784e-07 -1.99875e-09 -3.62668e-10)
(-8.30465e-09 9.52419e-09 4.52121e-09)
(1.76103e-07 5.66955e-09 -1.01361e-08)
(1.44674e-07 5.63652e-09 1.8398e-09)
(1.27664e-07 -5.1602e-09 -2.97966e-09)
(1.61671e-07 4.69869e-09 1.32768e-09)
(4.87828e-09 4.10596e-09 -5.13156e-09)
(1.30738e-07 -3.16263e-09 -1.618e-10)
(7.10657e-08 -1.18952e-09 -9.39227e-10)
(8.46622e-08 -1.52241e-09 1.52565e-10)
(1.37912e-07 -1.21865e-08 3.74939e-09)
(9.64537e-08 1.10858e-09 -5.66567e-10)
(7.60144e-08 -4.40712e-09 -4.53984e-09)
(1.43891e-07 -1.14735e-09 -5.9819e-10)
(-1.59217e-08 1.62485e-09 -7.59675e-09)
(1.46365e-07 3.80686e-10 1.84939e-09)
(1.20268e-07 -2.61763e-09 3.01698e-09)
(1.79813e-07 -5.76745e-09 -2.58941e-09)
(1.32908e-07 2.51255e-10 2.3792e-09)
(1.9325e-07 6.04734e-09 -4.58422e-09)
(-6.79094e-09 1.26172e-08 1.34876e-08)
(-3.71106e-09 -6.99387e-09 -2.48383e-09)
(-7.80148e-09 2.6738e-09 3.31277e-09)
(2.78018e-07 2.99333e-09 -4.13975e-09)
(5.94921e-10 3.78568e-09 1.11168e-08)
(1.54181e-08 -3.74565e-09 -1.2404e-08)
(1.34788e-08 9.28719e-09 5.82659e-09)
(1.71483e-07 1.31464e-09 -3.52579e-10)
(1.88389e-07 1.08794e-10 -4.69136e-09)
(1.77819e-07 1.6655e-09 3.75475e-10)
(2.85988e-08 3.54875e-11 -1.18613e-08)
(1.32585e-07 -8.29554e-09 -1.03944e-09)
(-2.3399e-09 -5.0381e-09 7.56945e-09)
(3.02648e-08 -4.40114e-09 1.10316e-08)
(1.03879e-07 -1.42263e-09 -6.84769e-10)
(8.37088e-08 8.57124e-09 -7.04205e-09)
(2.29064e-07 3.42631e-08 1.28855e-08)
(9.2787e-08 3.2055e-09 2.26046e-09)
(-1.37439e-08 -6.96451e-10 -1.22104e-08)
(1.91081e-08 -8.51012e-09 1.50564e-09)
(1.19414e-07 -2.6346e-09 8.67003e-09)
(1.05649e-07 -1.80952e-09 4.12354e-09)
(2.15399e-07 9.63194e-09 6.67399e-09)
(1.12163e-07 9.02365e-10 -8.77193e-10)
(2.61426e-07 -5.68513e-09 7.40002e-09)
(9.49413e-08 -1.49815e-08 7.46525e-09)
(1.80568e-07 8.89855e-09 7.77706e-10)
(1.37703e-07 1.59628e-09 -1.98633e-10)
(1.12918e-07 1.54026e-09 2.63051e-09)
(1.79371e-07 -9.91141e-11 -3.87885e-09)
(3.16563e-08 -1.98169e-09 -1.08185e-08)
(1.50086e-09 -2.95814e-09 3.20458e-09)
(1.69554e-07 1.3333e-10 2.99402e-09)
(-6.95378e-09 -3.51528e-09 2.38995e-09)
(7.02772e-10 -3.26567e-10 -4.15639e-09)
(2.08512e-07 -3.86193e-10 6.68463e-09)
(1.14291e-07 1.1007e-09 2.94917e-09)
(3.54538e-08 6.61593e-10 -4.79825e-09)
(1.34012e-07 1.59562e-10 2.35708e-09)
(1.74479e-07 -7.18461e-09 2.10317e-09)
(1.99348e-07 5.72745e-09 -2.2008e-09)
(1.34658e-07 2.69929e-09 3.25991e-09)
(-8.97458e-09 6.09658e-09 3.31684e-09)
(1.71692e-07 -1.53518e-09 3.47531e-09)
(1.08841e-07 6.51805e-10 -7.04031e-10)
(-4.53785e-09 1.15301e-09 7.39448e-10)
(1.49931e-07 2.53342e-09 -1.11922e-09)
(1.27296e-07 3.47061e-09 -1.78153e-09)
(1.08967e-07 1.94098e-09 -6.45313e-09)
(1.1418e-07 -2.76591e-09 -1.77848e-09)
(1.53101e-07 -1.26539e-09 -6.83473e-09)
(1.12003e-07 -6.92337e-09 -4.46912e-10)
(3.55931e-08 -4.49696e-09 2.36463e-09)
(4.82215e-09 -1.43115e-09 -6.65646e-10)
(-1.61721e-08 -2.57983e-09 5.28093e-09)
(1.02399e-07 -1.33093e-09 8.20297e-09)
(9.06904e-08 8.10697e-09 1.53558e-08)
(4.65859e-08 3.02097e-09 7.06981e-09)
(5.14623e-08 -3.65913e-09 2.29208e-09)
(1.29526e-07 1.10464e-08 4.42452e-10)
(1.85178e-07 -2.95804e-09 -4.18781e-09)
(1.27122e-07 -6.31085e-10 4.37313e-09)
(2.10284e-07 9.48145e-09 -2.64295e-09)
(1.93846e-07 -2.39808e-09 -2.66901e-09)
(1.31777e-07 -1.20529e-09 2.99139e-09)
(8.26375e-08 1.56711e-09 3.09904e-10)
(5.5482e-09 -5.6989e-09 -5.9728e-10)
(1.50244e-07 -4.2839e-08 1.26969e-08)
(3.78918e-08 6.37712e-09 4.47396e-09)
(-1.11699e-08 -1.16708e-08 -4.46762e-09)
(-8.35605e-09 2.18359e-08 3.22485e-09)
(9.95636e-08 6.42004e-11 2.11444e-09)
(8.90511e-08 -5.36179e-09 -1.57109e-08)
(1.27016e-07 2.38461e-09 -3.87787e-10)
(2.90387e-09 4.49858e-09 -1.84212e-09)
(1.084e-07 -7.07606e-10 -1.67861e-10)
(2.27084e-08 2.08724e-09 -1.30864e-08)
(1.0302e-07 1.62305e-10 2.8334e-09)
(9.13145e-09 -1.14398e-08 5.07793e-10)
(6.38867e-08 -2.23301e-09 -7.08341e-09)
(1.44265e-07 -9.49606e-10 1.98216e-09)
(1.10658e-07 2.2053e-09 -3.11284e-09)
(2.91896e-09 2.47143e-09 -1.4293e-09)
(2.20419e-08 -1.14345e-08 3.09079e-09)
(1.40202e-07 2.85241e-09 1.23244e-09)
(-3.40279e-09 -1.82456e-09 -5.46489e-09)
(1.65803e-07 -7.00806e-10 5.02775e-09)
(1.097e-07 -7.15995e-09 3.11975e-09)
(1.79089e-07 1.01327e-09 -7.53081e-10)
(1.13754e-07 1.65771e-11 1.97088e-09)
(5.17538e-08 -1.12511e-09 -1.92979e-09)
(2.33192e-07 -7.3138e-10 -2.77992e-09)
(4.90569e-08 -1.44045e-08 -1.64264e-08)
(1.56071e-07 2.26482e-09 -2.15047e-09)
(7.75295e-08 6.77557e-09 4.77838e-09)
(3.87488e-08 4.49747e-09 -1.42953e-08)
(3.83187e-08 2.69695e-09 -1.55923e-08)
(1.31499e-07 7.70376e-10 1.1833e-09)
(2.71753e-07 2.29856e-09 1.07778e-09)
(1.80616e-08 -5.5157e-10 -6.13844e-09)
(1.98291e-07 5.87733e-09 3.96038e-09)
(6.55285e-08 -4.74469e-10 -3.75861e-09)
(2.16265e-07 -3.02093e-09 4.58875e-11)
(1.63202e-07 -5.38234e-09 5.20262e-10)
(-1.30755e-08 6.50072e-09 -8.87499e-09)
(1.1985e-07 -7.53829e-10 -1.01726e-09)
(2.29507e-07 -4.84735e-09 -3.22393e-09)
(1.3066e-07 3.81241e-09 8.47877e-10)
(1.28052e-07 6.24597e-10 -2.50613e-09)
(-1.78538e-08 -4.32953e-09 -1.07327e-08)
(-1.46319e-09 9.81965e-09 -3.40676e-09)
(1.60108e-07 4.82137e-09 3.19119e-09)
(1.43357e-07 1.68809e-09 2.63626e-09)
(1.09978e-07 -6.76048e-10 4.63608e-12)
(8.16667e-09 -1.81706e-09 -5.13959e-09)
(4.631e-08 5.22986e-10 -5.23456e-10)
(1.53692e-07 -3.96717e-09 4.36059e-09)
(8.51863e-08 -8.00739e-10 -1.32378e-09)
(1.60625e-07 6.34865e-10 -1.9291e-09)
(1.39114e-07 2.50547e-10 -4.67043e-09)
(1.17861e-07 1.66873e-09 2.4436e-09)
(1.21947e-07 9.37837e-10 1.88389e-09)
(6.78237e-08 -2.1826e-09 -4.05109e-09)
(9.96676e-08 -4.54324e-09 -2.74207e-10)
(1.98168e-08 -2.05538e-09 -1.07937e-08)
(1.53376e-07 -3.11047e-09 -1.19199e-09)
(1.00515e-07 9.56616e-09 4.30392e-09)
(1.1687e-07 1.86043e-09 -1.31928e-09)
(1.09591e-07 -4.07659e-09 1.5205e-09)
(1.98563e-07 4.06499e-10 -7.03895e-09)
(1.47051e-07 -8.05302e-10 1.5991e-10)
(-2.09592e-09 1.05886e-08 2.3309e-09)
(-1.94459e-08 7.71661e-09 1.77535e-10)
(2.18082e-09 6.35608e-09 -1.71179e-09)
(1.30983e-07 -1.1217e-09 2.84165e-09)
(1.39882e-07 5.87187e-10 -6.34525e-10)
(1.58e-07 -1.07505e-09 7.92996e-10)
(1.12329e-07 5.91772e-09 -5.06019e-09)
(-9.92299e-09 6.51906e-09 3.63746e-09)
(4.64347e-10 1.03245e-08 5.47766e-09)
(1.10022e-07 -4.92288e-09 7.00497e-09)
(1.3498e-07 4.38822e-09 7.62608e-10)
(1.56462e-07 3.27102e-09 -1.87504e-09)
(1.82876e-07 7.02482e-09 1.15085e-09)
(1.25205e-07 2.7553e-09 -4.6335e-10)
(1.56509e-07 5.36892e-09 3.35123e-09)
(2.2502e-07 4.11468e-09 2.83558e-09)
(-8.98237e-10 4.53113e-09 5.28256e-09)
(1.08059e-07 -3.27307e-09 -1.07403e-09)
(1.07476e-08 4.69123e-10 3.51293e-09)
(3.25957e-08 -5.58924e-09 2.42272e-09)
(7.16809e-08 -1.89171e-09 -1.58781e-09)
(6.81655e-08 -4.8517e-09 1.52772e-08)
(1.45536e-07 2.04955e-09 1.79604e-09)
(-3.83924e-09 -9.7363e-09 -5.34998e-09)
(1.90766e-07 8.53753e-09 -4.00739e-09)
(1.40175e-07 4.52447e-10 -1.94565e-09)
(1.0509e-07 -1.32631e-09 1.3555e-09)
(8.30744e-08 5.49341e-09 4.69669e-09)
(9.17472e-08 -1.07546e-09 1.86046e-09)
(1.29955e-07 5.97469e-10 3.07223e-10)
(1.33109e-07 -5.67634e-09 -3.94307e-09)
(1.48453e-07 -8.43987e-11 8.15217e-11)
(9.6851e-08 9.42214e-09 -3.10337e-10)
(1.39437e-07 -3.33213e-09 -2.46014e-09)
(1.62547e-07 -6.06258e-09 4.47446e-10)
(-3.10453e-09 7.27692e-09 2.21569e-09)
(1.53485e-07 2.34715e-09 -2.07712e-09)
(1.00629e-07 4.64558e-09 -2.49171e-10)
(-1.04299e-08 1.58995e-09 1.11537e-08)
(1.10043e-07 5.49238e-10 4.3658e-09)
(1.75432e-07 8.23308e-10 1.71222e-09)
(1.24158e-07 -4.85211e-10 -2.24714e-09)
(5.89395e-08 3.41965e-09 3.03859e-10)
(-1.9413e-09 -7.64506e-09 -4.20356e-09)
(1.26641e-07 3.09458e-09 1.54298e-09)
(1.79909e-07 1.21942e-08 -4.94934e-09)
(1.27334e-07 5.35932e-09 -2.14087e-09)
(1.12337e-07 -3.74416e-10 -2.05118e-10)
(-1.72284e-08 4.99831e-09 1.85566e-08)
(1.32669e-07 -2.31302e-09 5.176e-09)
(5.95698e-09 6.3773e-09 4.6014e-10)
(9.22126e-08 7.56017e-10 -8.95727e-10)
(2.01789e-07 3.38743e-08 -5.92142e-09)
(1.38582e-07 6.15837e-10 1.01461e-09)
(2.44024e-08 -1.1396e-08 2.54041e-09)
(1.01983e-07 9.25232e-10 -3.80167e-09)
(6.33791e-08 1.62948e-09 3.47142e-09)
(-8.41162e-09 3.50776e-09 3.79402e-09)
(2.2024e-07 9.27519e-09 6.827e-09)
(1.05815e-07 1.61545e-09 -1.37348e-10)
(4.30812e-09 -4.09828e-09 -4.92591e-09)
(1.4864e-07 -4.14459e-09 -4.20068e-09)
(1.29792e-07 -3.33567e-09 -2.83408e-09)
(4.49279e-10 1.88843e-09 -4.91309e-09)
(3.16906e-08 8.91775e-09 -3.90283e-09)
(-1.76441e-08 -9.83639e-10 1.89997e-08)
(1.05892e-07 5.01815e-09 -1.03179e-09)
(1.28743e-07 -3.41778e-09 -2.81372e-10)
(2.20476e-08 -6.7605e-09 3.29112e-09)
(9.24759e-10 -1.1429e-08 -9.94641e-09)
(1.85002e-08 -8.67561e-09 6.90847e-09)
(9.93091e-08 -1.60549e-09 -4.13764e-09)
(1.61014e-07 -4.32742e-09 9.93887e-10)
(2.8801e-10 4.99835e-09 -5.9045e-09)
(2.00534e-07 -1.26264e-09 1.71484e-09)
(1.35965e-07 -1.65964e-09 4.13534e-09)
(1.32174e-07 3.06597e-10 -9.42688e-11)
(1.11022e-07 5.65786e-09 -5.51847e-09)
(1.81748e-07 -1.34081e-09 -4.03271e-09)
(-1.12822e-08 -2.11151e-10 -3.72534e-10)
(1.63108e-07 -2.01099e-09 -9.96653e-10)
(4.9847e-09 4.95072e-10 -1.88784e-09)
(3.91164e-08 -1.66648e-08 -5.69379e-09)
(1.2507e-07 -4.19071e-10 2.66103e-09)
(1.80848e-08 -4.28238e-09 -6.00279e-09)
(-7.93471e-11 3.75712e-09 -5.00601e-13)
(6.81766e-10 6.56467e-09 8.84301e-09)
(-3.40696e-09 -5.1372e-09 -1.57627e-08)
(3.0783e-08 8.11485e-09 -7.13574e-09)
(1.98423e-07 2.06941e-10 5.07317e-09)
(9.33046e-09 3.67041e-09 -2.23745e-09)
(1.46759e-08 1.36573e-08 -7.84172e-09)
(1.50593e-07 -1.6786e-10 -1.19171e-08)
(1.07513e-07 7.46036e-10 9.65794e-10)
(-1.45629e-08 1.48829e-08 2.82261e-10)
(1.07472e-07 -3.32328e-09 -6.42575e-09)
(4.74496e-08 4.99258e-09 6.16191e-10)
(1.09285e-07 9.54242e-10 2.02302e-09)
(4.05003e-08 -8.84524e-10 -4.49565e-09)
(9.11377e-08 5.50746e-10 9.94656e-10)
(3.07329e-08 -6.30549e-09 2.68908e-09)
(8.27525e-08 1.75505e-09 -9.88819e-10)
(7.70737e-08 3.0224e-09 -2.64879e-09)
(1.34078e-08 5.07027e-09 -6.92496e-09)
(1.40085e-07 4.68486e-09 -4.41353e-10)
(2.44527e-08 4.4637e-09 4.51499e-09)
(2.03925e-09 5.84899e-09 -1.29847e-09)
(1.69118e-07 -9.70607e-09 4.54637e-09)
(9.22599e-08 3.08169e-09 -4.10666e-09)
(1.75529e-07 4.61539e-09 -6.61152e-09)
(1.38528e-07 9.20863e-09 2.28372e-09)
(2.20674e-07 1.49285e-09 3.05686e-09)
(2.39419e-08 5.81141e-09 -5.21155e-09)
(2.22606e-07 1.52962e-09 2.01011e-09)
(2.23495e-08 7.20367e-09 5.19207e-09)
(7.29442e-08 2.48268e-09 4.26431e-10)
(1.57616e-07 -3.28164e-09 6.58517e-09)
(-1.01721e-08 5.96537e-09 -7.40239e-09)
(1.76743e-07 3.33827e-09 -4.92828e-09)
(6.20285e-09 2.16445e-08 -1.16561e-08)
(-7.07893e-10 -6.32667e-09 1.75371e-09)
(1.65505e-07 -1.49137e-09 1.00187e-10)
(-7.97427e-09 -6.09637e-09 1.24098e-08)
(1.12573e-07 2.76426e-09 2.98628e-09)
(1.07786e-07 -7.18875e-10 5.12666e-09)
(1.96022e-07 -6.07176e-09 -1.90145e-10)
(7.31813e-10 -8.71667e-09 5.31954e-09)
(1.47954e-07 1.41648e-09 -1.1926e-10)
(7.38945e-08 -2.14267e-09 -2.6923e-09)
(1.51227e-07 -2.00764e-09 -1.04057e-09)
(1.62588e-07 3.06653e-09 3.68363e-09)
(1.4796e-07 -6.90562e-10 -3.93789e-09)
(8.32133e-08 5.45118e-10 -8.90024e-10)
(9.86025e-10 2.69554e-09 -1.4511e-08)
(7.80705e-09 -5.46498e-09 2.34133e-10)
(9.40012e-08 2.50734e-09 -4.77222e-10)
(1.55636e-07 5.90982e-10 -3.6563e-09)
(-1.47785e-09 -6.32624e-09 3.18321e-10)
(1.34588e-07 5.13769e-09 -4.91907e-09)
(2.47398e-07 -4.64095e-09 9.0102e-09)
(1.76958e-07 2.31992e-09 -1.1407e-09)
(1.86591e-07 2.06606e-11 6.43293e-09)
(1.45508e-07 -9.34578e-09 -6.47707e-09)
(1.07206e-09 2.7714e-09 -2.25437e-09)
(1.19595e-07 1.1495e-09 3.04147e-09)
(8.00408e-08 3.42341e-09 -6.34771e-09)
(1.44272e-07 -1.76191e-09 3.51206e-09)
(7.99417e-08 -1.24981e-09 3.72984e-10)
(-1.21833e-08 -5.66952e-09 8.89978e-09)
(9.87084e-08 2.26208e-09 -4.19933e-10)
(7.91412e-08 4.76077e-09 8.78048e-10)
(1.55261e-07 -1.05154e-08 -7.63629e-09)
(1.30023e-07 4.69453e-10 -9.20919e-10)
(1.13559e-07 7.27914e-09 -4.65764e-10)
(-2.46994e-10 2.42915e-09 -2.96632e-09)
(5.38978e-09 -4.20401e-09 -8.36767e-10)
(9.08983e-08 -3.47882e-09 -1.53499e-09)
(1.51445e-07 -8.45354e-10 3.16942e-09)
(1.19749e-07 2.08556e-09 4.87101e-11)
(9.35049e-08 3.81816e-09 -4.43896e-09)
(6.29783e-08 -2.51315e-09 4.61385e-09)
(1.45368e-07 -6.45671e-09 2.40111e-09)
(1.36634e-07 -3.78545e-09 -1.382e-09)
(-3.49439e-09 6.73582e-09 -6.18013e-10)
(7.25631e-08 -1.18028e-09 -1.87247e-10)
(1.19201e-07 -6.13175e-09 1.15708e-09)
(2.76463e-09 -6.0813e-09 3.27808e-09)
(9.64498e-09 -7.25281e-09 3.04522e-09)
(1.79054e-07 2.74578e-09 -6.43227e-09)
(1.29808e-07 -3.03961e-09 -2.21308e-09)
(1.06891e-07 -5.13027e-10 5.53239e-09)
(1.38212e-07 2.84338e-09 4.93537e-10)
(8.18129e-08 -5.02238e-09 4.10647e-09)
(1.71261e-07 1.34956e-09 -4.93521e-11)
(7.3881e-08 6.68149e-09 3.05263e-09)
(2.41281e-07 -6.49237e-09 -1.30946e-09)
(1.07395e-07 -3.01722e-09 1.24906e-09)
(1.1548e-07 1.53276e-09 -3.1321e-09)
(1.62729e-07 -3.07355e-09 -1.66805e-09)
(2.29364e-09 4.06477e-09 -1.5972e-09)
(2.75403e-07 -9.50258e-09 -2.92572e-09)
(-6.04761e-09 -1.76055e-09 -6.92183e-09)
(7.8099e-08 -1.10734e-08 3.13564e-09)
(3.02212e-08 -4.10452e-09 1.37389e-09)
(1.04028e-07 -1.64525e-09 -8.18476e-09)
(1.29489e-07 -1.05557e-08 -3.25221e-09)
(1.5934e-07 -2.48636e-08 -6.68959e-09)
(7.34131e-08 8.65493e-10 1.26762e-09)
(1.68905e-07 4.13228e-10 5.2173e-09)
(1.92578e-07 1.52441e-09 2.21096e-09)
(1.07181e-07 1.05754e-09 2.09686e-09)
(3.42067e-09 -1.22097e-09 -3.40611e-09)
(1.18348e-07 -8.52424e-09 -7.63532e-09)
(1.51461e-07 1.27696e-09 -3.09252e-08)
(1.08128e-07 -1.40279e-09 1.55392e-09)
(6.47106e-08 -1.83108e-09 -2.69051e-09)
(1.4072e-07 -8.14901e-09 6.13731e-10)
(1.31243e-07 -3.28704e-09 4.38838e-09)
(1.56749e-07 -7.605e-09 2.09893e-08)
(-1.22887e-08 1.39136e-09 9.02817e-09)
(8.25137e-09 -2.08686e-09 4.10974e-09)
(-1.7232e-08 7.57615e-09 -6.17033e-09)
(9.98204e-09 5.54864e-09 -2.24473e-11)
(-4.44333e-09 -2.53889e-09 6.59553e-09)
(1.38737e-07 2.12143e-09 7.53039e-10)
(1.0667e-07 1.54374e-09 -1.89368e-09)
(7.3248e-09 -4.62369e-09 2.26401e-09)
(9.0214e-09 4.43168e-09 6.06819e-10)
(1.74593e-07 4.53087e-09 -3.81759e-09)
(7.87263e-08 -2.08685e-08 1.58816e-08)
(-2.27204e-09 1.04664e-08 6.17138e-09)
(1.31927e-07 -3.59187e-09 -4.85758e-09)
(5.63827e-08 2.02232e-09 -1.70659e-09)
(1.17845e-07 -1.10918e-09 -1.72644e-09)
(6.90428e-09 1.45333e-09 -7.09638e-09)
(5.49004e-09 -3.46191e-09 1.14845e-09)
(1.19159e-07 1.48941e-09 5.84286e-10)
(1.43737e-07 -1.93444e-09 6.03019e-09)
(2.16879e-07 -4.11665e-10 7.59771e-09)
(1.55519e-09 -3.4237e-09 -2.5328e-09)
(-1.07009e-08 -1.05831e-08 -8.45573e-10)
(1.81387e-07 -2.83071e-08 -9.9202e-09)
(-9.06527e-09 -1.13432e-08 -3.54489e-09)
(1.79321e-07 1.03776e-09 -5.78735e-09)
(-3.24828e-09 1.01735e-08 -1.05846e-08)
(1.10672e-07 -1.03029e-09 6.53964e-09)
(1.55801e-07 3.27726e-09 -4.75072e-09)
(2.20924e-07 -6.00066e-09 -4.37288e-10)
(2.51595e-09 4.61142e-09 -2.53879e-08)
(7.36244e-08 3.71787e-09 9.77674e-10)
(1.18742e-10 4.28233e-09 -2.42932e-10)
(-2.05998e-09 -9.07484e-10 -3.7554e-09)
(1.33917e-07 -2.57836e-09 -5.50805e-10)
(3.19521e-09 -8.06268e-09 -4.07046e-09)
(9.60907e-08 -2.93112e-09 2.28861e-09)
(-5.38481e-09 -1.62087e-08 -1.06893e-08)
(1.77345e-07 -6.56914e-09 -1.71156e-09)
(1.30929e-07 -5.74519e-11 2.5159e-09)
(-4.42022e-09 -4.03972e-09 5.11131e-09)
(1.74953e-08 -8.6203e-09 6.69276e-09)
(1.36063e-07 -4.77263e-09 1.10503e-09)
(-3.38212e-09 -6.1436e-10 -5.70873e-09)
(1.51306e-07 3.7994e-09 -5.07004e-09)
(3.09263e-09 -1.41834e-08 1.16914e-08)
(1.323e-07 1.03867e-08 7.16891e-09)
(1.18218e-07 8.83414e-10 -7.01377e-10)
(-5.3922e-09 6.0843e-09 1.04512e-08)
(-1.89737e-09 8.47102e-09 -6.05052e-09)
(1.47282e-08 -1.74773e-08 -2.41419e-10)
(2.14447e-07 4.80446e-08 1.11535e-08)
(1.28152e-07 -1.48241e-09 -1.39925e-08)
(1.71628e-08 -1.11698e-08 -1.35899e-09)
(7.45554e-08 -2.76894e-09 3.50274e-09)
(-4.61995e-09 -2.04721e-09 5.97873e-10)
(1.03011e-07 7.79237e-11 -1.89086e-09)
(-1.89371e-08 -1.49798e-09 -2.83691e-09)
(1.81088e-07 -2.69672e-10 1.17616e-09)
(1.59319e-07 2.60171e-09 -8.80398e-09)
(1.1505e-07 1.59643e-09 -3.23255e-09)
(-2.75964e-09 -1.10325e-09 -6.68938e-10)
(1.98334e-07 8.71269e-10 -2.62994e-09)
(7.97693e-08 9.76669e-10 -2.97378e-09)
(2.00542e-07 -5.39329e-10 1.13398e-09)
(1.46967e-08 5.34103e-09 -2.14958e-09)
(1.96061e-07 -3.15548e-08 1.80408e-08)
(1.51585e-07 1.4202e-09 1.45133e-09)
(-2.67124e-08 2.01842e-08 -5.0435e-09)
(1.23018e-07 -1.51833e-09 -1.6174e-09)
(1.95274e-07 6.53935e-09 -5.257e-08)
(9.86262e-08 2.21296e-09 -1.90932e-10)
(-3.46318e-09 -3.63503e-09 -3.26679e-09)
(7.88983e-09 8.12329e-09 -1.03165e-08)
(9.8097e-08 5.37619e-10 1.44433e-09)
(1.2712e-07 5.34092e-09 1.8479e-09)
(-5.32458e-09 -8.2601e-09 -2.72133e-11)
(1.08166e-07 -4.80856e-09 3.18855e-09)
(3.1824e-08 -9.37035e-09 -2.9309e-08)
(6.02712e-10 -4.23495e-09 3.40425e-09)
(1.08402e-07 -1.11531e-09 -5.03254e-10)
(1.5092e-07 -3.1927e-09 2.95318e-08)
(1.82164e-07 8.00531e-09 -2.90191e-09)
(1.06524e-07 -7.55241e-10 8.52751e-10)
(9.85443e-08 -7.87537e-11 4.73691e-10)
(1.56939e-07 3.21387e-09 1.52158e-09)
(1.27458e-07 9.18383e-09 3.57629e-09)
(4.87152e-09 6.1727e-09 -2.65276e-09)
(-3.0589e-08 9.05446e-09 -1.0459e-08)
(1.98714e-07 6.85513e-09 -2.16274e-09)
(1.92324e-07 -1.82838e-08 3.47619e-08)
(1.1607e-07 -4.97093e-09 5.42021e-11)
(1.06663e-07 -4.86082e-09 -1.76415e-09)
(3.90763e-08 5.62032e-09 -2.14783e-09)
(1.83184e-07 -1.57352e-09 6.52161e-09)
(1.11417e-07 3.99789e-09 -2.07624e-09)
(7.76519e-08 1.10819e-08 -5.45017e-09)
(1.19412e-07 9.00427e-09 -7.90791e-09)
(1.46339e-08 5.78225e-09 -7.15658e-09)
(3.94475e-08 9.67507e-09 -5.34003e-09)
(8.61275e-09 -1.70152e-08 -2.24812e-08)
(1.85803e-07 1.20692e-09 1.94019e-09)
(1.57023e-07 -3.89244e-09 3.47645e-09)
(6.68732e-08 4.68381e-09 -2.4699e-09)
(9.83563e-08 1.11291e-08 4.89532e-09)
(-3.44197e-09 1.27146e-09 -6.46122e-09)
(4.25396e-08 8.64431e-09 5.03841e-09)
(2.17494e-08 -8.73015e-09 -6.07156e-09)
(1.35938e-07 2.01891e-09 -8.60651e-10)
(1.23425e-07 -2.1875e-09 -2.95078e-09)
(2.09437e-07 -3.17859e-08 2.72523e-08)
(1.73452e-07 -1.45581e-10 2.57677e-09)
(3.45558e-08 3.05943e-09 -2.84874e-09)
(1.33005e-07 -5.00448e-10 1.97032e-08)
(1.37401e-07 -1.67349e-09 6.28213e-09)
(7.96848e-09 3.54446e-09 -1.06175e-09)
(1.24779e-07 3.91357e-09 -4.47229e-09)
(-1.18228e-08 2.81271e-09 -1.17228e-09)
(1.16265e-07 -2.86864e-10 2.69238e-11)