/*--------------------------------*- C++ -*----------------------------------*\
| =========                 |                                                 |
| \\      /  F ield         | OpenFOAM: The Open Source CFD Toolbox           |
|  \\    /   O peration     | Version:  2406                                  |
|   \\  /    A nd           | Website:  www.openfoam.com                      |
|    \\/     M anipulation  |                                                 |
\*---------------------------------------------------------------------------*/
FoamFile
{
    version     2.0;
    format      ascii;
    arch        "LSB;label=32;scalar=64";
    class       volVectorField;
    location    "6";
    object      momentum:angularMomentum;
}
// * * * * * * * * * * * * * * * * * * * * * * * * * * * * * * * * * * * * * //

dimensions      [1 1 -1 0 0 0 0];

internalField   nonuniform List<vector> 
59516
(
(-4.02616e-09 -2.5979e-09 1.52352e-07)
(3.25575e-09 -3.75896e-09 9.05538e-08)
(-4.544e-09 -1.29907e-09 1.2395e-07)
(-1.08628e-09 -4.99043e-10 1.01102e-07)
(-4.29176e-09 -3.89787e-09 1.30903e-07)
(1.84057e-09 1.18023e-09 4.709e-08)
(1.59762e-09 3.42088e-09 1.31736e-07)
(1.8024e-08 -7.54876e-10 1.06971e-07)
(3.40776e-09 -9.72968e-09 8.9342e-08)
(1.02808e-09 -1.30719e-09 3.44277e-08)
(3.96966e-09 1.02306e-10 1.18645e-07)
(-1.29235e-08 -3.51962e-09 3.88393e-08)
(-1.47332e-08 1.1009e-08 1.79598e-07)
(2.69457e-09 2.46918e-10 1.34404e-08)
(1.42131e-08 -2.09121e-08 5.09794e-08)
(-1.7567e-08 1.57754e-08 7.8081e-09)
(-3.45592e-09 -8.44586e-10 1.43906e-07)
(-8.12392e-09 3.33984e-09 4.0898e-08)
(-9.32943e-09 9.71693e-09 1.91456e-07)
(-5.92537e-09 1.50181e-10 1.93761e-07)
(5.0463e-10 -3.29074e-09 3.17133e-08)
(2.9882e-09 -2.8564e-09 1.85567e-07)
(-2.30713e-09 3.5869e-09 1.94853e-07)
(8.10673e-09 -2.96627e-09 2.29674e-09)
(-3.45507e-09 -1.44413e-09 1.74896e-07)
(-2.87147e-09 3.80416e-10 1.38394e-08)
(6.57223e-09 5.68073e-09 7.2966e-09)
(-1.33166e-08 -1.33477e-08 2.71544e-08)
(-1.35858e-09 4.37746e-09 5.20338e-08)
(7.20491e-11 6.53156e-09 1.82788e-09)
(-3.82349e-08 4.65245e-09 1.10127e-07)
(-1.90178e-08 1.00256e-08 3.64234e-08)
(1.36948e-09 2.47098e-09 9.77758e-08)
(-7.40206e-09 -2.58806e-09 1.00504e-07)
(9.69422e-10 -3.34715e-09 7.62148e-08)
(1.10147e-08 -6.73392e-09 2.21205e-07)
(-8.36952e-09 2.37637e-09 -4.34335e-09)
(-1.00923e-08 -9.96334e-09 3.64113e-08)
(-1.29288e-08 -4.8287e-10 1.43915e-07)
(2.13188e-09 -9.73128e-11 1.5295e-07)
(1.20291e-08 -7.81614e-11 1.28436e-07)
(8.84348e-09 -8.86159e-09 2.53422e-07)
(1.15147e-09 -1.65786e-10 1.97274e-07)
(-3.08527e-09 1.02845e-09 6.88651e-08)
(3.15466e-09 3.26237e-09 1.63602e-07)
(1.23973e-08 -8.94058e-09 4.34785e-09)
(-1.08651e-08 -6.77339e-09 1.76499e-07)
(1.70364e-09 -2.55259e-09 1.43354e-07)
(-3.05477e-08 3.04981e-09 1.82713e-07)
(-2.60475e-09 1.09309e-09 1.37003e-07)
(-3.82452e-08 -2.10275e-10 1.49307e-07)
(-1.42443e-08 -1.57786e-08 9.2837e-09)
(-2.94295e-09 -3.45218e-10 1.48993e-07)
(-2.13431e-09 1.15137e-10 1.67183e-07)
(-2.98772e-08 -2.30195e-09 1.40976e-08)
(-1.71375e-09 4.33445e-09 1.43298e-07)
(-5.80206e-09 -7.0234e-11 1.24091e-07)
(-2.04503e-08 -5.1298e-09 2.47443e-08)
(2.2892e-09 7.12054e-10 1.05135e-07)
(-5.42337e-09 -3.38234e-09 8.57463e-08)
(4.53931e-10 -1.50315e-10 1.21474e-07)
(-8.1267e-09 2.6025e-09 -6.28604e-09)
(1.13706e-09 2.26997e-10 1.32665e-07)
(-5.95727e-10 6.91731e-10 1.79584e-07)
(2.46537e-09 2.78795e-09 1.87795e-07)
(2.83957e-09 -1.07817e-10 1.24114e-07)
(-7.66666e-10 7.06642e-09 1.19936e-08)
(-6.52607e-09 -9.20935e-10 8.19549e-09)
(-2.48855e-08 4.90256e-09 1.30549e-07)
(-1.13187e-10 -4.59379e-10 9.98933e-08)
(-1.60084e-08 -3.67002e-09 1.70502e-08)
(-3.39441e-10 -2.02404e-09 8.76185e-08)
(5.81831e-09 -9.61629e-09 -4.88232e-09)
(3.20916e-09 -1.42124e-09 1.11181e-07)
(-3.72593e-09 1.25931e-09 1.7525e-07)
(3.21109e-09 -3.35416e-09 1.95737e-07)
(1.54111e-10 2.52023e-09 1.14837e-07)
(-5.57695e-09 -3.1239e-09 1.30615e-07)
(2.66319e-08 1.01638e-08 4.59706e-09)
(-5.80282e-09 1.09675e-09 1.09292e-07)
(-2.45927e-08 -3.80928e-09 4.86737e-09)
(-2.46213e-09 -2.23275e-10 9.77672e-08)
(-2.07191e-09 1.80127e-09 1.06052e-07)
(-8.51767e-09 4.99882e-09 -6.23371e-11)
(-2.37221e-09 6.4274e-10 1.24563e-07)
(-4.41888e-09 1.81304e-09 1.89311e-07)
(-8.43493e-10 5.72788e-09 -3.52755e-09)
(-1.92325e-09 1.45688e-08 2.78629e-07)
(-1.91825e-08 -1.56094e-08 -8.50607e-10)
(-1.07884e-08 -1.15046e-08 9.27354e-08)
(-9.3115e-09 4.91384e-10 1.18807e-07)
(-8.69085e-09 1.66453e-09 1.05659e-07)
(4.89892e-10 4.77026e-09 1.40776e-07)
(3.41397e-09 1.94267e-10 1.04027e-07)
(-6.07466e-10 1.86493e-09 9.65251e-08)
(-1.04315e-08 3.66331e-09 1.31189e-07)
(-3.06111e-09 8.89753e-10 7.80505e-08)
(2.0979e-08 1.27425e-08 1.56527e-08)
(-2.31432e-09 -6.20178e-09 5.75109e-08)
(1.27217e-09 1.98937e-09 1.12974e-07)
(-3.3333e-09 -2.38489e-09 -2.44969e-08)
(2.59312e-09 -1.15775e-09 -3.34244e-09)
(7.00958e-09 1.19198e-08 2.36415e-09)
(-1.61126e-08 -2.00506e-09 2.95311e-08)
(6.1702e-09 4.95738e-09 1.17115e-07)
(-2.8537e-09 -9.30786e-10 9.00987e-08)
(1.37068e-08 -1.51572e-08 1.96051e-08)
(5.17893e-09 2.108e-10 8.21156e-08)
(-4.24207e-09 6.11328e-09 1.001e-07)
(-2.11743e-08 1.67732e-08 5.47811e-08)
(-1.66575e-08 -4.99426e-09 1.80905e-07)
(5.66422e-09 -1.4537e-08 -1.37152e-08)
(-1.44277e-08 2.66996e-09 6.0245e-08)
(-1.9361e-08 -7.11832e-09 1.27286e-07)
(-1.52823e-09 1.21149e-09 1.16574e-07)
(-4.32791e-09 -1.25527e-09 7.72011e-08)
(-1.02511e-08 -3.02572e-09 4.74737e-09)
(-2.17315e-09 1.53882e-10 8.88062e-08)
(9.57985e-09 -3.50501e-09 2.99009e-10)
(3.9833e-09 4.33384e-09 1.38233e-07)
(-8.15169e-09 -5.93954e-09 2.05e-07)
(6.11118e-10 4.31995e-09 9.27e-08)
(-1.63936e-10 -2.46125e-09 9.05343e-08)
(5.75494e-10 1.5836e-09 9.54895e-08)
(-4.59199e-09 2.26266e-09 9.01844e-08)
(-1.28384e-08 3.07446e-09 6.45102e-08)
(-1.14926e-08 2.43128e-09 9.60057e-09)
(-6.56869e-09 -8.17803e-11 1.43508e-07)
(-1.51217e-08 -2.02834e-09 8.8026e-08)
(-1.59153e-09 1.88879e-09 8.19593e-08)
(5.08385e-09 -3.68255e-09 1.39963e-07)
(9.06692e-09 2.49433e-09 2.06016e-07)
(1.85872e-09 -8.58546e-09 -4.52515e-10)
(3.77762e-09 1.01268e-09 1.46443e-07)
(1.56884e-09 -2.19064e-09 1.61089e-07)
(1.93892e-10 6.05861e-10 1.09675e-07)
(-9.77493e-09 3.37203e-10 8.51992e-08)
(2.25972e-09 -6.76093e-09 1.86325e-07)
(-5.18523e-09 2.22478e-09 -6.87037e-09)
(-1.64474e-09 1.12721e-08 1.0077e-07)
(-3.50905e-09 9.83485e-11 -4.90591e-09)
(-4.38045e-09 1.57316e-09 1.56585e-07)
(4.22149e-09 -1.52947e-09 -1.40456e-09)
(-9.63311e-10 -2.11501e-09 8.63481e-08)
(-1.22515e-09 -1.51475e-09 1.07316e-07)
(-8.21995e-10 -9.71613e-10 1.71142e-07)
(-2.67421e-09 -6.01233e-10 1.26221e-07)
(-8.31981e-09 3.96511e-09 1.3277e-07)
(8.97286e-09 -2.24084e-09 3.71773e-08)
(2.28503e-09 -3.07094e-10 1.31119e-07)
(-1.42743e-08 9.24695e-09 1.91313e-07)
(-2.69186e-09 3.21577e-09 7.18968e-10)
(-4.6685e-10 5.42083e-09 2.09522e-07)
(1.765e-09 -2.22123e-09 1.17496e-07)
(-1.17135e-09 1.09701e-09 7.8461e-08)
(1.11417e-10 3.72746e-09 5.47251e-09)
(-2.57558e-09 4.2145e-09 1.73689e-07)
(-7.49166e-09 4.8433e-09 2.04892e-07)
(-6.67473e-09 -8.38786e-10 6.79605e-08)
(-5.34242e-09 -5.95298e-09 3.47864e-09)
(5.5126e-09 -4.96002e-09 4.4258e-08)
(1.70305e-08 -1.87722e-10 5.87595e-08)
(-8.25193e-09 -2.28129e-09 6.59166e-09)
(-9.24573e-10 -2.59176e-10 1.45225e-08)
(4.89345e-09 2.52471e-09 9.37599e-08)
(-9.43906e-10 2.41636e-09 1.64634e-07)
(7.30553e-09 6.58028e-09 -1.54364e-09)
(8.76765e-11 -2.73307e-09 1.45607e-07)
(-1.77333e-09 6.65111e-09 5.35521e-09)
(3.12132e-09 -4.35575e-09 1.14638e-07)
(-7.65428e-09 1.55581e-09 5.37216e-08)
(-4.96315e-10 1.94588e-10 1.8944e-08)
(6.29493e-10 5.49416e-09 4.13789e-08)
(-7.55139e-10 9.98146e-10 9.02719e-08)
(3.90825e-09 6.27965e-09 1.39271e-08)
(-6.52008e-09 -1.00231e-08 2.49877e-07)
(2.82473e-10 5.75575e-10 1.25978e-07)
(-6.65433e-09 -7.64311e-10 1.84799e-07)
(1.19585e-08 -2.19933e-09 5.08783e-08)
(-1.1899e-10 5.58335e-09 1.02621e-08)
(-3.1696e-09 -5.89209e-09 1.80545e-07)
(1.19336e-08 6.4856e-09 -3.68427e-09)
(-1.15891e-08 -4.73043e-09 1.25819e-08)
(-6.76773e-09 5.35574e-09 2.41876e-08)
(3.74506e-10 -1.9918e-09 1.04361e-07)
(2.65382e-09 -9.02561e-09 8.51547e-09)
(-1.26235e-08 1.86718e-09 -1.15777e-08)
(1.80492e-09 -1.77188e-09 -7.11821e-09)
(-2.87391e-10 -7.32019e-09 1.1853e-07)
(-2.27926e-09 -3.67381e-09 1.35538e-07)
(-7.51977e-10 -8.68344e-10 9.06472e-08)
(-8.32255e-09 -1.39198e-08 -8.56081e-09)
(-2.51632e-09 3.91655e-09 1.15804e-07)
(1.0125e-08 -2.64538e-09 2.85239e-08)
(-5.75065e-09 3.58011e-09 1.91176e-07)
(8.10853e-09 9.75679e-10 -5.64659e-09)
(-2.11381e-09 -1.14536e-08 2.1431e-08)
(6.23343e-09 -1.53947e-09 -5.93432e-09)
(-4.80602e-09 -2.49377e-11 1.0813e-07)
(4.87636e-09 -5.08551e-12 1.49235e-07)
(-4.60371e-09 -6.31457e-09 4.53698e-08)
(1.85749e-10 4.17001e-09 9.44084e-08)
(-1.11354e-09 -2.70921e-09 1.57079e-07)
(5.3398e-10 -5.33595e-09 -2.98794e-09)
(6.80078e-09 4.48349e-10 1.40595e-07)
(-7.23706e-09 -1.7262e-09 1.37461e-07)
(4.07141e-09 -2.3047e-09 1.77563e-07)
(-6.08884e-10 6.23492e-09 1.03652e-07)
(-2.01883e-09 1.29929e-09 2.83935e-09)
(-8.98521e-10 -2.00334e-09 1.86949e-07)
(-5.68559e-11 1.22229e-08 1.24842e-09)
(-5.94445e-09 5.04525e-09 2.3082e-09)
(-6.20818e-09 6.65259e-09 1.37817e-07)
(1.53976e-09 -1.97836e-09 1.10532e-08)
(-6.51147e-09 -4.56785e-09 1.7508e-07)
(-2.83287e-09 -1.14303e-09 1.42273e-07)
(1.12949e-09 -6.11029e-10 1.61303e-07)
(-1.87084e-09 -6.9465e-10 1.20588e-07)
(-7.60773e-09 4.98294e-09 1.14744e-08)
(1.98612e-09 -1.69925e-09 1.29212e-07)
(7.09985e-09 -4.57295e-09 2.36558e-08)
(4.00165e-09 9.27662e-10 1.12643e-07)
(1.02296e-10 -3.03859e-09 9.65543e-08)
(1.35337e-08 3.50005e-09 1.82678e-08)
(-1.63545e-09 -3.01329e-09 1.48238e-07)
(-1.15187e-09 2.77378e-09 1.57565e-07)
(9.39383e-09 9.00265e-10 -6.27546e-09)
(-1.59116e-08 -4.3836e-09 1.13327e-08)
(-4.64307e-10 2.11155e-09 1.02281e-07)
(-2.30895e-08 8.82159e-09 -8.56586e-09)
(-1.57252e-09 1.55279e-09 1.34145e-07)
(-3.43471e-10 -1.73692e-09 9.05561e-08)
(2.94526e-09 3.74894e-09 1.51258e-07)
(-4.76264e-09 -4.07445e-09 -1.0951e-08)
(-7.0166e-09 -1.16171e-09 -8.44774e-09)
(5.94169e-10 4.50071e-09 8.20029e-09)
(1.47703e-08 3.11876e-09 2.5638e-08)
(2.61081e-09 -4.86917e-09 8.94485e-08)
(8.32993e-10 -7.14741e-09 2.32478e-07)
(2.02528e-08 3.62115e-09 3.18207e-09)
(3.17756e-09 1.7918e-09 1.21426e-07)
(5.238e-09 8.33513e-09 -1.71061e-09)
(1.7021e-08 2.8712e-09 -5.69648e-10)
(4.26111e-09 1.68768e-09 5.43958e-09)
(-3.51032e-10 2.14079e-10 8.51068e-08)
(3.32603e-09 -5.96856e-09 9.68221e-08)
(2.7324e-09 -3.68756e-09 1.1441e-07)
(-7.28321e-10 5.15039e-09 4.90151e-08)
(4.91583e-10 6.29435e-10 1.58588e-07)
(2.15162e-10 1.01853e-08 1.10077e-07)
(-1.51728e-09 -2.26536e-09 2.01649e-07)
(-1.35358e-10 1.03068e-09 1.22575e-07)
(1.0294e-09 3.3385e-09 9.63727e-08)
(2.80189e-09 -1.83704e-09 1.64064e-07)
(1.23007e-10 2.47419e-09 1.6184e-07)
(-1.85607e-09 1.38179e-09 1.64497e-07)
(-2.21135e-08 -3.87828e-09 3.05764e-09)
(-7.00114e-09 -4.73844e-09 1.59536e-07)
(-2.42417e-10 4.92794e-09 8.86119e-09)
(-1.09008e-09 1.3565e-09 2.64808e-08)
(1.3345e-09 2.73979e-11 1.23262e-07)
(2.3325e-09 1.08022e-09 1.40538e-07)
(-2.03884e-09 3.80365e-09 1.63842e-07)
(-2.66776e-09 -2.88547e-09 1.4657e-07)
(7.16288e-10 3.24943e-09 4.75915e-08)
(-2.19039e-09 -1.12939e-08 -8.43902e-09)
(5.06556e-09 7.03833e-09 1.7154e-07)
(-4.08836e-09 1.62326e-09 7.44797e-08)
(2.03857e-09 7.19903e-09 6.63545e-09)
(4.77838e-09 -3.17647e-10 1.62553e-08)
(-1.10233e-08 3.01517e-11 9.78754e-08)
(-6.22893e-10 -7.32722e-10 9.56949e-08)
(-1.88695e-09 1.22756e-08 1.38e-07)
(6.63542e-10 5.96451e-09 7.50505e-08)
(-2.80304e-09 6.05801e-09 1.79182e-07)
(-1.0062e-08 8.57013e-09 1.01477e-07)
(-1.73386e-09 -6.92788e-09 7.48723e-10)
(3.71297e-09 -1.06216e-09 1.63275e-07)
(3.32147e-09 -7.54611e-09 -2.79759e-09)
(1.88637e-08 4.42048e-09 -5.33702e-09)
(3.41668e-09 -2.0907e-09 1.62546e-07)
(-4.82955e-10 1.97314e-09 1.41784e-07)
(-7.16938e-09 7.72991e-09 -8.30465e-09)
(-1.15506e-08 1.21112e-09 1.76103e-07)
(-1.33467e-09 -5.77701e-09 1.44674e-07)
(-1.47621e-09 -5.77294e-09 1.27664e-07)
(-4.58093e-09 1.68981e-09 1.61671e-07)
(-1.9769e-09 -6.26766e-09 4.87828e-09)
(-2.20049e-09 -2.27734e-09 1.30738e-07)
(2.92522e-10 -1.48712e-09 7.10657e-08)
(1.33355e-09 -7.50099e-10 8.46622e-08)
(1.21884e-09 -1.26918e-08 1.37912e-07)
(1.17184e-10 1.23944e-09 9.64537e-08)
(-2.93426e-09 5.60562e-09 7.60144e-08)
(-4.93266e-10 1.19622e-09 1.43891e-07)
(-5.95206e-09 4.99237e-09 -1.59217e-08)
(-1.55961e-09 -1.06432e-09 1.46365e-07)
(3.08296e-09 -2.53959e-09 1.20268e-07)
(2.94709e-09 -5.59314e-09 1.79813e-07)
(-2.36789e-09 -3.41817e-10 1.32908e-07)
(-5.77234e-09 4.926e-09 1.9325e-07)
(9.75912e-09 -1.56802e-08 -6.79094e-09)
(7.05473e-09 -2.30528e-09 -3.71106e-09)
(1.93459e-09 -3.79223e-09 -7.80148e-09)
(-1.48836e-09 -4.88695e-09 2.78018e-07)
(-5.35238e-09 1.04531e-08 5.94921e-10)
(-9.27329e-09 -9.04964e-09 1.54181e-08)
(-5.28671e-09 9.60478e-09 1.34788e-08)
(-1.32481e-09 3.12186e-10 1.71483e-07)
(-2.34591e-09 -4.06416e-09 1.88389e-07)
(-1.04692e-09 -1.34863e-09 1.77819e-07)
(1.00514e-08 6.29776e-09 2.85988e-08)
(-3.67383e-09 -7.50996e-09 1.32585e-07)
(2.83062e-09 8.64098e-09 -2.3399e-09)
(1.17016e-08 -2.03425e-09 3.02648e-08)
(1.09903e-09 -1.13354e-09 1.03879e-07)
(3.78589e-09 -1.04271e-08 8.37088e-08)
(-3.58554e-08 -7.37494e-09 2.29064e-07)
(-3.62364e-09 1.5014e-09 9.2787e-08)
(-1.08046e-08 -5.73065e-09 -1.37439e-08)
(5.42985e-09 6.72352e-09 1.91081e-08)
(-3.91707e-09 8.17111e-09 1.19414e-07)
(3.32499e-09 3.03685e-09 1.05649e-07)
(-1.15196e-08 -2.1484e-09 2.15399e-07)
(1.2571e-09 5.84804e-11 1.12163e-07)
(6.36092e-09 6.82786e-09 2.61426e-07)
(5.42493e-09 -1.58349e-08 9.49413e-08)
(-7.19022e-09 5.29998e-09 1.80568e-07)
(-4.99995e-10 1.52891e-09 1.37703e-07)
(-3.2804e-10 -3.03058e-09 1.12918e-07)
(-3.14544e-09 2.27189e-09 1.79371e-07)
(-1.08431e-08 -1.84227e-09 3.16563e-08)
(-2.84567e-09 -3.30486e-09 1.50086e-09)
(6.82802e-10 -2.91817e-09 1.69554e-07)
(6.62079e-10 4.19889e-09 -6.95378e-09)
(-4.08892e-09 8.14261e-10 7.02772e-10)
(-6.19355e-09 -2.54429e-09 2.08512e-07)
(2.78051e-09 -1.47578e-09 1.14291e-07)
(-4.53545e-09 1.70019e-09 3.54538e-08)
(-2.33279e-09 3.73304e-10 1.34012e-07)
(2.2093e-09 7.15269e-09 1.74479e-07)
(2.64729e-09 -5.53525e-09 1.99348e-07)
(3.649e-09 2.14428e-09 1.34658e-07)
(2.71333e-09 -6.38808e-09 -8.97458e-09)
(-3.34445e-10 3.78454e-09 1.71692e-07)
(8.95661e-10 -3.4395e-10 1.08841e-07)
(1.28943e-09 4.62162e-10 -4.53785e-09)
(-2.31399e-09 1.52193e-09 1.49931e-07)
(3.69232e-09 -1.25927e-09 1.27296e-07)
(3.99579e-09 5.42623e-09 1.08967e-07)
(3.15573e-09 -9.2444e-10 1.1418e-07)
(5.79662e-09 3.83588e-09 1.53101e-07)
(1.3091e-09 6.81316e-09 1.12003e-07)
(-1.06463e-09 4.96797e-09 3.55931e-08)
(1.57139e-09 -1.48335e-10 4.82215e-09)
(5.69372e-09 1.45785e-09 -1.61721e-08)
(-1.61554e-09 8.15169e-09 1.02399e-07)
(-8.65472e-09 1.50539e-08 9.06904e-08)
(7.65192e-09 7.46005e-10 4.65859e-08)
(2.31059e-09 3.64747e-09 5.14623e-08)
(-6.47384e-09 -8.96142e-09 1.29526e-07)
(2.02491e-09 -4.71036e-09 1.85178e-07)
(-4.25772e-09 1.18083e-09 1.27122e-07)
(2.2949e-09 -9.57165e-09 2.10284e-07)
(-7.23464e-10 -3.5144e-09 1.93846e-07)
(1.12329e-09 -3.02314e-09 1.31777e-07)
(-1.59278e-09 1.22158e-10 8.26375e-08)
(-1.19829e-09 5.60342e-09 5.5482e-09)
(-4.37731e-08 8.9615e-09 1.50244e-07)
(1.26001e-11 7.78998e-09 3.78918e-08)
(-7.82927e-09 9.74014e-09 -1.11699e-08)
(2.17758e-08 3.60808e-09 -8.35605e-09)
(1.17839e-09 -1.75681e-09 9.95636e-08)
(-1.30293e-08 -1.02868e-08 8.90511e-08)
(-1.99989e-09 -1.35543e-09 1.27016e-07)
(-4.69752e-09 1.25059e-09 2.90387e-09)
(7.20321e-10 1.00106e-10 1.084e-07)
(3.92341e-09 -1.26577e-08 2.27084e-08)
(2.78776e-09 5.31846e-10 1.0302e-07)
(2.97404e-11 1.1451e-08 9.13145e-09)
(-5.25686e-09 5.24657e-09 6.38867e-08)
(1.96451e-09 9.85607e-10 1.44265e-07)
(3.81209e-09 1.45332e-10 1.10658e-07)
(2.70293e-09 9.19254e-10 2.91896e-09)
(-1.05618e-08 5.3618e-09 2.20419e-08)
(-3.06613e-09 -5.04e-10 1.40202e-07)
(2.0877e-09 -5.36987e-09 -3.40279e-09)
(-4.8417e-09 -1.52554e-09 1.65803e-07)
(6.80413e-09 -3.83426e-09 1.097e-07)
(1.06505e-09 -6.77876e-10 1.79089e-07)
(-1.41477e-10 1.96587e-09 1.13754e-07)
(-1.65599e-09 1.49922e-09 5.17538e-08)
(-1.79206e-09 -2.24753e-09 2.33192e-07)
(-1.99431e-08 -8.92124e-09 4.90569e-08)
(-2.35516e-09 2.05113e-09 1.56071e-07)
(-8.01225e-09 2.13191e-09 7.75295e-08)
(-2.87318e-09 -1.47081e-08 3.87488e-08)
(-1.02842e-08 1.20262e-08 3.83187e-08)
(4.77782e-10 -1.32869e-09 1.31499e-07)
(1.46401e-09 -2.07404e-09 2.71753e-07)
(-4.16845e-10 6.14906e-09 1.80616e-08)
(5.83692e-09 -4.0197e-09 1.98291e-07)
(-3.68427e-09 8.82264e-10 6.55285e-08)
(2.95832e-09 6.13565e-10 2.16265e-07)
(5.38103e-09 5.33607e-10 1.63202e-07)
(-3.16385e-10 -1.09966e-08 -1.30755e-08)
(-1.25736e-09 1.48746e-10 1.1985e-07)
(1.91864e-09 5.49631e-09 2.29507e-07)
(-8.01285e-10 -3.82247e-09 1.3066e-07)
(-2.57669e-09 1.77412e-10 1.28052e-07)
(9.5219e-09 -6.5779e-09 -1.78538e-08)
(-4.57573e-09 -9.33243e-09 -1.46319e-09)
(-4.06666e-09 -4.10993e-09 1.60108e-07)
(2.95331e-09 1.03803e-09 1.43357e-07)
(6.56179e-10 1.62765e-10 1.09978e-07)
(-3.06551e-09 4.50774e-09 8.16667e-09)
(-2.74435e-10 6.87173e-10 4.631e-08)
(-1.35366e-09 5.73767e-09 1.53692e-07)
(1.49147e-09 4.11211e-10 8.51863e-08)
(1.32457e-09 -1.53947e-09 1.60625e-07)
(3.47856e-09 -3.12654e-09 1.39114e-07)
(6.89857e-10 -2.87749e-09 1.17861e-07)
(1.18057e-09 -1.74208e-09 1.21947e-07)
(-3.99908e-09 2.2765e-09 6.78237e-08)
(4.38966e-09 -1.20296e-09 9.96676e-08)
(-8.43057e-09 7.04656e-09 1.98168e-08)
(1.33259e-09 3.05288e-09 1.53376e-07)
(1.02279e-08 -2.32929e-09 1.00515e-07)
(-4.18105e-10 2.24207e-09 1.1687e-07)
(2.95685e-09 3.1918e-09 1.09591e-07)
(-5.06809e-09 -4.90169e-09 1.98563e-07)
(-7.12317e-10 -4.08273e-10 1.47051e-07)
(9.7701e-09 4.70068e-09 -2.09592e-09)
(7.40414e-09 -2.1809e-09 -1.94459e-08)
(-1.20972e-09 -6.47044e-09 2.18082e-09)
(-1.94619e-09 -2.35489e-09 1.30983e-07)
(6.11944e-10 6.10683e-10 1.39882e-07)
(-1.3231e-09 1.8436e-10 1.58e-07)
(-6.40651e-09 -4.4251e-09 1.12329e-07)
(4.36863e-09 -6.05345e-09 -9.92299e-09)
(-9.56673e-09 -6.71393e-09 4.64347e-10)
(-2.10407e-10 -8.55921e-09 1.10022e-07)
(2.88679e-09 3.39183e-09 1.3498e-07)
(-8.65915e-11 3.76933e-09 1.56462e-07)
(6.48257e-09 -2.94088e-09 1.82876e-07)
(1.77017e-09 -2.16168e-09 1.25205e-07)
(-5.8995e-09 2.29174e-09 1.56509e-07)
(4.91464e-09 -9.04125e-10 2.2502e-07)
(3.14934e-09 6.20631e-09 -8.98237e-10)
(-3.37799e-09 6.75066e-10 1.08059e-07)
(3.16546e-09 -1.59394e-09 1.07476e-08)
(-6.06799e-09 5.37239e-10 3.25957e-08)
(1.31907e-09 -2.08801e-09 7.16809e-08)
(2.7274e-09 1.57954e-08 6.81655e-08)
(2.45963e-09 1.17331e-09 1.45536e-07)
(-1.01889e-08 4.42756e-09 -3.83924e-09)
(5.95205e-09 -7.31584e-09 1.90766e-07)
(-1.73509e-09 -9.89807e-10 1.40175e-07)
(2.39641e-10 -1.88124e-09 1.0509e-07)
(7.11525e-09 -1.26872e-09 8.30744e-08)
(8.06726e-10 -1.99176e-09 9.17472e-08)
(-6.6667e-10 -8.31088e-11 1.29955e-07)
(2.88642e-09 -6.2799e-09 1.33109e-07)
(1.97258e-11 -1.15671e-10 1.48453e-07)
(-6.81751e-09 -6.51112e-09 9.6851e-08)
(-8.6629e-10 4.0503e-09 1.39437e-07)
(-4.85096e-09 3.66379e-09 1.62547e-07)
(-6.93196e-09 -3.13221e-09 -3.10453e-09)
(-3.06023e-09 6.77143e-10 1.53485e-07)
(3.16675e-09 3.40811e-09 1.00629e-07)
(-1.0859e-08 -3.00232e-09 -1.04299e-08)
(-4.80337e-11 -4.39995e-09 1.10043e-07)
(-1.76092e-09 -7.13229e-10 1.75432e-07)
(1.31778e-09 1.88376e-09 1.24158e-07)
(-3.15313e-09 1.35798e-09 5.89395e-08)
(-5.16147e-09 7.03392e-09 -1.9413e-09)
(5.75732e-10 -3.40966e-09 1.26641e-07)
(-2.73715e-09 1.28726e-08 1.79909e-07)
(2.04463e-09 -5.39678e-09 1.27334e-07)
(2.92074e-10 -3.11374e-10 1.12337e-07)
(-1.85348e-08 -5.07851e-09 -1.72284e-08)
(-5.46469e-09 -1.50936e-09 1.32669e-07)
(-3.44256e-09 -5.38799e-09 5.95698e-09)
(-4.08644e-10 1.09859e-09 9.22126e-08)
(-3.4259e-08 -2.97578e-09 2.01789e-07)
(-7.77656e-10 -8.9663e-10 1.38582e-07)
(-1.1632e-08 1.00937e-09 2.44024e-08)
(-3.91254e-09 -2.72398e-11 1.01983e-07)
(-1.65011e-09 -3.46166e-09 6.33791e-08)
(4.17379e-09 -3.04606e-09 -8.41162e-09)
(1.10753e-08 3.15833e-09 2.2024e-07)
(-6.93671e-10 1.46539e-09 1.05815e-07)
(6.40682e-09 1.14585e-10 4.30812e-09)
(5.86554e-09 -6.471e-10 1.4864e-07)
(2.94181e-09 -3.24106e-09 1.29792e-07)
(-3.27669e-09 4.11921e-09 4.49279e-10)
(8.03985e-09 5.48809e-09 3.16906e-08)
(-1.89975e-08 -1.02539e-09 -1.76441e-08)
(1.64505e-09 4.85182e-09 1.05892e-07)
(3.42378e-09 1.95282e-10 1.28743e-07)
(-7.38516e-09 1.41254e-09 2.20476e-08)
(1.5146e-08 -3.89834e-10 9.24759e-10)
(-4.47668e-09 -1.01465e-08 1.85002e-08)
(2.11468e-10 -4.43316e-09 9.93091e-08)
(3.88531e-09 -2.14912e-09 1.61014e-07)
(-4.73063e-09 -6.12109e-09 2.8801e-10)
(2.03834e-09 6.16548e-10 2.00534e-07)
(3.12986e-09 -3.17166e-09 1.35965e-07)
(-2.75813e-10 1.63754e-10 1.32174e-07)
(-3.49794e-09 -7.08727e-09 1.11022e-07)
(-8.72817e-10 -4.15918e-09 1.81748e-07)
(3.59657e-11 -4.267e-10 -1.12822e-08)
(-2.19443e-09 -4.71065e-10 1.63108e-07)
(1.68087e-09 9.91825e-10 4.9847e-09)
(1.03317e-08 -1.42615e-08 3.91164e-08)
(2.59271e-09 7.31098e-10 1.2507e-07)
(-6.97102e-09 2.40358e-09 1.80848e-08)
(-1.13873e-09 3.58039e-09 -7.93471e-11)
(8.86618e-09 6.53334e-09 6.81766e-10)
(-1.64457e-08 -2.09629e-09 -3.40696e-09)
(6.42754e-09 -8.68656e-09 3.0783e-08)
(5.07429e-09 1.77552e-10 1.98423e-07)
(-2.06056e-09 -3.77256e-09 9.33046e-09)
(7.70774e-09 -1.37333e-08 1.46759e-08)
(-1.08682e-08 -4.89153e-09 1.50593e-07)
(-1.17278e-09 -3.37505e-10 1.07513e-07)
(1.47196e-08 -2.21671e-09 -1.45629e-08)
(5.77336e-09 4.35922e-09 1.07472e-07)
(-2.85091e-09 -4.14461e-09 4.74496e-08)
(-1.10106e-09 -1.94701e-09 1.09285e-07)
(-3.30386e-09 3.17456e-09 4.05003e-08)
(-1.1141e-09 -2.26825e-10 9.11377e-08)
(6.84051e-09 4.44836e-10 3.07329e-08)
(8.54143e-10 1.8244e-09 8.27525e-08)
(-3.823e-09 -1.23922e-09 7.70737e-08)
(5.69483e-09 -6.42118e-09 1.34078e-08)
(4.70247e-09 1.71629e-10 1.40085e-07)
(-6.19879e-09 -1.3729e-09 2.44527e-08)
(2.50222e-09 -5.44386e-09 2.03925e-09)
(6.43477e-09 -8.57153e-09 1.69118e-07)
(-4.28512e-09 -2.82829e-09 9.22599e-08)
(-3.74405e-09 7.14116e-09 1.75529e-07)
(8.37954e-09 -4.44944e-09 1.38528e-07)
(-1.11605e-09 -3.21363e-09 2.20674e-07)
(5.98577e-09 -5.01031e-09 2.39419e-08)
(-1.29945e-09 -2.16604e-09 2.22606e-07)
(8.02266e-09 -3.80624e-09 2.23495e-08)
(-1.41069e-09 -2.08698e-09 7.29442e-08)
(9.63445e-10 -7.2942e-09 1.57616e-07)
(-4.43391e-09 -8.40961e-09 -1.01721e-08)
(-5.67334e-09 1.80145e-09 1.76743e-07)
(-2.37503e-08 -6.3464e-09 6.20285e-09)
(6.56522e-09 1.21935e-11 -7.07893e-10)
(-1.06602e-09 1.04778e-09 1.65505e-07)
(-1.25095e-08 5.88896e-09 -7.97427e-09)
(-2.66228e-09 3.07755e-09 1.12573e-07)
(2.45946e-10 5.17097e-09 1.07786e-07)
(-1.61996e-09 -5.85475e-09 1.96022e-07)
(1.00638e-08 1.73127e-09 7.31813e-10)
(1.31592e-09 -5.37597e-10 1.47954e-07)
(-9.98769e-10 3.29272e-09 7.38945e-08)
(-1.41296e-10 -2.25686e-09 1.51227e-07)
(-5.87734e-10 4.75682e-09 1.62588e-07)
(-2.24406e-10 -3.99168e-09 1.4796e-07)
(-7.72736e-10 -7.01553e-10 8.32133e-08)
(1.15114e-08 9.23712e-09 9.86025e-10)
(1.42987e-09 -5.2798e-09 7.80705e-09)
(-2.25694e-09 1.19193e-09 9.40012e-08)
(-1.84964e-09 3.20883e-09 1.55636e-07)
(4.01938e-09 4.89564e-09 -1.47785e-09)
(-6.93349e-09 -1.5874e-09 1.34588e-07)
(-6.61836e-09 7.67589e-09 2.47398e-07)
(-2.52108e-09 -5.72159e-10 1.76958e-07)
(4.10564e-09 -4.95246e-09 1.86591e-07)
(-2.09665e-09 1.11759e-08 1.45508e-07)
(2.49973e-09 2.55229e-09 1.07206e-09)
(2.12756e-10 3.24448e-09 1.19595e-07)
(7.16717e-09 8.02968e-10 8.00408e-08)
(-3.69915e-09 -1.32484e-09 1.44272e-07)
(6.77578e-10 -1.11446e-09 7.99417e-08)
(9.80103e-09 -3.91016e-09 -1.21833e-08)
(-1.2532e-09 1.92946e-09 9.87084e-08)
(-2.81939e-10 4.83285e-09 7.91412e-08)
(1.06218e-08 7.48768e-09 1.55261e-07)
(-1.00625e-09 2.3653e-10 1.30023e-07)
(1.97564e-09 -7.02137e-09 1.13559e-07)
(2.2451e-09 3.10795e-09 -2.46994e-10)
(-1.36396e-09 4.06368e-09 5.38978e-09)
(9.99233e-10 -3.66878e-09 9.08983e-08)
(-2.3798e-09 -2.25751e-09 1.51445e-07)
(6.77999e-10 1.97288e-09 1.19749e-07)
(2.32106e-09 5.37544e-09 9.35049e-08)
(2.29756e-09 4.7249e-09 6.29783e-08)
(3.10755e-09 6.14798e-09 1.45368e-07)
(-3.3781e-09 -2.19726e-09 1.36634e-07)
(4.5155e-09 5.03621e-09 -3.49439e-09)
(2.05643e-10 -1.17721e-09 7.25631e-08)
(-6.00641e-09 1.69123e-09 1.19201e-07)
(-4.97839e-09 4.78995e-09 2.76463e-09)
(3.18558e-10 7.85972e-09 9.64498e-09)
(-6.04577e-09 3.51598e-09 1.79054e-07)
(2.67212e-09 2.64513e-09 1.29808e-07)
(3.92231e-09 3.93523e-09 1.06891e-07)
(-2.74682e-09 -8.85092e-10 1.38212e-07)
(-3.5228e-09 5.44769e-09 8.18129e-08)
(-1.13591e-10 -1.34568e-09 1.71261e-07)
(6.91092e-09 2.48999e-09 7.3881e-08)
(-6.49219e-09 1.31034e-09 2.41281e-07)
(-2.0148e-09 -2.5699e-09 1.07395e-07)
(-1.34438e-09 3.21746e-09 1.1548e-07)
(3.46976e-09 -4.35745e-10 1.62729e-07)
(3.29102e-10 -4.35489e-09 2.29364e-09)
(8.89615e-09 4.44043e-09 2.75403e-07)
(-6.30885e-09 -3.34808e-09 -6.04761e-09)
(-1.06359e-08 -4.39664e-09 7.8099e-08)
(1.75079e-10 4.32481e-09 3.02212e-08)
(-8.34847e-09 1.41756e-11 1.04028e-07)
(1.06446e-08 2.94805e-09 1.29489e-07)
(-2.57426e-08 -5.19725e-10 1.5934e-07)
(-1.48809e-09 -3.76204e-10 7.34131e-08)
(1.70039e-09 4.94971e-09 1.68905e-07)
(-1.72388e-09 -2.05922e-09 1.92578e-07)
(2.32654e-09 3.19995e-10 1.07181e-07)
(-3.2339e-09 1.62303e-09 3.42067e-09)
(-1.13763e-08 -1.24074e-09 1.18348e-07)
(-3.07926e-08 -3.13272e-09 1.51461e-07)
(1.48884e-09 -1.47168e-09 1.08128e-07)
(-2.81228e-09 1.63793e-09 6.47106e-08)
(-7.25445e-09 3.76244e-09 1.4072e-07)
(-5.4552e-09 5.50768e-10 1.31243e-07)
(-1.34413e-08 1.78247e-08 1.56749e-07)
(-8.77505e-09 2.53813e-09 -1.22887e-08)
(4.08538e-09 2.13417e-09 8.25137e-09)
(-5.57329e-09 -8.02555e-09 -1.7232e-08)
(-3.31028e-09 4.45308e-09 9.98204e-09)
(-7.05276e-09 4.53392e-10 -4.44333e-09)
(1.50968e-09 1.66985e-09 1.38737e-07)
(1.82163e-09 1.62814e-09 1.0667e-07)
(7.0072e-10 -5.10032e-09 7.3248e-09)
(-1.93586e-09 4.03243e-09 9.0214e-09)
(5.79445e-09 1.23577e-09 1.74593e-07)
(-2.52741e-08 6.99569e-09 7.87263e-08)
(-1.2094e-08 -1.16933e-09 -2.27204e-09)
(-3.83226e-09 4.67026e-09 1.31927e-07)
(-1.44157e-09 -2.21903e-09 5.63827e-08)
(-1.56728e-09 1.32458e-09 1.17845e-07)
(7.19099e-09 8.72089e-10 6.90428e-09)
(2.1155e-09 2.97126e-09 5.49004e-09)
(4.00216e-10 -1.54905e-09 1.19159e-07)
(-5.28709e-09 -3.48596e-09 1.43737e-07)
(-3.75294e-09 -6.61892e-09 2.16879e-07)
(4.25703e-09 1.20502e-10 1.55519e-09)
(3.59043e-09 -9.99127e-09 -1.07009e-08)
(-2.85468e-08 9.2078e-09 1.81387e-07)
(-1.14018e-08 3.35142e-09 -9.06527e-09)
(-4.71598e-09 3.51139e-09 1.79321e-07)
(-1.16549e-08 -8.92731e-09 -3.24828e-09)
(2.016e-09 6.30588e-09 1.10672e-07)
(4.04485e-09 -4.11691e-09 1.55801e-07)
(2.93838e-10 6.0094e-09 2.20924e-07)
(-1.95523e-08 -1.6838e-08 2.51595e-09)
(5.0623e-11 3.84393e-09 7.36244e-08)
(-2.57783e-09 -3.42814e-09 1.18742e-10)
(-6.71361e-10 3.80471e-09 -2.05998e-09)
(-1.91279e-09 -1.81453e-09 1.33917e-07)
(-5.04587e-09 7.49097e-09 3.19521e-09)
(1.58101e-09 -3.36595e-09 9.60907e-08)
(-1.94121e-08 3.92028e-10 -5.38481e-09)
(-1.82371e-09 6.5389e-09 1.77345e-07)
(2.4964e-09 3.17906e-10 1.30929e-07)
(4.1151e-09 5.05082e-09 -4.42022e-09)
(-8.88714e-09 -6.33415e-09 1.74953e-08)
(-4.57692e-09 -1.74669e-09 1.36063e-07)
(-5.74153e-09 -4.41405e-11 -3.38212e-09)
(4.98668e-09 3.90817e-09 1.51306e-07)
(-1.11706e-08 1.4597e-08 3.09263e-09)
(5.56014e-09 1.13297e-08 1.323e-07)
(-8.01544e-10 7.93648e-10 1.18218e-07)
(1.10345e-08 4.94842e-09 -5.3922e-09)
(-6.98969e-09 -7.71436e-09 -1.89737e-09)
(1.26308e-08 1.20821e-08 1.47282e-08)
(-4.93192e-08 -5.47865e-10 2.14447e-07)
(1.15887e-08 7.98064e-09 1.28152e-07)
(-8.87062e-09 6.92265e-09 1.71628e-08)
(3.20281e-09 3.11099e-09 7.45554e-08)
(1.42111e-10 2.12799e-09 -4.61995e-09)
(7.11407e-10 1.75366e-09 1.03011e-07)
(2.55258e-09 1.94328e-09 -1.89371e-08)
(1.07367e-09 5.5072e-10 1.81088e-07)
(-9.14451e-09 -8.10445e-10 1.59319e-07)
(-3.59732e-09 -2.39199e-10 1.1505e-07)
(1.04792e-09 7.52656e-10 -2.75964e-09)
(-2.65309e-09 7.98e-10 1.98334e-07)
(1.39226e-09 2.80337e-09 7.97693e-08)
(-1.17552e-09 4.41528e-10 2.00542e-07)
(-5.02258e-09 -2.81443e-09 1.46967e-08)
(-3.62557e-08 2.58889e-09 1.96061e-07)
(2.02957e-09 6.46861e-11 1.51585e-07)
(1.88787e-08 8.7425e-09 -2.67124e-08)
(9.66952e-10 -1.99657e-09 1.23018e-07)
(-5.27612e-08 4.7567e-09 1.95274e-07)
(6.46873e-11 -2.22024e-09 9.86262e-08)
(-4.86112e-09 5.04905e-10 -3.46318e-09)
(-1.27084e-08 3.30353e-09 7.88983e-09)
(1.53051e-09 -1.80804e-10 9.8097e-08)
(3.78628e-09 -4.19574e-09 1.2712e-07)
(2.56791e-09 -7.85085e-09 -5.32458e-09)
(-1.04016e-09 5.67513e-09 1.08166e-07)
(2.4598e-08 1.84866e-08 3.1824e-08)
(-3.18544e-09 4.4019e-09 6.02712e-10)
(-4.36936e-10 1.14292e-09 1.08402e-07)
(-2.96362e-08 2.00346e-09 1.5092e-07)
(1.34717e-09 -8.4078e-09 1.82164e-07)
(8.01876e-10 8.09053e-10 1.06524e-07)
(4.27519e-10 2.18661e-10 9.85443e-08)
(-2.58896e-09 2.43751e-09 1.56939e-07)
(9.4815e-09 2.68955e-09 1.27458e-07)
(6.18743e-09 -2.6182e-09 4.87152e-09)
(-1.37429e-08 -1.58317e-09 -3.0589e-08)
(6.65438e-09 -2.71836e-09 1.98714e-07)
(-3.75844e-08 1.14062e-08 1.92324e-07)
(-1.1992e-09 4.82441e-09 1.1607e-07)
(5.10864e-09 8.01026e-10 1.06663e-07)
(1.94105e-09 -5.69504e-09 3.90763e-08)
(-2.67249e-09 6.15347e-09 1.83184e-07)
(-4.02448e-09 2.02421e-09 1.11417e-07)
(6.44263e-09 -1.05359e-08 7.76519e-08)
(5.32779e-10 1.1972e-08 1.19412e-07)
(-8.10028e-09 4.36308e-09 1.46339e-08)
(-8.91427e-09 -6.53135e-09 3.94475e-08)
(-2.65935e-08 -9.36521e-09 8.61275e-09)
(-1.18159e-09 -1.95572e-09 1.85803e-07)
(-1.91164e-09 -4.85617e-09 1.57023e-07)
(-3.16847e-09 4.24256e-09 6.68732e-08)
(1.0841e-08 -5.5039e-09 9.83563e-08)
(-3.68973e-09 -5.45434e-09 -3.44197e-09)
(3.12341e-09 9.50547e-09 4.25396e-08)
(-1.0521e-08 -1.54555e-09 2.17494e-08)
(-1.69072e-09 -1.39935e-09 1.35938e-07)
(2.72245e-09 2.46588e-09 1.23425e-07)
(-4.17357e-08 3.34118e-09 2.09437e-07)
(-2.04773e-09 1.57091e-09 1.73452e-07)
(-3.38906e-09 -2.44738e-09 3.45558e-08)
(-1.86407e-08 6.4026e-09 1.33005e-07)
(-1.08389e-09 -6.41022e-09 1.37401e-07)
(-3.69085e-09 -2.61042e-10 7.96848e-09)
(-2.60641e-09 5.34079e-09 1.24779e-07)
(6.24973e-10 2.98245e-09 -1.18228e-08)