/*--------------------------------*- C++ -*----------------------------------*\
| =========                 |                                                 |
| \\      /  F ield         | OpenFOAM: The Open Source CFD Toolbox           |
|  \\    /   O peration     | Version:  2406                                  |
|   \\  /    A nd           | Website:  www.openfoam.com                      |
|    \\/     M anipulation  |                                                 |
\*---------------------------------------------------------------------------*/
FoamFile
{
    version     2.0;
    format      ascii;
    arch        "LSB;label=32;scalar=64";
    class       volScalarField;
    location    "6";
    object      nut;
}
// * * * * * * * * * * * * * * * * * * * * * * * * * * * * * * * * * * * * * //

dimensions      [0 2 -1 0 0 0 0];

internalField   nonuniform List<scalar> 
59516
(
0.000564032
0.000462141
0.000826863
0.00117373
0.00206101
0.000193518
0.000959227
0.00048951
0.000649341
0.0002564
0.00178035
0.000212168
0.000577056
0.000175162
0.000264014
0.000216644
0.00193461
0.000233119
0.00062655
0.00189097
0.000265671
0.00137998
0.00168221
0.000227706
0.00155473
0.000248605
0.000215149
0.000245427
0.000263389
0.000164196
0.000387253
0.000244633
0.000999947
0.000811013
0.00102554
0.00103911
0.000161314
0.000205276
0.000323072
0.00162541
0.000431764
0.00193628
0.00126996
0.000614627
0.00124921
0.00022007
0.000871391
0.00189192
0.00159301
0.00213087
0.000786187
0.000243523
0.00060691
0.000658497
0.000271806
0.000981832
0.00187523
0.000258001
0.00200869
0.00119139
0.00171653
0.000228418
0.00181162
0.00197272
0.000740244
0.00159209
0.000242897
0.000238792
0.00107357
0.0011588
0.000312524
0.00210982
0.000218999
0.00106253
0.00184424
0.00180926
0.00177473
0.00142129
0.000257207
0.00187755
0.000225561
0.00189099
0.0013759
0.000182667
0.00166178
0.00206931
0.000198121
0.00144672
0.00023563
0.000398855
0.00172578
0.000982582
0.00188014
0.0012918
0.00187846
0.00166686
0.00159362
0.000205003
0.000223675
0.00146233
0.000245606
0.00021135
0.000228332
0.000232954
0.00103475
0.00135298
0.000260074
0.000744357
0.000534168
0.000268116
0.000939017
0.000312886
0.000264387
0.000574395
0.00177137
0.000466267
0.000229557
0.00113384
0.000243484
0.00109714
0.0021699
0.00213911
0.00138097
0.002025
0.00132684
0.000318393
0.000246723
0.00140997
0.00029074
0.00194468
0.00185371
0.000614174
0.000212106
0.00155483
0.000383038
0.000737039
0.000380769
0.000912393
0.000228067
0.000429112
0.000257654
0.00193216
0.000171176
0.00090002
0.00210647
0.00139182
0.00131489
0.000700235
0.000242086
0.000569731
0.000377686
0.000204118
0.00201656
0.00147622
0.000368153
0.000163755
0.000737573
0.000743495
0.000316179
0.00017239
0.000309013
0.000317369
0.000215245
0.000197612
0.000444652
0.001774
0.00024291
0.00208471
0.000183586
0.00111094
0.000310079
0.000177593
0.000261684
0.00124977
0.000209417
0.00105724
0.00204983
0.00157659
0.000259681
0.000201445
0.00143137
0.000202654
0.000227391
0.000216133
0.00194649
0.00021263
0.000187618
0.000192476
0.000852106
0.000397839
0.00127711
0.000192917
0.00174475
0.000188706
0.00152126
0.000167382
0.000200568
0.000210125
0.000695439
0.00152852
0.000340292
0.00192677
0.000419267
0.000170659
0.00104948
0.00117399
0.00189753
0.00178991
0.000180212
0.000657782
0.000212537
0.000207399
0.00122436
0.000222264
0.000735193
0.00202894
0.00105419
0.00147386
0.000230945
0.00163104
0.000225015
0.000478007
0.00203342
0.000250448
0.00174182
0.00194317
0.000284782
0.000241728
0.00210215
0.000222037
0.00215208
0.00190143
0.0020556
0.000226164
0.000197245
0.000178601
0.000205547
0.000549929
0.0017964
0.000221738
0.00215404
0.000195048
0.0002003
0.000222123
0.00200678
0.000328748
0.00131152
0.000273803
0.0020352
0.000558553
0.00194394
0.00119203
0.00200475
0.00127889
0.0012891
0.00175288
0.00021163
0.00175728
0.000247498
0.000249306
0.00109353
0.00179024
0.00068408
0.00184643
0.000570545
0.000197685
0.0019344
0.000308793
0.000295031
0.000177231
0.000404128
0.0019105
0.00037908
0.000347279
0.00185756
0.000332531
0.000191147
0.00195466
0.000239329
0.000233796
0.00224321
0.0010157
0.000231788
0.000783773
0.000904484
0.00195579
0.00194484
0.00026772
0.00183268
0.00204388
0.00199444
0.00118402
0.00121794
0.000352695
0.00218652
0.000313193
0.00178691
0.00125338
0.00203967
0.00191525
0.000641959
0.000203581
0.000233433
0.000269941
0.00170796
0.000186623
0.000314052
0.000213697
0.00166858
0.0019468
0.00143919
0.000218461
0.000463082
0.000243885
0.000195151
0.00185162
0.000390509
0.00175945
0.00036417
0.000208965
0.000257469
0.000574825
0.00214077
0.0023179
0.00207555
0.00145215
0.000346306
0.000858141
0.00209234
0.00186086
0.00188922
0.000223626
0.000203037
0.00143087
0.000228088
0.000204245
0.00199072
0.00123911
0.000223634
0.00212562
0.0018158
0.0019956
0.00189109
0.000205433
0.00161953
0.00205649
0.000201384
0.00215806
0.00204252
0.00112576
0.000917737
0.00142343
0.00153947
0.000211548
0.000202153
0.000236843
0.000365229
0.000249577
0.000279453
0.000264312
0.000629985
0.00087822
0.00200147
0.00153227
0.000965391
0.00163981
0.00160335
0.000216608
0.000514421
0.000210278
0.000220067
0.000237807
0.00168762
0.000366639
0.00182306
0.000181423
0.0010243
0.000233161
0.00176906
0.000168095
0.000233398
0.000538575
0.0019259
0.000188089
0.000224091
0.00114609
0.000227502
0.00105384
0.000622602
0.00108572
0.000373201
0.000421051
0.00187137
0.000216131
0.00193661
0.000527561
0.000248554
0.000252296
0.00208203
0.00209566
0.000200269
0.000933438
0.000442808
0.00206632
0.00221816
0.000265634
0.00093191
0.00133071
0.00119843
0.0016419
0.000233299
0.000197116
0.000897196
0.00198147
0.00212344
0.000224017
0.00183824
0.000495616
0.00211363
0.00201352
0.00209359
0.00195299
0.00194266
0.000379853
0.00201412
0.000231814
0.00173075
0.000539492
0.00151305
0.00204399
0.00126587
0.00125566
0.000214393
0.000213597
0.000193777
0.00199937
0.00212245
0.00116349
0.000819334
0.000189172
0.000218082
0.000702404
0.00149188
0.00210711
0.00170749
0.0011682
0.00192726
0.000993436
0.000263369
0.000772178
0.000217544
0.000261509
0.0015963
0.000360884
0.00115074
0.000204283
0.00204884
0.0020005
0.00226652
0.000346681
0.00148126
0.00209831
0.000864964
0.00201913
0.000365995
0.00191998
0.00145661
0.000208461
0.00197919
0.00079654
0.000242112
0.000384941
0.00194649
0.00104143
0.000333566
0.000184963
0.00174805
0.000832689
0.00148912
0.000940578
0.000208601
0.00134406
0.000205903
0.00167565
0.000773106
0.00177183
0.000277315
0.000592079
0.000484358
0.000174836
0.00210706
0.00213257
0.000213749
0.00207142
0.00222625
0.000233812
0.000261807
0.000201939
0.001891
0.00201007
0.000233748
0.000198871
0.000191081
0.000637319
0.00200903
0.000213624
0.00170353
0.00160855
0.00206745
0.000241474
0.00212013
0.000220396
0.00180998
0.000204064
0.000216392
0.00160602
0.000229316
0.000184503
0.000232209
0.000253624
0.000210704
0.00150109
0.000210014
0.000229726
0.00167371
0.00202755
0.000286522
0.000549514
0.000197896
0.0020046
0.000189427
0.00181394
0.000234637
0.000814212
0.00203191
0.000252428
0.00196245
0.000221939
0.000166075
0.00134672
0.00210443
0.00104799
0.000930345
0.00175548
0.000241448
0.00191085
0.000221782
0.00198884
0.000880694
0.000249949
0.00143739
0.000281678
0.000261457
0.00148141
0.000212767
0.00118851
0.00193066
0.000899956
0.000212761
0.00192452
0.000313978
0.00214311
0.00175481
0.0019022
0.00206656
0.000236315
0.000215081
0.00195935
0.00185292
0.000209777
0.00183438
0.00208323
0.00178039
0.00174772
0.000743868
0.000187674
0.00211052
0.000497668
0.0019044
0.000445317
0.000288007
0.00211309
0.00034066
0.0011994
0.00205253
0.00122159
0.000149184
0.000200099
0.00208772
0.00168154
0.00185088
0.00164029
0.000333717
0.00150236
0.0019096
0.00020744
0.00193514
0.00137892
0.000216338
0.000233074
0.00111667
0.00124834
0.000983927
0.00091448
0.000560051
0.00204918
0.000414545
0.00213105
0.00198444
0.00199954
0.00177414
0.000253885
0.00207365
0.000190391
0.000247663
0.000226642
0.00183115
0.00127706
0.000585086
0.00202631
0.00202945
0.00154808
0.00214737
0.000198671
0.00121471
0.00143453
0.00214142
0.000746066
0.00122053
0.00178789
0.000598556
0.000192169
0.000194758
0.000260008
0.000228796
0.000265549
0.000961079
0.00106942
0.000201097
0.000205313
0.00204406
0.000273125
0.000236646
0.0015066
0.000631861
0.00101091
0.000230637
0.000203498
0.000759873
0.00178588
0.001376
0.000217827
0.000233822
0.000395515
0.000239646
0.0010351
0.000240564
0.000566329
0.00191485
0.00179054
0.000226514
0.000470384
0.000184377
0.000229998
0.00205456
0.000170548
0.00194013
0.000271151
0.0017317
0.00145357
0.000188508
0.000205696
0.00154607
0.000206196
0.00177721
0.000208446
0.000540704
0.00207434
0.000199279
0.000200814
0.000249529
0.00117211
0.000505999
0.000198147
0.000229084
0.00018127
0.00197306
0.000279832
0.00198533
0.0010343
0.00199666
0.000154084
0.00111593
0.000307456
0.00163055
0.000203974
0.00136185
0.00163185
0.000220975
0.0022246
0.000732061
0.0007959
0.000187024
0.000288176
0.0020479
0.000945445
0.000205393
0.000621005
0.000223548
0.000219652
0.00207985
0.00151973
0.000902698
0.00182294
0.00204319
0.00210748
0.000825889
0.000237647
0.000239602
0.0018904
0.00162945
0.000680708
0.00102327
0.000239417
0.00101334
0.00173466
0.00040055
0.000468926
0.000252024
0.000326255
0.000230846
0.0015926
0.00192342
0.000344314
0.000447326
0.000193968
0.000279035
0.000219276
0.002256
0.00183761
0.00167033
0.00175218
0.000301189
0.000795148
0.001033
0.000244485
0.00208809
0.000171689
0.00107059
0.000251559
0.00181217
0.00121846
0.00150167
0.000662352
0.00154334
0.00171829
0.00225104
0.000225408
0.00027602
0.000166138
0.00196908
0.00158137
0.00102962
0.00178508
0.000159884
0.000404643
0.0003559
0.00197146
0.000941077
0.00133625
0.000487105
0.00194557
0.000183501
0.0003584
0.00166121
0.000272629
0.000225817
0.000236504
0.000194128
0.000371103
0.00207478
0.000234388
0.000174846
0.000624144
0.000281582
0.000468688
0.00207438
0.00204934
0.00216248
0.00161539
0.00226113
0.000783454
0.00019409
0.00200188
0.00103638
0.000293785
0.000410984
0.00184932
0.000598768
0.000241797
0.00134479
0.000215363
0.000300638
0.000435331
0.00025224
0.00138258
0.00037984
0.00100329
0.000208997
0.000241341
0.000209612
0.000200672
0.000835146
0.00164385
0.000826755
0.000414389
0.0010423
0.00145158
0.000238034
0.0019746
0.00187141
0.000223347
0.000214479
0.000722686
0.000521896
0.00022557
0.00189438
0.000212345
0.00186828
0.00166271
0.000993646
0.00158649
0.00183411
0.000440393
0.00213276
0.000167668
0.000201024
0.00045512
0.000547987
0.00017839
0.00137337
0.00153058
0.00188799
0.00209086
0.000312485
0.0017853
0.00193118
0.000368151
0.000280264
0.00201708
0.000448517
0.000246165
0.00183526
0.00203178
0.00152994
0.000373607
0.000877052
0.000519783
0.000304111
0.000541294
0.000411579
0.0010216
0.000201959
0.0018316
0.0020477
0.00159422
0.00121402
0.000614599
0.000801083
0.000237729
0.000258302
0.000790755
0.00116013
0.00102205
0.0020936
0.00145915
0.00202978
0.00202563
0.000237697
0.000732896
0.00186198
0.000228853
0.00112749
0.00156163
0.000187706
0.00149294
0.00198245
0.00045265
0.00212516
0.00198563
0.00210256
0.000233642
0.00186595
0.000256031
0.000494942
0.0019447
0.000226525
0.000206543
0.00019731
0.00069929
0.000213041
0.00180295
0.00217028
0.00206956
0.00176623
0.000314054
0.000311063
0.00170318
0.00181541
0.000736013
0.000329844
0.00174874
0.00210199
0.00210254
0.000224145
0.00189409
0.000368745
0.000320402
0.000238298
0.00021376
0.000330961
0.00221139
0.000223507
0.00205447
0.00191051
0.00182762
0.00215722
0.00197596
0.00197877
0.0021776
0.00199652
0.00175891
0.00111326
0.000826318
0.00022616
0.000208344
0.00198608
0.000911729
0.000252934
0.00177779
0.000580174
0.00200831
0.00208674
0.00190184
0.00189203
0.000417175
0.00201081
0.000311475
0.0003712
0.00204535
0.000247705
0.0019288
0.000197924
0.000290574
0.00190262
0.000262222
0.000227641
0.00188495
0.00175788
0.00145254
0.000204526
0.00197618
0.000212579
0.000352262
0.000238796
0.000236575
0.000344858
0.00214953
0.000225484
0.00167238
0.0018842
0.000660491
0.0020858
0.00207
0.000669358
0.0021375
0.00219908
0.000247539
0.0019745
0.000264581
0.000213806
0.0016218
0.00181733
0.000314734
0.00216066
0.000580286
0.000257758
0.00185717
0.000216009
0.00197997
0.00215143
0.00069921
0.000245399
0.00026901
0.000470059
0.000257679
0.00115102
0.00091425
0.000408183
0.000178631
0.000526995
0.00184321
0.00193302
0.0020463
0.00199228
0.000359461
0.00189363
0.00185043
0.000543558
0.00120402
0.000210861
0.000801351
0.00174062
0.00217448
0.000216301
0.00184311
0.000315631
0.000620188
0.000202084
0.000800746
0.000353178
0.000225752
0.000874893
0.000246986
0.00171304
0.000505255
0.0020701
0.000264284
0.00188675
0.000422356
0.00021391
0.000354164
0.00134252
0.000207784
0.00182802
0.00155826
0.000181042
0.00019821
0.000247697
0.00218414
0.00127417
0.00177028
0.000423339
0.000180108
0.00108976
0.000165063
0.000660567
0.00196735
0.00143498
0.000218481
0.00139241
0.00022916
0.000314927
0.00142783
0.00204518
0.000211544
0.00162338
0.000820148
0.00028838
0.00180325
0.00184221
0.00205554
0.00141674
0.000421711
0.000291408
0.00168244
0.00138293
0.000228401
0.000216988
0.000247816
0.00207853
0.000354492
0.00194666
0.000188134
0.0021027
0.000228661
0.00130354
0.000863655
0.00188903
0.00216178
0.000984535
0.001184
0.00018039
0.000204185
0.00172256
0.00101372
0.000230518
0.000268238
0.00175124
0.00168828
0.00191863
0.000506742
0.00128753
0.00187164
0.00197863
0.000233109
0.000352525
0.000233944
0.00115833
0.00028039
0.000208244
0.00026725
0.00197958
0.000512209
0.000470872
0.00182064
0.00191609
0.000171422
0.00199331
0.00193211
0.000238788
0.000236196
0.00204428
0.00199048
0.000187147
0.00016261
0.00171033
0.000494015
0.000223048
0.000226152
0.002026
0.00191295
0.00192834
0.00119075
0.00182199
0.000197001
0.00020019
0.00216382
0.00216159
0.000536056
0.00152735
0.000191185
0.00021646
0.00025608
0.00170029
0.000205136
0.00185002
0.00129798
0.000352359
0.000235463
0.000216224
0.00212932
0.00202556
0.000747518
0.00207561
0.000589791
0.00160815
0.000256617
0.000265348
0.000239019
0.000588767
0.00125883
0.0004404
0.00019634
0.000327074
0.000635931
0.00134332
0.000343426
0.00187937
0.00193071
0.000539089
0.000209309
0.000253955
0.00188854
0.000188358
0.000799593
0.000816353
0.000357253
0.000197263
0.00120241
0.000243319
0.000167876
0.000182103
0.000934549
0.00197277
0.000938848
0.000970607
0.000347806
0.000558192
0.000198751
0.000196631
0.000256411
0.00184014
0.000437811
0.00132257
0.000614438
0.000508003
0.0011538
0.000257604
0.000915585
0.00020087
0.00189674
0.000559665
0.000215351
0.00187995
0.000446966
0.00106233
0.000294711
0.000176421
0.000161334
0.00139907
0.000255192
0.00220728
0.0020475
0.000918956
0.000219521
0.000180395
0.00189263
0.000246836
0.0018673
0.00175558
0.00223063
0.000236257
0.00161354
0.0019253
0.00183238
0.00187318
0.000163586
0.000247278
0.00196358
0.000549877
0.000242226
0.00199679
0.000875414
0.001009
0.000384963
0.000276551
0.000196743
0.000184028
0.00190385
0.00218203
0.000865456
0.000196432
0.000202095
0.00142667
0.000971536
0.00024655
0.00213739
0.00153319
0.00180283
0.00190618
0.00199612
0.00173866
0.00129646
0.000621821
0.000777559
0.000684505
0.000245087
0.000203868
0.0022223
0.00102213
0.000214467
0.000200509
0.00212062
0.000176516
0.00139604
0.000424447
0.00170381
0.00163566
0.000643878
0.00197886
0.00187206
0.0017589
0.000246048
0.000277788
0.0021535
0.00197804
0.000226027
0.00033296
0.000868663
0.00207185
0.00103097
0.000178804
0.000615583
0.00106834
0.000260399
0.00190161
0.000691624
0.000209105
0.000863152
0.000235904
0.000324693
0.00017657
0.00180917
0.00174931
0.0020197
0.000191129
0.000226507
0.00026972
0.00165289
0.000182439
0.000200253
0.000344965
0.00198205
0.000223749
0.00197531
0.00156617
0.000255578
0.000249487
0.000283603
0.00170294
0.00190554
0.00142863
0.000856322
0.000491637
0.000483017
0.000374786
0.000237436
0.000185506
0.00024829
0.000362085
0.00211588
0.000189282
0.000162026
0.000200121
0.000218752
0.00172178
0.000251215
0.00207426
0.00216257
0.00125142
0.000243482
0.00213104
0.000197054
0.0002555
0.00202772
0.00184076
0.000735879
0.00190609
0.00210132
0.000206175
0.00112487
0.00205117
0.00195819
0.000375807
0.0017572
0.00207092
0.000475036
0.000174884
0.000183658
0.000547306
0.00216428
0.000194123
0.000316689
0.00180224
0.000213779
0.000265076
0.000541611
0.000198595
0.000264625
0.000203114
0.000187643
0.000222864
0.000164601
0.000213601
0.000196366
0.000581031
0.00029346
0.00217694
0.000187674
0.00203862
0.00115037
0.00157128
0.00056007
0.00198541
0.000205236
0.00161705
0.0017877
0.000328567
0.00202117
0.000806995
0.000156081
0.000795994
0.000309119
0.000254977
0.000180091
0.000925376
0.000403869
0.000198539
0.00169406
0.000945453
0.00198719
0.00205844
0.000244332
0.000725487
0.000375032
0.00178558
0.00104224
0.00119377
0.00184767
0.000385784
0.00182878
0.00114235
0.00186427
0.000489437
0.000543212
0.0007327
0.000341412
0.00198965
0.00121881
0.000288666
0.00133922
0.000285015
0.000247139
0.000215299
0.00115672
0.00137069
0.00200462
0.00174808
0.000666562
0.000239765
0.000639349
0.000193832
0.000238031
0.000304891
0.000217759
0.000325257
0.00174204
0.000248963
0.000659848
0.000193987
0.000232918
0.00203144
0.00021185
0.00177618
0.000858508
0.00211679
0.000201436
0.000256454
0.000844358
0.0012112
0.00020992
0.00100251
0.000228737
0.000462175
0.00199475
0.00148953
0.00200681
0.000503346
0.000454113
0.000349011
0.000289033
0.000202189
0.000202179
0.000188301
0.000544098
0.00176795
0.000289168
0.00021989
0.000398337
0.00133779
0.00182569
0.000204558
0.00105887
0.000199475
0.000273612
0.00142881
0.000258484
0.000292706
0.000403978
0.00072328
0.000449452
0.00121205
0.000335966
0.000398028
0.00190649
0.000644372
0.00205728
0.000209556
0.000175861
0.000801701
0.000405654
0.00162729
0.000487827
0.000433293
0.000176487
0.00100186
0.000819199
0.0016469
0.000322172
0.000268283
0.000216255
0.000220833
0.00077905
0.000239374
0.000495607
0.000207704
0.000741501
0.000235181
0.000325248
0.0020862
0.000210244
0.00151584
0.00193371
0.000206163
0.000215211
0.000778872
0.000222629
0.00153914
0.0018723
0.000299652
0.00159167
0.000513356
0.000698585
0.000230092
0.000597503
0.000723318
0.00198298
0.000152283
0.00179843
0.000939736
0.000329899
0.000885029
0.000205717
0.00207827
0.000221312
0.00158747
0.000799054
0.00133994
0.000884154
0.000216791
0.000206972
0.00208676
0.00191361
0.000224782
0.000651868
0.000185722
0.000730918
0.000236385
0.000197513
0.000437729
0.00160735
0.000314689
0.00208793
0.000713574
0.00114188
0.000212471
0.00215441
0.000251922
0.000251358
0.00193758
0.00214355
0.000949623
0.000238333
0.000247403
0.00217816
0.00202102
0.00133487
0.0014321
0.001484
0.000172215
0.000955098
0.00144591
0.00107855
0.000210594
0.000952455
0.00202913
0.0010836
0.0018719
0.00218859
0.00021068
0.00129473
0.000232999
0.00168042
0.00042111
0.00111465
0.00135772
0.00192109
0.00215093
0.000206512
0.00164874
0.000215549
0.00022309
0.000859984
0.000263173
0.00141699
0.00018183
0.000250961
0.000200607
0.000344167
0.00107102
0.00018125
0.000231088
0.00117227
0.000365339
0.00195314
0.000559004
0.000187115
0.00032825
0.000243192
0.000663569
0.00185816
0.000214379
0.00185278
0.00204747
0.00183688
0.00162742
0.00221364
0.0017649
0.00190946
0.00130951
0.000310671
0.000199625
0.000946372
0.000202807
0.000590165
0.000731702
0.000281067
0.00207033
0.000841286
0.000229902
0.00209253
0.000159516
0.000387612
0.000281388
0.000982541
0.00206073
0.000270162
0.000543199
0.000231257
0.00075695
0.00071873
0.000318134
0.00163843
0.000165174
0.000227913
0.00197397
0.000777532
0.0017248
0.0004743
0.000191667
0.00206506
0.00025009
0.00210892
0.00171115
0.000213527
0.00170049
0.00205032
0.000234271
0.000318182
0.00203555
0.000434007
0.000220494
0.00171556
0.00026268
0.000231983
0.0003729
0.00209358
0.00209827
0.00142078
0.00192881
0.00122793
0.00209373
0.000626154
0.000602435
0.00199056
0.00138307
0.000187373
0.00022435
0.000807326
0.00188775
0.000649242
0.000210198
0.000230468
0.00139356
0.000288465
0.0013567
0.0018075
0.00203742
0.000231554
0.000315323
0.00200965
0.000728401
0.00156139
0.0012386
0.000210542
0.000258647
0.00226008
0.00024146
0.00029806
0.000187993
0.00023179
0.00199946
0.00202635
0.00137001
0.000620151
0.000372939
0.000482218
0.00205387
0.00187414
0.000197525
0.00213306
0.0019422
0.00186691
0.00017109
0.000706247
0.000250573
0.000375918
0.000251981
0.00181656
0.00117229
0.00110796
0.000231276
0.000291707
0.00024959
0.00015284
0.00145782
0.000202885
0.000209553
0.00197709
0.0019673
0.00211268
0.000200102
0.000487835
0.00020651
0.00198207
0.00156482
0.00171747
0.00209417
0.000229901
0.00124347
0.000733922
0.00210871
0.00178414
0.00185022
0.00184812
0.00193353
0.000194378
0.000208081
0.000601172
0.0019575
0.00140636
0.000215009
0.00198657
0.00020798
0.000861521
0.00120962
0.000308285
0.000258634
0.000205959
0.000163318
0.00138998
0.00117914
0.000213697
0.000802585
0.000175003
0.00190565
0.00186734
0.000215428
0.000684134
0.000880373
0.00191225
0.000253739
0.000211879
0.000218636
0.000249194
0.000220792
0.000237849
0.000249276
0.000245412
0.000338463
0.00200824
0.00119506
0.00177282
0.000754774
0.000194219
0.00173779
0.000863486
0.000168214
0.000159644
0.000239704
0.000380561
0.000282575
0.00180039
0.00146457
0.00192942
0.00167872
0.000213193
0.000302172
0.00174242
0.00198902
0.00140234
0.00192338
0.0021421
0.000213789
0.000523161
0.00151259
0.00205492
0.000148916
0.000877311
0.000572973
0.000819714
0.0005981
0.00196056
0.000213624
0.000187863
0.000220865
0.000355838
0.00213023
0.00206068
0.00184366
0.000269952
0.000548287
0.000186455
0.000481765
0.00204121
0.000201021
0.00028495
0.00207292
0.00141093
0.0015867
0.00189651
0.000356274
0.000243068
0.00116492
0.000469466
0.00071819
0.00152146
0.00097059
0.00186159
0.000277359
0.00117779
0.000176273
0.000173574
0.000219491
0.000361799
0.000738768
0.000414275
0.000174086
0.00139261
0.000224915
0.000198103
0.0001743
0.000729449
0.00203163
0.00157924
0.000193945
0.000257733
0.000202041
0.000211829
0.00028247
0.00178007
0.00158904
0.000230006
0.000219618
0.000218172
0.0020979
0.00172429
0.00125887
0.000354894
0.0016472
0.00126932
0.000372087
0.000217309
0.00209963
0.00104
0.00122672
0.000848335
0.00151678
0.00218974
0.000320816
0.000838244
0.000267069
0.00171261
0.00187599
0.00201371
0.000165619
0.0019552
0.000209903
0.00161281
0.00187172
0.00187252
0.00200848
0.000195332
0.000219991
0.000213356
0.00212303
0.00196199
0.00104385
0.00172492
0.000188711
0.000334993
0.00168807
0.00204816
0.000570611
0.00030745
0.000931951
0.000561215
0.00172007
0.00194968
0.00192475
0.00187427
0.00145891
0.0010105
0.000382429
0.00165784
0.00204637
0.00151953
0.000332424
0.000247953
0.000193581
0.00024803
0.000534837
0.00205101
0.00206141
0.000231608
0.000706032
0.000932129
0.000940529
0.000360521
0.00184102
0.00111362
0.000886247
0.00202214
0.000515876
0.000936441
0.000241941
0.000651092
0.00125374
0.000219249
0.000762541
0.00134424
0.0011641
0.00176058
0.00194254
0.000181894
0.0018415
0.000320641
0.00205398
0.000250749
0.00201144
0.000751634
0.000347805
0.000653735
0.000209149
0.000742872
0.000240346
0.000221233
0.0010438
0.000206975
0.00205046
0.00189284
0.00196056
0.000177725
0.000408446
0.000194818
0.00121428
0.0001933
0.000354396
0.00156417
0.00169685
0.00208249
0.00147619
0.0015635
0.0020743
0.00159176
0.00196711
0.00203593
0.000249396
0.000407689
0.00209904
0.00200925
0.000242693
0.00148703
0.002047
0.0019802
0.000213037
0.00127133
0.000202601
0.00195544
0.000222146
0.000194843
0.000612436
0.000904411
0.00126212
0.000668307
0.000218639
0.00190088
0.000250217
0.000229944
0.00150081
0.000198523
0.000339467
0.000938337
0.00176986
0.000193791
0.000231686
0.000202156
0.00194576
0.00192055
0.000250353
0.00140511
0.000327087
0.000222722
0.00198972
0.000261027
0.00113168
0.00190423
0.00204357
0.00147943
0.00205024
0.0020724
0.000893823
0.00214496
0.00153496
0.00203457
0.000540749
0.000412596
0.00203279
0.000313426
0.0016256
0.00140714
0.0018561
0.00141236
0.00184056
0.00111134
0.000221156
0.00170635
0.00203569
0.000217553
0.000659395
0.00200079
0.000188333
0.0017539
0.00171113
0.000371823
0.000792434
0.000260012
0.000624976
0.00212718
0.00138734
0.000397287
0.00019743
0.000231581
0.000860916
0.000220612
0.000207476
0.000268236
0.00116963
0.00205072
0.002039
0.00111541
0.00157377
0.00149796
0.000253578
0.000581358
0.00190823
0.00206203
0.00193718
0.0018209
0.000187558
0.00017266
0.000189867
0.000242061
0.00182938
0.00196915
0.00203844
0.000361116
0.0014672
0.00193623
0.000205054
0.00185122
0.00166225
0.00180791
0.00212161
0.000288681
0.000221726
0.00065325
0.000239468
0.00170965
0.00130406
0.000481987
0.00166634
0.00035071
0.000220233
0.000433466
0.00210629
0.000351393
0.000794643
0.00199087
0.000822361
0.000227218
0.00191192
0.00197624
0.000219242
0.000239975
0.000366069
0.000255712
0.00175491
0.000749562
0.000256996
0.0019035
0.00207458
0.00185234
0.000874767
0.00184643
0.0019224
0.00189844
0.00112166
0.000337002
0.00136916
0.00025927
0.000242973
0.000209007
0.00194991
0.000601559
0.00195855
0.00123405
0.000400643
0.000460275
0.00018026
0.000463159
0.00018926
0.000342286
0.00101973
0.00117273
0.00192925
0.00139644
0.000206933
0.000262855
0.00188322
0.000253228
0.000266367
0.000785891
0.000232928
0.00206972
0.000870792
0.0015124
0.000710642
0.00191239
0.000682885
0.00178726
0.000210942
0.00208622
0.000214674
0.000187619
0.000241984
0.000785706
0.000734637
0.00205141
0.000201276
0.00193557
0.00150441
0.000479575
0.000274247
0.000328775
0.000215038
0.000244099
0.000227512
0.000233497
0.00215656
0.000203089
0.0016607
0.000206326
0.00016599
0.000393195
0.000214033
0.000176689
0.000208315
0.00109997
0.000576077
0.00209864
0.000243962
0.00211363
0.000235224
0.000633915
0.000198063
0.00139183
0.00187428
0.000196271
0.00109085
0.00178821
0.00185862
0.00120972
0.000924358
0.00204165
0.00188509
0.00198293
0.00111205
0.000283795
0.000294949
0.000195329
0.00163111
0.00019771
0.000337791
0.00161861
0.000277615
0.000505523
0.000172442
0.000826987
0.000589142
0.00217963
0.00104078
0.00196136
0.00116084
0.00195086
0.000951964
0.00221875
0.000220848
0.000198524
0.00143654
0.0020059
0.00126839
0.00122492
0.00153416
0.00174213
0.00134182
0.000218451
0.00149255
0.00199228
0.000250253
0.000790069
0.000252121
0.00120173
0.000243944
0.000246519
0.00138751
0.00021261
0.000256214
0.000203485
0.000186854
0.000204114
0.0020154
0.00085963
0.00190699
0.000899223
0.000234809
0.00177494
0.00213872
0.00184785
0.000211527
0.0011198
0.000490724
0.000699057
0.0016617
0.000216389
0.000182529
0.00108981
0.000274743
0.00188529
0.000268728
0.0010246
0.000240052
0.00203799
0.00177232
0.00155002
0.00022225
0.000201363
0.000231521
0.00158964
0.000212422
0.000139937
0.000729711
0.000333898
0.00023476
0.000468659
0.000311
0.000800329
0.00117515
0.00214674
0.00152418
0.000172
0.000668116
0.00015843
0.00188033
0.00142984
0.000762073
0.00191651
0.000356112
0.000584163
0.000192302
0.00140572
0.00046298
0.00202611
0.00200629
0.000223115
0.000173221
0.00184447
0.00155442
0.00206545
0.000227547
0.000973982
0.000236163
0.000296365
0.000249695
0.00188967
0.000205772
0.000651812
0.000191913
0.000254824
0.00140067
0.000195667
0.000219284
0.000205982
0.00138639
0.00176013
0.00212577
0.000193313
0.00111623
0.0018976
0.000613646
0.000723646
0.00186721
0.00185843
0.00204647
0.000242961
0.00160477
0.000855514
0.000276563
0.000284587
0.00185427
0.00186655
0.000471734
0.00179984
0.000188894
0.000601935
0.00077117
0.000207509
0.00158339
0.00185034
0.0012623
0.000261501
0.00195884
0.000262368
0.0020082
0.000217279
0.000184598
0.00201486
0.00199146
0.000231023
0.00141195
0.0019617
0.00194902
0.0020472
0.000229202
0.000240146
0.0018998
0.00122025
0.00110016
0.00177675
0.000217775
0.00121856
0.000233383
0.000222353
0.00164138
0.00194073
0.000467428
0.00171948
0.000925363
0.000237177
0.000194885
0.00199596
0.00182046
0.000243807
0.000208777
0.000322042
0.00142173
0.00136242
0.000206474
0.000330575
0.00182784
0.0019151
0.00181005
0.0013315
0.000579701
0.00188038
0.00120663
0.00197151
0.000332166
0.000253149
0.000226008
0.000785718
0.000382489
0.00183092
0.00177237
0.00210301
0.00189382
0.00220278
0.00197447
0.0013045
0.00200961
0.0005042
0.00184219
0.00198101
0.000387565
0.00193174
0.000337581
0.000239093
0.000641783
0.00105074
0.00103584
0.000781471
0.000794072
0.000415911
0.000266395
0.00123951
0.00173643
0.00159027
0.000730462
0.00016956
0.0019774
0.000515984
0.000230402
0.00109471
0.00020902
0.000652226
0.00121384
0.00109367
0.00111308
0.000539199
0.000215005
0.000225886
0.000303266
0.0022517
0.000273738
0.00160544
0.00186756
0.000228296
0.0019388
0.000422662
0.00208276
0.000759875
0.000760842
0.000265958
0.00227201
0.00194323
0.000183014
0.001798
0.000218579
0.000176977
0.00114035
0.000220886
0.00187078
0.00183203
0.00197497
0.000426508
0.000335716
0.00113984
0.00186298
0.000974914
0.000226305
0.000217858
0.000918744
0.00140051
0.000663294
0.00204005
0.00027655
0.000392972
0.00156041
0.00190936
0.00191405
0.000357556
0.00060081
0.000339639
0.000955445
0.00111179
0.000651245
0.000535039
0.000232981
0.00121997
0.00112071
0.00122833
0.0019609
0.0012079
0.00207309
0.000223353
0.000722876
0.00027178
0.000230939
0.00155329
0.00024526
0.00202975
0.00201126
0.00110708
0.000188149
0.000375813
0.00163523
0.00178387
0.000201547
0.0019684
0.000299435
0.00081915
0.000286214
0.000636912
0.00141475
0.00173255
0.000189568
0.00113365
0.00179461
0.00184638
0.000339003
0.00168074
0.00148094
0.000242109
0.00206633
0.000239139
0.00129205
0.00203075
0.00182503
0.000762748
0.000384858
0.000258014
0.000285321
0.00026593
0.00207836
0.00200539
0.000214407
0.000215896
0.0012651
0.00100249
0.000219456
0.000516573
0.00115024
0.00094525
0.00157129
0.00019761
0.00135498
0.000511514
0.000245665
0.00185367
0.000193799
0.000319617
0.000210794
0.000272333
0.000295602
0.000199427
0.000904138
0.000223804
0.000760305
0.000208201
0.000193319
0.000874193
0.00023232
0.000259526
0.00130555
0.000225109
0.00133812
0.000252466
0.000237422
0.000243739
0.00197587
0.000194257
0.000226109
0.00109868