/*--------------------------------*- C++ -*----------------------------------*\
| =========                 |                                                 |
| \\      /  F ield         | OpenFOAM: The Open Source CFD Toolbox           |
|  \\    /   O peration     | Version:  2406                                  |
|   \\  /    A nd           | Website:  www.openfoam.com                      |
|    \\/     M anipulation  |                                                 |
\*---------------------------------------------------------------------------*/
FoamFile
{
    version     2.0;
    format      ascii;
    arch        "LSB;label=32;scalar=64";
    class       volScalarField;
    location    "6";
    object      p;
}
// * * * * * * * * * * * * * * * * * * * * * * * * * * * * * * * * * * * * * //

dimensions      [0 2 -2 0 0 0 0];

internalField   nonuniform List<scalar> 
59516
(
3.70555
0.216571
0.21695
0.0121504
3.90931
3.93808
3.69879
3.16634
0.963081
0.0123875
3.82776
3.76294
2.41664
3.71351
3.37913
1.0042
3.71942
3.86139
3.78155
3.66787
3.76573
3.17282
3.71607
2.19048
0.862204
2.06068
1.18971
3.78456
3.75287
3.39799
3.91081
3.77905
1.53188
0.0189008
3.77836
2.97331
0.813121
3.87607
3.76664
0.189072
0.213852
3.83479
3.76998
0.00465263
3.74742
0.601088
3.7708
3.77723
3.91407
3.8026
3.93321
0.0204207
1.54127
3.28159
3.73536
3.74849
3.84583
0.0151362
2.16491
3.81285
0.0161166
2.88664
2.18069
3.73183
0.0479667
3.76777
0.134375
3.03342
3.90914
3.76034
3.0933
3.67826
0.634921
3.69683
3.06276
3.74998
3.76642
0.429739
2.48847
3.79638
-0.00180398
3.78708
3.7817
1.33312
3.79443
3.65744
0.963942
3.67481
1.53202
3.85026
3.88358
3.12893
3.58306
3.0883
3.08961
3.90742
3.39142
3.19674
3.7868
2.37769
1.03777
1.95433
3.32186
0.167086
0.620123
0.102717
0.114879
0.908067
1.60783
2.48203
3.90194
1.14663
3.15243
3.90581
3.51403
2.79092
0.446935
3.29827
3.2789
0.478228
3.31002
3.25017
0.78387
3.27986
3.87847
3.80104
3.47295
3.84671
3.91947
3.5599
3.51573
0.240367
3.02283
3.56618
3.56921
3.0096
3.8921
3.45123
1.94959
3.61423
1.11931
1.42803
3.19204
1.13124
3.65197
3.61334
3.76164
3.68955
3.94218
3.57768
3.64809
0.0533576
3.52941
0.045295
3.53951
0.0674849
0.0715438
3.55211
3.59535
3.37977
3.62735
3.62947
3.37347
0.0478189
2.77661
0.443936
0.966166
3.6121
3.64517
0.067096
3.54416
3.5474
3.46616
3.49296
3.47599
3.78484
2.8285
3.78426
0.238177
2.78537
3.52463
1.7055
2.01317
3.48744
3.51963
1.07505
1.44193
0.823169
3.53055
3.48649
0.0051526
1.68579
3.60421
3.49221
3.62558
0.322476
1.95072
1.95652
0.0550963
3.45356
0.00902323
0.828066
3.21232
2.43221
2.9073
1.67009
3.62532
0.0539955
2.25779
3.3652
0.620142
3.79548
3.34368
2.92415
3.35257
1.20138
3.59426
0.313085
2.6381
3.3431
3.33917
3.5864
3.47831
0.0740091
3.40101
2.82906
2.25322
2.35628
3.45635
0.538628
3.40524
1.65179
3.48178
1.74616
1.82855
3.45442
3.4648
0.67457
3.44245
0.756289
3.53258
1.71042
1.58588
0.0607448
3.55313
3.52244
3.48984
0.211698
3.47479
3.52474
0.192165
3.4706
3.54173
2.04147
3.51586
3.5241
0.977471
3.4235
2.55656
3.40524
2.28871
3.40446
3.41396
3.438
2.9638
0.764381
2.67577
0.868773
3.40314
2.14223
3.71088
2.89732
0.948184
2.1916
3.41529
2.97951
2.11705
3.39414
3.45212
1.21048
3.46736
2.40809
2.17661
3.36868
3.33876
3.70591
3.52402
0.138914
3.44231
2.99509
3.42965
3.36015
3.09922
0.452867
3.12647
1.60117
3.02598
2.94565
3.39412
3.00639
3.00159
0.813478
1.27074
2.90261
3.02953
2.05296
0.294874
3.01964
3.01367
1.04921
0.868048
3.01226
2.03836
1.89557
3.7613
3.04362
3.22243
3.91737
3.04737
0.825022
1.64721
3.21617
1.78555
3.27054
2.3945
3.04282
3.80444
3.22932
2.24286
3.24865
0.353951
3.662
2.21252
3.2537
2.5839
3.35315
3.43297
2.87126
3.80612
3.34888
2.9191
2.88555
3.26658
0.706285
1.33323
3.34264
1.24145
3.43318
3.28085
2.55184
3.46198
3.47546
0.530055
1.52884
2.25363
0.732373
0.124664
3.88963
3.931
2.78821
0.488749
3.58792
3.80131
3.14864
0.492321
3.25809
3.25573
3.58066
3.91732
3.31867
1.09147
1.10113
3.24037
2.33101
2.73403
3.21575
3.25873
3.18395
2.50631
3.06003
3.60624
0.0425925
3.82646
0.176618
0.312393
3.25778
0.119755
3.82055
3.2472
0.216606
0.200281
0.762879
3.17525
3.88371
3.21609
3.88079
0.212632
0.978792
3.1636
3.18333
3.36143
3.13709
2.53217
3.38959
3.41313
0.807356
1.91537
3.41413
3.37749
3.36676
0.606799
0.328635
0.373107
1.74459
2.90458
0.167135
0.532487
0.915223
0.0785049
3.15916
3.11772
3.21687
3.21652
3.40092
3.21398
2.35592
3.117
1.99635
3.22946
2.61829
3.28904
3.20971
2.98258
1.78551
3.34709
3.81786
0.359958
3.30485
2.27999
1.0824
2.33587
2.64347
3.32006
3.29922
3.22251
3.19345
1.0484
3.20131
2.382
0.442158
2.68053
3.91925
1.99471
0.838882
3.23688
2.54184
3.18755
1.85426
3.18988
0.836163
3.21631
0.0698644
0.121866
3.12856
3.76255
3.09659
2.82785
0.548971
2.88995
2.86908
0.601532
2.99843
2.86132
2.79958
2.79689
1.27984
2.90164
2.82081
1.8212
2.77988
1.14666
2.75498
3.78875
2.73749
3.93773
2.76377
3.45553
1.11857
1.26412
2.35313
0.0686311
0.0485865
2.58057
2.98422
3.03845
2.22784
2.82575
0.700884
3.13379
3.09285
3.83117
1.96297
1.68528
2.40993
3.08877
0.299304
3.0115
3.70503
0.0752209
3.94743
3.11081
0.88237
3.65111
2.5634
3.76215
2.87974
2.45051
2.73508
3.17242
2.47628
3.17493
3.57597
0.982985
1.01261
3.88588
0.0462166
3.15356
3.00489
3.90606
2.95251
3.63615
0.0130694
3.056
1.12712
0.00905197
2.16885
0.577079
3.83707
3.28551
0.931983
0.042017
3.37451
1.72492
3.00025
3.35036
2.98568
3.59293
0.0173967
1.37277
0.888999
2.98739
0.526283
2.09365
3.14021
1.80032
3.11244
0.0394152
3.17396
0.902516
3.11605
2.34354
1.52723
1.42527
3.15328
0.0317681
0.626978
2.99709
1.07095
2.25576
2.66244
1.62816
1.55987
2.9648
2.95483
3.50381
2.93249
1.54044
2.96373
2.93178
1.50425
1.31254
0.012624
2.98335
2.94918
2.9738
1.26697
2.86349
0.14177
2.99512
0.0878712
3.16174
0.0142126
0.386288
2.47137
1.67817
0.183327
3.00463
3.85849
0.0337211
0.275848
2.94078
2.89054
0.492652
2.9147
2.9343
1.86837
0.589058
3.16235
3.04252
0.217783
2.97915
2.9759
2.06556
2.88553
3.926
2.97779
3.88771
2.50781
3.90287
2.54266
0.352868
3.6371
0.0864861
0.0751187
3.90263
3.91676
2.56789
2.97203
3.84748
3.80169
1.71777
1.34663
2.35707
0.826548
2.52987
1.59851
3.82529
2.56705
2.58313
2.83966
2.67816
3.92086
2.36918
2.72862
0.742148
2.75611
1.97116
0.311343
2.75773
2.74388
2.75666
1.96521
1.16001
3.93618
1.57063
1.65227
1.96864
3.38614
2.76065
0.851353
2.49571
2.03223
0.224012
0.875467
2.79563
3.25163
2.13135
1.94171
2.78771
2.78402
1.07519
3.47974
2.92533
1.77766
2.89405
2.23255
3.05493
2.84884
0.182587
0.372965
2.57217
3.91652
1.95253
1.81176
0.062992
2.06588
2.8422
1.52182
2.99441
2.92278
1.15358
1.57384
2.97307
3.64017
3.16628
2.28599
3.91462
2.95588
0.531029
3.11358
3.91986
0.340886
1.54173
3.38948
2.768
1.02693
2.67138
0.361492
0.278449
2.25001
2.77414
3.90562
3.20288
2.77399
2.7668
2.86061
1.17123
0.180632
0.871265
3.15998
3.91309
2.0006
2.81674
1.7956
0.770689
2.75747
0.800313
2.78303
3.70358
1.57762
0.0010795
3.26799
1.23559
2.88696
0.283327
1.01626
2.04146
3.31985
2.84608
2.86644
3.91383
3.32467
0.572262
3.91208
0.0663316
-0.000170164
2.85517
0.600136
1.45566
2.05584
1.39565
3.90774
2.7984
3.24493
2.75341
0.642279
2.1969
0.72884
1.63045
3.2048
2.72909
2.77718
2.7417
0.957374
3.51532
2.54802
0.837501
2.7451
2.74619
2.72895
2.50836
2.74734
0.274413
0.200515
2.73522
0.0525083
1.54465
1.81334
0.145179
1.92758
2.27327
3.6565
2.59171
3.10055
2.34368
1.65301
2.77319
2.7944
2.80053
1.39449
2.78976
3.56587
0.281702
0.0392753
1.73076
1.48576
0.0523235
2.7841
2.72469
2.73074
0.27205
0.45908
2.72046
3.38372
0.420243
0.565861
3.91552
3.83814
2.81281
0.567448
2.97962
2.61466
3.04578
2.29379
2.68301
3.88329
2.29515
2.28672
1.15806
2.30801
3.89224
0.481373
2.66814
2.2977
1.32025
2.90506
3.041
1.1706
2.91171
3.33158
2.95314
2.27631
3.73789
0.728309
2.28668
3.21396
0.238756
2.48358
0.913119
2.24142
1.19907
3.87511
2.34804
0.0523639
2.26164
2.23537
2.4177
2.24146
2.0585
0.0761616
0.609325
2.9207
2.45894
1.96561
2.93832
1.3858
3.33765
0.375333
2.43811
1.06336
2.18156
2.96606
0.243185
2.50401
2.43384
3.90782
0.382543
3.05619
3.41419
0.560931
2.37195
0.598138
1.87829
2.78265
3.03021
2.3732
2.34849
2.33727
3.93193
0.461178
3.01136
1.40115
0.306285
2.3891
3.11323
2.56111
2.55142
0.494711
2.60227
2.63298
1.29629
3.46577
3.90856
3.68341
1.87423
2.62012
0.045912
3.81418
2.32507
2.58193
2.07684
2.61709
2.58974
2.66454
2.94163
2.67574
3.04807
2.60439
3.61641
3.66795
2.58428
2.88945
2.58608
3.02453
3.03461
0.200872
1.58031
1.93688
0.202773
2.7555
2.62067
2.8102
1.35641
0.0906385
1.4263
2.58338
2.85082
2.85496
1.55631
1.84588
2.81872
3.90392
2.65608
0.117357
0.305595
3.16471
2.67769
1.49663
2.04603
2.63329
1.6077
2.51413
2.51495
2.51947
2.0687
2.88941
2.51059
3.94142
0.38554
2.50755
3.91938
2.51535
3.42608
0.599537
2.49126
1.47232
1.13279
2.51282
2.49487
1.4606
1.49739
2.49016
1.24845
2.44521
2.45439
2.56442
1.38641
2.42403
0.486513
2.47072
2.46376
1.5573
2.43447
2.44293
3.69528
2.34409
1.92685
2.40885
2.40611
1.61219
0.794238
1.375
3.80253
2.44687
2.4652
2.01025
0.807367
3.80948
2.07455
2.09297
2.04637
2.00443
0.150601
0.102404
0.696039
1.30479
2.46185
2.46725
0.0832453
3.20242
2.30182
1.00793
3.8163
1.95278
1.95441
3.85865
2.0047
3.04827
0.64003
1.96843
2.98678
2.73002
1.97872
1.41321
0.558995
1.98835
3.18392
2.797
1.50305
0.742787
1.1364
2.06236
1.17121
3.17633
1.12697
2.04162
2.18649
3.88066
1.52966
0.147763
0.781643
1.16363
1.99692
3.1903
2.17662
2.17952
0.302596
1.68183
0.117904
2.20788
2.20904
1.16757
0.187272
2.74294
0.575233
3.51917
2.50456
2.47532
3.80032
1.16305
2.9767
3.12814
1.97315
0.239324
2.47336
3.74424
2.44961
2.4061
1.99822
1.01821
2.45744
0.266852
3.78025
3.19602
1.56124
2.4602
2.30752
3.19156
3.69806
2.99162
0.454424
1.04628
2.40863
2.54639
2.91214
1.49973
2.86198
3.81627
2.38602
2.89965
0.917647
2.48477
1.78719
1.10755
2.48754
2.50196
2.51008
2.89298
2.41956
0.599132
2.4381
1.02561
2.84483
0.310917
2.40494
2.87996
0.0642037
0.356654
2.36243
0.884281
0.654565
0.92259
0.790135
1.39015
0.551878
2.39734
2.37475
0.475914
2.35396
2.37277
2.88592
0.135159
2.39779
2.28192
0.00760339
0.371594
2.22302
1.25284
0.0184141
0.204005
2.22979
1.531
2.32193
3.72114
0.27692
2.82408
2.04486
2.31354
2.26792
2.01364
2.69405
2.42273
2.40156
2.09424
3.78446
3.22649
2.31461
2.3727
3.39234
0.511555
3.1912
2.69134
1.51251
1.44011
2.35731
1.04123
0.298307
2.14139
2.20173
3.92142
1.84598
2.23426
2.18963
2.60752
1.02503
2.18884
2.1979
3.63059
2.20663
0.98198
2.26795
2.26859
1.79173
1.58834
1.93125
2.25875
2.23511
2.26406
1.47705
1.88112
2.29763
2.01509
1.48329
1.55041
1.55865
1.55049
1.81731
2.25262
1.90338
3.81848
3.42389
0.571232
1.31118
1.36694
1.86748
1.87429
1.9112
2.50892
1.81483
1.86268
1.08403
1.35989
2.72928
1.09041
0.493204
1.90222
1.87352
1.92596
3.48507
0.199656
0.103277
1.29496
2.02734
1.9818
3.19987
0.541008
1.88262
3.82933
0.606727
2.00004
2.01335
2.45262
-0.00175934
1.97021
1.97605
1.97419
2.15118
0.0800731
0.132469
2.16131
2.1454
2.12821
2.13384
2.23068
2.07718
1.02836
0.269376
3.91153
2.78652
2.17302
2.13562
1.57133
3.66218
3.54519
3.25232
0.0206094
3.28059
2.17432
2.18661
2.1538
2.1557
2.17251
2.15442
3.10913
1.76513
3.04235
1.88771
0.99113
0.199614
2.19071
1.5756
0.0475508
1.88372
2.25957
3.79357
2.28245
1.5068
1.45566
2.763
1.62831
2.22998
2.34133
2.29995
1.83204
1.99852
3.71633
2.22063
3.00189
1.00177
0.82971
2.19495
0.848276
0.343831
2.28367
2.26486
1.60368
1.08791
1.25925
3.46944
2.2436
0.697711
0.0812809
1.94467
0.4228
1.52517
2.16745
2.74972
2.004
0.39562
3.53696
0.243244
3.39886
1.73042
3.20083
2.0279
0.62905
2.19497
1.95329
1.20946
1.47796
2.19616
2.20706
3.54353
2.80603
3.00384
3.65534
2.89991
2.78263
2.77894
3.05808
2.15751
2.13645
1.61421
0.861673
0.940521
0.254737
3.21632
1.63324
2.09917
2.06744
2.07873
0.603761
2.05475
3.04676
0.0457409
2.03805
2.10312
2.47339
3.91788
3.05256
3.03566
2.05558
0.188613
3.1983
2.07168
2.61918
2.19321
2.69211
2.87275
1.88961
3.16271
2.12928
2.81497
2.16304
0.302066
3.04588
3.16534
1.67464
3.84839
0.952766
1.10276
0.969062
1.89058
2.98709
0.780498
2.60228
0.798731
2.15066
2.13846
1.84511
2.23408
1.99797
3.38178
2.70625
1.96668
2.76553
2.07271
3.91021
3.12951
2.07331
1.99537
2.67569
3.31946
2.0102
0.419635
2.60106
3.37222
1.99456
1.79056
2.04811
2.07941
2.11532
2.11699
0.0562014
0.941075
2.12631
3.84547
2.12392
1.7015
2.91492
1.67023
1.4427
3.36795
3.86568
3.06128
3.07145
3.09285
0.493147
1.97789
2.44497
3.84907
3.64318
3.84881
3.89835
3.63258
1.74726
1.69941
3.85599
0.759743
1.74775
2.7849
1.70279
3.07056
2.81437
3.8591
3.51657
3.07552
0.948694
1.76655
1.92314
1.87712
1.98282
3.08488
2.76686
1.94993
1.88176
1.92197
0.240325
3.30481
0.605969
1.98408
2.36326
2.04272
1.99485
1.92281
0.600081
2.01859
1.75993
2.00522
2.00322
3.1556
1.81894
1.03359
0.658301
2.95867
1.40015
1.3769
2.85656
1.15055
0.688503
0.608278
0.483838
2.80269
0.876863
1.77347
2.29377
0.4692
3.25863
3.28164
1.23126
1.19444
3.59798
1.86934
0.237851
2.19726
0.480514
2.71297
0.456832
0.656687
0.269652
0.153841
1.05512
3.19714
0.653773
0.379968
0.413559
1.94571
0.440457
1.92631
3.26886
1.99704
1.97665
2.80277
0.659417
2.01096
2.00359
0.165874
0.951412
3.21639
2.02072
2.03539
2.84506
3.30231
3.11155
3.29763
0.741835
3.70207
3.81187
2.02744
2.03947
0.188869
3.42768
3.82685
1.99315
1.49109
1.99155
0.27072
3.10879
0.0694378
0.654269
1.8715
2.48782
1.87234
1.52103
3.2363
1.35133
3.03917
1.86429
1.8809
0.924606
1.77938
1.59969
3.76974
3.22528
2.68594
1.8789
3.29634
1.02174
0.603441
0.86465
0.230036
1.89074
3.26218
1.87209
0.225703
0.169671
3.16093
1.89978
0.904001
3.44985
1.90488
1.91709
3.18879
0.317444
3.1644
1.91911
1.96209
1.96221
2.08419
1.96912
3.09803
3.0135
1.96925
3.57581
2.13717
3.0236
2.49425
1.95791
3.26368
1.91089
1.47892
3.61963
2.19458
1.93878
0.158837
1.97376
1.97134
1.44979
1.88604
2.73024
0.76842
3.20669
1.82283
2.90404
3.08952
1.93331
2.13218
0.135205
0.920384
0.729657
1.90978
3.23799
0.282661
1.89403
3.63233
0.746423
2.85004
0.69645
1.89948
2.39246
1.87764
0.020879
2.57555
3.25519
1.44871
0.536979
0.756166
1.40754
1.43065
1.52729
3.18388
0.141956
0.542007
1.59583
1.58465
2.99785
2.77099
1.62053
1.69876
1.5468
2.50706
3.64327
3.36178
2.11711
0.453937
2.97903
2.95023
1.21682
0.675523
2.67521
1.16082
1.59286
2.81277
2.1065
2.12705
1.86037
1.52542
1.68895
1.68306
1.66122
2.88857
1.71608
2.38466
3.5714
3.25784
2.7646
3.12245
1.55046
1.12927
3.19533
1.73072
2.79914
2.04867
2.92224
3.75981
1.55886
0.10962
1.74525
1.78632
1.89406
3.19495
1.75445
1.8481
2.15983
1.89724
2.15679
1.78198
0.00444762
2.15679
1.86809
1.84402
0.0750409
2.79323
3.70707
2.13564
2.25633
1.63557
1.86073
1.8488
0.792401
3.67689
1.86801
1.86209
1.89228
0.512153
3.18459
1.99521
1.66444
2.15624
1.07128
1.40581
2.96893
1.73008
1.66805
1.35414
1.67589
1.8564
1.13533
1.72822
3.19402
1.98108
0.98776
3.17071
3.19657
1.48547
1.49764
1.2822
1.74086
0.786057
1.77876
0.844025
3.90557
2.91448
2.3607
1.08862
0.300586
3.36429
0.317648
0.337973
1.72252
0.0238627
1.72033
0.479959
2.38583
1.16119
1.70197
2.74324
2.39875
1.71891
0.405651
0.336828
2.34047
1.68558
0.557527
1.7337
1.71712
1.97372
1.78099
3.74129
2.82676
3.35668
2.34357
2.72117
1.72275
2.8088
2.36031
1.72589
3.38528
3.74509
2.71614
2.61885
1.72582
3.08692
1.65513
3.35405
2.23664
2.79867
0.291978
0.553628
2.62269
0.155867
3.23494
3.9239
3.43778
0.197763
0.78463
0.265133
3.13801
3.3335
0.124765
2.40863
1.6158
3.07891
2.4837
1.61561
1.76667
0.478388
2.66289
2.71034
0.750672
3.73302
3.34847
1.86079
1.62756
3.89308
1.62129
3.79646
2.70536
2.68208
1.64038
3.51491
1.4616
3.48178
3.18415
3.53166
0.111196
1.6793
3.7
0.913592
3.82819
1.70563
3.57364
1.26325
1.25037
1.34235
3.74706
2.94952
3.51542
2.93697
1.42112
3.68955
3.71704
1.27729
3.73349
1.48073
2.82754
1.40743
2.95099
1.83976
1.21259
1.73243
1.18118
1.75995
0.343285
1.50381
1.37384
3.376
1.34982
2.71213
1.95124
2.37419
1.47546
0.554232
1.0926
2.70624
1.40963
3.3554
0.959142
1.52605
3.48611
2.8001
1.53176
3.04835
1.51345
1.40483
1.37527
1.80893
1.48865
0.0160916
0.565595
0.585128
1.41354
1.41027
2.75234
0.650556
0.42129
1.34298
0.898813
3.33524
2.99051
0.509814
1.56459
2.40499
1.49841
1.58837
1.26059
1.56554
2.97898
1.55966
2.23897
0.00683489
3.29008
2.19188
3.85706
1.6173
1.54845
0.332829
3.38022
1.16017
1.62338
2.83272
1.67987
1.61493
1.50005
1.53664
0.457655
1.67012
1.5849
1.59156
1.51667
1.81517
1.54187
3.2693
1.28846
1.60119
3.3655
3.8534
2.3324
1.33125
2.64419
1.59205
1.44737
1.36833
0.75897
1.29935
1.18133
3.65443
1.32505
1.81505
1.83226
0.521079
1.28643
3.25931
1.48476
1.52214
2.16749
2.03249
1.47392
2.43655
1.83634
1.49709
1.45119
1.6946
1.46719
3.23574
3.10656
1.34205
1.27037
1.42052
0.656621
1.50102
1.83374
2.76373
1.46054
1.5145
1.38406
1.53621
3.28279
1.28486
3.15501
1.51488
1.44837
1.37211
1.46755
1.1627
1.43015
1.16661
1.05625
1.42825
3.56529
1.66599
3.55867
2.18598
0.986182
0.399996
1.2803
3.27694
1.49146
1.4537
1.0952
1.47612
1.0775
3.31177
3.2844
1.12716
1.13237
1.1911
1.1967
2.54318
1.94317
1.16379
1.16663
0.88135
1.43577
1.19403
1.17773
0.728485
0.69362
0.00350069
1.1842
2.55191
0.485982
1.9507
1.23764
1.2616
1.33071
1.71272
3.2401
1.50969
1.07897
0.213867
0.3025
1.96313
1.24131
1.19082
1.66274
0.471045
0.334069
1.26235
3.26212
1.39058
1.43054
0.711731
1.3241
3.7634
1.38806
1.35841
1.91446
1.368
1.40887
3.26154
1.41348
1.61692
0.303693
0.0668092
2.46403
0.570465
0.332185
1.45571
1.19537
3.26572
1.44086
3.42418
3.41703
1.39849
3.23806
0.119215
1.35
1.43786
0.51311
1.4492
3.43216
3.87241
0.722404
3.3616
1.42726
2.73818
3.07338
1.43838
1.50256
3.40129
1.4266
3.74323
1.43073
1.77735
1.55495
3.74628
3.36195
1.78244
1.46126
1.4182
2.86391
1.76075
2.88594
3.36949
3.29396
1.47141
0.199556
1.48178
1.36426
2.84803
1.13031
2.84691
0.610314
3.07251
0.00252863
3.2832
1.78801
1.22528
1.35563
3.36455
1.33588
3.2718
3.15897
3.34038
0.206364
0.0355989
2.90182
0.0672033
1.32653
1.75226
2.43913
1.31385
3.17377
2.02752
3.22364
1.26939
3.18372
2.60947
2.84925
3.8748
1.85043
3.64768
1.26566
0.183268
2.04948
0.165701
3.83253
0.675986
1.94341
2.87459
1.38975
1.32619
0.230815
0.531771
1.35341
2.93983
3.31366
0.099282
3.44489
1.76794
3.6928
0.836683
2.94867
1.34378
2.58881
3.34932
2.57257
2.36993
2.70807
2.98146
3.2424
2.33506
0.632054
2.79581
1.3817
1.38088
1.38695
0.866427
3.64695
3.65574
2.82871
1.50262
3.18133
3.28195
1.4983
1.38944
1.37213
1.327
3.61806
0.688966
1.29755
2.12928
1.32854
2.80535
2.54269
1.56147
0.806519
1.32853
1.31754
1.90913
3.80981
2.22306
1.32759
3.20192
0.962251
0.735667
3.55919
0.0898183
0.957403
0.22508
0.977929
0.945762
3.20703
1.29274
2.59834
3.19055
1.65462
1.38721
3.35206
1.01881
3.30222
1.23966
1.28277
1.3007
2.83214
2.33577
3.29563
2.93389
3.13863
1.11391
1.97521
3.3641
3.08497
1.38897
3.0734
0.978432
2.79843
0.685298
2.85657
1.31227
2.49043
1.16148
1.83438
3.07234
0.945778
3.09102
0.770314
1.41004
1.15158
0.490083
1.20832
1.13579
1.61655
3.29234
1.19111
0.597609
0.29213
2.85203
0.304561
3.11949
0.0602663
1.21513
0.708915
1.22343
3.09432
3.14865
0.665984
3.59973
0.495665
-0.00212236
2.83766
2.53155
1.21203
3.07215
0.917012
0.314489
1.56991
0.0519187
2.05374
2.73447
1.87995
1.23694
3.78268
1.26069
2.07404
2.8541
1.69159
3.12999
1.20951
1.84112
1.19137
1.90225
3.59165
1.29512
1.13113
1.95318
1.1962
2.1777
1.20201
0.807078
1.18576
3.59636
1.18315
1.14858
1.17315
3.47336
1.49731
3.29082
3.66274
3.60897
2.42177
0.69675
0.889805
2.58038
3.08031
0.350045
0.842793
1.16276
1.15489
3.11894
3.85315
0.0281522
0.474486
1.06797
3.32502
0.488347
1.70719
3.14337
1.1372
1.13051
1.13723
1.10297
1.14492
2.45986
1.40289
3.03114
0.36822
1.1824
1.15707
3.48734
1.82627
3.3921
3.68628
0.691227
1.15359
0.888349
3.48255
3.48027
3.41979
3.3859
1.57967
0.875505
3.33167
0.683285
1.16366
3.0206
1.30966
1.1512
0.911895
1.113
2.99696
2.95988
1.14533
2.07969
1.31412
1.29398
3.8099
0.401982
0.766395
1.15404
1.16683
0.141106
1.16512
0.886884
1.21545
2.90545
1.18271
0.270595
1.24176
0.123743
3.51047
3.40712
1.62574
1.19061
1.21145
1.40068
1.05948
0.952376
1.41984
1.02523
1.00022
0.881031
1.02373
3.55818
3.06439
1.70043
2.84196
1.06106
2.95485
0.854417
2.85156
2.31126
2.72539
1.04226
1.96004
0.285765
2.96357
3.25283
1.19934
3.91605
1.07217
1.10197
1.86026
0.309117
1.42704
1.1053
2.95
0.854766
1.17295
1.14937
0.81396
2.3715
0.821985
0.811678
0.823021
0.836449
0.818291
2.87797
2.91601
2.94584
2.84998
0.552191
0.823312
3.44408
0.900968
0.550242
0.888043
0.878837
0.580764
0.897095
0.881809
0.886987
1.10722
1.082
1.98364
1.21387
1.3633
1.7829
1.5126
1.40946
0.559613
1.11864
1.09968
0.837479
0.908902
1.09209
2.21378
0.269409
2.69099
3.79498
2.01632
3.60571
1.09367
0.28098
0.307377
0.322211
1.48049
0.316237
1.06183
1.08655
3.30707
3.87291
1.87469
0.975025
3.40566
1.67149
2.09146
1.07161
2.14719
1.07102
2.21964
0.899189
0.542307
0.639764
1.02905
0.00750073
1.10875
3.36404
0.827814
2.64702
0.386252
0.992433
1.0248
3.09726
1.38051
2.24616
1.54785
2.19908
1.00595
0.226668
3.42413
1.19667
2.04585
3.34566
3.35581
1.03095
0.88978
1.04112
1.5694
1.03093
2.17662
3.08623
1.61621
1.05361
1.05512
1.67815
1.9673
2.50706
1.05273
1.07151
1.07273
3.37799
1.05309
1.07496
0.439041
0.94898
0.572348
0.216703
0.553541
0.366306
0.932556
0.957064
0.181105
0.754444
0.175836
3.31504
0.968339
0.604774
3.33317
2.4433
1.45549
0.848416
1.02384
0.19613
0.987153
2.27792
1.54791
0.970174
3.43507
0.529226
0.0578278
0.998424
3.93734
1.51921
2.05597
0.216683
1.00104
0.994704
2.48376
0.206918
1.49731
1.98295
0.937518
0.99186
1.02189
3.89429
3.56064
3.44136
1.46582
0.536502
0.248085
0.203457
3.49268
0.216013
0.649314
1.02412
3.82673
1.19038
1.04923
3.03569
3.45299
2.27091
2.16679
1.03168
1.00188
3.3308
2.79752
2.9635
0.341693
2.714
0.721138
1.37535
0.590675
0.990919
1.55243
3.55475
1.5584
1.55215
3.69492
0.936811
3.36327
0.7422
2.14436
2.61842
3.51837
1.54742
3.40758
0.898562
0.774711
0.479475
0.946046
3.43728
0.74483
0.689423
1.94486
0.754426
0.754559
0.794367
0.313481
1.43883
0.95536
1.14292
0.721671
0.850421
0.803925
0.591502
3.46864
2.2522
0.734908
0.986741
3.93037
1.87307
0.949358
2.02854
0.945575
1.76791
0.933744
3.43631
0.742631
3.91839
0.630334
0.599408
1.96582
0.744304
2.15957
1.88612
2.34886
0.35314
-0.00383917
0.442118
0.391437
0.649807
0.266787
0.709374
0.663768
0.665436
3.6854
0.446755
3.46181
3.50462
0.539512
3.26998
1.00573
3.36905
3.08063
0.736951
3.30042
0.74133
0.0277417
2.31329
1.38575
3.17437
3.07177
1.54348
0.284333
0.48735
2.3545
2.61649
0.743672
0.727203
0.927546
2.69839
2.95042
2.06897
0.308454
0.234522
0.925683
2.41504
2.6875
2.97643
3.68863
0.952048
3.19008
2.8868
2.04393
3.90979
1.38347
1.87308
2.43837
0.890381
3.51181
0.201803
1.37732
2.85437
2.54856
3.08848
3.48936
0.326134
1.36896
0.926864
1.64291
0.92968
1.53099
1.70353
1.62379
1.16653
0.929166
0.906284
0.879649
1.20284
3.67368
1.29577
1.17115
1.21669
3.40693
2.92701
0.301849
3.5028
0.935704
0.883173
1.89194
0.796471
0.802296
1.10729
0.305095
0.800008
0.819107
0.230988
0.748118
0.752398
0.814011
1.03097
0.870513
0.871302
3.45584
0.627858
0.736266
0.579211
0.95024
0.570259
0.501635
0.923837
0.256846
0.249584
1.27214
0.539299
0.515981
3.48273
0.896453
0.733815
0.683706
0.305773
0.646024
0.895046
0.910849
0.839496
1.42743
2.03645
2.374
1.72441
0.300111
0.825195
0.840644
0.871101
2.78898
1.25341
0.924698
3.73394
0.840897
1.23484
0.818303
0.840127
2.28339
2.36216
0.816293
1.32596
3.09113
3.05087
1.26299
0.83137
3.45146
0.827955
1.75696
0.823707
3.85362
0.830632
2.7228
0.809035
2.24951
2.83377
3.37391
3.02558
0.813702
2.88752
1.99127
2.25162
0.812831
0.406605
1.38824
2.02871
0.813951
0.814375
0.819414
1.39044
0.76801
3.72564
2.46982
0.374241
3.47185
0.798607
3.34811
0.34603
0.737966
0.782618
2.78355
0.822169
2.31906
3.6656
0.747205
0.779672
1.21873
3.55029
2.7961
2.76562
0.784661
2.94381
2.42828
0.777672
1.24899
1.04859
0.764402
0.756541
2.34411
2.97801
0.838516
1.27779
1.03173
3.42499
3.35126
3.42483
0.823055
3.43267
0.590727
2.60811
3.09146
1.6337
2.27907
0.823354
3.50762
0.469479
0.495317
0.534801
1.3406
0.536227
1.45945
1.42382
1.25247
1.54606
2.69269
1.27468
1.95218
0.14547
0.609519
1.08689
1.87874
0.814926
2.1104
3.15852
1.47794
2.69601
2.51824
0.179591
0.53744
2.22698
0.606819
0.00589738
3.5198
2.77276
3.30286
0.536373
3.50982
1.19824
3.28907
1.14835
3.36978
1.15914
3.44665
0.578245
2.96575
0.769798
2.4352
1.16241
2.53446
1.19486
3.92032
0.796703
1.01739
2.66611
2.45199
0.760279
1.55547
2.47107
0.777251
2.1228
0.358336
2.11399
0.728678
0.714203
1.02888
3.4919
0.785925
0.525921
0.800447
0.78588
1.35939
2.83058
0.868572
0.787945
1.34861
1.3881
0.0424159
3.38005
0.770746
0.981957
1.77966
2.57996
0.0361219
0.787311
3.47411
0.669584
0.65849
1.96589
0.430268
0.598854
3.0865
0.774542
3.43729
1.42151
0.542919
0.665091
1.56259
0.652096
0.790416
1.08255
0.752393
0.747453
0.736019
0.361257
1.90188
0.719273
0.979944
0.714071
0.850833
0.996019
0.729942
0.686861
3.3646
0.735748
0.654987
0.712778
3.45462
0.763214
0.690426
0.870437
2.44428
0.922326
0.723436
0.792945
0.708125
-0.00284977
3.4372
0.956191
0.710427
0.554038
3.57191
1.24472
0.400537
0.686846
0.143562
1.35916
3.43793
0.682775
3.38369
0.652992
0.452924
3.45617
3.4088
3.55319
0.516621
3.49493
0.239761
0.26253
0.695552
0.391109
0.339217
0.815561
2.44211
3.46829
3.28887
3.63261
3.2334
1.88653
1.34605
0.565334
0.657883
0.735412
1.74967
2.04368
1.18302
2.77302
0.93537
0.711755
2.18052
0.863846
3.25307
3.28125
0.432767
3.27645
2.0229
2.9362
3.58453
0.670489
2.64118
2.02371
2.18594
2.03838
0.672914
1.52644
3.33287
3.59632
0.776675
3.21025
3.59472
3.41174
2.73869
0.590062
3.61556
0.607077
3.13809
3.11994
0.610985
0.680171
0.558993
1.80821
3.51018
1.29234
2.03586
0.576197
2.2998
3.50634
0.706222
2.78152
0.67871
2.81445
3.28348
3.64029
3.24816
1.07852
1.19988
1.43035
2.65584
0.714164
3.022
3.03625
0.688642
2.84068
1.51992
0.693712
2.04228
2.88942
0.68521
3.31831
0.59923
2.97705
3.73345
0.64657
1.7265
0.656784
2.08432
0.675004
0.354765
3.5066
2.13063
1.02427
1.36895
1.77268
1.69542
0.28614
1.51987
1.53667
3.31664
2.19743
3.7458
3.11112
0.842412
3.39892
0.377708
0.379691
2.31858
1.93081
2.83623
2.84609
0.405235
0.350936
1.51328
3.44425
2.68079
3.11143
3.72255
0.416862
2.71866
2.15369
2.72825
2.82637
1.98428
3.47653
2.86699
2.98734
0.773342
0.867087
3.69321
0.425645
0.374201
0.627321
3.19301
3.47084
3.51923
0.609573
0.591337
2.45897
0.624978
0.626799
2.51928
3.62391
2.80087
0.86212
3.26728
1.53157
2.78669
2.81026
3.6212
0.596526
1.93287
1.95567
0.617972
0.575809
0.554433
0.575363
2.09169
0.611897
3.62695
2.72316
2.47395
0.609944
0.546152
1.09673
2.64589
3.66783
1.48739
1.31249
3.59404
0.303477
0.491412
0.876894
1.37687
0.490779
0.613225
0.62074
1.06947
0.633012
3.57682
3.62683
1.15555
3.59194
1.89423
1.07025
0.604857
0.857152
0.802307
0.949329
0.609733
0.53402
0.641162
0.72942
0.548028
0.841042
0.887339
2.67186
0.557433
0.589826
0.954647
0.402915
0.612145
0.570611
0.534162
0.538997
0.559405
3.57983
0.573436
0.620842
1.82543
1.82859
3.43184
1.94242
3.55984
3.04599
3.14985
3.43782
1.67672
0.543154
1.90687
3.68703
0.764647
0.310395
2.68368
0.550457
3.06963
0.537229
0.589853
1.15929
0.489406
1.06687
0.551779
0.467628
1.35369
2.74506
0.0538479
2.28946
3.90499
0.438664
2.60624
0.433085
3.39363
2.81693
0.421345
1.34859
2.7171
0.465226
3.42943
2.73594
1.21026
0.472994
0.545701
3.52258
1.50138
2.70317
0.943095
1.26141
3.05372
0.793132
0.581794
2.21564
1.11401
2.89032
1.13711
2.30089
0.535879
0.545168
0.70853
0.625929
3.62853
2.9358
0.374757
0.375874
3.92248
0.861656
3.46914
2.94968
0.518786
3.16052
0.475662
0.467676
0.463203
0.363207
0.458618
0.463227
3.94418
0.504716
1.47783
2.14656
0.194878
0.778616
2.24293
1.89277
2.22683
2.22599
0.239046
0.229913
0.230661
0.178046
0.143414
3.60075
0.155573
1.48818
0.135156
3.73882
1.01501
3.60981
2.10803
2.45343
0.460578
0.402904
0.139406
1.88139
0.427986
2.89148
0.423335
0.463509
0.677114
0.49692
1.44128
2.48356
0.451515
2.6114
1.95453
0.371388
1.30086
3.48659
0.436415
1.38574
1.90943
0.400179
0.413112
0.489692
0.424545
1.92191
1.93086
1.14575
1.03924
0.404409
0.791458
0.73708
0.633238
3.66601
0.803467
1.30142
0.745283
2.92034
0.297382
1.57502
1.94266
0.0289932
0.566481
0.251146
0.326681
0.929466
2.76891
2.60022
2.61286
1.67028
1.40821
1.52469
0.322881
3.41265
3.67263
0.342625
2.50383
0.309198
1.5904
0.361785
3.20789
0.96448
3.0519
2.65367
0.430318
0.379017
0.41407
3.50632
0.347708
2.60167
3.15014
1.24822
1.80943
3.56548
2.80077
3.40303
2.22584
2.27665
2.08034
0.0464039
0.377954
1.43173
0.371606
1.96519
1.70851
0.371215
1.9028
0.320491
0.314163
0.357489
1.23822
0.370398
1.64443
0.0261374
2.91938
0.59116
1.99773
0.304518
0.286365
2.21203
0.329515
0.944374
1.78209
0.34219
1.71321
1.48957
0.344975
0.364099
1.16459
0.307784
3.2243
1.57455
1.01114
0.30653
0.299597
1.02294
2.17114
0.0287348
1.58612
0.0511091
1.75365
3.2876
1.00086
1.0729
1.00928
0.676178
1.88613
0.343773
2.34295
0.330439
0.951683
0.992569
1.85253
1.86819
0.822924
0.878633
1.87081
3.77228
0.329637
3.82077
0.869621
1.57088
0.0415943
0.509061
3.12225
0.143947
3.39501
3.22606
0.255991
2.97411
2.86849
0.245542
1.37406
0.341245
3.21269
1.61885
2.6081
1.07993
2.82868
3.31679
0.209869
2.08501
1.6243
1.61976
2.61011
2.64392
0.244667
0.119959
0.305862
0.191385
2.83987
0.342952
0.55826
2.81574
3.45449
3.76436
2.54638
0.296117
3.41884
0.310096
0.239876
0.320098
2.82478
3.39555
3.63067
0.115595
3.59379
3.3948
3.25583
3.28398
3.29049
3.52858
3.44012
3.12943
2.83964
2.8074
2.77663
2.83421
2.08226
0.144689
0.101035
2.8833
1.7716
0.235689
0.285732
0.209881
0.556472
1.50439
0.209791
0.187026
1.95588
2.0046
2.8935
2.26673
2.10529
2.8108
2.09078
0.267236
3.19516
2.74995
0.276904
2.71227
3.15031
3.62583
0.292558
0.294551
0.272264
0.162959
3.08532
0.0750359
1.22047
0.203916
2.60401
3.0968
0.199701
0.154788
0.167674
0.222483
3.13053
0.114429
1.0058
0.211327
1.06168
0.176809
1.08501
1.10591
3.17619
0.579677
1.05144
1.21173
0.330969
0.195351
1.08163
0.081473
2.38487
1.21269
0.877969
0.922535
1.38273
0.085568
3.14376
1.15698
1.2352
3.13446
3.54122
3.17301
3.10508
2.39204
2.35259
0.0230225
1.86803
2.12493
0.0842342
2.27432
1.65834
3.37947
1.64456
0.0894026
2.78086
3.00873
3.35826
3.043
3.14588
2.12231
0.809624
0.090636
3.20421
0.116189
1.2326
3.51263
0.126359
3.32498
1.70988
0.157577
2.85819
2.00152
2.03261
2.05726