/*--------------------------------*- C++ -*----------------------------------*\
| =========                 |                                                 |
| \\      /  F ield         | OpenFOAM: The Open Source CFD Toolbox           |
|  \\    /   O peration     | Version:  2406                                  |
|   \\  /    A nd           | Website:  www.openfoam.com                      |
|    \\/     M anipulation  |                                                 |
\*---------------------------------------------------------------------------*/
FoamFile
{
    version     2.0;
    format      ascii;
    arch        "LSB;label=32;scalar=64";
    class       surfaceScalarField;
    location    "6";
    object      phi;
}
// * * * * * * * * * * * * * * * * * * * * * * * * * * * * * * * * * * * * * //

dimensions      [0 3 -1 0 0 0 0];

oriented        oriented;

internalField   nonuniform List<scalar> 
113358
(
-1.78891e-05
3.41909e-05
-2.26109e-05
6.30684e-06
2.33546e-05
1.80289e-06
-5.32456e-06
-2.0005e-05
-2.40327e-05
1.62265e-05
-3.11576e-06
1.10451e-05
-1.89738e-05
-6.15945e-06
1.86639e-05
5.89272e-06
-1.5932e-05
4.08559e-06
2.80112e-05
-1.61903e-05
1.20778e-05
-1.36979e-05
-6.93863e-06
8.54443e-06
-5.24161e-06
3.13526e-05
-2.42953e-05
-1.96719e-06
-5.23619e-07
-3.47054e-05
2.02878e-05
1.48759e-05
9.98572e-06
-5.23263e-07
1.71878e-05
-2.66498e-05
5.83514e-06
7.18423e-06
-1.51372e-05
8.2283e-07
-6.01716e-06
1.84715e-05
-1.5042e-05
2.5948e-06
-1.93847e-05
-3.45791e-06
-2.77982e-07
2.30368e-05
-5.21297e-05
2.71473e-06
1.85688e-05
3.09328e-05
2.85115e-06
-7.76422e-06
4.86395e-06
-6.98794e-07
-1.71472e-06
3.17927e-05
-2.91028e-05
5.95093e-06
-1.2321e-06
1.13252e-05
-1.5742e-05
9.27791e-06
2.36955e-05
-2.25215e-05
-1.04746e-05
-1.81303e-05
1.27175e-05
1.07498e-05
-5.32975e-06
1.35856e-05
-4.41588e-05
3.24686e-05
-1.90418e-06
1.8084e-05
4.2635e-06
1.96471e-05
-4.19524e-05
2.60328e-05
-1.48736e-06
3.15493e-06
-2.77185e-05
-9.38467e-06
3.66947e-05
3.92645e-06
-3.1058e-05
8.74357e-08
-3.49206e-05
3.66296e-05
-1.83269e-06
-2.70606e-06
9.11136e-06
7.43796e-07
-7.2731e-06
-3.73012e-05
1.69935e-05
-2.27687e-06
2.27326e-05
-2.63678e-05
8.80846e-06
2.05503e-05
-2.56073e-06
-1.2576e-05
1.07204e-05
-2.5851e-06
4.38387e-06
-5.47628e-06
-1.39578e-05
1.0795e-05
8.63307e-06
2.83889e-05
-2.38938e-06
-2.40313e-08
-5.06988e-06
4.75213e-06
2.94237e-07
-3.48799e-06
-2.89222e-05
2.27916e-05
9.60658e-06
7.03211e-06
6.27534e-07
-1.43279e-05
6.65918e-06
1.87661e-05
-3.23926e-07
1.0889e-06
-1.95287e-05
-2.4455e-05
1.16638e-05
-3.30079e-06
1.51665e-05
1.45718e-05
2.62689e-06
-1.74228e-05
2.04205e-07
-2.99118e-05
8.86609e-06
-7.10102e-06
2.83116e-05
-8.23403e-07
-3.3968e-06
4.23503e-06
1.09634e-05
1.05032e-05
2.38661e-06
-2.37785e-05
1.71114e-06
-3.77753e-05
3.82508e-05
-2.20792e-06
-1.13376e-06
4.6838e-06
2.6945e-05
-3.05732e-05
-2.49653e-05
1.35474e-05
-1.91235e-05
3.04839e-05
5.95446e-06
-1.81321e-05
-2.80925e-05
4.0222e-05
1.41822e-07
3.60409e-05
-8.17928e-06
-2.80241e-05
3.07748e-06
-1.41032e-05
-8.84829e-06
-5.84912e-06
2.94748e-05
-2.98919e-06
-2.06541e-05
7.94477e-07
1.69515e-05
-1.546e-05
-2.26168e-06
-2.87285e-05
-9.0266e-06
3.7818e-05
-6.86151e-06
2.66462e-05
-4.34608e-07
-1.9351e-05
-3.23835e-05
2.58248e-06
-4.80506e-06
3.45945e-05
2.40829e-05
1.03863e-05
-3.37007e-05
-7.76111e-07
2.3224e-05
-1.75257e-05
2.17699e-06
-7.90408e-06
-1.16527e-05
4.16011e-06
7.64485e-06
-9.86639e-07
2.68199e-05
-7.28392e-06
1.80351e-05
-3.73947e-05
-1.06815e-05
-3.58649e-05
3.6547e-05
9.95117e-06
-1.95932e-06
8.03465e-06
-1.26471e-05
6.55161e-06
2.40885e-05
-1.21061e-05
1.91739e-05
-3.11676e-05
-1.53221e-05
2.26595e-06
2.85945e-05
-1.55444e-05
1.22902e-05
-6.76004e-06
7.16237e-06
-1.28341e-05
2.53333e-05
-6.77205e-06
-1.80088e-05
-4.38351e-07
-9.28933e-06
-1.17635e-05
5.17685e-06
1.58662e-05
-2.54755e-05
-2.65256e-06
1.23066e-05
1.61539e-05
-6.73662e-07
4.98228e-06
-4.29632e-06
2.54859e-05
-5.47451e-06
-2.47601e-05
4.71115e-06
-1.2489e-05
-3.01752e-05
1.10324e-05
3.16328e-05
-3.5832e-06
5.82467e-06
-3.94518e-05
3.70389e-05
1.94252e-06
1.88881e-05
-3.45203e-07
-2.05062e-05
8.28347e-06
-6.29985e-06
-2.16371e-06
1.84565e-07
-1.71571e-06
1.88264e-05
-1.72197e-05
3.41938e-06
-2.39715e-05
2.95638e-05
-9.00145e-06
1.11108e-05
-2.02733e-05
1.7857e-05
-8.71077e-06
1.75564e-05
-1.15557e-05
-6.12578e-06
-1.37188e-05
-3.98742e-06
2.25357e-05
-4.8198e-06
-4.15733e-07
6.69078e-06
-6.27823e-06
5.7861e-06
-2.52889e-05
1.00896e-05
9.38686e-06
3.14419e-05
-2.41595e-06
-3.85879e-06
-2.52693e-05
-2.16233e-05
-2.3292e-05
2.84318e-05
1.63829e-05
1.66634e-06
-2.74877e-05
4.20602e-06
2.81131e-05
-2.0084e-05
-4.32992e-06
-3.70534e-06
2.48874e-06
1.39912e-06
-1.94453e-05
1.53039e-05
6.10368e-06
4.44471e-06
1.0651e-05
-2.12134e-05
6.04156e-06
-1.60702e-06
1.95203e-06
-8.27643e-06
-1.15464e-05
-7.92245e-06
2.07892e-05
-1.32779e-06
-1.7927e-05
2.03447e-05
-1.47703e-05
1.23485e-05
-5.34333e-06
4.62111e-07
4.92692e-06
-2.33721e-05
2.10853e-05
-2.13363e-05
1.83174e-05
-6.66279e-06
-1.87791e-06
1.07224e-06
7.42666e-06
4.57343e-05
-4.5788e-05
2.65714e-06
-2.41086e-06
-1.18118e-05
4.76828e-06
1.60042e-05
-8.8746e-06
-1.95724e-06
2.56186e-05
-3.05287e-05
6.92558e-06
-1.37513e-05
-1.80424e-05
2.68197e-05
4.95931e-06
9.52341e-06
-1.03449e-05
1.36453e-05
-1.286e-05
4.4696e-06
1.71805e-05
-3.6154e-05
1.4536e-05
-2.62581e-05
8.13313e-06
1.05336e-05
7.55014e-06
3.51112e-07
-2.05118e-05
1.70202e-05
3.15089e-06
-2.74809e-05
3.83604e-06
1.13354e-05
1.23101e-05
1.93317e-05
-1.50757e-05
4.48705e-06
-8.63293e-06
2.63348e-06
1.82938e-05
-1.87024e-05
-2.05822e-06
2.5036e-05
-3.39151e-06
-6.77516e-06
-1.49073e-05
1.26261e-05
1.343e-05
-1.08315e-05
-1.52062e-05
3.3195e-06
-4.99132e-06
1.05066e-05
-8.87386e-06
8.60973e-06
-5.55979e-07
-8.1556e-06
7.95781e-07
8.74062e-06
-9.56727e-06
-1.26163e-08
2.40912e-06
-1.70506e-05
1.4643e-05
-1.6629e-05
3.24576e-05
5.33519e-08
-1.61989e-05
4.77155e-06
-1.45412e-05
1.13156e-05
-1.87621e-06
-4.4638e-06
-5.30974e-06
1.69424e-06
8.14293e-06
-5.70913e-06
-1.29526e-05
2.28233e-06
1.65348e-05
-1.82552e-06
1.88251e-05
9.68095e-06
-2.64115e-05
4.97094e-06
9.98964e-06
-2.79953e-05
1.3015e-05
-2.64811e-06
2.10882e-05
-3.03671e-05
1.1883e-05
-9.37189e-06
1.15063e-05
-1.68764e-06
2.67501e-05
-3.49464e-05
3.44625e-06
4.90292e-06
2.19068e-05
8.61021e-06
-3.1542e-05
1.0165e-06
-2.07475e-05
-8.56637e-06
4.77552e-06
2.45272e-05
-5.6202e-06
-2.0636e-05
3.15497e-06
2.31216e-05
1.57838e-05
-1.62902e-05
-4.62848e-06
5.20145e-06
1.43967e-05
-2.37275e-05
-5.03905e-06
1.431e-05
-5.93157e-06
-2.2067e-06
8.16151e-06
-4.88534e-06
-1.0815e-06
2.26333e-05
-1.65625e-05
-1.1548e-05
8.00784e-06
3.08324e-05
-2.72438e-05
-8.43626e-06
1.40285e-05
-2.07802e-05
1.51274e-05
2.68908e-06
-2.16053e-05
1.48075e-05
3.93356e-06
-3.92373e-06
-6.75692e-06
2.34542e-05
-1.27849e-05
2.11067e-05
-1.18167e-05
-7.19694e-06
-2.10396e-06
-3.98388e-06
-1.42798e-05
2.20577e-05
-3.87642e-06
1.04933e-05
-5.77295e-06
-4.7497e-06
-3.6252e-06
-2.23224e-05
-4.22101e-06
3.01383e-05
-1.90977e-05
2.54599e-05
9.63794e-06
-1.60957e-05
3.7697e-06
-9.1845e-06
1.64113e-05
-1.1007e-05
-3.19609e-05
8.32216e-06
-1.31387e-06
2.48656e-05
-3.71948e-06
-4.07957e-05
3.23495e-05
1.20019e-05
-1.49424e-06
-6.75066e-06
8.08286e-06
1.91121e-05
-2.75501e-05
-5.76733e-07
8.99309e-06
3.6938e-05
4.75816e-06
-3.95965e-05
-2.11874e-06
1.19052e-05
1.50414e-06
-2.5503e-05
1.20075e-05
-9.46909e-06
1.29771e-05
1.84021e-05
-2.57914e-05
-2.14206e-05
1.10624e-05
3.62627e-05
9.14315e-06
8.13058e-06
-8.82984e-06
7.14801e-06
-8.41173e-06
-2.53973e-05
2.6623e-05
3.80696e-06
1.49934e-05
-7.98237e-06
-1.08699e-05
-6.13838e-06
1.40789e-05
2.00619e-05
-2.79542e-05
5.12471e-07
4.80624e-06
-5.27892e-06
-1.88132e-05
3.80865e-06
1.18476e-05
3.06445e-06
2.23737e-05
-1.21571e-05
-1.57261e-05
5.49869e-06
3.09122e-05
-7.08407e-06
-4.38046e-06
-1.94559e-05
-2.48722e-05
-7.17441e-07
-1.57433e-06
2.71129e-05
2.33392e-05
1.40641e-05
-3.63752e-05
-9.81007e-07
6.14516e-06
5.09746e-06
-1.12562e-05
7.63183e-07
-2.68303e-05
2.14567e-07
2.5947e-05
4.86421e-05
-3.46938e-05
-6.04942e-06
-8.01255e-06
8.35963e-06
8.24136e-08
-7.06764e-06
-1.59451e-06
-2.31816e-05
3.24798e-05
1.52864e-05
-2.46648e-05
1.32207e-05
-2.13551e-05
-2.20877e-06
1.02157e-05
-2.53682e-05
2.88851e-05
-3.43178e-06
-2.65205e-07
-7.87216e-06
3.6923e-06
3.96642e-06
3.34618e-05
-2.24106e-06
5.10371e-06
-3.63018e-05
-2.32879e-05
3.04462e-05
-3.26554e-05
3.44865e-06
4.68908e-06
2.09842e-05
-2.92023e-05
6.76047e-06
-6.29844e-06
-4.36126e-07
-1.48627e-05
-5.75293e-06
-7.12297e-07
2.12756e-05
-8.30687e-06
2.84362e-05
-2.01874e-05
1.32341e-08
-8.02125e-07
-1.03653e-05
6.03589e-06
5.08171e-06
-4.25807e-06
-5.06518e-06
9.08447e-06
-2.39589e-05
2.68997e-05
2.17782e-05
-2.46953e-05
3.71637e-05
-1.42883e-05
-4.60961e-06
-1.82759e-05
1.4272e-05
6.7348e-06
-1.19824e-06
-1.98861e-05
2.43963e-05
-2.90776e-05
4.18664e-06
5.0068e-07
7.19677e-06
-9.51556e-08
-7.10295e-06
-5.60834e-06
2.1302e-05
-1.88287e-05
2.63542e-06
-1.65211e-05
2.03645e-05
-2.03734e-06
-1.80852e-06
-1.45439e-05
1.43294e-05
-4.83631e-07
7.05695e-07
5.87762e-06
-2.95516e-05
9.69396e-06
1.40441e-05
-8.89639e-06
-8.62047e-06
2.1358e-05
-3.82251e-06
-1.78853e-05
1.68653e-05
1.1464e-06
-1.44887e-07
-3.13441e-05
-2.87347e-05
3.12827e-05
-8.65666e-06
2.68873e-05
7.54823e-06
-2.58008e-05
6.23367e-06
2.5326e-05
3.73462e-06
-3.5299e-05
-1.62776e-05
5.25187e-06
2.044e-05
-9.33199e-06
1.17085e-07
-1.37264e-06
1.79736e-05
-1.68763e-05
-1.51402e-06
3.36321e-05
-6.92857e-06
-2.52274e-05
-6.51078e-06
-3.61577e-06
9.66856e-06
3.80551e-07
8.87005e-06
-1.00986e-05
1.16786e-06
-7.30532e-06
-1.2517e-05
1.91732e-06
-1.9283e-05
-1.31533e-07
-5.1093e-06
2.45204e-05
-1.33746e-05
1.47856e-05
-2.53739e-06
1.12817e-06
-1.40403e-06
1.14894e-05
-1.37491e-06
-8.61189e-06
-4.82104e-06
8.12311e-06
-3.49972e-06
6.91555e-06
-1.58704e-06
1.96677e-05
-2.495e-05
3.2547e-05
1.10723e-06
-2.42336e-05
-9.49384e-06
-1.97829e-06
-1.26331e-05
-9.54714e-06
1.61744e-05
-1.96074e-05
-6.59068e-07
4.2697e-06
4.65919e-06
-2.15122e-05
2.81065e-05
-1.12728e-05
1.72048e-05
1.27052e-06
-7.47306e-06
-1.11928e-05
-1.15349e-05
-3.1494e-05
8.53952e-06
3.46016e-05
-1.89634e-06
4.51222e-06
1.07871e-06
-3.80592e-06
1.25415e-05
-2.28054e-06
4.99082e-06
-1.54671e-05
-1.12829e-05
-3.15653e-06
1.10664e-05
3.21957e-06
2.18538e-05
5.50203e-07
-2.35826e-05
1.26399e-06
-2.19535e-05
-1.53991e-05
3.16031e-05
5.74612e-06
-7.81687e-06
2.57602e-06
-8.20884e-06
3.74995e-06
2.03092e-05
-2.3116e-05
-8.63181e-07
-2.57428e-05
-2.60385e-05
1.35701e-05
3.79424e-05
-5.53608e-06
6.58947e-06
-1.01364e-06
1.65805e-05
9.6809e-06
-3.33838e-06
-2.30879e-05
-2.63943e-06
-3.79176e-06
-2.18119e-05
2.8326e-05
-1.61917e-05
4.16866e-06
3.63321e-05
-2.42398e-05
1.92738e-05
-1.18909e-05
-8.16332e-06
1.10518e-06
3.61935e-06
2.95149e-06
-6.45461e-06
4.53588e-05
-1.99419e-05
1.82444e-06
-2.71732e-05
9.57575e-06
-1.41547e-05
3.5191e-07
3.96315e-06
7.43693e-06
2.3742e-06
-9.82687e-06
-1.3971e-05
-1.89746e-05
1.96096e-06
3.10778e-05
-1.58123e-05
3.08511e-06
1.72039e-05
-4.64373e-06
2.15231e-05
-4.30983e-05
-1.94385e-06
2.35363e-05
-1.45021e-05
-1.91052e-05
2.40678e-05
9.56692e-06
-9.89138e-06
1.56164e-05
2.51786e-05
5.51776e-06
2.16686e-05
-2.20447e-05
-5.1807e-06
4.57422e-06
3.00555e-06
-1.96265e-05
1.19695e-05
-2.84407e-05
1.21421e-05
9.39204e-06
6.87489e-06
1.85656e-05
6.87128e-06
-4.42961e-06
-2.08231e-05
-4.90906e-06
-2.79836e-05
5.18897e-06
2.76455e-05
4.4989e-06
-2.36313e-06
1.85152e-05
-2.06596e-05
-6.08491e-06
8.33685e-07
-1.06394e-05
1.52475e-05
-8.21693e-08
1.14055e-05
-2.92893e-05
1.79581e-05
-1.11479e-05
-1.73823e-05
-2.64452e-06
3.12506e-05
-7.02027e-07
8.85243e-06
-8.21331e-06
6.52595e-07
-3.67092e-06
1.63196e-05
-1.32222e-05
1.28209e-06
1.13692e-05
1.02551e-05
-2.29074e-05
3.02694e-06
-1.7589e-05
-2.19201e-06
1.67793e-05
1.73897e-06
-1.5774e-05
-1.12321e-05
2.52598e-05
1.00763e-05
1.26697e-05
-1.02401e-05
-1.24456e-05
2.23975e-05
1.35045e-05
-3.17309e-05
-4.15372e-06
3.61757e-06
-1.06575e-05
7.03776e-06
4.12728e-06
2.14276e-06
6.72784e-07
-6.92896e-06
5.03414e-06
7.7586e-06
2.21108e-06
-1.49293e-05
7.48958e-06
-6.27993e-06
1.56398e-05
-1.9254e-07
-3.14001e-05
1.28562e-05
1.86017e-05
4.1113e-05
4.22682e-06
-5.90953e-06
-3.92954e-05
-8.21953e-06
9.77372e-06
-5.02504e-06
3.57563e-06
-1.22536e-05
1.28541e-05
-1.79594e-05
1.72772e-05
5.40171e-06
4.38167e-07
-5.75301e-06
7.93574e-07
8.15908e-06
-1.51747e-05
6.2356e-06
4.61849e-06
-8.92613e-06
4.3601e-06
1.89662e-05
-9.87478e-06
-5.32868e-06
-1.94513e-05
3.23811e-06
-1.83892e-05
3.45928e-05
2.40731e-05
-2.61542e-05
5.57525e-06
-3.5292e-06
1.67819e-05
1.092e-05
-2.06595e-05
-6.97337e-06
5.53205e-06
-3.18628e-05
9.18539e-06
1.71241e-05
2.5484e-05
-5.97412e-06
9.24385e-06
3.50338e-05
-3.89758e-05
2.73836e-06
-2.44782e-05
5.29651e-06
2.52067e-05
-6.0006e-06
-1.91275e-05
-1.263e-05
1.9457e-05
-1.04974e-05
-9.28276e-06
-1.49118e-05
3.46704e-05
-1.02003e-06
4.90136e-06
2.84846e-05
-3.24682e-05
8.30051e-07
2.13301e-05
-3.57538e-05
1.35811e-05
-7.57695e-07
7.50015e-07
2.23635e-05
-2.21397e-05
-2.96157e-05
5.88653e-06
2.45844e-08
2.38699e-05
1.49445e-05
-1.33822e-05
4.58005e-06
-6.31745e-06
2.48659e-07
1.48072e-05
-2.01276e-05
5.05191e-06
-1.83473e-05
3.1865e-05
-5.96828e-06
-7.57403e-06
-2.74088e-05
1.94715e-05
1.90058e-06
6.12197e-06
-2.91931e-05
2.60604e-05
3.77242e-05
-3.46504e-05
2.52367e-05
-1.71447e-05
2.80215e-08
-8.10579e-06
-1.27844e-05
1.86252e-05
-1.07321e-05
4.89045e-06
-6.36373e-06
1.45629e-05
6.24463e-06
-1.47653e-05
-2.87071e-05
8.40496e-07
3.04604e-05
-2.59318e-06
-5.84375e-06
-2.52625e-05
2.9e-06
2.76293e-05
2.54831e-06
-1.39921e-05
1.16603e-05
1.68101e-05
6.10928e-07
-1.09484e-05
-6.59911e-06
1.17039e-05
1.9815e-05
-2.22541e-05
-9.30347e-06
-6.04395e-06
9.92456e-06
1.63021e-05
-2.01174e-05
1.79209e-06
-1.38413e-06
-4.01917e-05
3.95829e-05
1.65492e-05
-2.91048e-05
7.37045e-06
4.98277e-06
-3.22432e-05
-2.95798e-06
7.73225e-06
-6.55251e-06
-6.01185e-07
-2.80658e-05
3.5308e-05
-9.38394e-06
2.66265e-06
6.6943e-06
-3.21022e-06
-3.4392e-06
3.07526e-05
-2.40983e-05
9.24991e-06
-8.07518e-06
-1.35565e-06
-6.63851e-07
3.32008e-06
-1.14389e-05
8.65859e-06
-1.46308e-05
1.31104e-05
2.39297e-05
4.61748e-06
2.71168e-05
-1.9688e-05
-1.20935e-05
8.65973e-06
-5.98638e-06
-2.59661e-06
-2.43379e-06
4.05722e-05
-2.41879e-05
-1.41083e-05
-2.24936e-05
2.84402e-05
1.55942e-05
-1.22983e-06
1.66094e-05
6.96814e-06
-2.23521e-05
-2.28161e-05
-8.86267e-06
3.25548e-05
-9.19447e-07
-9.89308e-06
8.29347e-06
1.56314e-06
1.96528e-05
-2.29014e-05
3.08407e-07
2.84286e-06
-1.3391e-05
-7.71288e-06
1.17845e-05
9.28302e-06
-2.23875e-06
5.48413e-07
-1.54437e-05
1.70992e-05
-2.26176e-05
-9.30051e-06
1.30545e-06
3.06113e-05
-1.28551e-05
-7.24332e-06
-6.17355e-06
1.07069e-05
-3.53133e-05
7.82826e-07
2.42218e-05
6.21183e-06
-2.59669e-05
-6.82294e-06
2.66706e-05
1.01725e-05
-1.11892e-05
1.02825e-06
-2.03327e-05
3.6249e-05
-6.30172e-06
-9.73438e-06
-3.0165e-06
-2.53278e-05
2.62735e-05
2.05447e-06
-2.83421e-05
3.17176e-05
-4.37219e-06
9.92513e-07
-1.90318e-05
-5.79265e-06
1.42662e-05
1.05398e-05
-2.66068e-05
-9.88724e-06
3.38015e-05
2.49121e-06
2.45035e-06
3.41711e-06
-1.7788e-05
1.19817e-05
8.41223e-06
-2.4339e-06
-5.9421e-06
-1.17752e-05
9.17409e-06
2.66654e-06
3.34115e-05
-2.61017e-05
-3.98575e-05
3.28275e-05
6.4218e-06
-3.40013e-07
-6.09893e-06
-3.19691e-05
3.30839e-05
-1.81756e-06
7.29156e-07
-1.861e-05
1.23562e-05
5.21723e-06
8.69398e-07
1.20267e-06
3.88724e-05
-1.80491e-05
-2.20246e-05
-2.13615e-05
-9.51481e-06
2.68615e-06
2.84879e-05
3.0494e-05
1.17184e-05
-1.38087e-05
-2.83814e-05
1.93971e-05
-7.85143e-06
3.22293e-06
-1.48051e-05
3.58987e-05
-3.72224e-06
-2.52668e-05
-6.72318e-06
-6.23076e-06
1.21738e-05
-1.12824e-05
5.3693e-06
-7.45105e-06
1.26493e-05
5.49043e-06
-1.07977e-05
-8.76779e-06
-3.86055e-06
2.66036e-05
-1.40581e-05
8.35429e-06
2.52063e-05
-2.84067e-05
-5.14026e-06
-2.38019e-05
2.58195e-05
1.342e-05
-1.54465e-05
2.69971e-05
-2.06884e-05
-3.72723e-06
-2.8135e-06
-2.37079e-06
-1.39034e-05
1.13333e-06
1.48353e-05
-1.10263e-05
1.43872e-05
9.56395e-07
-4.31069e-06
-3.75788e-05
-5.01762e-06
1.45117e-05
2.81929e-05
1.83216e-05
-1.43577e-05
-3.31515e-06
-7.16701e-07
6.62091e-06
-2.36694e-05
-2.51797e-05
4.21325e-05
1.46104e-05
-1.82933e-05
-9.9693e-06
1.35502e-05
-6.6572e-06
-4.05344e-05
1.32018e-05
3.40654e-05
2.3989e-05
-1.99974e-05
2.91777e-06
-6.92071e-06
2.39713e-05
-1.17832e-05
-2.87632e-05
1.67159e-05
9.77287e-06
1.41281e-05
-3.53051e-05
1.14723e-05
-5.74312e-06
2.31679e-05
-2.07566e-05
3.34754e-06
-2.04595e-05
2.70836e-05
2.24629e-05
-2.90957e-05
-1.25838e-06
-1.9326e-05
1.42283e-05
6.31969e-06
9.84916e-06
-8.15407e-06
-1.94267e-06
2.75723e-05
-3.63596e-05
3.03831e-06
-9.68092e-06
1.07713e-05
7.56213e-06
-8.72419e-06
-6.46972e-06
4.84061e-07
-2.29882e-06
8.22601e-06
1.41763e-05
-2.69365e-06
1.34707e-05
-2.131e-05
1.05068e-06
6.78081e-06
-1.55532e-05
-1.83928e-06
1.33025e-05
1.80877e-05
-2.44773e-05
1.43095e-05
-7.95405e-06
-2.34936e-05
-4.46232e-07
2.52203e-05
-1.32053e-06
-3.44143e-05
-8.28993e-06
3.19164e-05
1.0963e-05
-2.76715e-05
7.775e-06
-1.07806e-07
1.99747e-05
-8.44668e-06
-1.49172e-06
2.44086e-06
7.67976e-06
-2.26721e-05
-2.32957e-05
1.92674e-05
2.66035e-05
1.2353e-05
1.17552e-05
-1.92599e-05
-4.92776e-06
1.8267e-07
1.73973e-05
-1.25357e-05
-4.9594e-06
-1.71302e-06
-1.38348e-05
2.67692e-05
-1.12197e-05
2.72657e-05
-2.03445e-05
-1.08476e-05
2.44238e-05
-2.86393e-05
7.10959e-06
-2.82554e-06
-4.07052e-06
-2.17912e-05
2.38454e-05
1.9707e-06
2.8432e-05
-1.49395e-06
-3.10866e-05
1.8955e-05
-2.01508e-05
5.4126e-06
-4.10136e-06
3.40158e-06
-1.18329e-05
-2.40275e-06
1.07784e-05
-3.50779e-06
4.33547e-06
-7.03479e-06
6.19482e-06
-7.97092e-08
7.08848e-06
-8.29728e-07
-5.72641e-06
-7.72261e-06
-2.12095e-05
-8.45286e-07
2.96179e-05
1.15873e-05
4.67751e-06
-2.68298e-05
1.04699e-05
-1.98927e-05
-3.16274e-06
6.53505e-06
1.65208e-05
-5.28996e-06
-1.9828e-05
1.9371e-05
-2.41176e-05
2.26206e-05
1.28149e-05
-1.15301e-05
-2.97349e-05
3.47833e-05
-1.01898e-05
5.06289e-06
-3.21812e-06
-1.60466e-05
1.74101e-06
1.75e-05
4.38973e-06
2.94905e-05
-3.62637e-05
2.43435e-06
1.51234e-05
-4.72889e-05
8.6255e-06
2.3662e-05
2.946e-06
-2.88637e-05
1.72093e-05
8.65606e-06
-5.15032e-07
1.63955e-05
-5.04866e-06
-1.08687e-05
-8.97163e-06
2.23823e-06
7.98502e-06
-1.29851e-06
-5.72543e-07
8.18521e-06
-3.1305e-05
2.36793e-05
-2.33702e-06
-1.88297e-05
1.06043e-06
2.00927e-05
-4.13363e-06
1.51359e-05
1.47445e-06
-1.22869e-05
2.53245e-06
1.22389e-09
1.30412e-05
-1.61119e-05
-7.58572e-06
-1.1148e-05
2.19252e-05
-3.2438e-06
7.33467e-07
-3.19589e-05
2.13442e-05
9.73659e-06
2.53975e-05
1.0858e-06
1.82202e-06
-2.82632e-05
7.16206e-06
-9.1396e-06
1.92642e-06
8.67129e-06
2.14439e-05
-2.71894e-05
-1.89448e-05
8.02679e-07
1.37046e-06
1.65855e-05
2.17268e-06
-1.8957e-05
6.35628e-06
1.04166e-05
-2.95723e-07
1.20671e-05
-8.9263e-06
-2.77229e-06
-6.9799e-06
-1.83873e-05
2.88713e-05
-3.59231e-06
3.14028e-05
-2.45189e-05
1.9208e-05
-2.63246e-05
1.50174e-05
-7.0406e-06
-2.55188e-05
1.75344e-05
-5.06534e-06
-3.81732e-06
8.85013e-06
1.38731e-05
8.66707e-06
-6.27658e-06
-1.62878e-05
-2.12449e-05
2.94267e-05
3.40119e-06
4.52367e-06
-7.99324e-06
-1.47205e-06
-2.71881e-05
8.18832e-07
2.78223e-05
-1.4951e-06
2.48991e-06
2.04175e-05
-6.81238e-08
1.75865e-05
-3.47482e-05
1.7298e-05
-7.85944e-06
-2.07912e-05
-2.60326e-06
3.10407e-05
6.8423e-06
-1.40084e-05
1.01355e-05
-2.87911e-06
-4.39007e-06
-2.87705e-05
-3.92831e-06
3.70019e-05
1.95124e-05
1.6035e-06
-2.34594e-05
2.31896e-06
5.87474e-06
2.05738e-05
-3.62742e-05
9.89945e-06
-5.81147e-07
-1.72346e-05
-4.68807e-06
2.25124e-05
-2.90935e-05
-2.29494e-06
1.1868e-05
1.9333e-05
-4.99966e-06
7.73245e-07
-1.7248e-05
2.15706e-05
2.52361e-05
-1.1812e-05
-5.6386e-06
-7.82973e-06
-1.57495e-05
4.17364e-05
-2.32144e-05
-2.74494e-06
1.52767e-05
3.22135e-08
2.14724e-06
-1.73026e-05
2.61202e-05
-3.02748e-05
2.97815e-05
-2.55486e-05
-6.39496e-06
1.64659e-05
-1.23349e-05
2.24943e-06
9.17127e-06
-3.55247e-05
2.22453e-07
2.60874e-05
7.84121e-06
3.24559e-05
-2.86396e-05
-1.1686e-05
9.64335e-06
-4.52691e-06
-1.37319e-05
8.42551e-06
-1.72762e-05
-1.20556e-05
3.48212e-05
-5.40295e-06
2.84228e-05
-2.33785e-05
-3.45143e-05
2.95433e-05
1.61243e-05
1.14338e-05
-9.15222e-06
-1.85426e-05
4.47661e-07
-1.27783e-05
8.43565e-07
4.41738e-06
-5.51999e-06
-6.61263e-06
6.75885e-06
-6.57983e-08
2.40112e-05
-1.77763e-05
-2.14765e-05
1.52832e-05
-5.19705e-06
5.33883e-06
-2.00169e-05
1.9988e-05
2.63288e-05
-1.98206e-05
-4.89385e-06
-1.60811e-06
-7.28718e-06
7.94319e-07
6.53608e-06
-5.58963e-06
1.95676e-05
-5.33679e-06
-8.67197e-06
-4.95382e-05
3.26935e-07
1.76424e-05
3.20029e-05
9.8643e-06
-4.45849e-06
-9.4235e-06
3.93183e-06
5.24588e-06
2.841e-05
-2.47982e-05
-8.93226e-06
-1.5386e-05
-1.64497e-06
2.86058e-05
-1.15953e-05
3.80086e-06
1.62149e-05
3.62765e-06
-2.3655e-05
7.10851e-06
1.8798e-05
-2.20828e-05
1.75833e-05
-1.71875e-05
-5.66986e-06
5.34876e-06
1.62136e-05
-1.89071e-05
8.57204e-06
-1.96362e-05
8.45106e-06
1.24023e-05
-1.19892e-06
6.26884e-06
8.3649e-06
1.47109e-05
-2.94338e-05
8.59102e-06
-2.67476e-05
-5.23358e-06
2.3579e-05
1.40742e-06
2.11329e-05
7.63354e-07
-2.33695e-05
8.56913e-06
1.86525e-05
-2.87305e-05
1.52679e-06
-4.56774e-05
3.43916e-05
6.25216e-07
-1.91781e-06
3.11157e-05
-1.89207e-06
-2.72157e-05
-5.65491e-06
6.53127e-06
-1.15219e-05
1.04603e-05
5.10719e-08
-8.92008e-06
7.67835e-07
7.94014e-06
-7.45356e-06
7.13205e-06
3.68716e-07
-4.79435e-06
-6.33968e-06
2.71274e-05
-1.6001e-05
-1.95827e-05
4.38209e-06
-1.14352e-05
2.66632e-05
3.56101e-05
-7.53394e-06
-1.17082e-05
-1.6508e-05
2.53758e-06
-2.59703e-05
9.79843e-06
1.35531e-05
5.60061e-06
-5.91478e-06
-9.77989e-07
1.49547e-06
-8.2832e-06
6.40324e-06
1.79659e-06
1.63799e-06
2.93719e-05
-9.10117e-06
-2.19964e-05
-4.08237e-06
1.96218e-05
-2.75878e-05
1.1968e-05
9.24203e-06
1.28067e-05
-3.16695e-05
9.59901e-06
3.11737e-07
2.19864e-05
1.26433e-05
-3.49253e-05
-3.6442e-05
1.95289e-05
2.09145e-05
-4.00044e-06
2.44445e-05
-2.60372e-05
4.63305e-06
-3.09474e-06
-2.98355e-05
5.98759e-07
-7.23948e-06
9.95565e-07
7.69363e-06
-8.66349e-06
2.70844e-05
2.01693e-06
-1.78719e-05
-1.09926e-05
1.19726e-06
-5.25254e-06
1.62295e-05
-1.218e-05
1.50718e-06
7.35219e-07
1.22439e-05
-1.45531e-05
-2.56865e-05
1.07422e-05
1.27224e-05
2.23859e-06
1.55925e-05
-2.87969e-05
1.47003e-07
1.34033e-05
-1.95207e-05
3.16279e-06
3.48735e-05
-1.85279e-05
-5.17244e-06
-2.20123e-06
7.59645e-06
-1.24995e-05
2.96853e-05
1.96747e-05
-3.68487e-05
2.35912e-05
1.66124e-06
-3.73814e-05
1.21011e-05
6.47711e-07
2.26044e-05
-3.45373e-06
-1.9807e-05
2.02219e-05
-1.1609e-05
9.91725e-06
-1.89659e-05
-6.63723e-08
-1.75758e-05
1.87941e-05
-1.17018e-06
-1.38093e-05
-1.9115e-06
-1.04498e-05
2.63767e-05
-9.31723e-06
-6.25832e-06
-1.28264e-05
2.87866e-05
-1.05507e-06
2.35936e-05
-2.06382e-06
-2.05037e-05
2.54288e-05
-2.17734e-05
-9.56794e-07
-2.74238e-06
2.49106e-05
4.49722e-07
-1.74054e-05
-7.99872e-06
-5.81781e-06
-3.125e-06
-2.40134e-05
3.30142e-05
1.32917e-06
-6.92277e-06
5.73057e-06
-2.1418e-05
3.42969e-05
-2.35767e-06
-1.05552e-05
2.67636e-06
1.53144e-05
7.47582e-06
-2.53114e-05
-6.93295e-06
1.04834e-05
5.83679e-06
-9.14909e-06
-2.09039e-05
-7.41556e-06
2.23322e-05
5.74166e-06
1.57806e-05
9.00425e-06
-3.84889e-05
1.36914e-05
1.08182e-05
-7.57983e-06
2.75664e-05
-3.09061e-05
-2.11301e-06
2.44414e-05
3.75994e-06
-2.61566e-05
5.57401e-06
-4.49323e-06
-1.06494e-06
2.74685e-06
2.07321e-05
2.11181e-06
-2.55862e-05
2.4969e-05
-2.93829e-06
-2.72174e-05
5.10359e-06
-4.62908e-06
5.7577e-06
-2.36176e-05
2.23278e-05
-2.82159e-05
-2.6876e-06
2.12102e-05
9.46022e-06
1.67469e-05
-1.33887e-05
-1.73814e-06
-1.49113e-06
-3.26153e-05
2.12119e-05
-2.62345e-06
1.39922e-05
-8.3882e-06
6.56489e-06
1.78841e-06
9.2016e-06
-7.3652e-06
1.32191e-05
-1.497e-05
2.02524e-05
1.62017e-05
-9.08094e-06
8.47928e-06
-2.63571e-05
-1.18474e-05
2.98419e-05
1.24995e-06
-2.21922e-05
2.42132e-05
-3.17837e-06
8.86866e-06
-1.27646e-05
-1.55776e-05
1.92978e-05
1.39254e-05
8.08648e-06
-9.09564e-07
-2.11478e-05
-7.15921e-06
1.24974e-06
1.13623e-05
-5.47257e-06
-1.02356e-06
3.50247e-05
-1.1736e-05
-2.27654e-05
1.04056e-05
1.17417e-05
-1.68066e-06
-2.04734e-05
2.543e-06
7.09411e-06
-9.67462e-06
-1.61868e-06
3.30665e-06
2.54544e-05
-2.72097e-05
2.49343e-05
3.17408e-06
-1.22122e-05
-1.5933e-05
-1.99162e-06
1.25617e-05
-7.95073e-06
-2.55822e-06
1.96687e-05
-6.60387e-06
-1.62556e-05
2.99552e-06
-1.46151e-06
-2.07185e-05
1.23117e-05
9.65503e-06
-4.14649e-06
1.92226e-05
4.43109e-06
-1.94799e-05
1.84819e-05
-1.02305e-06
-2.27644e-05
5.27842e-06
-5.67552e-06
1.29691e-05
-7.31892e-06
4.20442e-06
-1.10574e-05
1.00955e-05
-3.19388e-06
9.29713e-07
1.2855e-05
-1.81499e-05
4.3892e-06
1.07578e-05
1.35642e-05
-3.81782e-06
-2.0466e-05
1.5519e-05
1.84966e-05
-1.5514e-05
9.27185e-08
5.65586e-06
-5.67529e-06
-3.22301e-05
1.82316e-05
2.81831e-05
-1.40814e-05
3.16543e-05
3.66565e-06
-3.17772e-05
-3.51429e-06
1.81626e-05
-1.13404e-05
-2.08312e-05
6.41999e-06
1.62445e-05
-2.69341e-05
-1.72485e-06
-5.11291e-06
3.37329e-05
-4.55301e-06
9.6493e-06
-4.97238e-06
2.91004e-05
-2.27572e-06
-2.48609e-06
-2.43231e-05
9.27747e-06
-5.89286e-06
-3.46524e-06
-1.52636e-05
4.81068e-06
-1.26664e-05
2.30444e-05
-1.53834e-05
-1.53178e-05
1.3196e-05
1.74705e-05
2.62728e-05
-2.11975e-05
-6.26003e-06
1.06433e-06
1.98024e-07
9.28353e-06
-9.31115e-06
-2.51481e-06
-9.27552e-06
4.47142e-07
1.12407e-05
1.14289e-05
7.72676e-06
-7.73445e-06
-1.13843e-05
-1.81632e-05
1.88332e-05
-3.20212e-06
-4.60566e-07
3.25449e-05
9.7804e-07
-3.30717e-05
-7.74759e-06
-2.37307e-06
1.0702e-05
-4.47627e-07
5.65193e-06
-2.00298e-05
2.06958e-05
-6.27835e-06
1.14881e-05
-2.0989e-05
1.11397e-05
-1.65154e-06
6.06203e-06
1.29936e-05
2.21596e-06
-2.14066e-05
7.07666e-06
-8.86667e-06
1.81721e-06
1.01099e-05
-9.48327e-06
-3.49018e-05
3.44833e-05
-2.85351e-06
3.45049e-06
1.78656e-05
-1.85316e-05
4.44308e-06
1.2883e-05
-1.95146e-05
2.19339e-06
2.08771e-05
-1.87506e-06
-5.35722e-06
-1.3641e-05
7.11085e-06
1.38884e-05
-2.10952e-05
2.20172e-07
2.05375e-05
2.58837e-06
-3.66774e-06
-1.94815e-05
-2.36197e-05
7.95322e-06
2.32133e-06
1.35073e-05
-8.31581e-06
-8.2301e-06
-1.36698e-07
1.40843e-05
-1.97151e-05
1.22231e-05
-6.37633e-06
-3.46552e-06
-1.27484e-05
-1.85149e-05
3.47681e-05
-1.22648e-05
1.52653e-05
-5.46468e-06
2.47348e-06
3.44194e-07
5.0596e-06
-5.34212e-06
-3.57901e-06
2.79746e-05
1.03709e-05
-3.45954e-05
1.82085e-05
8.6131e-06
-7.49629e-06
-1.90793e-05
2.23273e-05
-2.13325e-05
2.26492e-05
-2.37164e-05
3.14848e-05
-3.36853e-05
2.79154e-06
-5.9551e-07
-3.70024e-05
1.68607e-05
6.40264e-06
1.3767e-05
-1.33866e-05
-5.43694e-06
1.48289e-05
3.96158e-06
2.5823e-05
-3.48353e-05
1.29842e-05
-3.97412e-06
1.78158e-05
-1.48412e-05
3.65322e-06
-6.63449e-06
-1.07527e-05
9.56504e-06
-7.29403e-06
-1.2301e-05
4.25701e-05
2.95825e-06
-3.35084e-05
-1.59281e-05
3.51985e-06
1.2517e-05
-5.00806e-06
1.09837e-05
-3.58139e-05
-2.34427e-05
3.13045e-06
-1.53478e-06
2.19539e-05
1.2931e-05
-2.02437e-06
-1.11063e-05
6.60088e-06
2.33276e-07
-2.71657e-05
2.02635e-05
7.57188e-07
-3.88893e-06
1.66218e-05
-1.33519e-05
4.8479e-06
1.52034e-05
-2.51302e-05
5.01852e-06
1.77052e-05
-6.08553e-07
2.44259e-06
-1.98144e-05
-3.05812e-06
6.84236e-06
3.39567e-05
-3.78318e-05
-1.18201e-05
1.74729e-06
-3.06244e-06
1.30268e-05
-6.37172e-06
5.81236e-06
-2.2927e-05
2.35359e-05
-2.13152e-06
3.05245e-05
-2.19714e-05
-6.49565e-06
2.57733e-05
9.10923e-06
-1.24865e-05
-2.24877e-05
8.56607e-06
-3.45491e-05
1.9867e-05
-2.60167e-05
3.46809e-05
-3.41894e-06
1.41944e-05
-5.95047e-06
1.01186e-05
-1.21829e-05
-4.53891e-06
7.94374e-06
8.78901e-06
-1.19847e-05
4.10566e-06
9.86216e-06
-1.94011e-06
-9.77935e-06
2.09741e-05
-1.3861e-05
2.77329e-06
-2.66686e-05
2.28016e-05
2.32276e-05
-1.9353e-05
-7.11074e-06
5.82568e-06
1.0775e-07
1.13833e-06
2.20847e-05
-3.43147e-05
-1.11055e-05
2.34754e-05
-3.66147e-05
-9.28802e-06
2.18974e-05
2.4029e-05
2.89249e-05
3.07047e-06
5.86308e-07
-3.25222e-05
2.2168e-05
-1.64242e-05
2.31992e-05
-3.86737e-05
-1.84655e-06
1.70369e-05
2.33415e-05
7.13084e-06
2.38458e-06
-9.56838e-06
2.83541e-05
-2.63871e-05
-7.38906e-06
5.45016e-06
-2.17475e-05
-7.83345e-06
7.12688e-06
2.26374e-05
1.2861e-05
2.05309e-05
-1.0907e-05
-2.24738e-05
8.3258e-06
2.73004e-05
-2.58032e-05
-9.93756e-06
1.65934e-06
-9.88482e-06
8.18319e-06
-1.1541e-05
-1.09318e-05
1.01163e-05
1.21714e-05
3.7118e-06
2.2669e-05
-8.53758e-06
-1.77137e-05
-3.14219e-05
3.30854e-05
-4.57186e-06
-9.78472e-07
2.62477e-05
-2.64561e-05
1.16157e-06
1.29003e-05
2.5996e-06
1.11209e-05
-2.67313e-05
-7.23104e-07
-4.57644e-06
5.21249e-06
-7.44041e-06
7.57645e-06
-2.24745e-07
-1.56147e-05
-8.77478e-06
9.8753e-06
1.44762e-05
-2.37642e-05
1.44404e-06
2.54386e-05
-3.32817e-06
-5.80468e-06
2.45174e-05
-2.48055e-05
6.09286e-06
-2.04519e-05
1.62276e-05
-6.74128e-06
1.10309e-05
5.14919e-06
2.28834e-05
-3.29926e-05
5.0512e-06
-3.05104e-05
7.93137e-06
1.73202e-05
5.27019e-06
6.48157e-07
3.35858e-05
-1.27647e-05
-2.13527e-05
4.14077e-06
-9.2311e-06
-1.51921e-05
-7.24761e-06
6.83076e-06
1.73272e-05
-5.35592e-07
4.99952e-06
-2.17965e-05
-1.51409e-06
-6.73661e-06
8.6458e-06
-8.7034e-07
1.94766e-05
-8.37877e-06
-1.13323e-05
7.62065e-08
1.40355e-05
-4.09122e-05
3.59098e-05
-9.11034e-06
-1.29594e-05
2.51049e-05
4.04923e-06
-1.62658e-05
-4.41179e-07
4.45118e-06
2.23469e-05
-2.62813e-05
-3.31483e-05
2.3664e-06
-5.33415e-07
3.10877e-05
-2.45975e-05
4.51857e-06
1.94335e-05
6.10738e-07
-1.79294e-05
1.02303e-05
2.79444e-05
-2.03104e-05
-1.37889e-05
-2.59401e-05
9.65596e-06
2.98454e-05
3.70671e-07
-3.22105e-05
-3.91101e-06
3.56914e-05
-2.03801e-05
2.54439e-06
-1.52466e-06
1.93808e-05
-2.14151e-05
-1.03774e-06
-3.33841e-06
2.57231e-05
6.9343e-06
-1.76526e-06
2.41219e-05
-2.9372e-05
1.14631e-05
-8.26825e-06
-4.08935e-07
-2.83942e-06
4.60712e-06
-3.81119e-05
-3.12464e-06
3.66756e-05
-1.05694e-05
4.77834e-06
6.33915e-06
-4.71478e-07
-2.68934e-05
-6.63694e-06
1.58266e-05
1.76856e-05
-5.35443e-07
1.71211e-05
7.09213e-06
-2.36924e-05
-1.26817e-05
-1.24724e-05
1.1398e-05
-4.23286e-06
2.76563e-07
2.79323e-05
-2.40654e-05
2.75503e-05