/*--------------------------------*- C++ -*----------------------------------*\
| =========                 |                                                 |
| \\      /  F ield         | OpenFOAM: The Open Source CFD Toolbox           |
|  \\    /   O peration     | Version:  2406                                  |
|   \\  /    A nd           | Website:  www.openfoam.com                      |
|    \\/     M anipulation  |                                                 |
\*---------------------------------------------------------------------------*/
FoamFile
{
    version     2.0;
    format      ascii;
    arch        "LSB;label=32;scalar=64";
    class       volVectorField;
    location    "6";
    object      U;
}
// * * * * * * * * * * * * * * * * * * * * * * * * * * * * * * * * * * * * * //

dimensions      [0 1 -1 0 0 0 0];

internalField   nonuniform List<vector> 
59516
(
(0.0705727 -0.00200775 -0.000946226)
(0.0520231 -0.00145887 -0.00245636)
(0.0677448 0.000597306 -0.002513)
(0.0747167 0.000318914 0.000823882)
(0.0743987 0.00247397 -0.00217649)
(0.0945177 -0.00261586 0.00352381)
(0.0798935 0.000378904 0.00225818)
(0.0549369 -0.00261591 0.00888765)
(0.0630917 -0.00324434 0.00651729)
(0.0229237 0.000888353 0.000661074)
(0.0876868 0.000625458 0.00286739)
(0.0228317 -0.00245856 -0.0074801)
(0.0656189 0.00176193 -0.00648469)
(0.0165624 0.00239357 -0.0023214)
(0.0198814 -0.0012134 0.0097859)
(0.00467638 0.0141343 0.000426216)
(0.0905491 -0.00196697 -0.0010687)
(0.0179284 0.000313185 -0.00383771)
(0.0663857 0.00289715 -0.00366373)
(0.0861728 -0.00228943 -0.0013067)
(0.0171435 0.000630929 0.00168547)
(0.0865998 0.00109676 0.00158705)
(0.085702 -0.00187197 0.000119735)
(0.0021581 -0.00634626 0.00505156)
(0.0901091 -0.000414925 -0.0018842)
(0.00441951 -0.000153211 0.000912214)
(0.00568359 -0.00461344 -0.00495014)
(0.0162207 0.0102035 0.00476849)
(0.0235263 -0.00047727 -0.00201662)
(0.00229916 -0.00663008 -0.00485239)
(0.0629856 -0.0217758 -0.00333202)
(0.0198159 0.011695 0.000160883)
(0.0741125 0.000919121 -0.0019341)
(0.0637209 -0.00125297 0.00481111)
(0.0795412 -0.00285739 0.0022498)
(0.0808564 -0.0011911 0.00456618)
(-0.00543973 -0.00429639 -0.0100138)
(0.0193389 0.00565311 -0.0049777)
(0.051303 -0.00447974 -0.00109699)
(0.0866417 -0.00120129 -0.000135525)
(0.0498406 -0.00140331 -0.00445215)
(0.0896955 0.00442755 -0.00017678)
(0.0852902 0.00037287 0.000337552)
(0.0657742 -0.00299495 0.000823856)
(0.088106 0.00128373 0.00207968)
(0.00228698 -0.00796354 -0.00110512)
(0.0719635 -2.27894e-05 -0.00522027)
(0.0920163 0.00155424 -0.00121025)
(0.0811652 -0.0079167 0.0111043)
(0.085855 0.00169002 0.000526792)
(0.094782 0.0148759 -0.0191879)
(0.0051928 -0.0116309 0.00246914)
(0.0560467 -0.00103191 -0.000421416)
(0.070202 -0.000681493 -0.000584053)
(0.00810336 0.0163339 0.00546687)
(0.0754442 0.000615919 -0.00237536)
(0.0884151 0.00283279 0.00301123)
(0.0145521 0.0092943 -0.00820728)
(0.0873673 -0.00152889 0.00127729)
(0.0795184 0.000871236 0.00586303)
(0.0869206 0.000321276 0.000117692)
(-0.00761067 0.0098739 0.00304045)
(0.0830412 -0.000220665 -0.000691425)
(0.0871707 0.000432927 -9.45122e-05)
(0.0780528 -0.00146573 -0.000494257)
(0.0850527 -0.0011496 -0.00157175)
(0.0165775 -0.00714495 0.00674311)
(0.0049329 0.00331839 0.00217377)
(0.0799937 -0.000711515 0.0155253)
(0.0801288 0.000376664 -4.63778e-05)
(0.0116577 0.0102026 -0.004691)
(0.0907888 0.00118605 0.0017651)
(-0.00467298 -0.00270386 -0.0104122)
(0.0852123 -0.0026184 0.00061653)
(0.0839886 -0.00187515 0.000191318)
(0.0858591 0.00201805 0.000275887)
(0.0877312 -0.0015583 0.00113692)
(0.0855804 0.00361763 -0.00211053)
(0.00240558 -0.00944148 0.0115482)
(0.0858544 0.00212106 0.00412585)
(0.00355202 0.0149551 0.0103034)
(0.0837481 0.00090308 0.00191553)
(0.0810416 0.00171702 0.00120554)
(-6.63577e-05 -0.00241129 0.0102329)
(0.0849325 0.000978331 0.00136058)
(0.0871396 -0.00214504 -0.00048216)
(-0.00351921 -0.00559752 -0.00142459)
(0.0830991 -0.00353359 0.0025927)
(-0.00040921 0.00132451 0.0118236)
(0.0595642 0.010126 -0.000292188)
(0.0852074 -0.000875343 -0.00662989)
(0.077609 0.00583635 0.00286051)
(0.0936844 -0.00230346 -0.00220864)
(0.0782021 -0.000789205 -0.00244644)
(0.0851623 0.00162765 -0.000587638)
(0.0786256 -0.00506144 0.00427653)
(0.0878841 0.00122804 0.00337281)
(0.00958469 -0.0123444 -0.00857442)
(0.0321537 0.00337224 0.00152467)
(0.0806268 -0.00125357 0.00112633)
(-0.0143927 -0.00181251 0.00158543)
(-0.00299384 -0.00116192 -0.00226277)
(0.00226638 -0.00396548 0.0126492)
(0.0183789 0.00651207 -0.00772704)
(0.0674964 0.00408182 0.00203641)
(0.0810729 -0.00201186 0.00180213)
(0.0136468 0.0140175 -0.00242043)
(0.061954 0.000225488 0.00390409)
(0.0569097 -0.00422975 7.28513e-05)
(0.0186903 0.00433312 -0.0081341)
(0.0806401 0.00668444 -0.0039254)
(-0.00945655 0.00889593 -0.00604798)
(0.0209412 0.00408239 -0.00305717)
(0.068536 0.0110331 -0.00127929)
(0.0843946 -0.000804512 0.0011602)
(0.0558398 0.00117352 -0.00304082)
(0.00198072 3.23646e-05 -0.00445929)
(0.0820433 0.00169676 0.00108256)
(0.000345725 -0.011257 -0.00352042)
(0.0773658 0.00113426 -0.00309302)
(0.0911374 0.00425462 -0.00141571)
(0.0883337 0.00126663 0.00395981)
(0.0897531 0.00238351 -0.000546782)
(0.0869309 0.000885458 0.00125254)
(0.0897241 -0.00435234 0.00264505)
(0.0403246 0.00165614 -0.00808417)
(0.00772066 0.0034495 0.00879441)
(0.0935347 -0.0041525 -0.00104359)
(0.0484545 -0.00454181 0.00706432)
(0.0913172 -0.00256118 0.00100671)
(0.0890098 0.0015786 0.00366682)
(0.0711661 0.00315519 0.000772711)
(-0.000451059 0.00809548 -0.00333651)
(0.0849654 0.00135365 0.00182115)
(0.0515486 0.000463318 -0.000727176)
(0.0640999 -0.000368575 4.87838e-05)
(0.0603352 0.00588631 -0.00365052)
(0.0770373 0.00292824 -0.000335124)
(-0.00506518 0.00198636 0.00365494)
(0.0620127 -0.00242899 -0.00657593)
(-0.00273869 0.00131145 -0.00145616)
(0.0860321 0.000194316 0.00254985)
(-0.00182934 -0.0055856 0.00173181)
(0.0717162 0.0017833 -0.000738684)
(0.0866405 -0.000773951 0.00136926)
(0.085509 0.000101644 0.000627701)
(0.0873365 -0.00129974 -0.00138116)
(0.0760277 0.0023543 -0.0047233)
(0.0360712 -0.00877322 0.00188422)
(0.0672699 -0.00062968 0.00100133)
(0.0617177 -0.00426377 0.00345312)
(0.000464666 -0.00187535 -0.00195685)
(0.0903174 -0.00234517 3.12864e-05)
(0.0830171 0.00111639 0.0016649)
(0.0437563 0.000859675 -0.000248907)
(0.00675868 0.00355588 0.00292692)
(0.0704587 -0.00062741 0.00190287)
(0.0703099 0.00302935 -0.00044088)
(0.0431927 0.00317682 0.00286146)
(0.0040948 0.00773524 -0.00536819)
(0.0315296 -0.00451185 -0.00274812)
(0.0343456 -0.00478164 -0.00873156)
(0.00558264 -0.00280871 -0.00668482)
(0.0156966 -0.000985115 -0.000326585)
(0.0569059 0.000688567 0.00327028)
(0.0863469 0.00109725 0.000804505)
(-0.000593696 -0.00359013 -0.00118783)
(0.0910308 0.000637196 0.00158636)
(0.00592759 -0.00716684 0.00258617)
(0.0726908 -0.00253161 -0.00226638)
(0.0512336 0.00732617 -0.00134747)
(0.0142445 0.000346341 -0.000201818)
(0.024316 -0.00300885 -0.00122782)
(0.0814485 0.000834754 -0.00076056)
(0.00793327 -0.00406981 0.00109)
(0.0744238 0.0020298 -0.00292629)
(0.0856528 -0.00040423 0.000163171)
(0.0891194 -0.00234885 -0.00221737)
(0.0223752 -0.0053405 0.000269463)
(0.00649324 0.00243074 -0.00256475)
(0.0856034 0.00294503 0.00117896)
(-0.00277502 -0.00955644 0.00365114)
(0.0116708 -0.00892411 -0.00742784)
(0.0144371 -0.00208902 -0.0047088)
(0.0895392 0.000301817 0.00171247)
(0.00501025 -0.00330877 -0.00443739)
(-0.00856724 -0.00148905 -0.00932456)
(-0.00775512 0.00260751 -0.000891171)
(0.0752296 5.83472e-05 0.00464926)
(0.0595033 0.00156777 0.0010699)
(0.0772356 -0.000810052 0.000549311)
(-0.00373257 0.00687716 -0.00164515)
(0.0879125 -0.000659817 0.00347187)
(0.0166678 0.00545447 0.00276467)
(0.0870045 -0.002338 -0.00200942)
(-0.00558647 0.00470794 0.0065668)
(0.0121619 -0.00370775 -0.00547164)
(-0.00408991 -0.00307985 -0.00317748)
(0.0633428 0.00180953 0.00215687)
(0.0867269 0.00270121 0.000856889)
(0.0465722 -0.00797858 0.000830663)
(0.0880985 0.00362151 0.0014342)
(0.0510604 0.000460987 -0.000833115)
(-0.00349651 0.00225575 -0.0058559)
(0.0812623 -0.00371992 0.00129624)
(0.0834608 0.00450937 0.000267883)
(0.0906174 0.000496468 0.00233542)
(0.0797384 0.00434503 -0.00208468)
(0.0034479 0.00267743 0.00115355)
(0.0699412 0.000638137 0.000517212)
(0.00100459 0.00800075 0.00572104)
(0.00217023 -0.00691651 0.00242958)
(0.0852893 0.00100131 -0.00554147)
(0.00627421 0.00140938 -0.000196702)
(0.0686725 0.00300447 -0.000840407)
(0.0835542 -0.00148997 0.000999239)
(0.0826415 -0.00064987 -0.000102666)
(0.0910996 -0.00116489 -0.000957075)
(0.00724984 0.00522444 -0.00239219)
(0.0922956 0.000735941 0.0017159)
(0.0106379 -0.00186464 0.00330844)
(0.0599185 -0.000685315 -0.0020748)
(0.0877165 -0.000302956 0.00274536)
(0.00936902 -0.00712663 0.000782121)
(0.0835767 -0.00186506 -0.00050793)
(0.0859636 0.0015383 -0.000564495)
(-0.00534867 -0.00385882 -0.00705708)
(0.00784146 0.0101308 -0.00527089)
(0.0863988 0.000390419 0.00178406)
(-0.00382914 0.00734719 -0.00825253)
(0.0945085 -0.000933163 -0.00124634)
(0.0855914 0.000772662 0.00148443)
(0.0839994 -0.000739582 -0.00254218)
(-0.00984034 -0.00539645 -0.00161182)
(-0.00853315 -0.000371518 -0.00717441)
(0.00689773 -0.00334634 -0.0018396)
(0.0144587 -0.00371019 0.00766245)
(0.0490032 -0.000572076 -0.00297222)
(0.0863405 -0.00253729 0.000839161)
(0.00203879 -0.0112035 0.00694594)
(0.0866123 -0.000818585 0.00246992)
(-0.00179929 -0.00278795 0.00997231)
(-0.000273212 0.00408482 0.00720093)
(0.00483414 0.000926929 0.00396616)
(0.0914256 -0.000403846 0.000178877)
(0.0579127 0.000332243 -0.00407336)
(0.0845199 -0.00273259 -0.00200711)
(0.016739 0.000443871 -0.00172005)
(0.0956465 -0.000291207 0.000383681)
(0.0571471 0.00236325 -0.00473156)
(0.0868715 0.000737541 0.000914182)
(0.0807695 0.000657199 0.00019312)
(0.089548 -0.00152566 0.00286534)
(0.0841418 -0.0015824 -0.000669747)
(0.0840026 0.00127916 0.000130515)
(0.0861026 -3.57727e-05 0.00121066)
(0.00147708 0.00598171 -0.00904691)
(0.0860777 -0.0013217 0.00436562)
(0.00447136 0.00104478 -0.00225982)
(0.0158409 -0.00032122 0.000990212)
(0.0733161 -0.000742555 0.000280943)
(0.0863178 0.00124362 0.000972607)
(0.0784361 -0.00139695 0.00152217)
(0.0890644 -0.000654802 -0.00229641)
(0.062558 -0.0041884 0.00126009)
(-0.00443575 0.00430047 -0.00425108)
(0.0895528 0.00107987 0.0043964)
(0.0317905 -0.00184458 0.000350426)
(0.00487205 0.00282387 0.00471237)
(0.0110295 -0.00316772 0.000723805)
(0.057219 0.00554534 -0.00328309)
(0.0869474 -0.000698766 -0.000524639)
(0.0437313 -0.00337575 0.00202348)
(0.0462689 -0.00157348 0.00334856)
(0.0876767 -0.00178272 0.00273681)
(0.0489867 -0.00575524 0.00275428)
(0.000791908 0.00716247 -0.0023987)
(0.0882627 0.00188719 0.000892662)
(-0.00241825 0.00102299 -0.00705299)
(-0.00402879 -0.00982114 0.0108375)
(0.0810052 -0.00194606 -0.000444549)
(0.0789829 -0.00111343 -0.000202029)
(-0.00734173 0.00841987 0.00399698)
(0.0711956 0.00229211 -0.00409784)
(0.0729539 0.0028423 0.000927746)
(0.0850577 -0.00343806 -0.00198524)
(0.0877914 0.0025515 0.00072096)
(0.00495493 0.00417047 -0.00521219)
(0.081961 -0.00198268 -0.000101434)
(0.0852717 -0.00142731 -0.00112698)
(0.0904364 -0.00162624 0.000162971)
(0.0736798 -0.00651067 0.00200312)
(0.0777508 0.000893623 -0.000456707)
(0.0407414 -0.00236208 -0.00243322)
(0.0921289 -0.000734611 -0.000383002)
(-0.0113671 0.00116004 -0.00542359)
(0.0823931 0.0002143 0.00104108)
(0.0881432 -0.00191843 0.00221111)
(0.0887292 -0.00284596 -0.00127775)
(0.0828785 0.000156677 0.00148362)
(0.072973 0.00228354 -0.00173105)
(-0.00290828 0.00540342 0.0057762)
(-0.0042352 -0.00798165 -0.00283464)
(-0.00614901 0.00210745 0.00261108)
(0.0890828 0.000959127 -0.00132646)
(0.000657427 0.00418342 0.0122848)
(0.00559637 -0.00135957 -0.00450233)
(0.00944487 0.00650775 0.00408283)
(0.0909426 0.000697195 -0.000186984)
(0.0872837 5.04058e-05 -0.00217358)
(0.0874216 0.000818812 0.000184595)
(0.0135686 1.68368e-05 -0.00562752)
(0.0461871 -0.00288982 -0.000362099)
(-0.00136616 -0.00294153 0.00441947)
(0.0188814 -0.00274576 0.00688232)
(0.0816705 -0.00111848 -0.000538371)
(0.0525275 0.00537848 -0.00441891)
(0.0915794 0.0136983 0.00515162)
(0.0434542 0.00150121 0.00105862)
(-0.00907836 -0.000460031 -0.00806541)
(0.0118015 -0.005256 0.00092991)
(0.0622969 -0.00137444 0.00452305)
(0.0854005 -0.00146272 0.00333325)
(0.0919381 0.00411118 0.00284864)
(0.0898275 0.00072267 -0.000702511)
(0.0864587 -0.00188019 0.00244733)
(0.0552481 -0.00871801 0.00434416)
(0.0679721 0.00334973 0.000292757)
(0.0822708 0.0009537 -0.000118673)
(0.0920317 0.00125537 0.00214396)
(0.086766 -4.79439e-05 -0.0018763)
(0.0171289 -0.00107227 -0.00585379)
(0.00142734 -0.00281325 0.00304761)
(0.0867315 6.82019e-05 0.00153152)
(-0.00467969 -0.00236568 0.00160836)
(0.000780574 -0.000362721 -0.00461654)
(0.0851628 -0.000157734 0.00273022)
(0.0834893 0.000804058 0.00215436)
(0.0199049 0.00037144 -0.0026939)
(0.0905944 0.000107866 0.00159342)
(0.0884285 -0.00364127 0.00106592)
(0.0844187 0.00242543 -0.000931979)
(0.0870063 0.00174409 0.00210632)
(-0.00931431 0.00632737 0.0034424)
(0.0865784 -0.000774139 0.00175248)
(0.0870196 0.000521126 -0.000562882)
(-0.002631 0.000668503 0.000428724)
(0.0905704 0.00153039 -0.000676097)
(0.0877545 0.00239255 -0.00122814)
(0.0826233 0.00147173 -0.00489303)
(0.0703641 -0.00170451 -0.001096)
(0.0841879 -0.000695819 -0.00375832)
(0.0798146 -0.00493369 -0.000318476)
(0.0318214 -0.00402044 0.00211406)
(0.00755086 -0.00224099 -0.00104232)
(-0.0142506 -0.0022733 0.00465346)
(0.0442136 -0.000574664 0.00354185)
(0.0292038 0.00261058 0.00494482)
(0.0300165 0.00194648 0.00455526)
(0.0384251 -0.00273215 0.00171142)
(0.0600589 0.00512201 0.000205157)
(0.0791094 -0.0012637 -0.00178907)
(0.0873258 -0.000433522 0.00300411)
(0.0920656 0.00415113 -0.00115713)
(0.0758348 -0.000938158 -0.00104415)
(0.0878789 -0.000803776 0.00199489)
(0.089225 0.00169204 0.000334609)
(0.00723021 -0.0074266 -0.000778353)
(0.0709977 -0.0202435 0.0059999)
(0.0251768 0.00423722 0.00297268)
(-0.00716172 -0.00748289 -0.00286447)
(-0.00510013 0.0133276 0.00196829)
(0.0928416 5.9866e-05 0.00197169)
(0.0482295 -0.00290391 -0.00850894)
(0.0864947 0.00162385 -0.000264073)
(0.00338032 0.00523669 -0.00214437)
(0.0809965 -0.000528724 -0.000125426)
(0.0155389 0.00142826 -0.00895476)
(0.0909886 0.000143351 0.0025025)
(0.00783771 -0.00981899 0.000435849)
(0.0266699 -0.000932186 -0.00295701)
(0.070062 -0.000461173 0.000962631)
(0.0906444 0.00180645 -0.00254985)
(0.00300998 0.0025485 -0.00147387)
(0.0105964 -0.00549701 0.00148586)
(0.0783447 0.00159392 0.000688686)
(-0.00312516 -0.0016757 -0.00501903)
(0.0748965 -0.000316567 0.00227113)
(0.0699412 -0.00456496 0.00198906)
(0.0779363 0.000440959 -0.000327728)
(0.0537538 7.83344e-06 0.000931335)
(0.0487131 -0.001059 -0.0018164)
(0.0957829 -0.000300412 -0.00114185)
(0.0266656 -0.00782979 -0.00892883)
(0.0851741 0.001236 -0.00117359)
(0.0555276 0.00485274 0.00342233)
(0.0161603 0.00187569 -0.00596192)
(0.016599 0.00116827 -0.00675431)
(0.08576 0.000502418 0.000771719)
(0.0892633 0.000755012 0.000354022)
(0.0117327 -0.000358296 -0.00398749)
(0.0786209 0.00233032 0.00157026)
(0.0535049 -0.000387411 -0.00306895)
(0.0879845 -0.00122903 1.86687e-05)
(0.0867708 -0.00286167 0.000276612)
(-0.00846333 0.00420768 -0.00574446)
(0.0730533 -0.000459487 -0.000620058)
(0.0875645 -0.00184943 -0.00123004)
(0.0849188 0.00247776 0.000551052)
(0.090486 0.000441362 -0.00177092)
(-0.0160776 -0.00389881 -0.00966497)
(-0.00153466 0.0102993 -0.00357317)
(0.0690981 0.00208077 0.00137723)
(0.08786 0.00103459 0.0016157)
(0.0889149 -0.00054657 3.74817e-06)
(0.00778203 -0.00173148 -0.00489752)
(0.0873525 0.000986486 -0.000987373)
(0.0541714 -0.0013983 0.00153696)
(0.087816 -0.000825458 -0.00136465)
(0.0907744 0.000358783 -0.00109019)
(0.0873408 0.000157302 -0.00293226)
(0.0928254 0.00131426 0.00192453)
(0.0897049 0.000689876 0.0013858)
(0.0492016 -0.00158334 -0.0029388)
(0.082527 -0.0037619 -0.00022705)
(0.0124792 -0.00129433 -0.00679711)
(0.0886403 -0.00179763 -0.000688886)
(0.0576445 0.00548609 0.00246825)
(0.0835052 0.0013293 -0.000942638)
(0.0861576 -0.00320491 0.00119538)
(0.0847002 0.000173399 -0.00300258)
(0.0800771 -0.00043853 8.70794e-05)
(-0.00122984 0.00621314 0.00136772)
(-0.0144982 0.00575325 0.000132364)
(0.00232939 0.0067891 -0.00182841)
(0.0864527 -0.000740351 0.00187557)
(0.0877165 0.000368211 -0.000397896)
(0.0809978 -0.000551117 0.000406525)
(0.0734786 0.00387099 -0.00331005)
(-0.0100712 0.00661641 0.00369179)
(0.000479325 0.0106575 0.00565435)
(0.0692501 -0.00309857 0.00440908)
(0.0885982 0.00288034 0.000500561)
(0.0877447 0.0018344 -0.00105153)
(0.0883676 0.00339448 0.000556103)
(0.0852113 0.00187519 -0.000315344)
(0.0837378 0.00287256 0.00179303)
(0.0804722 0.00147151 0.00101407)
(-0.000735778 0.00371162 0.00432714)
(0.0722451 -0.00218827 -0.00071806)
(0.00832946 0.000363575 0.00272256)
(0.0235432 -0.00403698 0.00174988)
(0.0859339 -0.00226786 -0.00190353)
(0.0443123 -0.00315393 0.00993123)
(0.084364 0.00118808 0.00104113)
(-0.00399777 -0.0101383 -0.00557089)
(0.0956401 0.00428026 -0.00200909)
(0.0938182 0.00030282 -0.00130221)
(0.0859532 -0.00108479 0.00110867)
(0.0372791 0.00246513 0.00210761)
(0.0821796 -0.000963306 0.00166645)
(0.0856959 0.000393989 0.000202592)
(0.0652071 -0.00278072 -0.00193162)
(0.0877464 -4.98858e-05 4.81853e-05)
(0.0568098 0.00552673 -0.000182034)
(0.0887576 -0.00212105 -0.00156599)
(0.0833537 -0.00310887 0.000229449)
(-0.00336869 0.0078961 0.00240422)
(0.0891589 0.00136346 -0.00120659)
(0.061091 0.00282029 -0.000151269)
(-0.00726186 0.00110702 0.00776582)
(0.0576638 0.000287806 0.00228772)
(0.0853281 0.000400448 0.000832805)
(0.071098 -0.000277851 -0.0012868)
(0.0413841 0.00240109 0.000213353)
(-0.00212049 -0.00835073 -0.00459156)
(0.0859255 0.00209966 0.00104691)
(0.066425 0.00450227 -0.00182736)
(0.0868062 0.00365357 -0.00145948)
(0.0737493 -0.000245805 -0.00013466)
(-0.0107461 0.00311765 0.0115745)
(0.0742914 -0.00129523 0.00289843)
(0.00579581 0.00620476 0.000447691)
(0.0862382 0.000707035 -0.000837693)
(0.0989102 0.0166041 -0.00290249)
(0.0911787 0.000405185 0.000667557)
(0.0139147 -0.0064982 0.00144859)
(0.0586315 0.000531928 -0.00218563)
(0.0515306 0.00132485 0.00282245)
(-0.00598218 0.00249465 0.00269824)
(0.085286 0.00359173 0.00264369)
(0.0855281 0.00130573 -0.000111015)
(0.00516555 -0.00491394 -0.00590629)
(0.0858292 -0.00239322 -0.00242561)
(0.0828051 -0.0021281 -0.00180809)
(0.000416832 0.00175205 -0.00455827)
(0.014905 0.00419428 -0.00183562)
(-0.00931692 -0.000519407 0.0100327)
(0.0856304 0.00405796 -0.000834364)
(0.0879018 -0.00233356 -0.000192112)
(0.0204368 -0.00626658 0.00305068)
(0.000531974 -0.00657463 -0.00572174)
(0.00998738 -0.00468354 0.00372955)
(0.0643586 -0.00104046 -0.00268145)
(0.085585 -0.00230019 0.000528289)
(0.000276326 0.00479557 -0.00566496)
(0.0875539 -0.000551276 0.000748709)
(0.0871413 -0.00106368 0.00265039)
(0.0859509 0.000199375 -6.13016e-05)
(0.0875965 0.00446405 -0.00435408)
(0.0921599 -0.000679892 -0.00204489)
(-0.010827 -0.000202633 -0.000357505)
(0.0904842 -0.0011156 -0.000552894)
(0.00474032 0.000470801 -0.00179529)
(0.0168698 -0.00718702 -0.00245556)
(0.0852972 -0.000285804 0.00181481)
(0.0077475 -0.00183457 -0.00257159)
(-8.21869e-05 0.00389158 -5.18517e-07)
(0.000478611 0.00460851 0.00620794)
(-0.00196975 -0.0029701 -0.00911331)
(0.013314 0.00350976 -0.00308628)
(0.0892629 9.3095e-05 0.00228223)
(0.00788303 0.00310102 -0.00189035)
(0.00619608 0.00576602 -0.00331072)
(0.0855371 -9.53447e-05 -0.00676893)
(0.0851575 0.000590911 0.000764973)
(-0.0116013 0.0118562 0.00022486)
(0.0502252 -0.00155308 -0.00300298)
(0.026182 0.00275483 0.000340005)
(0.0926777 0.000809233 0.00171559)
(0.0229753 -0.00050178 -0.00255033)
(0.0856541 0.000517609 0.00093481)
(0.0160552 -0.00329405 0.0014048)
(0.0627087 0.00132996 -0.000749314)
(0.0843419 0.00330742 -0.00289858)
(0.00914362 0.00345773 -0.00472255)
(0.0828015 0.00276914 -0.000260876)
(0.0163537 0.00298527 0.00301957)
(0.00242282 0.00694917 -0.0015427)
(0.0779515 -0.00447382 0.00209556)
(0.0861865 0.00287882 -0.00383632)
(0.0770791 0.00202673 -0.00290327)
(0.0757209 0.00503353 0.00124831)
(0.0842992 0.000570279 0.00116774)
(0.0102715 0.00249319 -0.00223584)
(0.0912278 0.000626863 0.000823778)
(0.0126305 0.00407104 0.00293422)
(0.0832101 0.00283208 0.000486445)
(0.0646438 -0.00134591 0.00270081)
(-0.00847681 0.0049712 -0.00616873)
(0.0898543 0.00169714 -0.00250548)
(0.00274647 0.00958367 -0.00516106)
(-0.000594957 -0.00531733 0.00147393)
(0.0887294 -0.000799543 5.37112e-05)
(-0.00532657 -0.00407219 0.00828936)
(0.0762414 0.00187213 0.00202249)
(0.0858815 -0.000572786 0.00408482)
(0.0684259 -0.00211948 -6.63745e-05)
(0.000397137 -0.00473033 0.00288679)
(0.0908714 0.000869987 -7.32479e-05)
(0.0428827 -0.00124344 -0.0015624)
(0.086914 -0.00115384 -0.000598041)
(0.0902376 0.00170195 0.00204445)
(0.0931796 -0.00043489 -0.00247993)
(0.08709 0.000570514 -0.000931488)
(0.000864654 0.00236374 -0.0127248)
(0.00558198 -0.00390742 0.000167403)
(0.0918831 0.00245084 -0.00046647)
(0.0874452 0.000332049 -0.00205432)
(-0.00159115 -0.00681125 0.000342726)
(0.0875692 0.00334283 -0.00320058)
(0.0925225 -0.00173563 0.00336965)
(0.0877656 0.00115061 -0.00056575)
(0.0877889 9.7206e-06 0.00302662)
(0.067322 -0.00432401 -0.00299674)
(0.0010954 0.00283173 -0.00230346)
(0.0917399 0.000881762 0.00233307)
(0.0535423 0.00229005 -0.00424622)
(0.0818517 -0.00099961 0.00199255)
(0.0468959 -0.000733171 0.000218802)
(-0.00963179 -0.00448218 0.00703594)
(0.0824502 0.00188949 -0.000350766)
(0.0471322 0.00283525 0.000522917)
(0.0840863 -0.00569496 -0.00413567)
(0.0854467 0.000308509 -0.000605197)
(0.0799148 0.00512254 -0.000327771)
(-0.000300169 0.00295212 -0.00360493)
(0.00567983 -0.00443024 -0.000881796)
(0.0834008 -0.00319188 -0.00140838)
(0.0814964 -0.000454906 0.00170554)
(0.0927473 0.00161529 3.77265e-05)
(0.0774402 0.00316218 -0.00367632)
(0.0354745 -0.00141561 0.00259889)
(0.0845886 -0.00375712 0.00139719)
(0.0815337 -0.00225889 -0.00082468)
(-0.00347763 0.00670353 -0.00061505)
(0.0843824 -0.00137252 -0.000217746)
(0.0924071 -0.00475345 0.000896993)
(0.00214337 -0.00471473 0.00254144)
(0.00600809 -0.00451795 0.00189694)
(0.0839693 0.00128766 -0.00301648)
(0.0858784 -0.00201094 -0.00146413)
(0.074265 -0.000356437 0.00384375)
(0.0719612 0.00148043 0.000256964)
(0.0607633 -0.00373017 0.00304991)
(0.0910753 0.000717685 -2.62451e-05)
(0.0395703 0.00357858 0.00163497)
(0.0973694 -0.00262001 -0.000528436)
(0.0826011 -0.00232065 0.000960692)
(0.086311 0.00114561 -0.00234098)
(0.0878895 -0.00166001 -0.000900907)
(0.00184911 0.00327697 -0.00128765)
(0.0827608 -0.0028556 -0.0008792)
(-0.00560947 -0.001633 -0.00642035)
(0.0495159 -0.00702072 0.00198804)
(0.0150803 -0.00204814 0.000685567)
(0.0818887 -0.0012951 -0.00644286)
(0.0785204 -0.00640081 -0.0019721)
(0.0643745 -0.0100451 -0.00270264)
(0.0882205 0.00104006 0.0015233)
(0.0905701 0.000221581 0.00279761)
(0.0871759 0.000690068 0.00100085)
(0.0840517 0.000829325 0.00164437)
(0.00313348 -0.00111846 -0.00312013)
(0.100825 -0.00726213 -0.00650482)
(0.0810181 0.000683056 -0.0165422)
(0.085923 -0.00111472 0.00123481)
(0.0712958 -0.00201742 -0.00296431)
(0.0883083 -0.0051139 0.000385146)
(0.0863026 -0.00216149 0.00288571)
(0.0556006 -0.00269758 0.00744515)
(-0.00932809 0.00105615 0.00685311)
(0.00791779 -0.0020025 0.0039436)
(-0.0146603 0.00644545 -0.00524944)
(0.0111658 0.00620665 -2.51093e-05)
(-0.00329534 -0.00188293 0.00489149)
(0.0836644 0.00127932 0.000454116)
(0.0804648 0.0011645 -0.00142848)
(0.00874064 -0.00551742 0.00270162)
(0.00926224 0.00454999 0.000623018)
(0.0875736 0.00227263 -0.00191486)
(0.0455535 -0.0120752 0.00918957)
(-0.00171243 0.0078885 0.00465135)
(0.0851823 -0.00231919 -0.00313642)
(0.0544364 0.00195251 -0.00164768)
(0.0775608 -0.000730014 -0.00113627)
(0.00616707 0.00129815 -0.00633867)
(0.00305283 -0.00192505 0.000638613)
(0.0679229 0.00084899 0.000333054)
(0.0888698 -0.00119603 0.00372835)
(0.0820268 -0.000155697 0.00287356)
(0.00121867 -0.00268287 -0.00198475)
(-0.00982895 -0.00972077 -0.000776675)
(0.0955768 -0.0149157 -0.00522718)
(-0.00781952 -0.00978437 -0.00305775)
(0.0770477 0.000445888 -0.00248661)
(-0.00286794 0.00898232 -0.00934523)
(0.0765763 -0.00071288 0.00452492)
(0.0870166 0.00183038 -0.00265333)
(0.0891404 -0.0024212 -0.000176441)
(0.00175698 0.00322033 -0.0177293)
(0.0507265 0.00256158 0.000673608)
(0.000101481 0.00365983 -0.000207619)
(-0.00186554 -0.000821828 -0.00340093)
(0.0879616 -0.00169356 -0.000361789)
(0.00386969 -0.00976463 -0.00492969)
(0.0867671 -0.00264672 0.00206655)
(-0.00396027 -0.0119207 -0.00786145)
(0.0839545 -0.00310981 -0.000810247)
(0.0812193 -3.56392e-05 0.0015607)
(-0.00468407 -0.00428086 0.00541642)
(0.00698899 -0.00344362 0.00267361)
(0.0810759 -0.00284388 0.000658458)
(-0.00345014 -0.000626715 -0.00582353)
(0.0827652 0.0020783 -0.00277335)
(0.00198655 -0.00911069 0.00750999)
(0.0655739 0.0051481 0.00355322)
(0.0909034 0.000679299 -0.000539322)
(-0.00330751 0.00373203 0.00641067)
(-0.00196458 0.00877109 -0.00626485)
(0.00755329 -0.00896315 -0.00012381)
(0.0975199 0.0218484 0.00507207)
(0.0580713 -0.000671745 -0.00634063)
(0.0117399 -0.0076405 -0.000929597)
(0.0334708 -0.00124308 0.00157252)
(-0.00538013 -0.00238406 0.000696249)
(0.089608 6.7785e-05 -0.00164484)
(-0.0178033 -0.00140828 -0.00266705)
(0.0906446 -0.000134986 0.000588731)
(0.0762818 0.0012457 -0.00421533)
(0.0863206 0.00119778 -0.00242534)
(-0.00345551 -0.00138145 -0.000837619)
(0.0869966 0.00038217 -0.00115359)
(0.0410395 0.000502474 -0.00152994)
(0.0877343 -0.000235948 0.0004961)
(0.0120186 0.00436775 -0.00175787)
(0.0952835 -0.0153353 0.00876765)
(0.0917506 0.000859611 0.000878451)
(-0.0151101 0.0114173 -0.00285289)
(0.086776 -0.00107101 -0.0011409)
(0.101205 0.00338915 -0.0272455)
(0.0632423 0.00141903 -0.000122432)
(-0.00324174 -0.0034026 -0.00305791)
(0.00370969 0.00381946 -0.00485067)
(0.0895926 0.000491011 0.00131912)
(0.0766481 0.00322036 0.00111421)
(-0.00500069 -0.00775764 -2.55579e-05)
(0.0535828 -0.00238204 0.00157953)
(0.0115732 -0.00340764 -0.0106585)
(0.000558276 -0.00392272 0.00315327)
(0.0922359 -0.000948979 -0.000428202)
(0.0985132 -0.00208404 0.0192769)
(0.0728087 0.00319962 -0.00115985)
(0.0896181 -0.000635381 0.000717415)
(0.0926797 -7.40669e-05 0.000445501)
(0.084047 0.00172115 0.000814866)
(0.0657275 0.00473592 0.00184422)
(0.0028186 0.00357144 -0.00153485)
(-0.0158632 0.00469559 -0.00542397)
(0.0926404 0.00319586 -0.00100827)
(0.0920449 -0.00875048 0.0166368)
(0.0668685 -0.00286377 3.1226e-05)
(0.0721983 -0.00329021 -0.00119412)
(0.0242386 0.00348622 -0.00133227)
(0.0837612 -0.000719492 0.00298201)
(0.0886853 0.00318222 -0.00165263)
(0.04165 0.00594399 -0.0029233)
(0.0541753 0.0040851 -0.00358769)
(0.0120505 0.00476148 -0.00589319)
(0.0159815 0.00391971 -0.00216343)
(0.00890598 -0.0175945 -0.0232466)
(0.089595 0.000581983 0.000935569)
(0.0828796 -0.0020545 0.00183494)
(0.0370418 0.00259442 -0.00136811)
(0.0589211 0.00666697 0.00293258)
(-0.00380569 0.00140582 -0.00714397)
(0.031127 0.00632519 0.00368669)
(0.0159256 -0.0063925 -0.00444579)
(0.0887021 0.00131738 -0.000561591)
(0.0903303 -0.00160095 -0.00215957)
(0.0995332 -0.015106 0.0129514)
(0.0890997 -7.47826e-05 0.00132365)
(0.0334086 0.00295786 -0.00275417)
(0.099051 -0.000372692 0.0146733)
(0.0742844 -0.000904755 0.00339637)
(0.00713558 0.00317398 -0.000950771)
(0.0889453 0.00278967 -0.00318794)
(-0.0103629 0.00246539 -0.00102752)
(0.0781697 -0.00019287 1.8102e-05)
(-0.00336963 0.00701119 -0.00226776)
(0.0890599 0.00168912 0.00400504)
(0.0994078 -0.00884395 0.00692481)
(0.0876886 -0.00229344 0.000589982)
(0.0611723 0.00387526 -0.000616463)
(0.0794336 -0.00216016 -0.000622757)
(0.0831866 0.00148435 -0.000149704)
(0.0875644 -0.00094195 -0.000846656)
(-0.0143074 0.00321502 0.00112023)
(0.00261709 0.00211598 0.00605918)
(-0.00636778 -0.00426319 -0.00562852)
(0.0866329 -0.000537356 -0.000719151)
(0.0824376 -0.000534618 0.00109405)
(0.0766577 0.000977397 -0.00199674)
(0.0875029 -0.00134786 0.0012192)
(0.0105527 0.00316004 -0.00716115)
(0.052475 -0.000723286 -0.00245473)
(0.0380029 0.000730155 0.000568574)
(0.0915128 -0.0029939 -0.00108555)
(0.0714063 0.000903304 -0.000691069)
(0.0787119 -0.000708206 0.000263433)
(0.0574539 0.000118092 0.00295072)
(0.091458 -0.000371819 -0.00228569)
(9.6198e-05 -0.00530465 -0.00395285)
(0.0456711 -0.000265896 -0.000504761)
(0.0825381 0.000695829 -5.40608e-05)
(0.00156054 -0.00679667 -0.00074992)
(-0.00302254 -0.00919201 0.00206873)
(0.0105552 0.000617359 0.00289257)
(0.00447179 0.010814 0.00117982)
(0.0414441 0.00180387 -0.00102864)
(0.0860341 0.00243941 0.000209223)
(0.01932 -0.00065995 -0.00196426)
(0.00404632 -0.0015566 -0.00663804)
(0.0641644 0.00100427 -0.000114042)
(-0.00585451 0.00256631 0.000662991)
(0.0416126 0.00373666 -0.00465477)
(0.0888493 0.000143597 -0.000506797)
(0.0865935 0.00100951 0.00299584)
(0.0880118 0.0014698 -0.000889032)
(0.081501 0.00338218 0.00359375)
(0.0894676 -0.000892244 -0.000995726)
(0.0797614 -0.00194369 -0.00203294)
(0.0148099 -0.00469325 -0.00404975)
(0.084592 0.00151888 -0.00314287)
(0.0758538 -0.00327637 4.48489e-05)
(0.0352279 -0.0029889 -0.00215973)
(0.0485975 -0.00484872 0.00605447)
(0.0851792 -0.00166 0.000365964)
(0.0655395 0.00520449 0.000159716)
(0.0258559 -0.0027649 0.00941769)
(0.083386 -0.00246908 0.00168612)
(-0.011497 -0.000546406 0.00575393)
(0.0420214 0.002414 0.00316296)
(0.0523659 0.00270623 -0.00337565)
(0.00935923 0.00300298 0.00599728)
(0.0851381 0.000574392 0.000499727)
(0.0619703 -0.00892857 0.0132537)
(0.0773181 0.00152051 0.00259997)
(-0.00376332 -0.000539508 -0.00183614)
(0.000819536 0.00833559 -0.00270044)
(0.0126698 0.00551509 0.000915647)
(-0.002466 -0.00690437 0.000906241)
(0.0830757 0.00329456 -0.00169157)
(0.0827196 0.00150422 0.000157508)
(0.0757082 0.000389259 0.0033636)
(0.0634443 0.00800235 -0.00770095)
(0.0744549 0.000822746 0.000389101)
(0.0821631 0.00244048 -0.000833162)
(-0.0118057 0.00329645 0.017399)