/*--------------------------------*- C++ -*----------------------------------*\
| =========                 |                                                 |
| \\      /  F ield         | OpenFOAM: The Open Source CFD Toolbox           |
|  \\    /   O peration     | Version:  2406                                  |
|   \\  /    A nd           | Website:  www.openfoam.com                      |
|    \\/     M anipulation  |                                                 |
\*---------------------------------------------------------------------------*/
FoamFile
{
    version     2.0;
    format      ascii;
    arch        "LSB;label=32;scalar=64";
    class       volScalarField;
    location    "10";
    object      epsilon;
}
// * * * * * * * * * * * * * * * * * * * * * * * * * * * * * * * * * * * * * //

dimensions      [0 2 -3 0 0 0 0];

internalField   nonuniform List<scalar> 
59516
(
0.0375606
0.0358233
0.0257531
0.0198152
0.00937703
0.340202
0.0217277
0.0340481
0.0303558
0.0854089
0.0091891
0.079328
0.0288645
0.352096
0.0693969
0.0846378
0.0101364
0.0779037
0.0307788
0.0112357
0.0968983
0.0150646
0.0135224
0.127089
0.0129081
0.0623547
0.123897
0.114397
0.0647977
0.254063
0.0498762
0.109213
0.018828
0.0279613
0.016544
0.0165876
0.231346
0.079693
0.0446531
0.0132585
0.0350935
0.0121841
0.0148705
0.0345895
0.0163586
0.0875375
0.0208209
0.0100873
0.0127207
0.0115385
0.0277941
0.101757
0.0260709
0.0236342
0.0900351
0.0230298
0.0105145
0.105938
0.0101679
0.0178222
0.0141172
0.200377
0.0103906
0.0105878
0.0240015
0.0140679
0.235274
0.109745
0.0209503
0.0186426
0.116206
0.0110754
0.177612
0.0170433
0.00952927
0.0118153
0.0101628
0.0147023
0.0968126
0.0116284
0.119076
0.0133316
0.016916
0.200677
0.0136555
0.00987955
0.123777
0.0148921
0.0816916
0.0438391
0.00991519
0.0164997
0.00997514
0.0165156
0.0110666
0.010509
0.0156226
0.0888263
0.0780992
0.0149142
0.10677
0.189815
0.190207
0.0801047
0.0192235
0.0143676
0.120114
0.0317646
0.0356902
0.0657316
0.0216397
0.110398
0.0669074
0.0345802
0.0126071
0.040173
0.073648
0.0181384
0.180494
0.015047
0.00908304
0.0104859
0.012423
0.0106095
0.0162984
0.0475722
0.164707
0.0163844
0.0952027
0.00950197
0.00927584
0.0305689
0.177668
0.0151687
0.0376226
0.0263573
0.0474183
0.020992
0.111971
0.0394472
0.100169
0.00928032
0.253297
0.0212307
0.00957387
0.0162595
0.017346
0.0285379
0.270175
0.0306914
0.0380255
0.11443
0.0108653
0.0138787
0.0449477
0.275924
0.026262
0.0270616
0.0527297
0.225875
0.0597681
0.0581412
0.130469
0.267849
0.0389249
0.0105001
0.0707773
0.00951133
0.212328
0.0177062
0.0504006
0.0915343
0.0596763
0.0167753
0.0951216
0.0199449
0.0104968
0.013507
0.0590041
0.127245
0.0152221
0.150162
0.220758
0.0736506
0.00947199
0.0796002
0.132813
0.23255
0.0240737
0.0399206
0.0188151
0.0863413
0.0117658
0.0788342
0.0134743
0.147455
0.0847296
0.119169
0.0288185
0.0141656
0.0508143
0.0092206
0.0358707
0.241447
0.0217011
0.0166326
0.00927599
0.0124805
0.218524
0.0279939
0.0946513
0.192375
0.0158722
0.085232
0.0273025
0.0103275
0.016646
0.0128782
0.0849681
0.0124729
0.0824727
0.0317334
0.0104711
0.110583
0.0100533
0.0101534
0.119866
0.0999704
0.0102754
0.0804521
0.0100549
0.0101257
0.00923678
0.151364
0.132868
0.127022
0.076248
0.0350479
0.0122643
0.0883556
0.00923206
0.211714
0.0829417
0.196404
0.00944869
0.0473791
0.0148073
0.0616704
0.0104387
0.0329742
0.0116163
0.0169241
0.0091962
0.015169
0.015197
0.0129448
0.0932115
0.0130759
0.0978897
0.0723077
0.0204489
0.0115446
0.0298461
0.00989804
0.036962
0.0839512
0.0120276
0.045386
0.0874959
0.0937825
0.0408136
0.0100809
0.0393208
0.0435361
0.0108078
0.0437867
0.179414
0.0117797
0.145986
0.108738
0.00932483
0.0168214
0.167064
0.0256597
0.0229947
0.0105091
0.00938895
0.174356
0.00933867
0.00924691
0.00976546
0.0195479
0.0163428
0.0406148
0.0103662
0.109691
0.0117222
0.0164099
0.0091245
0.0103983
0.0268043
0.075931
0.177527
0.11283
0.0119314
0.213833
0.0651037
0.0908168
0.0104612
0.0103325
0.0138109
0.0759692
0.0349219
0.114924
0.0975736
0.0113745
0.0407567
0.0114879
0.0447894
0.113909
0.0668875
0.0349583
0.009747
0.00914013
0.00916892
0.0119611
0.0449405
0.0211592
0.0104076
0.011651
0.0112878
0.0757577
0.191567
0.0136449
0.100645
0.131326
0.0111793
0.0151659
0.0784477
0.00993164
0.0106829
0.0092848
0.00984985
0.126254
0.0128875
0.00956379
0.0861825
0.00923864
0.00970152
0.019178
0.021794
0.013095
0.0153113
0.0684764
0.15111
0.113609
0.0397883
0.0730732
0.121416
0.0561197
0.0290697
0.0214788
0.00927778
0.0131192
0.0200249
0.0134883
0.0135882
0.128004
0.038622
0.0839511
0.108
0.119498
0.0114485
0.0406427
0.0119571
0.212787
0.0211664
0.110623
0.0105897
0.101824
0.0683876
0.0328727
0.00919439
0.219782
0.078698
0.0184267
0.152544
0.0213981
0.0276502
0.0197679
0.0428601
0.0441363
0.0118303
0.0933858
0.00924471
0.0380375
0.0686733
0.0696597
0.00944475
0.00956143
0.0888852
0.0205786
0.0392657
0.00930507
0.00938413
0.0956916
0.0205612
0.0156725
0.0145235
0.0122073
0.183666
0.18228
0.0208565
0.00970127
0.0092841
0.122075
0.0102723
0.0335266
0.00958282
0.00973014
0.00930216
0.00978904
0.00995503
0.0432573
0.00938406
0.0675138
0.0107786
0.0337641
0.0126777
0.00974617
0.015586
0.0154305
0.108834
0.131451
0.195314
0.0100804
0.00906436
0.017009
0.0217554
0.128182
0.195547
0.0275381
0.0134879
0.00951411
0.0131742
0.0186092
0.00905259
0.0188073
0.133334
0.0235398
0.0769987
0.136532
0.0127439
0.0428427
0.0159528
0.217302
0.00951588
0.00934317
0.00947721
0.0477356
0.012754
0.00998547
0.0239013
0.0092657
0.0432818
0.0101299
0.0144658
0.190676
0.00948387
0.0262068
0.0929695
0.0428647
0.0106243
0.0213915
0.0538233
0.194812
0.00979367
0.0220334
0.0118978
0.0227563
0.123719
0.0171931
0.188323
0.011278
0.0172018
0.0104377
0.0877149
0.0320018
0.0395517
0.12
0.00911392
0.00973704
0.220124
0.0112956
0.00926752
0.114367
0.0659298
0.0815727
0.0128162
0.00942709
0.22338
0.0883881
0.0838897
0.0282464
0.00931052
0.163142
0.0125605
0.0130912
0.00947111
0.11565
0.0107687
0.161612
0.0114035
0.19674
0.0760121
0.012933
0.074232
0.215134
0.120013
0.0860608
0.0811776
0.0150462
0.0893593
0.0705576
0.0124868
0.0101089
0.137627
0.0333299
0.0922783
0.0100006
0.0838656
0.0104139
0.0861606
0.0225817
0.00965505
0.0909097
0.00986193
0.119591
0.245382
0.014611
0.00942889
0.0194047
0.0228627
0.00948362
0.0747854
0.0108138
0.0760998
0.00981196
0.0231696
0.150677
0.0134936
0.0859162
0.140497
0.0151976
0.112832
0.0181151
0.00937485
0.0209884
0.0838358
0.00960592
0.0493841
0.00910119
0.00945113
0.00937767
0.00949618
0.105776
0.0890792
0.00950282
0.0113797
0.143436
0.0114929
0.00934594
0.00977933
0.00935106
0.0284272
0.214457
0.00971581
0.0348177
0.0124053
0.03905
0.12968
0.00928772
0.044854
0.0184989
0.00923066
0.0158341
0.253975
0.190618
0.00966403
0.010509
0.00920606
0.0133716
0.0495053
0.0142702
0.00985554
0.175869
0.00945317
0.0159649
0.114924
0.070411
0.0170273
0.0162854
0.0188299
0.024416
0.0361303
0.00910578
0.0433405
0.0099573
0.0103027
0.00919176
0.00975471
0.105259
0.011552
0.143013
0.104865
0.0699422
0.0105755
0.0190694
0.0344237
0.0100226
0.0100645
0.0136605
0.0101546
0.125462
0.0103843
0.0139687
0.00959367
0.0274215
0.0155368
0.00966125
0.0297245
0.116665
0.0891777
0.123364
0.20519
0.133016
0.0194867
0.0175433
0.231127
0.202773
0.00911159
0.075709
0.118747
0.0145014
0.0320514
0.0185055
0.122946
0.083591
0.0282614
0.0102492
0.0142586
0.134236
0.164033
0.0609461
0.155004
0.0195208
0.156755
0.0347977
0.00947693
0.00975553
0.110852
0.0382134
0.132239
0.175463
0.00966356
0.225691
0.0105673
0.0948821
0.0126276
0.0161156
0.199292
0.0831689
0.0141221
0.122506
0.0109941
0.0870974
0.0345563
0.00930617
0.126718
0.186693
0.0958906
0.0193263
0.0368582
0.0911656
0.0536047
0.153796
0.00926674
0.143674
0.0108463
0.0160261
0.0105461
0.232434
0.0151702
0.0481838
0.0129364
0.0940054
0.0141219
0.0125296
0.125973
0.00910652
0.0306294
0.0252668
0.136987
0.0806348
0.0094
0.0208768
0.142131
0.0296254
0.07715
0.160215
0.00957632
0.0121301
0.0211464
0.0100944
0.00972202
0.0103407
0.021293
0.099481
0.107954
0.00953075
0.0124994
0.0274204
0.0211606
0.0591872
0.0152957
0.0112327
0.0389945
0.036922
0.124464
0.0491292
0.125683
0.0130438
0.00998751
0.0470416
0.0383048
0.225545
0.0561778
0.0870848
0.00977642
0.00967599
0.0127096
0.0116832
0.0566518
0.0163618
0.0189256
0.198675
0.0096233
0.0997253
0.0173595
0.173381
0.0101972
0.0106062
0.0124644
0.0289589
0.0142331
0.0144328
0.00924555
0.114296
0.0820166
0.158368
0.00977868
0.0130894
0.0181296
0.0125395
0.293593
0.0397258
0.0486488
0.00985328
0.0213959
0.0147922
0.0349374
0.0093557
0.191823
0.0488895
0.0124007
0.134882
0.10508
0.0693434
0.201777
0.0438682
0.0101079
0.067817
0.224791
0.0333822
0.120118
0.037422
0.00998357
0.00909709
0.0100656
0.0116239
0.00976956
0.023219
0.126653
0.00998776
0.0217967
0.0512828
0.037602
0.011275
0.0290157
0.0660581
0.0135441
0.117137
0.0479215
0.04006
0.0673703
0.0128749
0.0462154
0.0230267
0.135921
0.172021
0.0781753
0.207405
0.02143
0.0121929
0.021382
0.0405899
0.0175772
0.0131693
0.183486
0.0118032
0.0103839
0.104268
0.193935
0.0270279
0.0326861
0.161993
0.0116731
0.185171
0.00972788
0.0127291
0.0223413
0.012659
0.0124528
0.0380348
0.00932772
0.261901
0.128496
0.036077
0.03711
0.226461
0.0153225
0.0132033
0.00971778
0.0104419
0.0578667
0.0127027
0.00910117
0.0448424
0.0890242
0.0106119
0.0387871
0.115409
0.0113869
0.00970547
0.0122218
0.0433451
0.0217225
0.0344593
0.0478541
0.035687
0.0398695
0.0204494
0.0770804
0.0115438
0.00955085
0.00947377
0.0171627
0.0314315
0.0232911
0.119658
0.0816498
0.023331
0.0171349
0.0194647
0.00923327
0.0137331
0.0091066
0.00919247
0.266677
0.0279301
0.00959374
0.182634
0.0169204
0.0132393
0.158647
0.0133229
0.0096669
0.0363075
0.00973945
0.0092455
0.00988457
0.0722798
0.0104825
0.105819
0.0324943
0.010125
0.154813
0.0876106
0.0810445
0.0254579
0.110202
0.0134475
0.0100419
0.0100076
0.0126879
0.0488048
0.081123
0.0124916
0.0116429
0.027214
0.0484361
0.012798
0.00946431
0.00940058
0.129139
0.00943075
0.0423798
0.0529335
0.125793
0.079644
0.0479186
0.00975621
0.101596
0.0106789
0.0103784
0.0106714
0.00938084
0.0103878
0.00945785
0.0097728
0.00924097
0.00968396
0.0195886
0.0248259
0.114808
0.0926051
0.0115347
0.0220039
0.127157
0.0109339
0.0334171
0.0091938
0.00917911
0.00935474
0.0142794
0.0462694
0.00956924
0.147052
0.0401281
0.00937753
0.0809484
0.00958111
0.12424
0.0544888
0.0109521
0.0601981
0.115134
0.0108928
0.0119788
0.0141992
0.117911
0.00981962
0.127419
0.0433034
0.066599
0.0732236
0.0402145
0.00916099
0.0736926
0.0130114
0.0107425
0.0310954
0.00922736
0.00912409
0.0280957
0.00908015
0.00984844
0.0654956
0.00920807
0.0866937
0.120098
0.0103716
0.0118168
0.109084
0.00956088
0.0329336
0.0540902
0.00999402
0.220486
0.0108132
0.00981303
0.0290272
0.159019
0.0943812
0.0404067
0.0939957
0.0189783
0.0210831
0.0367314
0.205697
0.0322902
0.0105167
0.0117745
0.0092813
0.00954448
0.0480524
0.0120717
0.009507
0.0318289
0.0160526
0.12873
0.0264072
0.0123603
0.00920868
0.0708654
0.0119617
0.0454749
0.0294412
0.188272
0.0258557
0.0494516
0.115625
0.0232732
0.109971
0.0114271
0.0337924
0.0094073
0.100889
0.00910847
0.0412436
0.0879793
0.0409931
0.0165269
0.180044
0.0112343
0.0134913
0.0877871
0.249179
0.09715
0.00908932
0.0143588
0.00984594
0.0375786
0.0981553
0.0144434
0.157431
0.0322914
0.00940839
0.0148653
0.0872261
0.0163096
0.17925
0.0490905
0.0130957
0.00922894
0.129034
0.0128447
0.0238168
0.108071
0.0112355
0.0118793
0.00911691
0.015009
0.0385824
0.108114
0.0108334
0.014727
0.181119
0.116965
0.0934972
0.0105029
0.0424233
0.0110597
0.0897422
0.0099887
0.147476
0.0191533
0.0259928
0.0108421
0.00939351
0.0186805
0.0162566
0.156457
0.129347
0.0138985
0.0179975
0.173024
0.14651
0.010803
0.014236
0.0112247
0.0353394
0.0175192
0.0110881
0.0101515
0.0755621
0.047518
0.0723665
0.0156036
0.0518243
0.128462
0.14214
0.0097517
0.0325783
0.0420574
0.0112818
0.0113969
0.147524
0.010785
0.00971172
0.109517
0.193077
0.0100202
0.00932303
0.161074
0.244308
0.00951283
0.0371512
0.203209
0.0635023
0.00947256
0.0101777
0.00975713
0.0169456
0.0112506
0.175791
0.125057
0.00944461
0.00989197
0.0375407
0.01285
0.0895797
0.0850993
0.0961
0.0134608
0.236253
0.0134815
0.0171225
0.0425313
0.0775738
0.2077
0.00926995
0.0093237
0.0266979
0.00952003
0.0338362
0.0139249
0.105325
0.0784035
0.242788
0.0338331
0.0158828
0.0368339
0.0871309
0.0461984
0.0272533
0.015551
0.0408309
0.0129549
0.0102795
0.0337521
0.0859004
0.169405
0.0108482
0.149897
0.0261251
0.0235446
0.0478664
0.184656
0.0150993
0.0735396
0.230126
0.201563
0.0188679
0.00945137
0.0208807
0.0201077
0.0518371
0.0327806
0.142365
0.123044
0.112845
0.00927383
0.0376364
0.0154578
0.0334093
0.0334567
0.0194314
0.188442
0.0255741
0.184595
0.0112973
0.0325528
0.162744
0.00932766
0.0420568
0.020573
0.0476644
0.085939
0.1689
0.0145164
0.107609
0.00940766
0.00923121
0.0224955
0.0675141
0.149976
0.0111753
0.111065
0.0108187
0.0109373
0.0097805
0.0868368
0.0116808
0.0110083
0.0120631
0.011291
0.175214
0.100465
0.0102314
0.0331636
0.0733905
0.00922388
0.0232882
0.0212679
0.0411529
0.138549
0.218833
0.0949681
0.0117052
0.0105647
0.0238576
0.17072
0.128359
0.0144471
0.0258515
0.0674266
0.00923355
0.0118319
0.0111075
0.0103666
0.00930127
0.0121646
0.0167229
0.0297101
0.0268472
0.0292689
0.0596196
0.0756568
0.0091638
0.0189812
0.125896
0.0822049
0.00995584
0.101277
0.0146948
0.0401563
0.010666
0.0145925
0.0285645
0.00956677
0.0102322
0.0111527
0.0941748
0.131098
0.00981551
0.00911849
0.195615
0.0496358
0.0243539
0.00970885
0.0177574
0.245456
0.0343457
0.0173926
0.0518779
0.00978366
0.0281424
0.200869
0.0234873
0.164513
0.0436101
0.22382
0.0124112
0.0140702
0.00973262
0.20158
0.082657
0.0503065
0.0129938
0.092716
0.0888753
0.0454081
0.00948167
0.12707
0.00911443
0.0144038
0.0715043
0.0719035
0.126383
0.0112614
0.00937947
0.015343
0.0233941
0.0389529
0.0369869
0.0404224
0.16341
0.147454
0.136137
0.0443994
0.00923409
0.131813
0.259861
0.0878485
0.174576
0.0122986
0.165407
0.0106877
0.00924573
0.0164503
0.0694138
0.00970902
0.125381
0.0701586
0.00930528
0.0115667
0.0251323
0.00987198
0.0105996
0.194241
0.0209156
0.0123613
0.00958685
0.0441088
0.0126675
0.00951994
0.0350806
0.110025
0.150106
0.0339509
0.00936938
0.135955
0.0506575
0.0112665
0.121421
0.148194
0.0384356
0.0879784
0.0645119
0.187726
0.0960695
0.129028
0.206267
0.120087
0.209144
0.0341189
0.0549903
0.00938585
0.218769
0.00976997
0.0212822
0.0143912
0.0295826
0.0117284
0.130459
0.0117172
0.0106192
0.0414625
0.00919087
0.0216533
0.250858
0.0257851
0.0488194
0.155371
0.137612
0.0175647
0.0428723
0.178694
0.0140497
0.0168208
0.0093121
0.0108525
0.103541
0.0270761
0.0486075
0.0127406
0.0176465
0.0172269
0.0101273
0.0434983
0.0127124
0.0200842
0.0116646
0.0352413
0.0331066
0.025596
0.0467393
0.00938127
0.0177395
0.093433
0.0173481
0.0973042
0.18863
0.0849265
0.0169999
0.0165471
0.00920789
0.0125256
0.0275863
0.0565875
0.0302133
0.222701
0.184843
0.120387
0.0790649
0.107796
0.0116599
0.10674
0.0267398
0.149244
0.156736
0.00923558
0.0841777
0.0113716
0.0222272
0.0102263
0.121021
0.104241
0.0231115
0.0142732
0.205326
0.0196204
0.077908
0.03337
0.00958741
0.0139603
0.00954319
0.0388691
0.0406008
0.0465067
0.0758509
0.120536
0.0947603
0.154073
0.0324813
0.0101122
0.0571942
0.0798194
0.0419314
0.0150781
0.0122719
0.0813837
0.0200642
0.177835
0.0683828
0.0139777
0.102209
0.0520655
0.0439446
0.0255182
0.036996
0.0142385
0.0433279
0.0359863
0.0107389
0.0311342
0.0109271
0.185586
0.199462
0.0233543
0.0375977
0.014268
0.0325508
0.0393572
0.211542
0.0190771
0.0225386
0.015105
0.0447784
0.115499
0.0815348
0.102226
0.0242787
0.0710988
0.0344256
0.186487
0.0265788
0.111259
0.0517514
0.00978747
0.0834242
0.0141978
0.0120361
0.115181
0.160318
0.026685
0.20059
0.0132853
0.0107894
0.0501554
0.0136187
0.0373916
0.0268923
0.164151
0.033093
0.0253516
0.00916391
0.224958
0.0114057
0.0222226
0.0525127
0.0198724
0.121778
0.0105896
0.156677
0.0131645
0.0245698
0.0160746
0.0214225
0.111725
0.183188
0.00949777
0.00963194
0.115127
0.032941
0.13843
0.0240673
0.0768756
0.202491
0.0400853
0.0142169
0.0473356
0.00952655
0.0279342
0.0183426
0.134272
0.00932903
0.161626
0.0587512
0.00979427
0.00942598
0.0206442
0.177479
0.105342
0.00917476
0.00923071
0.0134856
0.0151517
0.0122388
0.263186
0.0192701
0.0146624
0.0192034
0.086284
0.0221802
0.00977006
0.0192828
0.0103086
0.00921995
0.0823862
0.0134443
0.111634
0.0123553
0.0420794
0.0178
0.0133696
0.0105205
0.00964963
0.126364
0.00913264
0.0813418
0.166014
0.0221041
0.0966501
0.0130359
0.204175
0.0959651
0.0972148
0.0504733
0.0210771
0.133729
0.14406
0.0171701
0.039952
0.00969674
0.0370375
0.217305
0.0493656
0.116871
0.0314509
0.0124628
0.0830722
0.0129314
0.00973986
0.0120121
0.0110498
0.00970849
0.0123763
0.0098098
0.0157737
0.104754
0.233085
0.0169395
0.211721
0.0271884
0.0260698
0.0526357
0.00928627
0.0231744
0.117914
0.00910125
0.0980837
0.041443
0.0779267
0.0202803
0.0092295
0.0589277
0.0353808
0.108861
0.0226387
0.0263714
0.0474721
0.0158155
0.252108
0.178337
0.00959667
0.0228834
0.0103076
0.0350035
0.277694
0.00919712
0.0700175
0.00910091
0.01163
0.131582
0.0138073
0.0108448
0.12935
0.106155
0.00917491
0.0382708
0.171915
0.0138305
0.0882837
0.173898
0.0402975
0.00964641
0.00931714
0.014686
0.0103303
0.0156083
0.00959239
0.0306966
0.0354889
0.00984371
0.0148467
0.214802
0.121546
0.0239853
0.0104964
0.0279911
0.202456
0.174109
0.0159486
0.117946
0.0145346
0.010791
0.00926119
0.113913
0.0535735
0.00975671
0.0265938
0.0135493
0.017502
0.079642
0.157587
0.0100638
0.170143
0.0727043
0.135632
0.107128
0.010849
0.00932503
0.0154464
0.032943
0.0436233
0.0433493
0.0106472
0.0123251
0.0919427
0.00923902
0.0110589
0.0116597
0.149515
0.0242732
0.173925
0.0441249
0.103076
0.0122252
0.016582
0.0117583
0.158167
0.0507588
0.071645
0.226391
0.0135652
0.179196
0.08455
0.0101926
0.0115409
0.00923262
0.122528
0.03451
0.0888215
0.00937163
0.0120145
0.0108492
0.00999295
0.10792
0.0165325
0.0275982
0.00928678
0.0105407
0.0107402
0.0117264
0.00925962
0.207814
0.109491
0.0291985
0.00914487
0.0154803
0.110382
0.00982539
0.0756254
0.0251232
0.0180696
0.0495863
0.0629744
0.0788339
0.229977
0.0132617
0.0172327
0.0811737
0.0255497
0.214565
0.0129064
0.00943159
0.190943
0.027186
0.0232836
0.0111062
0.108104
0.220197
0.136964
0.0677186
0.0754004
0.178083
0.158343
0.209755
0.0498138
0.0109413
0.0161288
0.0118171
0.0229172
0.205907
0.0129515
0.0257846
0.248463
0.226533
0.150489
0.0438401
0.118971
0.0124257
0.015573
0.0092101
0.0143593
0.112221
0.0512465
0.0131444
0.00952891
0.0153836
0.0119883
0.0100446
0.0916518
0.0332474
0.0143258
0.0112259
0.258559
0.0240692
0.0339163
0.0236554
0.0289925
0.00967086
0.08243
0.133985
0.198076
0.0404633
0.00913541
0.00920486
0.0123663
0.0827646
0.0346996
0.0899943
0.0396
0.0107547
0.109748
0.0823607
0.00985802
0.0141827
0.0127467
0.0113628
0.0461056
0.0696151
0.0150948
0.0370668
0.0244871
0.0167261
0.0190966
0.00979693
0.0526711
0.0173258
0.225314
0.134254
0.224135
0.0444084
0.0266634
0.0388056
0.0961719
0.0154325
0.100132
0.0787291
0.199259
0.0267219
0.00960888
0.0106289
0.204544
0.0887347
0.0932439
0.172615
0.092422
0.0096456
0.00926872
0.165916
0.122087
0.0802523
0.00944451
0.00925442
0.0157896
0.0421026
0.0135336
0.0167652
0.0403695
0.118716
0.00907963
0.0171494
0.0167426
0.0249373
0.0151925
0.0102146
0.0559812
0.0245857
0.0659233
0.0103751
0.0112003
0.00984814
0.24069
0.00993845
0.17725
0.0128624
0.0135653
0.0109299
0.011439
0.0848412
0.183933
0.0902477
0.00945434
0.00952695
0.0216662
0.0107199
0.149102
0.0427492
0.011523
0.00987093
0.0311709
0.122495
0.0215462
0.0318143
0.0107996
0.0101539
0.0103899
0.00976337
0.0145534
0.0159752
0.0462395
0.0103255
0.0102194
0.0150164
0.0450477
0.144433
0.201666
0.056748
0.0343238
0.00967381
0.00963609
0.161061
0.0306402
0.0181848
0.0190907
0.041596
0.0117822
0.0162752
0.0194717
0.00918478
0.0364905
0.0198837
0.0965509
0.0295363
0.0164819
0.193193
0.0246177
0.0135024
0.0179426
0.0122738
0.00951672
0.155107
0.0108196
0.0502757
0.0101884
0.0573511
0.0102848
0.0240091
0.0436195
0.0256853
0.185229
0.0249775
0.102924
0.121558
0.0162413
0.167036
0.0098707
0.0119988
0.00974928
0.094697
0.0377799
0.182427
0.0193106
0.125029
0.0433805
0.0125871
0.0115994
0.00987962
0.0144214
0.0128586
0.00947016
0.0125787
0.0118153
0.0123281
0.10922
0.037777
0.00918831
0.00932329
0.0753619
0.0148223
0.0108208
0.0101529
0.18383
0.0179788
0.181113
0.00935384
0.166171
0.117013
0.0278419
0.0199194
0.0169002
0.0302224
0.156124
0.0106602
0.151794
0.165041
0.01429
0.0819472
0.0481604
0.0211577
0.0122472
0.204364
0.076542
0.131133
0.0099372
0.0109198
0.0700598
0.0133309
0.0443501
0.0782061
0.00958349
0.142118
0.0185828
0.0126711
0.00995309
0.0128422
0.00978219
0.00980577
0.0249964
0.00906557
0.014654
0.00979313
0.0333285
0.0381268
0.00937491
0.0529181
0.0127978
0.0148931
0.0119696
0.0143915
0.00942886
0.0166969
0.108316
0.0120093
0.00927922
0.0766741
0.0256796
0.00921428
0.226593
0.0118387
0.010121
0.043129
0.0228987
0.093794
0.0317649
0.0100637
0.013091
0.0425091
0.0789375
0.0800105
0.0224574
0.111568
0.117336
0.172984
0.0181057
0.0101914
0.00930275
0.0192247
0.0154801
0.0162202
0.0743075
0.0322478
0.00963217
0.00937632
0.00912739
0.0092377
0.148459
0.24341
0.204429
0.0645819
0.0118909
0.00965706
0.00935267
0.0461233
0.0130371
0.0109157
0.209909
0.00920729
0.0113652
0.00990476
0.00945004
0.0618995
0.0840136
0.0274281
0.102234
0.0124768
0.0156348
0.0373322
0.0134808
0.0435132
0.0720954
0.0382159
0.00922242
0.0480687
0.0223398
0.0099448
0.0250263
0.11453
0.0104639
0.0092248
0.0863586
0.117182
0.0457971
0.0962897
0.00964357
0.0242718
0.0949741
0.00937138
0.00934827
0.0107649
0.0228621
0.0108385
0.0124714
0.0113565
0.0166206
0.048551
0.0149215
0.0646387
0.055583
0.0853076
0.00977275
0.0284567
0.0107526
0.0181828
0.0434872
0.0362007
0.203425
0.035573
0.214485
0.0448947
0.0157373
0.0145861
0.0104727
0.0134483
0.129107
0.105503
0.0108946
0.0543187
0.0791978
0.0223422
0.10574
0.00992774
0.0182809
0.0125818
0.0279472
0.0110851
0.0261756
0.012058
0.122732
0.00999495
0.125492
0.131179
0.0682122
0.0198865
0.0255568
0.00918342
0.131501
0.00930296
0.013841
0.0361728
0.0520764
0.0469122
0.115594
0.0872397
0.113516
0.0703958
0.009301
0.0897107
0.0130467
0.0764648
0.22983
0.0416923
0.1098
0.23116
0.193562
0.0159925
0.028428
0.0101024
0.0737949
0.0091604
0.130761
0.0300807
0.0759988
0.0132333
0.0113485
0.208317
0.0194211
0.0117388
0.0119131
0.0174083
0.0218544
0.0103042
0.0121306
0.0107396
0.0174612
0.140422
0.0467062
0.0896448
0.0135341
0.150082
0.0458432
0.0141189
0.057616
0.0341735
0.203228
0.0279833
0.0344265
0.00967495
0.0210343
0.011329
0.0173348
0.0109275
0.0209311
0.00917165
0.0815127
0.0816492
0.0134887
0.0111014
0.0175616
0.0141833
0.0111262
0.0130169
0.0154424
0.125011
0.0143562
0.00928095
0.132825
0.0237716
0.127567
0.0200283
0.0667646
0.108576
0.0132485
0.11208
0.147365
0.19214
0.139486
0.120706
0.010295
0.0229138
0.00943896
0.0208823
0.0744421
0.0112614
0.00928396
0.0112192
0.201605
0.0166346
0.0312978
0.02928
0.0127377
0.176987
0.132598
0.0164443
0.134927
0.00945264
0.102348
0.023293
0.064875
0.00912057
0.00917154
0.0118257
0.112025
0.1964
0.122244
0.0131781
0.0762206
0.278577
0.0285874
0.0451137
0.169388
0.0398316
0.102109
0.0225226
0.015694
0.0096373
0.0126215
0.253279
0.0331085
0.17045
0.00933009
0.0134859
0.0253948
0.0117709
0.0428277
0.0320509
0.168881
0.0154828
0.0360663
0.00933738
0.00935433
0.0818765
0.236193
0.0103601
0.0117807
0.00966685
0.0691979
0.0172371
0.190761
0.133033
0.102702
0.0102309
0.140198
0.0311034
0.222455
0.0987715
0.015569
0.0865603
0.127366
0.13341
0.0150948
0.012466
0.00962373
0.0860508
0.0187331
0.0110006
0.028338
0.0260855
0.0130848
0.00966653
0.00988039
0.196809
0.0131633
0.0265578
0.0657884
0.130092
0.00955728
0.010027
0.0390892
0.0138384
0.227896
0.0301245
0.0218293
0.215812
0.0124885
0.0112452
0.0157915
0.0883757
0.0098428
0.0937761
0.00925037
0.0809324
0.20426
0.00992055
0.0112897
0.0716485
0.0151165
0.010866
0.0105933
0.00980356
0.0779239
0.150402
0.0104206
0.0152364
0.0168663
0.0116258
0.0834637
0.0183877
0.0797319
0.070468
0.012323
0.00926156
0.0372783
0.0129733
0.0244827
0.119273
0.0936685
0.00988964
0.0128239
0.0981546
0.135515
0.0492681
0.0158375
0.0158558
0.18695
0.0462548
0.0117633
0.0101849
0.012005
0.0148516
0.0300628
0.00924384
0.0156587
0.0106416
0.0466063
0.162015
0.204888
0.0239513
0.0356362
0.0137127
0.0124273
0.0101656
0.0113514
0.00961786
0.0114112
0.0134223
0.010162
0.0360187
0.011959
0.0118019
0.0408997
0.0111111
0.0413817
0.160518
0.0252544
0.018102
0.0201728
0.0251414
0.0212431
0.0434141
0.0965138
0.0164999
0.0120886
0.0149705
0.0266306
0.149355
0.0111375
0.0361361
0.188821
0.0170792
0.130398
0.0263215
0.0139402
0.0166341
0.0195756
0.0318063
0.116522
0.173867
0.133756
0.00928494
0.0989007
0.0125955
0.0113366
0.113434
0.00908106
0.0413942
0.0094549
0.0254968
0.0253553
0.0579721
0.00903519
0.010139
0.231748
0.0115896
0.115724
0.240904
0.0167188
0.0705622
0.0108801
0.0110421
0.00963937
0.0360348
0.0506615
0.015707
0.0115762
0.0163198
0.0917706
0.153655
0.0245111
0.0134082
0.0281161
0.00937715
0.0501379
0.0404335
0.0126304
0.0110571
0.0118662
0.0431998
0.0323219
0.045237
0.0215095
0.0159308
0.0294225
0.035485
0.119706
0.0148086
0.0176239
0.0135243
0.0102544
0.0164668
0.00970013
0.109766
0.0253658
0.0605353
0.093135
0.0134996
0.0539815
0.00930997
0.0101922
0.017444
0.190662
0.0392381
0.0135121
0.0101669
0.0777197
0.0110403
0.0526251
0.0220238
0.0518415
0.0316587
0.0143277
0.0120395
0.23177
0.017833
0.0114015
0.0115328
0.0418126
0.0143743
0.0124676
0.139904
0.00911399
0.107023
0.0165071
0.0101547
0.0111884
0.0259632
0.0408747
0.0577121
0.0882803
0.137017
0.0104509
0.0106948
0.137604
0.112758
0.0162643
0.017209
0.0827692
0.0346017
0.017604
0.0180577
0.0158921
0.195272
0.0134547
0.0378133
0.107326
0.0109667
0.0800729
0.0474119
0.190692
0.104576
0.0494775
0.0873659
0.0236822
0.0779948
0.0267248
0.12598
0.163969
0.0250485
0.151239
0.0761532
0.0167373
0.168512
0.0146203
0.0873555
0.0662388
0.0815747
0.00983383
0.138178
0.129755
0.0193925
0.0132302
0.0215795
0.0896536
0.017432
0.047275
0.0241633
0.0717015
0.0383698
0.0091416
0.0409602
0.00988322
0.0156171
0.0216721
0.0107297
0.237059
0.0223376
0.0280792
0.0136799
0.146556
0.0280587
0.228196
0.0401172
0.0409329
0.0103908
0.0117489
0.0322891
0.0142526
0.0211668
0.00927461
0.0117254
0.0496582
0.00916107
0.0649893
0.0126373
0.018939
0.0763078
0.0151631
0.0678234
0.0105833
0.0136821
0.0717112
0.0201853
0.025686
0.203071
0.011989
0.199485
0.0987642
0.0304835
0.0132584
0.0178382
0.102783
0.010403
0.0118815
0.035846
0.0754845
0.0462848
0.13328
0.0151814
0.0447548
0.0192826
0.0434091
0.00936433
0.0158248
0.131437
0.0182632
0.00933526
0.0422269
0.253195
0.0719398
0.015751
0.0804465
0.0454708
0.0748509
0.0162561
0.0460802
0.0884074
0.0920099
0.00965319
0.177439
0.0131021
0.143149
0.0107152
0.0372334
0.0132896
0.119673
0.0158216
0.00999835
0.0111497
0.00998043
0.036206
0.2133
0.206843
0.0341006
0.249149
0.0123732
0.123055
0.0100448
0.0156861
0.0232489
0.011127
0.156637
0.0750411
0.0806204
0.0147407
0.13116
0.0145196
0.0415762
0.0176538
0.0739048
0.12118
0.141174
0.0129985
0.0845437
0.0117181
0.0240675
0.023646
0.0917464
0.0939173
0.0282368
0.0349081
0.0924643
0.00970537
0.0118119
0.0494631
0.0400881
0.0165077
0.0128323
0.0112686
0.00996462
0.00998827
0.0360527
0.0510938
0.0100391
0.235016
0.142729
0.0211136
0.0135967
0.009279
0.141736
0.0988707
0.0092099
0.0392404
0.00911066
0.116395
0.00928959
0.00992859
0.012071
0.0775568
0.0487253
0.14993
0.186357
0.0267162
0.201091
0.0221876
0.0777622
0.0241289
0.0189867
0.0113922
0.16649
0.240463
0.0115579
0.021659
0.124325
0.0120678
0.0118564
0.127117
0.212641
0.215182
0.123184
0.0579904
0.190144
0.0454757
0.0093895
0.124832
0.179369
0.0266367
0.0133128
0.0104276
0.0149306
0.0384043
0.259015
0.00989183
0.122274
0.0106892
0.118849
0.0356817
0.0233003
0.0360895
0.0287794
0.168855
0.0103061
0.0110562
0.00951736
0.19439
0.0272828
0.0868653
0.0370593
0.0641057
0.167376
0.0324196
0.0305057
0.0260038
0.0541634
0.0160256
0.0862559
0.131327
0.0983897
0.0221781
0.0313837
0.0229002
0.13343
0.0296128
0.180195
0.253087
0.017879
0.0104488
0.0924469
0.114489
0.0438813
0.0104175
0.0267208
0.0122964
0.0240596
0.0178356
0.0129222
0.0150339
0.00945384
0.0806213
0.209488
0.0227897
0.00929687
0.00996765
0.040598
0.223993
0.04243
0.0108951
0.0873274
0.038473
0.0286758
0.037423
0.010459
0.0140289
0.00932314
0.135493
0.0197379
0.0108129
0.0134545
0.0106194
0.0265965
0.088696
0.0104089
0.0385092
0.210623
0.00967043
0.00994784
0.0297863
0.0468314
0.0135386
0.0107749
0.0165971
0.00932529
0.0267477
0.0430824
0.114918
0.0857123
0.0115408
0.02132
0.00930799
0.0189894
0.108339
0.122083
0.1082
0.16454
0.07422
0.167905
0.0117565
0.178096
0.0210017
0.0509611
0.00967218
0.129368
0.0129804
0.10873
0.0121453
0.243308
0.0963172
0.0888088
0.00932622
0.00996032
0.0539485
0.0449313
0.219641
0.174323
0.00979688
0.0215347
0.0226638
0.00984992
0.00977502
0.0146061
0.0140529
0.0113303
0.0401337
0.0263716
0.068087
0.0812988
0.174973
0.00952082
0.0712562
0.189926
0.0099765
0.0790292
0.011799
0.178963
0.014705
0.0103053
0.0276582
0.0368162
0.0115613
0.0183923
0.190845
0.0129013
0.00991085
0.102143
0.109666
0.0153784
0.0253858
0.227738
0.0615338
0.0111314
0.0094289
0.0298917
0.0122359
0.0266434
0.0273044
0.00922144
0.00924551
0.0419477
0.0167357
0.0347454
0.0440059
0.0135586
0.0246172
0.216605
0.00924043
0.0255087
0.23924
0.0134677
0.0630007
0.0170317
0.225634
0.0141229
0.033633
0.0216309
0.016102
0.0156475
0.113093
0.0146104
0.0351062
0.0271894
0.174089
0.0144277
0.0434238
0.00981907
0.0216799
0.100247
0.124716
0.0193777
0.126152
0.0682382
0.0295593
0.126818
0.204274
0.042516
0.00985438
0.0199173
0.0101458
0.187828
0.13925
0.20201
0.0108758
0.131661
0.0291289
0.00926758
0.0458487
0.00947542
0.0118291
0.0106017
0.148868
0.0146613
0.0239047
0.217365
0.0342423
0.278826
0.013917
0.0209498
0.14046
0.221578
0.0130488
0.215356
0.00930416
0.0431155
0.137127
0.0109422
0.0610741
0.053679
0.028233
0.0167083
0.028214
0.0112919
0.0252186
0.0107427
0.0089759
0.0230742
0.218397
0.213165
0.112358
0.0648226
0.01359
0.0462047
0.0141415
0.112548
0.0184286