/*--------------------------------*- C++ -*----------------------------------*\
| =========                 |                                                 |
| \\      /  F ield         | OpenFOAM: The Open Source CFD Toolbox           |
|  \\    /   O peration     | Version:  2406                                  |
|   \\  /    A nd           | Website:  www.openfoam.com                      |
|    \\/     M anipulation  |                                                 |
\*---------------------------------------------------------------------------*/
FoamFile
{
    version     2.0;
    format      ascii;
    arch        "LSB;label=32;scalar=64";
    class       volScalarField;
    location    "10";
    object      k;
}
// * * * * * * * * * * * * * * * * * * * * * * * * * * * * * * * * * * * * * //

dimensions      [0 2 -2 0 0 0 0];

internalField   nonuniform List<scalar> 
59516
(
0.00732243
0.00784367
0.00773327
0.00850862
0.00938386
0.0174859
0.00806213
0.00734087
0.00763704
0.00988982
0.00927315
0.00824352
0.007199
0.0193547
0.00849018
0.00859182
0.0091612
0.00839142
0.00746628
0.00876758
0.0103796
0.00850207
0.00855328
0.0116257
0.00875157
0.00808852
0.0113261
0.0112541
0.00848867
0.0160488
0.00842118
0.0109802
0.00836261
0.0078636
0.00864772
0.0081412
0.0159144
0.00809855
0.00722235
0.00870118
0.00706594
0.00879683
0.00848497
0.00792941
0.00844769
0.00888644
0.00784181
0.00912037
0.00921926
0.0090514
0.00943721
0.0106338
0.00743827
0.00767688
0.0106549
0.00786824
0.00911663
0.0114545
0.00918775
0.00851957
0.00880039
0.0155583
0.00910291
0.00900314
0.00803806
0.00879333
0.0188607
0.0107389
0.00853938
0.00834042
0.014453
0.00906436
0.0160562
0.00834738
0.00921644
0.00886302
0.00914744
0.00855961
0.0102185
0.0091268
0.011413
0.0089581
0.00856922
0.0160794
0.00890278
0.00904506
0.0110158
0.00824388
0.00857451
0.00744437
0.00918554
0.0085614
0.00903386
0.00871624
0.00909411
0.00940208
0.00880621
0.00857492
0.00846091
0.00857014
0.0114327
0.0164745
0.0155395
0.00847107
0.00834172
0.0088323
0.0118249
0.00780791
0.0074248
0.00849527
0.00827833
0.0142239
0.00867216
0.00782089
0.00879425
0.00727663
0.00822269
0.00858152
0.0147755
0.00862518
0.00921931
0.00923655
0.00891073
0.00915651
0.00862733
0.0072747
0.0156563
0.00853243
0.0118144
0.00920994
0.00929851
0.00731752
0.0147005
0.0083526
0.00708722
0.00762562
0.00793557
0.00759237
0.0112791
0.00775864
0.0106947
0.00923875
0.0158867
0.00833411
0.00920742
0.00829013
0.00830506
0.00776277
0.02104
0.00739968
0.00732425
0.0106584
0.00888236
0.00863995
0.00727447
0.0162518
0.00770694
0.00742076
0.00706505
0.01531
0.00851654
0.00821794
0.0116227
0.0182657
0.00712311
0.00897433
0.00852648
0.00909944
0.0145305
0.00854473
0.00717177
0.00846974
0.00751166
0.00861166
0.00949433
0.00789427
0.00915055
0.0086258
0.00822027
0.0105973
0.00853987
0.0119439
0.0183038
0.00794013
0.0092298
0.00821241
0.0105237
0.0172379
0.00784443
0.00747509
0.00845779
0.00844415
0.00881447
0.00748405
0.00848026
0.0111572
0.00847449
0.0104474
0.00807422
0.00841827
0.0079963
0.00930441
0.00724227
0.0158809
0.00823279
0.00835403
0.00910143
0.00904528
0.0162439
0.00777309
0.00950028
0.0151656
0.00853432
0.0090322
0.00771029
0.00913532
0.00825612
0.0087775
0.00881224
0.00884863
0.00879505
0.0078851
0.00923384
0.0114333
0.00921028
0.00909749
0.0135846
0.0102732
0.00914249
0.00855646
0.00907795
0.00917408
0.00928635
0.0141927
0.0115599
0.0104663
0.00791363
0.00724918
0.00884504
0.00924367
0.009288
0.0160847
0.00826122
0.016669
0.00926876
0.00688108
0.00868003
0.00838998
0.00895751
0.00736437
0.00888148
0.00847348
0.00932562
0.00851533
0.00853347
0.00869369
0.00880013
0.0087862
0.0103292
0.00864837
0.00823887
0.00907303
0.00772701
0.00907765
0.0077989
0.00818577
0.00887191
0.00719649
0.0108306
0.00830683
0.00778351
0.00919985
0.00683882
0.00753241
0.00910211
0.00694515
0.0139605
0.00888922
0.0142985
0.0107311
0.00923071
0.00843039
0.0152278
0.00777304
0.00790838
0.0091773
0.00925001
0.0162336
0.00926512
0.00935504
0.0092064
0.00825055
0.00869526
0.00718234
0.00899885
0.0136431
0.00888802
0.00843302
0.00926178
0.00908683
0.00737584
0.00819582
0.0151477
0.012683
0.00874983
0.0160694
0.00890997
0.00927639
0.0089942
0.00888934
0.00844558
0.00816605
0.00734821
0.0115779
0.00878946
0.00908396
0.00730003
0.00934816
0.00742161
0.0104361
0.00897727
0.00749363
0.00926936
0.00921853
0.00929367
0.00890849
0.00768667
0.00808673
0.00910791
0.00903804
0.00898943
0.00819373
0.0152194
0.00879963
0.0100815
0.0110636
0.00894186
0.00876354
0.00817915
0.00914208
0.00909841
0.00927422
0.00916108
0.0109811
0.00869966
0.00926732
0.00889754
0.009241
0.00923195
0.00840987
0.00804536
0.00884319
0.0086259
0.0075193
0.0121213
0.0112922
0.00723714
0.00870635
0.0131484
0.00741298
0.00781024
0.00776487
0.00932025
0.00858492
0.00800022
0.00883327
0.00890605
0.0110909
0.00844219
0.00882893
0.010338
0.0112828
0.00912759
0.00732444
0.00887371
0.0146715
0.00819735
0.0108845
0.00918967
0.00836143
0.00834547
0.0069786
0.00931229
0.0164764
0.00860208
0.00840069
0.0144374
0.00819516
0.0079479
0.0080872
0.00773512
0.0078144
0.00886488
0.009115
0.00929423
0.00758402
0.00832942
0.00860343
0.00919323
0.00910345
0.00823529
0.00785025
0.00754542
0.00918421
0.00917003
0.0106776
0.00826871
0.00837
0.00860042
0.00886268
0.0166463
0.0147844
0.00811265
0.00918558
0.00929255
0.0111606
0.00934454
0.00674999
0.00930436
0.0091015
0.00914947
0.00924154
0.0091976
0.00716326
0.00931571
0.00812122
0.00904127
0.0074947
0.00892272
0.00921263
0.0084052
0.00853942
0.0101655
0.0116795
0.0145547
0.00923902
0.00918614
0.00835307
0.00820161
0.0110148
0.0152485
0.00787506
0.00874607
0.00921151
0.00869856
0.0081237
0.00917351
0.00802438
0.0138905
0.00799011
0.00862985
0.0137595
0.00889868
0.00743328
0.00848535
0.0158819
0.00920085
0.00912501
0.0093106
0.00690857
0.00902809
0.00918622
0.00792707
0.00929554
0.00754641
0.00914483
0.00855568
0.0152053
0.00927925
0.00778484
0.0104235
0.00691538
0.00895375
0.00796211
0.00723205
0.0151414
0.00923329
0.00775311
0.00891625
0.00789471
0.0105814
0.00836211
0.0149491
0.00907013
0.00967863
0.00916615
0.0103519
0.00767705
0.00733528
0.00987151
0.00924564
0.00930627
0.0165058
0.00898369
0.00933314
0.0113356
0.007979
0.00837786
0.00884967
0.00926174
0.0174301
0.00859678
0.00829967
0.00775514
0.00926596
0.0144916
0.00868583
0.00883131
0.00923245
0.0137784
0.00888184
0.0144484
0.00885521
0.0159111
0.00769621
0.00898392
0.00827965
0.0156622
0.011318
0.00986102
0.00864008
0.0084287
0.00879619
0.00794786
0.00900949
0.00924147
0.013898
0.0069583
0.00880301
0.00918125
0.00852507
0.00926183
0.00921131
0.00816497
0.00938936
0.0095876
0.00920693
0.0109576
0.0162906
0.0085628
0.00930472
0.00837052
0.00812457
0.00910525
0.00913277
0.00893777
0.0082291
0.00939044
0.00787391
0.0145621
0.00851066
0.0104426
0.0142681
0.00848997
0.0101946
0.00837914
0.00929427
0.00777806
0.00831898
0.00912062
0.00725958
0.00922729
0.00918152
0.00920863
0.00933861
0.0104233
0.00898375
0.00920956
0.00900432
0.0123004
0.00903436
0.0091072
0.00904818
0.0091491
0.00740889
0.0151052
0.009131
0.00795626
0.00900928
0.00708737
0.0143487
0.00932767
0.00764895
0.00829655
0.00918658
0.00863184
0.0151092
0.0148852
0.00923856
0.00918186
0.00929613
0.00896045
0.0070194
0.00880885
0.00915323
0.0141788
0.0092993
0.00861016
0.0114262
0.00789272
0.00824746
0.00865439
0.00827006
0.00796626
0.00743457
0.00914011
0.00764657
0.00906287
0.00913408
0.00921905
0.0091948
0.0110547
0.00880261
0.0118812
0.0112843
0.00823716
0.00918512
0.00822429
0.00752786
0.00925115
0.00906032
0.00851777
0.00912686
0.010921
0.00982209
0.0091755
0.00921353
0.00810228
0.00855123
0.00926846
0.00733814
0.0106706
0.00804425
0.0130937
0.016201
0.0150953
0.00805631
0.00842989
0.0167851
0.0151549
0.00929788
0.00999115
0.0111992
0.00874484
0.0074901
0.00835875
0.0117828
0.00842051
0.00776238
0.00913277
0.00857032
0.0117893
0.014724
0.0103933
0.0151559
0.00800254
0.0147844
0.00782954
0.00928527
0.00901198
0.0104386
0.00710891
0.0108078
0.0163353
0.0092173
0.0150375
0.00909547
0.0109757
0.00881945
0.00852592
0.015898
0.00829469
0.00876851
0.0110111
0.00909887
0.00881878
0.00733862
0.00925238
0.0113102
0.0151847
0.0101458
0.00897703
0.00736714
0.00863604
0.00629948
0.0115596
0.00924861
0.0147665
0.008896
0.00844205
0.00918173
0.0161049
0.00829236
0.00700479
0.00857349
0.00961173
0.00931963
0.00875244
0.0107975
0.00924693
0.00896928
0.00774786
0.0115398
0.0100894
0.00924919
0.00810428
0.0117613
0.00735938
0.00831671
0.0144412
0.00919608
0.00957386
0.00782639
0.00914424
0.00921142
0.00903304
0.00789584
0.0103058
0.0108898
0.0091665
0.0094214
0.00781218
0.00803262
0.00721437
0.0084291
0.00907513
0.00751927
0.0070083
0.0122023
0.00815808
0.0124845
0.00880801
0.00907252
0.00701346
0.00697926
0.0159326
0.00724793
0.00902873
0.00924644
0.00919245
0.00950526
0.00892381
0.00714378
0.00971742
0.00820292
0.0176214
0.00920154
0.00900475
0.0084986
0.016406
0.00916245
0.00976491
0.00889352
0.00751475
0.00887539
0.00866786
0.00926928
0.0111268
0.0102782
0.0113834
0.0092698
0.0087594
0.00858571
0.00869949
0.0166948
0.00757675
0.0077443
0.00921469
0.00813434
0.0087842
0.00790855
0.00932012
0.0149414
0.00747535
0.00908984
0.0141626
0.00995251
0.00823156
0.0147785
0.00777966
0.00922095
0.00802061
0.0160016
0.00747826
0.0129436
0.006819
0.00912144
0.00924948
0.00916836
0.00894126
0.00917859
0.00740726
0.0107763
0.00915301
0.00800733
0.00709573
0.00756877
0.00895423
0.00726873
0.00796071
0.00866871
0.0109072
0.00710385
0.0074668
0.00836867
0.00885191
0.00866513
0.00795859
0.0113942
0.0162073
0.00803801
0.0159554
0.00802055
0.00908191
0.00823736
0.00758394
0.00866251
0.00904405
0.0165223
0.00910455
0.00912712
0.00972938
0.015961
0.00791438
0.0071695
0.0145566
0.00891253
0.0155669
0.00922158
0.00881019
0.00829425
0.00889249
0.00881949
0.00731683
0.00927769
0.0169118
0.0112189
0.00742769
0.00779862
0.0160718
0.00873981
0.00875477
0.00903822
0.00918389
0.00736409
0.00888581
0.00924658
0.00758598
0.0104802
0.00906855
0.00716776
0.0117455
0.00895801
0.00936428
0.0089764
0.00709003
0.00779962
0.00720873
0.00721374
0.00776735
0.00738047
0.00796446
0.00771367
0.00916611
0.00918009
0.00958815
0.00820382
0.00760103
0.00797472
0.0115773
0.00935592
0.00783325
0.00832883
0.00810318
0.009249
0.00862842
0.0092017
0.00908265
0.0193015
0.00776916
0.00910381
0.0158778
0.00840987
0.00891218
0.0119511
0.00874682
0.00924931
0.00729233
0.00915409
0.00928452
0.00909219
0.00846692
0.00970156
0.0110382
0.00691622
0.00917015
0.0145395
0.00866574
0.0081053
0.00781081
0.0101125
0.00878715
0.00907723
0.00923329
0.00885176
0.00752986
0.0102484
0.00881284
0.00886627
0.00768943
0.00778117
0.00888776
0.00929423
0.00918721
0.0118382
0.0092729
0.00734013
0.00772412
0.0120661
0.00820282
0.00694665
0.00918759
0.00957666
0.00907661
0.00913125
0.00911107
0.00927577
0.00918304
0.00908943
0.00906755
0.00922856
0.00957658
0.00807407
0.00784762
0.0113641
0.00879642
0.00900682
0.00806759
0.0119148
0.00898262
0.00763604
0.00933042
0.00932803
0.00929087
0.00890562
0.00721886
0.00919144
0.0169537
0.00746423
0.00926332
0.00916514
0.00933142
0.0109003
0.00702632
0.0092012
0.00776619
0.0109713
0.00920808
0.00912401
0.00862278
0.0108295
0.00928221
0.0111787
0.00729298
0.00772016
0.00796454
0.00713597
0.00925525
0.00842886
0.00881119
0.0090671
0.00773727
0.00922912
0.00923442
0.00758815
0.00911382
0.00915905
0.00827815
0.00924044
0.00985347
0.0113831
0.00941674
0.00898268
0.0140553
0.00918106
0.00748237
0.00665413
0.00919897
0.017403
0.00893529
0.00919469
0.00771394
0.0156039
0.0111694
0.00775412
0.0101902
0.00818001
0.00802917
0.00733414
0.0153469
0.00709269
0.00913077
0.00906175
0.0093556
0.00926521
0.00761434
0.00891998
0.00916373
0.00737958
0.00857336
0.0114982
0.00796837
0.00897805
0.00927852
0.00782773
0.00895229
0.00693111
0.00759143
0.0152019
0.00822231
0.00751139
0.0109793
0.00826148
0.0110858
0.00904004
0.00711557
0.00919474
0.0108019
0.00923699
0.00761579
0.00828244
0.00716375
0.00858058
0.0148621
0.00898402
0.00874508
0.00799761
0.0181133
0.0108126
0.00922119
0.00869294
0.00931071
0.00761878
0.00838502
0.00887482
0.0113719
0.00786959
0.00923071
0.00850696
0.00868162
0.0082814
0.0157298
0.0073692
0.0088305
0.00920792
0.011478
0.00877856
0.0075775
0.0129397
0.00896239
0.0089611
0.00913336
0.00883384
0.00744278
0.0131203
0.00896613
0.00855869
0.0158999
0.0105828
0.0100285
0.00895352
0.00746033
0.00900258
0.00861548
0.00918475
0.0137485
0.00823098
0.00787513
0.00890109
0.0092811
0.00803488
0.00872083
0.0117435
0.0114951
0.0089085
0.00846983
0.015062
0.0152066
0.00906934
0.00852146
0.00897904
0.00741781
0.00837929
0.00874958
0.00919323
0.00866748
0.0079759
0.00811201
0.00838557
0.00709581
0.0116833
0.0151791
0.00914703
0.00743739
0.00716259
0.00907114
0.0089509
0.0113585
0.00895544
0.0091932
0.0113959
0.0165921
0.00920373
0.00911599
0.0130837
0.0164064
0.00919609
0.00752478
0.0167358
0.00706423
0.00921508
0.0090215
0.00919951
0.00823961
0.00891795
0.0148852
0.0103951
0.00923068
0.00918989
0.00749549
0.00898367
0.00831574
0.00855007
0.0102717
0.00864763
0.01715
0.00865039
0.00809819
0.0071822
0.00937027
0.0158939
0.00924878
0.00920764
0.00776475
0.00906687
0.00771634
0.00845029
0.0112279
0.00923967
0.0189391
0.00725669
0.00853668
0.00695693
0.00804684
0.00759848
0.00759517
0.00861919
0.00696313
0.00887998
0.00906787
0.00757631
0.00848508
0.0165719
0.00914723
0.0118879
0.00787508
0.00786785
0.00744315
0.0150765
0.00842739
0.0082202
0.0155402
0.0152121
0.00837964
0.00917208
0.0081712
0.00836944
0.00724193
0.00741631
0.0114194
0.0106332
0.0116526
0.0091784
0.00698029
0.00853161
0.00766766
0.0075605
0.0084072
0.0172304
0.00793593
0.0150822
0.00904409
0.0074614
0.0142693
0.00923764
0.00752273
0.00809881
0.00731293
0.00738999
0.0115738
0.00841204
0.011434
0.0092846
0.00935191
0.00830237
0.0070929
0.0117048
0.00891228
0.0111976
0.00907821
0.00904088
0.00914657
0.00937936
0.00892403
0.00908665
0.0089348
0.00898643
0.0120674
0.0108833
0.00907784
0.00706448
0.00859565
0.00926367
0.00797919
0.00822972
0.00725556
0.015217
0.0162982
0.00884392
0.00894975
0.00903667
0.00815757
0.0135908
0.0106629
0.0086478
0.00812327
0.00848009
0.00930005
0.00893604
0.00898528
0.00914868
0.00922591
0.00885915
0.00830518
0.00802763
0.00772696
0.00764494
0.00691224
0.00768634
0.00923484
0.00852987
0.0115797
0.00809901
0.00911827
0.00869847
0.00866468
0.00717061
0.00905964
0.00871608
0.00762792
0.00911329
0.00899159
0.00893839
0.0100238
0.0146164
0.00920631
0.00918993
0.0156759
0.00734174
0.00794339
0.00923075
0.00837564
0.0171029
0.00773113
0.0085403
0.00721588
0.00906185
0.00757367
0.0160379
0.00779883
0.0155102
0.00670581
0.0163798
0.00876204
0.00865171
0.00919255
0.0156937
0.00890321
0.00665145
0.00868835
0.00840138
0.00862054
0.00729683
0.00932048
0.0116001
0.00914312
0.00841944
0.00839597
0.00836098
0.0138765
0.00888177
0.00911431
0.00854459
0.00806213
0.00735139
0.00703627
0.00724813
0.0144909
0.0115217
0.0138079
0.00762957
0.00930793
0.0108642
0.0159161
0.00844108
0.0157375
0.00903404
0.0159355
0.00895948
0.00935479
0.00843968
0.00847499
0.00931593
0.0107377
0.00877478
0.00920316
0.00885484
0.00775898
0.0096842
0.00915204
0.0151519
0.00816957
0.00911021
0.00935562
0.00746684
0.00883895
0.0091315
0.00767937
0.00926204
0.0116201
0.00754957
0.00925139
0.0115349
0.00755563
0.00876582
0.0112479
0.0147513
0.00749034
0.00856304
0.00857527
0.0163814
0.0083833
0.0115854
0.0146309
0.011249
0.0157857
0.00741015
0.00708664
0.00920144
0.0162457
0.0091932
0.00815769
0.00860122
0.00725516
0.0092082
0.0110813
0.00889062
0.00964113
0.00722603
0.00929398
0.00798539
0.0162886
0.00796891
0.00731411
0.0161837
0.0111128
0.00830255
0.00747645
0.0142391
0.00890722
0.00858525
0.00926898
0.00910873
0.010665
0.00779731
0.00769855
0.0087719
0.00840004
0.00820776
0.00914251
0.0072482
0.0088645
0.00814668
0.00882617
0.00724945
0.00744288
0.00759212
0.00746269
0.0093548
0.00858368
0.0111815
0.00823107
0.0115104
0.0163075
0.00879683
0.00829549
0.00863435
0.00922204
0.00894148
0.00793379
0.00717785
0.00739545
0.016746
0.016084
0.0140372
0.00833472
0.0139576
0.00881666
0.0112047
0.00782606
0.0116082
0.0143784
0.00933243
0.00819677
0.00914216
0.00766907
0.00909891
0.0114846
0.0111006
0.00790715
0.00885947
0.0159203
0.00789006
0.00846893
0.00777441
0.00920606
0.00859538
0.00923127
0.0072676
0.0072583
0.00763746
0.00978251
0.010422
0.00946966
0.0117201
0.00732818
0.009315
0.00855454
0.00862756
0.00673655
0.00845116
0.00901013
0.00812558
0.00809412
0.0143239
0.0090471
0.00869746
0.0108172
0.00707356
0.00761472
0.00777287
0.00725055
0.00870247
0.00724522
0.00762376
0.00909694
0.0075491
0.00904398
0.0156256
0.0141157
0.00806116
0.00705975
0.00857823
0.00800087
0.00734958
0.0152642
0.0084221
0.00779534
0.00867903
0.00694122
0.0116784
0.00851581
0.0095009
0.00798745
0.00803277
0.00741599
0.0149049
0.00778437
0.0110226
0.00726678
0.0092141
0.00872984
0.00856793
0.00891504
0.0107759
0.0150523
0.00787603
0.0164364
0.00875866
0.00909236
0.00731347
0.00907207
0.00737066
0.00762067
0.0148893
0.00746747
0.00758943
0.0092483
0.0155618
0.00908032
0.00793109
0.0073982
0.00796792
0.0111196
0.0092155
0.0145479
0.0088734
0.00768144
0.00842898
0.0078356
0.0106768
0.0153811
0.00932389
0.00919168
0.0107985
0.00750152
0.0108865
0.0075336
0.00882263
0.0153919
0.00715823
0.00871362
0.00720054
0.00905095
0.00760802
0.00810899
0.0115995
0.00913245
0.0159744
0.00760615
0.00906973
0.00915793
0.00840233
0.0166807
0.0105079
0.00932842
0.00935284
0.00912168
0.00845284
0.00915685
0.0159753
0.00800296
0.00898997
0.00818907
0.00927683
0.00785571
0.00919319
0.00848281
0.00912901
0.00933545
0.00836642
0.00862773
0.0108307
0.00897317
0.00759906
0.00876166
0.00881957
0.00900335
0.00910094
0.0111886
0.00927127
0.0084836
0.0150094
0.00819906
0.0106414
0.00876513
0.0158426
0.0106354
0.00876143
0.00804083
0.00838004
0.0103526
0.0143669
0.00845337
0.00775286
0.00918027
0.00736057
0.015584
0.00747505
0.0113692
0.00761928
0.00901218
0.00834672
0.00901332
0.00921578
0.00899347
0.00905805
0.00924182
0.00892249
0.00919153
0.00830787
0.0135009
0.0175237
0.00834106
0.0172285
0.00722019
0.0074922
0.00714325
0.00922861
0.00787661
0.0112043
0.00915773
0.00821432
0.00721933
0.00982505
0.00799542
0.00923548
0.00740447
0.00776742
0.0106811
0.0081588
0.00758217
0.00720921
0.00870122
0.0161777
0.0151271
0.00915914
0.00791081
0.00911121
0.00766411
0.0186335
0.00933355
0.00799288
0.00919689
0.00906944
0.0113574
0.00858875
0.00907979
0.0118136
0.0130473
0.00926748
0.00765849
0.0155188
0.00876096
0.0100295
0.015904
0.0075375
0.00913516
0.00931031
0.00867093
0.00913665
0.00838818
0.00908612
0.0075571
0.00747668
0.00918934
0.00868233
0.0161259
0.0112692
0.00778382
0.00905499
0.00774062
0.0156472
0.0153527
0.00851718
0.0135015
0.00860879
0.00892933
0.0091571
0.0111422
0.00812526
0.00906647
0.00804255
0.00871094
0.00845055
0.00798496
0.0153345
0.00915018
0.016103
0.00966925
0.0113566
0.0102257
0.00906041
0.00932156
0.00867899
0.00749839
0.00715128
0.00753998
0.00904033
0.00911849
0.00872749
0.00916958
0.00913467
0.00889874
0.0112434
0.00801459
0.015968
0.00736699
0.0106372
0.00895112
0.00848798
0.00971084
0.014705
0.00691297
0.00898442
0.0160047
0.00872606
0.0145368
0.00859605
0.00909064
0.009008
0.00923918
0.0107623
0.00708108
0.00850402
0.00924424
0.00895544
0.00886527
0.00907351
0.0106189
0.00848549
0.00763574
0.00930438
0.00917818
0.00893923
0.00887173
0.00932136
0.0154978
0.0102688
0.00743344
0.00922467
0.00851581
0.010078
0.00910037
0.00798128
0.00759459
0.00804807
0.00725441
0.00816618
0.00814963
0.0154031
0.00862941
0.00818429
0.00854642
0.00786344
0.0154428
0.00879327
0.00911307
0.0166018
0.00740804
0.00780272
0.00902791
0.0117293
0.0164317
0.0125937
0.00861679
0.00791216
0.0157684
0.0144767
0.0174697
0.00721354
0.00908342
0.00875632
0.00894661
0.00819856
0.0159993
0.0086409
0.00798848
0.0155146
0.0163515
0.0150073
0.00793802
0.0140506
0.00883472
0.00863718
0.00925142
0.0086214
0.0101729
0.00682903
0.00872175
0.00933218
0.00852803
0.00887652
0.00919922
0.00863723
0.00740605
0.00854431
0.00894765
0.0165436
0.00770659
0.00742721
0.00769793
0.00733224
0.00908413
0.00810284
0.0107898
0.0166546
0.00704467
0.00927495
0.00921435
0.00890335
0.00976373
0.00702918
0.00866496
0.00718639
0.00906816
0.0101436
0.010194
0.00912315
0.00891686
0.00881527
0.00906079
0.00793056
0.00784491
0.0086578
0.00748019
0.00780676
0.00845064
0.00838963
0.00931047
0.00675062
0.00833434
0.0163368
0.0103194
0.0170064
0.00677802
0.00779699
0.00760638
0.00808181
0.00828909
0.0095753
0.00811074
0.014763
0.00778385
0.00913507
0.00920787
0.0148572
0.00994799
0.00930393
0.0153782
0.0106235
0.00914704
0.00925563
0.0147388
0.0114286
0.00835797
0.00930371
0.00920157
0.00853649
0.00719929
0.00867699
0.00822394
0.00747133
0.0108344
0.00915548
0.00837072
0.00856835
0.00774214
0.00872821
0.00917125
0.00802071
0.0078766
0.0088823
0.00898763
0.00883063
0.00920448
0.0157176
0.00917531
0.0152949
0.00857918
0.00870544
0.00896065
0.00899755
0.00836798
0.0161834
0.00900111
0.00936793
0.00917588
0.0083332
0.00902504
0.0121015
0.00747262
0.00897316
0.00907826
0.00757289
0.0148912
0.00781495
0.00727372
0.00885625
0.00917212
0.00919712
0.009039
0.00858467
0.00849311
0.00708088
0.00918828
0.00912485
0.00865841
0.00785268
0.0144474
0.0156062
0.00730406
0.00727732
0.00909047
0.009182
0.0148552
0.0077296
0.00826303
0.00817964
0.00746332
0.00884982
0.00855881
0.00840467
0.00916391
0.00730232
0.0081416
0.0101454
0.0077586
0.00853107
0.0161632
0.00786001
0.00868667
0.00831845
0.00881057
0.00921411
0.0119729
0.00904828
0.00757971
0.00901432
0.0068972
0.00908193
0.00760146
0.00741861
0.00765267
0.0155153
0.00746623
0.0105306
0.011425
0.00842492
0.013506
0.00918746
0.00884646
0.00911335
0.00831595
0.00763957
0.0152732
0.00816746
0.0108741
0.00727386
0.00878134
0.00879933
0.00911693
0.00872018
0.00883328
0.00923683
0.00898151
0.00899021
0.00900485
0.0110661
0.00770938
0.00921938
0.00911906
0.00859893
0.00866563
0.00902699
0.00915813
0.0150478
0.00858495
0.0158835
0.0092344
0.0152773
0.0104815
0.00763754
0.00822308
0.00856831
0.00746379
0.0132737
0.00915975
0.0153172
0.0143066
0.00864037
0.0085918
0.00703415
0.00813268
0.00882241
0.015732
0.00836085
0.011191
0.00913774
0.00913072
0.00799012
0.00868354
0.00739815
0.00841698
0.00918629
0.0143339
0.00835609
0.00892816
0.009359
0.00861958
0.00917576
0.00913052
0.0078468
0.00918747
0.00857909
0.00916966
0.00800546
0.00774405
0.00914785
0.00767456
0.00895856
0.00869435
0.00908197
0.00887417
0.00928343
0.00859723
0.0108283
0.00906195
0.00924373
0.00777327
0.00783005
0.00923338
0.0153701
0.00902251
0.00918223
0.0072613
0.00777665
0.0102928
0.00731875
0.00901059
0.00904823
0.0075758
0.00821964
0.00859344
0.00798241
0.0108429
0.010713
0.0165008
0.00826944
0.00904071
0.00924158
0.00827972
0.00855041
0.00870381
0.00925701
0.00729604
0.00913244
0.00921749
0.00924814
0.00936495
0.0119303
0.016949
0.0158341
0.00766452
0.00906463
0.00928664
0.0091564
0.00740301
0.00891691
0.00924159
0.0156075
0.00933147
0.0090629
0.00903098
0.00924573
0.00850634
0.00919727
0.00762279
0.0103515
0.0087165
0.0085942
0.00755883
0.00878004
0.00716174
0.00768365
0.00740786
0.00923124
0.00722058
0.00784025
0.0091159
0.00800391
0.0109242
0.00910152
0.0092515
0.00861454
0.01143
0.00711452
0.0105689
0.00921195
0.0083603
0.0101055
0.00932859
0.0091996
0.00898289
0.00810359
0.00923881
0.00891491
0.0090379
0.0084738
0.00749614
0.00881191
0.00814724
0.00701648
0.00863156
0.00920285
0.0077284
0.00920763
0.00831996
0.00732661
0.00761411
0.0150552
0.00780734
0.0152112
0.00756166
0.00860363
0.00842833
0.00909726
0.00884968
0.0114293
0.011149
0.00892477
0.00653726
0.00930533
0.00799899
0.0104993
0.0090699
0.0078703
0.00882913
0.00765068
0.0089341
0.0077181
0.00900758
0.0106567
0.00919624
0.0116352
0.0110349
0.00834304
0.00813185
0.00813014
0.00924176
0.0114385
0.00926352
0.0086218
0.00777484
0.00732445
0.00723291
0.0109363
0.00944655
0.0109082
0.00815745
0.00915085
0.00874252
0.00901918
0.00804516
0.0147917
0.0070551
0.010032
0.0168945
0.0161483
0.00869509
0.00748367
0.00916355
0.0084402
0.00921526
0.0123321
0.00749127
0.0076948
0.00882992
0.00904405
0.0160757
0.00821347
0.00905244
0.00909262
0.00856183
0.00800762
0.00909212
0.00892748
0.00904932
0.00833758
0.0152226
0.00734174
0.0084411
0.00868108
0.0118835
0.00743806
0.00861701
0.0074211
0.00689078
0.0152958
0.00804609
0.00768879
0.00912831
0.00849753
0.00872572
0.0083578
0.00879951
0.00791058
0.00916687
0.00842472
0.00835322
0.00859377
0.00909083
0.00848761
0.00873012
0.00902322
0.00892964
0.00834623
0.0114603
0.00846805
0.00933842
0.013105
0.00768154
0.0124631
0.00837735
0.00780615
0.0108836
0.00871117
0.0103277
0.0146199
0.0152164
0.0116298
0.0106888
0.00910374
0.00783411
0.00916871
0.007891
0.00861224
0.00905058
0.0092163
0.00888882
0.0154946
0.0081606
0.00703468
0.00739649
0.00883289
0.0148991
0.0109234
0.00819831
0.0147713
0.00924025
0.0111549
0.00808075
0.00740427
0.00926965
0.00926389
0.00902434
0.0109114
0.0150993
0.011162
0.00845656
0.00790693
0.0153343
0.00792807
0.00734374
0.0145537
0.00726961
0.0130181
0.00786826
0.00837305
0.00926132
0.00891273
0.0166114
0.00754438
0.0118009
0.00913842
0.0087495
0.0078827
0.00901035
0.00734407
0.00747825
0.0127083
0.00867249
0.00732107
0.00931323
0.00916877
0.00840424
0.0154839
0.00903474
0.00892044
0.00918668
0.00787103
0.00848991
0.0162327
0.0146218
0.010598
0.00921528
0.0122089
0.00739538
0.015808
0.0105342
0.00883991
0.00840311
0.0111277
0.0113248
0.00858004
0.0089559
0.00925221
0.00825873
0.00848385
0.00890939
0.00757005
0.00759556
0.00897929
0.00922663
0.00918376
0.0165088
0.00882478
0.00755649
0.00852535
0.0138615
0.0091673
0.0090836
0.00740284
0.00888283
0.0174148
0.00749129
0.00796995
0.0159949
0.00877932
0.00894054
0.00850554
0.00984486
0.00907853
0.0100544
0.00913332
0.00831111
0.0156094
0.00894944
0.00904455
0.00815508
0.00861546
0.00900706
0.00900889
0.00914774
0.0086335
0.0143168
0.00901045
0.00854918
0.00831125
0.00903185
0.0084748
0.00820948
0.00880672
0.00805919
0.00875051
0.00938749
0.00716789
0.00895546
0.00825739
0.0110472
0.00884009
0.00889086
0.00875351
0.00999009
0.0118531
0.00739354
0.00850269
0.00861948
0.0157303
0.00707684
0.00905478
0.00910326
0.00869945
0.00859755
0.00772336
0.00928418
0.00831158
0.00906762
0.00732018
0.015567
0.0166094
0.00792112
0.00731323
0.0088615
0.00894326
0.00913861
0.00895267
0.0092208
0.009002
0.00881494
0.00915894
0.00785936
0.00893479
0.00890504
0.00749397
0.00913285
0.00690954
0.0140457
0.00780104
0.00851398
0.00823268
0.00756832
0.0079617
0.00741229
0.0111081
0.008345
0.00889773
0.00864432
0.00743027
0.010676
0.0090911
0.00710264
0.0160598
0.00836048
0.0113258
0.00771978
0.00871867
0.00842697
0.00818012
0.00692504
0.0106713
0.0152905
0.0148347
0.00914354
0.0109696
0.00875171
0.00895899
0.0107905
0.00921343
0.00711275
0.00900063
0.00784798
0.00805105
0.00719284
0.00918452
0.0090072
0.0166158
0.00895847
0.0106028
0.0170317
0.008657
0.00774768
0.008979
0.0090143
0.00908796
0.00746641
0.00699967
0.00869428
0.00893694
0.00841004
0.00952947
0.0125983
0.00814654
0.00863229
0.00777886
0.00920953
0.00693149
0.00742044
0.00864428
0.00897873
0.0088125
0.00741872
0.00732989
0.00777065
0.00777147
0.00843733
0.00759362
0.00734587
0.0113828
0.00849653
0.00821035
0.00851886
0.0091494
0.00826185
0.00900727
0.0108044
0.00761635
0.00833336
0.00952126
0.00869495
0.00676151
0.00925307
0.00918627
0.00811552
0.0149406
0.00706242
0.00891832
0.00912216
0.00794122
0.00906635
0.00746671
0.00761339
0.00744276
0.00754495
0.00837379
0.00880063
0.0158807
0.00835144
0.00881054
0.00901475
0.00750945
0.00864077
0.0088212
0.0132434
0.00925444
0.0104301
0.008157
0.0090861
0.00893696
0.00803309
0.00736348
0.00740606
0.0105348
0.014638
0.00909218
0.00897355
0.0121798
0.0102282
0.00831823
0.00850142
0.00917791
0.00713321
0.00806171
0.00814397
0.0084734
0.0161714
0.00869545
0.00727577
0.0110479
0.00891502
0.00812858
0.00714543
0.0150828
0.0115367
0.00700325
0.00850098
0.00792829
0.00871671
0.008153
0.0111149
0.0122435
0.00780121
0.0149969
0.00928334
0.0083701
0.0146757
0.00852467
0.00963465
0.00828712
0.00888392
0.00922095
0.0116472
0.0118703
0.00815646
0.00878016
0.0080347
0.00874007
0.00864276
0.00681954
0.0080109
0.00808821
0.00745849
0.00921391
0.0071951
0.00915638
0.00882156
0.0077449
0.00902221
0.0189596
0.00799736
0.00762527
0.00882977
0.0125222
0.00735486
0.0175501
0.00771711
0.00766934
0.00907181
0.00896449
0.00695435
0.00876657
0.00917264
0.00914134
0.00895278
0.00719925
0.00925603
0.00803157
0.008769
0.00833415
0.00833138
0.00883469
0.00811787
0.0090414
0.00899227
0.00801611
0.00820327
0.00765946
0.0155999
0.00884435
0.0168236
0.0103876
0.00748637
0.00889487
0.00816577
0.013195
0.0090471
0.00891106
0.00718453
0.00788975
0.00736469
0.0113099
0.0086117
0.00713667
0.00827069
0.00721033
0.00927831
0.00859566
0.0142192
0.00838058
0.00932925
0.00727565
0.0162592
0.00922402
0.00863253
0.00833855
0.00687037
0.00798772
0.00860167
0.00709556
0.00903103
0.00999743
0.00924505
0.0158473
0.00884257
0.0125573
0.00903558
0.00725572
0.00871017
0.0103498
0.00858616
0.00903741
0.00894032
0.00919789
0.0077664
0.01572
0.0153951
0.00815478
0.0161137
0.00881966
0.0111159
0.00905834
0.00821253
0.00796859
0.00919764
0.0122372
0.00883492
0.00868838
0.00848974
0.0111862
0.00883192
0.0066936
0.00831009
0.00784297
0.010536
0.0117698
0.00869
0.00881944
0.00882994
0.00773832
0.00817076
0.010379
0.0101988
0.00688923
0.00763248
0.00881247
0.009196
0.00902399
0.00689868
0.00693186
0.0084981
0.00874713
0.00894763
0.0090855
0.00923593
0.00726312
0.00776321
0.00925466
0.016126
0.0113908
0.00815499
0.00874136
0.00925721
0.0113191
0.0104885
0.00924263
0.00735318
0.00918322
0.0111774
0.00922305
0.00911403
0.00916678
0.00826533
0.00709214
0.0115884
0.014618
0.00766829
0.016204
0.00827987
0.0117492
0.007887
0.00837987
0.00900498
0.0170496
0.0176636
0.00882344
0.00823189
0.0120385
0.00884746
0.00893957
0.0114966
0.014802
0.0152295
0.0145066
0.00718777
0.0172524
0.00751029
0.00919353
0.011653
0.0157863
0.00734714
0.0087433
0.0091163
0.00877241
0.00757958
0.0169754
0.00911491
0.0107875
0.00909491
0.0139117