/*--------------------------------*- C++ -*----------------------------------*\
| =========                 |                                                 |
| \\      /  F ield         | OpenFOAM: The Open Source CFD Toolbox           |
|  \\    /   O peration     | Version:  2406                                  |
|   \\  /    A nd           | Website:  www.openfoam.com                      |
|    \\/     M anipulation  |                                                 |
\*---------------------------------------------------------------------------*/
FoamFile
{
    version     2.0;
    format      ascii;
    arch        "LSB;label=32;scalar=64";
    class       volVectorField;
    location    "10";
    object      momentum:angularMomentum;
}
// * * * * * * * * * * * * * * * * * * * * * * * * * * * * * * * * * * * * * //

dimensions      [1 1 -1 0 0 0 0];

internalField   nonuniform List<vector> 
59516
(
(1.34066e-08 -7.16084e-10 2.8485e-07)
(-6.67916e-09 1.04908e-08 2.25507e-07)
(3.30771e-09 3.64806e-09 2.43311e-07)
(-3.40225e-09 3.72013e-09 1.80617e-07)
(-3.37961e-09 1.38517e-09 2.11877e-07)
(-6.44569e-09 3.02241e-09 5.11593e-08)
(-7.29311e-09 -1.6723e-09 2.30838e-07)
(-5.78049e-09 8.05266e-09 2.56414e-07)
(-4.45015e-10 3.0171e-09 1.97737e-07)
(1.50868e-08 5.28991e-09 1.345e-07)
(-4.13114e-10 7.81796e-10 1.7214e-07)
(-2.8458e-10 1.18248e-08 1.47631e-07)
(-2.48199e-09 -1.90806e-08 3.87654e-07)
(-1.4077e-10 6.83405e-10 3.0064e-08)
(-1.77715e-08 -1.9754e-08 2.46997e-07)
(-5.62249e-10 1.51232e-08 1.47554e-07)
(-2.79076e-09 2.28405e-09 2.1113e-07)
(1.62541e-09 -1.53434e-08 1.77774e-07)
(-1.95506e-08 -1.26106e-08 3.79228e-07)
(-1.18855e-09 3.26048e-09 3.00527e-07)
(-2.75024e-09 -1.42507e-09 1.31584e-07)
(-1.27845e-09 2.57416e-09 3.04707e-07)
(-8.57115e-10 6.52196e-09 3.11634e-07)
(1.02002e-09 -3.83451e-10 6.84027e-08)
(1.07333e-09 6.45117e-09 2.96591e-07)
(-2.55625e-08 4.40542e-09 3.45464e-07)
(-1.52136e-09 -4.34765e-09 1.01672e-07)
(-1.35961e-08 2.87222e-09 9.0078e-08)
(2.10588e-10 -8.61802e-09 1.9495e-07)
(4.57258e-09 2.78805e-09 2.55276e-08)
(-2.64055e-08 6.87685e-10 2.01664e-07)
(-1.90506e-08 4.13096e-09 1.05075e-07)
(1.11122e-10 1.04124e-09 1.86115e-07)
(-1.07887e-08 -5.11369e-09 2.15255e-07)
(-3.88301e-09 2.36281e-09 1.25108e-07)
(-1.94627e-09 2.13784e-09 4.07799e-07)
(-4.46055e-09 -2.19287e-10 2.91064e-08)
(-6.64143e-09 2.23909e-09 1.55005e-07)
(-1.19982e-08 -1.21346e-08 3.27769e-07)
(8.84179e-09 -9.81677e-09 2.49686e-07)
(-1.20128e-08 -7.2111e-09 3.43165e-07)
(-5.08654e-09 2.99806e-09 3.80089e-07)
(-6.57902e-09 -8.63965e-10 3.17144e-07)
(-4.76807e-09 5.2578e-09 1.43824e-07)
(-3.78063e-09 -4.84727e-09 2.61604e-07)
(1.90942e-08 2.66919e-09 1.87284e-07)
(1.35526e-08 1.35069e-08 3.33917e-07)
(-3.77655e-10 -2.28283e-09 2.06839e-07)
(-1.57187e-08 6.74585e-09 2.67311e-07)
(-5.14182e-10 7.47879e-10 2.03662e-07)
(-2.04391e-08 3.73166e-09 1.68252e-07)
(-9.08417e-09 -2.08351e-09 1.34053e-07)
(5.33442e-09 -1.20715e-08 3.91455e-07)
(-2.52238e-09 -1.02027e-09 3.42378e-07)
(-7.7307e-09 4.00767e-09 1.41413e-07)
(-1.02433e-08 5.52371e-09 2.57626e-07)
(-1.95887e-09 5.9591e-10 1.74074e-07)
(-1.25365e-08 2.88965e-09 1.49341e-07)
(2.85664e-09 4.60544e-09 1.60729e-07)
(-8.80962e-10 2.31129e-09 1.38419e-07)
(-1.37891e-11 4.53148e-09 1.94779e-07)
(4.75569e-11 1.23898e-09 2.89314e-08)
(3.84413e-09 -7.94054e-09 2.14994e-07)
(9.1894e-10 9.77816e-10 2.63216e-07)
(-8.96341e-09 -5.10503e-09 3.42749e-07)
(3.10473e-10 6.72686e-10 1.88898e-07)
(1.2421e-09 3.36294e-09 3.66304e-08)
(-4.18279e-09 2.38157e-09 1.24145e-07)
(-2.18405e-08 7.08846e-09 2.119e-07)
(4.29513e-09 -1.30824e-09 1.62176e-07)
(-3.12296e-10 1.09619e-09 9.24165e-08)
(-3.13841e-09 4.96419e-10 1.25942e-07)
(9.7952e-09 -1.61688e-09 5.06953e-08)
(-7.76398e-11 3.19189e-09 1.74071e-07)
(-4.02551e-09 1.52096e-09 2.77329e-07)
(1.42543e-09 1.605e-09 3.09954e-07)
(-1.23056e-09 -2.69868e-09 1.72181e-07)
(-5.6769e-09 -5.45419e-09 2.23709e-07)
(8.36939e-09 -2.15375e-10 1.41076e-07)
(3.91763e-09 -2.41589e-10 1.59005e-07)
(-5.55218e-09 -1.23368e-09 1.01399e-07)
(-1.1172e-09 2.21665e-09 1.49372e-07)
(1.17371e-09 -2.30121e-09 1.64423e-07)
(-6.5327e-09 3.75204e-09 4.00032e-08)
(8.81762e-10 1.60781e-09 1.84519e-07)
(-3.65283e-09 1.30313e-10 2.83706e-07)
(2.83972e-10 6.50722e-09 6.07957e-08)
(-1.19289e-09 8.03825e-09 4.64102e-07)
(-1.80363e-08 2.71536e-09 2.00882e-07)
(-5.23405e-09 -6.28865e-10 1.76661e-07)
(-3.0036e-09 1.0364e-09 1.78212e-07)
(6.30565e-09 -2.57935e-09 1.8496e-07)
(8.01645e-10 -3.41537e-09 1.96595e-07)
(2.88238e-09 -2.35279e-09 1.72272e-07)
(3.4746e-09 -3.52853e-09 1.45739e-07)
(-7.7933e-09 1.23932e-09 1.96677e-07)
(-2.9606e-09 2.59675e-11 1.23998e-07)
(5.40527e-09 7.0916e-09 1.36147e-07)
(-3.47659e-09 -4.05332e-09 1.46558e-07)
(2.74847e-09 -2.72159e-09 1.95296e-07)
(-4.35433e-09 8.26493e-09 1.27654e-07)
(7.10471e-09 5.23982e-09 5.58945e-08)
(8.12343e-09 2.29494e-10 4.142e-08)
(3.73665e-09 6.73653e-09 1.36805e-07)
(-3.46182e-10 -8.25861e-10 2.55178e-07)
(-2.83835e-10 4.96983e-11 1.48089e-07)
(8.27835e-09 -6.55657e-09 1.05357e-07)
(-1.90645e-09 -9.97797e-10 1.74958e-07)
(-9.38826e-09 -9.28762e-09 2.35537e-07)
(-1.18888e-08 1.8023e-08 2.82007e-07)
(-1.58326e-08 -4.44276e-09 2.92934e-07)
(9.52172e-09 -7.33715e-09 9.45076e-08)
(-8.35751e-10 5.40554e-09 2.89683e-07)
(-1.82945e-08 7.7367e-10 2.25278e-07)
(-4.34083e-09 5.87377e-09 1.85149e-07)
(-5.90268e-09 8.23788e-10 1.79346e-07)
(-1.61609e-08 -1.02494e-08 2.34801e-07)
(2.28486e-09 -2.3815e-10 1.43321e-07)
(-4.30873e-09 1.65509e-09 3.02139e-08)
(-1.4913e-09 3.74864e-09 2.63363e-07)
(-3.61122e-09 -2.10452e-09 3.03211e-07)
(2.52336e-09 -1.35436e-10 1.40046e-07)
(-1.63852e-09 -8.07452e-10 1.45329e-07)
(-1.3736e-11 -3.47073e-10 1.4308e-07)
(-3.62323e-09 -1.73085e-09 1.36801e-07)
(8.02028e-09 -7.03695e-09 1.80761e-07)
(-7.95918e-09 -4.86586e-09 5.91369e-08)
(-2.97328e-09 -4.63465e-09 2.11469e-07)
(-2.40237e-08 1.30453e-08 1.77504e-07)
(1.4462e-09 3.04765e-09 1.15286e-07)
(5.01302e-09 4.38754e-10 2.046e-07)
(9.01705e-10 1.1663e-08 4.10605e-07)
(-4.97221e-09 -1.28284e-09 3.91051e-08)
(-6.74157e-10 4.52823e-09 2.36016e-07)
(-4.83326e-10 7.13908e-09 3.8661e-07)
(1.81062e-09 2.36957e-09 2.36315e-07)
(-1.58444e-08 -2.00707e-09 1.55817e-07)
(-2.12993e-09 4.74592e-09 3.36204e-07)
(-1.03956e-09 8.78326e-09 1.06102e-07)
(-1.0234e-08 1.73398e-10 2.00402e-07)
(-4.49869e-09 9.50357e-09 1.49349e-07)
(3.98776e-09 -7.86512e-10 2.54672e-07)
(-2.42184e-09 -3.07727e-09 2.48552e-08)
(-3.8688e-09 3.93681e-10 1.69261e-07)
(-1.93237e-09 4.52166e-10 1.54896e-07)
(-6.68708e-09 2.76181e-09 2.62609e-07)
(-2.70453e-09 -5.12713e-10 2.05991e-07)
(-2.03973e-09 -5.37453e-09 2.26275e-07)
(2.65656e-10 -3.01066e-09 6.86069e-08)
(-8.34545e-09 1.1688e-09 2.48092e-07)
(1.77713e-09 -2.5925e-09 3.71362e-07)
(-3.44886e-10 7.72901e-09 1.04042e-07)
(5.24559e-11 -2.65666e-10 3.19123e-07)
(3.06326e-09 -6.21312e-09 1.99861e-07)
(8.27201e-09 -3.67059e-09 1.95797e-07)
(-4.75025e-09 1.03981e-09 2.49021e-08)
(5.01135e-09 -1.38753e-08 3.47755e-07)
(7.72469e-09 2.95226e-09 3.5516e-07)
(-6.70112e-10 9.86598e-10 1.60279e-07)
(-6.5569e-09 2.2765e-10 2.80418e-08)
(-1.76519e-09 9.03395e-09 1.21749e-07)
(2.58852e-10 -1.09498e-08 1.50123e-07)
(-7.14484e-09 1.15082e-08 7.67312e-08)
(-1.25921e-09 -1.44993e-09 4.05387e-08)
(-3.81073e-09 2.04046e-09 2.19015e-07)
(-6.17044e-09 3.89216e-10 2.68704e-07)
(8.70805e-09 -8.14596e-10 2.81512e-07)
(1.55799e-09 -1.58866e-09 2.09601e-07)
(6.18563e-09 2.60346e-09 2.42581e-08)
(-4.90891e-09 3.15864e-09 2.01925e-07)
(-2.61573e-09 2.62052e-09 1.15822e-07)
(-1.28148e-09 -1.53242e-09 1.06894e-07)
(-2.52209e-09 -1.44734e-08 1.63906e-07)
(1.60943e-09 2.65123e-10 1.47006e-07)
(-1.02467e-09 3.18973e-09 1.39613e-07)
(1.43324e-08 1.16249e-08 4.38974e-07)
(-2.18721e-09 1.50822e-09 1.939e-07)
(-3.65965e-09 -5.98464e-09 2.89706e-07)
(1.36961e-08 -1.91808e-08 2.35065e-07)
(-3.20733e-09 -8.92459e-09 1.00377e-07)
(-2.62025e-09 -8.05875e-09 2.93727e-07)
(3.41493e-09 6.36265e-09 8.03935e-08)
(-2.37274e-09 -1.97164e-09 5.78275e-08)
(-7.01913e-09 3.9934e-09 1.62981e-07)
(1.18515e-10 -4.51001e-09 1.53571e-07)
(-1.22693e-09 1.56076e-10 1.73345e-07)
(-2.82354e-09 6.63439e-10 8.12361e-08)
(-3.45436e-09 4.04071e-09 4.33591e-08)
(-1.11101e-09 -2.72167e-09 2.10819e-07)
(-8.11773e-09 -1.16296e-08 2.98255e-07)
(-4.46195e-09 2.59136e-09 1.589e-07)
(1.01704e-08 -6.82534e-09 2.04001e-07)
(1.427e-09 -3.90008e-10 1.7157e-07)
(-6.76516e-10 -1.02672e-08 1.54287e-07)
(-8.51709e-09 3.77237e-09 3.00589e-07)
(1.92261e-09 2.8263e-09 5.25073e-08)
(6.04596e-09 -2.46895e-09 1.56229e-07)
(2.9149e-09 1.30274e-09 1.09496e-07)
(-2.60692e-09 5.59819e-09 2.28645e-07)
(-4.31712e-09 1.0597e-08 2.34332e-07)
(3.00743e-09 2.15658e-09 1.09775e-07)
(3.20798e-09 9.48467e-10 1.44498e-07)
(-3.85276e-09 -1.92661e-09 3.95826e-07)
(6.18365e-09 -2.82004e-09 2.7518e-08)
(5.93475e-09 4.50728e-09 2.58252e-07)
(-3.43568e-09 2.2381e-09 2.43876e-07)
(4.04686e-12 1.20221e-09 2.53537e-07)
(-3.84749e-09 2.98028e-09 1.67322e-07)
(-3.36565e-10 1.38591e-10 3.43567e-08)
(3.74893e-09 -2.72783e-09 3.61682e-07)
(4.53791e-09 6.30051e-09 1.1608e-07)
(-1.02647e-08 3.06812e-09 3.48996e-08)
(2.05495e-09 -1.55583e-09 2.27242e-07)
(3.75243e-09 7.69036e-09 1.59698e-07)
(-4.80995e-09 7.85935e-09 3.52762e-07)
(-2.54629e-09 -5.23425e-09 2.35529e-07)
(-5.99216e-09 2.71203e-09 2.46556e-07)
(3.94318e-10 1.29868e-09 1.9119e-07)
(-7.10439e-09 -1.94987e-09 1.38684e-07)
(-3.69081e-09 4.27718e-09 1.92656e-07)
(-1.61964e-08 -1.89733e-08 1.99567e-07)
(-1.00958e-08 6.7972e-09 2.19148e-07)
(-1.81173e-09 -1.64549e-09 1.44053e-07)
(-9.4701e-10 -4.31767e-09 1.26926e-07)
(-4.25827e-09 2.7582e-09 2.31355e-07)
(8.50431e-10 2.86115e-09 2.48215e-07)
(-4.21225e-09 -4.49689e-09 5.8641e-08)
(-8.66266e-09 -8.82795e-10 1.12047e-07)
(-6.79492e-09 4.28697e-10 1.5171e-07)
(-5.76607e-09 3.34593e-09 2.13265e-07)
(-6.6476e-10 3.79239e-09 1.92718e-07)
(-4.25852e-09 1.84601e-09 1.43506e-07)
(-7.97483e-10 -8.39253e-09 2.26298e-07)
(-5.42263e-09 -4.58746e-09 4.86996e-08)
(-4.26885e-09 -7.6699e-09 6.2658e-08)
(-9.45721e-09 -5.09918e-09 6.46822e-08)
(4.12805e-09 -3.62148e-09 1.64936e-07)
(-1.44467e-08 1.92151e-09 2.34606e-07)
(-1.12032e-08 -1.02513e-08 3.58135e-07)
(6.34198e-10 7.16401e-11 1.71996e-07)
(5.16481e-09 -4.00979e-10 1.79713e-07)
(7.421e-09 -2.13316e-10 3.45436e-08)
(-1.88119e-08 -1.82716e-09 1.83001e-07)
(5.61599e-09 -2.80242e-10 4.97948e-08)
(-5.02792e-10 4.2074e-09 1.17252e-07)
(-6.03702e-09 -2.97946e-09 2.03354e-07)
(-6.10665e-10 -2.17133e-09 1.80005e-07)
(1.15418e-08 1.38477e-09 2.93331e-07)
(-1.41601e-09 1.02321e-09 2.29912e-07)
(1.76392e-09 -2.36196e-09 2.39357e-07)
(8.84363e-09 -1.74963e-08 3.242e-07)
(-8.21318e-09 -6.93785e-09 2.08623e-07)
(2.48548e-09 2.0533e-09 1.34289e-07)
(-4.61404e-09 5.92326e-09 2.68201e-07)
(1.02156e-09 -7.41307e-09 2.56278e-07)
(-1.13279e-09 -3.08606e-09 2.53711e-07)
(-1.15736e-09 -7.03996e-10 1.89142e-07)
(-8.89615e-09 -5.88337e-09 2.50615e-07)
(9.91761e-09 9.8966e-09 1.45424e-07)
(1.32871e-08 4.03301e-09 1.46208e-07)
(5.22279e-09 -3.50888e-09 2.42917e-07)
(-1.2288e-08 -1.9912e-09 2.18458e-07)
(-3.581e-09 7.87306e-09 2.76473e-07)
(-7.1078e-09 4.83728e-09 2.19583e-07)
(3.57553e-10 -1.5218e-09 9.06734e-08)
(2.80194e-09 -2.82937e-09 1.93582e-07)
(1.05929e-08 -7.65813e-09 2.71981e-07)
(-1.33081e-08 1.62529e-09 3.29194e-07)
(2.34456e-09 -1.77847e-08 1.03452e-07)
(1.32149e-09 2.30947e-09 1.26023e-07)
(-1.35666e-08 -1.53138e-10 2.15581e-07)
(-4.2971e-10 -2.06071e-09 1.47517e-07)
(2.86258e-09 -6.49989e-09 4.45282e-07)
(1.02304e-08 7.8593e-09 2.17957e-07)
(-1.17493e-08 -3.54518e-09 2.72494e-07)
(5.45588e-09 -2.12738e-09 2.58297e-07)
(-4.20042e-09 -6.46817e-09 3.15778e-08)
(-7.54764e-09 5.99857e-09 2.58164e-07)
(9.02066e-09 -4.04906e-09 4.99394e-08)
(6.23548e-10 4.32103e-10 1.01549e-07)
(-3.85718e-09 -7.04535e-09 2.54738e-07)
(5.40744e-09 3.27019e-09 2.47774e-07)
(-9.31368e-09 -5.41318e-09 5.12996e-08)
(-6.80794e-09 1.45433e-08 3.49857e-07)
(-1.45298e-09 7.56714e-09 2.79513e-07)
(4.34954e-09 -2.10381e-09 1.9508e-07)
(-5.3643e-09 -2.43498e-09 2.36182e-07)
(8.00833e-09 -4.00237e-09 4.39798e-08)
(-7.65277e-09 -4.02824e-10 2.04109e-07)
(-4.38574e-10 -3.15151e-09 1.01972e-07)
(-1.47428e-09 -2.83387e-09 1.21652e-07)
(-8.49622e-09 5.16463e-09 2.52619e-07)
(2.7269e-09 -2.19044e-09 1.6127e-07)
(4.68024e-09 -4.41159e-09 2.40826e-07)
(1.60124e-09 3.28291e-09 2.13866e-07)
(-3.38474e-10 8.68521e-09 7.47245e-08)
(6.68825e-09 6.60135e-10 2.35208e-07)
(4.03291e-09 3.27323e-09 2.01099e-07)
(-4.35204e-09 -2.97845e-09 2.66934e-07)
(3.62809e-09 -5.70143e-09 2.05759e-07)
(5.15834e-09 1.44465e-08 3.82108e-07)
(4.56023e-09 1.89404e-08 2.54237e-07)
(-4.88957e-09 -1.0303e-09 3.65055e-08)
(5.85043e-09 5.94419e-09 5.81399e-08)
(1.05898e-09 8.18385e-09 4.46915e-07)
(-7.84331e-09 -2.14451e-09 3.72204e-08)
(-6.96258e-09 -1.39218e-08 2.64348e-07)
(7.97521e-09 9.81457e-09 1.15961e-07)
(7.45683e-09 4.5501e-09 2.59617e-07)
(-1.85752e-11 2.6169e-09 3.22758e-07)
(8.95235e-09 2.47403e-09 3.16306e-07)
(6.68272e-09 5.41423e-10 1.91304e-07)
(4.5274e-09 -7.26767e-09 3.92629e-07)
(-5.88925e-09 1.13621e-08 1.20907e-07)
(1.19525e-08 -1.16751e-08 1.21316e-07)
(5.7735e-09 -3.01084e-09 1.6546e-07)
(4.42249e-09 -4.18397e-09 2.04981e-07)
(-1.89048e-08 -1.08558e-08 2.77868e-07)
(-3.47342e-09 2.46066e-09 2.51903e-07)
(7.28079e-10 2.70815e-09 1.22152e-07)
(6.693e-09 -1.1312e-09 1.62084e-07)
(7.02633e-11 1.26204e-09 2.47498e-07)
(5.05352e-10 -1.58016e-09 1.72491e-07)
(-1.71496e-09 6.39118e-09 3.13471e-07)
(-9.43087e-10 3.09573e-09 1.6894e-07)
(-3.61085e-09 1.44085e-08 4.24327e-07)
(-1.28398e-08 1.41245e-08 1.93143e-07)
(4.45655e-09 3.53251e-09 3.55987e-07)
(5.13237e-09 -4.96094e-09 2.1208e-07)
(-1.16171e-11 3.12898e-11 1.65209e-07)
(2.72186e-09 4.05646e-09 2.95449e-07)
(-1.08054e-08 -1.51403e-08 1.46558e-07)
(7.09413e-09 -7.80361e-09 3.9017e-08)
(2.11525e-09 1.63216e-09 2.64814e-07)
(4.37878e-11 4.1553e-09 9.78516e-08)
(-4.63296e-09 -4.55934e-09 4.58642e-08)
(-9.89183e-09 -1.05945e-08 3.25724e-07)
(2.21909e-09 -4.96588e-09 1.90133e-07)
(1.66985e-09 -7.10645e-09 1.43117e-07)
(-2.86518e-09 3.16683e-09 1.95934e-07)
(1.34432e-09 -6.6174e-10 2.75928e-07)
(-2.09072e-09 -8.32172e-09 3.19775e-07)
(1.95083e-09 1.80637e-10 2.09559e-07)
(1.63924e-09 1.96361e-10 5.78042e-08)
(-3.82857e-09 -3.96066e-09 2.89959e-07)
(-1.51217e-09 -4.11721e-10 1.61921e-07)
(-2.60812e-09 4.93194e-09 1.63403e-07)
(7.87345e-11 -4.86211e-09 2.15967e-07)
(1.04986e-09 -1.16714e-09 1.88988e-07)
(4.81882e-10 -1.40418e-09 1.76337e-07)
(-7.7879e-09 -1.3458e-09 2.22756e-07)
(-8.94078e-09 -5.67151e-10 2.43402e-07)
(-9.44221e-10 4.09266e-09 2.04586e-07)
(-4.0451e-09 2.17528e-09 1.29086e-07)
(-4.06022e-11 -2.69167e-09 3.76545e-08)
(1.03811e-09 1.04007e-08 8.28676e-08)
(5.46165e-09 5.36931e-09 2.99353e-07)
(-3.03971e-08 1.78619e-08 2.93809e-07)
(-9.96762e-09 -7.33951e-10 1.2491e-07)
(-8.38358e-09 9.94622e-10 1.58384e-07)
(4.68329e-09 -6.61179e-09 3.2261e-07)
(9.60106e-09 -1.77614e-09 3.15678e-07)
(7.90619e-10 3.33915e-10 1.81634e-07)
(4.80298e-09 -3.30138e-10 3.30635e-07)
(2.86234e-10 -5.37923e-09 3.81823e-07)
(1.6683e-09 2.42005e-09 2.00457e-07)
(2.18268e-09 1.28903e-09 1.21371e-07)
(1.49272e-10 -4.59455e-09 3.47824e-08)
(-2.78679e-08 9.25616e-10 2.54784e-07)
(-3.67064e-09 5.50153e-09 1.35594e-07)
(-9.06333e-09 -3.00369e-09 1.22827e-07)
(2.07425e-09 -4.11309e-09 1.31453e-07)
(7.31384e-10 -3.0641e-09 1.46411e-07)
(7.35027e-09 2.97812e-09 2.30736e-07)
(-3.26727e-09 -2.58801e-09 2.08175e-07)
(-4.09531e-09 5.86878e-09 2.55379e-08)
(-1.56009e-09 1.01334e-10 1.77223e-07)
(3.25387e-09 9.60379e-09 1.09634e-07)
(-2.68414e-09 -1.14208e-10 1.55817e-07)
(-9.24786e-10 4.83023e-09 8.49249e-08)
(2.29736e-08 -5.91347e-09 1.98558e-07)
(7.74915e-09 -1.32531e-09 2.74851e-07)
(-4.24644e-09 2.06734e-09 1.48307e-07)
(7.06198e-09 -4.68447e-10 3.66568e-08)
(4.59321e-09 1.68114e-08 1.77554e-07)
(-2.32207e-09 4.03238e-09 2.39287e-07)
(-2.46976e-09 -1.39513e-09 4.89335e-08)
(5.74465e-09 2.28601e-09 2.87302e-07)
(-2.15864e-09 4.83858e-09 2.07925e-07)
(7.00543e-09 1.22561e-08 3.2463e-07)
(5.73191e-09 1.46928e-08 2.7365e-07)
(6.1148e-09 3.77172e-09 1.33177e-07)
(1.02051e-08 -6.30639e-09 3.49727e-07)
(-1.59591e-08 -1.35448e-08 1.50507e-07)
(-1.31979e-09 -1.85156e-09 2.4254e-07)
(-8.23538e-09 -1.91735e-09 1.65066e-07)
(2.0197e-08 9.32394e-09 2.31515e-07)
(4.42745e-09 -1.31167e-10 2.58717e-07)
(2.56979e-09 8.35119e-10 2.06299e-07)
(3.24858e-09 -2.92613e-09 4.29209e-07)
(-2.09638e-09 6.21431e-09 1.18433e-07)
(2.76618e-09 3.51117e-09 3.62759e-07)
(4.47301e-10 1.81769e-09 1.55476e-07)
(6.55615e-10 2.42291e-10 3.31519e-07)
(1.6832e-09 -2.63265e-09 2.47178e-07)
(1.08293e-09 -1.7922e-09 1.29731e-07)
(-3.39288e-09 1.88719e-10 2.36815e-07)
(-6.34277e-09 2.65067e-09 3.73558e-07)
(1.84557e-10 3.4304e-09 2.17463e-07)
(3.78012e-10 3.01682e-09 1.93555e-07)
(6.33603e-09 1.49365e-09 5.52377e-08)
(-7.852e-09 3.27753e-09 3.69693e-08)
(3.58694e-09 3.63147e-09 3.24723e-07)
(5.35926e-09 -1.13e-09 2.24422e-07)
(-2.84564e-09 5.02652e-09 1.68828e-07)
(-6.1084e-09 -2.32668e-09 6.31774e-08)
(1.13758e-10 1.84265e-09 6.88996e-08)
(-1.67278e-09 2.20383e-08 4.11017e-07)
(-2.7432e-09 2.19939e-09 1.2527e-07)
(2.59384e-09 -2.65229e-10 2.43482e-07)
(-1.09508e-09 5.18633e-10 2.13203e-07)
(1.63042e-09 -3.42687e-09 1.72303e-07)
(1.93262e-09 -2.01319e-09 1.88284e-07)
(-5.81509e-09 4.14379e-09 1.61913e-07)
(-1.7403e-09 2.63128e-10 1.55919e-07)
(-2.5858e-09 -6.40337e-09 1.39424e-07)
(6.2302e-09 7.2962e-09 2.33369e-07)
(-1.39892e-09 -4.22484e-09 2.46423e-07)
(4.17005e-09 1.99203e-09 1.83687e-07)
(-8.38595e-11 -2.82416e-09 1.66702e-07)
(-4.984e-09 -1.48642e-09 3.32155e-07)
(2.28911e-09 5.72806e-09 2.5121e-07)
(7.73483e-09 2.13108e-09 1.09575e-07)
(4.23505e-09 9.55374e-09 9.09239e-08)
(-5.12469e-09 -5.42829e-09 3.07017e-08)
(-4.36074e-10 6.6121e-10 1.86509e-07)
(1.18449e-09 -1.15323e-09 2.19245e-07)
(3.26136e-09 -2.11998e-09 2.62818e-07)
(3.03521e-10 -2.17423e-09 2.14485e-07)
(2.00496e-09 -1.39237e-09 6.32875e-08)
(1.50859e-09 -9.34087e-10 3.52772e-08)
(-6.22524e-09 2.89993e-09 2.24581e-07)
(-1.0063e-09 -3.03198e-09 2.02599e-07)
(-2.39772e-09 1.24692e-09 2.39162e-07)
(-4.12267e-09 -3.25811e-09 2.98745e-07)
(-2.44799e-09 -3.66817e-09 2.12001e-07)
(-3.71746e-09 2.06015e-09 2.52425e-07)
(-2.65425e-09 -6.50749e-09 4.0736e-07)
(-2.01072e-09 7.77924e-09 5.35418e-08)
(-7.16068e-10 5.46963e-09 2.13613e-07)
(3.58915e-09 -1.00374e-09 1.20115e-07)
(-9.52723e-09 -3.83706e-09 1.11267e-07)
(1.0058e-09 -8.39012e-10 1.14856e-07)
(-7.29204e-09 4.65236e-09 2.1844e-07)
(2.08468e-09 -6.11758e-09 2.40992e-07)
(-8.34235e-09 -9.13675e-10 3.28075e-08)
(2.97094e-09 2.24447e-10 2.7339e-07)
(-4.0859e-09 -2.38603e-10 2.06051e-07)
(2.94413e-10 -6.53336e-10 1.55485e-07)
(9.66607e-09 -2.52678e-09 3.18223e-07)
(1.3102e-09 1.61476e-09 1.43848e-07)
(-3.33819e-09 3.22282e-09 1.97212e-07)
(-8.34918e-09 -2.33866e-09 2.74917e-07)
(2.21814e-09 -2.5247e-09 2.13915e-07)
(-5.6554e-09 -8.30204e-09 2.00772e-07)
(2.51201e-09 5.64882e-09 2.13338e-07)
(1.96881e-10 7.56732e-09 2.74665e-07)
(4.13763e-09 1.73159e-09 3.58795e-08)
(-4.70166e-10 8.25196e-09 2.34525e-07)
(-2.77035e-09 -6.0215e-09 2.28281e-07)
(-8.63307e-09 -4.57545e-09 1.27496e-07)
(-6.35646e-09 6.46771e-11 2.3891e-07)
(3.42723e-09 3.61188e-09 2.78254e-07)
(2.24833e-09 3.15633e-09 2.51989e-07)
(4.76449e-09 -7.16679e-10 1.73909e-07)
(-4.40755e-09 -3.18064e-09 3.66466e-08)
(1.50669e-09 -1.92822e-09 2.03599e-07)
(-2.92372e-09 -1.76866e-09 3.99999e-07)
(2.16655e-09 -4.89633e-10 2.12914e-07)
(-3.47661e-09 8.2564e-09 2.13659e-07)
(-6.50303e-09 5.25163e-09 1.09188e-07)
(2.91054e-09 7.5412e-09 2.49834e-07)
(-8.1082e-09 -4.50279e-09 3.76325e-08)
(-2.53727e-09 1.83778e-09 1.39815e-07)
(-1.83804e-08 -5.20652e-10 2.09562e-07)
(-4.61475e-09 3.46676e-09 1.97701e-07)
(-1.1875e-09 4.45795e-09 1.41203e-07)
(-9.31232e-09 -1.55451e-09 2.39287e-07)
(-6.13121e-09 6.21223e-09 1.61068e-07)
(8.09079e-09 -9.35961e-09 8.37187e-08)
(1.69713e-09 -2.50008e-10 3.33925e-07)
(-2.2834e-09 4.71912e-09 1.56084e-07)
(-4.82909e-09 -1.44431e-09 3.27e-08)
(-1.6318e-09 9.22407e-10 2.26765e-07)
(5.88053e-10 -5.29927e-09 1.93293e-07)
(1.43241e-10 -5.01313e-10 7.10795e-08)
(8.15095e-09 1.48381e-08 2.09602e-07)
(-1.65767e-09 1.01108e-09 1.74188e-07)
(3.6753e-10 7.49321e-10 1.65724e-07)
(8.63577e-09 -6.1652e-10 1.89828e-07)
(-1.5253e-09 2.38884e-09 4.64198e-08)
(7.08119e-09 6.48934e-09 1.66721e-07)
(6.40937e-09 6.10049e-09 1.79901e-07)
(6.5492e-09 8.42416e-09 2.12155e-07)
(9.43795e-09 -3.56514e-09 2.43569e-07)
(-8.62295e-09 -2.20121e-09 4.31878e-08)
(-7.19694e-10 1.10014e-08 3.26937e-07)
(-6.76194e-09 3.87571e-09 2.084e-07)
(-4.95623e-09 2.45299e-09 1.99029e-07)
(-2.29342e-09 -7.99576e-09 1.14735e-07)
(2.06912e-09 -2.49748e-09 2.76784e-07)
(3.70495e-09 -9.34894e-09 4.47225e-08)
(-6.30187e-10 -3.6216e-10 2.36136e-07)
(-9.69264e-10 -1.63126e-09 4.63259e-08)
(1.20001e-08 -2.44442e-08 1.94752e-07)
(2.89961e-09 -2.91104e-09 1.97981e-07)
(7.7992e-10 1.09153e-08 2.10883e-07)
(-8.59778e-09 5.24135e-09 3.38415e-08)
(2.56558e-09 -1.32139e-08 8.92473e-08)
(-4.81241e-09 1.80224e-08 1.32992e-07)
(1.98264e-08 -5.9233e-09 2.06972e-07)
(-5.71001e-09 1.5628e-09 3.02637e-07)
(-6.8608e-09 3.92789e-09 9.9464e-08)
(5.37246e-09 -1.61756e-09 2.47338e-07)
(-1.28061e-08 -4.86134e-09 2.28129e-07)
(-3.0583e-09 3.08031e-09 1.60857e-07)
(3.81548e-09 -4.27787e-09 4.61713e-08)
(4.95112e-09 -6.44166e-09 3.03084e-07)
(-3.09035e-09 -1.73927e-08 1.61514e-07)
(4.3218e-10 3.2971e-09 1.6236e-07)
(-2.96017e-09 -1.30821e-09 1.47062e-07)
(-1.1133e-09 4.92091e-09 1.36981e-07)
(1.79063e-08 7.94719e-09 1.77243e-07)
(-4.20717e-09 1.50113e-09 1.83931e-07)
(7.67921e-10 -5.0857e-10 1.17563e-07)
(1.63882e-08 -1.01527e-08 1.07001e-07)
(-1.79495e-09 -2.92515e-09 2.4203e-07)
(-8.28276e-09 7.23721e-10 6.54184e-08)
(5.30398e-09 -8.70842e-10 3.00133e-08)
(-4.04331e-09 1.14699e-09 3.07534e-07)
(1.24984e-09 -2.07859e-09 1.3839e-07)
(2.04564e-09 -7.36878e-09 3.02216e-07)
(5.1488e-09 -1.4127e-08 2.5891e-07)
(4.44095e-09 3.1897e-09 3.51006e-07)
(4.04457e-09 -1.74162e-08 2.14583e-07)
(7.06705e-10 5.09606e-09 3.42467e-07)
(9.38019e-09 3.64849e-09 1.36388e-07)
(-1.62065e-09 7.65156e-11 1.14807e-07)
(2.86153e-09 1.33226e-08 3.4234e-07)
(-1.15714e-08 -1.05894e-08 5.52322e-08)
(2.33832e-09 1.18072e-09 2.83652e-07)
(3.25977e-09 -1.32305e-08 2.14731e-07)
(6.40741e-09 1.23045e-08 5.18674e-08)
(3.51393e-09 -4.02521e-09 2.73138e-07)
(-2.33018e-09 5.00939e-10 1.03273e-07)
(1.94402e-09 -8.8708e-10 1.99237e-07)
(-1.69977e-09 -2.8886e-09 1.6407e-07)
(-2.13427e-09 1.82549e-08 3.8629e-07)
(1.12868e-08 1.43764e-08 1.92358e-07)
(-6.38063e-10 -1.53304e-09 2.224e-07)
(-4.49153e-10 -3.94643e-09 2.20061e-07)
(-4.36254e-10 -2.79395e-09 2.48902e-07)
(2.68074e-09 -2.63065e-09 2.57754e-07)
(3.83013e-09 -1.87888e-09 2.16616e-07)
(-4.43148e-10 -2.13922e-09 1.23234e-07)
(6.00423e-09 -6.53324e-09 8.68374e-08)
(7.01443e-09 3.00126e-09 1.17072e-07)
(-4.46079e-10 -1.25501e-10 1.39354e-07)
(1.49123e-09 4.02492e-09 2.43123e-07)
(3.47282e-09 8.6785e-09 5.77682e-08)
(-5.5508e-09 -2.64428e-10 2.09876e-07)
(-4.89176e-09 -1.34067e-10 3.83667e-07)
(2.60991e-09 -1.29442e-09 2.8342e-07)
(-6.30314e-11 1.74568e-09 2.88575e-07)
(-7.46093e-09 -1.0924e-08 3.01028e-07)
(-5.25707e-09 2.87833e-09 3.07151e-08)
(-2.78244e-09 -1.73758e-09 1.84252e-07)
(2.68207e-09 -8.41715e-09 1.84252e-07)
(1.02004e-10 -2.46746e-09 2.27261e-07)
(3.437e-09 7.18402e-09 2.25449e-07)
(-9.59723e-09 -2.22053e-09 7.1341e-08)
(-1.31068e-09 3.83715e-09 1.59022e-07)
(9.33681e-09 -3.8848e-09 2.05982e-07)
(3.90612e-09 4.63505e-09 2.68329e-07)
(1.05009e-09 5.14265e-09 1.99076e-07)
(2.06062e-09 -3.81731e-09 2.0215e-07)
(4.11327e-09 3.4684e-09 2.28676e-08)
(-6.86158e-09 2.62992e-09 3.41044e-08)
(1.11433e-09 -4.82127e-09 1.36878e-07)
(-2.52788e-09 6.86113e-09 2.34465e-07)
(1.29073e-09 -2.74961e-11 1.66302e-07)
(-3.25488e-10 2.47044e-09 1.57253e-07)
(5.63435e-09 -5.09911e-09 2.2912e-07)
(3.28004e-10 2.0704e-09 2.32642e-07)
(2.96578e-09 -7.10489e-09 2.28e-07)
(-3.77725e-10 1.35893e-09 3.29451e-08)
(2.09093e-09 -4.16645e-09 1.06539e-07)
(-1.62009e-09 -3.86076e-09 1.76345e-07)
(-4.34726e-09 7.53347e-09 8.73515e-08)
(-5.07133e-09 1.13006e-08 1.34295e-07)
(5.62858e-09 3.58906e-09 3.10155e-07)
(3.74452e-09 6.26989e-09 2.14227e-07)
(-4.6724e-09 -4.02971e-09 2.12313e-07)
(1.0531e-09 5.00303e-09 2.81041e-07)
(-2.92661e-09 -1.60938e-09 1.86744e-07)
(-5.28293e-09 -7.68953e-10 2.54861e-07)
(2.93907e-09 -7.7948e-10 2.55209e-07)
(8.76005e-09 -3.48718e-09 3.45331e-07)
(1.19007e-09 -3.78084e-09 1.70314e-07)
(4.35686e-09 -8.03627e-09 1.77248e-07)
(4.00633e-09 5.19418e-09 2.39166e-07)
(3.95549e-09 1.39121e-08 8.69093e-08)
(-6.71282e-09 1.12505e-08 4.79553e-07)
(-2.03396e-09 -1.99669e-09 6.72087e-08)
(-1.06512e-08 -3.6027e-09 1.59468e-07)
(1.61691e-08 7.12348e-09 1.77999e-07)
(-7.71509e-09 -4.52627e-10 1.62214e-07)
(2.4716e-09 -3.11956e-09 2.34449e-07)
(-2.96216e-08 -3.68143e-09 3.14223e-07)
(-1.34951e-09 -1.55131e-11 1.08919e-07)
(6.05587e-10 2.87192e-10 2.70936e-07)
(-7.35647e-09 1.89585e-09 2.90894e-07)
(2.74102e-09 9.13091e-10 1.68865e-07)
(-5.01946e-09 -5.95114e-09 6.10098e-08)
(-2.94057e-09 4.01574e-10 1.19658e-07)
(-2.09605e-08 -9.62666e-10 2.1981e-07)
(-1.08777e-09 -4.07052e-09 1.64457e-07)
(1.83404e-09 2.99696e-09 1.18575e-07)
(-7.37238e-09 -2.10298e-09 2.17614e-07)
(1.21296e-09 1.83572e-09 1.96684e-07)
(-6.24003e-10 -7.94045e-09 4.04434e-07)
(-2.87517e-09 -5.9242e-09 8.87795e-08)
(7.60788e-09 -2.99014e-09 8.49959e-08)
(-3.51582e-09 1.40742e-09 5.37684e-08)
(3.30308e-09 -1.65828e-10 3.41792e-08)
(1.94403e-09 -4.07937e-09 8.48519e-08)
(6.15697e-09 6.95393e-09 2.30567e-07)
(1.19714e-09 8.00497e-10 1.83701e-07)
(-6.61763e-09 -3.39891e-09 3.45863e-08)
(-8.18031e-09 3.61861e-09 3.43695e-08)
(5.8048e-09 7.33033e-09 2.69877e-07)
(-1.93504e-08 -8.02894e-11 1.86214e-07)
(-2.48927e-09 -9.00321e-11 8.25534e-08)
(-5.14243e-09 -4.15132e-09 2.14163e-07)
(-2.86295e-09 5.70168e-09 1.48323e-07)
(-1.477e-09 -8.15892e-10 2.07659e-07)
(5.4114e-09 6.7707e-09 7.51135e-08)
(5.45658e-09 7.6113e-09 1.58023e-07)
(-2.39355e-09 9.94227e-10 2.28438e-07)
(1.81388e-10 5.02857e-09 2.15723e-07)
(-5.15322e-09 1.209e-08 3.48758e-07)
(-7.78501e-09 2.15511e-08 9.19146e-08)
(-5.83988e-09 -5.50393e-10 4.88225e-08)
(-3.30223e-08 4.57939e-09 2.03246e-07)
(-1.00657e-08 -7.78964e-11 5.49904e-08)
(-3.18053e-09 -5.39444e-09 3.3522e-07)
(-1.34822e-08 -1.65075e-09 5.16785e-08)
(9.58158e-10 -7.96771e-10 1.89594e-07)
(7.74958e-10 -1.00324e-09 2.37541e-07)
(3.15198e-09 7.05348e-09 3.70465e-07)
(-6.48996e-09 5.12131e-09 9.79114e-08)
(2.62446e-09 -1.2511e-08 2.04346e-07)
(-4.14521e-09 2.51677e-09 6.5538e-08)
(-1.04179e-08 -1.27969e-09 6.07908e-08)
(-2.59466e-09 -3.28718e-09 2.0375e-07)
(-6.29615e-09 -1.30133e-09 2.5762e-08)
(2.06186e-09 -2.80953e-09 1.49095e-07)
(-4.42384e-09 -3.99885e-09 1.14851e-07)
(1.38853e-09 1.92102e-09 2.88977e-07)
(-4.41967e-09 5.55309e-09 2.22485e-07)
(7.2853e-09 1.18631e-09 4.00938e-08)
(-7.51853e-09 -4.1385e-09 2.08106e-07)
(-1.35274e-09 -6.78329e-09 2.30627e-07)
(-3.91039e-09 7.85803e-09 5.86233e-08)
(-2.40698e-09 -7.17507e-10 2.38015e-07)
(-2.68107e-09 1.35399e-08 1.33381e-07)
(1.46348e-09 -1.11246e-08 2.68088e-07)
(-2.356e-09 1.22143e-09 1.73411e-07)
(7.16352e-09 1.7538e-09 1.12011e-07)
(-9.17202e-09 3.7866e-10 4.04841e-08)
(5.54382e-09 -1.5249e-08 1.60005e-07)
(-2.56819e-08 -4.18966e-09 2.50039e-07)
(8.15694e-10 1.83247e-09 3.1206e-07)
(8.90541e-09 7.01401e-09 1.39058e-07)
(3.24934e-09 -2.17241e-09 2.83888e-07)
(6.43013e-11 1.19204e-09 4.32067e-08)
(-1.92342e-09 1.50113e-09 1.52289e-07)
(-2.99137e-09 -1.91962e-10 5.05913e-08)
(1.18161e-09 1.18187e-08 2.84101e-07)
(4.98859e-09 5.41944e-09 3.06123e-07)
(1.47788e-09 -1.66309e-09 1.83353e-07)
(-4.99793e-09 -7.4333e-10 3.05496e-08)
(1.44744e-09 2.79768e-09 3.35742e-07)
(3.11037e-09 5.54009e-09 2.01423e-07)
(4.22069e-09 9.52809e-09 3.09459e-07)
(4.25315e-09 3.23223e-09 1.00706e-07)
(-1.77955e-08 -1.93608e-10 2.25849e-07)
(-2.96817e-09 9.7158e-10 2.37821e-07)
(-5.65412e-10 -1.03248e-08 1.27882e-07)
(3.41011e-10 -2.00633e-09 1.81728e-07)
(-2.81655e-08 4.65672e-09 2.15962e-07)
(6.56121e-10 1.63026e-09 2.1822e-07)
(-4.54881e-09 -8.57771e-09 6.42428e-08)
(-2.25201e-09 1.34967e-08 1.96279e-07)
(1.1201e-09 1.38681e-10 1.48311e-07)
(-1.09428e-10 1.6307e-09 2.42307e-07)
(-9.11892e-09 1.89011e-08 6.2035e-08)
(1.53141e-09 -6.72838e-09 2.90095e-07)
(1.72268e-08 -3.68593e-08 2.56282e-07)
(-5.70806e-09 8.1096e-09 4.41579e-08)
(1.87971e-09 -4.06847e-11 1.57054e-07)
(-1.31011e-08 2.34181e-09 1.60338e-07)
(4.11521e-09 -4.56676e-09 3.58132e-07)
(2.16858e-09 -3.68954e-11 1.61653e-07)
(9.71316e-10 8.7728e-10 1.44215e-07)
(2.07536e-09 2.82538e-09 2.48132e-07)
(7.49119e-10 7.12513e-09 3.00642e-07)
(8.2879e-09 9.04921e-09 1.18412e-07)
(5.96673e-09 2.5143e-08 1.55411e-07)
(4.34663e-09 -2.52388e-09 2.94069e-07)
(-1.27428e-08 2.4643e-09 2.31659e-07)
(2.72195e-09 -1.14575e-08 2.37394e-07)
(-1.40403e-09 2.35481e-09 2.16524e-07)
(2.48836e-09 -5.93202e-09 2.03752e-07)
(-1.95273e-09 -1.31908e-09 3.28721e-07)
(-2.77592e-09 1.0989e-10 1.6803e-07)
(-1.15891e-08 -2.71843e-09 2.6467e-07)
(-8.06295e-09 -5.54254e-09 2.95061e-07)
(2.18895e-10 1.35181e-08 7.75152e-08)
(-1.14581e-08 -1.69192e-09 2.64903e-07)
(-4.06655e-09 -6.39943e-09 8.08587e-08)
(3.49746e-09 4.76564e-09 2.79373e-07)
(-4.96737e-09 -1.98415e-09 2.60754e-07)
(1.02927e-08 5.59348e-10 2.45573e-07)
(-1.3412e-08 5.69208e-09 2.11944e-07)
(4.09976e-09 -3.24647e-09 3.189e-08)
(-2.31563e-09 -6.40166e-09 1.6884e-07)
(-5.34063e-09 -5.76484e-10 1.22512e-07)
(1.29963e-09 -1.50451e-09 2.06541e-07)
(-3.06046e-09 4.20652e-09 1.82308e-07)
(-1.31274e-08 -2.47426e-09 2.24788e-07)
(2.11241e-09 1.00368e-09 2.57724e-07)
(3.45175e-09 5.1437e-09 1.22168e-07)
(-9.33229e-09 2.87883e-09 1.36764e-07)
(-3.54138e-09 7.42526e-09 2.54665e-07)
(1.14158e-08 4.55312e-09 5.79222e-08)
(-6.85523e-10 1.51616e-09 1.87606e-07)
(-3.33782e-10 5.17297e-09 1.07554e-07)
(2.99231e-09 2.12877e-10 2.1427e-07)
(1.04465e-08 5.46485e-09 6.08398e-08)
(6.55223e-09 5.10625e-09 3.02987e-07)