/*--------------------------------*- C++ -*----------------------------------*\
| =========                 |                                                 |
| \\      /  F ield         | OpenFOAM: The Open Source CFD Toolbox           |
|  \\    /   O peration     | Version:  2406                                  |
|   \\  /    A nd           | Website:  www.openfoam.com                      |
|    \\/     M anipulation  |                                                 |
\*---------------------------------------------------------------------------*/
FoamFile
{
    version     2.0;
    format      ascii;
    arch        "LSB;label=32;scalar=64";
    class       volVectorField;
    location    "10";
    object      momentum:momentum;
}
// * * * * * * * * * * * * * * * * * * * * * * * * * * * * * * * * * * * * * //

dimensions      [1 1 -1 0 0 0 0];

internalField   nonuniform List<vector> 
59516
(
(2.8485e-07 1.31942e-08 -2.48255e-09)
(2.25507e-07 7.84677e-09 9.64861e-09)
(2.43311e-07 -3.49522e-09 3.46883e-09)
(1.80617e-07 5.03247e-09 -2.98142e-10)
(2.11877e-07 -9.98971e-10 -3.5132e-09)
(5.11593e-08 -2.57482e-09 -6.63718e-09)
(2.30838e-07 -6.58043e-09 -3.56145e-09)
(2.56414e-07 -5.76033e-09 -8.0671e-09)
(1.97737e-07 8.17695e-10 -2.93808e-09)
(1.345e-07 -4.88535e-09 1.52227e-08)
(1.7214e-07 -8.57701e-10 -2.14984e-10)
(1.47631e-07 -1.00253e-08 6.27685e-09)
(3.87654e-07 1.37104e-08 1.35001e-08)
(3.0064e-08 4.26883e-10 5.51932e-10)
(2.46997e-07 2.48249e-08 9.47475e-09)
(1.47554e-07 1.08459e-08 -1.05543e-08)
(2.1113e-07 -3.28119e-09 1.49635e-09)
(1.77774e-07 1.29312e-08 8.41709e-09)
(3.79228e-07 2.0669e-08 1.06791e-08)
(3.00527e-07 -2.70442e-09 2.17473e-09)
(1.31584e-07 3.09591e-09 -9.99684e-11)
(3.04707e-07 -2.3407e-09 -1.6679e-09)
(3.11634e-07 -5.7576e-09 3.18131e-09)
(6.84027e-08 -8.46571e-10 6.86136e-10)
(2.96591e-07 -4.66064e-09 4.58782e-09)
(3.45464e-07 -3.29712e-09 2.5729e-08)
(1.01672e-07 1.04466e-09 4.48613e-09)
(9.0078e-08 1.17914e-08 -7.35288e-09)
(1.9495e-07 4.20004e-09 7.52823e-09)
(2.55276e-08 -4.97266e-09 1.98857e-09)
(2.01664e-07 -2.56135e-08 -6.45529e-09)
(1.05075e-07 1.8705e-08 5.48758e-09)
(1.86115e-07 7.82124e-10 -6.96289e-10)
(2.15255e-07 -4.21749e-09 1.11696e-08)
(1.25108e-07 4.53254e-09 3.41722e-10)
(4.07799e-07 -8.20339e-11 -2.88991e-09)
(2.91064e-08 -3.54764e-10 -4.45183e-09)
(1.55005e-07 -1.76993e-09 -6.78155e-09)
(3.27769e-07 -9.30791e-09 -1.43027e-08)
(2.49686e-07 -1.02759e-08 8.30374e-09)
(3.43165e-07 -3.35473e-09 1.36034e-08)
(3.80089e-07 -5.76976e-09 -1.25344e-09)
(3.17144e-07 -3.53313e-09 -5.61667e-09)
(1.43824e-07 -5.0415e-09 4.99623e-09)
(2.61604e-07 -2.65616e-09 -5.54383e-09)
(1.87284e-07 -1.19607e-08 -1.51213e-08)
(3.33917e-07 -4.21092e-09 1.86649e-08)
(2.06839e-07 3.61158e-10 -2.2855e-09)
(2.67311e-07 -5.27466e-09 1.62715e-08)
(2.03662e-07 8.74944e-10 -2.41204e-10)
(1.68252e-07 9.47251e-09 -1.8492e-08)
(1.34053e-07 -6.35705e-09 6.8155e-09)
(3.91455e-07 8.37066e-09 -1.02034e-08)
(3.42378e-07 -1.11936e-09 -2.48e-09)
(1.41413e-07 8.47409e-09 -2.00371e-09)
(2.57626e-07 9.4895e-09 -6.73691e-09)
(1.74074e-07 1.78845e-09 9.96873e-10)
(1.49341e-07 4.71356e-09 -1.19707e-08)
(1.60729e-07 -5.41857e-09 -9.78851e-11)
(1.38419e-07 2.33107e-09 -8.27204e-10)
(1.94779e-07 -2.82805e-09 3.5407e-09)
(2.89314e-08 6.69365e-10 -1.04368e-09)
(2.14994e-07 -8.80871e-09 4.85975e-10)
(2.63216e-07 -1.46608e-10 -1.33382e-09)
(3.42749e-07 1.03152e-08 -3.88988e-11)
(1.88898e-07 3.83983e-10 -6.33606e-10)
(3.66304e-08 -1.23751e-09 3.36463e-09)
(1.24145e-07 4.79869e-09 -3.74366e-10)
(2.119e-07 1.68662e-09 2.29e-08)
(1.62176e-07 7.88779e-10 4.42013e-09)
(9.24165e-08 -4.21491e-10 -1.05901e-09)
(1.25942e-07 2.65367e-09 -1.74759e-09)
(5.06953e-08 5.67923e-09 -8.14289e-09)
(1.74071e-07 6.65514e-10 -3.1227e-09)
(2.77329e-07 -4.26294e-09 5.87684e-10)
(3.09954e-07 -4.61835e-10 2.09632e-09)
(1.72181e-07 1.60987e-09 -2.49108e-09)
(2.23709e-07 7.5802e-09 -2.12508e-09)
(1.41076e-07 -2.43458e-09 8.01036e-09)
(1.59005e-07 -1.3446e-09 -3.68758e-09)
(1.01399e-07 4.46424e-09 3.5241e-09)
(1.49372e-07 2.47717e-09 -1.59113e-10)
(1.64423e-07 -2.51603e-09 -5.85473e-10)
(4.00032e-08 -1.79651e-09 7.31618e-09)
(1.84519e-07 1.19578e-09 -1.39021e-09)
(2.83706e-07 -3.06779e-09 -1.98717e-09)
(6.07957e-08 -6.50193e-09 -3.86613e-10)
(4.64102e-07 -6.62825e-09 4.70134e-09)
(2.00882e-07 1.47729e-08 1.06978e-08)
(1.76661e-07 3.93961e-09 -3.50288e-09)
(1.78212e-07 -1.26888e-09 -2.91302e-09)
(1.8496e-07 -6.58963e-09 -1.72944e-09)
(1.96595e-07 1.59983e-09 3.12217e-09)
(1.72272e-07 -3.23386e-09 -1.84009e-09)
(1.45739e-07 -4.91864e-09 -5.748e-10)
(1.96677e-07 -6.8422e-09 3.93139e-09)
(1.23998e-07 2.22088e-10 2.95237e-09)
(1.36147e-07 -4.96103e-09 -7.40918e-09)
(1.46558e-07 5.32588e-09 3.8857e-10)
(1.95296e-07 3.13162e-09 2.27026e-09)
(1.27654e-07 7.0479e-09 6.13159e-09)
(5.58945e-08 4.84526e-09 -7.37944e-09)
(4.142e-08 5.27976e-09 6.17794e-09)
(1.36805e-07 -7.68458e-09 -5.39118e-10)
(2.55178e-07 -5.13725e-10 -7.33468e-10)
(1.48089e-07 -9.92686e-11 2.70514e-10)
(1.05357e-07 1.05601e-08 -5.52619e-11)
(1.74958e-07 8.05731e-10 -1.99523e-09)
(2.35537e-07 2.05389e-09 -1.30453e-08)
(2.82007e-07 3.68984e-09 -2.12734e-08)
(2.92934e-07 1.40302e-08 -8.57702e-09)
(9.45076e-08 1.20029e-08 -6.53183e-10)
(2.89683e-07 -1.6498e-09 -5.21503e-09)
(2.25278e-07 1.59805e-08 -8.9393e-09)
(1.85149e-07 -2.4511e-09 6.88012e-09)
(1.79346e-07 -3.13651e-10 -5.95162e-09)
(2.34801e-07 5.38856e-09 -1.83627e-08)
(1.43321e-07 -1.97654e-09 -1.17071e-09)
(3.02139e-08 4.42676e-09 1.307e-09)
(2.63363e-07 4.01526e-09 -3.92347e-10)
(3.03211e-07 3.81089e-09 -1.71669e-09)
(1.40046e-07 2.4646e-09 -5.58062e-10)
(1.45329e-07 5.37853e-10 -1.74569e-09)
(1.4308e-07 -1.04752e-10 -3.31173e-10)
(1.36801e-07 -3.76169e-09 -1.40474e-09)
(1.80761e-07 2.98013e-09 1.02451e-08)
(5.91369e-08 -3.48971e-09 8.65143e-09)
(2.11469e-07 -1.81883e-09 -5.19733e-09)
(1.77504e-07 1.62345e-09 2.72888e-08)
(1.15286e-07 -1.78787e-10 3.36863e-09)
(2.046e-07 -1.52391e-09 4.7959e-09)
(4.10605e-07 1.23121e-09 1.16328e-08)
(3.91051e-08 -1.76871e-09 -4.82081e-09)
(2.36016e-07 -3.3394e-09 3.13173e-09)
(3.8661e-07 -9.58613e-11 7.15478e-09)
(2.36315e-07 -2.6529e-09 1.3621e-09)
(1.55817e-07 1.47434e-08 -6.14036e-09)
(3.36204e-07 -5.2014e-09 7.62586e-11)
(1.06102e-07 8.84174e-09 2.23696e-10)
(2.00402e-07 8.90451e-09 -5.04721e-09)
(1.49349e-07 -3.77772e-09 -9.81249e-09)
(2.54672e-07 3.00484e-10 -4.05346e-09)
(2.48552e-08 2.27477e-09 3.18753e-09)
(1.69261e-07 -2.59294e-10 -3.88012e-09)
(1.54896e-07 1.13055e-09 1.63107e-09)
(2.62609e-07 7.15376e-09 1.08095e-09)
(2.05991e-07 -1.95313e-09 -1.93976e-09)
(2.26275e-07 4.91749e-09 2.9773e-09)
(6.86069e-08 -3.65367e-10 3.0002e-09)
(2.48092e-07 4.44625e-09 -7.15846e-09)
(3.71362e-07 1.49314e-09 -2.76583e-09)
(1.04042e-07 -7.64477e-09 -1.18913e-09)
(3.19123e-07 2.69557e-10 2.58738e-11)
(1.99861e-07 4.98887e-09 4.806e-09)
(1.95797e-07 -9.03704e-09 -4.81e-10)
(2.49021e-08 -2.34439e-09 4.26028e-09)
(3.47755e-07 1.71517e-09 -1.46525e-08)
(3.5516e-07 -5.7944e-09 -5.90013e-09)
(1.60279e-07 1.11368e-09 -4.26773e-10)
(2.80418e-08 5.89739e-10 -6.53429e-09)
(1.21749e-07 9.16056e-09 -9.01298e-10)
(1.50123e-07 -9.7832e-09 4.92484e-09)
(7.67312e-08 -1.3461e-08 1.51228e-09)
(4.05387e-08 -1.18998e-09 -1.50727e-09)
(2.19015e-07 -3.98918e-09 -1.66481e-09)
(2.68704e-07 -1.21173e-09 6.0628e-09)
(2.81512e-07 -7.646e-09 4.24647e-09)
(2.09601e-07 -7.8726e-10 2.0812e-09)
(2.42581e-08 1.38908e-09 6.56586e-09)
(2.01925e-07 2.60903e-09 5.22181e-09)
(1.15822e-07 2.66411e-09 -2.57133e-09)
(1.06894e-07 1.50133e-09 1.31777e-09)
(1.63906e-07 1.39035e-08 4.74673e-09)
(1.47006e-07 -1.53364e-09 -5.55416e-10)
(1.39613e-07 -2.75399e-09 -1.90785e-09)
(4.38974e-07 -5.34501e-09 1.76632e-08)
(1.939e-07 -1.34564e-09 -2.29082e-09)
(2.89706e-07 6.54347e-10 -6.98432e-09)
(2.35065e-07 -1.60923e-08 1.72198e-08)
(1.00377e-07 -3.62534e-09 8.76312e-09)
(2.93727e-07 7.17984e-09 4.50102e-09)
(8.03935e-08 -7.05421e-09 -1.54376e-09)
(5.78275e-08 -1.66699e-09 -2.59585e-09)
(1.62981e-07 -2.11789e-09 -7.79294e-09)
(1.53571e-07 1.47916e-09 4.2622e-09)
(1.73345e-07 -6.11952e-10 1.07482e-09)
(8.12361e-08 -6.95879e-10 -2.81573e-09)
(4.33591e-08 -4.86126e-09 2.15132e-09)
(2.10819e-07 1.03798e-09 2.75035e-09)
(2.98255e-07 1.21299e-08 7.34921e-09)
(1.589e-07 2.04892e-09 4.73561e-09)
(2.04001e-07 3.46726e-09 1.17474e-08)
(1.7157e-07 1.17763e-09 -8.95341e-10)
(1.54287e-07 6.2996e-09 -8.13565e-09)
(3.00589e-07 -6.14886e-09 -6.99737e-09)
(5.25073e-08 -7.8492e-10 3.32691e-09)
(1.56229e-07 4.54643e-09 -4.68821e-09)
(1.09496e-07 -3.42173e-10 -3.17438e-09)
(2.28645e-07 5.9559e-09 -1.63187e-09)
(2.34332e-07 -7.32847e-09 8.78794e-09)
(1.09775e-07 3.37537e-09 -1.51735e-09)
(1.44498e-07 2.17816e-09 -2.53897e-09)
(3.95826e-07 -9.05272e-10 -4.21142e-09)
(2.7518e-08 6.70961e-09 -1.08225e-09)
(2.58252e-07 -7.22356e-09 -1.8322e-09)
(2.43876e-07 2.99406e-09 -2.80153e-09)
(2.53537e-07 -1.14771e-09 -3.57882e-10)
(1.67322e-07 4.54259e-09 1.74646e-09)
(3.43567e-08 3.02844e-10 2.01912e-10)
(3.61682e-07 -2.11501e-09 4.12581e-09)
(1.1608e-07 7.76435e-09 -6.26749e-11)
(3.48996e-08 -1.06829e-08 -8.08107e-10)
(2.27242e-07 -8.85434e-10 2.42063e-09)
(1.59698e-07 -2.66577e-09 8.13117e-09)
(3.52762e-07 -3.0319e-09 -8.7013e-09)
(2.35529e-07 -5.76068e-09 -8.33976e-10)
(2.46556e-07 6.40775e-09 1.48387e-09)
(1.9119e-07 -5.08334e-11 1.35627e-09)
(1.38684e-07 6.7318e-09 2.99287e-09)
(1.92656e-07 -2.98323e-09 -4.79757e-09)
(1.99567e-07 2.31774e-08 9.22591e-09)
(2.19148e-07 1.10556e-08 5.08929e-09)
(1.44053e-07 1.68111e-09 1.77873e-09)
(1.26926e-07 2.41613e-09 3.70154e-09)
(2.31355e-07 -9.50066e-10 4.98376e-09)
(2.48215e-07 1.52585e-09 -2.56539e-09)
(5.8641e-08 -1.35751e-09 6.01017e-09)
(1.12047e-07 6.94763e-09 -5.24895e-09)
(1.5171e-07 -5.99155e-09 3.23357e-09)
(2.13265e-07 3.57827e-09 -5.62484e-09)
(1.92718e-07 -3.66677e-09 -1.17428e-09)
(1.43506e-07 3.56863e-09 -2.96776e-09)
(2.26298e-07 -2.39504e-09 8.08296e-09)
(4.86996e-08 -6.81683e-09 -1.99512e-09)
(6.2658e-08 6.57782e-09 -5.81229e-09)
(6.46822e-08 9.70994e-09 -4.59972e-09)
(1.64936e-07 2.52261e-09 4.87774e-09)
(2.34606e-07 -1.00005e-08 1.06014e-08)
(3.58135e-07 -4.56924e-09 1.44818e-08)
(1.71996e-07 -5.19657e-10 3.70535e-10)
(1.79713e-07 1.38625e-09 4.99143e-09)
(3.45436e-08 5.14608e-09 5.35114e-09)
(1.83001e-07 -1.04571e-08 -1.57441e-08)
(4.97948e-08 3.43223e-09 4.45395e-09)
(1.17252e-07 -1.04673e-09 4.10602e-09)
(2.03354e-07 -6.72889e-09 -2.11663e-10)
(1.80005e-07 -2.16875e-09 6.19756e-10)
(2.93331e-07 -1.13146e-08 -2.66685e-09)
(2.29912e-07 -1.35122e-09 -1.10736e-09)
(2.39357e-07 -2.66082e-09 1.26896e-09)
(3.242e-07 -7.25879e-09 1.8211e-08)
(2.08623e-07 -8.12422e-09 7.04181e-09)
(1.34289e-07 2.9608e-10 3.21029e-09)
(2.68201e-07 7.48899e-09 5.37941e-10)
(2.56278e-07 -7.17429e-09 -2.12761e-09)
(2.53711e-07 -3.12289e-09 -1.02691e-09)
(1.89142e-07 1.10744e-09 -7.80172e-10)
(2.50615e-07 -2.98126e-09 1.02405e-08)
(1.45424e-07 -5.48897e-09 -1.28908e-08)
(1.46208e-07 1.38531e-08 -9.51185e-10)
(2.42917e-07 -3.53712e-09 5.2037e-09)
(2.18458e-07 -1.15105e-08 -4.74025e-09)
(2.76473e-07 -5.42075e-09 6.73975e-09)
(2.19583e-07 -8.52611e-09 1.107e-09)
(9.06734e-08 1.54438e-09 2.42098e-10)
(1.93582e-07 3.90845e-09 7.61689e-10)
(2.71981e-07 1.26873e-08 -3.14496e-09)
(3.29194e-07 -1.33753e-08 -9.20205e-10)
(1.03452e-07 -2.37599e-09 -1.77805e-08)
(1.26023e-07 -1.66895e-09 -2.07234e-09)
(2.15581e-07 1.17706e-08 -6.74761e-09)
(1.47517e-07 -8.73319e-10 -1.91533e-09)
(4.45282e-07 6.83029e-09 -1.94682e-09)
(2.17957e-07 4.61282e-09 1.20478e-08)
(2.72494e-07 -1.1119e-08 -5.19437e-09)
(2.58297e-07 5.81885e-09 -6.58263e-10)
(3.15778e-08 6.12157e-09 -4.69119e-09)
(2.58164e-07 -9.62951e-09 -4.71369e-10)
(4.99394e-08 7.61006e-09 -6.31303e-09)
(1.01549e-07 -6.80197e-10 3.35942e-10)
(2.54738e-07 -2.16414e-09 7.73507e-09)
(2.47774e-07 -2.93697e-09 5.59543e-09)
(5.12996e-08 -2.37088e-09 1.05084e-08)
(3.49857e-07 -7.9582e-09 -1.39471e-08)
(2.79513e-07 -5.73025e-09 -5.15142e-09)
(1.9508e-07 1.53589e-09 -4.58099e-09)
(2.36182e-07 2.90621e-09 5.12433e-09)
(4.39798e-08 7.78318e-09 4.42431e-09)
(2.04109e-07 -5.86691e-09 4.93016e-09)
(1.01972e-07 -3.0041e-09 -1.04868e-09)
(1.21652e-07 2.14532e-10 3.18721e-09)
(2.52619e-07 8.03176e-09 5.86088e-09)
(1.6127e-07 -3.04255e-09 -1.72537e-09)
(2.40826e-07 2.72705e-09 5.82494e-09)
(2.13866e-07 -3.41287e-09 1.30146e-09)
(7.47245e-08 -5.07284e-09 -7.05789e-09)
(2.35208e-07 -4.34739e-09 -5.1253e-09)
(2.01099e-07 -4.52116e-09 -2.55687e-09)
(2.66934e-07 -2.69878e-09 4.53078e-09)
(2.05759e-07 -6.4188e-09 -2.11387e-09)
(3.82108e-07 -4.31494e-09 -1.47205e-08)
(2.54237e-07 -1.94752e-08 -5.01485e-10)
(3.65055e-08 3.24214e-09 3.80236e-09)
(5.81399e-08 -7.81315e-09 2.91815e-09)
(4.46915e-07 -5.87925e-09 5.79063e-09)
(3.72204e-08 -6.99687e-09 4.14249e-09)
(2.64348e-07 6.31752e-10 -1.5553e-08)
(1.15961e-07 1.0254e-08 -7.40171e-09)
(2.59617e-07 -7.59257e-09 -4.31979e-09)
(3.22758e-07 -1.37628e-09 2.22583e-09)
(3.16306e-07 -8.48326e-09 3.7815e-09)
(1.91304e-07 -3.07155e-09 -5.95965e-09)
(3.92629e-07 -3.60098e-09 -7.76848e-09)
(1.20907e-07 -1.25703e-08 2.40165e-09)
(1.21316e-07 3.67768e-09 1.62987e-08)
(1.6546e-07 -4.68019e-09 -4.52706e-09)
(2.04981e-07 5.93735e-09 -1.34608e-09)
(2.77868e-07 1.69769e-08 1.36757e-08)
(2.51903e-07 3.93603e-09 1.62086e-09)
(1.22152e-07 -1.93909e-09 2.02586e-09)
(1.62084e-07 -2.24326e-09 6.40653e-09)
(2.47498e-07 2.60557e-10 1.23685e-09)
(1.72491e-07 1.65876e-09 -2.83372e-11)
(3.13471e-07 4.18001e-09 -5.12989e-09)
(1.6894e-07 1.6137e-09 2.80516e-09)
(4.24327e-07 -1.48067e-08 -1.18478e-09)
(1.93143e-07 1.90599e-08 -1.04087e-09)
(3.55987e-07 -1.00788e-09 -5.59675e-09)
(2.1208e-07 -6.67415e-09 -2.53138e-09)
(1.65209e-07 -2.21433e-12 -3.33033e-11)
(2.95449e-07 -4.88482e-09 -4.3885e-11)
(1.46558e-07 1.05255e-08 -1.53362e-08)
(3.9017e-08 -8.56294e-09 -6.15622e-09)
(2.64814e-07 -2.47833e-09 -9.98053e-10)
(9.78516e-08 -3.7396e-09 1.81214e-09)
(4.58642e-08 5.0737e-09 -4.06319e-09)
(3.25724e-07 -6.79096e-09 1.28052e-08)
(1.90133e-07 4.6342e-09 2.84754e-09)
(1.43117e-07 5.45697e-09 4.84887e-09)
(1.95934e-07 2.89308e-09 3.14136e-09)
(2.75928e-07 6.41768e-10 1.35397e-09)
(3.19775e-07 4.20137e-09 -7.48135e-09)
(2.09559e-07 1.77236e-09 8.34937e-10)
(5.78042e-08 -3.5356e-10 1.61266e-09)
(2.89959e-07 -2.34943e-09 -4.98247e-09)
(1.61921e-07 -1.53859e-09 2.98162e-10)
(1.63403e-07 -3.64732e-09 4.22177e-09)
(2.15967e-07 -8.79986e-10 4.78246e-09)
(1.88988e-07 8.69459e-10 -1.30708e-09)
(1.76337e-07 -1.41229e-09 4.57557e-10)
(2.22756e-07 4.08556e-09 6.76541e-09)
(2.43402e-07 5.80084e-09 6.82712e-09)
(2.04586e-07 -3.72352e-09 -1.9434e-09)
(1.29086e-07 -4.26151e-09 -1.71297e-09)
(3.76545e-08 -1.32445e-09 2.34362e-09)
(8.28676e-08 -1.03956e-08 -1.08796e-09)
(2.99353e-07 5.64516e-09 5.17602e-09)
(2.93809e-07 -1.12829e-09 3.52386e-08)
(1.2491e-07 -4.14379e-09 -9.09512e-09)
(1.58384e-07 -9.52147e-10 -8.38851e-09)
(3.2261e-07 2.30808e-09 7.76671e-09)
(3.15678e-07 3.50255e-09 -9.11412e-09)
(1.81634e-07 6.23668e-10 -5.89589e-10)
(3.30635e-07 2.6214e-09 4.03805e-09)
(3.81823e-07 -2.46744e-09 -4.78851e-09)
(2.00457e-07 -1.60171e-09 -2.46463e-09)
(1.21371e-07 -1.75653e-09 -1.82765e-09)
(3.47824e-08 4.58447e-09 -3.38829e-10)
(2.54784e-07 -2.76847e-08 3.32147e-09)
(1.35594e-07 2.38561e-09 6.16841e-09)
(1.22827e-07 8.16401e-11 -9.54774e-09)
(1.31453e-07 2.00165e-09 -4.14891e-09)
(1.46411e-07 1.18853e-09 2.91737e-09)
(2.30736e-07 4.55779e-09 6.49016e-09)
(2.08175e-07 4.15233e-09 -3.61923e-10)
(2.55379e-08 3.30965e-09 -6.3451e-09)
(1.77223e-07 1.56268e-09 4.68418e-11)
(1.09634e-07 4.58396e-09 9.04477e-09)
(1.55817e-07 -5.42189e-10 -2.63129e-09)
(8.49249e-08 -4.86463e-09 -7.22318e-10)
(1.98558e-07 -5.34119e-09 2.31133e-08)
(2.74851e-07 1.46645e-09 7.72369e-09)
(1.48307e-07 -5.898e-10 4.68597e-09)
(3.66568e-08 4.29674e-09 -5.62397e-09)
(1.77554e-07 1.06155e-09 1.73953e-08)
(2.39287e-07 3.23055e-09 -3.34898e-09)
(4.89335e-08 -2.79133e-09 5.04564e-10)
(2.87302e-07 1.30086e-09 -6.04438e-09)
(2.07925e-07 2.64124e-09 -4.59298e-09)
(3.2463e-07 7.87293e-09 1.17177e-08)
(2.7365e-07 6.89135e-09 1.4186e-08)
(1.33177e-07 -4.95269e-09 5.20457e-09)
(3.49727e-07 1.1883e-08 -1.6463e-09)
(1.50507e-07 -8.85507e-09 -1.89668e-08)
(2.4254e-07 1.39816e-09 1.79312e-09)
(1.65066e-07 3.81259e-09 7.54731e-09)
(2.31515e-07 1.3295e-08 1.78352e-08)
(2.58717e-07 -3.73907e-09 2.37463e-09)
(2.06299e-07 -2.21772e-09 1.5437e-09)
(4.29209e-07 3.45027e-09 2.68536e-09)
(1.18433e-07 1.09701e-09 -6.46599e-09)
(3.62759e-07 -2.2549e-09 3.85946e-09)
(1.55476e-07 -1.85568e-09 2.46037e-10)
(3.31519e-07 -6.92659e-10 -9.35897e-11)
(2.47178e-07 -1.14059e-09 2.90913e-09)
(1.29731e-07 1.95505e-09 -7.49995e-10)
(2.36815e-07 -1.8496e-09 -2.85066e-09)
(3.73558e-07 3.45693e-09 -5.94191e-09)
(2.17463e-07 -3.20074e-09 -1.24779e-09)
(1.93555e-07 -2.98664e-09 -5.69263e-10)
(5.52377e-08 2.84684e-09 -5.85422e-09)
(3.69693e-08 -2.29825e-09 -8.19232e-09)
(3.24723e-07 -4.25391e-09 -2.82097e-09)
(2.24422e-07 4.91879e-09 2.40917e-09)
(1.68828e-07 1.51359e-09 -5.57429e-09)
(6.31774e-08 5.4921e-09 -3.5444e-09)
(6.88996e-08 6.21461e-10 -1.73841e-09)
(4.11017e-07 -1.2154e-08 1.84598e-08)
(1.2527e-07 3.50423e-09 2.87822e-10)
(2.43482e-07 2.29506e-09 -1.23736e-09)
(2.13203e-07 -4.08009e-10 1.14093e-09)
(1.72303e-07 1.44412e-09 3.50945e-09)
(1.88284e-07 8.0471e-10 2.67215e-09)
(1.61913e-07 -4.00702e-09 -5.91016e-09)
(1.55919e-07 1.73236e-09 3.11119e-10)
(1.39424e-07 6.85252e-09 8.55816e-10)
(2.33369e-07 -9.57025e-09 -6.78496e-10)
(2.46423e-07 1.42926e-09 -4.21467e-09)
(1.83687e-07 -1.60869e-09 -4.33239e-09)
(1.66702e-07 2.64377e-09 9.96689e-10)
(3.32155e-07 -2.12636e-09 -4.7464e-09)
(2.5121e-07 5.48806e-09 2.81636e-09)
(1.09575e-07 8.01752e-09 2.97485e-10)
(9.09239e-08 1.12441e-09 1.03897e-08)
(3.07017e-08 5.0111e-09 -5.53332e-09)
(1.86509e-07 7.89599e-10 6.23925e-11)
(2.19245e-07 -1.19705e-09 -1.14019e-09)
(2.62818e-07 1.85568e-09 -3.41866e-09)
(2.14485e-07 2.02408e-09 8.50014e-10)
(6.32875e-08 1.6154e-09 1.83004e-09)
(3.52772e-08 -1.38132e-09 1.1137e-09)
(2.24581e-07 6.72899e-09 1.37256e-09)
(2.02599e-07 -2.71216e-09 -1.68811e-09)
(2.39162e-07 2.30714e-09 1.40747e-09)
(2.98745e-07 -1.62163e-09 -4.9982e-09)
(2.12001e-07 5.69729e-10 -4.37305e-09)
(2.52425e-07 3.87644e-09 1.7427e-09)
(4.0736e-07 2.72421e-09 -6.47851e-09)
(5.35418e-08 -1.08812e-10 8.03416e-09)
(2.13613e-07 -3.31415e-09 4.40977e-09)
(1.20115e-07 -2.27298e-10 3.71992e-09)
(1.11267e-07 -1.0251e-08 -6.38048e-10)
(1.14856e-07 -6.96171e-10 -1.10947e-09)
(2.1844e-07 -8.61521e-09 7.72324e-10)
(2.40992e-07 3.66475e-09 -5.32356e-09)
(3.28075e-08 -4.38172e-09 -7.15752e-09)
(2.7339e-07 2.57908e-09 1.4917e-09)
(2.06051e-07 -9.39478e-10 -3.98358e-09)
(1.55485e-07 -6.29018e-10 3.43313e-10)
(3.18223e-07 8.08383e-09 5.87105e-09)
(1.43848e-07 -1.07331e-09 -1.78103e-09)
(1.97212e-07 4.24264e-09 -1.87885e-09)
(2.74917e-07 -3.76672e-09 7.80961e-09)
(2.13915e-07 -3.28252e-09 7.20656e-10)
(2.00772e-07 9.88751e-09 1.77325e-09)
(2.13338e-07 -6.18204e-09 -4.2242e-11)
(2.74665e-07 -3.93849e-09 6.46462e-09)
(3.58795e-08 -4.3258e-09 -1.18566e-09)
(2.34525e-07 -3.59336e-09 -7.44337e-09)
(2.28281e-07 -6.39872e-09 -1.72907e-09)
(1.27496e-07 -7.41975e-10 9.74239e-09)
(2.3891e-07 6.30766e-09 -7.88781e-10)
(2.78254e-07 -1.06632e-10 -4.97797e-09)
(2.51989e-07 -8.50173e-10 -3.78083e-09)
(1.73909e-07 -4.53257e-09 -1.63396e-09)
(3.66466e-08 2.58085e-09 -4.78353e-09)
(2.03599e-07 1.40636e-09 2.00258e-09)
(3.99999e-07 1.74321e-10 3.41261e-09)
(2.12914e-07 1.82525e-09 1.26577e-09)
(2.13659e-07 8.86281e-09 1.30595e-09)
(1.09188e-07 7.82025e-09 2.95173e-09)
(2.49834e-07 7.89281e-09 -1.74486e-09)
(3.76325e-08 8.45607e-09 -3.80958e-09)
(1.39815e-07 3.00921e-09 -8.71684e-10)
(2.09562e-07 1.78977e-08 -4.21672e-09)
(1.97701e-07 5.13193e-09 -2.64153e-09)
(1.41203e-07 -5.86871e-10 4.57592e-09)
(2.39287e-07 3.65201e-09 -8.70625e-09)
(1.61068e-07 6.16808e-09 -6.17563e-09)
(8.37187e-08 1.02315e-08 6.95556e-09)
(3.33925e-07 1.67759e-09 3.58368e-10)
(1.56084e-07 5.22727e-09 -3.99514e-10)
(3.27e-08 2.06085e-09 4.5999e-09)
(2.26765e-07 1.73548e-09 7.08323e-10)
(1.93293e-07 -5.31568e-09 -4.14171e-10)
(7.10795e-08 1.39171e-11 5.2119e-10)
(2.09602e-07 1.6902e-08 9.64089e-10)
(1.74188e-07 1.01472e-09 1.65544e-09)
(1.65724e-07 7.89054e-10 -2.71944e-10)
(1.89828e-07 -8.64855e-09 3.99025e-10)
(4.64198e-08 -8.4894e-10 2.70414e-09)
(1.66721e-07 -8.35554e-10 -9.56853e-09)
(1.79901e-07 4.27121e-09 -7.74938e-09)
(2.12155e-07 9.40398e-09 5.04219e-09)
(2.43569e-07 -1.00552e-08 8.23146e-10)
(4.31878e-08 3.52127e-10 -8.8925e-09)
(3.26937e-07 -1.01274e-08 -4.35694e-09)
(2.084e-07 4.73679e-09 -6.18933e-09)
(1.99029e-07 5.39421e-09 -1.21812e-09)
(1.14735e-07 6.89436e-09 -4.65401e-09)
(2.76784e-07 1.77123e-09 -2.71688e-09)
(4.47225e-08 -2.21841e-09 -9.80857e-09)
(2.36136e-07 -5.2167e-10 -5.06118e-10)
(4.63259e-08 -1.30454e-09 1.37792e-09)
(1.94752e-07 -2.6889e-08 -4.3019e-09)
(1.97981e-07 3.23379e-09 2.53466e-09)
(2.10883e-07 -1.02456e-08 3.84434e-09)
(3.38415e-08 7.60157e-09 6.60377e-09)
(8.92473e-08 6.32214e-09 -1.18836e-08)
(1.32992e-07 -1.83495e-08 3.35612e-09)
(2.06972e-07 2.06296e-08 -1.60901e-09)
(3.02637e-07 -1.99041e-09 -5.57538e-09)
(9.9464e-08 -4.24938e-09 -6.66647e-09)
(2.47338e-07 5.44219e-09 1.36469e-09)
(2.28129e-07 -1.01538e-09 -1.36601e-08)
(1.60857e-07 4.28789e-09 -6.74905e-10)
(4.61713e-08 4.47863e-09 -3.5777e-09)
(3.03084e-07 -7.24829e-09 3.67026e-09)
(1.61514e-07 1.50647e-08 9.22562e-09)
(1.6236e-07 -1.87476e-10 -3.32002e-09)
(1.47062e-07 2.70088e-09 -1.78306e-09)
(1.36981e-07 4.46568e-09 -2.34787e-09)
(1.77243e-07 -1.95658e-08 9.85916e-10)
(1.83931e-07 1.81303e-09 4.08248e-09)
(1.17563e-07 4.3487e-11 9.2003e-10)
(1.07001e-07 1.53684e-08 -1.16388e-08)
(2.4203e-07 -2.16011e-09 -2.66689e-09)
(6.54184e-08 7.35161e-09 3.88353e-09)
(3.00133e-08 3.90056e-09 3.69813e-09)
(3.07534e-07 4.10843e-09 8.85865e-10)
(1.3839e-07 1.9994e-09 1.37297e-09)
(3.02216e-07 -2.95929e-09 7.05168e-09)
(2.5891e-07 1.32663e-08 -7.07728e-09)
(3.51006e-07 -4.79095e-09 -2.63495e-09)
(2.14583e-07 3.44822e-09 -1.7544e-08)
(3.42467e-07 -1.26247e-09 -4.98753e-09)
(1.36388e-07 1.32807e-09 9.97675e-09)
(1.14807e-07 1.06656e-09 -1.22263e-09)
(3.4234e-07 1.62339e-09 -1.35294e-08)
(5.52322e-08 5.13958e-09 -1.48194e-08)
(2.83652e-07 -2.5671e-09 5.21352e-10)
(2.14731e-07 6.69393e-09 1.18685e-08)
(5.18674e-08 -9.48022e-09 -1.01283e-08)
(2.73138e-07 5.28837e-09 -7.63703e-10)
(1.03273e-07 -1.50765e-09 1.84598e-09)
(1.99237e-07 -6.66661e-10 -2.03019e-09)
(1.6407e-07 -1.13361e-09 -3.15407e-09)
(3.8629e-07 1.67996e-08 7.45455e-09)
(1.92358e-07 -1.79593e-08 -3.39642e-09)
(2.224e-07 -1.50162e-10 -1.65372e-09)
(2.20061e-07 3.50313e-09 1.87195e-09)
(2.48902e-07 -2.61993e-09 -1.06415e-09)
(2.57754e-07 -8.3882e-11 -3.75495e-09)
(2.16616e-07 3.5836e-09 -2.31471e-09)
(1.23234e-07 2.01903e-09 -8.34361e-10)
(8.68374e-08 -8.5959e-09 -2.20102e-09)
(1.17072e-07 7.38961e-10 -7.59366e-09)
(1.39354e-07 3.89619e-10 2.50867e-10)
(2.43123e-07 -2.82211e-09 -3.23411e-09)
(5.77682e-08 -9.04174e-09 -2.37145e-09)
(2.09876e-07 3.27244e-09 -4.49137e-09)
(3.83667e-07 -4.7876e-09 1.013e-09)
(2.8342e-07 -1.21507e-09 2.64779e-09)
(2.88575e-07 -1.07004e-09 -1.38072e-09)
(3.01028e-07 1.30182e-08 -2.35038e-09)
(3.07151e-08 2.38259e-09 5.49954e-09)
(1.84252e-07 -3.16816e-09 -8.50813e-10)
(1.84252e-07 -6.80481e-09 -5.63351e-09)
(2.27261e-07 -2.43708e-09 -3.99271e-10)
(2.25449e-07 2.26409e-09 -7.63525e-09)
(7.1341e-08 9.08611e-09 -3.80529e-09)
(1.59022e-07 3.68497e-09 -1.69191e-09)
(2.05982e-07 -2.69908e-09 -9.7459e-09)
(2.68329e-07 -3.84056e-09 -4.68952e-09)
(1.99076e-07 -4.60402e-09 -2.52043e-09)
(2.0215e-07 4.28475e-09 6.77425e-10)
(2.28676e-08 2.29903e-09 -4.86449e-09)
(3.41044e-08 -3.48014e-09 -6.47196e-09)
(1.36878e-07 -4.60127e-09 -1.82062e-09)
(2.34465e-07 7.23486e-09 -1.05925e-09)
(1.66302e-07 4.22092e-10 -1.22008e-09)
(1.57253e-07 2.36386e-09 -7.88171e-10)
(2.2912e-07 7.42289e-09 1.62713e-09)
(2.32642e-07 -2.09409e-09 9.46008e-11)
(2.28e-07 1.29344e-09 -7.58962e-09)
(3.29451e-08 8.65039e-10 1.11404e-09)
(1.06539e-07 -4.19858e-09 -2.02566e-09)
(1.76345e-07 -1.27469e-09 -3.98814e-09)
(8.73515e-08 -6.20964e-09 6.09033e-09)
(1.34295e-07 -1.23603e-08 -8.02344e-10)
(3.10155e-07 -6.65774e-09 4.86497e-10)
(2.14227e-07 -4.64506e-09 -5.63528e-09)
(2.12313e-07 1.05526e-10 -6.16918e-09)
(2.81041e-07 -1.74025e-09 -4.80737e-09)
(1.86744e-07 -2.29283e-09 -2.4286e-09)
(2.54861e-07 1.01977e-09 -5.2403e-09)
(2.55209e-07 2.99344e-09 -5.33914e-10)
(3.45331e-07 9.42686e-09 1.82252e-10)
(1.70314e-07 -3.32122e-09 -2.16344e-09)
(1.77248e-07 -4.82562e-09 7.76384e-09)
(2.39166e-07 -2.28511e-10 -6.55575e-09)
(8.69093e-08 -1.08083e-08 9.61118e-09)
(4.79553e-07 4.78247e-09 -1.21969e-08)
(6.72087e-08 1.11659e-10 -2.84804e-09)
(1.59468e-07 -1.05937e-08 3.76844e-09)
(1.77999e-07 -2.33309e-09 1.7514e-08)
(1.62214e-07 -1.06368e-09 -7.6548e-09)
(2.34449e-07 -2.56007e-09 3.04737e-09)
(3.14223e-07 -2.78694e-08 -1.06907e-08)
(1.08919e-07 1.00063e-09 9.05625e-10)
(2.70936e-07 5.1491e-10 4.29049e-10)
(2.90894e-07 7.50117e-09 -1.2018e-09)
(1.68865e-07 8.04641e-10 2.7748e-09)
(6.10098e-08 6.51332e-09 -4.2647e-09)
(1.19658e-07 -2.62409e-09 -1.3865e-09)
(2.1981e-07 -2.98439e-10 -2.09805e-08)
(1.64457e-07 1.31737e-09 4.00211e-09)
(1.18575e-07 -2.86099e-09 2.03966e-09)
(2.17614e-07 -5.95569e-09 -4.82745e-09)
(1.96684e-07 2.1723e-09 3.49683e-10)
(4.04434e-07 -2.93157e-09 -7.40581e-09)
(8.87795e-08 -6.24412e-09 2.09136e-09)
(8.49959e-08 3.07777e-09 7.57285e-09)
(5.37684e-08 -1.67199e-09 -3.39798e-09)
(3.41792e-08 -2.11397e-09 -2.54341e-09)
(8.48519e-08 -2.89185e-09 -3.47242e-09)
(2.30567e-07 8.72012e-09 3.19767e-09)
(1.83701e-07 7.4531e-10 -1.23225e-09)
(3.45863e-08 8.71299e-10 7.38827e-09)
(3.43695e-08 5.9516e-09 6.67758e-09)
(2.69877e-07 9.34997e-09 -8.66333e-11)
(1.86214e-07 -1.79963e-08 7.11173e-09)
(8.25534e-08 2.21794e-09 1.13371e-09)
(2.14163e-07 5.28237e-09 -3.97173e-09)
(1.48323e-07 -6.01372e-09 -2.13093e-09)
(2.07659e-07 1.0013e-09 -1.35816e-09)
(7.51135e-08 7.18789e-09 -4.84353e-09)
(1.58023e-07 -8.87917e-09 2.97768e-09)
(2.28438e-07 -6.98014e-10 -2.49607e-09)
(2.15723e-07 4.79422e-09 -1.52802e-09)
(3.48758e-07 1.08621e-08 -7.39844e-09)
(9.19146e-08 1.87088e-08 -1.32301e-08)
(4.88225e-08 9.99821e-10 5.77992e-09)
(2.03246e-07 -2.90748e-08 -1.63126e-08)
(5.49904e-08 -8.32757e-09 -5.65478e-09)
(3.3522e-07 6.01014e-09 1.75896e-09)
(5.16785e-08 3.14667e-09 -1.32134e-08)
(1.89594e-07 1.21391e-09 -2.8167e-10)
(2.37541e-07 5.91039e-10 -1.12148e-09)
(3.70465e-07 -7.38374e-09 2.27309e-09)
(9.79114e-08 -7.7034e-09 -3.00082e-09)
(2.04346e-07 -1.13559e-08 -5.87001e-09)
(6.5538e-08 2.05679e-10 -4.84506e-09)
(6.07908e-08 1.00593e-08 -2.99675e-09)
(2.0375e-07 -3.92812e-09 -1.45179e-09)
(2.5762e-08 5.04527e-10 -6.4094e-09)
(1.49095e-07 -3.10873e-09 1.57497e-09)
(1.14851e-07 -1.37466e-09 -5.80271e-09)
(2.88977e-07 -1.89699e-09 1.42119e-09)
(2.22485e-07 -5.98127e-09 -3.82031e-09)
(4.00938e-08 4.19647e-10 7.36932e-09)
(2.08106e-07 -6.12403e-09 6.01263e-09)
(2.30627e-07 -4.90823e-09 -4.87362e-09)
(5.86233e-08 -8.25451e-09 -2.98376e-09)
(2.38015e-07 -6.65283e-10 2.42194e-09)
(1.33381e-07 -5.67474e-09 1.25823e-08)
(2.68088e-07 -4.15819e-09 -1.04215e-08)
(1.73411e-07 2.47528e-09 -9.56858e-10)
(1.12011e-07 4.79983e-09 5.59941e-09)
(4.04841e-08 6.8473e-10 -9.15426e-09)
(1.60005e-07 6.32885e-09 1.49403e-08)
(2.50039e-07 2.41776e-08 9.62076e-09)
(3.1206e-07 8.60477e-10 -1.81188e-09)
(1.39058e-07 1.35599e-09 1.12545e-08)
(2.83888e-07 2.49178e-09 3.01142e-09)
(4.32067e-08 -1.15009e-09 3.19966e-10)
(1.52289e-07 2.37216e-09 -5.70792e-10)
(5.05913e-08 2.63292e-09 1.43279e-09)
(2.84101e-07 -1.11648e-08 4.05269e-09)
(3.06123e-07 -6.29846e-09 3.81914e-09)
(1.83353e-07 9.71681e-10 2.00146e-09)
(3.05496e-08 5.04059e-09 3.52654e-10)
(3.35742e-07 -3.12143e-09 -4.22815e-10)
(2.01423e-07 1.6745e-09 -6.12887e-09)
(3.09459e-07 9.65335e-09 3.92576e-09)
(1.00706e-07 -5.18432e-09 1.28817e-09)
(2.25849e-07 -1.61225e-08 7.53524e-09)
(2.37821e-07 -2.81489e-09 -1.35293e-09)
(1.27882e-07 -6.9206e-09 -7.68281e-09)
(1.81728e-07 -1.75143e-09 -1.0364e-09)
(2.15962e-07 1.42161e-09 -2.85125e-08)
(2.1822e-07 -1.54404e-09 8.39151e-10)
(6.42428e-08 3.31095e-09 -9.12723e-09)
(1.96279e-07 -6.36871e-09 -1.21108e-08)
(1.48311e-07 1.30142e-10 1.12113e-09)
(2.42307e-07 -1.54403e-09 5.35852e-10)
(6.2035e-08 2.07902e-08 2.8596e-09)
(2.90095e-07 5.90788e-09 -3.56556e-09)
(2.56282e-07 -3.53742e-08 2.01006e-08)
(4.41579e-08 -7.64726e-09 6.31403e-09)
(1.57054e-07 -6.96942e-11 1.87886e-09)
(1.60338e-07 2.24931e-11 1.33087e-08)
(3.58132e-07 5.98996e-09 1.38225e-09)
(1.61653e-07 1.77723e-10 2.1616e-09)
(1.44215e-07 -5.41504e-10 1.19157e-09)
(2.48132e-07 1.8738e-09 -2.96289e-09)
(3.00642e-07 7.0281e-11 7.16406e-09)
(1.18412e-07 8.33837e-09 9.00272e-09)
(1.55411e-07 -2.41311e-08 -9.24454e-09)
(2.94069e-07 4.53921e-09 -2.15842e-09)
(2.31659e-07 -7.19751e-09 1.08004e-08)
(2.37394e-07 1.17737e-08 -2.50688e-10)
(2.16524e-07 1.82884e-09 -2.04249e-09)
(2.03752e-07 6.15243e-09 -1.87843e-09)
(3.28721e-07 -2.15062e-09 -9.63303e-10)
(1.6803e-07 2.77426e-09 -1.45882e-10)
(2.6467e-07 -8.33344e-09 -8.50012e-09)
(2.95061e-07 7.23017e-10 9.75747e-09)
(7.75152e-08 -5.43047e-09 -1.23813e-08)
(2.64903e-07 6.3546e-09 -9.6835e-09)
(8.08587e-08 1.38254e-10 -7.58093e-09)
(2.79373e-07 -3.55914e-09 -4.71975e-09)
(2.60754e-07 -1.39249e-10 5.34717e-09)
(2.45573e-07 -9.05421e-09 -4.92694e-09)
(2.11944e-07 -1.29044e-08 -6.76438e-09)
(3.189e-08 5.19233e-09 6.22407e-10)
(1.6884e-07 -5.98037e-09 -3.25247e-09)
(1.22512e-07 -4.52429e-09 -2.89577e-09)
(2.06541e-07 7.40912e-10 1.8449e-09)
(1.82308e-07 3.82418e-09 -3.52659e-09)
(2.24788e-07 -1.20715e-08 5.72109e-09)
(2.57724e-07 2.13887e-09 -9.45977e-10)
(1.22168e-07 -5.71651e-09 2.38616e-09)
(1.36764e-07 -5.56622e-10 9.75036e-09)
(2.54665e-07 6.30299e-09 -5.28659e-09)
(5.79222e-08 -1.22884e-08 -2.19416e-10)
(1.87606e-07 1.0585e-09 -1.28385e-09)
(1.07554e-07 5.144e-09 -6.40575e-10)
(2.1427e-07 1.9694e-10 -2.9934e-09)
(6.08398e-08 7.4902e-09 9.1044e-09)
(3.02987e-07 7.89992e-09 -2.56841e-09)