/*--------------------------------*- C++ -*----------------------------------*\
| =========                 |                                                 |
| \\      /  F ield         | OpenFOAM: The Open Source CFD Toolbox           |
|  \\    /   O peration     | Version:  2406                                  |
|   \\  /    A nd           | Website:  www.openfoam.com                      |
|    \\/     M anipulation  |                                                 |
\*---------------------------------------------------------------------------*/
FoamFile
{
    version     2.0;
    format      ascii;
    arch        "LSB;label=32;scalar=64";
    class       volScalarField;
    location    "10";
    object      nut;
}
// * * * * * * * * * * * * * * * * * * * * * * * * * * * * * * * * * * * * * //

dimensions      [0 2 -1 0 0 0 0];

internalField   nonuniform List<scalar> 
59516
(
0.000308739
0.000318506
0.000516838
0.000764293
0.00177929
0.000189476
0.000665871
0.000319473
0.000420859
0.000194126
0.00205625
0.000173571
0.000393391
0.000220445
0.00020527
0.000172778
0.00174175
0.000174403
0.000410199
0.00150196
0.000226984
0.00110869
0.00118973
0.000227503
0.00133007
0.000210035
0.000214292
0.000241136
0.00020943
0.000191801
0.000315202
0.000236206
0.000833798
0.000518221
0.00101999
0.000894817
0.000196436
0.000169421
0.00022045
0.00120666
0.000311803
0.00125305
0.00102308
0.00041777
0.000995313
0.000165598
0.000619952
0.00174015
0.00112365
0.00153127
0.000653349
0.000220709
0.00048477
0.000555024
0.000258723
0.000605057
0.00168029
0.000253341
0.00185143
0.000913042
0.00103714
0.000218197
0.00166321
0.0016172
0.000586586
0.00120542
0.000278945
0.000213462
0.000739949
0.000833444
0.000296902
0.00162448
0.000245518
0.000879196
0.00180893
0.00134355
0.00172517
0.00110934
0.000211782
0.00166992
0.000215082
0.00136748
0.000982627
0.000227842
0.00127668
0.0017143
0.000206537
0.00106343
0.000177608
0.000251632
0.00178781
0.00098463
0.001823
0.00103721
0.00167298
0.00143647
0.00115874
0.000168377
0.000182685
0.001148
0.000246843
0.000245597
0.000232436
0.000171886
0.000854889
0.00101046
0.00023484
0.000402084
0.000344403
0.000212762
0.000685516
0.000267865
0.000208952
0.000385381
0.00118946
0.000304207
0.000177512
0.000932729
0.000223897
0.00101966
0.00207067
0.00187556
0.00136306
0.00177025
0.00103511
0.000211566
0.000259688
0.000997879
0.00030992
0.00183853
0.0017759
0.000403694
0.00021103
0.00108263
0.000256532
0.000420646
0.000268037
0.000656355
0.000235417
0.00029738
0.000229207
0.00188921
0.000187293
0.000739822
0.00198736
0.000936531
0.000911565
0.000475094
0.000259328
0.000368461
0.000267255
0.000200826
0.00158042
0.00114146
0.000222392
0.000195683
0.000485469
0.000428938
0.000187005
0.000203856
0.000251665
0.000244365
0.000218162
0.000245084
0.000287
0.001547
0.000193841
0.00178441
0.000191752
0.000952765
0.000211203
0.000158123
0.000192602
0.000987456
0.000198181
0.000671754
0.00169871
0.00125121
0.000240504
0.000185504
0.00106319
0.000192385
0.000278473
0.00017462
0.00200315
0.000165483
0.000177284
0.000213143
0.000547887
0.000293849
0.000809136
0.000156437
0.00135506
0.000141996
0.00125638
0.000170719
0.0001775
0.000186116
0.00049338
0.00110471
0.000258388
0.00216431
0.000285107
0.000193127
0.000715766
0.000938625
0.00181957
0.00144754
0.000216275
0.000456962
0.000177996
0.00023263
0.00105474
0.000178569
0.000485841
0.00163296
0.000905372
0.00134571
0.000174191
0.00138287
0.000188029
0.000353014
0.00177108
0.000250201
0.00170296
0.0017001
0.00025963
0.00022218
0.00178466
0.000171778
0.00177897
0.00168259
0.0020346
0.000231062
0.000210595
0.000182116
0.000167199
0.000331015
0.00136146
0.000199723
0.00179995
0.000227929
0.000167542
0.000252691
0.00207018
0.000198665
0.00112193
0.000209472
0.00161319
0.000345484
0.00145349
0.000984015
0.00211544
0.00109228
0.00102481
0.00130283
0.0001684
0.00126568
0.000217268
0.000200585
0.000768179
0.00139603
0.000437377
0.00170853
0.000356328
0.000158257
0.00143641
0.000219091
0.000270945
0.000147803
0.00028676
0.00173568
0.000231672
0.000227379
0.00160966
0.000229318
0.000203539
0.00139559
0.000234572
0.000210918
0.0019825
0.000914567
0.000255297
0.000497499
0.000629539
0.00148657
0.00209528
0.000263969
0.00199219
0.00212946
0.00200789
0.000782146
0.00108958
0.000236313
0.00170284
0.000273934
0.00147216
0.00098811
0.00211705
0.001601
0.000427473
0.000173397
0.00022455
0.000244682
0.00137586
0.000221914
0.000240495
0.000179009
0.00161828
0.00132615
0.00109284
0.000183611
0.000311883
0.000233572
0.000161299
0.00169638
0.000255891
0.0013394
0.000244597
0.000198412
0.000231869
0.000339402
0.00187173
0.00215295
0.00192488
0.0013911
0.00024515
0.000688777
0.00178776
0.00153033
0.00161992
0.000177325
0.000226721
0.00126232
0.000212653
0.000208158
0.0015705
0.00102885
0.00017078
0.00195955
0.00154621
0.00209931
0.00166533
0.000196807
0.00122338
0.00192854
0.000178212
0.00200297
0.00202176
0.000799315
0.000674621
0.00132703
0.00112272
0.0001617
0.000217619
0.000227385
0.000260438
0.000209838
0.000296608
0.000189173
0.00045832
0.000657969
0.00184635
0.00123034
0.000718064
0.00136438
0.00126967
0.000204477
0.000392093
0.000188318
0.000200609
0.000211997
0.00157133
0.000254114
0.00147759
0.000196297
0.000734204
0.00022287
0.00169519
0.000141849
0.000190366
0.00031705
0.00210019
0.000236258
0.000180032
0.000884505
0.000222379
0.000717446
0.000462841
0.000717106
0.000260754
0.000282578
0.00143825
0.000176074
0.00192119
0.000324845
0.000187363
0.000216208
0.00183684
0.00176977
0.000155199
0.000662307
0.000319688
0.00201347
0.00198725
0.000251457
0.000730029
0.00106948
0.00114634
0.00138253
0.000249251
0.000221618
0.000726823
0.00191921
0.00202525
0.000213524
0.00181897
0.000301411
0.00201131
0.00177935
0.00191878
0.00185287
0.00176155
0.000255239
0.00197989
0.000197348
0.00170508
0.00036329
0.00143847
0.00183387
0.000994009
0.0011143
0.000197174
0.000207109
0.000204602
0.00194613
0.00207361
0.00092265
0.000630136
0.000194134
0.000218604
0.000515805
0.00121234
0.00199244
0.00129025
0.000815718
0.00196024
0.000791024
0.000257924
0.000586238
0.00019894
0.000288957
0.00125826
0.000238856
0.000998889
0.000222483
0.00164903
0.00187363
0.00200125
0.000205764
0.00137801
0.00172648
0.000599298
0.00204908
0.000258536
0.00168363
0.00114877
0.000214808
0.00190467
0.000529511
0.000245673
0.000240598
0.00166718
0.000689063
0.000209237
0.00022035
0.00174259
0.000619457
0.00129981
0.000641148
0.000189531
0.000931456
0.000233656
0.0014949
0.000883608
0.00167518
0.000258877
0.000421742
0.000302826
0.000162277
0.00202774
0.00204838
0.0002428
0.0014222
0.00200903
0.000237731
0.000203457
0.000176778
0.00129821
0.00199973
0.000263651
0.000168115
0.000161867
0.000452866
0.00209724
0.000236439
0.00137054
0.00127515
0.00190381
0.000234384
0.00150186
0.000219363
0.00145115
0.000223651
0.000153801
0.00139148
0.00017927
0.000218207
0.000227636
0.000235859
0.000184876
0.00103338
0.000173391
0.000178623
0.00122567
0.00174629
0.000252299
0.000335547
0.000173253
0.00149269
0.000174568
0.00158293
0.000183325
0.00064679
0.00194813
0.000201001
0.00188148
0.000213584
0.000203344
0.00115886
0.00192194
0.00083457
0.000617067
0.00172053
0.000222188
0.00130272
0.00017053
0.00187967
0.000592917
0.000249615
0.00117419
0.000250799
0.000245209
0.00101517
0.000197741
0.0008537
0.00173763
0.000640256
0.000160676
0.00166328
0.000212173
0.00209661
0.0016884
0.00164959
0.00194164
0.000216999
0.000178374
0.00189511
0.00150539
0.000212926
0.00146615
0.0020232
0.00163104
0.00181524
0.000420307
0.00020218
0.00185319
0.000337122
0.00143902
0.000283564
0.000256563
0.00189612
0.000275045
0.00085527
0.00165559
0.00107022
0.000168736
0.000222278
0.00199838
0.00164681
0.00208455
0.00129272
0.000201618
0.00118449
0.00156846
0.000205447
0.00216737
0.00101867
0.000239565
0.000182111
0.000904241
0.000929478
0.000784754
0.000549591
0.000325688
0.00206591
0.000275625
0.0017761
0.00163532
0.00192659
0.00170589
0.00025261
0.00136734
0.000208099
0.000222308
0.000189194
0.00165594
0.000741125
0.000370998
0.00185157
0.00158807
0.00124731
0.00160753
0.000208205
0.00168933
0.0010745
0.0018219
0.000490781
0.00101726
0.00186006
0.000408041
0.00019993
0.000148915
0.000230896
0.000240271
0.000275118
0.000737835
0.000953486
0.000230706
0.000221051
0.00212603
0.00027789
0.000214634
0.00119686
0.000392571
0.00083827
0.000238036
0.000162889
0.000467813
0.00180454
0.00117224
0.000212198
0.000220792
0.000407856
0.000261348
0.000770492
0.000250416
0.00039965
0.00204734
0.00175564
0.000205138
0.000301121
0.000186628
0.000268185
0.00200476
0.000195554
0.00168949
0.00025769
0.00139142
0.000972906
0.000221311
0.000161555
0.00122598
0.000220147
0.00167913
0.000174648
0.000333863
0.00210311
0.000203337
0.000224492
0.000217349
0.000866496
0.000317282
0.000160498
0.000149318
0.000178416
0.00194906
0.000243591
0.00137709
0.000920185
0.00159278
0.000213892
0.00100307
0.000193304
0.00123694
0.000189567
0.0010636
0.0012991
0.000184277
0.00203695
0.000546769
0.000559643
0.000203361
0.000256662
0.00202755
0.000701563
0.000208465
0.000416847
0.000180455
0.000231157
0.00200047
0.00140707
0.000649202
0.00178741
0.00202915
0.00177289
0.000651986
0.0002189
0.000217565
0.00193119
0.00110057
0.000467785
0.000702849
0.000164128
0.00108054
0.00148456
0.000267888
0.000287646
0.000242777
0.000261696
0.000258938
0.00130019
0.0018089
0.000222077
0.000275909
0.000200156
0.000188831
0.000182431
0.00195049
0.00174517
0.00136688
0.00150361
0.000187838
0.000894235
0.000789546
0.000246076
0.0020159
0.00015808
0.00092008
0.000261171
0.00157881
0.00154542
0.00138398
0.00043243
0.00115328
0.00114396
0.00196152
0.000232871
0.000262342
0.000177355
0.00170301
0.00136505
0.000934766
0.00134793
0.000183071
0.000284765
0.00023021
0.00194515
0.00072467
0.00115463
0.000341031
0.00204897
0.000218285
0.000225222
0.00147887
0.00025352
0.000189176
0.000206696
0.000211505
0.000264533
0.00170064
0.000191361
0.000207318
0.000366537
0.00023666
0.000280552
0.00185334
0.00205441
0.00178784
0.00145854
0.00195038
0.000547913
0.000192472
0.00183382
0.000650135
0.000196708
0.000304476
0.00157931
0.000377821
0.000196087
0.00126989
0.000215233
0.000202291
0.000285265
0.000215698
0.00131265
0.000341858
0.000590466
0.000199309
0.000266709
0.000172917
0.000216855
0.000648607
0.00149769
0.000711047
0.000284197
0.000996566
0.00137329
0.000239782
0.00136906
0.00144489
0.000185629
0.000230292
0.00053688
0.000353894
0.00023201
0.00141522
0.000226182
0.00192352
0.00136148
0.000711033
0.00140181
0.00131936
0.000273055
0.00203089
0.000202805
0.000214871
0.000334661
0.000356379
0.000204161
0.00115039
0.00133925
0.00190671
0.0017637
0.000198003
0.00139214
0.00195852
0.000248965
0.000248455
0.00168378
0.00027285
0.000240392
0.00150773
0.00199466
0.00150546
0.000229988
0.000640461
0.000319758
0.000215082
0.00036789
0.000267115
0.000687225
0.000162183
0.00157209
0.00193359
0.00169159
0.000835904
0.000405072
0.000577074
0.000240059
0.000223135
0.000618343
0.000957334
0.000792001
0.00187677
0.00121737
0.002067
0.00182993
0.000232375
0.000476192
0.00172574
0.000226721
0.00091739
0.00134124
0.00018645
0.00104855
0.0019635
0.00031883
0.00167349
0.00197039
0.00179119
0.00020015
0.00161695
0.000235626
0.000328043
0.001723
0.000240292
0.000168728
0.000164216
0.000521697
0.000191908
0.00128304
0.00169641
0.00186704
0.00114333
0.000209276
0.000267487
0.00136354
0.0014662
0.000467622
0.000226986
0.00132814
0.00197872
0.00178573
0.000238352
0.00187821
0.000248514
0.000239242
0.000242292
0.000168258
0.000200665
0.00193776
0.000175956
0.00159843
0.00179193
0.00141922
0.00197198
0.00173054
0.00187908
0.00192484
0.00204022
0.00160504
0.000763253
0.000558732
0.000231862
0.000170224
0.00154189
0.000665842
0.000226424
0.00140121
0.000368687
0.00213163
0.00209796
0.00214605
0.00126843
0.000248071
0.00176247
0.000306848
0.000287376
0.00209597
0.000218431
0.00211776
0.000199806
0.000177942
0.00169909
0.000201104
0.000213737
0.00155208
0.00154344
0.00122677
0.000201147
0.00185901
0.000200341
0.000233522
0.000182986
0.000179898
0.000243022
0.00207553
0.000187834
0.00126554
0.00135959
0.000421102
0.0020301
0.00200481
0.000445276
0.00209649
0.00189672
0.000201711
0.0020267
0.000230961
0.000214469
0.00163713
0.00139082
0.000283962
0.0016084
0.000376365
0.000171469
0.00158189
0.000239776
0.00154502
0.00183063
0.000464648
0.000254638
0.000277124
0.000319103
0.000218163
0.000736878
0.000694979
0.00028008
0.000203599
0.000338572
0.00167258
0.00142351
0.00181132
0.0019655
0.000234494
0.00138243
0.00173351
0.000366554
0.000981137
0.000209289
0.00052257
0.00142165
0.0018323
0.000174701
0.00140679
0.000213264
0.000437627
0.000213343
0.000560786
0.000222708
0.000206897
0.000663387
0.000234281
0.00155622
0.000330623
0.0019277
0.000237255
0.00199005
0.000279077
0.000154262
0.000250769
0.00100126
0.0002173
0.00169641
0.00128624
0.000145359
0.000256221
0.000249576
0.00182634
0.00115119
0.00165754
0.000293231
0.000143338
0.00118848
0.00017042
0.000428009
0.00176137
0.00106248
0.000169869
0.000911102
0.000246749
0.000219952
0.00116328
0.0017921
0.00021447
0.00126302
0.000533313
0.000247996
0.00141427
0.00146983
0.00207899
0.00115104
0.000308977
0.000255042
0.00154654
0.00102658
0.00024941
0.00019935
0.000216055
0.00137025
0.00024666
0.00166147
0.000169761
0.00196296
0.000232272
0.000828374
0.000511914
0.0016555
0.0019787
0.000816228
0.00104652
0.000190003
0.000205962
0.00122983
0.000921569
0.000229434
0.000266451
0.00170986
0.00113532
0.00154163
0.000346016
0.000893624
0.00152998
0.00178743
0.000201177
0.000248063
0.000166715
0.00108799
0.000179186
0.00021519
0.000263609
0.00191717
0.000379247
0.000266333
0.00150193
0.0016115
0.000171137
0.00159801
0.0018136
0.000244004
0.00024801
0.00189738
0.0018586
0.000226107
0.000197419
0.00197956
0.000333807
0.000255335
0.000156435
0.00189782
0.0017584
0.001887
0.000820736
0.00154267
0.000220876
0.000175297
0.00198388
0.00179741
0.000328454
0.00136132
0.000156333
0.000168232
0.000230313
0.00121763
0.000246929
0.00125151
0.000865736
0.000231478
0.000222883
0.000216651
0.00208067
0.00197797
0.000488795
0.00190259
0.000375971
0.00113344
0.000242426
0.000204996
0.000249624
0.000365352
0.000999577
0.000289509
0.000151014
0.000227363
0.000459116
0.0010427
0.000245598
0.00130854
0.00171382
0.000376178
0.000169668
0.000266656
0.00166025
0.000205985
0.000541083
0.000601955
0.000237663
0.000217034
0.00104704
0.000177719
0.000184819
0.000208354
0.000803524
0.00162951
0.000685934
0.000781123
0.000208949
0.000375965
0.000193884
0.000201125
0.000238662
0.0016861
0.000287272
0.00105518
0.000399998
0.000371272
0.00077164
0.000289847
0.000525406
0.000209955
0.00130329
0.000361234
0.000217216
0.00165743
0.000277017
0.000757379
0.000213265
0.00013428
0.000162102
0.00106846
0.000253557
0.00202087
0.0022261
0.000685432
0.000160799
0.000195332
0.00155382
0.000230908
0.00173803
0.00149522
0.001835
0.000202366
0.00138389
0.00168588
0.00139275
0.00154331
0.000176398
0.000240409
0.00182554
0.000316237
0.000196572
0.00201711
0.000618045
0.000722877
0.000254441
0.000269097
0.00022465
0.000162386
0.00143621
0.00156924
0.000615535
0.000204051
0.000184775
0.00115546
0.000522883
0.000211024
0.00197915
0.00135638
0.00157067
0.00160019
0.0018241
0.00124454
0.000905587
0.000444173
0.00048314
0.000432598
0.000159411
0.00015643
0.00215446
0.00088117
0.000222398
0.000164224
0.00184613
0.000156353
0.00114129
0.000276508
0.00167997
0.00111274
0.000446114
0.00193478
0.00171684
0.00163966
0.000217191
0.00027258
0.00180413
0.0019309
0.000224216
0.000220549
0.000577958
0.00195058
0.000905296
0.000211763
0.00038155
0.000998265
0.000198869
0.00177972
0.00046684
0.000232966
0.000590592
0.000233262
0.000206386
0.000221226
0.00126809
0.00120198
0.00171846
0.00022951
0.000184426
0.000175615
0.00130554
0.000148759
0.000167949
0.000233309
0.00192249
0.000227002
0.00193735
0.00109079
0.000199279
0.000199306
0.000257696
0.0013966
0.00196594
0.0010717
0.000597127
0.000295536
0.000293915
0.000252601
0.000213743
0.00018987
0.000245026
0.000244726
0.00203073
0.000192935
0.000175187
0.00016642
0.000249524
0.00144645
0.000255774
0.00146125
0.00209356
0.0010071
0.000202689
0.00201152
0.000196336
0.000207003
0.00194808
0.00134984
0.000521064
0.00177945
0.00159018
0.000217089
0.000719903
0.00151638
0.00183125
0.00024962
0.0013586
0.00175671
0.000327295
0.000145121
0.000196618
0.000355366
0.00202393
0.000205403
0.000226418
0.00149712
0.0002169
0.000267275
0.000327228
0.0001701
0.000223081
0.000239281
0.000139703
0.000223977
0.000194839
0.000214468
0.00022226
0.000361469
0.000179952
0.00196623
0.000216295
0.00173129
0.000697142
0.00119319
0.000407998
0.00154097
0.000204626
0.0014219
0.00156678
0.00024924
0.00209528
0.000681085
0.000202247
0.000530748
0.000219112
0.000282229
0.000190129
0.000888331
0.000277393
0.000206067
0.00122118
0.0010388
0.00201508
0.00150208
0.000224875
0.000494029
0.000237819
0.00135531
0.000888967
0.000874241
0.00170047
0.000253008
0.00130131
0.000720017
0.00142069
0.000319228
0.000371545
0.000475562
0.000240557
0.00198809
0.000923041
0.000280389
0.000893814
0.000285332
0.000250711
0.000184377
0.000908596
0.00104337
0.00210852
0.0014377
0.000505672
0.000171962
0.000381631
0.000235432
0.000248634
0.000264572
0.000174763
0.000279991
0.00145343
0.000246858
0.000508205
0.000190423
0.000218791
0.00215545
0.000171374
0.00165333
0.000631567
0.00185503
0.000227392
0.000242157
0.000564918
0.00109895
0.000235352
0.000686302
0.000182441
0.000356395
0.00191366
0.00109036
0.00192945
0.000303302
0.000277592
0.000243546
0.000258757
0.00018702
0.000181159
0.000187725
0.000370345
0.00167219
0.000272352
0.000182463
0.00024028
0.00105768
0.00140511
0.000166208
0.000679934
0.000210302
0.000224752
0.00129837
0.000231349
0.00019875
0.00026151
0.000487018
0.000262017
0.00117952
0.000235817
0.000297752
0.00152817
0.000404165
0.00155737
0.000236097
0.000182126
0.000604207
0.000254941
0.00113731
0.000388169
0.000288476
0.000201215
0.000881773
0.00060489
0.00109394
0.000215011
0.000239066
0.00017013
0.0001778
0.000601023
0.000176432
0.000344783
0.000228564
0.000466363
0.000216223
0.00021165
0.00170652
0.0001851
0.00119024
0.00149517
0.000216935
0.000244273
0.000527292
0.000247785
0.00119329
0.00174219
0.000202746
0.00141401
0.000327244
0.000511588
0.000240291
0.000365233
0.00047616
0.00203993
0.000201231
0.00154988
0.0006626
0.000212111
0.000731282
0.000200118
0.00178314
0.000224285
0.00117603
0.000543933
0.000968611
0.000634736
0.000210265
0.000222211
0.00203799
0.00194363
0.000211306
0.000367906
0.00018383
0.000563385
0.000204119
0.000198684
0.000285458
0.00122189
0.000216433
0.00187485
0.000428803
0.000810328
0.000214598
0.00172118
0.000274118
0.000196291
0.00170848
0.00184134
0.00075114
0.000280268
0.000214284
0.00192464
0.00214969
0.00137385
0.00105407
0.00143848
0.00018203
0.00074628
0.00118272
0.000713116
0.000196675
0.000649969
0.00194251
0.000837815
0.0017209
0.00202632
0.000168197
0.00124524
0.000211065
0.00143106
0.000266852
0.000935828
0.00126228
0.00168458
0.00202006
0.000209086
0.00204184
0.000178935
0.000238415
0.000670902
0.000247322
0.0012271
0.000232603
0.000241667
0.000144996
0.000251725
0.000686658
0.000164127
0.00025269
0.000912491
0.000277445
0.0019204
0.000328325
0.000210823
0.000217744
0.000229728
0.000426343
0.00142281
0.000165082
0.00143018
0.00201696
0.00147286
0.0016507
0.00199322
0.00138374
0.00187874
0.000997588
0.000268863
0.000239934
0.000956461
0.000261831
0.000419306
0.00050072
0.00018588
0.00178418
0.000634939
0.000217349
0.00193244
0.000139458
0.000242671
0.000248504
0.000664466
0.00191561
0.000181858
0.000345234
0.000220822
0.000682023
0.000490497
0.00020692
0.00102711
0.0001976
0.000224804
0.00186297
0.000598953
0.00160139
0.000350384
0.000231885
0.00189351
0.000180746
0.00213036
0.0014913
0.000206335
0.00117109
0.00163413
0.000222213
0.000286457
0.00212615
0.000286222
0.000230883
0.00117731
0.000239544
0.000251321
0.000277416
0.0019609
0.00197519
0.00119577
0.00179598
0.00101529
0.00192838
0.000403667
0.000347324
0.00164744
0.00116237
0.000205897
0.000212739
0.000529562
0.00169525
0.000476819
0.00021701
0.000241744
0.00101815
0.000259117
0.00115602
0.00167291
0.00205373
0.000216671
0.000247565
0.00186017
0.000487139
0.00124318
0.000892401
0.000161395
0.000271181
0.0017295
0.000260418
0.000263333
0.000199469
0.000209076
0.00169022
0.0020517
0.00103927
0.000395345
0.000228547
0.000292584
0.00154384
0.00138797
0.00016333
0.00198944
0.00173514
0.00146267
0.000175313
0.000560981
0.00025743
0.000241934
0.000228109
0.00129027
0.000940869
0.00134824
0.000218811
0.000184478
0.000212488
0.000213976
0.00119215
0.000209356
0.000170668
0.00169771
0.00122012
0.0019631
0.000195799
0.000324845
0.000163704
0.00193862
0.00145767
0.00153664
0.00180295
0.000218293
0.000984329
0.000478781
0.00206358
0.00157458
0.00156534
0.00147836
0.00190542
0.000221064
0.000195138
0.000418229
0.0019589
0.00103806
0.000191261
0.00173367
0.000167845
0.000519866
0.00085123
0.00021322
0.000210511
0.000167621
0.000194995
0.00111926
0.000856175
0.000174099
0.000504523
0.000206091
0.00136189
0.00190985
0.000256826
0.000459858
0.000577973
0.00148317
0.000261295
0.000232687
0.000240217
0.000206235
0.00016785
0.00025063
0.000238692
0.000246413
0.000201009
0.00137975
0.00102676
0.00138457
0.000659266
0.000223705
0.0011505
0.000496474
0.00018229
0.000209953
0.000264729
0.000265276
0.000282277
0.00139714
0.000955916
0.00177032
0.00118391
0.000189189
0.000185864
0.00123198
0.0019092
0.00110306
0.00137861
0.00179595
0.000163825
0.000361877
0.00114574
0.00151583
0.000191276
0.000566851
0.000355856
0.000528177
0.000416142
0.00180027
0.000155474
0.000184318
0.000250477
0.00023489
0.00190783
0.00185886
0.00146873
0.000230543
0.000309973
0.000167409
0.000283458
0.00162527
0.000192086
0.000258754
0.00181882
0.00127634
0.00133403
0.00148529
0.000253423
0.000171512
0.00107744
0.000340301
0.000521533
0.0010132
0.00078406
0.00193578
0.000173813
0.00091709
0.000210795
0.000163525
0.000247475
0.000225511
0.000498495
0.000288413
0.000139138
0.000958756
0.000183956
0.000169396
0.000209843
0.000435989
0.00162423
0.00159862
0.000196588
0.000233646
0.000176076
0.000232415
0.000253019
0.00175656
0.00189218
0.00022547
0.000223486
0.000174835
0.00204106
0.0017036
0.00102175
0.00023975
0.00114533
0.000925161
0.000260767
0.000212705
0.00179284
0.000892106
0.00102758
0.0005258
0.00118323
0.00184464
0.000233145
0.000572479
0.000231703
0.00160486
0.00151959
0.0018092
0.000189474
0.00180309
0.000236275
0.00120347
0.00124796
0.00149324
0.00131472
0.000165906
0.000251869
0.000187085
0.00200218
0.00177231
0.000717351
0.00153356
0.000215865
0.000250046
0.0015019
0.00178818
0.000368619
0.000300749
0.000636856
0.000364226
0.00144444
0.00180216
0.001691
0.00164049
0.000979112
0.000950064
0.000238518
0.00171011
0.00184404
0.0011254
0.0002504
0.000242176
0.000214118
0.000188966
0.000332511
0.00180696
0.00201883
0.000242198
0.000439824
0.000850527
0.000825505
0.000252661
0.00130556
0.0010113
0.000819678
0.00193761
0.000309455
0.000732457
0.000216164
0.000435643
0.0010078
0.000226008
0.000517498
0.00123993
0.000891811
0.00144309
0.00210786
0.00019388
0.00159367
0.000223369
0.00154025
0.000164257
0.00178339
0.000558127
0.000247156
0.000494302
0.000221954
0.000493301
0.000218047
0.00022301
0.000988664
0.000204996
0.00173372
0.00143706
0.00190273
0.000141713
0.000307077
0.000226115
0.000802054
0.000188789
0.000243655
0.00139307
0.0013729
0.00167637
0.00118831
0.00132929
0.00203591
0.00139829
0.00148551
0.00147317
0.000232851
0.000309827
0.00185949
0.00192896
0.000200568
0.00117165
0.0016014
0.00192328
0.000209325
0.000928444
0.000235684
0.00192256
0.000250092
0.000190998
0.000465692
0.000801077
0.00098145
0.00041639
0.000207283
0.00174424
0.000257839
0.000224405
0.00111059
0.000180822
0.000225025
0.000699601
0.00131756
0.000218439
0.000179682
0.000206954
0.00182271
0.00168743
0.000176753
0.00124868
0.000236253
0.000176059
0.00191612
0.000245402
0.000825301
0.00136223
0.00168756
0.0011289
0.00195312
0.00149801
0.000545113
0.0022049
0.00112911
0.00182104
0.00042096
0.000297589
0.00176614
0.000215543
0.00132777
0.00115483
0.00132437
0.00123995
0.00159634
0.00101835
0.000222378
0.00139304
0.00202915
0.000164979
0.000535616
0.0018678
0.00021109
0.00142959
0.0016716
0.000250295
0.000583005
0.000241273
0.00035899
0.00170543
0.00136355
0.000260587
0.000174056
0.000177106
0.000651851
0.00022118
0.000203542
0.000280889
0.000881975
0.00164552
0.00207031
0.000733596
0.000950851
0.00106922
0.000235293
0.000348444
0.00191026
0.00188267
0.00197425
0.00191445
0.000203181
0.000215024
0.000227048
0.000192544
0.00158604
0.00200689
0.00187234
0.000224503
0.00128459
0.00139927
0.000222817
0.00201014
0.00154834
0.00176418
0.00200213
0.000225637
0.000199829
0.000467495
0.000210732
0.00116997
0.00100453
0.000331804
0.00120372
0.000227015
0.000175082
0.000279523
0.00196792
0.000219985
0.000627127
0.00178162
0.000534226
0.000212178
0.00161904
0.00208707
0.000170244
0.000231859
0.000218606
0.000237856
0.00207481
0.000626984
0.000216575
0.00187496
0.00188378
0.0016255
0.000654396
0.0015213
0.00134757
0.00150684
0.000901128
0.00022488
0.00117758
0.000211866
0.000184013
0.000170071
0.00167154
0.00042595
0.0016541
0.000824281
0.000248184
0.000308049
0.000210699
0.000340684
0.000203268
0.000251941
0.00101304
0.000991957
0.001505
0.0010853
0.000204666
0.000249687
0.0016119
0.000162269
0.000219622
0.000632153
0.00021035
0.00170484
0.00078302
0.00114667
0.000479667
0.00158862
0.000538596
0.00146174
0.000190099
0.00179718
0.000220093
0.000202149
0.000202137
0.000759797
0.000579321
0.00206797
0.000206853
0.00182025
0.00121359
0.000351871
0.000192235
0.000220429
0.000213587
0.000209484
0.000222058
0.000192713
0.0019916
0.000160551
0.00132607
0.00017516
0.000180463
0.000245271
0.000190209
0.000220021
0.00022443
0.00108091
0.000463592
0.00197049
0.000200648
0.00185615
0.000253283
0.000408131
0.00016571
0.00126999
0.00149897
0.000224412
0.000791522
0.00140474
0.00153204
0.00100343
0.00065739
0.00174348
0.00145034
0.0017094
0.000907822
0.000272654
0.000218426
0.000162188
0.00117294
0.000190738
0.000228724
0.0012357
0.000187309
0.000306691
0.000208849
0.000493605
0.000385017
0.00188322
0.000763417
0.00146329
0.000913737
0.00149978
0.000672513
0.00216215
0.00017562
0.000174313
0.0011407
0.00153166
0.000883352
0.0012023
0.00153094
0.00143345
0.0010037
0.000218111
0.00108522
0.00216849
0.000274956
0.000574463
0.000262722
0.000740366
0.000184246
0.000220484
0.00113725
0.00019426
0.0002437
0.000199778
0.000212729
0.000202638
0.00164459
0.000589344
0.00185802
0.000639445
0.000190411
0.00150046
0.00204814
0.00138245
0.000220202
0.000887775
0.000369202
0.000395242
0.00141312
0.000221209
0.000187153
0.000898364
0.000268349
0.00193606
0.000261483
0.000645752
0.000174517
0.00217667
0.00191368
0.00140284
0.000217469
0.000202788
0.000218195
0.00117917
0.00017313
0.000163095
0.000468363
0.000222673
0.000222355
0.000273469
0.00025976
0.000602729
0.000910597
0.00199422
0.00142204
0.000222503
0.000391319
0.000170812
0.00197911
0.0011913
0.000545738
0.00128783
0.000254892
0.000390631
0.000193029
0.000969032
0.000331828
0.00195823
0.0020421
0.000166451
0.000193921
0.00171061
0.00138685
0.00186795
0.000179149
0.000994639
0.000254252
0.000295441
0.000218336
0.0017614
0.000219813
0.000401212
0.000223815
0.000237797
0.00101342
0.000162611
0.000193257
0.00019449
0.00109099
0.00145385
0.00192024
0.000160639
0.00083743
0.00156703
0.000450685
0.000488737
0.00139103
0.00169169
0.00164722
0.000245213
0.00132945
0.000450951
0.000226504
0.000244062
0.00170966
0.0017757
0.000295341
0.00134839
0.000247306
0.000415797
0.000647616
0.000209333
0.0013739
0.00149713
0.00101065
0.000225185
0.00182864
0.000217715
0.00196132
0.000169838
0.000218746
0.0016969
0.00154954
0.000178377
0.00113939
0.00157957
0.00153492
0.00173084
0.000187273
0.000242593
0.00162354
0.000977876
0.000944073
0.00142138
0.00016741
0.000802081
0.00018094
0.000179904
0.00133646
0.00213029
0.000296632
0.00135678
0.00058248
0.000209033
0.000172787
0.00158848
0.00121408
0.000216717
0.000222394
0.000214667
0.000980452
0.000999569
0.000231757
0.0002219
0.00143547
0.00171617
0.00138576
0.00110536
0.000391905
0.00202002
0.000944476
0.00170126
0.000225862
0.000250013
0.000247556
0.000548124
0.000281697
0.00129398
0.00142333
0.00171825
0.00155785
0.00203761
0.00161019
0.0011872
0.00189199
0.000354195
0.00148143
0.00143129
0.000268117
0.00156995
0.00023049
0.000210232
0.000537546
0.000858987
0.000762719
0.00050405
0.000666598
0.00024147
0.000261946
0.000879474
0.00144654
0.00104718
0.000474213
0.000160034
0.00146093
0.000319672
0.000253149
0.000962476
0.000211416
0.000448879
0.00122139
0.000958346
0.000752784
0.000332834
0.000195945
0.000243503
0.00029936
0.00211505
0.000247212
0.00130495
0.00125373
0.000213343
0.00213306
0.000274693
0.00166375
0.000536305
0.000463608
0.000182178
0.00205398
0.00172296
0.000208706
0.00138552
0.000208409
0.000210078
0.00100409
0.000174258
0.00168826
0.00159556
0.00176013
0.000304578
0.00020328
0.00107247
0.0014808
0.000935447
0.0002064
0.000221438
0.000581574
0.00117187
0.000457012
0.00197947
0.000183887
0.000254102
0.00126455
0.00158269
0.00136912
0.000242544
0.00036035
0.000250727
0.000637343
0.00093721
0.000416001
0.000324784
0.000220112
0.00104369
0.000896476
0.00111076
0.0017516
0.000929925
0.00182235
0.000225314
0.000531401
0.000226738
0.000205649
0.00125229
0.000169946
0.00208592
0.00183995
0.000789779
0.000210357
0.000242087
0.00133571
0.00180104
0.000160948
0.00168417
0.000195449
0.000604601
0.000214024
0.000381402
0.00109486
0.00145413
0.000207523
0.000844496
0.00140105
0.00158783
0.000263762
0.0010788
0.00134288
0.00026271
0.00203495
0.000208146
0.000939528
0.00174601
0.00156974
0.000582575
0.000255862
0.000194636
0.000264348
0.000256746
0.00177126
0.00169409
0.000227173
0.000194051
0.000991106
0.000958952
0.000196405
0.000325471
0.00083166
0.000839495
0.00103092
0.000234314
0.00124292
0.000303883
0.00022695
0.00155695
0.000164237
0.000214845
0.000227518
0.000265609
0.000189092
0.000157681
0.000573067
0.000192635
0.000554943
0.000211404