/*--------------------------------*- C++ -*----------------------------------*\
| =========                 |                                                 |
| \\      /  F ield         | OpenFOAM: The Open Source CFD Toolbox           |
|  \\    /   O peration     | Version:  2406                                  |
|   \\  /    A nd           | Website:  www.openfoam.com                      |
|    \\/     M anipulation  |                                                 |
\*---------------------------------------------------------------------------*/
FoamFile
{
    version     2.0;
    format      ascii;
    arch        "LSB;label=32;scalar=64";
    class       volScalarField;
    location    "10";
    object      p;
}
// * * * * * * * * * * * * * * * * * * * * * * * * * * * * * * * * * * * * * //

dimensions      [0 2 -2 0 0 0 0];

internalField   nonuniform List<scalar> 
59516
(
-2.75156
-0.167192
-0.14861
-0.0140193
-2.86457
-2.84029
-2.74591
-2.44525
-0.819891
-0.018551
-2.81131
-2.77984
-1.93964
-2.74762
-2.56913
-0.841789
-2.75806
-2.82299
-2.79625
-2.72998
-2.79269
-2.45422
-2.75372
-1.78541
-0.73981
-1.69878
-1.0078
-2.8008
-2.7878
-2.59327
-2.84987
-2.79765
-1.29036
-0.0156649
-2.79151
-2.3251
-0.686585
-2.82683
-2.78757
-0.140982
-0.173076
-2.81521
-2.78657
-0.0060858
-2.77448
-0.46724
-2.78619
-2.78797
-2.85903
-2.80079
-2.85606
-0.0200183
-1.32141
-2.52134
-2.77206
-2.78036
-2.82104
-0.0181716
-1.77691
-2.80469
-0.0163744
-2.25688
-1.78775
-2.76104
-0.0414642
-2.77858
-0.0972026
-2.35487
-2.85042
-2.77845
-2.40029
-2.7364
-0.510761
-2.74493
-2.38289
-2.77428
-2.7829
-0.31823
-1.98037
-2.79462
-0.0126329
-2.79061
-2.78719
-1.13012
-2.79379
-2.72569
-0.820657
-2.73471
-1.29172
-2.82183
-2.84257
-2.42125
-2.68967
-2.39297
-2.39902
-2.86178
-2.58945
-2.45832
-2.79903
-1.91229
-0.882221
-1.61011
-2.55187
-0.113169
-0.495522
-0.0822886
-0.0843759
-0.778463
-1.37777
-1.98507
-2.84498
-0.977285
-2.43956
-2.84302
-2.66128
-2.19366
-0.326288
-2.52417
-2.50937
-0.354847
-2.53629
-2.50042
-0.658191
-2.51921
-2.83527
-2.79878
-2.64768
-2.81993
-2.84668
-2.67933
-2.65438
-0.175893
-2.35612
-2.68267
-2.6894
-2.34836
-2.83781
-2.62267
-1.60207
-2.71143
-0.95294
-1.20589
-2.45158
-0.954926
-2.72215
-2.70523
-2.78195
-2.74733
-2.85502
-2.69362
-2.71728
-0.0423243
-2.66424
-0.0386834
-2.67732
-0.0554344
-0.0644958
-2.68201
-2.69814
-2.58362
-2.70731
-2.70847
-2.5841
-0.0489642
-2.1813
-0.324183
-0.81825
-2.70286
-2.72294
-0.0551476
-2.68054
-2.68153
-2.63173
-2.65164
-2.63577
-2.79127
-2.21964
-2.79338
-0.162671
-2.18484
-2.66366
-1.43328
-1.67282
-2.64214
-2.66216
-0.91553
-1.23285
-0.704786
-2.67243
-2.64408
-0.00492248
-1.42491
-2.70328
-2.64611
-2.71089
-0.231176
-1.6091
-1.6075
-0.0430065
-2.62567
-0.0121909
-0.694348
-2.4798
-1.9449
-2.2768
-1.41087
-2.7087
-0.0435684
-1.83068
-2.5673
-0.48886
-2.80129
-2.55101
-2.30039
-2.55676
-1.02142
-2.69693
-0.221566
-2.10302
-2.55617
-2.54682
-2.6928
-2.63588
-0.0670087
-2.59009
-2.21494
-1.81796
-1.90383
-2.63016
-0.421222
-2.58979
-1.39638
-2.63588
-1.45404
-1.53974
-2.62808
-2.63081
-0.54689
-2.62066
-0.607375
-2.66473
-1.43644
-1.35945
-0.0554644
-2.67768
-2.66457
-2.65187
-0.147847
-2.63163
-2.67146
-0.139801
-2.64255
-2.67121
-1.67497
-2.664
-2.66891
-0.82952
-2.61046
-2.02378
-2.59297
-1.85826
-2.5945
-2.60547
-2.61265
-2.31262
-0.642506
-2.10979
-0.748997
-2.59235
-1.75108
-2.75858
-2.26628
-0.79703
-1.7969
-2.59947
-2.33584
-1.7385
-2.5889
-2.62337
-1.03113
-2.62962
-1.93194
-1.77938
-2.57005
-2.55083
-2.74953
-2.66708
-0.106614
-2.61613
-2.33868
-2.60616
-2.57068
-2.40143
-0.339647
-2.42854
-1.36612
-2.34983
-2.30546
-2.58358
-2.33724
-2.33805
-0.673649
-1.06878
-2.27004
-2.36563
-1.69812
-0.209372
-2.34351
-2.34724
-0.884976
-0.73381
-2.33541
-1.68367
-1.58903
-2.77731
-2.3629
-2.48365
-2.86418
-2.36219
-0.693608
-1.39265
-2.48246
-1.48871
-2.51247
-1.93131
-2.36888
-2.80179
-2.48376
-1.82552
-2.50065
-0.254075
-2.7347
-1.81242
-2.50206
-2.04842
-2.57096
-2.61486
-2.25291
-2.79706
-2.5583
-2.28556
-2.25851
-2.51443
-0.564405
-1.13355
-2.55544
-1.05061
-2.6056
-2.52118
-2.0291
-2.63934
-2.64134
-0.409341
-1.31745
-1.82177
-0.586346
-0.104093
-2.83686
-2.85257
-2.19444
-0.368912
-2.69279
-2.80128
-2.44097
-0.359818
-2.50276
-2.49946
-2.69715
-2.85157
-2.54158
-0.924668
-0.928859
-2.49323
-1.88427
-2.15655
-2.4721
-2.50174
-2.45458
-1.99545
-2.38453
-2.70965
-0.0364301
-2.81224
-0.139207
-0.224993
-2.50032
-0.0925731
-2.8056
-2.49588
-0.158775
-0.149029
-0.633365
-2.45448
-2.83892
-2.47923
-2.83446
-0.157494
-0.831955
-2.44707
-2.46038
-2.55938
-2.43344
-2.01217
-2.57977
-2.59266
-0.680604
-1.59691
-2.59721
-2.57413
-2.56837
-0.466709
-0.23259
-0.266115
-1.45591
-2.27665
-0.109749
-0.401752
-0.779416
-0.0619456
-2.44614
-2.42312
-2.47905
-2.47877
-2.59519
-2.47739
-1.90198
-2.41786
-1.6561
-2.48584
-2.06792
-2.52546
-2.4741
-2.33499
-1.48055
-2.56107
-2.80799
-0.25756
-2.53405
-1.85613
-0.917857
-1.90131
-2.09814
-2.54212
-2.52697
-2.48539
-2.46763
-0.882357
-2.47418
-1.90587
-0.328285
-2.11596
-2.84736
-1.64101
-0.720307
-2.4946
-2.02429
-2.46309
-1.54842
-2.46339
-0.71192
-2.47756
-0.0554565
-0.0975934
-2.43069
-2.78592
-2.40902
-2.22544
-0.435007
-2.26596
-2.24891
-0.468159
-2.3376
-2.24215
-2.19424
-2.19312
-1.08581
-2.27442
-2.208
-1.51723
-2.17993
-0.973343
-2.16186
-2.79305
-2.15956
-2.85725
-2.17274
-2.62223
-0.945356
-1.07818
-1.88901
-0.0545086
-0.0379913
-2.03818
-2.32314
-2.36704
-1.81787
-2.21033
-0.560566
-2.43095
-2.40602
-2.80956
-1.61102
-1.40797
-1.93285
-2.40411
-0.213621
-2.34921
-2.75294
-0.0602801
-2.8355
-2.42002
-0.750452
-2.72174
-2.03179
-2.77466
-2.25775
-1.96654
-2.14857
-2.44814
-1.98241
-2.44868
-2.68892
-0.834607
-0.84806
-2.84254
-0.0380001
-2.43613
-2.33283
-2.84286
-2.31098
-2.72058
-0.0127774
-2.37426
-0.951554
-0.00781026
-1.7851
-0.445186
-2.81628
-2.53006
-0.78976
-0.0364466
-2.57452
-1.44168
-2.34107
-2.56579
-2.33237
-2.70029
-0.0131542
-1.16061
-0.758144
-2.33278
-0.40249
-1.72166
-2.43469
-1.49714
-2.4136
-0.0348339
-2.45718
-0.761168
-2.42289
-1.89298
-1.30284
-1.20755
-2.44393
-0.0298834
-0.495209
-2.32367
-0.906603
-1.83332
-2.09885
-1.38281
-1.3287
-2.31813
-2.31233
-2.65309
-2.28456
-1.31542
-2.31046
-2.29081
-1.26495
-1.10636
-0.010179
-2.31838
-2.3067
-2.32641
-1.07157
-2.2409
-0.100812
-2.33543
-0.071998
-2.44771
-0.0110146
-0.281346
-1.9732
-1.40657
-0.143536
-2.34027
-2.82547
-0.0410798
-0.200333
-2.30262
-2.26516
-0.376
-2.28089
-2.30605
-1.55605
-0.46393
-2.44738
-2.36665
-0.159631
-2.32256
-2.32844
-1.70207
-2.26987
-2.8515
-2.32066
-2.84583
-2.00249
-2.84534
-2.02344
-0.256458
-2.71796
-0.071154
-0.0622762
-2.86153
-2.86191
-2.04064
-2.3183
-2.82148
-2.80015
-1.43211
-1.14383
-1.9001
-0.699652
-2.01806
-1.33487
-2.80746
-2.03678
-2.04162
-2.22193
-2.11667
-2.84839
-1.90934
-2.15376
-0.604366
-2.1716
-1.61524
-0.221384
-2.17334
-2.15792
-2.16706
-1.62013
-0.974345
-2.84972
-1.34826
-1.40069
-1.64461
-2.59199
-2.17109
-0.726251
-1.9964
-1.67242
-0.147238
-0.727277
-2.19407
-2.50953
-1.74793
-1.61537
-2.18874
-2.18725
-0.908232
-2.65576
-2.2921
-1.49777
-2.2645
-1.8339
-2.37633
-2.23425
-0.131676
-0.271307
-2.03191
-2.85616
-1.60895
-1.51323
-0.0521044
-1.70969
-2.22941
-1.28501
-2.34259
-2.28953
-0.982387
-1.32993
-2.32464
-2.7153
-2.44933
-1.85376
-2.85702
-2.31958
-0.385081
-2.42101
-2.85359
-0.24402
-1.33439
-2.58038
-2.17866
-0.864173
-2.10887
-0.257882
-0.20136
-1.84001
-2.18263
-2.85789
-2.4763
-2.18141
-2.17692
-2.24159
-0.994841
-0.131637
-0.727985
-2.44797
-2.85989
-1.66138
-2.21156
-1.49498
-0.645228
-2.17074
-0.672636
-2.18068
-2.7572
-1.35375
-0.00203492
-2.50911
-1.05282
-2.25413
-0.199921
-0.863845
-1.68644
-2.55683
-2.23008
-2.24703
-2.85865
-2.54397
-0.440586
-2.85167
-0.0548394
-0.0174187
-2.23887
-0.46699
-1.22835
-1.69965
-1.17611
-2.86082
-2.20141
-2.50328
-2.15917
-0.513749
-1.79931
-0.584831
-1.3903
-2.4773
-2.14735
-2.17714
-2.15049
-0.808185
-2.67341
-2.02088
-0.709102
-2.16159
-2.15316
-2.13724
-1.99981
-2.16227
-0.19573
-0.136346
-2.1426
-0.0491881
-1.30888
-1.5092
-0.0987732
-1.58567
-1.84419
-2.7295
-2.05503
-2.40785
-1.88845
-1.38829
-2.17567
-2.19296
-2.19354
-1.17704
-2.18582
-2.6879
-0.211559
-0.0357768
-1.44969
-1.26526
-0.0453564
-2.18164
-2.14871
-2.15428
-0.196425
-0.343452
-2.1489
-2.5778
-0.300501
-0.438227
-2.84883
-2.81856
-2.21059
-0.449277
-2.31313
-2.07021
-2.36936
-1.85758
-2.12191
-2.83391
-1.85691
-1.85415
-0.985896
-1.86872
-2.84671
-0.358641
-2.10496
-1.86407
-1.1201
-2.26202
-2.36666
-0.993631
-2.27931
-2.54875
-2.30005
-1.84833
-2.77273
-0.584104
-1.85214
-2.47387
-0.165615
-1.98556
-0.780738
-1.82497
-1.01148
-2.83738
-1.89743
-0.0452919
-1.84548
-1.82042
-1.94191
-1.83536
-1.70373
-0.0647397
-0.473654
-2.27436
-1.96834
-1.62181
-2.30262
-1.1637
-2.55852
-0.27388
-1.95203
-0.894099
-1.77494
-2.31632
-0.176026
-1.99636
-1.9527
-2.87265
-0.274772
-2.37685
-2.61018
-0.437945
-1.90887
-0.465691
-1.5666
-2.18727
-2.35989
-1.91435
-1.90203
-1.89489
-2.85528
-0.346884
-2.34853
-1.18553
-0.216699
-1.92555
-2.40805
-2.03211
-2.02668
-0.367767
-2.05813
-2.07801
-1.0961
-2.63069
-2.86564
-2.74132
-1.55779
-2.07662
-0.0328495
-2.80657
-1.87668
-2.04379
-1.70827
-2.06936
-2.05455
-2.10744
-2.30128
-2.12625
-2.36743
-2.06524
-2.70964
-2.73921
-2.04601
-2.26329
-2.04529
-2.35964
-2.36697
-0.152814
-1.3561
-1.61378
-0.147781
-2.16741
-2.06976
-2.20032
-1.1603
-0.0771924
-1.20038
-2.04248
-2.23488
-2.23817
-1.3282
-1.5383
-2.21103
-2.86836
-2.09627
-0.0921074
-0.206081
-2.43941
-2.10647
-1.27691
-1.68956
-2.07805
-1.36992
-2.00158
-2.00247
-2.00305
-1.70914
-2.2591
-1.9963
-2.85676
-0.278871
-1.99335
-2.84703
-2.0023
-2.60904
-0.459936
-1.98783
-1.24224
-0.957437
-2.00155
-1.99166
-1.2364
-1.27102
-1.98595
-1.06119
-1.95163
-1.95457
-2.03131
-1.17015
-1.94578
-0.357235
-1.97445
-1.96817
-1.32925
-1.95171
-1.95631
-2.74651
-1.899
-1.59959
-1.93359
-1.93578
-1.34866
-0.665705
-1.1585
-2.80075
-1.96771
-1.97109
-1.66876
-0.67887
-2.80469
-1.72088
-1.72333
-1.67789
-1.66704
-0.113372
-0.0819563
-0.555135
-1.10607
-1.96868
-1.97486
-0.0685063
-2.47308
-1.86559
-0.852606
-2.80677
-1.6229
-1.61491
-2.82273
-1.64857
-2.37563
-0.504997
-1.61847
-2.32618
-2.13531
-1.62843
-1.19962
-0.436917
-1.63485
-2.46183
-2.19853
-1.26921
-0.613753
-0.96855
-1.70033
-0.996992
-2.45519
-0.954939
-1.6807
-1.79493
-2.83438
-1.30463
-0.115371
-0.628196
-0.986268
-1.65123
-2.45944
-1.78309
-1.77717
-0.215669
-1.40823
-0.102525
-1.80907
-1.80595
-0.990538
-0.14928
-2.16336
-0.445985
-2.65687
-1.99429
-1.97726
-2.7976
-0.993898
-2.32422
-2.42102
-1.62504
-0.185931
-1.97356
-2.77603
-1.95685
-1.9307
-1.64899
-0.861143
-1.96376
-0.193612
-2.78624
-2.46485
-1.33306
-1.96717
-1.87317
-2.45517
-2.74236
-2.33249
-0.330056
-0.878861
-1.93702
-2.02253
-2.2836
-1.27561
-2.2451
-2.80916
-1.92262
-2.26668
-0.782387
-1.98356
-1.50245
-0.932627
-1.98419
-1.9949
-2.00195
-2.28377
-1.94241
-0.461034
-1.95161
-0.862953
-2.22898
-0.224508
-1.93331
-2.24923
-0.055849
-0.25016
-1.90261
-0.760102
-0.512898
-0.782207
-0.657315
-1.17192
-0.425701
-1.92486
-1.9117
-0.3499
-1.89894
-1.91234
-2.25552
-0.119403
-1.92877
-1.8542
-0.0060206
-0.270226
-1.81598
-1.06057
-0.030144
-0.154762
-1.82016
-1.3132
-1.87991
-2.75525
-0.189602
-2.22161
-1.69511
-1.87491
-1.83981
-1.67311
-2.12616
-1.93515
-1.93294
-1.72094
-2.7917
-2.48762
-1.87938
-1.91242
-2.59033
-0.388303
-2.46951
-2.12551
-1.29362
-1.2098
-1.9051
-0.874122
-0.218808
-1.76193
-1.79702
-2.84944
-1.53736
-1.81452
-1.79835
-2.06735
-0.86239
-1.79694
-1.80269
-2.71194
-1.80665
-0.823121
-1.83558
-1.83815
-1.50417
-1.34804
-1.61597
-1.83427
-1.81516
-1.8361
-1.26971
-1.56687
-1.85666
-1.66512
-1.2498
-1.31993
-1.32467
-1.32326
-1.52438
-1.82578
-1.56442
-2.805
-2.61098
-0.448184
-1.11247
-1.16674
-1.54818
-1.54418
-1.57062
-1.99973
-1.52994
-1.53888
-0.910998
-1.15628
-2.14366
-0.923024
-0.368355
-1.56353
-1.5455
-1.5868
-2.63963
-0.150788
-0.0837964
-1.0994
-1.67005
-1.63793
-2.4652
-0.393366
-1.56374
-2.81201
-0.469385
-1.64782
-1.65668
-1.96487
-0.00736307
-1.63215
-1.63374
-1.63279
-1.7628
-0.064272
-0.103871
-1.76861
-1.75844
-1.75195
-1.75115
-1.81856
-1.70847
-0.866194
-0.179921
-2.84616
-2.19696
-1.7735
-1.75501
-1.34033
-2.7343
-2.68228
-2.50521
-0.0218673
-2.52468
-1.78187
-1.78555
-1.76567
-1.77017
-1.78379
-1.76941
-2.40882
-1.49022
-2.35611
-1.56855
-0.849593
-0.145714
-1.79665
-1.34084
-0.0502584
-1.56918
-1.84265
-2.78637
-1.8593
-1.27445
-1.22958
-2.16557
-1.38405
-1.8238
-1.89352
-1.86786
-1.53385
-1.66257
-2.75419
-1.81651
-2.33173
-0.837524
-0.689175
-1.79439
-0.713608
-0.245323
-1.85536
-1.83395
-1.37354
-0.922177
-1.06208
-2.63534
-1.83549
-0.550819
-0.065437
-1.62527
-0.311416
-1.31033
-1.77807
-2.16725
-1.6663
-0.28467
-2.66825
-0.168181
-2.58346
-1.44834
-2.46776
-1.68985
-0.492153
-1.80437
-1.62867
-1.02682
-1.23886
-1.80349
-1.80836
-2.67163
-2.20264
-2.34442
-2.72126
-2.27173
-2.19254
-2.18835
-2.38072
-1.77653
-1.75399
-1.38227
-0.726131
-0.801932
-0.187324
-2.47763
-1.39104
-1.73003
-1.70295
-1.71568
-0.468824
-1.68641
-2.37466
-0.0370786
-1.68187
-1.73403
-1.97735
-2.87187
-2.37463
-2.37257
-1.69988
-0.148503
-2.46668
-1.71021
-2.06891
-1.79964
-2.11384
-2.25822
-1.57978
-2.44207
-1.74911
-2.21646
-1.78131
-0.220764
-2.37262
-2.43765
-1.41689
-2.81621
-0.803785
-0.940441
-0.817192
-1.56227
-2.3364
-0.65289
-2.06072
-0.670619
-1.76611
-1.75476
-1.54105
-1.82598
-1.65842
-2.57836
-2.13382
-1.63347
-2.18428
-1.70995
-2.86467
-2.42456
-1.70724
-1.65591
-2.11147
-2.54675
-1.6691
-0.289806
-2.05239
-2.5747
-1.65957
-1.50984
-1.6881
-1.71654
-1.73773
-1.7453
-0.0516878
-0.802208
-1.74671
-2.82203
-1.74697
-1.43345
-2.27718
-1.40883
-1.21839
-2.57019
-2.82948
-2.38675
-2.39077
-2.40421
-0.367646
-1.63667
-1.96028
-2.8216
-2.721
-2.82222
-2.84257
-2.71565
-1.45629
-1.42538
-2.82604
-0.633994
-1.45986
-2.19
-1.43371
-2.39414
-2.20859
-2.82682
-2.66953
-2.39425
-0.802518
-1.46922
-1.59723
-1.56243
-1.63909
-2.40454
-2.17566
-1.61244
-1.56751
-1.59278
-0.175547
-2.54143
-0.470378
-1.64027
-1.90002
-1.68191
-1.63715
-1.59399
-0.462797
-1.66338
-1.4712
-1.65469
-1.65536
-2.43488
-1.50746
-0.864914
-0.538325
-2.31402
-1.18337
-1.1644
-2.23691
-0.977969
-0.548103
-0.476165
-0.364305
-2.21344
-0.747314
-1.47459
-1.86241
-0.349555
-2.50807
-2.52334
-1.05127
-1.01649
-2.6965
-1.54296
-0.164959
-1.80775
-0.358493
-2.14533
-0.341104
-0.510915
-0.194412
-0.123366
-0.889907
-2.46554
-0.511554
-0.273813
-0.305621
-1.61234
-0.321613
-1.59554
-2.51328
-1.6458
-1.62789
-2.20634
-0.515443
-1.66401
-1.65895
-0.119001
-0.808183
-2.47527
-1.66691
-1.678
-2.23591
-2.53331
-2.41422
-2.52853
-0.594772
-2.74699
-2.80276
-1.66883
-1.68277
-0.15545
-2.60825
-2.80932
-1.65104
-1.27244
-1.65171
-0.189628
-2.4197
-0.0579995
-0.509642
-1.55737
-1.98654
-1.56109
-1.27892
-2.48926
-1.14437
-2.35764
-1.55613
-1.56341
-0.786844
-1.48882
-1.36707
-2.78248
-2.48742
-2.12936
-1.56111
-2.53256
-0.868336
-0.469407
-0.740381
-0.159248
-1.56535
-2.51195
-1.55873
-0.15677
-0.124308
-2.43942
-1.57901
-0.749935
-2.62346
-1.58103
-1.58798
-2.46186
-0.218097
-2.4427
-1.59002
-1.62297
-1.63023
-1.72036
-1.63758
-2.41416
-2.35186
-1.6383
-2.68812
-1.75242
-2.35586
-1.98802
-1.62188
-2.51239
-1.58085
-1.26179
-2.70832
-1.79847
-1.60404
-0.121504
-1.64178
-1.63765
-1.22442
-1.57027
-2.16062
-0.635367
-2.4687
-1.51455
-2.27694
-2.40462
-1.6086
-1.74139
-0.115485
-0.780187
-0.604199
-1.59253
-2.50682
-0.195492
-1.56161
-2.71216
-0.606831
-2.23452
-0.557187
-1.55973
-1.92112
-1.55737
-0.0200287
-2.0413
-2.50404
-1.22576
-0.395897
-0.623678
-1.18715
-1.2052
-1.29076
-2.4641
-0.118519
-0.391981
-1.35014
-1.36275
-2.34445
-2.17547
-1.35745
-1.42832
-1.31081
-2.00172
-2.71825
-2.56496
-1.73816
-0.3278
-2.33087
-2.30921
-1.03481
-0.53924
-2.10997
-0.985677
-1.34804
-2.20231
-1.73944
-1.75693
-1.53439
-1.30511
-1.41798
-1.4131
-1.38772
-2.26076
-1.44194
-1.91198
-2.68561
-2.50452
-2.18306
-2.42376
-1.31704
-0.962514
-2.47101
-1.44923
-2.1999
-1.68882
-2.28827
-2.77093
-1.33576
-0.0883237
-1.46315
-1.48799
-1.56409
-2.46603
-1.46191
-1.53848
-1.77111
-1.56845
-1.77056
-1.48259
-0.00988519
-1.76099
-1.54223
-1.52739
-0.0598712
-2.19991
-2.75002
-1.75374
-1.82003
-1.38977
-1.55513
-1.5421
-0.641212
-2.73005
-1.55856
-1.56266
-1.57454
-0.389065
-2.45962
-1.64952
-1.40468
-1.76016
-0.908835
-1.17615
-2.32842
-1.447
-1.40683
-1.14731
-1.41461
-1.53217
-0.966496
-1.44229
-2.46318
-1.63019
-0.833492
-2.45343
-2.46445
-1.26864
-1.26571
-1.0835
-1.4491
-0.658248
-1.48481
-0.712253
-2.85588
-2.28089
-1.90043
-0.924486
-0.206506
-2.57048
-0.228047
-0.239118
-1.44367
-0.022323
-1.44437
-0.348729
-1.91533
-0.982971
-1.42924
-2.15248
-1.92952
-1.4433
-0.300038
-0.241641
-1.89018
-1.41744
-0.42244
-1.44805
-1.43508
-1.63681
-1.4957
-2.76582
-2.21914
-2.56147
-1.89318
-2.1471
-1.44173
-2.21985
-1.90104
-1.4434
-2.58651
-2.77732
-2.13964
-2.07514
-1.44271
-2.40004
-1.39668
-2.56188
-1.82526
-2.19695
-0.215109
-0.428681
-2.07867
-0.117412
-2.49403
-2.85039
-2.61751
-0.148313
-0.649416
-0.188509
-2.42676
-2.55578
-0.0908098
-1.93037
-1.37306
-2.38608
-1.98464
-1.37675
-1.47497
-0.349448
-2.1064
-2.13317
-0.632632
-2.75904
-2.56883
-1.53562
-1.38271
-2.84175
-1.37545
-2.79959
-2.13473
-2.11685
-1.38875
-2.65978
-1.23261
-2.64176
-2.46058
-2.66199
-0.0841457
-1.4114
-2.7471
-0.775373
-2.80849
-1.4221
-2.68769
-1.07596
-1.066
-1.13572
-2.7657
-2.30747
-2.65792
-2.29801
-1.20793
-2.74367
-2.75055
-1.0811
-2.76026
-1.26755
-2.21792
-1.18809
-2.30906
-1.52839
-1.02658
-1.45317
-1.0064
-1.46252
-0.246548
-1.27848
-1.16701
-2.57658
-1.13246
-2.13983
-1.61501
-1.90728
-1.24629
-0.403368
-0.925134
-2.14212
-1.1912
-2.55804
-0.810827
-1.30626
-2.64329
-2.20763
-1.31933
-2.37558
-1.29854
-1.18738
-1.16449
-1.49697
-1.26127
-0.0156812
-0.417439
-0.464104
-1.19258
-1.19802
-2.16139
-0.534816
-0.314997
-1.13491
-0.766517
-2.55271
-2.33556
-0.375746
-1.33015
-1.92471
-1.25549
-1.34872
-1.07583
-1.32153
-2.31597
-1.31832
-1.82896
-0.00927208
-2.52074
-1.79935
-2.82837
-1.35955
-1.31269
-0.239768
-2.57674
-0.987665
-1.36215
-2.2217
-1.41404
-1.37296
-1.27513
-1.29238
-0.354103
-1.40497
-1.3471
-1.35551
-1.2934
-1.50074
-1.32238
-2.51482
-1.09209
-1.37166
-2.56598
-2.82152
-1.8857
-1.12781
-2.08694
-1.35314
-1.23008
-1.16573
-0.636992
-1.10955
-1.00564
-2.72384
-1.11953
-1.5026
-1.51669
-0.40021
-1.09749
-2.51177
-1.25867
-1.28819
-1.79171
-1.68099
-1.24461
-1.95832
-1.52076
-1.26611
-1.24155
-1.41633
-1.2445
-2.49868
-2.4139
-1.13449
-1.08357
-1.19947
-0.515347
-1.28006
-1.51918
-2.17522
-1.23839
-1.28833
-1.18551
-1.30642
-2.51737
-1.08709
-2.44522
-1.28148
-1.22638
-1.16376
-1.24143
-0.990455
-1.2149
-0.99167
-0.885565
-1.21685
-2.68791
-1.39905
-2.6823
-1.79443
-0.844336
-0.28723
-1.0874
-2.51285
-1.26231
-1.23275
-0.923849
-1.25552
-0.912447
-2.534
-2.52002
-0.952236
-0.959392
-1.00653
-1.01135
-2.01487
-1.59623
-0.98575
-0.989859
-0.746156
-1.22401
-1.00987
-1.0055
-0.604711
-0.56407
-0.000941163
-1.00932
-2.01743
-0.362159
-1.60156
-1.05245
-1.07403
-1.12661
-1.43951
-2.4952
-1.29127
-0.921047
-0.143442
-0.221623
-1.62257
-1.0567
-1.0094
-1.40943
-0.348194
-0.240014
-1.07532
-2.50434
-1.18764
-1.20959
-0.589479
-1.12486
-2.77993
-1.16909
-1.14045
-1.58004
-1.15778
-1.19547
-2.50927
-1.20131
-1.37196
-0.218771
-0.0565273
-1.97185
-0.428638
-0.237155
-1.2382
-1.01937
-2.51038
-1.2148
-2.60702
-2.59904
-1.18133
-2.49377
-0.0892433
-1.14347
-1.21757
-0.393423
-1.23237
-2.60821
-2.82883
-0.581242
-2.56684
-1.20847
-2.15655
-2.37618
-1.22024
-1.27949
-2.59065
-1.20237
-2.76557
-1.22436
-1.47668
-1.32121
-2.76948
-2.57673
-1.48816
-1.24552
-1.20766
-2.2485
-1.47027
-2.26103
-2.57613
-2.527
-1.24653
-0.148412
-1.2563
-1.15947
-2.22952
-0.967878
-2.22364
-0.474407
-2.38421
-0.00344579
-2.5222
-1.48434
-1.047
-1.1494
-2.5688
-1.13102
-2.51476
-2.44619
-2.55269
-0.139242
-0.0416685
-2.27231
-0.0576413
-1.1239
-1.45917
-1.96204
-1.10993
-2.46044
-1.66395
-2.48538
-1.07696
-2.46208
-2.06164
-2.23488
-2.82942
-1.53652
-2.72031
-1.07416
-0.133854
-1.68448
-0.110649
-2.80942
-0.538777
-1.61473
-2.24345
-1.18196
-1.12481
-0.165159
-0.394136
-1.14726
-2.30431
-2.54372
-0.0826225
-2.6207
-1.48498
-2.74744
-0.693195
-2.31392
-1.14214
-2.04763
-2.56153
-2.0356
-1.90561
-2.14099
-2.32914
-2.4938
-1.87309
-0.503475
-2.19948
-1.16874
-1.16941
-1.17213
-0.708431
-2.71302
-2.72403
-2.21406
-1.27361
-2.4584
-2.52631
-1.27679
-1.1743
-1.16275
-1.12551
-2.71009
-0.565926
-1.10477
-1.74334
-1.12825
-2.20259
-2.02229
-1.33454
-0.676752
-1.12319
-1.11697
-1.58436
-2.80538
-1.82032
-1.12259
-2.47776
-0.805588
-0.609221
-2.68312
-0.0765673
-0.798685
-0.16502
-0.821076
-0.799282
-2.47712
-1.10004
-2.05486
-2.46866
-1.40442
-1.17972
-2.56068
-0.853561
-2.53094
-1.05659
-1.09012
-1.09661
-2.22812
-1.88029
-2.52739
-2.29929
-2.42977
-0.935598
-1.62502
-2.57022
-2.39053
-1.16652
-2.39026
-0.824325
-2.19972
-0.541583
-2.24052
-1.11359
-1.98234
-0.992095
-1.52467
-2.39204
-0.80519
-2.40406
-0.621924
-1.18953
-0.983103
-0.369728
-1.02701
-0.960911
-1.36196
-2.52607
-1.00926
-0.466775
-0.210757
-2.22889
-0.227237
-2.42055
-0.0534885
-1.03849
-0.581358
-1.03961
-2.39954
-2.44012
-0.544199
-2.70014
-0.375549
-0.00128958
-2.22737
-2.01414
-1.03062
-2.39006
-0.777594
-0.231386
-1.32652
-0.0489655
-1.69957
-2.13321
-1.55701
-1.05285
-2.7948
-1.06599
-1.71337
-2.23631
-1.41284
-2.42961
-1.02628
-1.5464
-1.01183
-1.58308
-2.69911
-1.09419
-0.956017
-1.61237
-1.01548
-1.7982
-1.0188
-0.673779
-1.01119
-2.70392
-1.00643
-0.969947
-0.996362
-2.63887
-1.28764
-2.52594
-2.72877
-2.70393
-1.94214
-0.556787
-0.758402
-2.03338
-2.39153
-0.247907
-0.71989
-0.993156
-0.981241
-2.4187
-2.81692
-0.0197506
-0.364373
-0.905158
-2.54064
-0.366292
-1.4277
-2.4286
-0.967641
-0.963133
-0.968541
-0.934381
-0.970165
-1.96792
-1.17812
-2.3578
-0.268685
-1.00682
-0.979522
-2.64062
-1.52118
-2.59629
-2.73054
-0.54071
-0.980179
-0.754528
-2.64237
-2.64986
-2.60667
-2.5873
-1.33082
-0.743806
-2.55578
-0.546404
-0.983091
-2.35007
-1.109
-0.973149
-0.776327
-0.944864
-2.32924
-2.30734
-0.969942
-1.71596
-1.10421
-1.09184
-2.80483
-0.286004
-0.614064
-0.978475
-0.987757
-0.107092
-0.985499
-0.745302
-1.0336
-2.27292
-1.01014
-0.19017
-1.05916
-0.0970759
-2.65809
-2.58978
-1.36729
-1.01095
-1.03616
-1.17072
-0.893459
-0.814273
-1.19928
-0.862378
-0.84367
-0.74836
-0.864454
-2.68795
-2.37227
-1.42968
-2.23255
-0.901523
-2.31284
-0.734469
-2.23796
-1.87809
-2.15096
-0.87734
-1.62459
-0.213802
-2.31312
-2.5004
-1.0137
-2.84301
-0.906211
-0.929566
-1.53545
-0.231866
-1.19813
-0.933821
-2.29925
-0.736387
-0.992988
-0.970679
-0.680336
-1.91326
-0.684738
-0.672446
-0.690504
-0.701758
-0.687689
-2.24601
-2.28525
-2.30797
-2.23245
-0.432659
-0.689597
-2.62435
-0.760425
-0.423896
-0.751451
-0.743477
-0.453423
-0.756676
-0.760517
-0.749198
-0.934078
-0.912538
-1.6513
-1.03085
-1.1572
-1.48846
-1.27522
-1.18824
-0.436402
-0.946051
-0.925443
-0.715674
-0.773435
-0.922527
-1.80224
-0.187743
-2.12809
-2.79777
-1.65897
-2.69664
-0.92381
-0.202642
-0.217869
-0.226281
-1.25429
-0.223615
-0.897535
-0.922338
-2.53283
-2.82842
-1.55546
-0.830622
-2.59003
-1.4114
-1.71973
-0.905758
-1.76167
-0.907612
-1.80628
-0.770333
-0.395172
-0.500445
-0.866041
-0.012106
-0.935894
-2.56373
-0.696102
-2.10148
-0.27703
-0.840453
-0.864085
-2.40979
-1.16409
-1.81995
-1.30298
-1.80175
-0.850062
-0.163817
-2.61157
-1.01752
-1.68213
-2.559
-2.56199
-0.88444
-0.760039
-0.883963
-1.33191
-0.874433
-1.77301
-2.39797
-1.37422
-0.890171
-0.894955
-1.41191
-1.61633
-1.99168
-0.891348
-0.90826
-0.909769
-2.57773
-0.893316
-0.910735
-0.32825
-0.809516
-0.435384
-0.157023
-0.422691
-0.266174
-0.790303
-0.812621
-0.134084
-0.632722
-0.130342
-2.53973
-0.82529
-0.478355
-2.55176
-1.95966
-1.2339
-0.709445
-0.862814
-0.139917
-0.835191
-1.85398
-1.32316
-0.823911
-2.6088
-0.399093
-0.050876
-0.836207
-2.85186
-1.29665
-1.69498
-0.153406
-0.839826
-0.833932
-1.98693
-0.146159
-1.27414
-1.65028
-0.794902
-0.83375
-0.859327
-2.83682
-2.69098
-2.61304
-1.24155
-0.423768
-0.174489
-0.145072
-2.64498
-0.149482
-0.512138
-0.86275
-2.81291
-1.01062
-0.886382
-2.37004
-2.62246
-1.8485
-1.77202
-0.880803
-0.866807
-2.55484
-2.19951
-2.31536
-0.251037
-2.14295
-0.577919
-1.15541
-0.468311
-0.841359
-1.34421
-2.68408
-1.34513
-1.3405
-2.75241
-0.798813
-2.57388
-0.616451
-1.75411
-2.06714
-2.66959
-1.33216
-2.59436
-0.764774
-0.637193
-0.368905
-0.789382
-2.60714
-0.613093
-0.55261
-1.61628
-0.630272
-0.622125
-0.671467
-0.222085
-1.21521
-0.816052
-0.970706
-0.585175
-0.736881
-0.663778
-0.446197
-2.63339
-1.8349
-0.606045
-0.83295
-2.85995
-1.55979
-0.800583
-1.67241
-0.805995
-1.48043
-0.791259
-2.61444
-0.615441
-2.85577
-0.495851
-0.461922
-1.62616
-0.611955
-1.77509
-1.56483
-1.89501
-0.255087
-0.0164162
-0.32052
-0.28674
-0.509952
-0.186167
-0.553391
-0.524963
-0.523504
-2.73497
-0.328695
-2.64165
-2.65263
-0.411095
-2.51335
-0.848715
-2.57892
-2.39899
-0.595892
-2.52244
-0.600966
-0.0261718
-1.86699
-1.17718
-2.44681
-2.38932
-1.31785
-0.201111
-0.362868
-1.90019
-2.06617
-0.603935
-0.590143
-0.788168
-2.10327
-2.29916
-1.71534
-0.217284
-0.162913
-0.783811
-1.93322
-2.12562
-2.33307
-2.7421
-0.807337
-2.45911
-2.26369
-1.69528
-2.84858
-1.1771
-1.54854
-1.96082
-0.758634
-2.65535
-0.152398
-1.16227
-2.23915
-2.01726
-2.39236
-2.64257
-0.235448
-1.15389
-0.786322
-1.38311
-0.785886
-1.29117
-1.43161
-1.37587
-1.00046
-0.789447
-0.77899
-0.754233
-1.02233
-2.72652
-1.0973
-0.990973
-1.03544
-2.59518
-2.28555
-0.2134
-2.64948
-0.792225
-0.756023
-1.56311
-0.668714
-0.66855
-0.935395
-0.216069
-0.664178
-0.689039
-0.168627
-0.626448
-0.617541
-0.678353
-0.869729
-0.738585
-0.743071
-2.62653
-0.4942
-0.616377
-0.44325
-0.808254
-0.440968
-0.383871
-0.777893
-0.187551
-0.177912
-1.07145
-0.417158
-0.394271
-2.63676
-0.765935
-0.586839
-0.550223
-0.207249
-0.50009
-0.764606
-0.778997
-0.6991
-1.21778
-1.67231
-1.90767
-1.45433
-0.207961
-0.687479
-0.692806
-0.717514
-2.19457
-1.05951
-0.786783
-2.77391
-0.702475
-1.04843
-0.685851
-0.706525
-1.85587
-1.90322
-0.683159
-1.12287
-2.40571
-2.3689
-1.06386
-0.696548
-2.6228
-0.69215
-1.46046
-0.692782
-2.82476
-0.699434
-2.13902
-0.67861
-1.83333
-2.23237
-2.57641
-2.35922
-0.688093
-2.25829
-1.6346
-1.83446
-0.68861
-0.300869
-1.18244
-1.67409
-0.689433
-0.68759
-0.694288
-1.18276
-0.623907
-2.76508
-1.98015
-0.275158
-2.63023
-0.65053
-2.55522
-0.251847
-0.59945
-0.640047
-2.1824
-0.680575
-1.8786
-2.72971
-0.606659
-0.650045
-1.03848
-2.67123
-2.19193
-2.175
-0.657505
-2.30161
-1.94168
-0.648555
-1.05638
-0.892565
-0.638566
-0.631621
-1.89179
-2.32789
-0.710696
-1.08532
-0.870243
-2.60796
-2.56062
-2.60557
-0.69008
-2.6143
-0.447625
-2.06203
-2.39238
-1.35307
-1.85425
-0.689688
-2.65865
-0.340397
-0.372786
-0.405035
-1.13732
-0.406665
-1.2361
-1.2037
-1.06562
-1.31694
-2.12351
-1.08611
-1.61494
-0.112356
-0.469026
-0.927261
-1.55748
-0.667505
-1.73822
-2.43419
-1.25015
-2.10262
-2.00825
-0.131032
-0.400945
-1.82391
-0.470561
-0.0117447
-2.65932
-2.18226
-2.53811
-0.403259
-2.65324
-1.01893
-2.53065
-0.972551
-2.58012
-0.992655
-2.61601
-0.441796
-2.31078
-0.635577
-1.95257
-0.989709
-2.01774
-1.01934
-2.84637
-0.647477
-0.862003
-2.11195
-1.9661
-0.622218
-1.31177
-1.97684
-0.64344
-1.74725
-0.256575
-1.74084
-0.585865
-0.568013
-0.864957
-2.64753
-0.64738
-0.403881
-0.652275
-0.655785
-1.14974
-2.21411
-0.72597
-0.659649
-1.14843
-1.16443
-0.038662
-2.57688
-0.639967
-0.83755
-1.48983
-2.04186
-0.0370393
-0.654207
-2.6348
-0.55357
-0.519924
-1.63742
-0.320395
-0.465234
-2.39073
-0.630882
-2.60694
-1.19614
-0.416849
-0.51911
-1.33784
-0.505003
-0.649818
-0.912466
-0.607481
-0.61511
-0.596662
-0.257628
-1.58502
-0.585159
-0.827913
-0.562138
-0.732889
-0.839732
-0.579309
-0.552682
-2.57621
-0.60599
-0.510647
-0.560748
-2.62659
-0.634427
-0.543502
-0.749168
-1.95855
-0.788914
-0.58695
-0.658915
-0.569219
0.00400534
-2.6103
-0.797142
-0.565463
-0.440582
-2.69027
-1.05945
-0.287508
-0.546303
-0.117626
-1.15244
-2.62394
-0.54097
-2.58952
-0.512962
-0.335245
-2.62795
-2.59342
-2.67761
-0.409419
-2.65033
-0.164841
-0.178506
-0.555583
-0.282321
-0.243208
-0.68633
-1.96262
-2.63312
-2.5268
-2.7159
-2.49326
-1.55755
-1.14102
-0.425711
-0.519736
-0.605243
-1.46354
-1.68535
-1.00736
-2.18638
-0.789201
-0.570781
-1.78836
-0.721549
-2.504
-2.52705
-0.320289
-2.51843
-1.66749
-2.2973
-2.69205
-0.533217
-2.08586
-1.67928
-1.79772
-1.68988
-0.538241
-1.31153
-2.5468
-2.70001
-0.647014
-2.47911
-2.70582
-2.5942
-2.14424
-0.453195
-2.71059
-0.473453
-2.43799
-2.42107
-0.478077
-0.536179
-0.427478
-1.51386
-2.656
-1.10117
-1.67783
-0.440428
-1.8644
-2.6549
-0.568291
-2.18634
-0.541475
-2.21243
-2.52542
-2.71788
-2.50115
-0.914315
-1.01689
-1.20673
-2.08015
-0.573506
-2.34516
-2.36718
-0.552672
-2.2308
-1.29085
-0.555178
-1.67674
-2.27358
-0.533825
-2.54276
-0.449876
-2.31762
-2.76237
-0.505177
-1.43873
-0.513732
-1.71487
-0.535399
-0.252441
-2.65537
-1.75029
-0.862368
-1.16297
-1.47885
-1.41605
-0.218565
-1.30908
-1.31725
-2.5408
-1.77713
-2.78439
-2.42056
-0.717527
-2.58725
-0.268413
-0.273037
-1.87844
-1.60142
-2.22825
-2.23705
-0.289036
-0.249003
-1.28229
-2.61775
-2.11998
-2.41883
-2.75634
-0.300414
-2.14513
-1.76496
-2.15059
-2.21895
-1.64869
-2.63804
-2.24442
-2.32323
-0.648145
-0.718296
-2.73271
-0.302413
-0.262719
-0.49648
-2.4713
-2.63509
-2.67103
-0.475951
-0.45451
-1.96347
-0.493982
-0.485115
-2.01072
-2.71108
-2.20672
-0.755684
-2.51026
-1.28918
-2.1934
-2.21075
-2.71236
-0.459854
-1.59521
-1.61564
-0.484485
-0.44748
-0.432379
-0.449896
-1.72615
-0.482168
-2.71382
-2.14996
-1.9765
-0.479809
-0.427412
-0.930172
-2.09085
-2.72969
-1.26364
-1.10656
-2.70048
-0.214936
-0.370692
-0.748711
-1.16213
-0.369186
-0.477781
-0.485217
-0.904961
-0.495875
-2.6929
-2.71602
-0.983908
-2.69706
-1.57135
-0.899385
-0.465794
-0.727715
-0.673905
-0.805213
-0.473003
-0.405597
-0.509943
-0.595514
-0.421868
-0.702118
-0.752714
-2.1117
-0.426384
-0.463436
-0.827499
-0.295826
-0.474677
-0.431929
-0.392157
-0.407853
-0.437793
-2.69342
-0.445656
-0.482851
-1.5115
-1.5199
-2.61623