/*--------------------------------*- C++ -*----------------------------------*\
| =========                 |                                                 |
| \\      /  F ield         | OpenFOAM: The Open Source CFD Toolbox           |
|  \\    /   O peration     | Version:  2406                                  |
|   \\  /    A nd           | Website:  www.openfoam.com                      |
|    \\/     M anipulation  |                                                 |
\*---------------------------------------------------------------------------*/
FoamFile
{
    version     2.0;
    format      ascii;
    arch        "LSB;label=32;scalar=64";
    class       surfaceScalarField;
    location    "10";
    object      phi;
}
// * * * * * * * * * * * * * * * * * * * * * * * * * * * * * * * * * * * * * //

dimensions      [0 3 -1 0 0 0 0];

oriented        oriented;

internalField   nonuniform List<scalar> 
113358
(
-1.8866e-05
3.74207e-05
-2.54853e-05
6.93198e-06
2.67297e-05
-3.37432e-07
-7.36658e-06
-1.8981e-05
-2.81617e-05
2.29091e-05
-3.18184e-06
8.56112e-06
-2.29634e-05
-6.47064e-06
2.36485e-05
5.26574e-06
-1.67822e-05
6.91414e-07
2.96822e-05
-1.35802e-05
1.38692e-05
-1.42783e-05
-8.12934e-06
8.54716e-06
-7.89145e-06
3.7135e-05
-2.67851e-05
-2.40685e-06
-1.47338e-06
-3.8431e-05
2.11741e-05
1.87754e-05
1.0232e-05
9.2169e-07
1.9658e-05
-3.08062e-05
1.09589e-05
4.5251e-06
-1.51132e-05
-1.45411e-06
-5.20989e-06
1.90645e-05
-1.74206e-05
3.56323e-06
-1.95234e-05
1.04576e-07
-5.62041e-07
2.00189e-05
-5.05628e-05
4.90883e-06
1.37723e-05
3.18454e-05
1.6492e-06
-3.83884e-06
2.2056e-06
3.14104e-06
-1.45961e-06
2.79187e-05
-2.97243e-05
6.69705e-07
3.84822e-07
1.79699e-05
-1.91866e-05
7.92704e-06
2.69725e-05
-2.23416e-05
-1.25514e-05
-2.08263e-05
1.15606e-05
8.80656e-06
4.62476e-07
1.45867e-05
-4.17415e-05
3.75035e-05
-1.03399e-05
1.99834e-05
2.73901e-06
2.2844e-05
-4.55756e-05
2.40029e-05
7.66542e-07
-4.70482e-07
-2.42633e-05
-1.06923e-05
4.21881e-05
3.94699e-06
-3.5519e-05
-8.56392e-07
-3.82435e-05
4.11418e-05
-2.02938e-06
-1.03105e-06
6.81633e-06
4.45828e-07
-6.16308e-06
-4.30151e-05
1.88024e-05
-3.84183e-06
2.79746e-05
-3.11033e-05
5.50061e-06
2.71521e-05
-1.79533e-06
-1.43639e-05
1.46144e-05
3.08669e-07
-5.21764e-07
-3.26524e-06
-8.95561e-06
7.06269e-06
5.18623e-06
2.50725e-05
-2.31596e-07
-8.17343e-07
-3.12298e-06
3.08659e-06
4.34861e-08
-5.25051e-06
-2.54211e-05
2.73401e-05
3.33395e-06
6.21896e-06
-5.20017e-07
-9.79623e-06
4.13418e-06
1.9754e-05
-1.09106e-06
6.14536e-07
-1.92799e-05
-2.97482e-05
1.17226e-05
-2.4677e-06
1.95832e-05
1.66714e-05
1.06932e-06
-1.8716e-05
9.80715e-07
-3.24637e-05
7.54706e-06
-1.24403e-05
3.72732e-05
2.12005e-07
-3.35937e-06
3.14117e-06
9.21142e-06
1.27691e-05
2.39466e-06
-2.44087e-05
7.98048e-06
-4.38282e-05
3.61124e-05
-2.25339e-07
-3.11203e-06
4.47267e-06
3.1427e-05
-3.30944e-05
-2.30502e-05
1.9155e-05
-2.28085e-05
2.67491e-05
2.9697e-06
-2.11939e-05
-2.9639e-05
4.78856e-05
-1.22904e-07
3.91194e-05
-1.08026e-05
-2.81757e-05
6.55275e-06
-2.08694e-05
-8.15642e-06
-4.92538e-06
3.11253e-05
-1.87803e-07
-2.59954e-05
-4.04684e-06
2.29532e-05
-1.44771e-05
-4.46353e-06
-2.95678e-05
-1.14696e-05
4.09455e-05
-8.10052e-06
2.87432e-05
5.65136e-07
-2.12084e-05
-3.46344e-05
3.31261e-06
-4.44839e-06
3.58029e-05
2.94278e-05
1.21912e-05
-3.9189e-05
-2.42829e-06
2.2855e-05
-1.58482e-05
1.69436e-06
-8.68821e-06
-1.45393e-05
3.74763e-06
1.61047e-05
-5.92183e-06
3.4362e-05
-7.68027e-06
1.85715e-05
-4.53737e-05
-1.01758e-05
-4.15647e-05
4.40818e-05
7.68274e-06
-3.72884e-06
1.19731e-05
-1.2551e-05
4.31637e-06
2.98811e-05
-1.29194e-05
2.15725e-05
-3.85227e-05
-1.73122e-05
3.07014e-06
3.16472e-05
-1.73986e-05
2.05901e-05
-1.06492e-05
7.13632e-06
-1.70908e-05
2.92158e-05
-7.41179e-06
-2.2285e-05
4.27656e-07
-1.1606e-05
-1.38016e-05
6.68014e-06
1.87296e-05
-2.67159e-05
-4.32784e-06
1.31538e-05
1.82124e-05
-4.99192e-06
5.02906e-06
-3.82569e-08
2.83161e-05
-4.41095e-06
-2.67757e-05
2.89598e-06
-1.1943e-05
-3.29623e-05
1.21209e-05
3.27934e-05
-3.91941e-06
3.85937e-06
-3.87405e-05
3.87072e-05
2.20578e-06
1.8734e-05
1.34005e-06
-2.22717e-05
5.57134e-06
-5.00744e-06
-8.25578e-07
-2.23317e-07
3.35382e-07
1.73962e-05
-1.75779e-05
5.1347e-06
-3.019e-05
3.306e-05
-8.01917e-06
1.01599e-05
-2.29436e-05
2.076e-05
-7.96341e-06
1.08589e-05
-1.18132e-05
1.0247e-06
-1.54574e-05
-4.97338e-06
2.67536e-05
-6.32319e-06
-1.93199e-07
5.88942e-06
-5.6967e-06
6.29039e-06
-2.69762e-05
9.1632e-06
1.15452e-05
3.33337e-05
-2.82936e-06
-1.90541e-06
-2.85623e-05
-2.2649e-05
-2.79808e-05
2.93443e-05
2.13296e-05
2.52642e-06
-2.99681e-05
4.7892e-06
3.25362e-05
-2.58442e-05
-3.20912e-07
-6.35377e-06
-3.97082e-08
-8.62121e-08
-2.1223e-05
2.14693e-05
7.16092e-06
5.42589e-06
9.54156e-06
-2.21163e-05
1.2721e-05
-8.20275e-06
4.63224e-06
-1.06925e-05
-1.41166e-05
-8.94721e-06
2.42294e-05
-1.15875e-06
-1.89772e-05
2.42811e-05
-1.68434e-05
1.15447e-05
-4.75069e-06
-2.22133e-07
4.95219e-06
-2.59323e-05
2.48778e-05
-2.4826e-05
1.99423e-05
-3.74045e-06
-1.31848e-06
-1.4187e-06
6.50185e-06
5.66057e-05
-5.44605e-05
2.17953e-06
-4.37024e-06
-1.76799e-05
4.95135e-06
1.62461e-05
-3.57623e-06
-3.93434e-06
2.70383e-05
-3.07828e-05
7.67923e-06
-1.59162e-05
-1.98807e-05
2.96152e-05
6.19114e-06
7.72254e-06
-1.20661e-05
1.7956e-05
-1.35883e-05
6.34407e-06
1.84703e-05
-3.95434e-05
1.47169e-05
-3.04321e-05
1.12301e-05
1.25793e-05
6.65852e-06
4.64679e-07
-2.3614e-05
1.86626e-05
4.47847e-06
-2.71888e-05
3.63384e-06
9.1544e-06
1.44092e-05
2.2504e-05
-1.90395e-05
6.97605e-06
-1.05004e-05
1.75832e-06
1.6986e-05
-1.86195e-05
-2.09036e-07
2.20765e-05
-2.57296e-06
-3.96367e-06
-1.55258e-05
1.48268e-05
1.6092e-05
-1.36864e-05
-1.72355e-05
3.45034e-06
-1.61054e-07
5.8576e-06
-9.1239e-06
7.4732e-06
-7.58338e-07
-6.66115e-06
3.31249e-08
5.70583e-06
-5.73459e-06
-8.60009e-07
4.32556e-06
-1.89153e-05
1.5404e-05
-1.916e-05
4.16304e-05
5.98295e-07
-2.28967e-05
3.49646e-06
-1.86502e-05
1.43652e-05
4.43587e-07
-5.07374e-06
-6.58928e-06
2.24363e-06
9.39845e-06
-6.89163e-06
-1.66246e-05
4.50963e-06
1.89192e-05
-3.6933e-06
2.50247e-05
9.60682e-06
-3.11044e-05
6.35225e-06
5.29774e-06
-2.58774e-05
1.42393e-05
-3.25101e-06
2.7251e-05
-3.21982e-05
8.22191e-06
-1.30861e-05
1.2546e-05
2.79973e-07
2.58315e-05
-3.13881e-05
4.72952e-06
7.73765e-07
2.00197e-05
9.06837e-06
-3.26132e-05
3.53646e-06
-2.29778e-05
-1.16544e-05
5.77694e-06
2.88691e-05
-2.9279e-06
-2.50449e-05
7.92444e-07
2.71595e-05
1.90247e-05
-2.00502e-05
1.54497e-06
-5.39453e-07
1.58638e-05
-2.71297e-05
-5.42182e-06
1.67241e-05
-5.37159e-06
6.64626e-07
4.68756e-06
-3.18402e-06
-1.6389e-06
2.70304e-05
-2.22877e-05
-1.12772e-05
6.80178e-06
3.51341e-05
-3.06849e-05
-8.10083e-06
1.63441e-05
-2.52876e-05
1.70765e-05
1.02438e-06
-2.18163e-05
1.77535e-05
3.13615e-06
-2.9263e-06
-7.30307e-06
2.56674e-05
-1.54305e-05
2.30352e-05
-1.14506e-05
-8.49685e-06
-3.08491e-06
-2.22103e-06
-1.46069e-05
1.95443e-05
-2.7147e-06
9.08388e-06
-4.36401e-06
-4.70578e-06
-1.38216e-06
-2.61002e-05
-4.51227e-06
3.20072e-05
-1.50255e-05
1.99879e-05
6.0227e-06
-1.10132e-05
3.72058e-06
-1.01498e-05
1.75287e-05
-1.11014e-05
-3.325e-05
7.09585e-06
-4.42941e-07
2.6623e-05
-2.33209e-06
-4.83611e-05
4.25715e-05
7.82835e-06
3.94274e-07
-5.78292e-06
5.4657e-06
2.01661e-05
-2.98739e-05
1.38125e-07
9.57044e-06
4.14605e-05
4.28813e-06
-4.37857e-05
-1.94002e-06
1.29377e-05
8.11439e-07
-2.91265e-05
1.54348e-05
-9.25442e-06
1.27473e-05
1.65317e-05
-2.85009e-05
-2.34865e-05
1.26154e-05
3.93228e-05
9.23572e-06
3.61355e-06
-5.27455e-06
8.10245e-06
-6.47943e-06
-3.11889e-05
2.95844e-05
8.5629e-06
2.32709e-05
-1.11903e-05
-2.06069e-05
-5.01319e-06
1.10304e-05
2.59078e-05
-3.19504e-05
7.83418e-08
3.72106e-06
-3.8227e-06
-2.31909e-05
3.91655e-06
1.36555e-05
5.68445e-06
2.48382e-05
-1.31081e-05
-1.71332e-05
5.40883e-06
3.00304e-05
-6.75459e-06
-3.49438e-06
-1.97759e-05
-2.87315e-05
6.90071e-08
-7.24411e-07
2.94129e-05
2.63855e-05
1.35557e-05
-3.83299e-05
-1.60907e-06
7.03713e-06
4.8322e-06
-1.18608e-05
1.66913e-06
-2.9858e-05
4.59599e-07
2.7684e-05
4.75951e-05
-3.67198e-05
-3.90669e-06
-6.93521e-06
5.64526e-06
-4.93168e-07
-4.74782e-06
-6.33836e-07
-2.78482e-05
3.91921e-05
1.53412e-05
-2.66574e-05
1.63418e-05
-2.58581e-05
-1.75096e-06
1.11707e-05
-2.81956e-05
3.10288e-05
-7.72607e-07
-1.99042e-06
-4.04212e-06
2.15237e-06
1.65177e-06
4.10748e-05
-4.7077e-06
1.15258e-05
-4.7964e-05
-2.7723e-05
3.70501e-05
-3.74631e-05
3.98443e-07
3.59144e-06
2.30639e-05
-2.70243e-05
3.72873e-06
-3.67415e-06
-6.17763e-08
-1.58865e-05
-7.6388e-06
1.29906e-06
2.22491e-05
-1.05855e-05
2.8526e-05
-2.25613e-05
4.64796e-06
2.59928e-06
-7.22959e-06
4.24516e-06
4.3515e-07
-2.60366e-06
-2.17411e-06
4.50014e-06
-3.09732e-05
2.86464e-05
2.96187e-05
-2.7307e-05
4.09968e-05
-1.0292e-05
-9.05607e-06
-2.15965e-05
2.06615e-05
-1.59969e-07
-9.00329e-07
-1.95688e-05
2.65775e-05
-3.23421e-05
4.19702e-06
1.56612e-06
4.55115e-06
-1.5545e-07
-4.39538e-06
-4.66177e-06
2.47111e-05
-2.50206e-05
4.56201e-06
-1.75806e-05
1.79251e-05
-2.21917e-06
1.88169e-06
-1.54194e-05
1.3328e-05
1.13621e-06
9.50655e-07
3.57849e-06
-2.79552e-05
9.13767e-06
1.52177e-05
-1.00283e-05
-1.03132e-05
2.40774e-05
-3.74466e-06
-2.13362e-05
2.08767e-05
4.09864e-07
7.05778e-08
-2.98113e-05
-3.38362e-05
3.40907e-05
-8.92386e-06
2.80178e-05
8.78731e-06
-2.78703e-05
5.27613e-06
2.98416e-05
4.74038e-06
-3.98608e-05
-1.90861e-05
8.04253e-06
2.76179e-05
-1.64551e-05
1.16428e-07
3.12747e-07
1.52011e-05
-1.55666e-05
1.91891e-06
3.49174e-05
-5.24996e-06
-3.15633e-05
-5.83498e-06
-4.01634e-06
6.33033e-06
3.54568e-06
6.80966e-06
-5.79417e-06
-9.62475e-07
-5.05607e-06
-1.74071e-05
1.1438e-06
-2.18318e-05
5.15802e-08
-4.46117e-06
2.62414e-05
-2.37235e-05
2.07446e-05
1.39218e-06
1.59929e-06
-5.08755e-07
1.17514e-05
2.55615e-08
-1.13224e-05
-4.417e-06
3.67055e-06
8.69288e-07
3.63487e-06
-4.82484e-07
2.14766e-05
-2.46418e-05
3.4203e-05
3.14649e-06
-2.87171e-05
-8.59316e-06
-3.44234e-06
-1.3642e-05
-9.49443e-06
2.17401e-05
-2.30589e-05
1.29019e-06
-7.53738e-08
5.93077e-06
-2.54428e-05
3.03717e-05
-1.08444e-05
1.59663e-05
3.7969e-06
-9.07323e-06
-1.05937e-05
-1.41475e-05
-3.46901e-05
7.99503e-06
4.08135e-05
3.22223e-07
3.76739e-06
-3.99101e-07
-3.33813e-06
1.39201e-05
-4.31555e-07
2.52674e-06
-1.5894e-05
-1.51827e-05
9.69508e-07
1.52691e-05
-9.68016e-07
2.32138e-05
5.4953e-06
-3.15027e-05
2.96741e-06
-2.67767e-05
-1.58353e-05
3.46631e-05
7.9541e-06
-7.90472e-06
3.23643e-06
-7.35652e-06
5.06608e-06
2.11218e-05
-2.71062e-05
8.85372e-07
-2.70961e-05
-2.75277e-05
1.17795e-05
4.2987e-05
-4.13464e-06
4.41021e-06
-2.84857e-07
1.94432e-05
1.11688e-05
-1.84241e-06
-2.86718e-05
-4.51591e-07
-3.96721e-06
-2.78608e-05
3.22288e-05
-1.62628e-05
4.16395e-06
3.96598e-05
-2.75799e-05
2.20896e-05
-1.68799e-05
-7.89751e-06
2.97204e-06
4.26877e-06
-8.03503e-07
-3.51264e-06
4.89306e-05
-2.27521e-05
3.82817e-06
-3.00283e-05
1.54412e-05
-1.50731e-05
1.83684e-06
-2.07776e-06
3.01141e-06
3.34873e-06
-6.34151e-06
-1.5471e-05
-2.07924e-05
4.26265e-06
3.19518e-05
-1.6658e-05
-6.79497e-08
1.7208e-05
-3.95116e-07
2.33079e-05
-5.09057e-05
9.5475e-07
2.66381e-05
-1.66369e-05
-2.14357e-05
2.79658e-05
1.01005e-05
-1.28954e-05
1.5801e-05
2.71349e-05
4.60725e-06
2.46803e-05
-2.62175e-05
-3.10766e-06
2.27454e-06
1.87167e-06
-1.87974e-05
1.46993e-05
-2.89457e-05
1.33284e-05
1.00759e-05
5.56307e-06
2.00412e-05
5.36549e-06
-1.87992e-06
-2.36372e-05
-3.90025e-06
-2.87952e-05
3.29972e-06
2.9423e-05
5.70494e-06
-2.03244e-06
2.10612e-05
-2.47268e-05
-2.94869e-06
-1.17703e-06
-7.82756e-06
1.11058e-05
4.57252e-07
7.92821e-06
-3.07784e-05
2.23957e-05
-1.07006e-05
-2.24517e-05
-7.8281e-07
3.3901e-05
6.40566e-07
7.58209e-06
-8.18677e-06
-2.72845e-08
2.81912e-08
1.66765e-05
-1.67171e-05
2.12546e-06
1.30098e-05
1.06756e-05
-2.58059e-05
-1.19571e-07
-2.25506e-05
5.38103e-07
2.21167e-05
3.81698e-06
-1.68485e-05
-1.2804e-05
2.58422e-05
1.19379e-05
1.49926e-05
-1.24192e-05
-1.45493e-05
2.35804e-05
1.37981e-05
-3.14279e-05
-5.95674e-06
-2.21009e-07
-6.20506e-06
6.42983e-06
4.02708e-06
2.02902e-06
-1.16729e-07
-5.92094e-06
2.72834e-06
3.24084e-06
5.71632e-07
-6.5616e-06
3.68535e-06
-3.91856e-06
2.11253e-05
2.6969e-07
-3.50191e-05
1.24861e-05
2.23469e-05
4.76739e-05
5.70065e-06
-9.93898e-06
-4.34925e-05
-1.39771e-05
1.81648e-05
-2.97855e-06
-1.29e-06
-1.22071e-05
1.17348e-05
-1.92171e-05
1.97119e-05
4.65496e-06
-5.35518e-08
-4.65412e-06
2.07065e-06
1.24363e-05
-2.42866e-05
9.78806e-06
5.11514e-06
-7.12341e-06
2.08783e-06
2.0193e-05
-1.07992e-05
-5.67117e-06
-2.07364e-05
8.28328e-06
-2.01097e-05
3.25771e-05
2.92948e-05
-2.84833e-05
4.30279e-06
-5.09278e-06
2.20583e-05
6.55071e-06
-2.59962e-05
-2.46237e-06
2.13752e-06
-3.18266e-05
1.09005e-05
1.8789e-05
3.18687e-05
-6.30325e-06
5.52232e-06
3.99144e-05
-4.57403e-05
2.51885e-06
-2.97563e-05
1.73146e-06
3.12913e-05
-3.26907e-06
-2.12721e-05
-1.39115e-05
2.29868e-05
-1.14073e-05
-1.00448e-05
-1.48739e-05
3.63378e-05
-5.45686e-07
3.75339e-06
3.41565e-05
-3.73205e-05
1.49573e-06
2.3697e-05
-4.22629e-05
1.70826e-05
-3.37764e-07
2.15488e-07
2.56045e-05
-2.55999e-05
-3.5202e-05
5.7582e-06
2.83972e-06
2.65114e-05
1.87474e-05
-1.89152e-05
6.99993e-06
-6.75365e-06
7.94744e-07
1.59265e-05
-1.95036e-05
2.74255e-06
-2.46106e-05
3.61878e-05
-3.66407e-06
-7.89365e-06
-2.84312e-05
2.10938e-05
1.00386e-06
6.29258e-06
-3.48906e-05
3.19878e-05
4.2657e-05
-3.97081e-05
2.52526e-05
-2.05733e-05
1.32049e-06
-6.00992e-06
-1.52697e-05
1.99032e-05
-1.27613e-05
8.11584e-06
-1.16292e-05
2.73492e-05
1.54967e-06
-1.70763e-05
-3.24719e-05
2.20474e-06
3.53745e-05
-5.11123e-06
-5.8792e-06
-3.30712e-05
6.34346e-07
3.8657e-05
3.30083e-06
-1.19872e-05
9.46075e-06
1.35358e-05
1.32614e-06
-1.41856e-05
-6.54271e-07
1.16089e-05
2.23995e-05
-2.54764e-05
-8.4925e-06
-8.57154e-06
1.10721e-05
1.92701e-05
-2.18021e-05
1.08678e-06
7.56558e-06
-4.68768e-05
3.82933e-05
2.22261e-05
-3.30523e-05
1.11187e-05
-1.82887e-07
-3.21477e-05
-5.50793e-06
9.23512e-06
-3.88024e-06
-9.425e-07
-3.10067e-05
3.57915e-05
-4.14927e-06
-3.47244e-07
4.51214e-06
-3.93182e-06
-6.37188e-06
3.65231e-05
-2.62151e-05
7.73414e-06
-7.30243e-06
-3.49742e-07
4.57571e-07
-3.64627e-07
-1.49728e-05
1.49594e-05
-1.41558e-05
1.33538e-05
2.43781e-05
6.26728e-06
3.01989e-05
-2.23283e-05
-1.40992e-05
6.14346e-06
-6.6493e-06
4.74081e-07
-4.71462e-06
5.72081e-05
-3.34877e-05
-1.8908e-05
-2.91845e-05
3.28475e-05
1.96313e-05
-2.07006e-06
1.93813e-05
9.57839e-06
-2.68808e-05
-2.4645e-05
-9.28066e-06
3.28445e-05
1.10049e-06
-7.20409e-06
6.73635e-06
4.94054e-07
2.41438e-05
-2.57074e-05
3.0375e-07
1.30414e-06
-1.51721e-05
-9.49804e-06
1.33907e-05
1.12893e-05
-3.02993e-06
1.24415e-06
-1.69569e-05
1.87599e-05
-2.67598e-05
-7.77886e-06
7.92874e-07
3.37516e-05
-1.65405e-05
-7.30686e-06
-6.57749e-06
2.04346e-05
-4.48654e-05
-4.98043e-06
2.91293e-05
6.15592e-06
-2.81849e-05
-8.14482e-06
3.01571e-05
1.15725e-05
-1.09763e-05
-5.86487e-07
-2.4194e-05
3.96671e-05
-5.22654e-06
-1.01845e-05
-6.69229e-06
-2.70137e-05
3.08421e-05
2.87197e-06
-3.4738e-05
3.53412e-05
-4.30097e-06
3.69558e-06
-2.01015e-05
-5.22199e-06
1.3967e-05
1.13848e-05
-2.90362e-05
-5.39041e-06
3.56849e-05
-1.15114e-06
-1.97125e-06
-7.18921e-07
-1.78728e-05
2.05446e-05
5.00658e-06
6.61093e-07
-5.69466e-06
-9.0284e-06
9.59599e-06
-6.02228e-07
3.89643e-05
-3.18311e-05
-4.38083e-05
3.65521e-05
4.11521e-06
4.13924e-07
-4.51847e-06
-3.96116e-05
3.95397e-05
-4.68649e-07
6.87661e-07
-1.40369e-05
1.26976e-05
-4.53792e-07
1.86679e-06
3.94578e-06
4.12245e-05
-2.26125e-05
-2.25625e-05
-2.3306e-05
-6.75593e-06
2.89424e-06
2.70112e-05
3.17038e-05
1.35375e-05
-1.34212e-05
-3.18361e-05
1.75013e-05
-6.16755e-06
2.71687e-06
-1.40715e-05
4.34128e-05
-2.49618e-06
-3.15055e-05
-9.51835e-06
-6.03803e-06
8.93842e-06
-9.68704e-06
6.82394e-06
-2.84167e-06
1.02921e-05
4.20546e-06
-1.16428e-05
-1.17368e-05
-6.19412e-06
3.34677e-05
-1.54986e-05
8.08264e-06
3.0194e-05
-2.97146e-05
-8.55028e-06
-2.19382e-05
2.28283e-05
1.46048e-05
-1.54905e-05
2.70292e-05
-2.51489e-05
-3.50545e-06
1.75953e-06
2.83834e-07
-1.64412e-05
-6.03006e-07
1.69363e-05
-1.03499e-05
2.00453e-05
-2.12477e-06
-7.57313e-06
-3.76081e-05
-1.44327e-05
2.08438e-05
3.11338e-05
1.85201e-05
-1.6048e-05
-3.26043e-06
8.25119e-07
7.38588e-06
-2.50257e-05
-2.75738e-05
4.5251e-05
1.53138e-05
-2.06612e-05
-9.71326e-06
1.51058e-05
-4.86076e-06
-4.63166e-05
1.25977e-05
3.85444e-05
1.98565e-05
-1.80388e-05
2.28304e-06
-4.09943e-06
3.24188e-05
-1.10161e-05
-3.66202e-05
1.51346e-05
1.06382e-05
1.68636e-05
-3.95518e-05
1.20158e-05
-7.21549e-06
2.58379e-05
-2.22704e-05
3.64746e-06
-2.64866e-05
2.80708e-05
2.96221e-05
-3.11793e-05
-2.80212e-07
-1.87489e-05
1.67931e-05
2.25012e-06
5.64557e-06
-5.33912e-06
-1.94669e-07
3.32914e-05
-4.15891e-05
1.08663e-06
-5.23835e-06
7.92545e-06
3.36407e-06
-5.99834e-06
-4.18625e-06
1.0088e-07
-2.04098e-06
6.16474e-06
1.47741e-05
-2.29575e-06
1.73655e-05
-2.52012e-05
7.43838e-07
7.09223e-06
-1.09912e-05
-1.99626e-06
1.07638e-05
1.94287e-05
-2.62837e-05
1.50519e-05
-8.18174e-06
-2.21727e-05
-3.60383e-06
2.73745e-05
-1.57911e-06
-4.22737e-05
-6.69423e-06
3.74386e-05
1.14534e-05
-3.26562e-05
8.53822e-06
5.85988e-07
2.35441e-05
-5.65472e-06
9.01539e-07
8.27407e-07
3.81344e-06
-2.34942e-05
-2.7702e-05
2.18881e-05
2.93651e-05
1.44496e-05
1.26637e-05
-2.17692e-05
-5.31705e-06
1.63422e-07
2.10639e-05
-1.80041e-05
-3.27334e-06
-2.15649e-08
-1.42141e-05
2.81993e-05
-1.39633e-05
3.02619e-05
-2.14121e-05
-1.17739e-05
2.69515e-05
-3.10856e-05
6.61724e-06
-2.52485e-06
-4.08022e-06
-2.79027e-05
3.04019e-05
1.61356e-06
3.44545e-05
-2.67779e-06
-3.58112e-05
2.28727e-05
-2.55205e-05
5.77234e-06
-3.20308e-06
2.02825e-06
-1.63949e-05
-1.23842e-06
1.56479e-05
-3.77108e-06
3.5403e-06
-4.43911e-06
4.66763e-06
-3.17988e-06
6.43495e-06
2.75896e-06
-6.2943e-06
-9.86008e-06
-2.24016e-05
-1.43094e-06
3.35668e-05
1.20959e-05
6.9537e-06
-3.05545e-05
1.15103e-05
-1.90015e-05
9.90779e-07
6.45081e-06
1.15572e-05
-1.96088e-06
-2.284e-05
2.19255e-05
-2.7933e-05
3.3253e-05
8.68689e-06
-1.38441e-05
-3.54258e-05
3.983e-05
-1.12752e-05
6.91087e-06
-4.59923e-06
-1.55952e-05
2.4694e-06
1.7737e-05
1.10336e-06
3.10377e-05
-3.63495e-05
4.17616e-06
1.71505e-05
-5.80305e-05
1.35444e-05
2.71999e-05
4.85272e-06
-3.35615e-05
1.80726e-05
1.066e-05
1.87844e-06
1.74736e-05
-6.25015e-06
-1.30887e-05
-5.72327e-06
2.62487e-06
5.65309e-06
-2.53718e-06
-3.53291e-06
7.26434e-06
-2.87614e-05
2.50307e-05
-1.88619e-06
-1.6582e-05
6.66692e-07
1.7808e-05
1.10371e-06
1.63679e-05
-7.9703e-07
-1.67704e-05
-5.29759e-07
7.65352e-07
1.83917e-05
-1.83489e-05
-7.91899e-06
-1.35088e-05
2.34372e-05
-1.97872e-06
4.75328e-06
-4.15406e-05
2.21458e-05
1.47133e-05
2.90835e-05
9.40733e-07
2.11153e-06
-3.21529e-05
3.52103e-06
-3.68439e-06
1.62469e-07
1.0774e-05
2.25296e-05
-2.84424e-05
-1.56264e-05
-3.23511e-07
-1.10822e-07
1.61048e-05
1.6969e-06
-2.24486e-05
8.08676e-06
1.26688e-05
1.33999e-06
9.65147e-06
-1.03041e-05
-7.19772e-07
-6.90701e-06
-1.61955e-05
2.99684e-05
-6.82592e-06
3.35448e-05
-3.56096e-05
3.08517e-05
-2.89507e-05
1.59847e-05
-7.22651e-06
-2.66688e-05
1.79136e-05
-2.49745e-06
-3.00193e-06
5.70455e-06
1.63736e-05
3.57208e-06
-4.82118e-06
-1.50066e-05
-2.43565e-05
3.69922e-05
4.617e-06
3.30904e-06
-8.0654e-06
7.87156e-08
-2.83384e-05
-2.30696e-07
2.84996e-05
-2.41329e-07
8.54604e-07
2.19408e-05
-9.32501e-08
2.48184e-05
-4.60275e-05
2.14696e-05
-8.86949e-06
-2.47443e-05
-3.65865e-06
3.71483e-05
6.7362e-06
-1.07435e-05
1.1761e-05
-7.79801e-06
-6.22197e-06
-3.05569e-05
-3.92985e-06
4.07446e-05
2.0545e-05
2.86019e-06
-2.31895e-05
-2.13865e-07
4.48706e-06
2.33993e-05
-3.8415e-05
1.05072e-05
-2.04855e-06
-1.54417e-05
-8.06458e-06
2.55479e-05
-2.63443e-05
-9.45837e-06
1.33602e-05
2.21278e-05
-3.24948e-07
-1.6298e-06
-2.04494e-05
2.23499e-05
3.00462e-05
-1.22551e-05
-7.35757e-06
-1.04252e-05
-1.92224e-05
4.65939e-05
-2.59028e-05
-1.48546e-06
1.50839e-05
4.99559e-07
6.18761e-08
-1.57242e-05
3.11133e-05
-3.56111e-05
3.67086e-05
-3.22199e-05
-5.99161e-06
1.94928e-05
-1.62176e-05
2.7375e-06
1.12118e-05
-4.09994e-05
2.10765e-06
2.76909e-05
7.82688e-06
3.57318e-05
-3.09657e-05
-1.25827e-05
1.00773e-05
-1.03734e-05
-1.52751e-05
1.56797e-05
-2.3633e-05
-1.3375e-05
4.0774e-05
-3.82454e-06
3.41967e-05
-2.57987e-05
-4.33126e-05
3.48672e-05
1.57806e-05
1.50647e-05
-8.36706e-06
-2.24093e-05
3.33626e-07
-1.34927e-05
-1.6064e-07
6.47915e-06
-6.17633e-06
-4.71387e-06
4.42405e-06
1.95038e-07
2.4879e-05
-2.59899e-05
-2.3478e-05
2.44337e-05
-5.63564e-06
6.87131e-06
-2.0172e-05
1.88689e-05
2.97515e-05
-2.37693e-05
-4.8422e-06
-1.14082e-06
-6.93687e-06
1.77447e-06
4.42503e-06
-7.0418e-06
2.35755e-05
-6.32622e-06
-1.01897e-05
-5.35105e-05
1.15183e-06
1.79635e-05
3.42054e-05
1.06556e-05
-4.62758e-06
-1.11619e-05
5.08581e-06
6.47752e-06
2.99061e-05
-2.81946e-05
-8.1598e-06
-1.62593e-05
-3.3024e-06
3.16041e-05
-1.20213e-05
1.69739e-06
1.93136e-05
3.73653e-06
-2.47468e-05
6.18062e-06
2.14399e-05
-2.5933e-05
2.42648e-05
-1.77861e-05
-9.02983e-06
2.52305e-06
1.68591e-05
-2.19084e-05
9.53763e-06
-1.83921e-05
1.24543e-05
9.84099e-06
-3.90699e-06
7.4402e-06
9.97232e-06
1.81481e-05
-3.55282e-05
4.8346e-06
-3.20337e-05
-4.82728e-06
3.19366e-05
3.91365e-07
2.23275e-05
2.78339e-06
-2.5474e-05
9.38189e-06
1.84664e-05
-3.05955e-05
2.73367e-06
-5.17774e-05
4.30909e-05
-1.50452e-06
1.14284e-07
3.52796e-05
-3.26604e-06
-3.21837e-05
-4.71774e-06
1.06936e-05
-1.43618e-05
8.44117e-06
-1.55846e-06
-4.51106e-06
4.70071e-07
5.66915e-06
-4.80245e-06
4.6637e-06
1.21755e-07
-4.99512e-06
-5.70472e-06
3.0163e-05
-1.94587e-05
-2.32192e-05
3.42503e-06
-9.6524e-06
2.94222e-05
4.06358e-05
-1.01314e-05
-1.27416e-05
-1.76764e-05
4.17793e-06
-3.29796e-05
1.141e-05
1.74443e-05
4.97276e-06
-4.33428e-06
-1.81003e-06
1.06362e-06
-5.55466e-06
5.4233e-06
1.77911e-07
2.27527e-06
3.0851e-05
-5.16925e-06
-2.79042e-05
-5.0817e-06
2.26232e-05
-2.99028e-05
1.24061e-05
9.53836e-06
1.54839e-05
-3.62634e-05
1.12475e-05
-2.59662e-06
2.47247e-05
1.75986e-05
-3.97371e-05
-4.33784e-05
2.16738e-05
2.64918e-05
-4.79322e-06
2.91752e-05
-2.94068e-05
5.57667e-06
-5.31965e-06
-3.16925e-05
-8.80342e-07
-1.07867e-05
4.46471e-08
8.04208e-06
-8.10588e-06
3.23063e-05
4.9274e-06
-2.67651e-05
-1.06701e-05
-3.02089e-06
-3.45491e-06
1.79731e-05
-1.14988e-05
3.26727e-06
3.47784e-07
1.02666e-05
-1.38652e-05
-2.98638e-05
1.29836e-05
1.45757e-05
2.29621e-06
1.80997e-05
-2.68809e-05
-5.23056e-06
1.38165e-05
-2.28934e-05
6.2889e-06
3.67438e-05
-2.01268e-05
-4.6176e-06
-3.58913e-07
4.88155e-06
-1.18905e-05
3.06099e-05
2.05824e-05
-3.93076e-05
2.63563e-05
2.93516e-07
-4.17209e-05
1.50919e-05
-1.79229e-06
2.53779e-05
-2.27877e-06
-2.13008e-05
2.41656e-05
-2.08762e-05
1.52319e-05
-1.82442e-05
-1.04074e-06
-2.00203e-05
2.23729e-05
-1.30717e-06
-1.55019e-05
-2.23365e-06
-1.15815e-05
2.95317e-05
-7.36907e-06
-7.89759e-06
-1.43077e-05
3.00367e-05
-8.61627e-07
2.64143e-05
-3.49299e-06
-2.20521e-05
2.72683e-05
-2.68154e-05
-4.80608e-08
-4.03976e-07
3.03315e-05
9.34508e-08
-2.0488e-05
-9.90973e-06
-7.82703e-06
-3.9144e-06
-2.28835e-05
3.45985e-05
-9.26796e-07
-4.3296e-06
5.16299e-06
-2.40136e-05
3.62211e-05
-2.97159e-06
-9.21814e-06
2.27276e-06
2.09775e-05
6.21493e-06
-2.95578e-05
-6.34492e-06
1.57806e-05
5.42777e-06
-1.50126e-05
-2.0667e-05
-4.50723e-06
2.1477e-05
3.8123e-06
1.627e-05
1.2605e-05
-4.24731e-05
1.35982e-05
1.25357e-05
-9.24478e-06
3.30617e-05
-3.63206e-05
-3.43822e-06
2.5274e-05
1.77746e-06
-2.3615e-05
4.12426e-06
-4.47762e-06
3.40716e-07
2.25122e-06
2.54007e-05
1.28037e-06
-2.89373e-05
3.03715e-05
-5.67237e-06
-2.76344e-05
2.98754e-06
-4.64732e-06
5.95913e-06
-2.6196e-05
2.49928e-05
-2.98627e-05
-4.89038e-06
2.40531e-05
1.0828e-05
1.53233e-05
-1.47859e-05
-2.85236e-08
-5.90322e-07
-4.01873e-05
2.50097e-05
-1.33835e-06
1.65195e-05
-5.89738e-06
5.42048e-06
4.79883e-07
1.12291e-05
-9.84779e-06
1.45419e-05
-1.59378e-05
1.91376e-05
1.68357e-05
-8.55275e-06
1.15425e-05
-3.15843e-05
-1.31796e-05
3.31926e-05
-4.193e-08
-2.19223e-05
2.22568e-05
-3.30228e-07
8.83466e-06
-1.7501e-05
-1.87312e-05
2.75145e-05
1.86188e-05
6.82331e-06
-2.80781e-06
-2.26086e-05
-6.15834e-06
1.88716e-06
7.04014e-06
-2.77531e-06
-3.20744e-06
4.03282e-05
-1.40365e-05
-2.34883e-05
1.06383e-05
1.31186e-05
4.81696e-07
-2.42381e-05
2.07639e-07
4.23595e-06
-4.41711e-06
-1.02531e-06
4.80345e-06
2.63824e-05
-3.01174e-05
2.89973e-05
3.91404e-06
-1.36305e-05
-1.92667e-05
-1.56727e-06
8.5375e-06
-6.89918e-06
-1.09515e-07
1.98207e-05
-1.19066e-06
-2.16881e-05
3.16532e-06
-6.02141e-06
-1.81236e-05
8.49392e-06
1.5765e-05
-5.0598e-06
2.36687e-05
3.76304e-06
-2.23913e-05
2.1834e-05
-2.43646e-06
-2.42173e-05
4.83074e-06
-3.82406e-06
7.46823e-06
-3.64675e-06
3.62513e-06
-1.75014e-05
1.50499e-05
-1.21345e-06
1.03253e-06
1.63299e-05
-1.63606e-05
-1.02291e-06
1.18057e-05
1.45968e-05
-9.00192e-07
-2.55256e-05
1.60182e-05
2.06248e-05
-1.48111e-05
-2.97162e-07
5.60418e-06
-5.41984e-06
-3.5306e-05
1.72258e-05
3.26953e-05
-1.46732e-05
3.52325e-05
5.93594e-06
-3.72515e-05
-3.92192e-06
2.03655e-05
-1.31257e-05
-2.28747e-05
8.62084e-06
1.40448e-05
-2.83923e-05
-1.35562e-06
-6.89644e-06
3.66522e-05
7.07382e-07
4.98851e-06
-5.75473e-06
3.17081e-05
-1.27786e-06
-3.21244e-06
-2.72107e-05
6.04883e-06
-6.25746e-06
2.52655e-07
-1.58194e-05
4.26827e-06
-9.59223e-06
2.1161e-05
-1.90103e-05
-1.48878e-05
1.44603e-05
1.94533e-05
2.76726e-05
-2.14078e-05
-5.54118e-06
-6.10489e-07
-2.93106e-07
4.25352e-06
-4.02453e-06
-8.51462e-07
-5.89719e-06
-1.33716e-07
6.9296e-06
1.12186e-05
3.66445e-06
-7.70349e-06
-7.19806e-06
-1.68622e-05
1.73242e-05
-1.30528e-06
2.65271e-07
3.76933e-05
-1.42116e-06
-3.65338e-05
-1.0732e-05
-6.23146e-07
1.3602e-05
-2.303e-06
5.04436e-06
-2.11142e-05
1.57035e-05
3.42971e-07
1.04894e-05
-2.04372e-05
1.24877e-05
-2.532e-06
6.33584e-06
1.54399e-05
2.31542e-06
-2.42142e-05
7.75234e-06
-7.95844e-06
1.92405e-07
2.00221e-05
-1.54401e-05
-4.10207e-05
3.63126e-05
1.619e-07
2.2557e-06
1.66262e-05
-1.90621e-05
3.03263e-06
1.53958e-05
-1.91941e-05
7.61027e-07
1.58731e-05
-6.52742e-07
-2.20252e-06
-1.30011e-05
7.81295e-06
1.70348e-05
-2.51005e-05
3.66972e-07
2.05366e-05
-4.11791e-07
-1.24504e-06
-1.88827e-05
-2.66724e-05
1.04318e-05
8.07208e-07
1.53343e-05
-9.05038e-06
-8.24657e-06
-9.51314e-07
1.50143e-05
-2.5003e-05
1.80431e-05
-8.16414e-06
-3.18499e-06
-1.43081e-05
-2.15448e-05
3.90198e-05
-6.76711e-06
9.13001e-06
-2.37345e-06
3.69698e-08
-4.42736e-09
3.7765e-06
-3.80005e-06
-7.48157e-06
3.62854e-05
1.28704e-05
-4.17652e-05
2.29062e-05
9.84573e-06
-8.82879e-06
-2.3708e-05
2.6236e-05
-2.32239e-05
2.82044e-05
-3.11863e-05
3.81474e-05
-4.23932e-05
5.17123e-06
-9.16254e-07
-4.33847e-05
1.87117e-05
7.74749e-06
1.69132e-05
-1.7415e-05
-1.74447e-06
1.94269e-05
-2.78967e-07
2.78852e-05
-3.71386e-05
1.32304e-05
-3.97034e-06
1.45399e-05
-1.56789e-05
4.55906e-06
-3.40039e-06
-1.32835e-05
1.14954e-05
-7.38314e-06
-1.74155e-05
5.11592e-05
6.58758e-06
-4.01552e-05
-6.48845e-06
-2.38076e-07
6.67522e-06
-4.27826e-06
9.73459e-06
-3.79571e-05
-3.02221e-05
-1.50605e-06
5.62409e-07
3.10944e-05
6.43253e-06
4.58253e-07
-6.77807e-06
8.00334e-06
-6.94852e-07
-2.96758e-05
2.23792e-05
-9.99212e-08
-3.13621e-08
1.48524e-05
-1.48078e-05
8.43241e-06
1.62309e-05
-2.79894e-05
3.3484e-06
1.94009e-05
1.43971e-06
1.18995e-06
-2.22329e-05
-3.80338e-06
5.12612e-06
4.07673e-05
-4.20358e-05
-1.39915e-05
-2.93521e-06
8.87126e-07
1.60927e-05
-7.71325e-06
6.31327e-06
-2.43627e-05
2.57351e-05
-2.25068e-06
3.20686e-05
-2.77562e-05
-2.00834e-06
2.97433e-05
8.78034e-06
-1.36521e-05
-2.48194e-05
5.92029e-06
-3.52753e-05
2.4331e-05
-2.97227e-05
3.77719e-05
-1.57437e-06
1.56137e-05
-6.07106e-06
1.34929e-05
-2.2277e-05
-5.50798e-06
1.08912e-05
1.68802e-05
-1.02273e-05
5.10869e-07
9.55406e-06
9.57318e-08
-9.74281e-06
2.3799e-05
-1.66788e-05
2.56823e-06
-2.91558e-05
2.55727e-05
2.63624e-05
-2.27845e-05
-4.60654e-06
4.33279e-06
3.5457e-07
-5.44042e-08
2.80076e-05
-4.19333e-05
-1.56913e-05
2.95388e-05
-3.63076e-05
-1.41122e-05
2.44996e-05
2.59142e-05
3.21233e-05
3.57468e-06
1.73196e-06
-3.74489e-05
2.7246e-05
-1.74687e-05
2.23422e-05
-4.30618e-05
-4.18533e-06
1.80456e-05
2.92765e-05
4.63178e-06
4.7982e-07
-5.08012e-06
3.10194e-05
-2.87182e-05
-9.93405e-06
7.62899e-06
-2.42617e-05
-8.16831e-06
7.31812e-06
2.50524e-05
1.35914e-05
2.21382e-05
-1.22285e-05
-2.35029e-05
8.14625e-06
2.76601e-05
-2.66383e-05
-9.09007e-06
7.03133e-07
-1.05172e-05
9.83872e-06
-1.35152e-05
-1.07572e-05
1.1023e-05
1.30991e-05
2.29982e-06
2.43474e-05
-5.66934e-06
-2.10155e-05
-3.70988e-05
3.68554e-05
-6.49395e-06
-2.63671e-06
2.85652e-05
-2.75581e-05
1.64362e-06
1.87963e-05
4.00086e-06
1.10161e-05
-3.37431e-05
-1.24202e-07
-3.13783e-06
3.29798e-06
-4.01629e-06
3.92503e-06
-5.78861e-08
-1.85204e-05
-9.34032e-06
1.11318e-05
1.67568e-05
-2.34952e-05
-1.10088e-06
2.99716e-05
-5.54666e-06
-7.44113e-06
2.68103e-05
-2.76345e-05
8.26312e-06
-2.13324e-05
1.7478e-05
-7.73421e-06
1.16571e-05
-2.20466e-07
2.5606e-05
-2.80136e-05
2.47258e-06
-3.14638e-05
7.25537e-06
2.02276e-05
3.97902e-06
1.33168e-06
3.75839e-05
-1.42936e-05
-2.4684e-05
3.30751e-06
-5.81452e-06
-1.69179e-05
-8.47882e-06
6.87449e-06
1.78097e-05
-1.30221e-06
5.92322e-06
-2.24272e-05
-3.61223e-06
-7.21409e-06
8.60729e-06
1.66017e-06
1.86763e-05
-5.42984e-06
-1.36913e-05
2.50878e-07
1.2073e-05
-4.16865e-05
4.11682e-05
-1.15121e-05
-1.80812e-05
2.96498e-05
4.08627e-06
-1.56128e-05
-4.96879e-06
3.42142e-06
2.9116e-05
-2.76385e-05
-4.26357e-05
3.13131e-06
7.17053e-07
3.89128e-05
-2.55612e-05
3.92099e-06
1.94538e-05
2.22988e-06
-2.00041e-05
1.25029e-05
2.7706e-05
-2.01635e-05
-1.84047e-05
-3.36035e-05
9.90169e-06
4.22341e-05
4.72631e-06
-3.37866e-05
-3.56425e-06
3.26424e-05
-2.38632e-05
3.7499e-06
-1.82664e-06
2.19178e-05
-2.46206e-05
-1.347e-06
-1.6412e-06
2.75044e-05
5.38537e-06
-2.96093e-06
2.6865e-05
-2.92609e-05
1.03536e-05
-5.82951e-06
2.85167e-08
-4.52128e-06
5.09644e-06
-4.09241e-05
-8.41243e-06
4.42235e-05
-5.71264e-06
3.95549e-06
2.37324e-06
-6.5329e-07
-2.93818e-05
-7.58927e-06
1.59451e-05
2.10261e-05
-2.00332e-06
1.9081e-05
2.71549e-06
-1.97948e-05
-1.27047e-05
-1.33106e-05
1.01047e-05
-6.42902e-06
3.1327e-06
3.26846e-05