/*--------------------------------*- C++ -*----------------------------------*\
| =========                 |                                                 |
| \\      /  F ield         | OpenFOAM: The Open Source CFD Toolbox           |
|  \\    /   O peration     | Version:  2406                                  |
|   \\  /    A nd           | Website:  www.openfoam.com                      |
|    \\/     M anipulation  |                                                 |
\*---------------------------------------------------------------------------*/
FoamFile
{
    version     2.0;
    format      ascii;
    arch        "LSB;label=32;scalar=64";
    class       volVectorField;
    location    "10";
    object      U;
}
// * * * * * * * * * * * * * * * * * * * * * * * * * * * * * * * * * * * * * //

dimensions      [0 1 -1 0 0 0 0];

internalField   nonuniform List<vector> 
59516
(
(0.131948 0.00611182 -0.00114997)
(0.129554 0.00450797 0.00554312)
(0.132981 -0.0019103 0.00189588)
(0.13348 0.00371911 -0.000220334)
(0.12042 -0.000567767 -0.00199673)
(0.102685 -0.00516811 -0.013322)
(0.139996 -0.00399081 -0.0021599)
(0.131686 -0.00295831 -0.00414299)
(0.139638 0.000577441 -0.00207482)
(0.0895569 -0.00325291 0.010136)
(0.127223 -0.000633898 -0.000158887)
(0.0867845 -0.00589338 0.00368984)
(0.141635 0.0050093 0.00493247)
(0.0370472 0.000526039 0.000680135)
(0.096326 0.00968144 0.00369504)
(0.088372 0.00649577 -0.00632115)
(0.132848 -0.0020646 0.000941542)
(0.0779305 0.00566861 0.00368978)
(0.131494 0.00716679 0.00370288)
(0.133656 -0.00120276 0.000967183)
(0.0711312 0.00167357 -5.40405e-05)
(0.1422 -0.00109235 -0.00077837)
(0.137066 -0.00253236 0.00139923)
(0.0642738 -0.00079547 0.00064472)
(0.152808 -0.00240124 0.00236372)
(0.110321 -0.00105291 0.00821633)
(0.0791963 0.000813725 0.00349441)
(0.0538082 0.00704362 -0.00439225)
(0.0881437 0.00189898 0.00340377)
(0.0321092 -0.00625473 0.00250128)
(0.115339 -0.0146493 -0.00369202)
(0.0571654 0.0101763 0.00298548)
(0.141072 0.000592837 -0.000527776)
(0.136474 -0.00267394 0.00708165)
(0.130568 0.00473036 0.000356636)
(0.149061 -2.99856e-05 -0.00105634)
(0.0364537 -0.000444317 -0.0055756)
(0.082327 -0.000940054 -0.00360185)
(0.116844 -0.0033181 -0.00509864)
(0.14144 -0.00582101 0.00470384)
(0.133168 -0.00130183 0.00527892)
(0.134528 -0.00204213 -0.000443638)
(0.137115 -0.00152753 -0.00242833)
(0.137369 -0.00481522 0.00477199)
(0.140884 -0.00143044 -0.00298556)
(0.0985118 -0.00629134 -0.00795381)
(0.136147 -0.00171691 0.00761019)
(0.132766 0.00023182 -0.00146702)
(0.118746 -0.00234312 0.00722818)
(0.127628 0.000548298 -0.000151155)
(0.106808 0.00601326 -0.011739)
(0.0749819 -0.00355579 0.00381222)
(0.147254 0.00314879 -0.00383823)
(0.143769 -0.000470032 -0.00104138)
(0.0812851 0.00487095 -0.00115174)
(0.135636 0.00499608 -0.00354688)
(0.124028 0.00127427 0.000710273)
(0.0878269 0.00277203 -0.00703991)
(0.133565 -0.00450283 -8.13424e-05)
(0.128365 0.00216176 -0.000767123)
(0.139373 -0.0020236 0.00253354)
(0.035028 0.000810418 -0.00126361)
(0.134574 -0.00551376 0.000304193)
(0.127766 -7.11639e-05 -0.000647442)
(0.142456 0.00428726 -1.61674e-05)
(0.129448 0.000263135 -0.000434197)
(0.0506302 -0.00171048 0.00465056)
(0.0747231 0.00288835 -0.000225333)
(0.129841 0.00103347 0.0140319)
(0.130089 0.000632714 0.00354558)
(0.0631876 -0.000288184 -0.000724075)
(0.130499 0.00274969 -0.00181083)
(0.0485217 0.00543573 -0.00779376)
(0.133413 0.000510069 -0.00239333)
(0.13291 -0.00204301 0.000281648)
(0.13596 -0.000202581 0.00091954)
(0.13154 0.00122988 -0.00190309)
(0.146576 0.00496662 -0.00139237)
(0.0738229 -0.00127398 0.00419171)
(0.124907 -0.00105625 -0.00289679)
(0.073997 0.00325783 0.00257175)
(0.127953 0.00212196 -0.000136297)
(0.125646 -0.00192267 -0.000447398)
(0.0425834 -0.00191238 0.00778807)
(0.125813 0.000815338 -0.000947904)
(0.13059 -0.0014121 -0.000914694)
(0.0606519 -0.00648655 -0.000385698)
(0.138415 -0.00197683 0.00140214)
(0.0966401 0.00710693 0.0051465)
(0.11347 0.00253042 -0.00224991)
(0.127812 -0.000910033 -0.00208919)
(0.135857 -0.00484023 -0.00127031)
(0.130831 0.00106467 0.00207776)
(0.129505 -0.00243104 -0.00138328)
(0.128582 -0.00433962 -0.000507135)
(0.117875 -0.00410074 0.0023562)
(0.13962 0.000250068 0.00332434)
(0.0833677 -0.00303781 -0.0045369)
(0.0819388 0.00297764 0.000217245)
(0.139378 0.00223497 0.00162023)
(0.0750007 0.00414087 0.00360251)
(0.050065 0.00433993 -0.00660981)
(0.039707 0.00506142 0.00592245)
(0.0851414 -0.00478255 -0.000335524)
(0.147066 -0.000296073 -0.000422716)
(0.133254 -8.93242e-05 0.000243415)
(0.0733369 0.00735074 -3.84669e-05)
(0.132001 0.000607903 -0.00150535)
(0.13391 0.00116769 -0.00741665)
(0.0962155 0.00125891 -0.00725808)
(0.130578 0.00625408 -0.00382329)
(0.0651622 0.00827591 -0.000450364)
(0.100694 -0.000573472 -0.00181275)
(0.1213 0.00860457 -0.0048133)
(0.13404 -0.00177449 0.0049809)
(0.129722 -0.000226865 -0.00430483)
(0.0979648 0.00224824 -0.00766134)
(0.132407 -0.00182602 -0.00108156)
(0.0349344 0.00511837 0.0015112)
(0.147398 0.00224725 -0.000219587)
(0.134799 0.00169422 -0.000763195)
(0.133449 0.00234852 -0.000531777)
(0.144075 0.000533212 -0.00173063)
(0.130256 -9.53636e-05 -0.00030149)
(0.136103 -0.00374249 -0.00139757)
(0.112992 0.00186285 0.00640411)
(0.0475571 -0.00280638 0.00695737)
(0.137829 -0.00118546 -0.00338748)
(0.0977085 0.000893637 0.0150213)
(0.128449 -0.0001992 0.00375325)
(0.130116 -0.000969134 0.00304997)
(0.141839 0.000425307 0.00401843)
(0.0389793 -0.00176302 -0.0048053)
(0.136935 -0.0019375 0.00181701)
(0.123716 -3.06757e-05 0.00228954)
(0.138115 -0.0015505 0.000796085)
(0.110344 0.0104408 -0.0043484)
(0.139006 -0.00215055 3.15296e-05)
(0.078224 0.00651857 0.00016492)
(0.123326 0.00547975 -0.00310601)
(0.083373 -0.00210888 -0.00547774)
(0.139924 0.000165094 -0.00222709)
(0.032372 0.00296271 0.00415152)
(0.140579 -0.000215356 -0.00322263)
(0.125053 0.000912737 0.00131683)
(0.131209 0.00357429 0.000540082)
(0.142532 -0.00135143 -0.00134218)
(0.129571 0.00281588 0.00170488)
(0.0665657 -0.000354496 0.00291094)
(0.127282 0.00228112 -0.00367261)
(0.119802 0.000481687 -0.00089226)
(0.0672422 -0.00494078 -0.00076853)
(0.137563 0.000116196 1.11533e-05)
(0.141212 0.00352489 0.00339568)
(0.109193 -0.00503979 -0.000268245)
(0.0307547 -0.00289537 0.00526155)
(0.141071 0.000695776 -0.00594393)
(0.121875 -0.00198839 -0.00202467)
(0.101867 0.000707808 -0.000271238)
(0.0330087 0.000694196 -0.00769168)
(0.0867347 0.00652603 -0.00064209)
(0.087749 -0.0057184 0.00287863)
(0.0649855 -0.0114005 0.00128078)
(0.043816 -0.00128618 -0.00162912)
(0.132927 -0.00242116 -0.00101042)
(0.140929 -0.000635522 0.0031798)
(0.108272 -0.00294072 0.00163323)
(0.131039 -0.000492181 0.00130113)
(0.0268509 0.00153755 0.00726763)
(0.128039 0.00165436 0.0033111)
(0.110458 0.00254073 -0.00245224)
(0.0803765 0.0011289 0.000990872)
(0.0963182 0.00817031 0.00278938)
(0.132638 -0.00138374 -0.000501128)
(0.0795274 -0.00156874 -0.00108676)
(0.130745 -0.00159197 0.00526084)
(0.131833 -0.000914905 -0.00155753)
(0.139711 0.000315559 -0.00336819)
(0.103377 -0.00707705 0.00757293)
(0.0635128 -0.0022939 0.00554479)
(0.139268 0.00340425 0.00213411)
(0.060553 -0.00531328 -0.00116277)
(0.05364 -0.00154627 -0.00240788)
(0.0972799 -0.00126412 -0.00465145)
(0.13176 0.00126908 0.00365686)
(0.101991 -0.000360054 0.000632393)
(0.0601129 -0.000514935 -0.00208357)
(0.0472387 -0.00529622 0.00234381)
(0.133804 0.000658794 0.00174562)
(0.130939 0.00532521 0.00322642)
(0.13539 0.00174578 0.00403496)
(0.0889457 0.00151175 0.00512192)
(0.130246 0.000893991 -0.000679695)
(0.090157 0.00368115 -0.00475403)
(0.136799 -0.00279835 -0.00318451)
(0.0519483 -0.000776563 0.00329149)
(0.0886583 0.00258005 -0.00266051)
(0.0754643 -0.000235824 -0.00218778)
(0.13394 0.00348897 -0.000955951)
(0.13618 -0.00425889 0.00510705)
(0.112684 0.00346482 -0.00155756)
(0.13484 0.00203258 -0.00236927)
(0.128668 -0.00029427 -0.00136898)
(0.0322017 0.00785162 -0.00126645)
(0.149266 -0.00417512 -0.00105899)
(0.148072 0.00181787 -0.00170098)
(0.12939 -0.000585723 -0.000182642)
(0.128719 0.00349455 0.00134353)
(0.0417203 0.000367752 0.000245188)
(0.135312 -0.000791265 0.00154354)
(0.0934084 0.0062479 -5.04339e-05)
(0.0328136 -0.0100443 -0.000759806)
(0.14063 -0.000547957 0.00149802)
(0.0906506 -0.00151319 0.00461556)
(0.138366 -0.00118922 -0.00341295)
(0.138322 -0.00338313 -0.000489778)
(0.12632 0.00328293 0.000760243)
(0.144437 -3.84028e-05 0.00102461)
(0.0876248 0.00425334 0.00189098)
(0.137614 -0.00213092 -0.0034269)
(0.0897439 0.0104227 0.00414884)
(0.116572 0.00588081 0.00270716)
(0.130867 0.00152724 0.00161592)
(0.0650965 0.00123916 0.00189841)
(0.130438 -0.000535648 0.00280985)
(0.13542 0.000832467 -0.00139961)
(0.0499806 -0.00115703 0.00512256)
(0.0775292 0.0048073 -0.00363193)
(0.128153 -0.00506118 0.00273146)
(0.0953346 0.00159957 -0.00251444)
(0.135774 -0.00258332 -0.000827307)
(0.135639 0.00337299 -0.00280505)
(0.125672 -0.00133006 0.00448878)
(0.0437605 -0.00612547 -0.00179278)
(0.0632915 0.00664433 -0.00587105)
(0.0544078 0.00816758 -0.00386908)
(0.0930167 0.00142264 0.00275083)
(0.128526 -0.00547864 0.00580786)
(0.133008 -0.00169698 0.00537844)
(0.1102 -0.00033295 0.000237406)
(0.128187 0.000988801 0.00356034)
(0.0363344 0.00541286 0.00562855)
(0.0877698 -0.00501538 -0.00755108)
(0.0442525 0.00305021 0.00395821)
(0.125958 -0.00112445 0.00441087)
(0.121633 -0.00402478 -0.000126603)
(0.132978 -0.00160215 0.000457841)
(0.100175 -0.00386401 -0.000910749)
(0.138663 -0.00081494 -0.000667865)
(0.124263 -0.00138138 0.000658787)
(0.139667 -0.00312712 0.0078454)
(0.137469 -0.00535335 0.00464011)
(0.12478 0.000275113 0.00298295)
(0.13755 0.00384081 0.000275889)
(0.13302 -0.00372379 -0.00110433)
(0.1328 -0.00163461 -0.000537516)
(0.0913703 0.000534981 -0.000376884)
(0.135219 -0.00160854 0.00552525)
(0.073381 -0.00276974 -0.0065047)
(0.0874621 0.00828699 -0.000569004)
(0.144487 -0.00210388 0.00309516)
(0.134176 -0.00706967 -0.00291144)
(0.132356 -0.00259508 0.00322652)
(0.133432 -0.00518098 0.00067268)
(0.119188 0.00203005 0.000318232)
(0.101751 0.00205438 0.000400362)
(0.141989 0.00662342 -0.00164183)
(0.140512 -0.00570906 -0.000392775)
(0.075959 -0.00174456 -0.0130552)
(0.0855088 -0.0011324 -0.00140611)
(0.126031 0.00688119 -0.00394472)
(0.134033 -0.000793489 -0.00174025)
(0.141106 0.00216447 -0.000616934)
(0.134371 0.00284382 0.00742754)
(0.133336 -0.00544072 -0.0025417)
(0.124689 0.00280897 -0.000317767)
(0.0333992 0.00647464 -0.00496176)
(0.139558 -0.00520551 -0.000254812)
(0.0431678 0.00657816 -0.005457)
(0.0766569 -0.000513465 0.000253595)
(0.126949 -0.0010785 0.00385478)
(0.138026 -0.00163608 0.00311701)
(0.0453515 -0.00209598 0.00928994)
(0.141442 -0.00321737 -0.00563861)
(0.140948 -0.00288956 -0.00259767)
(0.129975 0.00102331 -0.00305215)
(0.128252 0.00157814 0.00278263)
(0.0446709 0.00790548 0.00449383)
(0.127958 -0.00367802 0.00309076)
(0.122356 -0.00360462 -0.00125831)
(0.129949 0.000229163 0.00340459)
(0.134962 0.00429099 0.00313119)
(0.129999 -0.00245259 -0.00139081)
(0.129075 0.00146161 0.00312199)
(0.136932 -0.00218515 0.000833282)
(0.0533486 -0.00362168 -0.00503888)
(0.132406 -0.00244727 -0.00288518)
(0.147383 -0.0033135 -0.0018739)
(0.131719 -0.00133172 0.00223573)
(0.128307 -0.00400263 -0.00131816)
(0.144288 -0.00162936 -0.0055586)
(0.108879 -0.00834042 -0.000214766)
(0.0416613 0.00370004 0.00433939)
(0.045825 -0.00615821 0.00230005)
(0.143201 -0.00188384 0.00185544)
(0.041131 -0.007732 0.00457773)
(0.0959513 0.000229309 -0.00564532)
(0.0812562 0.00718521 -0.00518655)
(0.137683 -0.00402658 -0.00229092)
(0.149539 -0.000637654 0.00103126)
(0.155506 -0.00417064 0.00185911)
(0.0907629 -0.00145728 -0.00282752)
(0.136775 -0.00125443 -0.00270621)
(0.0705924 -0.00733928 0.00140222)
(0.075686 0.00229441 0.0101683)
(0.130086 -0.0036796 -0.00355921)
(0.128626 0.0037257 -0.000844671)
(0.111091 0.00678734 0.00546755)
(0.117972 0.00184333 0.000759086)
(0.0806856 -0.00128084 0.00133815)
(0.100106 -0.00138548 0.00395679)
(0.129117 0.000135929 0.000645249)
(0.139433 0.00134085 -2.29062e-05)
(0.133798 0.00178415 -0.00218958)
(0.135298 0.00129236 0.00224655)
(0.140333 -0.00489687 -0.000391831)
(0.112393 0.0110913 -0.000605704)
(0.134006 -0.000379404 -0.00210682)
(0.126707 -0.00398748 -0.00151238)
(0.134651 -1.80476e-06 -2.71433e-05)
(0.142916 -0.00236291 -2.12283e-05)
(0.0793009 0.00569523 -0.00829823)
(0.0371058 -0.00814351 -0.00585467)
(0.13546 -0.00126774 -0.000510532)
(0.0658512 -0.00251664 0.00121951)
(0.0509417 0.0056354 -0.00451301)
(0.133036 -0.00277365 0.00523007)
(0.138891 0.00338527 0.00208012)
(0.0803504 0.00306372 0.00272231)
(0.132454 0.00195577 0.00212361)
(0.139844 0.000325258 0.000686212)
(0.135416 0.00177917 -0.00316816)
(0.135402 0.00114518 0.000539478)
(0.0599924 -0.000366944 0.0016737)
(0.146216 -0.00118473 -0.00251248)
(0.129458 -0.00123012 0.000238384)
(0.0947394 -0.00211468 0.00244774)
(0.130461 -0.000531582 0.00288899)
(0.130283 0.000599383 -0.000901066)
(0.133706 -0.00107086 0.000346939)
(0.137274 0.00251775 0.00416922)
(0.133843 0.0031898 0.00375413)
(0.145791 -0.00265344 -0.0013849)
(0.115407 -0.00380993 -0.00153145)
(0.0589621 -0.00207392 0.0036698)
(0.0730214 -0.00916043 -0.000958692)
(0.129254 0.00243745 0.00223489)
(0.0946114 -0.000363327 0.0113474)
(0.0804828 -0.00266995 -0.00586021)
(0.11826 -0.000710935 -0.00626341)
(0.149589 0.00107022 0.00360129)
(0.13486 0.00149632 -0.00389362)
(0.124773 0.000428427 -0.000405016)
(0.144757 0.00114769 0.00176792)
(0.149374 -0.00096529 -0.00187332)
(0.13368 -0.00106814 -0.0016436)
(0.131046 -0.00189655 -0.00197335)
(0.0453272 0.00597431 -0.00044155)
(0.120398 -0.0130824 0.00156956)
(0.0900943 0.0015851 0.00409854)
(0.0787519 5.23445e-05 -0.00612165)
(0.0802328 0.00122171 -0.00253229)
(0.136526 0.00110829 0.0027204)
(0.124965 0.00246847 0.00351503)
(0.141762 0.00282762 -0.00024646)
(0.0297281 0.00385269 -0.00738619)
(0.132421 0.00116763 3.50003e-05)
(0.0750205 0.0031367 0.00618915)
(0.13762 -0.00047887 -0.002324)
(0.0728927 -0.00417541 -0.00061998)
(0.0828893 -0.00222971 0.0096488)
(0.13348 0.000712178 0.00375098)
(0.121484 -0.000483129 0.00383846)
(0.0377998 0.00443073 -0.00579934)
(0.0853568 0.000510325 0.00836256)
(0.133713 0.00180523 -0.00187141)
(0.0449412 -0.0025636 0.000463398)
(0.12978 0.000587625 -0.00273036)
(0.132566 0.00168397 -0.00292834)
(0.141273 0.00342616 0.00509933)
(0.129312 0.00325648 0.00670356)
(0.125353 -0.0046617 0.00489879)
(0.14365 0.00488089 -0.000676214)
(0.0818106 -0.00481331 -0.0103097)
(0.132363 0.000763028 0.000978576)
(0.118222 0.00273062 0.00540548)
(0.0965542 0.00554472 0.00743825)
(0.112072 -0.0016197 0.00102865)
(0.134543 -0.00144633 0.00100676)
(0.140983 0.00113332 0.000882065)
(0.0769333 0.00071261 -0.00420027)
(0.143831 -0.000894051 0.00153024)
(0.126948 -0.00151518 0.000200893)
(0.134874 -0.000281799 -3.80757e-05)
(0.131419 -0.000606427 0.00154672)
(0.0839701 0.00126543 -0.000485445)
(0.144347 -0.0011274 -0.00173759)
(0.142525 0.00131893 -0.00226704)
(0.141333 -0.00208023 -0.000810966)
(0.136772 -0.00211047 -0.000402261)
(0.0497425 0.00256363 -0.00527182)
(0.0387752 -0.00241051 -0.0085925)
(0.140141 -0.00183587 -0.00121745)
(0.137543 0.00301461 0.00147653)
(0.136494 0.00122371 -0.00450669)
(0.0602019 0.00523344 -0.00337746)
(0.129962 0.00117223 -0.00327909)
(0.14487 -0.00428389 0.00650647)
(0.129137 0.0036124 0.000296707)
(0.137599 0.00129701 -0.000699272)
(0.133856 -0.000256162 0.000716312)
(0.135702 0.00113736 0.00276397)
(0.138502 0.000591947 0.00196564)
(0.117457 -0.00290683 -0.00428743)
(0.129104 0.00143443 0.000257614)
(0.0877991 0.00431523 0.000538932)
(0.134871 -0.00553092 -0.000392123)
(0.141321 0.000819664 -0.00241707)
(0.131246 -0.00114943 -0.00309554)
(0.131057 0.00207846 0.000783572)
(0.141686 -0.000907032 -0.00202465)
(0.136797 0.00298854 0.00153366)
(0.0642963 0.0047045 0.000174557)
(0.0677898 0.000838326 0.0077462)
(0.0327933 0.00535249 -0.00591028)
(0.123101 0.000521158 4.11808e-05)
(0.137483 -0.00075064 -0.000714987)
(0.134732 0.000951305 -0.00175256)
(0.140302 0.00132402 0.000556024)
(0.0642327 0.00163952 0.00185737)
(0.0364151 -0.00142587 0.00114962)
(0.141357 0.00423538 0.00086392)
(0.132982 -0.00178021 -0.00110804)
(0.134124 0.00129386 0.000789314)
(0.144357 -0.000783589 -0.00241519)
(0.144283 0.000387744 -0.00297619)
(0.135056 0.00207403 0.000932406)
(0.145681 0.000974239 -0.00231687)
(0.043858 -8.91322e-05 0.00658107)
(0.142815 -0.00221574 0.00294823)
(0.09309 -0.000176158 0.00288297)
(0.0803653 -0.0074041 -0.000460848)
(0.137694 -0.000834598 -0.00133007)
(0.142001 -0.00560047 0.000502064)
(0.139698 0.00212437 -0.00308594)
(0.0341622 -0.00456265 -0.00745307)
(0.137063 0.00129302 0.00074786)
(0.137909 -0.000628787 -0.00266618)
(0.127171 -0.000514475 0.000280796)
(0.142801 0.00362757 0.0026346)
(0.128847 -0.000961385 -0.0015953)
(0.130047 0.00279772 -0.00123897)
(0.134676 -0.00184524 0.00382576)
(0.126439 -0.00194021 0.00042596)
(0.117767 0.00579971 0.00104013)
(0.135799 -0.00393514 -2.68889e-05)
(0.140847 -0.00201964 0.00331504)
(0.0389324 -0.00469388 -0.00128655)
(0.136235 -0.00208738 -0.00432384)
(0.138587 -0.0038846 -0.0010497)
(0.0887698 -0.000516606 0.00678321)
(0.125191 0.00330528 -0.000413329)
(0.13534 -5.18646e-05 -0.00242123)
(0.144299 -0.000486843 -0.00216505)
(0.122109 -0.00318252 -0.00114728)
(0.0400293 0.00281908 -0.00522507)
(0.138141 0.000954207 0.00135874)
(0.147685 6.43616e-05 0.00125998)
(0.145148 0.00124431 0.000862902)
(0.140267 0.00581846 0.000857358)
(0.0681049 0.00487781 0.00184111)
(0.139901 0.00441978 -0.000977081)
(0.0366143 0.00822729 -0.00370651)
(0.130756 0.00281425 -0.000815208)
(0.102721 0.00877287 -0.0020669)
(0.130076 0.00337651 -0.00173798)
(0.0805163 -0.000334645 0.00260927)
(0.13757 0.00209959 -0.00500534)
(0.130957 0.00501498 -0.00502111)
(0.0595391 0.00727644 0.00494666)
(0.129309 0.000649633 0.000138775)
(0.126159 0.00422509 -0.000322918)
(0.0392081 0.00247101 0.00551539)
(0.130941 0.00100212 0.000409008)
(0.123317 -0.00339131 -0.000264234)
(0.0659462 1.29121e-05 0.00048355)
(0.0985821 0.00794952 0.000453439)
(0.0919795 0.000535818 0.00087415)
(0.134014 0.000638075 -0.00021991)
(0.129609 -0.00590498 0.000272443)
(0.0430284 -0.000786917 0.00250658)
(0.0959073 -0.000480658 -0.00550436)
(0.09712 0.00230582 -0.00418351)
(0.13749 0.00609437 0.00326766)
(0.129466 -0.00534474 0.000437534)
(0.0414357 0.000337842 -0.00853174)
(0.142742 -0.00442169 -0.00190226)
(0.133566 0.00303586 -0.00396682)
(0.129426 0.00350777 -0.000792122)
(0.0905256 0.00543965 -0.00367201)
(0.14035 0.000898149 -0.00137766)
(0.0429183 -0.00212891 -0.00941286)
(0.130996 -0.000289397 -0.00028077)
(0.0440548 -0.00124058 0.00131036)
(0.0839908 -0.0115964 -0.00185528)
(0.135022 0.00220543 0.00172862)
(0.0903422 -0.00438922 0.00164691)
(0.0350527 0.00787362 0.00684012)
(0.0626531 0.00443825 -0.00834251)
(0.07689 -0.0106089 0.00194036)
(0.0895178 0.00892254 -0.000695913)
(0.136145 -0.00089541 -0.00250815)
(0.0840342 -0.00359017 -0.0056323)
(0.104425 0.00229766 0.000576165)
(0.129577 -0.000576735 -0.00775895)
(0.127409 0.0033963 -0.00053457)
(0.0367818 0.00356784 -0.00285012)
(0.141642 -0.00338738 0.00171524)
(0.0891212 0.00831249 0.00509056)
(0.137687 -0.000158987 -0.0028155)
(0.0834267 0.00153218 -0.00101151)
(0.128739 0.00419699 -0.0022066)
(0.0925935 -0.0102214 0.000515052)
(0.13938 0.00137389 0.00309364)
(0.12865 4.75879e-05 0.00100679)
(0.0729705 0.0104807 -0.0079372)
(0.143059 -0.0012768 -0.00157635)
(0.0437509 0.00491666 0.00259725)
(0.0356588 0.00463425 0.00439374)
(0.141752 0.0018937 0.000408322)
(0.12928 0.00186778 0.00128259)
(0.13271 -0.00129949 0.00309656)
(0.141523 0.0072515 -0.00386852)
(0.134087 -0.00183018 -0.00100657)
(0.0920598 0.00147934 -0.00752668)
(0.140349 -0.000517381 -0.00204397)
(0.0770776 0.00075054 0.00563821)
(0.130964 0.00121666 -0.0013947)
(0.140406 0.00066581 -0.00554886)
(0.0460274 0.00428303 -0.0123497)
(0.144205 -0.00130509 0.000265049)
(0.0950777 0.00296391 0.0052551)
(0.0435926 -0.00796777 -0.00851245)
(0.146432 0.00283515 -0.00040943)
(0.0689833 -0.00100706 0.00123306)
(0.134935 -0.000451503 -0.00137497)
(0.130728 -0.000903237 -0.00251311)
(0.134843 0.00586426 0.00260218)
(0.104388 -0.0097461 -0.00184316)
(0.136595 -9.22278e-05 -0.00101569)
(0.127707 0.00203295 0.00108633)
(0.14305 -0.00150574 -0.000611595)
(0.143056 -4.65552e-05 -0.00208403)
(0.136416 0.00225682 -0.00145771)
(0.128975 0.00211309 -0.000873232)
(0.0761485 -0.00753782 -0.0019301)
(0.0837053 0.000528351 -0.00542941)
(0.136214 0.00038084 0.000245215)
(0.136601 -0.00158563 -0.00181711)
(0.0621971 -0.00973493 -0.00255326)
(0.136555 0.00212921 -0.0029223)
(0.143484 -0.00179047 0.000378844)
(0.140567 -0.000602636 0.00131322)
(0.135771 -0.00050344 -0.000649612)
(0.139277 0.00602314 -0.00108745)
(0.0313838 0.00243446 0.00561927)
(0.141337 -0.00243025 -0.000652646)
(0.123253 -0.00455199 -0.00376846)
(0.128935 -0.00138266 -0.000226523)
(0.132254 0.00132817 -0.00447904)
(0.0564003 0.00718324 -0.00300836)
(0.132829 0.00307802 -0.00141324)
(0.122672 -0.00160742 -0.00580412)
(0.145322 -0.00207998 -0.00253975)
(0.130826 -0.00302561 -0.00165634)
(0.142259 0.0030153 0.000476722)
(0.0277907 0.00279398 -0.00591176)
(0.0359396 -0.00366742 -0.00682024)
(0.125588 -0.00422175 -0.00167045)
(0.126172 0.00389326 -0.000570006)
(0.128802 0.000326915 -0.000944962)
(0.130236 0.00195773 -0.000652759)
(0.129059 0.00418118 0.000916531)
(0.135373 -0.00121853 5.50475e-05)
(0.136055 0.000771837 -0.00452896)
(0.0327871 0.000860892 0.0011087)
(0.123893 -0.00488245 -0.0023556)
(0.136706 -0.000988168 -0.00309169)
(0.0677221 -0.00481423 0.00472172)
(0.0836555 -0.00769955 -0.0004998)
(0.145451 -0.00312222 0.000228148)
(0.141728 -0.00307308 -0.00372818)
(0.147509 7.33162e-05 -0.00428617)
(0.146326 -0.000906077 -0.002503)
(0.138696 -0.0017029 -0.00180374)
(0.135533 0.000542304 -0.00278675)
(0.136689 0.00160327 -0.000285962)
(0.139359 0.00380423 7.35483e-05)
(0.130995 -0.00255447 -0.00166398)
(0.132477 -0.00360674 0.0058028)
(0.129173 -0.000123418 -0.00354074)
(0.0700653 -0.00871351 0.00774843)
(0.144109 0.00143717 -0.00366526)
(0.0623395 0.00010357 -0.0026417)
(0.101105 -0.00671656 0.00238925)
(0.088821 -0.00116421 0.00873945)
(0.127691 -0.000837304 -0.00602568)
(0.142167 -0.00155239 0.00184788)
(0.126948 -0.0112594 -0.0043191)
(0.130888 0.00120245 0.00108829)
(0.145281 0.000276104 0.000230064)
(0.131681 0.00339562 -0.000544028)
(0.132425 0.000631004 0.00217601)
(0.0558875 0.00596647 -0.00390664)
(0.101941 -0.00223557 -0.00118121)
(0.117579 -0.000159638 -0.0112227)
(0.130684 0.00104683 0.00318025)
(0.130641 -0.00315213 0.00224723)
(0.136563 -0.00373748 -0.00302946)
(0.129335 0.00142846 0.000229944)
(0.143457 -0.00103986 -0.00262692)
(0.0673909 -0.00473979 0.00158751)
(0.0815597 0.00295334 0.0072667)
(0.0457438 -0.00142246 -0.00289085)
(0.0382325 -0.00236467 -0.00284504)
(0.0629293 -0.00214471 -0.00257527)
(0.139042 0.00525861 0.00192834)
(0.138573 0.000562215 -0.000929535)
(0.0412716 0.00103971 0.00881637)
(0.0352871 0.00611049 0.00685585)
(0.135367 0.00468984 -4.34542e-05)
(0.107749 -0.0104132 0.00411507)
(0.0622203 0.00167165 0.000854472)
(0.13828 0.0034107 -0.00256445)
(0.143203 -0.00580613 -0.00205737)
(0.136672 0.000659015 -0.000893883)
(0.0670933 0.0064204 -0.00432636)
(0.0878714 -0.00493741 0.00165579)
(0.130214 -0.000397881 -0.00142281)
(0.133377 0.00296418 -0.000944744)
(0.131905 0.00410822 -0.0027982)
(0.0720259 0.0146605 -0.0103673)
(0.0448444 0.000918355 0.00530896)
(0.107095 -0.0153201 -0.00859549)
(0.0474336 -0.00718319 -0.0048777)
(0.144032 0.00258234 0.000755761)
(0.0456275 0.00277823 -0.0116662)
(0.131185 0.00083993 -0.000194894)
(0.132669 0.000330102 -0.000626361)
(0.149478 -0.00297925 0.000917168)
(0.0683753 -0.00537958 -0.00209559)
(0.140792 -0.0078241 -0.00404438)
(0.0560111 0.000175781 -0.00414076)
(0.0550529 0.00910983 -0.00271389)
(0.13383 -0.00258014 -0.000953587)
(0.0312001 0.000611028 -0.00776235)
(0.134628 -0.00280709 0.00142216)
(0.0844671 -0.001011 -0.00426762)
(0.136801 -0.000898026 0.000672787)
(0.138015 -0.00371037 -0.00236986)
(0.0424871 0.000444697 0.00780921)
(0.0831338 -0.00244641 0.00240191)
(0.137424 -0.00292468 -0.00290405)
(0.0598022 -0.0084205 -0.00304376)
(0.130196 -0.000363914 0.00132482)
(0.0856773 -0.00364517 0.00808226)
(0.132876 -0.00206098 -0.00516534)
(0.133344 0.00190336 -0.000735774)
(0.0687063 0.00294416 0.00343461)
(0.0419181 0.000708985 -0.00947853)
(0.0820577 0.00324572 0.00766206)
(0.113706 0.0109948 0.00437505)
(0.141408 0.000389921 -0.000821041)
(0.0951204 0.000927544 0.00769845)
(0.127448 0.00111865 0.00135194)
(0.050316 -0.00133933 0.000372615)
(0.132475 0.00206352 -0.000496526)
(0.0475621 0.00247527 0.001347)
(0.142208 -0.0055886 0.0020286)
(0.146571 -0.0030157 0.0018286)
(0.137567 0.000729039 0.00150167)
(0.0382531 0.00631164 0.00044158)
(0.147269 -0.00136917 -0.000185462)
(0.103628 0.000861493 -0.00315316)
(0.135384 0.0042232 0.00171746)
(0.082355 -0.0042396 0.00105343)
(0.109761 -0.00783539 0.00366205)
(0.143947 -0.00170377 -0.000818894)
(0.0723374 -0.00391469 -0.00434584)
(0.128189 -0.00123544 -0.000731066)
(0.111927 0.000736777 -0.0147772)
(0.13993 -0.000990089 0.000538091)
(0.060135 0.00309924 -0.00854363)
(0.0922876 -0.00299448 -0.00569434)
(0.135453 0.00011886 0.00102393)
(0.146101 -0.000930986 0.000323097)
(0.0582615 0.0195255 0.00268565)
(0.143706 0.00292662 -0.00176629)
(0.0931999 -0.0128643 0.00730983)
(0.0409023 -0.00708345 0.00584851)
(0.133632 -5.93005e-05 0.00159866)
(0.104661 1.46824e-05 0.00868726)
(0.143141 0.00239411 0.000552468)
(0.135998 0.000149518 0.00181855)
(0.135632 -0.000509278 0.00112066)
(0.132884 0.00100349 -0.00158674)
(0.155035 3.62425e-05 0.00369436)
(0.0685116 0.00482447 0.00520886)
(0.0805952 -0.0125143 -0.00479416)
(0.137095 0.00211618 -0.00100626)
(0.11087 -0.00344467 0.00516898)
(0.136763 0.00678285 -0.000144422)
(0.146561 0.00123792 -0.00138253)
(0.126385 0.00381628 -0.00116517)
(0.150308 -0.000983373 -0.000440471)
(0.133748 0.00220825 -0.000116118)
(0.141961 -0.00446979 -0.00455919)
(0.133864 0.000328021 0.00442681)
(0.0638311 -0.00447181 -0.0101956)
(0.107321 0.00257447 -0.00392313)
(0.0836116 0.000142961 -0.00783903)
(0.134715 -0.00171623 -0.00227589)
(0.137631 -7.34981e-05 0.00282234)
(0.136026 -0.00501523 -0.00272909)
(0.126967 -0.00773049 -0.00405225)
(0.0352599 0.005741 0.000688176)
(0.123543 -0.00437594 -0.00237989)
(0.089707 -0.00331283 -0.00212038)
(0.134772 0.000483459 0.00120383)
(0.133424 0.00279877 -0.00258098)
(0.106829 -0.00573688 0.0027189)
(0.132389 0.0010987 -0.000485933)
(0.118113 -0.00552673 0.00230695)
(0.10185 -0.000414526 0.00726125)
(0.137682 0.00340765 -0.00285814)
(0.051868 -0.0110039 -0.000196482)
(0.13373 0.000754521 -0.000915152)
(0.0942727 0.00450879 -0.000561474)
(0.144062 0.000132411 -0.00201258)
(0.050578 0.00622682 0.00756876)
(0.144477 0.00376701 -0.00122473)
(0.102563 -0.00206029 0.00118787)
(0.139694 -0.00121047 0.00106861)
(0.1345 -0.000519328 -0.00293659)
(0.135841 0.00224749 0.00319541)
(0.150134 -0.0032176 -0.00155477)
(0.129669 -0.00445768 -0.000499849)
(0.0690591 -0.00511268 0.000324639)
(0.0810397 0.00467729 -0.00747605)
(0.0526302 -0.00102283 -0.000323529)
(0.132714 0.00150708 -0.00168704)
(0.138993 -0.00166873 -0.000648094)
(0.135424 0.000268642 0.00219771)
(0.141903 0.000214332 0.00407977)
(0.0317224 0.00178648 -0.00131669)
(0.134166 0.00306377 -0.000406412)
(0.129297 -0.00145512 -0.00041068)
(0.134744 0.00123893 0.00169642)
(0.142548 0.00345346 -0.00575273)
(0.133164 0.00346418 0.0012773)
(0.129063 -0.00525254 0.0003774)
(0.134137 -3.41334e-05 -1.98373e-05)
(0.0374588 -0.00491521 -0.00700401)
(0.112051 -0.00378303 0.00105113)
(0.132412 0.00172507 0.00127755)
(0.0430202 0.0010636 0.00348386)
(0.072242 -0.000371532 -0.00123663)
(0.0931032 -0.00896743 0.000753835)
(0.0329268 -0.00217273 -0.00820821)
(0.129873 -0.00128279 -0.00306345)
(0.134189 0.00011045 -0.00260505)
(0.0862927 0.00383253 -0.000462649)
(0.0363863 -0.00714012 -0.00244411)
(0.134804 0.00180947 -0.00352511)
(0.0406315 -0.000250403 0.00140783)
(0.134549 0.00418425 0.00242139)
(0.131743 -1.82504e-05 -0.00225843)
(0.13143 -0.00159462 -0.00185662)
(0.132263 0.00285257 -0.00114393)
(0.147895 0.00483699 -0.00254359)
(0.132226 -6.75896e-05 -0.00132416)
(0.138214 0.00295044 -0.00403473)
(0.0734861 0.00323419 0.000118172)
(0.130597 0.00159792 -0.000654634)
(0.142874 0.00316773 0.00131618)
(0.13267 0.00913817 -0.00203515)
(0.125408 0.00433713 0.00253185)
(0.13469 -8.05794e-05 -0.000225258)
(0.141987 -0.00320725 -0.00291457)
(0.0966252 -0.00319279 -0.00593254)
(0.141209 -0.00303773 0.00649751)
(0.0620306 0.00177199 -0.000345818)
(0.124632 -0.000852372 -0.00136255)
(0.122868 -0.0019314 0.00576792)
(0.0995692 0.000804211 0.00110431)
(0.14246 -0.000754845 -0.00377074)
(0.11178 -0.00521812 0.00855046)
(0.124762 0.00241927 0.00178896)
(0.0621359 0.0012478 -0.00864452)
(0.0513462 -0.00459942 0.00330338)
(0.0835653 0.00299228 -0.00775594)
(0.0363381 -0.00255945 -0.00765245)
(0.14387 -0.00116606 0.000511664)
(0.126705 -0.000414681 -0.00147075)
(0.138977 0.0041343 -0.00520278)
(0.113627 0.00942648 -0.000117713)
(0.131812 -0.00108204 -0.00311784)
(0.129129 -0.000901357 -0.00199751)
(0.0512489 0.000872696 0.00644384)
(0.128776 0.00119887 0.000543153)
(0.125207 0.000516708 0.00418036)
(0.0763933 0.00444247 -0.00238341)
(0.0411747 -0.00823087 0.00523782)
(0.134967 -0.00181673 -0.00275258)
(0.152295 -0.00202928 -0.00172163)
(0.043415 -0.00463557 0.00718295)
(0.139019 0.000363353 0.00167738)
(0.0439563 -0.00625143 -0.0024163)
(0.135557 0.000674896 -0.00149728)
(0.134385 0.00181167 0.00107865)
(0.127603 -0.000239051 -0.000601143)
(0.144826 0.00112696 -0.000981075)
(0.134362 0.00205027 -0.00377337)
(0.138412 -0.003628 0.00335957)
(0.13164 0.00210079 -0.000989236)
(0.0339722 0.00358377 -0.00836799)
(0.0594281 -0.0057494 0.000112008)
(0.132944 -0.00693957 -0.00637018)
(0.131514 0.000652535 0.00277804)
(0.0393114 0.00207955 -0.00452496)
(0.137199 0.000595165 0.00156532)
(0.133661 -0.00349354 -0.00138881)