/*--------------------------------*- C++ -*----------------------------------*\
| =========                 |                                                 |
| \\      /  F ield         | OpenFOAM: The Open Source CFD Toolbox           |
|  \\    /   O peration     | Version:  2406                                  |
|   \\  /    A nd           | Website:  www.openfoam.com                      |
|    \\/     M anipulation  |                                                 |
\*---------------------------------------------------------------------------*/
FoamFile
{
    version     2.0;
    format      ascii;
    arch        "LSB;label=32;scalar=64";
    class       volVectorField;
    location    "10";
    object      U:Transformed;
}
// * * * * * * * * * * * * * * * * * * * * * * * * * * * * * * * * * * * * * //

dimensions      [0 1 -1 0 0 0 0];

internalField   nonuniform List<vector> 
59516
(
(0.00621021 -0.000331705 0.131948)
(-0.00383718 0.00602694 0.129554)
(0.00180782 0.00199384 0.132981)
(-0.00251434 0.00274926 0.13348)
(-0.00192081 0.000787264 0.12042)
(-0.0129376 0.00606649 0.102685)
(-0.00442303 -0.00101419 0.139996)
(-0.00296867 0.00413558 0.131686)
(-0.000314262 0.00213062 0.139638)
(0.0100456 0.00352229 0.0895569)
(-0.000305319 0.000577799 0.127223)
(-0.00016729 0.00695118 0.0867845)
(-0.000906833 -0.00697137 0.141635)
(-0.000173469 0.000842146 0.0370472)
(-0.00693069 -0.00770384 0.096326)
(-0.000336739 0.00905751 0.088372)
(-0.00175602 0.00143718 0.132848)
(0.000712527 -0.00672607 0.0779305)
(-0.00677898 -0.0043726 0.131494)
(-0.000528592 0.00145006 0.133656)
(-0.00148671 -0.000770356 0.0711312)
(-0.000596623 0.0012013 0.1422)
(-0.000376985 0.00286855 0.137066)
(0.000958445 -0.000360306 0.0642738)
(0.000552997 0.00332375 0.152808)
(-0.00816318 0.00140683 0.110321)
(-0.00118504 -0.00338655 0.0791963)
(-0.00812162 0.00171572 0.0538082)
(9.52139e-05 -0.0038965 0.0881437)
(0.00575151 0.00350687 0.0321092)
(-0.0151023 0.000393313 0.115339)
(-0.0103643 0.00224742 0.0571654)
(8.42289e-05 0.000789246 0.141072)
(-0.00684019 -0.00324215 0.136474)
(-0.00405249 0.00246594 0.130568)
(-0.000711412 0.000781439 0.149061)
(-0.00558653 -0.000274642 0.0364537)
(-0.00352743 0.00118924 0.082327)
(-0.00427712 -0.00432575 0.116844)
(0.00500863 -0.00556093 0.14144)
(-0.00466167 -0.00279833 0.133168)
(-0.00180032 0.00106112 0.134528)
(-0.0028444 -0.00037353 0.137115)
(-0.00455407 0.00502182 0.137369)
(-0.00203601 -0.00261044 0.140884)
(0.0100435 0.001404 0.0985118)
(0.00552576 0.00550715 0.136147)
(-0.000242409 -0.0014653 0.132766)
(-0.00698261 0.00299666 0.118746)
(-0.000322221 0.000468671 0.127628)
(-0.012975 0.0023689 0.106808)
(-0.00508119 -0.0011654 0.0749819)
(0.00200665 -0.00454096 0.147254)
(-0.00105918 -0.000428423 0.143769)
(-0.00444364 0.00230363 0.0812851)
(-0.00539294 0.00290815 0.135636)
(-0.0013957 0.000424586 0.124028)
(-0.00737269 0.00169939 0.0878269)
(0.00237387 0.00382712 0.133565)
(-0.000816976 0.00214342 0.128365)
(-9.86674e-06 0.00324248 0.139373)
(5.75783e-05 0.00150006 0.035028)
(0.00240621 -0.00497034 0.134574)
(0.000446057 0.000474635 0.127766)
(-0.00372543 -0.00212179 0.142456)
(0.00021276 0.000460977 0.129448)
(0.00171682 0.00464823 0.0506302)
(-0.00251764 0.00143348 0.0747231)
(-0.0133827 0.00434343 0.129841)
(0.00344531 -0.0010494 0.130089)
(-0.000213525 0.000749495 0.0631876)
(-0.00325197 0.000514381 0.130499)
(0.00937523 -0.00154756 0.0485217)
(-5.95053e-05 0.00244635 0.133413)
(-0.00192922 0.000728919 0.13291)
(0.000625255 0.000704024 0.13596)
(-0.000940106 -0.00206169 0.13154)
(-0.00371956 -0.00357364 0.146576)
(0.00437958 -0.000112703 0.0738229)
(0.00307751 -0.000189781 0.124907)
(-0.00405177 -0.000900291 0.073997)
(-0.000956997 0.0018988 0.127953)
(0.000896913 -0.00175851 0.125646)
(-0.00695405 0.00399404 0.0425834)
(0.000601224 0.00109628 0.125813)
(-0.0016814 5.9983e-05 0.13059)
(0.0002833 0.00649183 0.0606519)
(-0.000355772 0.00239735 0.138415)
(-0.00867689 0.00130631 0.0966401)
(-0.00336184 -0.000403922 0.11347)
(-0.00215416 0.000743295 0.127812)
(0.00463164 -0.00189459 0.135857)
(0.000533483 -0.00227288 0.130831)
(0.00216682 -0.0017687 0.129505)
(0.00306557 -0.00311316 0.128582)
(-0.00467077 0.000742761 0.117875)
(-0.0033336 2.92391e-05 0.13962)
(0.00330983 0.00434243 0.0833677)
(-0.00194372 -0.00226616 0.0819388)
(0.00196152 -0.00194234 0.139378)
(-0.00255831 0.00485591 0.0750007)
(0.00636374 0.00469334 0.050065)
(0.00778748 0.000220003 0.039707)
(0.00232553 0.00419252 0.0851414)
(-0.000199514 -0.000475965 0.147066)
(-0.000255402 4.47197e-05 0.133254)
(0.00576242 -0.00456392 0.0733369)
(-0.00143836 -0.000752811 0.132001)
(-0.00533749 -0.00528028 0.13391)
(-0.00405625 0.0061491 0.0962155)
(-0.00705756 -0.00198041 0.130578)
(0.00656514 -0.0050589 0.0651622)
(-0.000290507 0.00187897 0.100694)
(-0.00985053 0.000416577 0.1213)
(-0.00314257 0.00425235 0.13404)
(-0.00426943 0.000595849 0.129722)
(-0.00674271 -0.00427628 0.0979648)
(0.00211086 -0.000220014 0.132407)
(-0.0049819 0.00191367 0.0349344)
(-0.000834643 0.00209803 0.147398)
(-0.00160545 -0.000935613 0.134799)
(0.00240451 -0.000129057 0.133449)
(-0.00162438 -0.000800485 0.144075)
(-1.25049e-05 -0.000315966 0.130256)
(-0.00360473 -0.00172201 0.136103)
(0.00501339 -0.00439872 0.112992)
(-0.00640068 -0.00391307 0.0475571)
(-0.0019379 -0.00302074 0.137829)
(-0.013224 0.00718085 0.0977085)
(0.00161133 0.00339562 0.128449)
(0.00318805 0.000279028 0.130116)
(0.000311485 0.00402885 0.141839)
(-0.00495621 -0.00127871 0.0389793)
(-0.000391141 0.00262725 0.136935)
(-0.000154665 0.00228451 0.123716)
(0.00105823 0.00138491 0.138115)
(-0.0112204 -0.00142134 0.110344)
(-0.000880633 0.00196223 0.139006)
(-0.000766413 0.00647546 0.078224)
(-0.0062979 0.000106707 0.123326)
(-0.00251136 0.00530529 0.083373)
(0.00219099 -0.000432133 0.139924)
(-0.00315427 -0.00400791 0.032372)
(-0.00321322 0.000326971 0.140579)
(-0.00156008 0.000365052 0.125053)
(-0.00334112 0.0013799 0.131209)
(-0.00187135 -0.000354762 0.142532)
(-0.001168 -0.00307759 0.129571)
(0.000257753 -0.00292109 0.0665657)
(-0.00428159 0.000599649 0.127282)
(0.000573305 -0.000836344 0.119802)
(-0.000222899 0.00499523 0.0672422)
(2.26119e-05 -0.00011452 0.137563)
(0.00216435 -0.00438989 0.141212)
(0.00461315 -0.00204702 0.109193)
(-0.00586668 0.00128419 0.0307547)
(0.00203291 -0.00562865 0.141071)
(0.00265077 0.00101309 0.121875)
(-0.000425894 0.000627039 0.101867)
(-0.00771829 0.000267972 0.0330087)
(-0.00125753 0.00643584 0.0867347)
(0.000151302 -0.00640029 0.087749)
(-0.00605114 0.00974655 0.0649855)
(-0.00136101 -0.00156715 0.043816)
(-0.00231286 0.00123842 0.132927)
(-0.00323625 0.000204135 0.140929)
(0.0033492 -0.000313301 0.108272)
(0.000974028 -0.000993203 0.131039)
(0.00684677 0.00288172 0.0268509)
(-0.00311269 0.00200286 0.128039)
(-0.00249459 0.00249916 0.110458)
(-0.000963583 -0.00115228 0.0803765)
(-0.00148209 -0.00850518 0.0963182)
(0.00145212 0.00023921 0.132638)
(-0.000583681 0.00181695 0.0795274)
(0.00426881 0.00346239 0.130745)
(-0.00148709 0.00102544 0.131833)
(-0.00176486 -0.00288609 0.139711)
(0.00602325 -0.0084353 0.103377)
(-0.00202941 -0.00564696 0.0635128)
(-0.00124237 -0.00382098 0.139268)
(0.00257215 0.00479239 0.060553)
(-0.00220092 -0.00182887 0.05364)
(-0.00418957 0.00238357 0.0972799)
(0.000101683 -0.00386947 0.13176)
(-0.000721891 9.18303e-05 0.101991)
(-0.00208936 0.00049093 0.0601129)
(-0.00376345 0.00440226 0.0472387)
(-0.000705146 -0.00172741 0.133804)
(-0.00356381 -0.00510557 0.130939)
(-0.00380179 0.00220796 0.13539)
(0.00443436 -0.00297589 0.0889457)
(0.0010833 -0.000296073 0.130246)
(-0.00039532 -0.00599962 0.090157)
(-0.00387614 0.00171681 0.136799)
(0.00190214 0.00279621 0.0519483)
(0.00343102 -0.0014011 0.0886583)
(0.00200894 0.000897848 0.0754643)
(-0.00152713 0.00327942 0.13394)
(-0.00250886 0.00615838 0.13618)
(0.00308713 0.00221374 0.112684)
(0.00299357 0.000885075 0.13484)
(-0.00125239 -0.000626267 0.128668)
(0.00723614 -0.00330002 0.0322017)
(0.00343021 0.00260515 0.149266)
(-0.00208601 0.00135889 0.148072)
(2.06528e-06 0.000613535 0.12939)
(-0.00295982 0.00229269 0.128719)
(-0.0004087 0.000168295 0.0417203)
(0.00140255 -0.00102053 0.135312)
(0.00365161 0.00506996 0.0934084)
(-0.00965114 0.00288474 0.0328136)
(0.00127172 -0.000962834 0.14063)
(0.00213002 0.00436534 0.0906506)
(-0.00188663 0.00308271 0.138366)
(-0.00149539 -0.00307397 0.138322)
(-0.00307001 0.00138947 0.12632)
(0.000297893 0.000981103 0.144437)
(-0.00448875 -0.00123198 0.0876248)
(-0.00263634 0.00305519 0.137614)
(-0.00728342 -0.00853217 0.0897439)
(-0.00537026 0.00361565 0.116572)
(-0.0016459 -0.00149488 0.130867)
(-0.000485694 -0.00221441 0.0650965)
(-0.00240081 0.00155507 0.130438)
(0.000463975 0.00156098 0.13542)
(-0.00359016 -0.00383276 0.0499806)
(-0.00599399 -0.000610836 0.0775292)
(-0.00573979 0.000362128 0.128153)
(-0.00257757 0.00149571 0.0953346)
(-0.000468338 0.00267183 0.135774)
(-0.00402505 0.0017448 0.135639)
(-0.000442873 -0.00466069 0.125672)
(-0.00487267 -0.0041222 0.0437605)
(-0.00431201 -0.00774744 0.0632915)
(-0.00795498 -0.00428921 0.0544078)
(0.00232804 -0.00204235 0.0930167)
(-0.00791445 0.00105267 0.128526)
(-0.00416079 -0.00380725 0.133008)
(0.000406338 4.59006e-05 0.1102)
(0.00368401 -0.000286015 0.128187)
(0.00780572 -0.000224375 0.0363344)
(-0.00902247 -0.000876331 0.0877698)
(0.00499091 -0.00024905 0.0442525)
(-0.000540122 0.00451978 0.125958)
(-0.00361095 -0.00178212 0.121633)
(-0.000451125 -0.00160406 0.132978)
(0.00394162 0.00047291 0.100175)
(-0.000854016 0.000617112 0.138663)
(0.000915747 -0.00122622 0.124263)
(0.00380988 -0.00753751 0.139667)
(-0.00541197 -0.00457161 0.137469)
(0.00230947 0.00190789 0.12478)
(-0.00236636 0.0030378 0.13755)
(0.000530239 -0.00384773 0.13302)
(-0.000592935 -0.00161533 0.1328)
(-0.000559096 -0.000340086 0.0913703)
(-0.00479991 -0.00317437 0.135219)
(0.00500443 0.00499383 0.073381)
(0.00794843 0.00241257 0.0874621)
(0.00310651 -0.00208708 0.144487)
(-0.00754725 -0.00122299 0.134176)
(-0.00171434 0.00376908 0.132356)
(-0.00431912 0.00293942 0.133432)
(0.000469996 -0.00200037 0.119188)
(0.00147276 -0.00148718 0.101751)
(0.00553007 -0.00399795 0.141989)
(-0.00568035 0.00069373 0.140512)
(0.00172148 -0.0130583 0.075959)
(0.000896649 0.00156701 0.0855088)
(-0.00793118 -8.9526e-05 0.126031)
(-0.000390431 -0.00187234 0.134033)
(0.000907132 -0.00205977 0.141106)
(0.00630705 0.00484529 0.134371)
(-0.00574912 -0.00173472 0.133336)
(0.00263375 -0.00102696 0.124689)
(-0.00444269 -0.00684124 0.0333992)
(-0.00408009 0.0032427 0.139558)
(0.00779749 -0.00350002 0.0431678)
(0.000470702 0.000326185 0.0766569)
(-0.00192223 -0.00351106 0.126949)
(0.0030123 0.00182171 0.138026)
(-0.00823376 -0.00478553 0.0453515)
(-0.00275234 0.00587963 0.141442)
(-0.000732685 0.00381584 0.140948)
(0.00289794 -0.00140169 0.129975)
(-0.00291294 -0.00132225 0.128252)
(0.00813417 -0.00406526 0.0446709)
(-0.00479759 -0.000252534 0.127958)
(-0.000526244 -0.00378149 0.122356)
(-0.00157483 -0.00302715 0.129949)
(-0.00453913 0.00275922 0.134962)
(0.00219814 -0.0017657 0.129999)
(0.00250847 -0.00236448 0.129075)
(0.00102522 0.00210194 0.136932)
(-0.000241649 0.00620069 0.0533486)
(0.00376501 0.00037161 0.132406)
(0.00295567 0.00239891 0.147383)
(-0.00214753 -0.00146972 0.131719)
(0.0022624 -0.00355529 0.128307)
(0.00194784 0.00545516 0.144288)
(0.00195296 0.00811139 0.108879)
(-0.00558015 -0.00117581 0.0416613)
(0.00461122 0.00468512 0.045825)
(0.000339319 0.00262228 0.143201)
(-0.00866737 -0.00236983 0.041131)
(-0.00252723 -0.00505325 0.0959513)
(0.00558841 0.0068773 0.0812562)
(0.00395459 0.00241306 0.137683)
(-8.60617e-06 0.00121245 0.149539)
(0.00440126 0.00121631 0.155506)
(0.00317058 0.000256875 0.0907629)
(0.00157716 -0.00253175 0.136775)
(-0.00343848 0.00663386 0.0705924)
(0.00745689 -0.00728383 0.075686)
(0.00453916 -0.00236715 0.130086)
(0.00277512 -0.00262545 0.128626)
(-0.00755812 -0.00434014 0.111091)
(-0.00162668 0.00115238 0.117972)
(0.000480923 0.00178883 0.0806856)
(0.00413372 -0.000698649 0.100106)
(3.66555e-05 0.000658392 0.129117)
(0.000408499 -0.00127731 0.139433)
(-0.000731993 0.00272793 0.133798)
(-0.000755283 0.00247926 0.135298)
(-0.00119418 0.00476516 0.140333)
(-0.00747171 0.00821931 0.112393)
(0.0016776 0.00132976 0.134006)
(0.00306634 -0.00296392 0.126707)
(-9.46835e-06 2.55023e-05 0.134651)
(0.00131663 0.00196221 0.142916)
(-0.00584666 -0.00819224 0.0793009)
(0.00674664 -0.00742137 0.0371058)
(0.00108201 0.000834896 0.13546)
(2.94679e-05 0.0027964 0.0658512)
(-0.00514587 -0.00506409 0.0509417)
(-0.00404014 -0.00432713 0.133036)
(0.00162103 -0.00362756 0.138891)
(0.000937507 -0.00398979 0.0803504)
(-0.00193691 0.00214083 0.132454)
(0.000681322 -0.00033538 0.139844)
(-0.000885366 -0.00352403 0.135416)
(0.00126049 0.000116715 0.135402)
(0.00170129 0.000203795 0.0599924)
(-0.00193061 -0.00199722 0.146216)
(-0.001209 -0.000329176 0.129458)
(-0.00151216 0.00285949 0.0947394)
(4.75619e-05 -0.0029371 0.130461)
(0.000723746 -0.000804594 0.130283)
(0.000365382 -0.00106471 0.133706)
(-0.00479934 -0.000829359 0.137274)
(-0.00491641 -0.000311868 0.133843)
(-0.000672865 0.00291649 0.145791)
(-0.00361646 0.00194478 0.115407)
(-6.35778e-05 -0.0042148 0.0589621)
(0.000914767 0.00916492 0.0730214)
(0.00235821 0.00231834 0.129254)
(-0.00978836 0.00575184 0.0946114)
(-0.00642239 -0.000472903 0.0804828)
(-0.00625973 0.00074265 0.11826)
(0.00217156 -0.00306578 0.149589)
(0.00410165 -0.000758779 0.13486)
(0.000543113 0.000229382 0.124773)
(0.00210282 -0.00014454 0.144757)
(0.000111978 -0.00210442 0.149374)
(0.00111255 0.00161388 0.13368)
(0.00235668 0.00139179 0.131046)
(0.000194526 -0.00598745 0.0453272)
(-0.013169 0.000437399 0.120398)
(-0.00243892 0.00365544 0.0900943)
(-0.00581106 -0.00192585 0.0787519)
(0.00126602 -0.00251043 0.0802328)
(0.000682005 -0.00285723 0.136526)
(0.00398086 0.00161293 0.124965)
(-0.00222492 -0.00176236 0.141762)
(-0.00476725 0.00683171 0.0297281)
(-0.0011657 7.5717e-05 0.132421)
(0.00222655 0.00657167 0.0750205)
(-0.00237067 -0.00010087 0.13762)
(-0.000793763 0.00414589 0.0728927)
(0.00959045 -0.00246861 0.0828893)
(0.00376335 -0.000643633 0.13348)
(-0.00347843 0.00169344 0.121484)
(0.0072822 -0.000483054 0.0377998)
(0.00220813 0.00808189 0.0853568)
(-0.00129757 0.00225329 0.133713)
(-0.00226826 -0.00128131 0.0449412)
(0.00259497 0.00103263 0.12978)
(-0.00137629 0.00308493 0.132566)
(0.00304864 0.00533363 0.141273)
(0.00270859 0.00694304 0.129312)
(0.00575554 0.00355012 0.125353)
(0.00419172 -0.00259033 0.14365)
(-0.00867479 -0.00736247 0.0818106)
(-0.000720262 -0.00101047 0.132363)
(-0.00589828 -0.00137323 0.118222)
(0.00842321 0.00388858 0.0965542)
(0.00191789 -5.68194e-05 0.112072)
(0.00167595 0.000544642 0.134543)
(0.00106707 -0.000961153 0.140983)
(-0.0013618 0.00403678 0.0769333)
(0.00109677 0.00139215 0.143831)
(0.000365227 0.00148417 0.126948)
(0.000266728 9.85727e-05 0.134874)
(0.000894921 -0.00139972 0.131419)
(0.000700941 -0.00116003 0.0839701)
(-0.00206809 0.000115032 0.144347)
(-0.00241998 0.00101132 0.142525)
(0.000119948 0.00222949 0.141333)
(0.000267116 0.00213179 0.136772)
(0.00570571 0.00134506 0.0497425)
(-0.00823555 0.00343763 0.0387752)
(0.00154802 0.00156724 0.140141)
(0.00328457 -0.00069255 0.137543)
(-0.00230064 0.00406383 0.136494)
(-0.0058207 -0.0022171 0.0602019)
(0.000214576 0.00347571 0.129962)
(-0.000589599 0.00776777 0.14487)
(-0.00282788 0.00226729 0.129137)
(0.00146586 -0.00014989 0.137599)
(-0.000687529 0.000325615 0.133856)
(0.00128408 -0.00269894 0.135702)
(0.00142164 -0.00148091 0.138502)
(-0.00421847 0.00300605 0.117457)
(-0.001441 0.000217876 0.129104)
(-0.00162835 -0.00403239 0.0877991)
(0.00360062 0.00421669 0.134871)
(-0.000802263 -0.0024229 0.141321)
(0.00297955 0.00142333 0.131246)
(-6.59282e-05 -0.00222028 0.131057)
(-0.00212601 -0.000634056 0.141686)
(0.00124654 0.00311924 0.136797)
(0.00453863 0.00125047 0.0642963)
(0.00315752 0.00712295 0.0677898)
(-0.00547382 -0.00579809 0.0327933)
(-0.000287821 0.000436417 0.123101)
(0.000742769 -0.000723161 0.137483)
(0.00167192 -0.0010868 0.134732)
(0.000198543 -0.00142224 0.140302)
(0.0020349 -0.00141316 0.0642327)
(0.00155725 -0.000964217 0.0364151)
(-0.00391831 0.00182528 0.141357)
(-0.000660514 -0.00199013 0.132982)
(-0.00134465 0.000699276 0.134124)
(-0.00199212 -0.00157436 0.144357)
(-0.00166604 -0.00249647 0.144283)
(-0.00198897 0.00110225 0.135056)
(-0.000949222 -0.00232723 0.145681)
(-0.00164705 0.00637226 0.043858)
(-0.000478741 0.00365682 0.142815)
(0.00278162 -0.00077791 0.09309)
(-0.0068813 -0.00277142 0.0803653)
(0.00120579 -0.00100584 0.137694)
(-0.00474032 0.00302435 0.142001)
(0.00120844 -0.00354622 0.139698)
(-0.00868682 -0.000951403 0.0341622)
(0.00148947 0.000112526 0.137063)
(-0.00273467 -0.000159695 0.137909)
(0.000240801 -0.000534365 0.127171)
(0.00433759 -0.00113388 0.142801)
(0.00117357 0.00144637 0.128847)
(-0.0022013 0.00212522 0.130047)
(-0.00409008 -0.00114566 0.134676)
(0.00131108 -0.00149228 0.126439)
(-0.00331728 -0.00486972 0.117767)
(0.00159901 0.00359572 0.135799)
(0.00010096 0.0038805 0.140847)
(0.00448969 0.00187892 0.0389324)
(-0.000273119 0.00479355 0.136235)
(-0.00168185 -0.00365559 0.138587)
(-0.00601084 -0.00318569 0.0887698)
(-0.00333085 3.38915e-05 0.125191)
(0.00166697 0.00175678 0.13534)
(0.00128748 0.00180744 0.144299)
(0.00334536 -0.000503212 0.122109)
(-0.00481438 -0.00347423 0.0400293)
(0.00102228 -0.00130829 0.138141)
(-0.00107948 -0.000653012 0.147685)
(0.00147699 -0.000333794 0.145148)
(-0.0022824 0.00542035 0.140267)
(-0.00405621 0.00327566 0.0681049)
(0.00162983 0.00422289 0.139901)
(-0.00788883 -0.00438097 0.0366143)
(-0.00237288 0.00171871 0.130756)
(-0.00900945 -0.000255206 0.102721)
(-0.00303624 0.00228093 0.130076)
(-0.000677134 0.002542 0.0805163)
(-0.00535378 -0.000893709 0.13757)
(-0.004985 0.00505087 0.130957)
(0.00575402 -0.00665637 0.0595391)
(0.000657197 -9.68133e-05 0.129309)
(-0.00184562 0.00381436 0.126159)
(-0.0057902 -0.00173177 0.0392081)
(-0.000942253 0.000532627 0.130941)
(0.000375167 -0.00338083 0.123317)
(0.000132896 -0.000465109 0.0659462)
(0.00383363 0.00697881 0.0985821)
(-0.000875325 0.000533895 0.0919795)
(0.000297206 0.000605944 0.134014)
(0.00589625 -0.000420942 0.129609)
(-0.00141387 0.00221431 0.0430284)
(0.0040735 0.00373304 0.0959073)
(0.00346011 0.00329336 0.09712)
(0.0042443 0.00545938 0.13749)
(0.00501663 -0.00189501 0.129466)
(-0.00827312 -0.0021119 0.0414357)
(-0.000314222 0.00480325 0.142742)
(-0.00433381 0.00248399 0.133566)
(-0.00322296 0.00159514 0.129426)
(-0.00180951 -0.00630866 0.0905256)
(0.0010492 -0.00126641 0.14035)
(0.00355548 -0.00897178 0.0429183)
(-0.000349597 -0.000200909 0.130996)
(-0.000921746 -0.00155128 0.0440548)
(0.0051753 -0.0105421 0.0839908)
(0.00197752 -0.00198531 0.135022)
(0.000334117 0.0046761 0.0903422)
(-0.00890549 0.00542894 0.0350527)
(0.00180108 -0.0092764 0.0626531)
(-0.00278232 0.0104198 0.07689)
(0.00857512 -0.00256189 0.0895178)
(-0.00256872 0.000703044 0.136145)
(-0.00579649 0.00331856 0.0840342)
(0.00226822 -0.000682922 0.104425)
(-0.00727389 -0.00276124 0.129577)
(-0.00242238 0.00243981 0.127409)
(0.00303955 -0.0034079 0.0367818)
(0.00231383 -0.00301041 0.141642)
(-0.00170521 -0.00959706 0.0891212)
(0.000366504 0.00279607 0.137687)
(-0.00167927 -0.000742131 0.0834267)
(-0.00104631 0.00462483 0.128739)
(0.00935442 0.00415168 0.0925935)
(-0.00318814 0.00113754 0.13938)
(0.000840338 -0.000556529 0.12865)
(0.0111761 -0.00692372 0.0729705)
(-0.00106097 -0.00172901 0.143059)
(-0.0055394 0.000484015 0.0437509)
(0.00630164 -0.00103464 0.0356588)
(-0.00186368 0.000528683 0.141752)
(0.00116756 -0.00194176 0.12928)
(0.000898289 -0.0032358 0.13271)
(0.00281439 -0.00772197 0.141523)
(0.00169647 0.00121849 0.134087)
(0.00173519 -0.00747185 0.0920598)
(0.000289619 0.00208845 0.140349)
(0.00530107 0.00206189 0.0770776)
(-0.00184874 8.72842e-05 0.130964)
(0.00117361 0.00546405 0.140406)
(-0.00964291 -0.00882457 0.0460274)
(0.00118877 0.000600264 0.144205)
(0.00144335 -0.00585812 0.0950777)
(0.00538519 0.0103415 0.0435926)
(0.00188386 -0.00215796 0.146432)
(-0.00155649 0.000334612 0.0689833)
(0.00131661 -0.000600785 0.134935)
(-0.00135434 -0.00230159 0.130728)
(-0.000745014 0.00637227 0.134843)
(0.00612509 0.00780172 0.104388)
(-0.000391891 -0.000941575 0.136595)
(-0.000260654 -0.00229021 0.127707)
(-0.000250727 -0.00160575 0.14305)
(0.00148783 -0.00146003 0.143056)
(0.00241207 -0.00118324 0.136416)
(-0.000463793 -0.00223888 0.128975)
(0.00526516 -0.00572905 0.0761485)
(0.00501526 0.00214588 0.0837053)
(-0.000436028 -0.000122673 0.136214)
(0.000837859 0.00226144 0.136601)
(0.00373907 0.00934385 0.0621971)
(-0.00361161 -0.000172049 0.136555)
(-0.00182943 -5.01387e-05 0.143484)
(0.00129443 -0.000641993 0.140567)
(-2.96556e-05 0.000821321 0.135771)
(-0.00345194 -0.00505419 0.139277)
(-0.00537153 0.002941 0.0313838)
(-0.00213437 -0.00133287 0.141337)
(0.00179414 -0.00563055 0.123253)
(5.7871e-05 -0.0013999 0.128935)
(0.00201623 0.00421433 0.132254)
(-0.00758732 -0.00175549 0.0564003)
(-0.0010948 0.00320513 0.132829)
(0.00556049 -0.00231357 0.122672)
(0.00211548 0.00251026 0.145322)
(0.000690084 0.00337958 0.130826)
(0.00145012 -0.00268635 0.142259)
(0.00499882 0.00421511 0.0277907)
(-0.00723082 0.00277145 0.0359396)
(0.00102242 -0.0044236 0.125588)
(-0.00136031 0.00369214 0.126172)
(0.000999687 -2.12961e-05 0.128802)
(-0.000269567 0.00204601 0.130236)
(0.00317373 -0.00287224 0.129059)
(0.000190863 0.00120475 0.135373)
(0.00176977 -0.0042397 0.136055)
(-0.000375914 0.00135242 0.0327871)
(0.00243151 -0.00484509 0.123893)
(-0.00125592 -0.00299293 0.136706)
(-0.00337035 0.00584056 0.0677221)
(-0.00315905 0.0070394 0.0836555)
(0.00263958 0.00168313 0.145451)
(0.0024773 0.00414803 0.141728)
(-0.00324625 -0.00279973 0.147509)
(0.000548307 0.00260487 0.146326)
(-0.00217362 -0.0011953 0.138696)
(-0.00280942 -0.000408923 0.135533)
(0.00157415 -0.000417486 0.136689)
(0.00353513 -0.00140726 0.139359)
(0.000915327 -0.00290797 0.130995)
(0.00325638 -0.00600642 0.132477)
(0.0021638 0.00280535 0.129173)
(0.00318887 0.0112158 0.0700653)
(-0.00201726 0.00338086 0.144109)
(-0.0018866 -0.00185204 0.0623395)
(-0.00675302 -0.00228416 0.101105)
(0.00806834 0.0035546 0.088821)
(-0.00607314 -0.000356298 0.127691)
(0.00149874 -0.00189166 0.142167)
(-0.0119673 -0.00148732 0.126948)
(-0.0016217 -1.86421e-05 0.130888)
(0.000324727 0.000153998 0.145281)
(-0.00333012 0.000858212 0.131681)
(0.00214953 0.000716051 0.132425)
(-0.00459803 -0.00545149 0.0558875)
(-0.00250519 0.000342117 0.101941)
(-0.011212 -0.00051494 0.117579)
(-0.000864387 -0.0032346 0.130684)
(0.00202068 0.00330194 0.130641)
(-0.00462652 -0.00131972 0.136563)
(0.000797619 0.00120713 0.129335)
(-0.000221341 -0.00281656 0.143457)
(-0.00218249 -0.00449695 0.0673909)
(0.00730031 -0.00286926 0.0815597)
(-0.0029911 0.00119737 0.0457438)
(0.0036948 -0.000185494 0.0382325)
(0.00144176 -0.00302541 0.0629293)
(0.00371293 0.00419353 0.139042)
(0.000903046 0.000603845 0.138573)
(-0.00789677 -0.0040559 0.0412716)
(-0.00839869 0.00371521 0.0352871)
(0.00291162 0.00367681 0.135367)
(-0.0111967 -4.6458e-05 0.107749)
(-0.00187615 -6.78569e-05 0.0622203)
(-0.00332035 -0.00268041 0.13828)
(-0.00276413 0.00550486 0.143203)
(-0.000972098 -0.000536985 0.136672)
(0.00483359 0.00604775 0.0670933)
(0.00303422 0.00423239 0.0878714)
(-0.00136437 0.000566728 0.130214)
(0.000112149 0.00310907 0.133377)
(-0.00194902 0.0045726 0.131905)
(-0.00610047 0.0168878 0.0720259)
(-0.00536404 -0.000505546 0.0448444)
(-0.0174002 0.00241299 0.107095)
(-0.00868249 -6.71919e-05 0.0474336)
(-0.00136656 -0.00231779 0.144032)
(-0.0119036 -0.00145746 0.0456275)
(0.000662971 -0.000551304 0.131185)
(0.000432822 -0.000560321 0.132669)
(0.00127179 0.002846 0.149478)
(-0.00453219 0.00357641 0.0683753)
(0.00180823 -0.00861997 0.140792)
(-0.00354264 0.00215093 0.0560111)
(-0.00943457 -0.0011589 0.0550529)
(-0.00170427 -0.00215914 0.13383)
(-0.0076252 -0.00157603 0.0312001)
(0.0018618 -0.00253693 0.134628)
(-0.00325352 -0.00294096 0.0844671)
(0.000657324 0.000909406 0.136801)
(-0.00274166 0.00344476 0.138015)
(0.00772018 0.00125712 0.0424871)
(-0.00300348 -0.00165324 0.0831338)
(-0.000806059 -0.00404197 0.137424)
(-0.00398902 0.00801605 0.0598022)
(-0.00131664 -0.000392482 0.130196)
(-0.00172219 0.00869738 0.0856773)
(0.000725365 -0.00551382 0.132876)
(-0.00181164 0.000939214 0.133344)
(0.00439401 0.00107576 0.0687063)
(-0.00949691 0.000392073 0.0419181)
(0.00284312 -0.00782039 0.0820577)
(-0.0116789 -0.00190525 0.113706)
(0.000369627 0.000830375 0.141408)
(0.00609159 0.00479782 0.0951204)
(0.00145875 -0.00097528 0.127448)
(7.48816e-05 0.00138818 0.050316)
(-0.00167317 0.00130582 0.132475)
(-0.00281226 -0.000180468 0.0475621)
(0.000591461 0.0059159 0.142208)
(0.00238853 0.00259482 0.146571)
(0.00110883 -0.0012478 0.137567)
(-0.00625823 -0.000930771 0.0382531)
(0.000634898 0.00122716 0.147269)
(0.00160021 0.00285025 0.103628)
(0.00184649 0.0041684 0.135384)
(0.00347811 0.00264323 0.082355)
(-0.00864842 -9.40914e-05 0.109761)
(-0.00179655 0.000588071 0.143947)
(-0.00031983 -0.00584027 0.0723374)
(0.000240546 -0.00141524 0.128189)
(-0.0145973 0.00241344 0.111927)
(0.000420726 0.00104537 0.13993)
(-0.00425795 -0.00802924 0.060135)
(-0.00105886 0.00634596 0.0922876)
(0.001023 0.000126658 0.135453)
(-6.59806e-05 0.000983246 0.146101)
(-0.00856422 0.0177514 0.0582615)
(0.000758622 -0.00333308 0.143706)
(0.00626473 -0.0134043 0.0931999)
(-0.00528722 0.00751171 0.0409023)
(0.00159939 -3.46173e-05 0.133632)
(-0.00855172 0.00152862 0.104661)
(0.00164479 -0.00182527 0.143141)
(0.00182442 -3.104e-05 0.135998)
(0.000913511 0.000825071 0.135632)
(0.00111143 0.0015131 0.132884)
(0.000386306 0.00367429 0.155035)
(0.00479527 0.00523575 0.0685116)
(0.00309431 0.013039 0.0805952)
(0.0020264 -0.00117664 0.137095)
(-0.00609862 0.0011794 0.11087)
(0.00156813 -0.00660068 0.136763)
(-0.000950368 0.00159394 0.146561)
(0.0015435 -0.00367957 0.126385)
(-0.000892888 -0.000603149 0.150308)
(-0.00220957 8.74696e-05 0.133748)
(-0.00621605 -0.00145808 0.141961)
(-0.00365803 -0.00251456 0.133864)
(0.000180252 0.0111317 0.0638311)
(-0.00464209 -0.000685455 0.107321)
(-0.004205 -0.00661731 0.0836116)
(0.00168649 0.00229801 0.134715)
(-0.00262187 -0.00104727 0.137631)
(0.00570127 0.000309829 0.136026)
(-0.00803455 0.00340988 0.126967)
(0.00453298 -0.00358953 0.0352599)
(-0.00169439 -0.00468421 0.123543)
(-0.00391059 -0.00042212 0.089707)
(0.000848035 -0.000981721 0.134772)
(-0.00223983 0.00307859 0.133424)
(-0.00623872 -0.00117587 0.106829)
(0.00108511 0.000515576 0.132389)
(0.00333716 0.00497294 0.118113)
(-0.00694991 0.00214391 0.10185)
(-0.00191461 0.00401439 0.137682)
(0.0102226 0.00407721 0.051868)
(-0.000488655 0.00108075 0.13373)
(-0.000292565 0.00453419 0.0942727)
(0.00201185 0.000143126 0.144062)
(0.00868445 0.0045431 0.050578)
(0.00312438 0.00243488 0.144477)
(-0.0023694 -0.000204404 0.102563)
(-0.000960307 0.00129806 0.139694)
(-0.00287677 0.000785815 0.1345)
(0.000489929 0.0038758 0.135841)
(1.99516e-05 -0.0035735 0.150134)
(0.00438493 -0.000945066 0.129669)
(0.000879511 0.00504692 0.0690591)
(-0.000634685 -0.00879577 0.0810397)
(-0.000447212 0.000975117 0.0526302)
(0.00106629 -0.0019951 0.132714)
(-0.000488952 -0.0017221 0.138993)
(-0.000924993 0.00201159 0.135424)
(-0.000546627 0.00404866 0.141903)
(-0.00208925 -0.000748491 0.0317224)
(-0.00281872 -0.00126755 0.134166)
(-0.00123465 -0.000872743 0.129297)
(0.00202412 0.000561928 0.134744)
(0.00237021 -0.00627714 0.142548)
(0.00307 0.00205113 0.133164)
(-0.00324577 -0.00414688 0.129063)
(-3.83808e-05 -9.24813e-06 0.134137)
(-0.00758851 0.00395347 0.0374588)
(0.00093709 0.00381288 0.112051)
(0.00123267 0.00175742 0.132412)
(0.00324832 0.00164831 0.0430202)
(0.000106228 0.00128686 0.072242)
(-0.00546491 -0.00714967 0.0931032)
(-0.00789912 0.00311437 0.0329268)
(0.002429 -0.002265 0.129873)
(0.000174716 0.00260153 0.134189)
(-0.00225902 -0.00313036 0.0862927)
(0.00691344 0.00302642 0.0363863)
(-0.00141518 -0.00370106 0.134804)
(0.00100362 0.00101855 0.0406315)
(-0.0040696 0.00260949 0.134549)
(0.00219839 -0.000517619 0.131743)
(0.00243924 -0.00019992 0.13143)
(-0.000976143 0.00291425 0.132263)
(0.00482242 0.00257109 0.147895)
(0.00132526 -4.07721e-05 0.132226)
(0.00462454 -0.00189677 0.138214)
(0.00321327 0.000385853 0.0734861)
(0.000506151 -0.00165097 0.130597)
(-0.00339335 -0.000502057 0.142874)
(0.00473181 -0.00807824 0.13267)
(-0.00125181 0.00486353 0.125408)
(0.000206209 -0.000121292 0.13469)
(-0.00420074 0.00106534 0.141987)
(-0.00584711 -0.00334668 0.0966252)
(0.000801803 -0.00712759 0.141209)
(-0.000546699 -0.00172066 0.0620306)
(-0.00160348 -0.000109311 0.124632)
(0.00188327 -0.00578382 0.122868)
(-0.000727949 0.001156 0.0995692)
(-0.00357317 -0.00142151 0.14246)
(-0.00985808 0.00177693 0.11178)
(-0.0030081 -6.75405e-05 0.124762)
(-0.00118266 0.00865367 0.0621359)
(0.00539797 -0.00171142 0.0513462)
(0.00503019 0.00661858 0.0835653)
(0.00799922 0.00105979 0.0363381)
(0.00121611 -0.000377579 0.14387)
(0.00150997 0.000234587 0.126705)
(0.00254368 0.0061393 0.138977)
(-0.00681393 -0.00651481 0.113627)
(0.00330002 -4.00071e-05 0.131812)
(0.00216725 -0.000324823 0.129129)
(0.00648529 0.0004751 0.0512489)
(-0.00103627 0.000811461 0.128776)
(-0.00386519 0.00167412 0.125207)
(-0.00377631 -0.00334001 0.0763933)
(0.00912026 0.0034645 0.0411747)
(0.00220665 0.0024511 0.134967)
(-0.00226375 -0.00139909 0.152295)
(-0.00687319 -0.00508356 0.043415)
(0.00133541 -0.00107811 0.139019)
(0.00626274 0.00238684 0.0439563)
(-9.48669e-05 -0.00163961 0.135557)
(-0.000292404 0.00208809 0.134385)
(0.000576117 -0.000294293 0.127603)
(-0.00140126 0.000518666 0.144826)
(-0.00362023 0.00230994 0.134362)
(0.00493653 0.000282487 0.138412)
(-0.000281621 0.0023049 0.13164)
(-0.00862698 0.0029055 0.0339722)
(-0.000548603 0.00572427 0.0594281)
(-0.00933198 0.0012849 0.132944)
(0.00254437 -0.00129209 0.131514)
(-0.00185941 0.00461978 0.0393114)
(-0.00166034 -0.00021844 0.137199)
(-0.00375946 -9.47005e-06 0.133661)
(0.00351452 -0.00329908 0.137658)