/*--------------------------------*- C++ -*----------------------------------*\
| =========                 |                                                 |
| \\      /  F ield         | OpenFOAM: The Open Source CFD Toolbox           |
|  \\    /   O peration     | Version:  2406                                  |
|   \\  /    A nd           | Website:  www.openfoam.com                      |
|    \\/     M anipulation  |                                                 |
\*---------------------------------------------------------------------------*/
FoamFile
{
    version     2.0;
    format      ascii;
    arch        "LSB;label=32;scalar=64";
    class       volScalarField;
    location    "14";
    object      epsilon;
}
// * * * * * * * * * * * * * * * * * * * * * * * * * * * * * * * * * * * * * //

dimensions      [0 2 -3 0 0 0 0];

internalField   nonuniform List<scalar> 
59516
(
0.0341643
0.032602
0.0256776
0.0210256
0.00944932
0.348926
0.0217981
0.0309284
0.0291031
0.0678746
0.00918269
0.0631814
0.0268386
0.208362
0.056508
0.0686457
0.0108115
0.060878
0.0289822
0.0120059
0.0735162
0.0161544
0.0143843
0.0947556
0.014032
0.0511746
0.0900902
0.0840682
0.0534589
0.150306
0.0489807
0.0788141
0.0197413
0.0272493
0.0175935
0.0168009
0.13366
0.06614
0.0385308
0.0138905
0.031605
0.0132276
0.0154093
0.0340836
0.0171447
0.0697452
0.020464
0.0106547
0.013272
0.0127778
0.027692
0.0722535
0.0248703
0.0231131
0.0663
0.0225105
0.0116266
0.0806713
0.0106892
0.0191755
0.0154032
0.124226
0.0112307
0.0113322
0.023408
0.0152917
0.156111
0.0791639
0.0218198
0.0197674
0.0761576
0.0120863
0.107733
0.0171988
0.00978012
0.0126924
0.0108161
0.0158677
0.0699351
0.0128598
0.0873783
0.0147552
0.017885
0.12778
0.0150674
0.0103671
0.0900294
0.0154309
0.0649956
0.0401407
0.0106481
0.0174494
0.010618
0.0182282
0.0122519
0.0109618
0.0174846
0.0699797
0.0638542
0.0156607
0.0732581
0.10984
0.114461
0.063329
0.0201701
0.0154157
0.0924697
0.0312641
0.0330006
0.0520237
0.0229342
0.0681148
0.0545166
0.0346894
0.0134995
0.0364935
0.0585359
0.0195731
0.114272
0.0161332
0.00905736
0.0113895
0.0135954
0.0115088
0.018244
0.0418734
0.107359
0.0178667
0.0884361
0.00981068
0.00930753
0.0285445
0.109036
0.0157834
0.0323199
0.0258411
0.0454334
0.0205126
0.0791842
0.0359707
0.0751194
0.00940138
0.147457
0.0223753
0.010001
0.0168529
0.0180256
0.0278158
0.261336
0.0284575
0.0337173
0.0816123
0.0118027
0.0145785
0.039861
0.15871
0.0252988
0.0259842
0.0451804
0.138713
0.0509468
0.0488404
0.0960383
0.159753
0.0344613
0.0111463
0.0561963
0.00987345
0.132991
0.0183119
0.0440757
0.0734768
0.0491029
0.0181619
0.0694225
0.0199297
0.0113262
0.0143778
0.0493444
0.0906325
0.0161428
0.104487
0.137849
0.0590787
0.00976675
0.0638115
0.0897105
0.128317
0.0242873
0.0357304
0.0195442
0.0670565
0.0124017
0.0616552
0.0143089
0.101089
0.0664207
0.0854611
0.0285785
0.0149118
0.0457519
0.00918575
0.0319473
0.138222
0.0222893
0.0172811
0.00952666
0.0137961
0.138173
0.026991
0.0763398
0.123729
0.016862
0.0650087
0.0265981
0.0111357
0.0172827
0.0139475
0.0671841
0.0136917
0.065779
0.0297422
0.0114549
0.0780714
0.0108541
0.0108718
0.0775332
0.0717119
0.0110905
0.0638252
0.0107592
0.010804
0.00925611
0.089173
0.0942205
0.0886627
0.0608875
0.0324794
0.0134146
0.0721037
0.00921155
0.128128
0.063996
0.116947
0.00964612
0.0399324
0.0157638
0.0488959
0.0112498
0.0310223
0.0123545
0.01762
0.0090792
0.0160899
0.0160335
0.0136766
0.070027
0.0143118
0.0726706
0.0571141
0.0212111
0.0126289
0.0280522
0.010462
0.0353758
0.0660668
0.0129449
0.0398394
0.0641673
0.0730149
0.037153
0.0107395
0.0336148
0.038609
0.0118491
0.0380068
0.109349
0.0127513
0.0904035
0.0765572
0.00948316
0.0177307
0.0971502
0.0249538
0.0231427
0.0111042
0.00962011
0.111137
0.00956078
0.00916488
0.0103588
0.0200882
0.0181738
0.0357685
0.0111619
0.0691407
0.012592
0.0173145
0.00907568
0.0110907
0.0257001
0.0612631
0.113033
0.0702235
0.0128833
0.129046
0.0483502
0.0701565
0.0113264
0.010972
0.0145588
0.0607881
0.0316105
0.0805577
0.0747727
0.0125942
0.0357043
0.0119986
0.0396478
0.0788853
0.0541592
0.0317519
0.010213
0.00919886
0.00911566
0.0130868
0.0391512
0.0212479
0.0112708
0.0128316
0.0124271
0.0597938
0.11195
0.0148971
0.0685849
0.0930132
0.0123166
0.0165881
0.0627268
0.0105431
0.0116267
0.00939701
0.0104001
0.0864567
0.0136686
0.00993414
0.0666385
0.00935373
0.0101878
0.020392
0.0218321
0.0142256
0.0166999
0.0580699
0.11075
0.0789035
0.0349092
0.0644251
0.106884
0.0482437
0.0280551
0.0202275
0.0093313
0.0140186
0.0203741
0.0147573
0.014886
0.0921264
0.0383109
0.0662799
0.0766776
0.0810892
0.0126099
0.0359649
0.0128944
0.127848
0.0215682
0.0817197
0.0116189
0.0775401
0.0547486
0.0297604
0.00913997
0.131107
0.0618605
0.0192505
0.100091
0.0218076
0.0272133
0.0198962
0.0385328
0.0401656
0.012737
0.0815357
0.00929743
0.0367969
0.0522527
0.057139
0.00975476
0.0099921
0.0701011
0.0206864
0.0365403
0.0095223
0.00966679
0.0649428
0.0212609
0.0164218
0.0155944
0.013512
0.104231
0.108389
0.0216629
0.0102288
0.00937614
0.0890767
0.0110536
0.0296189
0.00993269
0.010147
0.00950498
0.0102887
0.0105653
0.0387422
0.00957123
0.0553631
0.0116635
0.0311067
0.0138667
0.0102704
0.0164837
0.0164061
0.0755064
0.090106
0.120896
0.0108604
0.00903756
0.0176498
0.0224834
0.0920968
0.120819
0.027053
0.0144817
0.00993961
0.0140738
0.0190031
0.00901168
0.0190388
0.0882632
0.0235949
0.0642808
0.125053
0.0139741
0.0372408
0.0166546
0.126952
0.0098006
0.00964397
0.00976182
0.041067
0.0140215
0.0105762
0.0229847
0.0093682
0.0389871
0.0108332
0.0155382
0.115456
0.00978145
0.0256094
0.0672855
0.038237
0.0114565
0.0215816
0.0472608
0.113303
0.0102848
0.0218422
0.0129886
0.0223749
0.0826004
0.0177909
0.121906
0.0122781
0.017208
0.0112769
0.0634217
0.0308658
0.0364616
0.0840883
0.00907429
0.0102486
0.135684
0.0122436
0.0092321
0.0829356
0.0542575
0.0597225
0.0140127
0.00965727
0.150057
0.0706317
0.0657299
0.0275078
0.0094566
0.10041
0.0135134
0.0142716
0.0097822
0.114946
0.0116225
0.0925331
0.0122135
0.116965
0.0582794
0.0143067
0.0583023
0.123213
0.0862429
0.0626924
0.0638124
0.0161645
0.0724214
0.0562704
0.0139753
0.0108248
0.0821244
0.0300383
0.0813117
0.0106914
0.0673331
0.0113682
0.0686604
0.0225263
0.0100062
0.0664848
0.010509
0.0840999
0.145554
0.0157676
0.00959496
0.0206621
0.0230582
0.00983978
0.0591374
0.0116899
0.0587255
0.0103201
0.0228109
0.0840265
0.0144274
0.0645839
0.0879225
0.0162525
0.077576
0.0187689
0.00957426
0.0203998
0.0652507
0.0100119
0.0431313
0.00907919
0.00976767
0.00957326
0.00970468
0.0779507
0.0682389
0.00989151
0.012502
0.102591
0.0126838
0.00969312
0.0103223
0.00960483
0.0269703
0.127722
0.0102639
0.0325211
0.0139118
0.0349042
0.0781837
0.00940042
0.0401033
0.0192603
0.00931697
0.0171083
0.148267
0.115979
0.0100754
0.0113526
0.00915511
0.0146287
0.0417721
0.0157201
0.0103338
0.10217
0.00968255
0.0177948
0.0831873
0.0556724
0.0174001
0.0175035
0.0194466
0.0245176
0.0334223
0.00919674
0.0391321
0.0104975
0.0110191
0.00922012
0.0102628
0.0776945
0.0124577
0.10084
0.0996278
0.0574386
0.0116405
0.0194121
0.0340547
0.0107415
0.0106191
0.0143485
0.010837
0.0874037
0.0104874
0.015033
0.00997463
0.0280398
0.0169497
0.0100558
0.0276712
0.0797474
0.0685638
0.0736768
0.133472
0.0819193
0.0199513
0.0179326
0.142325
0.125523
0.00899552
0.0729174
0.0880853
0.0162819
0.0306483
0.0197168
0.0870008
0.0656665
0.027932
0.0109688
0.015066
0.101451
0.0943104
0.0606036
0.095796
0.0194165
0.0934898
0.0331386
0.0098117
0.0103463
0.0765141
0.0337712
0.0897666
0.101381
0.01011
0.139283
0.01154
0.0675386
0.0138354
0.0173181
0.114424
0.0633897
0.0155094
0.0855321
0.0121032
0.0700206
0.0316848
0.00947078
0.0873278
0.109588
0.06761
0.0197992
0.0337865
0.0719281
0.0449471
0.10681
0.00938542
0.0874893
0.0116763
0.0169304
0.0113694
0.134843
0.01574
0.0407858
0.0136844
0.0751899
0.0145949
0.0135122
0.0816519
0.00904608
0.0306526
0.0246339
0.0966418
0.0626719
0.00965228
0.0212786
0.0960752
0.0276323
0.0590306
0.101865
0.0100167
0.0123851
0.0210465
0.0108681
0.0102844
0.0111826
0.0205238
0.0699096
0.0739762
0.00985948
0.012962
0.0270941
0.0214757
0.0498812
0.0161744
0.0123278
0.0352949
0.0330798
0.0909288
0.043337
0.0916892
0.0143104
0.0105841
0.0409718
0.0338896
0.126072
0.048564
0.0689208
0.0103057
0.0101549
0.0130773
0.0126433
0.0492145
0.0162862
0.0192453
0.12234
0.0100965
0.0750014
0.0184083
0.103134
0.0107951
0.0107429
0.0136734
0.0274869
0.0158276
0.0158148
0.00931815
0.081262
0.0621082
0.11145
0.0102466
0.0139912
0.019353
0.0134871
0.178926
0.0350303
0.042219
0.0103984
0.0219493
0.0161572
0.0324108
0.00951996
0.115275
0.0442615
0.014036
0.084907
0.0729158
0.0555762
0.121449
0.0390772
0.011017
0.0557194
0.135954
0.0312899
0.0766125
0.033002
0.0105531
0.00902361
0.0107766
0.0126221
0.0103064
0.0213676
0.0955221
0.0105261
0.0219754
0.0442813
0.0329799
0.0122188
0.0268556
0.0535259
0.0143322
0.0833989
0.0408766
0.0370534
0.0554462
0.0139023
0.0455211
0.023378
0.0947987
0.105467
0.0609901
0.123865
0.0223776
0.0137276
0.022129
0.0391737
0.0190096
0.0149745
0.111709
0.0131662
0.011179
0.0731468
0.119382
0.0271443
0.0298831
0.0958564
0.012738
0.116541
0.0102341
0.0137242
0.0229856
0.0139774
0.0136131
0.0330646
0.00953713
0.169133
0.0918726
0.033942
0.0352729
0.138348
0.0168712
0.0147579
0.0102206
0.0113671
0.0499121
0.0139701
0.00902482
0.0403442
0.0690549
0.0114181
0.0347974
0.0845427
0.0124617
0.0101964
0.013722
0.0379993
0.0212323
0.0311283
0.042665
0.0339423
0.0357266
0.0204046
0.0608259
0.0128188
0.01003
0.00939505
0.017612
0.0294841
0.0229773
0.0878115
0.0610158
0.0229819
0.0178904
0.0197924
0.00926793
0.0150521
0.00912264
0.00936768
0.243049
0.0270203
0.0100494
0.112708
0.0176158
0.0146884
0.111447
0.0142273
0.0100701
0.0331147
0.0102187
0.00928064
0.0105162
0.0581769
0.0107357
0.0752766
0.0285739
0.0107826
0.0939383
0.0678375
0.0626308
0.024505
0.0779938
0.0147867
0.0107804
0.0107637
0.0137354
0.0424782
0.0612397
0.0136918
0.0125151
0.0259423
0.0435105
0.0140477
0.00969889
0.00962789
0.093252
0.00968687
0.0374887
0.0467398
0.092388
0.0635142
0.0415818
0.0103309
0.0716494
0.011565
0.0111613
0.0116149
0.00960824
0.0111982
0.00983619
0.0104478
0.00937473
0.00974792
0.0198268
0.0246122
0.085546
0.0733952
0.0126836
0.0225466
0.0958762
0.0117733
0.0318822
0.00911823
0.00907408
0.00953584
0.0159773
0.0409816
0.00990535
0.130722
0.0366885
0.00960895
0.0770071
0.00991267
0.0855782
0.0456227
0.0121691
0.0501294
0.0809892
0.0118254
0.0134858
0.0153762
0.0831648
0.0104208
0.0862152
0.0386103
0.0543665
0.0610076
0.0350837
0.00915579
0.0582524
0.0142324
0.0116978
0.0295642
0.00933697
0.00912016
0.0268927
0.00912965
0.0105207
0.0513114
0.00924999
0.0631959
0.0893011
0.0111046
0.0128719
0.0701839
0.00995945
0.030762
0.0457725
0.0105926
0.138971
0.0116181
0.0102968
0.028252
0.0954293
0.0678532
0.0368242
0.06712
0.019534
0.0211266
0.0326115
0.130726
0.0287735
0.0113405
0.012924
0.00925099
0.00989978
0.043475
0.0132171
0.00979997
0.0290154
0.0170079
0.0902627
0.0263299
0.0136924
0.00917116
0.0550865
0.0131009
0.0385312
0.0283758
0.109296
0.0261892
0.0437792
0.0837391
0.0243498
0.0774001
0.0126593
0.0308709
0.00974058
0.084303
0.00905104
0.0381169
0.0691635
0.0358932
0.017842
0.109865
0.0123267
0.0147479
0.0682094
0.147235
0.0685334
0.00902732
0.0153501
0.0103537
0.0332143
0.0732815
0.0156607
0.108262
0.031188
0.00971637
0.0157672
0.0686311
0.016893
0.115537
0.0430468
0.0143057
0.00934844
0.0931751
0.0141124
0.0230885
0.0652142
0.0120284
0.0130935
0.0092066
0.0163315
0.0355473
0.0672559
0.0117278
0.0159058
0.114043
0.0816953
0.0640648
0.0111158
0.0374762
0.012176
0.0722572
0.0106823
0.0857192
0.0197164
0.0262453
0.0118443
0.00961644
0.0186083
0.0178362
0.105446
0.097148
0.015569
0.0191471
0.112979
0.091465
0.0117284
0.0152862
0.0123132
0.0328857
0.0184898
0.0118633
0.0109126
0.0585979
0.0427985
0.0550821
0.0161194
0.0437426
0.0918745
0.0891872
0.0102786
0.0300904
0.0381236
0.0122926
0.0124077
0.105926
0.0115408
0.0101591
0.0780258
0.107765
0.0106591
0.00956817
0.104085
0.13875
0.0098745
0.0336421
0.115698
0.0534745
0.00981007
0.0108882
0.0102992
0.0172403
0.0120834
0.105126
0.0878556
0.009774
0.0106736
0.0351584
0.0140793
0.0709492
0.0662412
0.070876
0.0143989
0.143257
0.0148053
0.0178016
0.0373464
0.0644541
0.12411
0.00938116
0.0095303
0.0260406
0.00990644
0.0319135
0.0145649
0.0775804
0.0645335
0.221888
0.0307833
0.0169734
0.0329021
0.0686271
0.0404882
0.0262229
0.0167361
0.0354151
0.0143057
0.0110149
0.0312521
0.0670362
0.0982497
0.0119507
0.104749
0.0257047
0.0230728
0.0426645
0.10673
0.0157479
0.0586383
0.13699
0.114661
0.0196906
0.0097885
0.0214044
0.0207802
0.0449808
0.03014
0.10151
0.0855539
0.0789312
0.00944387
0.0338112
0.0166436
0.0311889
0.0317693
0.0206159
0.115099
0.0251996
0.107607
0.0123215
0.0299417
0.105859
0.00947738
0.0387939
0.0209637
0.0421327
0.0669671
0.118063
0.0149151
0.075436
0.00960332
0.00917326
0.0226768
0.0548729
0.107248
0.0122004
0.0817315
0.0118538
0.0120026
0.010435
0.0732997
0.0127094
0.0121442
0.0133881
0.0123796
0.118708
0.0730767
0.0110935
0.0300932
0.0583957
0.00926897
0.0231498
0.0216129
0.0355841
0.0883996
0.159672
0.0742393
0.0130433
0.0112615
0.023826
0.112162
0.0860394
0.0156492
0.0259035
0.0537832
0.00924376
0.0128236
0.0120054
0.0109283
0.00946217
0.0128361
0.0170199
0.0281141
0.0259221
0.0286446
0.0507837
0.0575481
0.00919338
0.0203715
0.0901351
0.0658083
0.0106756
0.0789071
0.0162383
0.0356688
0.0115834
0.0158564
0.0277402
0.0100234
0.0110171
0.0121557
0.0668498
0.0776424
0.0103531
0.00914438
0.119908
0.0441679
0.0234812
0.0102485
0.0183967
0.135537
0.0327758
0.0183392
0.0446206
0.0103549
0.0267054
0.127646
0.0231125
0.103869
0.0377246
0.132804
0.0136054
0.0153947
0.0102291
0.12348
0.0664246
0.0430161
0.0144184
0.0721174
0.0695781
0.0392057
0.00974935
0.0898243
0.0091682
0.0153042
0.0568705
0.0579144
0.0766301
0.0122532
0.00968578
0.016913
0.0236939
0.0357319
0.0323063
0.0363314
0.104337
0.0988951
0.0840947
0.0392894
0.00920534
0.0900211
0.141184
0.0694303
0.106726
0.013466
0.104513
0.0113465
0.00920921
0.0171848
0.0556666
0.0101557
0.0893714
0.058006
0.00950153
0.0122285
0.0247801
0.00993521
0.0115509
0.117983
0.0214398
0.0138195
0.00993231
0.0391761
0.0137761
0.009917
0.031925
0.0847764
0.103501
0.0316377
0.0095206
0.0966304
0.0453394
0.0121383
0.0834944
0.0944603
0.0352571
0.0701355
0.053907
0.115852
0.0728227
0.0935153
0.123708
0.0829697
0.1306
0.0318512
0.0470329
0.00968254
0.124855
0.0102845
0.0221523
0.0155953
0.0271238
0.0133306
0.0912525
0.0127485
0.0108512
0.0368415
0.00916364
0.0215274
0.153329
0.0251539
0.0428804
0.0899002
0.0950122
0.0183026
0.0389099
0.104206
0.0155704
0.0178002
0.00950963
0.0119299
0.074648
0.0269022
0.0437251
0.0142861
0.0184223
0.0177208
0.0108704
0.0392378
0.0140142
0.0204666
0.0128341
0.0322364
0.0306639
0.0244901
0.041269
0.0095143
0.019379
0.0733616
0.0181553
0.0769826
0.142193
0.0662775
0.0176848
0.0181272
0.00932155
0.0139384
0.0271245
0.047857
0.0286602
0.135391
0.111709
0.0876711
0.0641342
0.0735225
0.0127755
0.0732926
0.0259259
0.105351
0.0959754
0.00918218
0.0667704
0.0125161
0.0215119
0.0110224
0.0855685
0.0749905
0.0233091
0.0155104
0.129567
0.0192322
0.06421
0.0307862
0.00998307
0.0147414
0.0099193
0.0353028
0.0363389
0.0418268
0.0562154
0.0855795
0.0750078
0.107968
0.0306635
0.0107284
0.0484267
0.0619385
0.0364377
0.0157335
0.013891
0.0650806
0.0205854
0.102389
0.0564192
0.0151128
0.0734733
0.0448369
0.0386957
0.0251919
0.0316427
0.0154184
0.0385593
0.0331926
0.0116586
0.0297644
0.0118797
0.108643
0.113899
0.0230056
0.0333115
0.0152141
0.0305679
0.0361218
0.122293
0.0197939
0.0220045
0.0163535
0.0390055
0.0862372
0.0658793
0.07712
0.0243287
0.0568147
0.0315445
0.11558
0.0265607
0.0787246
0.045717
0.0102855
0.0658475
0.015324
0.013231
0.0846747
0.0983677
0.0260046
0.134204
0.0142276
0.0117408
0.0425073
0.015603
0.0346423
0.0256531
0.0935737
0.0307674
0.0245806
0.00915626
0.13603
0.0125256
0.0227007
0.0450553
0.0197187
0.0919524
0.0115959
0.0932928
0.014446
0.0237491
0.0171326
0.0211629
0.0788417
0.109943
0.0098
0.0100828
0.080362
0.0316744
0.0943051
0.0228774
0.062192
0.121628
0.0365169
0.015586
0.0408219
0.0099757
0.0273026
0.0182564
0.0984159
0.00960829
0.088777
0.0482588
0.0103282
0.00975142
0.0218408
0.111482
0.0749223
0.00907265
0.0091727
0.0155523
0.0161338
0.0139512
0.165878
0.0196868
0.0165627
0.0201129
0.0713056
0.0219121
0.0103083
0.0202701
0.0111048
0.00916307
0.062944
0.0142626
0.0765769
0.0135144
0.0382028
0.0197714
0.0144397
0.0114655
0.0101933
0.0882334
0.00904698
0.0647952
0.101827
0.0226693
0.0706683
0.0141582
0.12552
0.06673
0.0741299
0.0458427
0.0223489
0.0930453
0.0930972
0.0178161
0.0364567
0.0102518
0.0337203
0.109216
0.0424118
0.0824566
0.0301245
0.0140459
0.0673012
0.0144733
0.0102715
0.0131798
0.0121169
0.0101743
0.0135223
0.0102807
0.0166248
0.0671199
0.125873
0.0177328
0.127938
0.0252499
0.0247181
0.0449954
0.00939783
0.0230906
0.0827137
0.00916381
0.0741479
0.0364183
0.0573521
0.0208468
0.00929885
0.0479006
0.0332298
0.0794573
0.0231684
0.0256116
0.0412193
0.0173965
0.141728
0.102939
0.0100968
0.022704
0.0110379
0.0328675
0.171751
0.00907761
0.056912
0.00908694
0.0128271
0.0899849
0.0148881
0.0118538
0.0927912
0.0674856
0.00914134
0.0347177
0.11168
0.0150027
0.0648144
0.107458
0.0368201
0.0101425
0.00939788
0.0162471
0.011076
0.0162293
0.0101605
0.0287485
0.0330688
0.0104193
0.0158482
0.118655
0.0858049
0.0242981
0.0114336
0.0263142
0.114842
0.110068
0.0169699
0.0779593
0.0153562
0.0117203
0.00947798
0.0783055
0.0465005
0.010392
0.0269419
0.0147483
0.0187047
0.0607426
0.0957965
0.0107095
0.103145
0.0543554
0.0930259
0.0756207
0.0118449
0.00938773
0.0163435
0.0311034
0.0384664
0.0396169
0.0114958
0.0136703
0.0700267
0.00943032
0.0121979
0.01261
0.104159
0.0236908
0.115241
0.0389549
0.0739413
0.0134962
0.0177482
0.0118939
0.101215
0.0434117
0.0596762
0.129768
0.0148433
0.108239
0.0658318
0.0109549
0.0123865
0.00930278
0.0806911
0.0306834
0.0696248
0.0095955
0.0131118
0.0116416
0.0106166
0.0785258
0.0174731
0.026602
0.00934913
0.0115724
0.0115292
0.0126699
0.00928423
0.122597
0.0779367
0.0273949
0.00916889
0.0167363
0.0803503
0.0103655
0.0613496
0.0244218
0.0181712
0.0430588
0.0522724
0.0621622
0.138297
0.0140378
0.0177547
0.0647808
0.0251428
0.12973
0.0142109
0.00971334
0.115954
0.0253105
0.0222663
0.0121346
0.0996305
0.142443
0.100273
0.055822
0.0593331
0.111865
0.099071
0.145259
0.0433432
0.0119235
0.0177619
0.0129315
0.0228876
0.112771
0.0137061
0.0261536
0.142043
0.129642
0.0933123
0.040291
0.0754152
0.0136177
0.0172165
0.00925903
0.0156094
0.0775198
0.0433632
0.0142101
0.00974422
0.0165113
0.0130415
0.0107911
0.070988
0.0308464
0.015195
0.0122441
0.150965
0.0234678
0.0313199
0.0232701
0.0274556
0.0101983
0.0645288
0.0915246
0.129147
0.035215
0.00905868
0.00923501
0.0133743
0.0597778
0.0314008
0.0710196
0.0362668
0.0117856
0.0766501
0.0621067
0.0104757
0.0157256
0.0138253
0.012391
0.0412455
0.0556621
0.0163168
0.0340428
0.0240322
0.0174116
0.0205496
0.0103718
0.044327
0.0182769
0.124753
0.0936917
0.147012
0.0382576
0.0259882
0.0349066
0.0743684
0.0157349
0.0757155
0.0625059
0.12257
0.026298
0.00993975
0.0113613
0.122895
0.0628714
0.0731472
0.100584
0.0648189
0.0100947
0.00932104
0.0964562
0.0832265
0.0648217
0.00968747
0.00940974
0.0169655
0.0372908
0.0143102
0.0176607
0.0361111
0.0866987
0.00910828
0.0180007
0.0179819
0.0242491
0.0167673
0.0110191
0.0508875
0.0241961
0.0538273
0.0113197
0.0121791
0.0104731
0.136102
0.0106253
0.106521
0.0138545
0.0147341
0.0117806
0.0125214
0.0687435
0.110785
0.0721314
0.0096309
0.00996636
0.0222962
0.0115595
0.102339
0.0382556
0.0126787
0.010523
0.0293385
0.0823997
0.021648
0.0296004
0.0113882
0.0108064
0.0114183
0.0102421
0.0153018
0.0166232
0.0412272
0.0110263
0.0108344
0.0164624
0.0405773
0.0877026
0.111181
0.049015
0.0313221
0.0101857
0.0101174
0.100068
0.0293201
0.0191245
0.0191169
0.0372099
0.0125832
0.0178117
0.0202522
0.00929765
0.0335731
0.020502
0.0702937
0.0288707
0.0177862
0.10896
0.0243975
0.014655
0.0190342
0.0134708
0.00994779
0.110269
0.0117291
0.0439914
0.0109093
0.0477255
0.0110704
0.0230807
0.0389718
0.024874
0.117081
0.0237381
0.0742896
0.0840626
0.0171025
0.109071
0.0104496
0.0129941
0.0103472
0.0746859
0.034428
0.111826
0.0199639
0.0865317
0.0376078
0.0139831
0.012645
0.010445
0.0156266
0.0140464
0.00980646
0.0139329
0.0131676
0.0138947
0.0776285
0.0342454
0.0091866
0.00952144
0.0616322
0.0162723
0.0118962
0.0109199
0.104278
0.019335
0.10196
0.00957873
0.101203
0.0825426
0.0261454
0.0205907
0.0182359
0.0277182
0.0953845
0.0117499
0.0916562
0.0861121
0.01521
0.0667897
0.0419812
0.0216907
0.0133463
0.119485
0.0603484
0.0892385
0.010613
0.0120273
0.0570349
0.0143675
0.0389355
0.0592077
0.0099545
0.0829318
0.0191694
0.0139936
0.0105387
0.0134339
0.0103364
0.0102605
0.0251405
0.00903514
0.0154425
0.0103775
0.0321389
0.0350854
0.00966959
0.0469845
0.0138973
0.0161046
0.0134577
0.0159978
0.00961793
0.0177749
0.0816762
0.0130882
0.00941299
0.0619636
0.0254502
0.00930617
0.149555
0.0131331
0.0108472
0.0377039
0.0223904
0.0676692
0.0292397
0.0107016
0.0144249
0.0379984
0.0611359
0.0631399
0.0226043
0.0784412
0.0831368
0.101723
0.0187289
0.0109676
0.00940194
0.019878
0.0164361
0.017644
0.0591497
0.0296007
0.0100513
0.00958113
0.00906072
0.00912248
0.104376
0.148137
0.125992
0.0531727
0.0134737
0.0101055
0.00962484
0.0401831
0.0145865
0.0117931
0.124777
0.00915212
0.0122951
0.0104376
0.00973912
0.0506557
0.0675104
0.0261526
0.0696637
0.0131317
0.0168789
0.0343931
0.0149208
0.0373546
0.057718
0.0340639
0.00935617
0.0418246
0.0215626
0.0106127
0.0258552
0.0793444
0.0111284
0.0093448
0.0661984
0.0840313
0.0395117
0.0730659
0.010146
0.0250763
0.0714725
0.00944974
0.00951496
0.0115179
0.0227972
0.0118484
0.0139432
0.0125038
0.0170615
0.0419125
0.0160415
0.0524128
0.0465306
0.0671489
0.0101743
0.0269735
0.0117838
0.0185855
0.038318
0.033151
0.120292
0.0326958
0.118715
0.0389982
0.0167957
0.0149033
0.0110526
0.0144093
0.0928856
0.0743582
0.0117096
0.0450471
0.0558163
0.0221623
0.0757313
0.0105713
0.0178667
0.0133763
0.0270844
0.011841
0.0253568
0.013395
0.0872019
0.0106916
0.0908413
0.0923258
0.0563083
0.0203906
0.0258691
0.0092204
0.0901128
0.00941221
0.0147436
0.0342412
0.0450693
0.0407822
0.0816898
0.0624401
0.0796446
0.056519
0.00947463
0.0687865
0.0145086
0.0600031
0.130319
0.0366807
0.0762339
0.150168
0.11688
0.0171935
0.0273548
0.0107762
0.0586535
0.00918929
0.0968296
0.0284203
0.0588947
0.0141127
0.0124823
0.12007
0.0204453
0.012909
0.0133056
0.0187826
0.0218239
0.011129
0.013441
0.0117267
0.0181999
0.0857569
0.0408975
0.0691409
0.0144409
0.102837
0.0400918
0.015483
0.0492204
0.0303307
0.122641
0.0279615
0.0326788
0.0101563
0.0224008
0.0122057
0.0178166
0.0116987
0.0203616
0.00928407
0.065941
0.0647849
0.0145117
0.0121637
0.0188484
0.0152715
0.0122778
0.0146949
0.0159865
0.0893751
0.0150963
0.00932424
0.0992391
0.0231447
0.0933892
0.021035
0.0542232
0.0797925
0.0140596
0.0792577
0.090101
0.11441
0.0987397
0.0854959
0.0109805
0.0226217
0.00978773
0.0207001
0.060495
0.0123929
0.00944001
0.0121107
0.122849
0.0172125
0.0286938
0.0273697
0.0139963
0.0969634
0.0927926
0.0170585
0.0844121
0.00978302
0.0757863
0.0239492
0.0522803
0.00903407
0.00911914
0.0130111
0.0806941
0.112534
0.0878554
0.014024
0.0599254
0.148988
0.0280753
0.03867
0.100893
0.035971
0.0660114
0.0224257
0.0162259
0.0100046
0.0138235
0.16457
0.0309993
0.113931
0.00957828
0.0144868
0.0245423
0.0128268
0.0379148
0.0298613
0.118239
0.0166559
0.0338147
0.00941747
0.00969202
0.0648218
0.147487
0.0111602
0.0127858
0.0101939
0.0556264
0.0181717
0.120886
0.086781
0.0744126
0.0109614
0.0991935
0.0290647
0.140695
0.0708117
0.016753
0.0683141
0.0885507
0.0939502
0.0164833
0.0138561
0.0100275
0.0666256
0.0203946
0.0118819
0.026134
0.0249607
0.0147046
0.0102268
0.0104478
0.126565
0.014652
0.0250555
0.0543047
0.0735011
0.0100017
0.010739
0.035403
0.0154437
0.134136
0.0281628
0.0218767
0.122422
0.0134689
0.0123029
0.0164263
0.0642066
0.0104472
0.0714789
0.00939271
0.0637819
0.11713
0.0104741
0.0122675
0.0571393
0.0165217
0.0117485
0.0114589
0.0102867
0.0634582
0.0935458
0.011254
0.016186
0.0174858
0.0129567
0.0672944
0.0192066
0.0639747
0.0558824
0.0135317
0.00917296
0.0341131
0.0145881
0.024575
0.0861005
0.0800951
0.0104336
0.0136682
0.0702064
0.0967328
0.0432123
0.0165469
0.0168808
0.113057
0.0395858
0.0130043
0.0110046
0.0130572
0.016171
0.0290995
0.0092823
0.016139
0.011671
0.0410684
0.0984331
0.122517
0.0239746
0.0313796
0.0153456
0.0137408
0.0108878
0.0124436
0.010068
0.0124772
0.0142139
0.0109166
0.0343691
0.0131128
0.0128579
0.0374616
0.0123709
0.0358404
0.0970889
0.0248499
0.0193352
0.0204253
0.0234741
0.0207749
0.0394558
0.0710697
0.0170641
0.013313
0.0163113
0.0255289
0.101985
0.0123166
0.0330694
0.116096
0.0175752
0.0918412
0.0251555
0.015025
0.01769
0.0199562
0.0288974
0.0824901
0.11177
0.0972848
0.00954568
0.0735577
0.0137242
0.0123073
0.0766021
0.00901069
0.0368163
0.00985334
0.0251825
0.0254294
0.0482818
0.00899574
0.0109099
0.124682
0.0125594
0.0831735
0.134738
0.0180271
0.0555767
0.0117308
0.012134
0.010161
0.0331582
0.0433963
0.0165596
0.0126756
0.0169736
0.0652011
0.109843
0.0249177
0.0141596
0.0271307
0.0096395
0.0427787
0.037001
0.013442
0.0121165
0.012678
0.0387009
0.0299916
0.0408602
0.0212887
0.0169015
0.028119
0.0322277
0.0857095
0.0158505
0.0181075
0.0143014
0.0110726
0.0172159
0.0102068
0.0784396
0.0241167
0.0481121
0.0652305
0.0144686
0.0449885
0.00949351
0.0109951
0.017185
0.109199
0.033827
0.0150839
0.0109268
0.0609093
0.0121496
0.045337
0.021237
0.0432889
0.0294433
0.015028
0.0129687
0.144551
0.0187958
0.0123922
0.0127981
0.0378187
0.0153037
0.0137081
0.137338
0.00903552
0.0780817
0.0169546
0.0109295
0.012296
0.0255429
0.0364113
0.050141
0.063102
0.0850308
0.011326
0.0116537
0.109189
0.0793772
0.0169182
0.0180406
0.0667182
0.0319342
0.0180827
0.0188559
0.0170306
0.116759
0.0145537
0.0347998
0.0763745
0.0120878
0.0634076
0.0411773
0.108102
0.0771687
0.0426506
0.0672743
0.023714
0.0625976
0.027129
0.0857997
0.113073
0.0244774
0.0994634
0.0614115
0.0174926
0.0980137
0.0155385
0.0632925
0.0531767
0.0651718
0.0103675
0.10041
0.0934441
0.0202301
0.0144117
0.0217147
0.0710413
0.0189818
0.0409925
0.0241595
0.0582848
0.0344758
0.0091502
0.0361287
0.0104986
0.0174116
0.0208508
0.0116605
0.136957
0.0225805
0.0263651
0.0146011
0.105581
0.0261819
0.141006
0.0361575
0.0367857
0.0111831
0.0128
0.028649
0.0153729
0.0213055
0.00950311
0.0128134
0.0433202
0.00914229
0.0542996
0.0138468
0.0199786
0.0595796
0.0160593
0.0560049
0.0114258
0.0150328
0.0573666
0.0206962
0.0243207
0.129027
0.0129413
0.119972
0.0714719
0.0285695
0.0148171
0.0185041
0.0653298
0.0112668
0.0130604
0.0318819
0.0597763
0.0406189
0.0948581
0.0163362
0.0385699
0.0205668
0.0385202
0.00951018
0.0173621
0.0872608
0.0196596
0.00945109
0.0371011
0.13825
0.0552179
0.0167184
0.065289
0.0392227
0.060775
0.0171289
0.0405301
0.0729932
0.069992
0.0101354
0.112229
0.0143345
0.105694
0.011653
0.0338026
0.0145696
0.0878574
0.0169085
0.0105579
0.0121349
0.0107322
0.0338916
0.125222
0.12319
0.0344296
0.137899
0.0137714
0.0854266
0.0106566
0.0161301
0.0230069
0.0121395
0.111866
0.0617502
0.0634696
0.0158553
0.0916994
0.0154949
0.0354087
0.0183686
0.0576413
0.083029
0.0989121
0.014193
0.0677009
0.0127056
0.0232607
0.0240195
0.0661587
0.0671018
0.0256302
0.0329741
0.0745156
0.0102316
0.0130605
0.0431203
0.0351412
0.0177851
0.0141628
0.0124352
0.0105503
0.0106805
0.0332659
0.0423703
0.0107579
0.13721
0.0959186
0.0215639
0.0148401
0.00940386
0.101394
0.0718491
0.00925938
0.0351923
0.00912988
0.0814573
0.00945188
0.0106012
0.0135206
0.0621368
0.0414317
0.104617
0.115289
0.0255802
0.117741
0.022838
0.0509032
0.0237573
0.0201168
0.0124178
0.104798
0.146022
0.0124163
0.0226567
0.0924819
0.0130852
0.0129163
0.0906185
0.120719
0.123996
0.0781579
0.0489111
0.115343
0.0405151
0.00968861
0.0886936
0.113483
0.0249351
0.0141782
0.0112665
0.0164431
0.0353008
0.154226
0.0105845
0.0849968
0.0115973
0.0780202
0.0327612
0.0232894
0.0315845
0.0276378
0.0930693
0.0111712
0.0124997
0.00999748
0.114866
0.0261837
0.064568
0.0339493
0.0529622
0.10498
0.030084
0.0291257
0.0251379
0.0457817
0.0165832
0.0676961
0.0875136
0.0718806
0.0216626
0.0286245
0.0220985
0.0882005
0.0284167
0.111734
0.154569
0.0184056
0.0111132
0.0675658
0.0839352
0.0370122
0.0113467
0.0253812
0.0132622
0.0244735
0.018564
0.0137257
0.0164999
0.00983014
0.0635854
0.127112
0.0223221
0.00944381
0.0106519
0.038206
0.136773
0.036771
0.0117651
0.0635023
0.0338321
0.0261089
0.0343092
0.0112576
0.0151222
0.00958758
0.0943253
0.0213315
0.0118625
0.0154809
0.0114892
0.0270923
0.0671662
0.0111257
0.0354793
0.120603
0.0102017
0.0105336
0.0280958
0.03965
0.0145927
0.0115462
0.0169459
0.00951994
0.0258159
0.0381461
0.0844805
0.0680459
0.012369
0.0224195
0.00934302
0.0189395
0.0753861
0.0865628
0.0761714
0.113086
0.0589565
0.109479
0.0129426
0.111884
0.0218587
0.0431509
0.0101557
0.0896297
0.0140293
0.0793749
0.0132983
0.142174
0.0735759
0.0707299
0.00917471
0.0105744
0.0460337
0.0398357
0.135159
0.107249
0.0104204
0.0222417
0.0234393
0.0104249
0.0103519
0.015943
0.015443
0.0122876
0.0396745
0.0250806
0.0546258
0.0653591
0.121719
0.00992969
0.0567912
0.113602
0.0106577
0.0622017
0.0130249
0.101154
0.0160026
0.0111134
0.0272299
0.0339311
0.0126623
0.0198114
0.111795
0.0138247
0.0103319
0.0778554
0.0799031
0.0159964
0.0258375
0.124793
0.0505606
0.0123134
0.00978325
0.0275587
0.0134559
0.0253148
0.0274918
0.00927024
0.00924127
0.0383211
0.018001
0.0319492
0.0391994
0.0147805
0.0243796
0.122498
0.00935729
0.0251314
0.133019
0.0146115
0.0513677
0.0180798
0.131673
0.0155274
0.0314956
0.0227497
0.0167031
0.0172662
0.0715409
0.0155127
0.0308079
0.0262465
0.106718
0.0153283
0.0390201
0.0104861
0.0215874
0.0735041
0.0887163
0.0200347
0.0875545
0.0546565
0.0285435
0.0914991
0.121214
0.0383032
0.0104015
0.0201138
0.0109044
0.101468
0.0933494
0.110661
0.0118247
0.0749871
0.0281276
0.00950242
0.0403497
0.00985686
0.0132309
0.0115857
0.101474
0.0159817
0.0236316
0.128485
0.0320147
0.169896
0.0150452
0.0206862
0.0976387
0.138277
0.0142262
0.127418
0.00954071
0.0385333
0.092992