/*--------------------------------*- C++ -*----------------------------------*\
| =========                 |                                                 |
| \\      /  F ield         | OpenFOAM: The Open Source CFD Toolbox           |
|  \\    /   O peration     | Version:  2406                                  |
|   \\  /    A nd           | Website:  www.openfoam.com                      |
|    \\/     M anipulation  |                                                 |
\*---------------------------------------------------------------------------*/
FoamFile
{
    version     2.0;
    format      ascii;
    arch        "LSB;label=32;scalar=64";
    class       volScalarField;
    location    "14";
    object      k;
}
// * * * * * * * * * * * * * * * * * * * * * * * * * * * * * * * * * * * * * //

dimensions      [0 2 -2 0 0 0 0];

internalField   nonuniform List<scalar> 
59516
(
0.00547376
0.00618301
0.00594363
0.00707697
0.00903091
0.0174795
0.00648137
0.00553516
0.00577362
0.00776766
0.00880711
0.00646024
0.00545442
0.0146712
0.00674514
0.00673563
0.00845312
0.00670574
0.00570746
0.00783738
0.00850903
0.00718639
0.00740898
0.00908144
0.00759219
0.00636565
0.00874325
0.00919699
0.00685092
0.012113
0.00771
0.00889171
0.00695186
0.00618356
0.00742402
0.00675286
0.010934
0.00656825
0.00547504
0.00759698
0.0053989
0.00775726
0.00722948
0.00630933
0.00707123
0.00690313
0.00625462
0.00840172
0.0086153
0.00818235
0.0091996
0.00807115
0.00568981
0.00597893
0.00838266
0.00627908
0.00835371
0.00872712
0.00850937
0.00714799
0.00761917
0.0118261
0.00839792
0.0082494
0.00643045
0.00771463
0.0144617
0.00831656
0.00756566
0.00682447
0.0113845
0.00824083
0.0112035
0.00706183
0.00863536
0.0078911
0.00842276
0.00728867
0.00801525
0.00828401
0.00854143
0.00795565
0.00731277
0.0116583
0.0078631
0.00836607
0.00849162
0.00693245
0.00670773
0.00569715
0.0085776
0.00736682
0.00828309
0.00743797
0.00828533
0.0089238
0.00756482
0.00676462
0.0068463
0.00738945
0.00848102
0.0118148
0.011952
0.00661706
0.00687394
0.00778408
0.00945679
0.00596866
0.00571406
0.00657553
0.00703296
0.0102602
0.00689282
0.00654731
0.00765931
0.00550447
0.00637414
0.00720612
0.0115324
0.00734963
0.00877567
0.00852158
0.00788034
0.00841794
0.00738001
0.00551129
0.0125813
0.00716602
0.0111191
0.00863067
0.00882625
0.00560196
0.0112716
0.00699923
0.00534002
0.00579766
0.00659018
0.00588597
0.00844569
0.00607987
0.00823168
0.00871361
0.0120094
0.00681632
0.00863857
0.00690931
0.00684032
0.00609105
0.0203232
0.00562681
0.0056376
0.00815633
0.00797538
0.00746979
0.00548658
0.0127361
0.0060721
0.00555124
0.00530493
0.0119543
0.00689707
0.00660699
0.00911966
0.0139621
0.00534023
0.00814628
0.00648624
0.00846526
0.0118846
0.00731707
0.00542052
0.00666826
0.00578881
0.00728651
0.00746014
0.0063745
0.00844447
0.00742548
0.00645426
0.00831299
0.00724119
0.00922982
0.0136835
0.00613215
0.0086787
0.00637118
0.00801293
0.0118006
0.00607487
0.00572452
0.00706871
0.00656854
0.00783722
0.00571297
0.00723451
0.00849817
0.00654959
0.00802069
0.00648898
0.00710472
0.00627249
0.00886505
0.00540082
0.0119945
0.00655252
0.00699925
0.0085211
0.00812805
0.0121123
0.00613271
0.00738671
0.0123565
0.0072531
0.00698819
0.00602963
0.00839404
0.00686528
0.00764571
0.00692272
0.00783375
0.00700218
0.00624764
0.00854174
0.00887699
0.00855492
0.00838777
0.0103529
0.00795356
0.00838882
0.00662372
0.00835849
0.0084649
0.00884499
0.0105348
0.00870088
0.00818276
0.00616002
0.00544875
0.0078841
0.00717163
0.00882678
0.0120964
0.00633397
0.0126386
0.00873075
0.00498026
0.00753621
0.00654592
0.00812061
0.00557582
0.00792463
0.00716219
0.00889693
0.00726099
0.00727684
0.00758429
0.00671119
0.00772412
0.00813425
0.00683439
0.0066705
0.00818372
0.00597835
0.00835877
0.00592467
0.00616007
0.00789535
0.00540315
0.00852831
0.00634552
0.00611089
0.0085433
0.00500197
0.00575288
0.00826685
0.00512635
0.0108662
0.00791617
0.0109893
0.00818953
0.00874951
0.0071075
0.0112446
0.0061476
0.00626671
0.00840447
0.00873095
0.0123282
0.00877281
0.00893491
0.00861806
0.00680759
0.00737638
0.00544851
0.00817025
0.0103101
0.00798981
0.00697272
0.00883366
0.00837406
0.00556536
0.0061527
0.0114676
0.00978944
0.00764116
0.0115824
0.00689441
0.00722893
0.00813713
0.00797468
0.0071666
0.00638476
0.00569315
0.00892693
0.00694833
0.00825615
0.00546834
0.00892473
0.00579103
0.00774775
0.00701313
0.00576695
0.00865912
0.00874196
0.00886162
0.00785686
0.00598471
0.00660169
0.00841921
0.00812971
0.00807886
0.00642203
0.0116313
0.00768857
0.00762799
0.00868561
0.00807542
0.00756009
0.00645414
0.0085148
0.00825679
0.00880462
0.00850951
0.00812519
0.00762456
0.00876005
0.00673269
0.00876784
0.00864865
0.00696471
0.006563
0.00785982
0.00727415
0.00574757
0.00931389
0.00830722
0.00553094
0.0074811
0.0120006
0.00568451
0.00625143
0.00617319
0.00884957
0.00737556
0.00644404
0.00774814
0.00786468
0.00903442
0.00764349
0.00692113
0.00779271
0.00846883
0.00829696
0.00556511
0.00792739
0.0115769
0.00669423
0.00852986
0.00844383
0.00644461
0.00657937
0.00514604
0.00887109
0.0123374
0.00667037
0.00702286
0.0110303
0.00670644
0.00632334
0.00659749
0.00604827
0.00596536
0.00783636
0.00786584
0.0088219
0.00604511
0.00633891
0.00663631
0.00863778
0.00846111
0.00642096
0.00620216
0.00577378
0.00866582
0.00862977
0.00781527
0.00680385
0.00708746
0.00740624
0.0078551
0.0111125
0.0109189
0.00649088
0.0085486
0.00881805
0.00878863
0.00868602
0.00491094
0.00877213
0.0084374
0.00858949
0.00863678
0.00855015
0.00537799
0.00882879
0.00632521
0.00824465
0.00579132
0.0079498
0.00860647
0.00703579
0.00730511
0.00780167
0.00876266
0.011522
0.00859507
0.00870738
0.00705963
0.00657317
0.00818593
0.0121346
0.00620138
0.00771793
0.00864612
0.00755147
0.0065335
0.0087077
0.00644105
0.0109777
0.00628167
0.00682041
0.0126679
0.00785503
0.00557139
0.0072168
0.012221
0.0085913
0.00854897
0.00881459
0.00515069
0.00808658
0.00854452
0.00655095
0.00884683
0.00582112
0.00843005
0.00729636
0.0111958
0.00873815
0.00613855
0.00779351
0.00507785
0.00816132
0.00635999
0.00547687
0.0108071
0.00859478
0.00605018
0.00792101
0.00624838
0.00789866
0.0069829
0.0121484
0.0082025
0.00958689
0.00841334
0.00811716
0.005911
0.00550973
0.00751845
0.00879828
0.00874683
0.01281
0.00808854
0.00889263
0.00890585
0.0062651
0.00624546
0.00777946
0.00874843
0.0143859
0.00661294
0.00622564
0.00606312
0.00878167
0.0108298
0.00756515
0.00777222
0.0086816
0.0137071
0.00796626
0.0102866
0.00791347
0.0120963
0.0059531
0.00800336
0.00641067
0.011809
0.00898397
0.00757165
0.00682318
0.00703007
0.00691356
0.00603615
0.008095
0.00860203
0.0108398
0.00517413
0.0075944
0.00844875
0.00677381
0.00858443
0.0072625
0.00671939
0.00883448
0.00734755
0.00858326
0.009008
0.0122389
0.00732828
0.00877871
0.00690797
0.00648444
0.00848866
0.00725422
0.00802643
0.00640908
0.0088099
0.0063408
0.0107202
0.00729252
0.00808667
0.0109832
0.00711675
0.00771922
0.00697726
0.0087767
0.00626568
0.00628404
0.00846531
0.00550898
0.00876226
0.00857139
0.00864492
0.00879584
0.00799551
0.00694038
0.00862165
0.0081287
0.00944667
0.00811414
0.00846986
0.0083223
0.00855777
0.00565807
0.012013
0.00845583
0.00626935
0.00807995
0.00529884
0.0105139
0.00885234
0.0058546
0.00670578
0.00865949
0.00735993
0.0115408
0.0114493
0.00868297
0.00847325
0.00884807
0.00794736
0.00516095
0.00767149
0.00850596
0.0107944
0.00880773
0.00730465
0.00885641
0.00603217
0.00678464
0.00732643
0.00682827
0.00624189
0.00558829
0.00864898
0.00596368
0.00831618
0.00841945
0.00872026
0.00855093
0.0086807
0.00780492
0.00907879
0.0106478
0.00644509
0.00848439
0.00667579
0.00627743
0.00862399
0.00829093
0.00734898
0.00842015
0.00839187
0.00972704
0.00848588
0.00863385
0.00627854
0.00726212
0.00866735
0.00558749
0.00785755
0.00617104
0.00949129
0.0129351
0.0110363
0.00645945
0.00714228
0.0129452
0.0117955
0.00889073
0.00904238
0.00884481
0.00750371
0.00562606
0.00687812
0.00899617
0.00654649
0.00599279
0.00841913
0.00740607
0.00921385
0.0104592
0.010222
0.0112683
0.00651788
0.0110258
0.00607778
0.0087574
0.00828117
0.00802946
0.00540465
0.00818223
0.0115101
0.00864932
0.0116412
0.00832497
0.00833456
0.00777195
0.00718645
0.0110946
0.00648325
0.00763212
0.00828637
0.00834584
0.00697999
0.00546987
0.00878593
0.00845352
0.0110306
0.00780842
0.00842969
0.00558357
0.00664305
0.00467418
0.00899862
0.00879165
0.0106443
0.00795904
0.00703964
0.00845022
0.0113859
0.00695586
0.0052798
0.00745943
0.00758526
0.00889258
0.00766471
0.00787012
0.00880154
0.00845957
0.00600696
0.00874269
0.00800255
0.0087315
0.00649359
0.00879828
0.0054867
0.00629955
0.0112066
0.00861705
0.00933496
0.00617993
0.00845021
0.00859381
0.00830699
0.00636826
0.00789016
0.00797381
0.00854471
0.00901007
0.00601353
0.00644407
0.00541964
0.00712515
0.00820219
0.00569466
0.00521137
0.00980409
0.00645079
0.00907092
0.00772013
0.00836013
0.00527332
0.00518708
0.011618
0.0055147
0.00714098
0.00867273
0.00860216
0.00920215
0.00804832
0.0052864
0.00962019
0.00678097
0.0128312
0.00862212
0.00666272
0.00712003
0.0122833
0.008439
0.0096412
0.0078765
0.00575186
0.00774013
0.00744174
0.00881539
0.00823712
0.00812243
0.0087102
0.00868967
0.0077172
0.00725558
0.00760894
0.013253
0.00585102
0.00583271
0.00859531
0.00656941
0.00766403
0.00623579
0.00884039
0.0110667
0.00562335
0.00815295
0.0110753
0.00753212
0.00636892
0.0116295
0.00614503
0.00856996
0.00632653
0.0116715
0.00565297
0.00995388
0.00506073
0.00846973
0.0088323
0.00848081
0.00797645
0.00856737
0.00577768
0.00845553
0.00846548
0.00635035
0.00535518
0.00591361
0.00808556
0.00547878
0.00610997
0.00752099
0.00832405
0.00525252
0.00579754
0.00653201
0.00781158
0.00798846
0.00638754
0.00882745
0.0117889
0.00621848
0.0118144
0.00626333
0.00816875
0.00664753
0.00607008
0.00740703
0.00805518
0.0116505
0.00822625
0.00845352
0.00742357
0.0117864
0.0061946
0.00532376
0.0110659
0.00790759
0.0116534
0.00863461
0.00784466
0.00678161
0.00786466
0.00778207
0.00561107
0.00880041
0.0126769
0.00856439
0.00573704
0.00599484
0.0117391
0.00755319
0.00768336
0.00836442
0.00846179
0.00560237
0.0079144
0.00881162
0.00588079
0.00824396
0.00829679
0.00540301
0.00917039
0.00807496
0.0088193
0.00792368
0.00530987
0.00620002
0.00536126
0.00555512
0.00591623
0.00569356
0.00629747
0.00588876
0.00830644
0.00858594
0.00938186
0.00667443
0.00584969
0.00642435
0.00886836
0.00729385
0.00626658
0.00690091
0.00656006
0.0087823
0.00739367
0.00874995
0.00853741
0.0180211
0.00612346
0.00846032
0.0115834
0.00701312
0.00788201
0.00941225
0.00762026
0.00867319
0.00555649
0.00852869
0.00883281
0.00839145
0.00661311
0.0095101
0.00866979
0.00515095
0.00849143
0.0110146
0.00688707
0.00618812
0.00615362
0.00774414
0.00769609
0.00837742
0.00856463
0.00773517
0.00576532
0.00805263
0.00776988
0.00788739
0.00603434
0.00601142
0.0078495
0.00877895
0.00860081
0.00930064
0.00874559
0.00558474
0.00608334
0.00945011
0.00646247
0.00506956
0.00856398
0.00733356
0.00829724
0.00837956
0.00833312
0.00878894
0.00848274
0.00841528
0.00838295
0.00876622
0.00930726
0.00648781
0.00626325
0.00880732
0.00695453
0.00812425
0.00635258
0.00945162
0.00814403
0.00584721
0.00892123
0.00891371
0.00878925
0.00775292
0.00544769
0.00860725
0.0158019
0.0056036
0.00874718
0.00827267
0.00882642
0.00855283
0.00518121
0.00840252
0.00599327
0.00832975
0.00846361
0.0082001
0.00738351
0.00800322
0.00868764
0.00831987
0.00557221
0.00603535
0.00619399
0.00538039
0.0088097
0.00647026
0.00772746
0.00824542
0.00600723
0.00874508
0.0087777
0.00581575
0.00862369
0.00856657
0.00638675
0.00877542
0.00747334
0.00867025
0.00879932
0.00799362
0.0106889
0.00858638
0.00572574
0.00492662
0.00849605
0.013032
0.00804401
0.00860393
0.0059081
0.0114788
0.00872072
0.00590227
0.00778607
0.00668168
0.00646065
0.00560589
0.0113672
0.00527363
0.00832999
0.00814564
0.00893011
0.00874614
0.00590328
0.00793796
0.00858978
0.00561306
0.00729656
0.00889412
0.00632622
0.00797406
0.00881093
0.00594225
0.00797552
0.00520767
0.00591713
0.0111537
0.00655445
0.00573406
0.00852486
0.0066398
0.00873641
0.00817211
0.00540039
0.00865921
0.00938507
0.00875589
0.00589898
0.00637671
0.0053968
0.0072629
0.0110302
0.0081464
0.00766635
0.00618954
0.013394
0.00824426
0.00878218
0.00755814
0.00872433
0.00595721
0.00639126
0.00776017
0.00872536
0.00613522
0.0086967
0.00724909
0.00669115
0.00682182
0.012233
0.00559663
0.00771787
0.00872019
0.00898401
0.00768805
0.00589345
0.00939624
0.00807118
0.00801267
0.00859485
0.00762581
0.00581054
0.00977043
0.00810247
0.00727147
0.0121625
0.00834734
0.00774931
0.00812137
0.00570154
0.00814314
0.00675092
0.00848053
0.0101129
0.00673948
0.00621081
0.00800343
0.00880219
0.00648777
0.00748759
0.0088007
0.00887986
0.00780009
0.00711721
0.0116122
0.0117004
0.00826981
0.00718182
0.0080976
0.00559078
0.00698849
0.00775771
0.00850562
0.00672909
0.00630799
0.00612594
0.00710995
0.00524667
0.00868649
0.0112695
0.00851008
0.00568838
0.00528831
0.00823096
0.00806632
0.00830228
0.00814203
0.00859584
0.00884417
0.0122298
0.00854331
0.00852137
0.00922102
0.0115647
0.00864273
0.00581934
0.0123287
0.0054319
0.00866048
0.00822064
0.00859611
0.00686114
0.00804052
0.0112174
0.0079189
0.00870018
0.00856455
0.00559539
0.00798626
0.00651087
0.00666837
0.00803188
0.00745855
0.0133166
0.00745142
0.00657141
0.00540827
0.00739608
0.0122231
0.00875349
0.00866221
0.00601257
0.00846176
0.00590181
0.00724111
0.00864698
0.00747077
0.0180031
0.00542553
0.00728671
0.00520999
0.00617328
0.00583178
0.00588216
0.00733209
0.0052851
0.00779237
0.00831482
0.00599706
0.0066411
0.0114839
0.00836327
0.0089805
0.00629775
0.00632574
0.00577309
0.0108807
0.0072029
0.00642741
0.0113562
0.0113809
0.00699156
0.008589
0.00671083
0.00685345
0.00553886
0.00556383
0.00911179
0.00839325
0.00868599
0.00866163
0.00525
0.00722506
0.00584863
0.00571943
0.00694698
0.0128122
0.00621642
0.0106253
0.00820149
0.00570409
0.0107895
0.00872903
0.00565008
0.0065225
0.00549407
0.00565516
0.00892218
0.00717693
0.0085734
0.00881228
0.00893324
0.00683287
0.00533471
0.0089828
0.00798477
0.00856172
0.00827782
0.00821736
0.00850481
0.00725366
0.00799412
0.00825163
0.00793732
0.00811448
0.00943297
0.00835336
0.00836114
0.00531967
0.00667342
0.00881775
0.00649884
0.00676885
0.00543467
0.0115678
0.0142002
0.00691974
0.00802693
0.00825391
0.00667993
0.0110745
0.00836929
0.00738313
0.00647346
0.00664493
0.00885964
0.00802774
0.00814087
0.00843732
0.00872077
0.00787465
0.00701052
0.0065185
0.00614986
0.00588724
0.00511786
0.00576627
0.00878086
0.00711459
0.00905987
0.00629966
0.0083885
0.00685622
0.00732474
0.00539574
0.00826632
0.00750948
0.0058633
0.00847136
0.00818154
0.0079812
0.00743332
0.0109467
0.00860998
0.00872284
0.0118835
0.00558291
0.00645777
0.00864911
0.00703513
0.0118795
0.005967
0.00730768
0.00549048
0.00835746
0.00582796
0.0125724
0.00616205
0.0110703
0.0049503
0.0118022
0.00767153
0.00736598
0.00856105
0.0121767
0.00701889
0.00490621
0.00748048
0.00645822
0.00681416
0.00538654
0.00882017
0.00889713
0.0086458
0.00706759
0.0065087
0.00649006
0.0102041
0.00791836
0.0085311
0.00714393
0.00650507
0.00549511
0.00531313
0.00543409
0.0111215
0.00869334
0.0106415
0.00581362
0.0088824
0.00821642
0.0113321
0.00656177
0.0117925
0.00812973
0.0118757
0.0081181
0.00894839
0.00703727
0.00655949
0.00878031
0.00836502
0.00695327
0.00867735
0.00789873
0.00618247
0.00952783
0.00831366
0.0118081
0.00654629
0.00813715
0.00884515
0.00567658
0.00780925
0.00851122
0.00602289
0.0071974
0.00885892
0.00592024
0.00875485
0.00895532
0.00572825
0.00777884
0.00868123
0.0114561
0.00570089
0.00685227
0.006818
0.0112788
0.00630314
0.00899768
0.0112817
0.00834209
0.0125538
0.00556569
0.00524087
0.00868235
0.0113815
0.00853585
0.00650036
0.00737198
0.00553273
0.00835778
0.00850681
0.00790373
0.00941869
0.00558087
0.00886298
0.00642012
0.0118437
0.00644073
0.00551302
0.011546
0.00852623
0.00689719
0.00567814
0.0106686
0.0078186
0.00735343
0.008793
0.00830058
0.0083765
0.00596478
0.00591527
0.00770351
0.00698521
0.00678105
0.00848287
0.00545428
0.00780886
0.00666377
0.00788237
0.00543046
0.00568463
0.00593833
0.00568678
0.00888565
0.00721363
0.00935022
0.0067366
0.00969414
0.0144967
0.00696367
0.00692036
0.00729703
0.00875211
0.00791044
0.00629465
0.00538923
0.00556797
0.0127658
0.0122293
0.0118814
0.00669829
0.0110046
0.00779417
0.00841714
0.00630621
0.00888536
0.0107725
0.00887921
0.00633357
0.00838469
0.00610577
0.00843725
0.00855538
0.00865336
0.00626681
0.00771288
0.0125908
0.00632374
0.00662096
0.00620476
0.00863605
0.00738755
0.0086726
0.00540285
0.00541648
0.00593985
0.007504
0.00777386
0.00726959
0.00903265
0.00557257
0.00865523
0.00685469
0.00662176
0.00485604
0.00717438
0.00805107
0.0062659
0.00652567
0.0106124
0.00721313
0.00760953
0.00849526
0.00526183
0.00578885
0.00607414
0.00544147
0.00755563
0.00542412
0.0059022
0.00833844
0.00575711
0.00824096
0.0110885
0.0104656
0.00653759
0.00522229
0.00737237
0.00636981
0.00558656
0.010977
0.00704522
0.00615979
0.0074836
0.00519197
0.00908813
0.00668847
0.00742459
0.00632402
0.00619517
0.00574317
0.0114654
0.00598101
0.00857685
0.00550198
0.00864596
0.00679006
0.00727094
0.00794545
0.00847584
0.0105755
0.00614252
0.0131489
0.00769751
0.00833302
0.00557003
0.00799805
0.00556274
0.00596886
0.0108048
0.00568515
0.00583432
0.00877156
0.0113036
0.00822702
0.00627853
0.00560809
0.00648613
0.00851522
0.00848943
0.0105379
0.007867
0.00602018
0.00711832
0.00614359
0.0081245
0.0114153
0.00880924
0.00855997
0.00832252
0.00569158
0.00844309
0.0058564
0.00694464
0.0113865
0.0053676
0.00752776
0.00550271
0.0084221
0.0058308
0.00659622
0.0091006
0.00860783
0.0108558
0.00591283
0.00842331
0.00862008
0.00693085
0.0122874
0.0081825
0.00895059
0.00895335
0.0080956
0.00706221
0.00823427
0.0127982
0.00632426
0.0078715
0.00671517
0.00732104
0.0062108
0.00858534
0.00717695
0.00838418
0.00893568
0.00630986
0.00746149
0.00823603
0.00812092
0.00579592
0.00741624
0.00777575
0.00817266
0.00848317
0.00871201
0.00883614
0.00665288
0.0112783
0.00661991
0.00836341
0.00772856
0.0116287
0.0081366
0.00663032
0.00630742
0.00689589
0.00800949
0.010668
0.00708894
0.00610688
0.00856847
0.00558802
0.0110526
0.00560753
0.00871726
0.00575939
0.00803558
0.00646786
0.00797318
0.00859213
0.00803234
0.0082125
0.00862511
0.00791444
0.0085412
0.00689669
0.0101878
0.0120072
0.00690703
0.0125303
0.00545244
0.00581264
0.00530239
0.00875326
0.0062559
0.00874414
0.0086799
0.00637508
0.00539091
0.0075286
0.00631349
0.00874198
0.00548339
0.00591456
0.00823682
0.0066707
0.00576479
0.00543262
0.00742947
0.0120484
0.0114047
0.00852012
0.00628958
0.00839104
0.00597351
0.0138405
0.00891804
0.00617339
0.00871913
0.00816564
0.00863562
0.00734075
0.00823165
0.00901591
0.0103068
0.00882665
0.00595755
0.0112681
0.0075106
0.00791631
0.011746
0.00594548
0.00852898
0.00884072
0.00745657
0.00843262
0.0071506
0.00844083
0.00579904
0.00562829
0.00854593
0.00753318
0.0110332
0.00864987
0.00603982
0.00828112
0.00599932
0.0117737
0.0119914
0.00711975
0.0102437
0.00740029
0.00808007
0.00861348
0.00830485
0.00652604
0.0083951
0.00637168
0.00760059
0.00694742
0.00622241
0.0116456
0.00844047
0.0120588
0.00739055
0.00840496
0.00802653
0.00819059
0.00887201
0.00744343
0.0057145
0.00534503
0.00573963
0.00824344
0.0082264
0.00659025
0.00863156
0.00833944
0.00797782
0.00835918
0.00647907
0.0122741
0.00559934
0.00809539
0.00796408
0.0071039
0.00958035
0.0109668
0.00512192
0.0071076
0.0113437
0.00757564
0.0110395
0.00656652
0.00837025
0.00805951
0.00876873
0.00788882
0.00537607
0.0065775
0.00873778
0.00800099
0.00799724
0.00838162
0.00806102
0.00710008
0.00583639
0.00885122
0.00839641
0.00811324
0.00790371
0.00887705
0.0113747
0.00788422
0.00565844
0.00877358
0.00714079
0.00791079
0.00844858
0.00614378
0.00583043
0.00655584
0.00547792
0.0065246
0.00629182
0.0116679
0.0075118
0.00662793
0.00660311
0.00621937
0.0112387
0.0077227
0.00850579
0.0120869
0.00569684
0.00616962
0.00812787
0.0107624
0.0132587
0.00975004
0.00676522
0.00604632
0.012148
0.0115957
0.0135833
0.00540623
0.00823938
0.0075568
0.00801953
0.00666029
0.011454
0.00751653
0.00634362
0.0118221
0.0112952
0.0112442
0.00622141
0.010537
0.00780531
0.00751339
0.00875896
0.00733727
0.00777675
0.00499642
0.00764716
0.00880308
0.00722871
0.00781776
0.00855373
0.0067443
0.00564975
0.00736407
0.0080748
0.0111485
0.00605613
0.00564764
0.00588212
0.0055196
0.00844326
0.00615924
0.00828629
0.0126324
0.00523418
0.00885785
0.00870622
0.00793332
0.00764612
0.00516347
0.00680679
0.00533814
0.00826708
0.00752832
0.0079753
0.00846681
0.00781009
0.00777686
0.00822617
0.00618172
0.00597797
0.00741331
0.00573296
0.00617142
0.00710177
0.00689205
0.0087583
0.00500537
0.00687144
0.0114816
0.00773497
0.0133536
0.00500862
0.00611556
0.00582269
0.00618333
0.00694239
0.00751735
0.00621265
0.0111459
0.00604729
0.00851524
0.00843414
0.0112399
0.00743886
0.00712859
0.0107595
0.00790367
0.00851894
0.00875514
0.0108437
0.00843149
0.00643678
0.00883091
0.00866165
0.00725466
0.00541789
0.00757817
0.00674391
0.00564308
0.0083133
0.00864219
0.00694383
0.00715265
0.00605965
0.0074087
0.00842982
0.00624035
0.00626307
0.00703742
0.00823146
0.00786279
0.00855873
0.0117747
0.00853311
0.0111059
0.00735958
0.00753014
0.00810833
0.00805952
0.00646977
0.0118987
0.00691551
0.00889991
0.00856197
0.00684033
0.00818312
0.00925569
0.00584727
0.00800806
0.00836175
0.00581099
0.0116762
0.00627419
0.0054425
0.00799222
0.00851883
0.00845989
0.00832824
0.0074027
0.00716086
0.0052529
0.00846435
0.00841746
0.00735231
0.00609623
0.0108915
0.0109714
0.00552366
0.00548798
0.00845428
0.00860166
0.0112876
0.00597245
0.0067694
0.00675739
0.00573538
0.00790063
0.00713972
0.00698149
0.00863125
0.00545516
0.00649432
0.00763003
0.00601654
0.00716482
0.0113126
0.00616886
0.00753029
0.00686255
0.00774462
0.00865369
0.00909244
0.00820644
0.00584205
0.00816965
0.00515689
0.00837791
0.00588844
0.00569935
0.00591456
0.0115681
0.00572248
0.00797577
0.00863218
0.00711619
0.0112506
0.00853937
0.00783566
0.00843302
0.00634533
0.00585517
0.0110281
0.00662398
0.00796847
0.00542322
0.00766617
0.00776819
0.00842802
0.00752654
0.00778064
0.00871787
0.00804326
0.00807883
0.00804369
0.00860933
0.00614088
0.00875038
0.00857192
0.00670453
0.00739317
0.00821554
0.00844422
0.0107074
0.00716612
0.0112439
0.00870917
0.0113178
0.00769704
0.00610325
0.00663732
0.00721359
0.00568906
0.0102753
0.00838409
0.010954
0.0100817
0.00740531
0.00682411
0.00533779
0.00649472
0.00782562
0.0115658
0.00637412
0.00840332
0.00847242
0.00832469
0.00622534
0.00748378
0.00556776
0.00631965
0.00860999
0.010785
0.00691441
0.00797732
0.00875573
0.00749426
0.00853621
0.00844777
0.00602692
0.00871873
0.00729533
0.00853254
0.0062768
0.00609098
0.00855832
0.00587033
0.00796352
0.0074732
0.00814944
0.00776683
0.0087255
0.00733309
0.0085751
0.00813164
0.00872701
0.00601377
0.00610945
0.00875195
0.0134049
0.00810892
0.00854543
0.00547551
0.00616333
0.00800896
0.00549243
0.00826071
0.00806668
0.00575439
0.00636464
0.00660102
0.00636157
0.008157
0.0082778
0.0125331
0.0067489
0.00824819
0.0087146
0.00683962
0.00716338
0.00748233
0.00739363
0.00556251
0.00848546
0.0086569
0.00879127
0.00894416
0.00911637
0.0124712
0.0117065
0.00589722
0.0081562
0.00868694
0.00858575
0.00568797
0.0078125
0.00842992
0.0120003
0.00892553
0.00821305
0.00829492
0.00874989
0.0066537
0.00728046
0.00575071
0.0079457
0.00769388
0.00726495
0.00588317
0.00762318
0.00536535
0.00582226
0.00553121
0.00873557
0.00536218
0.00631153
0.00845364
0.00641528
0.00832296
0.0083434
0.00877245
0.00657494
0.0089236
0.00529479
0.00860554
0.008585
0.00691183
0.00791191
0.0088544
0.00867751
0.00813986
0.00653558
0.00847574
0.00787875
0.00820967
0.00719647
0.00575349
0.00769102
0.00638727
0.00538176
0.00672258
0.00860514
0.00600894
0.00851296
0.006931
0.00555448
0.00586365
0.0114501
0.00608873
0.0112511
0.00579308
0.00735509
0.00717477
0.00833849
0.00769378
0.0085476
0.00883001
0.0080702
0.00481708
0.00698661
0.00635747
0.00818872
0.00837146
0.00633346
0.00774436
0.00594595
0.00804733
0.00600633
0.00804891
0.00817122
0.0085334
0.00894551
0.00857214
0.00653736
0.00655621
0.00644536
0.00878564
0.00882215
0.00875296
0.00745923
0.00600769
0.00548915
0.00551651
0.00802788
0.00737463
0.00843283
0.00636843
0.00859469
0.00673626
0.00799034
0.00616725
0.0108379
0.00531232
0.00780134
0.0129445
0.0116056
0.0075347
0.00574083
0.00849949
0.00648647
0.00871951
0.009694
0.00573632
0.0058248
0.00781907
0.00814947
0.0119367
0.00670443
0.00814685
0.00820189
0.0072505
0.00643771
0.00835108
0.00793673
0.00826306
0.00691452
0.0117069
0.00553696
0.00658677
0.00754993
0.00902749
0.00567031
0.00731851
0.00572705
0.00510698
0.0106947
0.00630676
0.00595841
0.00849202
0.0070023
0.00768973
0.00703385
0.00791546
0.00640887
0.00865239
0.00658167
0.00652307
0.00735873
0.00826649
0.00709161
0.00756562
0.00814344
0.0078827
0.00700302
0.00853322
0.00716627
0.00889317
0.00955603
0.00600188
0.00982378
0.00685494
0.00604253
0.0081861
0.00752695
0.00778081
0.0111439
0.0110448
0.00891004
0.00817357
0.00833762
0.00620489
0.00856333
0.00619961
0.00676313
0.00814364
0.00870418
0.00799835
0.011913
0.00672906
0.00529031
0.00553086
0.00773944
0.0107912
0.00832526
0.00680201
0.0111735
0.00871155
0.00852314
0.00639598
0.00574029
0.00883359
0.00882914
0.00814039
0.00851118
0.0108133
0.00875627
0.00724208
0.00615107
0.011365
0.00609477
0.00549146
0.0112114
0.00547259
0.0102451
0.0062312
0.00707541
0.00872532
0.00796205
0.0135778
0.00562565
0.00845285
0.00857116
0.00766292
0.00623056
0.00806583
0.00558283
0.00566334
0.0097112
0.00738745
0.00557226
0.00886726
0.00861031
0.00652558
0.0122
0.0082212
0.00796716
0.00860799
0.00607151
0.00714374
0.0128087
0.0117148
0.0080994
0.00857
0.00915886
0.00562339
0.0123943
0.00830053
0.00766159
0.0064518
0.00838674
0.00890622
0.00719197
0.00800567
0.00870944
0.0062802
0.00706869
0.00797668
0.00578888
0.00590073
0.00796382
0.00864938
0.00852676
0.012637
0.00768504
0.00584787
0.0066257
0.00981057
0.00858581
0.00840281
0.00559257
0.0078182
0.0123201
0.00574051
0.00642011
0.0119831
0.00772938
0.00801643
0.00724851
0.00773244
0.00839207
0.00785464
0.00861042
0.00634823
0.0110799
0.00820416
0.00813658
0.00631089
0.00730682
0.00816999
0.00815418
0.00848078
0.00689702
0.0109876
0.00823453
0.00726504
0.006911
0.00812496
0.00663998
0.00671886
0.00697298
0.00619945
0.00759289
0.00898317
0.00532431
0.00793097
0.00670377
0.00859694
0.00741823
0.0081261
0.00767344
0.00772415
0.00917623
0.00556103
0.00715795
0.00735779
0.0113405
0.00531557
0.00816557
0.00837942
0.0076447
0.00728285
0.00593552
0.00882787
0.00690063
0.00826681
0.00557158
0.0116336
0.0126162
0.00630205
0.00557005
0.00772662
0.00788882
0.00844318
0.00800235
0.00865408
0.00813033
0.00771022
0.00847986
0.00608517
0.00799092
0.00799726
0.00566261
0.00829714
0.00522913
0.0106431
0.00604022
0.00715492
0.00673769
0.00590559
0.00646181
0.00563911
0.00834038
0.00697509
0.00791272
0.00741563
0.00570521
0.0082894
0.00825819
0.00526606
0.0128892
0.00705125
0.00870049
0.00605931
0.00756424
0.00701845
0.00666867
0.00509965
0.00809809
0.0117661
0.012771
0.00862259
0.00837411
0.00767877
0.00808665
0.00808174
0.00876581
0.00523095
0.00834747
0.00624654
0.00633819
0.00546317
0.00873402
0.00817942
0.0114231
0.00803518
0.00842794
0.0119876
0.00738947
0.00583048
0.00809557
0.00812005
0.00844892
0.00581625
0.0053123
0.00755052
0.00796967
0.00711853
0.00717185
0.0101497
0.00649685
0.00748414
0.00613814
0.00869278
0.00516042
0.00563489
0.00755961
0.00802857
0.00783485
0.00568708
0.00556507
0.00606943
0.00610634
0.00705225
0.00587308
0.0056123
0.00888932
0.00717932
0.00676049
0.00732657
0.00847148
0.00685057
0.00832145
0.00823692
0.00593033
0.00632286
0.00719952
0.00750995
0.00501943
0.00874993
0.00847277
0.0067053
0.0109249
0.00526728
0.00780642
0.00837729
0.00601238
0.00820856
0.00568306
0.0059358
0.00568926
0.00579292
0.00708789
0.00775345
0.0124471
0.00689408
0.00780879
0.00812707
0.00568463
0.00736049
0.0077596
0.0127989
0.00879838
0.00817419
0.00672863
0.00834739
0.00801951
0.00644764
0.00557188
0.0056107
0.00798837
0.0108099
0.00830138
0.00807067
0.0105263
0.00814746
0.00692704
0.00717802
0.00703622
0.00526619
0.00655056
0.0065899
0.00708607
0.0112431
0.00745963
0.00553203
0.00839867
0.00796868
0.00628659
0.00534801
0.0111593
0.00900321
0.00518959
0.00647236
0.00623901
0.00690194
0.00651224
0.00852583
0.00941253
0.00594579
0.0107749
0.00718479
0.00689707
0.0109351
0.00726647
0.00737295
0.00640673
0.0071079
0.00857318
0.00912237
0.0089638
0.00661021
0.00773612
0.00648944
0.00678145
0.00734062
0.00515867
0.00632874
0.00632871
0.00570163
0.00873298
0.00533584
0.00845473
0.00765425
0.00607993
0.00821231
0.0133321
0.00635254
0.00593833
0.00768411
0.00938169
0.00551528
0.0123502
0.00592005
0.0059315
0.00837017
0.00808774
0.0051154
0.00760553
0.00877004
0.00861514
0.0080315
0.00542035
0.00878426
0.00634471
0.00770348
0.00688386
0.00625638
0.0080106
0.0063515
0.00821364
0.00803357
0.00602987
0.00665144
0.00596097
0.0117033
0.00784179
0.0122719
0.00792023
0.00579099
0.00778467
0.00670494
0.00965369
0.00826062
0.00792922
0.00551128
0.00606035
0.00566097
0.00881816
0.00737424
0.00542931
0.00670353
0.00546082
0.00878337
0.00727189
0.0112062
0.00691872
0.00883213
0.00557497
0.0111811
0.00729561
0.00730698
0.00654869
0.00509443
0.00619476
0.00732948
0.00523666
0.00703319
0.00779435
0.00865969
0.0120608
0.00775688
0.00982252
0.00821262
0.00551865
0.00757805
0.00812142
0.00727306
0.00827914
0.00808535
0.00852578
0.00601425
0.0119698
0.0113226
0.00712286
0.0110835
0.00779512
0.00848556
0.00832507
0.00683152
0.00638036
0.0084203
0.00955064
0.00704416
0.0068053
0.00715881
0.00854701
0.0077135
0.00487402
0.00687247
0.00596572
0.0079901
0.00913113
0.00754622
0.00689948
0.0078209
0.00608971
0.00646932
0.00795043
0.00796766
0.0049644
0.00596372
0.00689821
0.00861521
0.00815724
0.00520946
0.00508223
0.00708571
0.00757017
0.00809238
0.00839022
0.00860965
0.00551494
0.00602026
0.00862743
0.0110946
0.00856423
0.00659964
0.00761025
0.0087758
0.00837767
0.00803838
0.00874618
0.00551497
0.00870177
0.0084085
0.00871875
0.00840603
0.00826654
0.00638288
0.00537818
0.00880456
0.0110076
0.00603176
0.0112384
0.00665893