/*--------------------------------*- C++ -*----------------------------------*\
| =========                 |                                                 |
| \\      /  F ield         | OpenFOAM: The Open Source CFD Toolbox           |
|  \\    /   O peration     | Version:  2406                                  |
|   \\  /    A nd           | Website:  www.openfoam.com                      |
|    \\/     M anipulation  |                                                 |
\*---------------------------------------------------------------------------*/
FoamFile
{
    version     2.0;
    format      ascii;
    arch        "LSB;label=32;scalar=64";
    class       volVectorField;
    location    "14";
    object      momentum:angularMomentum;
}
// * * * * * * * * * * * * * * * * * * * * * * * * * * * * * * * * * * * * * //

dimensions      [1 1 -1 0 0 0 0];

internalField   nonuniform List<vector> 
59516
(
(-6.7846e-09 -2.2823e-09 2.75627e-07)
(4.86794e-09 -4.221e-09 1.93471e-07)
(1.53283e-10 3.03421e-10 2.26058e-07)
(-3.50004e-09 1.62875e-09 1.74881e-07)
(-5.97277e-09 -2.24168e-09 1.99326e-07)
(-5.12181e-09 2.72404e-09 5.03216e-08)
(6.4161e-10 -3.19182e-09 2.31204e-07)
(-5.01092e-10 -7.29792e-09 2.41565e-07)
(-1.28982e-09 -2.67525e-10 1.71292e-07)
(-5.42339e-11 -3.0314e-09 1.11476e-07)
(-2.38666e-11 -1.97553e-09 1.80218e-07)
(-3.21862e-09 -1.02876e-08 1.41181e-07)
(3.15529e-09 -3.062e-10 3.82262e-07)
(-8.7646e-11 -7.50358e-10 2.60106e-08)
(3.68242e-09 -7.5868e-10 2.26647e-07)
(1.12704e-09 6.02679e-10 1.14951e-07)
(-7.02315e-11 -1.01204e-09 2.21963e-07)
(-9.83761e-09 4.5424e-10 2.01043e-07)
(1.07795e-08 -4.25201e-09 3.7579e-07)
(-2.50557e-09 8.3907e-10 3.20664e-07)
(4.23544e-09 1.81311e-09 1.40501e-07)
(2.94378e-09 -1.7688e-09 3.09216e-07)
(8.95228e-10 -1.33705e-09 3.27882e-07)
(4.27411e-10 1.87838e-09 5.37105e-08)
(4.57822e-10 3.89979e-09 2.78286e-07)
(1.23716e-08 4.33758e-09 2.64018e-07)
(-2.74981e-09 6.77168e-09 7.56984e-08)
(2.47815e-09 -2.39481e-09 1.01344e-07)
(6.2278e-09 -2.1137e-10 1.96848e-07)
(2.65917e-09 1.06095e-09 2.24903e-08)
(-3.6988e-08 2.42489e-09 1.93374e-07)
(5.49491e-09 2.78283e-09 1.15521e-07)
(1.11601e-10 -3.69991e-09 1.72152e-07)
(1.63301e-09 5.2179e-09 1.91666e-07)
(2.3727e-09 -7.04392e-10 1.28131e-07)
(2.17514e-09 4.23505e-09 3.99702e-07)
(-5.06045e-10 2.43379e-09 1.90265e-08)
(-1.06736e-08 -6.37748e-09 1.56777e-07)
(4.07199e-09 4.1002e-09 3.40456e-07)
(3.34322e-09 -5.27151e-09 2.51127e-07)
(4.56514e-09 -2.46175e-09 3.04559e-07)
(-5.40243e-09 -5.21058e-09 3.99196e-07)
(5.72836e-09 -1.6421e-09 3.31849e-07)
(7.52571e-11 -4.32471e-09 1.27621e-07)
(1.81325e-09 -1.46058e-10 2.68385e-07)
(-8.62441e-09 8.5746e-10 1.33765e-07)
(-2.56197e-09 -7.92562e-09 3.42882e-07)
(1.24135e-09 -3.19431e-10 2.18946e-07)
(-2.97728e-08 4.69319e-09 2.51991e-07)
(-6.24606e-10 -1.20613e-09 2.14476e-07)
(-2.78104e-08 -5.49866e-10 1.63325e-07)
(-1.63055e-09 -4.13457e-09 1.15976e-07)
(2.72504e-09 4.52058e-09 3.5779e-07)
(-4.56702e-10 -3.27638e-09 3.35068e-07)
(4.00646e-09 1.24658e-09 1.1578e-07)
(9.50339e-09 -8.88376e-11 2.65437e-07)
(-5.90553e-09 -1.12189e-09 1.85627e-07)
(-1.23238e-10 -8.56656e-09 1.22043e-07)
(3.60651e-09 2.29218e-09 1.63746e-07)
(-1.37504e-09 -3.57249e-10 1.43835e-07)
(1.69938e-10 -1.18428e-09 1.92247e-07)
(-8.32924e-10 2.24344e-09 2.63885e-08)
(3.67416e-09 -2.0666e-09 2.10709e-07)
(2.6789e-09 3.12522e-09 2.79847e-07)
(3.4434e-09 2.96913e-09 3.31566e-07)
(7.01767e-11 9.71167e-10 1.94102e-07)
(-3.6484e-10 3.07136e-09 2.9636e-08)
(3.26768e-09 -2.10655e-09 1.04097e-07)
(-3.08513e-08 2.45674e-09 1.97876e-07)
(1.63129e-09 -1.64494e-09 1.7074e-07)
(-2.53051e-10 -1.59893e-09 8.50004e-08)
(2.17041e-10 1.88786e-10 1.32059e-07)
(2.58761e-09 -1.27869e-09 3.27606e-08)
(3.17038e-10 3.46729e-10 1.81805e-07)
(-1.78508e-09 3.04095e-09 2.87554e-07)
(1.26232e-09 -1.44131e-09 3.23333e-07)
(1.37993e-09 -1.14071e-09 1.82363e-07)
(-1.83027e-09 8.09352e-10 2.04406e-07)
(-3.96213e-09 2.5302e-09 1.26828e-07)
(-8.52034e-10 4.48106e-10 1.66975e-07)
(3.00584e-09 3.13036e-09 7.59568e-08)
(4.0611e-10 -1.5228e-10 1.5399e-07)
(1.48408e-10 -2.83229e-10 1.74699e-07)
(-1.22998e-09 -2.61687e-10 2.80245e-08)
(5.60073e-10 -6.78714e-10 1.94521e-07)
(-2.20065e-09 9.13656e-11 3.00139e-07)
(1.35405e-09 -1.6143e-09 4.4418e-08)
(-2.53319e-09 3.45104e-10 4.87174e-07)
(5.3525e-09 -5.95323e-09 1.47727e-07)
(-8.68024e-09 -1.74483e-09 1.91377e-07)
(-7.74994e-09 -2.71507e-09 1.77794e-07)
(-1.96008e-09 -1.2626e-09 1.75472e-07)
(1.79506e-09 -1.1259e-09 2.09213e-07)
(-2.97183e-10 -4.53109e-10 1.70724e-07)
(1.92267e-10 -2.3604e-09 1.48659e-07)
(-1.46791e-08 2.04283e-09 1.83676e-07)
(-1.50035e-09 -1.04739e-09 1.19902e-07)
(-1.43548e-09 4.64412e-09 1.25929e-07)
(2.82828e-09 1.85598e-09 1.51058e-07)
(6.94271e-10 -4.08535e-10 1.91443e-07)
(-1.32142e-10 7.71659e-10 8.9207e-08)
(3.60379e-09 2.67741e-10 4.16269e-08)
(2.93592e-09 1.50613e-09 3.92014e-08)
(-5.44437e-09 3.17251e-09 1.23192e-07)
(3.34734e-09 1.09661e-09 2.26879e-07)
(-7.12442e-10 1.00813e-09 1.40662e-07)
(-1.55822e-09 -3.50867e-09 8.5217e-08)
(-1.18232e-09 1.10464e-09 1.55852e-07)
(3.87112e-09 4.26554e-09 2.07098e-07)
(-2.35934e-10 2.8562e-09 2.81098e-07)
(-3.21529e-08 9.49704e-10 2.85404e-07)
(1.99636e-09 -7.87101e-10 6.75861e-08)
(-4.68376e-09 1.52339e-08 2.65881e-07)
(-2.77553e-08 1.72255e-09 2.32229e-07)
(-1.97707e-09 1.19058e-09 1.94091e-07)
(5.16115e-09 -2.87968e-09 1.64867e-07)
(1.34096e-09 4.24258e-09 1.65829e-07)
(-1.81779e-09 7.01426e-10 1.44528e-07)
(-1.13104e-09 -2.26602e-09 3.04974e-08)
(-3.24967e-09 -8.0183e-11 2.36771e-07)
(4.70743e-10 -2.1746e-09 3.13839e-07)
(1.87674e-09 7.46523e-10 1.43876e-07)
(-4.72596e-10 -1.34727e-09 1.39746e-07)
(1.39056e-09 2.41491e-09 1.4924e-07)
(-9.31743e-09 2.276e-09 1.34683e-07)
(-9.97338e-10 3.29233e-09 1.74795e-07)
(-1.58345e-10 -9.04924e-11 5.88119e-08)
(-4.00516e-09 3.29259e-09 2.14199e-07)
(-2.16065e-08 3.69905e-09 1.69412e-07)
(1.42734e-09 4.32828e-11 1.20744e-07)
(2.80711e-09 -2.42421e-09 2.12893e-07)
(8.49714e-09 7.18408e-09 3.77598e-07)
(2.22484e-10 -2.38409e-09 3.68999e-08)
(1.87984e-09 2.21633e-09 2.45658e-07)
(-1.9627e-09 1.90033e-09 3.97489e-07)
(-3.24125e-09 3.0807e-09 2.25282e-07)
(-1.49584e-08 3.35296e-09 1.67437e-07)
(6.49669e-09 3.0086e-10 3.46333e-07)
(1.04955e-10 2.34441e-09 7.59006e-08)
(1.14598e-09 -2.99048e-09 1.95625e-07)
(-1.88825e-09 8.79276e-10 1.13534e-07)
(-1.15906e-10 2.38074e-09 2.44884e-07)
(-1.75942e-09 -1.73444e-09 2.34143e-08)
(1.22209e-09 1.41986e-09 1.506e-07)
(-6.06803e-10 1.27793e-09 1.65889e-07)
(-3.1467e-09 2.8933e-09 2.75491e-07)
(2.68063e-09 -1.20717e-11 2.07526e-07)
(3.76724e-09 3.44242e-09 2.3478e-07)
(9.54335e-10 -1.54622e-09 6.5133e-08)
(5.08077e-09 1.12358e-09 2.46784e-07)
(-2.92362e-09 -4.0854e-09 3.96528e-07)
(1.78263e-09 -1.087e-09 7.8675e-08)
(5.88891e-09 -8.95291e-10 3.31345e-07)
(1.61928e-09 -6.35633e-10 1.94446e-07)
(2.24724e-10 -5.07835e-10 2.08332e-07)
(-1.76903e-09 9.12022e-10 2.51046e-08)
(1.25862e-09 8.77627e-09 3.1516e-07)
(-1.42661e-09 2.58923e-09 3.86811e-07)
(-1.21395e-09 2.95473e-09 1.73995e-07)
(-1.89731e-09 -2.46331e-09 2.59852e-08)
(2.13353e-09 1.90722e-09 1.24948e-07)
(2.221e-09 -8.57347e-10 1.59086e-07)
(1.96519e-09 -3.19079e-10 6.24777e-08)
(3.92867e-10 -1.47942e-10 3.65417e-08)
(6.0953e-09 -9.40844e-11 2.04275e-07)
(-2.43142e-09 5.48844e-10 2.699e-07)
(-5.76851e-09 -1.52836e-09 2.07452e-07)
(-8.3458e-10 -4.68989e-10 2.18989e-07)
(6.89333e-10 2.18174e-09 2.92682e-08)
(1.78768e-09 1.16073e-09 1.99851e-07)
(7.1552e-10 -3.46864e-09 1.11274e-07)
(-3.1499e-10 4.3095e-10 9.74395e-08)
(1.7346e-09 5.40428e-10 1.51731e-07)
(3.89597e-10 -1.58194e-09 1.46976e-07)
(2.707e-09 2.42791e-09 1.26764e-07)
(-3.56028e-09 -1.07172e-08 4.72568e-07)
(7.29868e-10 -1.99803e-09 2.01502e-07)
(6.01121e-09 6.94265e-10 3.0152e-07)
(-7.13042e-09 -9.34996e-09 2.09003e-07)
(3.13322e-09 2.27065e-09 9.98769e-08)
(4.68942e-09 -3.4374e-09 2.97002e-07)
(-1.21659e-09 3.72648e-09 6.62734e-08)
(5.17233e-10 -3.72822e-09 4.52383e-08)
(5.22269e-09 4.81292e-09 1.47464e-07)
(5.46108e-10 -1.65104e-09 1.58768e-07)
(-8.58257e-10 2.79821e-09 1.24827e-07)
(-3.46776e-09 1.55685e-09 6.94183e-08)
(2.02986e-09 -2.26239e-09 3.1234e-08)
(6.86913e-10 -1.98772e-09 2.08861e-07)
(8.43723e-09 3.24296e-09 2.74383e-07)
(-1.97474e-09 -1.79003e-09 1.56951e-07)
(-6.17514e-09 -7.02211e-09 1.6783e-07)
(-1.33656e-09 -2.3267e-10 1.85359e-07)
(5.2038e-09 -2.19157e-09 1.36844e-07)
(3.55392e-09 2.30217e-09 3.14481e-07)
(-1.07405e-09 1.02058e-10 4.32002e-08)
(9.07775e-11 1.39101e-09 1.35099e-07)
(-2.77886e-09 -2.48529e-09 8.14095e-08)
(-5.68896e-09 -2.3587e-09 2.08101e-07)
(6.78052e-10 1.66914e-09 2.46884e-07)
(-4.09377e-09 -2.96929e-09 9.76225e-08)
(1.47949e-09 4.79322e-10 1.41245e-07)
(5.61407e-09 2.06059e-09 3.9319e-07)
(4.35777e-10 -1.02566e-09 2.73905e-08)
(-5.97852e-10 4.98024e-10 2.35596e-07)
(4.01909e-09 5.65213e-10 2.26055e-07)
(6.19196e-10 8.70964e-10 2.68901e-07)
(-4.0065e-10 1.63814e-09 1.67424e-07)
(5.62636e-10 -1.28778e-09 2.71754e-08)
(1.46424e-09 5.7934e-09 3.54105e-07)
(-2.54299e-09 5.06695e-09 7.86044e-08)
(-2.96877e-09 -2.02496e-10 3.73495e-08)
(-2.42146e-09 1.09045e-09 2.31235e-07)
(4.91638e-11 -1.56084e-09 1.399e-07)
(3.76473e-09 -6.15047e-09 3.4718e-07)
(-2.57403e-09 8.33444e-10 2.32767e-07)
(-1.21736e-09 2.04813e-09 2.70725e-07)
(-8.23679e-10 -9.96011e-10 1.85277e-07)
(-9.18112e-12 8.75792e-09 1.21001e-07)
(2.16355e-09 -6.23832e-10 1.99192e-07)
(-2.82898e-09 1.35708e-09 1.79913e-07)
(4.07672e-10 2.63813e-09 2.30859e-07)
(-1.00935e-10 -1.31936e-09 1.46507e-07)
(8.65773e-10 -2.98147e-09 1.26885e-07)
(-2.12436e-09 -2.92117e-09 2.37443e-07)
(-3.03558e-10 8.01357e-10 2.47555e-07)
(-2.99601e-09 -1.4053e-09 4.83224e-08)
(-3.1041e-10 1.29523e-09 9.9365e-08)
(-2.72173e-09 1.48143e-09 1.59783e-07)
(1.98366e-09 1.00385e-08 1.70635e-07)
(8.17651e-10 1.60703e-09 2.01452e-07)
(-1.70723e-09 3.204e-10 1.41382e-07)
(-2.20213e-09 -8.66764e-10 2.40196e-07)
(6.84053e-11 -1.45463e-09 4.31026e-08)
(7.30641e-10 1.32698e-09 4.41471e-08)
(6.23082e-10 1.57444e-09 6.33767e-08)
(2.99072e-09 -6.12891e-11 1.55616e-07)
(3.48664e-09 -8.29218e-11 2.06742e-07)
(-1.14591e-09 1.08335e-09 3.71499e-07)
(4.60121e-11 -7.51205e-10 1.06972e-07)
(2.41314e-09 7.12568e-10 1.87193e-07)
(1.18437e-09 2.22952e-09 3.02364e-08)
(9.7806e-09 3.11812e-09 1.55074e-07)
(3.40395e-09 3.39348e-09 4.49765e-08)
(1.18048e-09 3.1799e-10 1.23329e-07)
(1.42587e-09 6.27234e-10 2.00196e-07)
(5.74807e-10 -9.29776e-10 1.8436e-07)
(-3.77461e-09 -2.33835e-09 2.68321e-07)
(3.4632e-09 7.16025e-10 2.35263e-07)
(9.36591e-10 2.75817e-09 2.416e-07)
(7.35474e-09 -7.93575e-10 3.31616e-07)
(1.46386e-09 -3.15931e-10 2.06585e-07)
(1.51968e-09 7.70765e-10 1.42221e-07)
(3.32888e-09 6.66649e-10 2.63319e-07)
(2.09905e-09 1.44367e-10 2.6534e-07)
(-1.55553e-09 -1.21855e-09 2.67165e-07)
(3.19895e-09 -1.55596e-09 1.54923e-07)
(5.62967e-10 1.06064e-09 2.56609e-07)
(-1.84674e-09 1.83476e-09 1.2369e-07)
(-6.16526e-09 2.87118e-09 1.38304e-07)
(-6.06331e-09 2.31343e-10 2.27581e-07)
(1.42736e-09 2.38269e-09 2.21748e-07)
(4.32178e-09 2.17856e-09 2.78504e-07)
(2.75521e-10 2.46731e-09 2.26869e-07)
(2.23962e-09 2.16579e-09 8.79168e-08)
(3.90924e-09 -7.72081e-09 1.46117e-07)
(-1.558e-09 -2.53345e-09 2.67424e-07)
(1.45415e-08 -2.6693e-09 2.58059e-07)
(-3.26079e-09 3.06103e-09 9.41713e-08)
(-1.08845e-09 3.15821e-09 1.07738e-07)
(5.27021e-09 3.32727e-09 2.03345e-07)
(-2.74826e-10 -3.22793e-10 1.48496e-07)
(-6.98209e-09 6.6937e-09 3.76083e-07)
(-5.48071e-09 -4.88067e-10 1.85533e-07)
(-1.35775e-09 1.8621e-09 2.79944e-07)
(2.34625e-09 1.01354e-08 2.45615e-07)
(-8.40319e-10 -5.8626e-10 3.21371e-08)
(6.97866e-10 2.33748e-09 2.61191e-07)
(5.1335e-10 1.43799e-10 4.73e-08)
(6.8562e-10 2.21505e-09 7.65177e-08)
(-1.2937e-09 -1.18574e-09 2.67399e-07)
(8.60339e-10 -6.44113e-10 2.44641e-07)
(-3.93164e-09 5.10474e-09 4.36048e-08)
(3.72424e-09 -8.94874e-09 3.41682e-07)
(1.01823e-09 -7.98561e-09 2.80612e-07)
(9.48662e-10 1.04209e-09 2.04853e-07)
(2.03077e-09 1.34466e-10 2.45715e-07)
(1.72039e-09 -1.36922e-09 3.84854e-08)
(-2.21013e-09 -2.21934e-11 2.09928e-07)
(-1.10979e-09 -1.01083e-09 1.06687e-07)
(-1.61386e-11 -1.02867e-09 1.25587e-07)
(-1.35293e-09 -3.91038e-09 2.57326e-07)
(-2.93292e-09 -5.54051e-10 1.59716e-07)
(-4.56626e-09 -1.34057e-09 2.12233e-07)
(8.04057e-11 1.04987e-09 2.22813e-07)
(1.48048e-09 2.973e-10 6.16046e-08)
(2.47887e-09 -4.54962e-09 2.40015e-07)
(-2.50435e-10 6.98854e-10 1.92995e-07)
(1.81061e-11 -3.26022e-09 2.73935e-07)
(-3.20979e-10 -3.59482e-09 2.09736e-07)
(3.36665e-09 -6.52998e-09 3.51443e-07)
(-6.67633e-10 -1.71385e-08 1.74161e-07)
(-5.90604e-10 -2.79949e-09 3.09679e-08)
(-8.94069e-10 -9.68834e-10 5.85841e-08)
(-3.06442e-09 5.56879e-09 4.61758e-07)
(-1.63625e-09 1.75851e-09 2.71473e-08)
(2.03809e-09 4.37473e-09 2.42379e-07)
(-4.72861e-09 1.18073e-10 1.03866e-07)
(1.00579e-09 -1.56386e-09 2.64725e-07)
(-1.81445e-09 -1.89638e-09 2.99458e-07)
(-3.32405e-09 -2.14734e-09 2.86285e-07)
(1.61249e-09 -5.52689e-09 1.72601e-07)
(1.92505e-09 -1.01995e-10 3.35531e-07)
(5.49966e-09 8.70091e-09 1.04314e-07)
(-5.74928e-10 3.57797e-09 1.22344e-07)
(-4.55533e-10 -3.11616e-09 1.65777e-07)
(7.33457e-10 2.76847e-10 1.96665e-07)
(-2.98846e-08 -2.60751e-09 2.68483e-07)
(2.64818e-09 -8.64288e-09 2.32084e-07)
(-1.62964e-09 -1.70371e-09 9.03252e-08)
(1.04445e-09 -6.3286e-10 1.39342e-07)
(8.06483e-10 -3.26314e-09 2.46923e-07)
(2.21876e-10 -7.35854e-11 1.67166e-07)
(-4.82025e-09 -1.35184e-09 3.27052e-07)
(-1.54751e-09 2.97346e-09 1.71163e-07)
(-8.46364e-10 9.57806e-10 4.32392e-07)
(4.02596e-10 -6.09139e-09 1.93493e-07)
(-2.49395e-09 3.17767e-09 3.50002e-07)
(-4.76212e-10 3.04371e-09 2.23927e-07)
(-1.45099e-09 -2.12872e-09 1.69914e-07)
(1.86081e-09 -1.9678e-10 2.87735e-07)
(-2.0673e-09 7.53847e-10 1.47912e-07)
(4.35202e-09 1.34909e-09 3.72977e-08)
(-1.74285e-09 -3.85745e-09 2.711e-07)
(3.04027e-09 4.07344e-09 8.93376e-08)
(2.69902e-09 1.12954e-09 4.50421e-08)
(-6.63782e-10 1.00228e-09 3.37856e-07)
(1.1934e-10 2.71264e-09 1.8636e-07)
(-3.92179e-10 1.11227e-08 1.4026e-07)
(-8.33212e-10 5.00808e-10 2.03738e-07)
(1.62049e-09 7.65355e-10 2.73543e-07)
(-1.50547e-09 4.76974e-10 3.19272e-07)
(2.15795e-09 -1.34203e-09 2.15362e-07)
(-2.0796e-09 -1.94748e-09 4.55238e-08)
(-1.18189e-09 -1.48198e-09 2.80465e-07)
(7.68027e-10 4.49046e-10 1.6777e-07)
(1.65452e-09 6.0945e-10 1.39047e-07)
(1.25008e-09 -2.16051e-09 2.22598e-07)
(1.20594e-09 3.05759e-09 1.97147e-07)
(9.49463e-10 -1.93951e-10 1.77964e-07)
(4.44067e-09 -1.17649e-09 2.1258e-07)
(3.37898e-09 -1.02462e-09 2.44484e-07)
(3.3233e-10 -1.79334e-09 1.8718e-07)
(1.70577e-09 -8.00576e-10 9.55361e-08)
(-9.16146e-10 3.21728e-09 3.00691e-08)
(-1.9414e-09 -2.13545e-09 5.15713e-08)
(-4.49266e-09 2.56544e-09 2.74711e-07)
(-3.07799e-08 -4.67896e-09 3.03458e-07)
(-1.14119e-08 6.87571e-10 1.23218e-07)
(3.78969e-09 -2.42413e-09 1.39967e-07)
(1.59811e-09 3.6154e-10 2.71264e-07)
(-3.70138e-09 -1.33765e-09 3.29877e-07)
(4.63749e-10 1.33272e-09 1.90887e-07)
(-1.03067e-10 2.22697e-09 3.35404e-07)
(-5.21804e-09 3.85828e-09 3.53983e-07)
(-2.29662e-09 -1.73423e-09 2.04714e-07)
(-1.33213e-09 -4.15454e-10 1.24058e-07)
(-1.65411e-10 9.82396e-10 3.81275e-08)
(-4.69554e-08 2.66308e-09 2.43447e-07)
(2.95546e-09 4.97449e-09 1.24535e-07)
(2.34359e-09 6.36784e-09 8.90582e-08)
(-5.01496e-09 1.77991e-09 1.01052e-07)
(-7.38546e-10 -1.2527e-09 1.46804e-07)
(4.95157e-10 -9.76582e-11 2.1815e-07)
(-6.26202e-10 6.09677e-11 2.08336e-07)
(-6.90205e-10 -1.75636e-10 2.86256e-08)
(2.49503e-09 -1.14591e-10 1.78664e-07)
(-2.94675e-10 -4.69892e-09 9.57726e-08)
(1.96274e-10 2.18433e-09 1.54084e-07)
(-1.0359e-09 -2.48112e-09 7.96717e-08)
(1.21864e-09 2.39984e-09 2.06475e-07)
(7.83884e-11 -3.41202e-10 2.64485e-07)
(6.14181e-10 1.5584e-09 1.60827e-07)
(2.97773e-09 -4.13946e-10 3.10957e-08)
(1.81263e-09 1.81e-09 1.60256e-07)
(2.06537e-09 -1.68009e-09 2.39865e-07)
(2.67814e-10 -3.37919e-09 3.92201e-08)
(-4.39505e-09 -2.25543e-10 2.93477e-07)
(2.35711e-09 -4.36854e-09 1.99835e-07)
(4.42585e-09 -5.01484e-09 3.10491e-07)
(5.19238e-09 -1.00865e-08 2.41782e-07)
(-1.13889e-09 -2.77808e-09 1.06639e-07)
(-5.8921e-10 -2.25064e-09 3.52276e-07)
(-1.22937e-08 -4.76604e-09 1.61503e-07)
(-4.13238e-09 -2.42936e-09 2.50736e-07)
(-1.148e-08 6.91045e-10 1.66604e-07)
(-1.8027e-08 5.24587e-09 2.03762e-07)
(-4.65473e-09 7.71811e-10 1.8531e-07)
(-6.35869e-10 -4.98807e-10 2.12593e-07)
(1.99114e-09 -2.87236e-09 4.3647e-07)
(1.94023e-09 -3.62982e-09 1.1578e-07)
(-2.04314e-09 1.15125e-09 3.6265e-07)
(-2.64674e-09 1.93959e-09 1.42796e-07)
(3.30382e-09 6.77531e-11 3.41639e-07)
(1.51752e-09 -1.74208e-11 2.61151e-07)
(-2.87399e-09 -9.75901e-09 1.03761e-07)
(1.79801e-09 6.3811e-10 2.22679e-07)
(7.07321e-09 1.41889e-09 3.78905e-07)
(2.83304e-09 2.28963e-10 2.19297e-07)
(1.5757e-09 -9.45033e-11 2.02451e-07)
(1.27345e-09 -3.24782e-09 3.36307e-08)
(-1.53199e-09 -1.76236e-09 2.98605e-08)
(-2.31323e-09 5.21194e-09 3.04562e-07)
(-4.3957e-10 -1.66636e-09 2.21697e-07)
(1.01783e-09 7.18465e-10 1.68192e-07)
(-1.96157e-09 2.04114e-09 5.50999e-08)
(2.81042e-10 -3.79952e-10 6.88697e-08)
(6.33559e-10 -8.81283e-09 3.6767e-07)
(-1.63887e-09 7.82064e-10 1.23555e-07)
(2.28255e-09 4.65088e-10 2.4927e-07)
(-3.62005e-10 -1.96223e-09 2.19116e-07)
(1.16552e-10 -2.04932e-09 1.74706e-07)
(6.52751e-10 -2.59525e-09 1.89238e-07)
(4.7392e-09 -1.4091e-09 1.56268e-07)
(-3.02518e-09 2.71296e-10 1.63166e-07)
(-3.02577e-09 7.6874e-09 1.25065e-07)
(-5.44381e-11 1.78577e-09 2.39341e-07)
(-3.25529e-09 -2.46065e-09 2.23004e-07)
(-2.65655e-09 1.7062e-09 1.87926e-07)
(1.11537e-10 7.09181e-11 1.71202e-07)
(1.89005e-09 -4.16241e-09 3.40011e-07)
(4.27693e-10 3.54555e-09 2.5591e-07)
(2.73409e-09 8.08062e-09 1.08525e-07)
(-1.71709e-09 -5.5402e-09 6.59113e-08)
(-2.30432e-09 -3.68983e-10 3.24584e-08)
(-2.25107e-09 1.22028e-09 1.99165e-07)
(1.61655e-09 3.26487e-11 2.20413e-07)
(-4.72457e-10 4.70169e-09 2.63694e-07)
(2.52908e-09 -4.85137e-09 2.03598e-07)
(-7.30751e-12 2.22792e-09 3.98314e-08)
(3.50046e-09 -4.59316e-09 3.67525e-08)
(7.87807e-10 -2.43759e-09 2.03205e-07)
(9.70793e-10 3.392e-09 2.06811e-07)
(-2.38932e-09 7.52192e-10 2.45485e-07)
(3.10567e-09 -2.16818e-09 3.01992e-07)
(-7.43406e-10 -6.50276e-10 2.10631e-07)
(-5.76032e-10 2.56322e-09 2.50209e-07)
(1.92078e-09 -1.49186e-09 3.96585e-07)
(-4.11804e-09 2.47596e-09 5.10105e-08)
(-4.40686e-09 -1.60907e-09 1.93487e-07)
(2.26032e-09 -2.69386e-09 1.00552e-07)
(-8.55985e-09 -6.78924e-11 1.03268e-07)
(4.02248e-10 2.05341e-11 1.12691e-07)
(4.58839e-09 -5.97557e-09 1.76163e-07)
(1.88855e-09 2.71756e-10 2.44408e-07)
(-2.24437e-09 4.12377e-09 3.40604e-08)
(4.74573e-09 -1.4398e-09 2.85531e-07)
(8.57691e-10 1.4384e-09 2.05125e-07)
(-2.5191e-09 3.62127e-10 1.63556e-07)
(-3.95659e-09 -1.18828e-09 2.42974e-07)
(-6.58651e-10 -1.18715e-09 1.49467e-07)
(-2.93206e-09 -3.08696e-10 2.00322e-07)
(8.02772e-09 2.21459e-10 2.50997e-07)
(-5.20119e-11 -8.2942e-10 2.25175e-07)
(1.16452e-09 4.96567e-09 2.00471e-07)
(7.09424e-10 8.35158e-10 2.17257e-07)
(-2.16991e-09 -1.02627e-09 2.77402e-07)
(2.98587e-09 -3.45202e-09 2.85471e-08)
(-1.56144e-09 4.05485e-10 2.36111e-07)
(3.21014e-09 3.09121e-09 2.07858e-07)
(-1.26197e-09 -5.41631e-09 9.1433e-08)
(7.2569e-10 7.15671e-09 2.21277e-07)
(9.04352e-10 3.2782e-09 2.87197e-07)
(-5.47848e-10 -1.43593e-09 2.42207e-07)
(-7.98306e-11 3.93715e-09 1.59299e-07)
(-2.08662e-09 3.49064e-09 2.62543e-08)
(-2.48542e-09 1.8571e-09 2.03704e-07)
(2.39952e-09 7.14416e-09 3.5717e-07)
(-9.03859e-10 1.58842e-09 2.03524e-07)
(1.84933e-09 -6.4991e-09 2.03365e-07)
(-8.83356e-10 -6.72255e-11 8.76834e-08)
(6.15978e-10 -4.5986e-09 2.44561e-07)
(-4.27636e-09 3.21606e-09 3.89443e-08)
(-2.92386e-10 -6.78185e-10 1.46432e-07)
(-2.4891e-08 2.37512e-09 2.09211e-07)
(-2.65007e-10 -1.74765e-09 2.07307e-07)
(-1.87708e-09 6.7379e-09 1.34952e-07)
(2.97357e-09 2.16303e-09 2.02815e-07)
(2.79667e-09 6.54325e-11 1.38314e-07)
(-8.30673e-10 -3.71188e-09 7.18117e-08)
(2.77289e-09 -2.42055e-09 3.36306e-07)
(-1.00858e-09 1.77534e-09 1.59289e-07)
(-3.68738e-09 -4.85371e-10 2.99661e-08)
(2.35677e-09 -4.36221e-09 2.32982e-07)
(-1.03405e-09 -4.0397e-09 2.02689e-07)
(3.14541e-10 3.15789e-09 5.98891e-08)
(-1.45577e-09 -3.86015e-10 1.79584e-07)
(-3.26545e-09 5.12684e-09 1.40449e-07)
(-1.62808e-09 -4.79239e-11 1.66574e-07)
(2.10586e-09 -4.25915e-10 1.94299e-07)
(-3.68137e-10 1.98396e-09 4.64796e-08)
(-1.77591e-09 -7.44271e-09 1.27521e-07)
(-5.23672e-09 2.52515e-09 1.38704e-07)
(-9.33253e-10 1.48112e-09 1.93482e-07)
(3.24064e-09 -1.79987e-09 2.48684e-07)
(-1.87348e-09 -1.21635e-09 3.52394e-08)
(4.71754e-10 1.05688e-09 3.29694e-07)
(6.3573e-11 1.15889e-10 2.18467e-07)
(-2.71274e-09 -7.45247e-10 2.03846e-07)
(-3.09442e-09 -5.55409e-09 1.14344e-07)
(4.2488e-10 1.17749e-09 2.85171e-07)
(1.44755e-09 1.07848e-09 3.4497e-08)
(-3.93189e-09 -7.44117e-11 2.53768e-07)
(4.31874e-10 -6.29364e-10 4.39054e-08)
(-2.36417e-09 1.72916e-09 1.89345e-07)
(5.0563e-10 -2.657e-10 2.00979e-07)
(-1.23591e-10 6.781e-10 1.94032e-07)
(-2.71302e-09 5.92455e-11 3.24797e-08)
(-3.47604e-09 8.3515e-10 8.09624e-08)
(5.14008e-09 1.35417e-09 1.12967e-07)
(-8.18975e-09 -2.00718e-09 1.92574e-07)
(2.84283e-09 1.1762e-09 3.16026e-07)
(3.97147e-09 -5.07055e-11 7.40166e-08)
(-1.56652e-09 -4.5788e-09 1.89303e-07)
(-1.55092e-08 -7.71281e-10 2.21899e-07)
(-2.10259e-09 1.74167e-09 1.64851e-07)
(-6.8084e-10 1.30826e-09 5.18846e-08)
(-2.84867e-09 4.80273e-09 2.75127e-07)
(-1.36809e-08 -4.68685e-09 1.65029e-07)
(1.6365e-09 -7.14817e-10 1.62275e-07)
(-1.12776e-09 3.66152e-09 1.41014e-07)
(-1.89984e-09 1.04772e-09 1.37809e-07)
(-3.97967e-09 7.26599e-09 1.57696e-07)
(8.71895e-10 -1.20753e-09 1.62399e-07)
(-2.50759e-09 -6.53467e-10 1.21562e-07)
(1.1344e-09 -4.56752e-09 1.11256e-07)
(3.96602e-09 -3.36046e-11 2.29582e-07)
(-3.24898e-10 -3.18942e-09 9.44141e-08)
(2.63562e-09 -2.05004e-09 2.51865e-08)
(4.30808e-09 -3.58281e-09 2.91568e-07)
(-1.91668e-09 -2.63078e-09 1.41037e-07)
(-1.86302e-09 2.37053e-09 3.06838e-07)
(-1.15291e-09 3.23628e-09 2.44743e-07)
(4.65631e-09 -1.09637e-09 3.60443e-07)
(2.82843e-09 5.7881e-09 1.99659e-07)
(5.19956e-09 -9.18153e-10 3.44169e-07)
(-1.70379e-10 6.18203e-09 1.43923e-07)
(-2.00031e-09 4.41057e-11 1.16181e-07)
(6.30054e-09 -5.82482e-09 3.23019e-07)
(-2.90701e-09 9.20357e-10 5.42497e-08)
(1.05161e-09 3.04996e-09 2.90437e-07)
(6.42431e-09 2.01612e-09 1.62212e-07)
(-1.51342e-10 -9.41246e-10 5.04274e-08)
(2.10608e-11 2.24035e-09 2.72783e-07)
(-6.18892e-10 -1.26776e-09 9.26706e-08)
(-1.48251e-09 -8.61286e-11 1.96515e-07)
(1.06377e-09 4.34593e-10 1.64632e-07)
(-4.52528e-09 2.71084e-09 3.93754e-07)
(-1.00637e-08 2.3465e-09 1.21999e-07)
(3.1406e-10 6.12438e-11 2.30571e-07)
(3.22132e-09 3.08795e-10 1.89984e-07)
(-2.78277e-09 2.00348e-09 2.42085e-07)
(3.12028e-09 1.73406e-09 2.47834e-07)
(-1.16233e-11 1.06168e-09 2.21816e-07)
(-3.39113e-10 -2.04033e-09 1.26634e-07)
(4.43845e-10 -5.36268e-10 7.28681e-08)
(-1.32135e-09 -8.4451e-10 1.00638e-07)
(-2.30722e-09 1.0149e-09 1.37119e-07)
(-1.27203e-09 -2.66577e-09 2.47326e-07)
(-2.05754e-09 -2.53239e-10 4.20808e-08)
(-1.09512e-09 -9.49317e-10 2.07211e-07)
(-1.9487e-09 6.27788e-09 3.79459e-07)
(5.66203e-10 4.15481e-09 2.85009e-07)
(9.14481e-10 3.45105e-09 2.95958e-07)
(6.68344e-09 5.13886e-09 2.90857e-07)
(-2.43486e-09 2.77797e-09 3.52031e-08)
(3.68993e-10 2.63488e-09 1.84954e-07)
(2.60511e-09 1.52187e-09 1.77272e-07)
(-9.99826e-10 -1.94284e-09 2.33199e-07)
(-9.14807e-10 -5.21692e-09 1.92494e-07)
(-3.94872e-09 -2.96848e-10 5.71165e-08)
(-7.56797e-10 1.40099e-09 1.56459e-07)
(-4.95692e-09 2.53176e-09 1.87885e-07)
(-1.94704e-09 -2.52162e-09 2.57577e-07)
(1.40069e-09 1.91287e-09 2.07301e-07)
(-1.10263e-09 5.53319e-09 1.85909e-07)
(1.093e-09 7.13656e-10 2.28952e-08)
(-1.96273e-09 1.60425e-10 3.22589e-08)
(-1.65455e-09 -1.38471e-09 1.41891e-07)
(-8.52585e-10 9.73139e-11 2.41291e-07)
(-1.33295e-09 1.29409e-09 1.75362e-07)
(-2.66519e-09 4.16711e-10 1.58826e-07)
(-5.08361e-09 4.3418e-09 1.9328e-07)
(-1.25512e-09 6.55811e-10 2.35172e-07)
(7.87786e-10 1.72138e-09 2.30848e-07)
(1.04874e-09 1.50136e-09 3.39791e-08)
(-8.59711e-10 -1.47092e-09 1.10727e-07)
(-6.4436e-09 2.86701e-09 1.77048e-07)
(3.04117e-09 1.15042e-09 7.27417e-08)
(1.30045e-09 3.84624e-09 1.18167e-07)
(1.35114e-09 1.49485e-09 3.1241e-07)
(-1.21106e-10 -7.3483e-10 2.09497e-07)
(2.05744e-09 7.50326e-12 1.92645e-07)
(1.78773e-09 -1.47827e-09 2.60577e-07)
(-3.36174e-09 3.0996e-09 1.6958e-07)
(9.07126e-10 8.24422e-10 2.55841e-07)
(5.30198e-09 -8.77659e-09 2.12916e-07)
(1.51626e-09 -2.26942e-09 3.57527e-07)
(2.63475e-10 -2.71065e-09 1.72867e-07)
(2.82568e-09 -2.43311e-09 1.81296e-07)
(4.25637e-10 -4.28666e-09 2.48256e-07)
(1.22334e-09 -2.53363e-09 7.19142e-08)
(6.27415e-09 -9.1207e-10 4.67598e-07)
(1.46786e-09 -1.95565e-09 5.17349e-08)
(-1.7273e-08 -1.53153e-09 1.52519e-07)
(-8.45546e-10 -8.99848e-09 1.60666e-07)
(-9.19672e-09 -1.58049e-09 1.58353e-07)
(-3.13317e-09 -1.61601e-09 2.2262e-07)
(-3.78397e-08 3.05511e-09 3.04267e-07)
(2.65977e-10 -9.34811e-10 1.09849e-07)
(7.24695e-10 -1.72742e-09 2.61904e-07)
(-1.80672e-09 -2.19742e-09 3.10323e-07)
(1.63877e-09 1.11756e-09 1.68284e-07)
(2.86392e-09 1.28099e-09 5.50392e-08)
(-5.58488e-09 1.16192e-12 1.18345e-07)
(-2.64213e-08 2.16252e-09 2.10397e-07)
(5.61026e-10 2.67736e-10 1.67502e-07)
(3.06126e-10 2.3655e-09 1.11533e-07)
(-5.72533e-09 -8.24173e-10 2.21946e-07)
(1.04174e-09 1.32344e-09 2.03446e-07)
(1.20662e-08 1.04552e-08 3.57144e-07)
(-3.54173e-10 1.27054e-09 6.66836e-08)
(-1.41333e-09 4.66355e-09 7.61737e-08)
(2.70198e-09 4.13131e-10 4.15854e-08)
(2.2152e-09 2.1205e-09 3.28632e-08)
(-2.04392e-09 1.04564e-09 6.42079e-08)
(-2.91417e-09 1.79764e-09 2.34088e-07)
(-8.13108e-10 1.6131e-09 1.78262e-07)
(-2.22255e-09 -2.0043e-09 3.09656e-08)
(-2.78798e-09 -1.02793e-09 3.36277e-08)
(1.47904e-09 4.7347e-10 2.70884e-07)
(-2.17355e-08 6.38367e-09 1.73013e-07)
(-1.24178e-09 -8.96923e-10 7.24141e-08)
(1.32963e-09 -6.30457e-10 2.16873e-07)
(-7.63416e-10 -1.72037e-09 1.16432e-07)
(6.0561e-10 -2.50272e-10 2.07639e-07)
(-1.02547e-09 -1.82369e-10 6.95622e-08)
(-6.56825e-09 -6.96498e-09 1.31272e-07)
(-3.65356e-10 7.42072e-10 2.21236e-07)
(-5.89124e-10 -1.31871e-09 2.19971e-07)
(1.63056e-09 -1.41265e-09 3.72654e-07)
(-1.98932e-09 -3.68846e-09 6.25576e-08)
(1.10977e-10 -3.12247e-09 3.79364e-08)
(-3.59842e-08 -1.62352e-09 2.03577e-07)
(-1.03189e-09 3.61365e-09 4.33643e-08)
(1.08194e-09 8.62109e-09 3.22623e-07)
(-4.63195e-10 -2.10494e-10 4.53511e-08)
(6.32959e-10 4.15029e-09 1.79899e-07)
(-3.93015e-09 2.23883e-09 2.40043e-07)
(1.14957e-09 1.05789e-09 3.50169e-07)
(4.41163e-09 -1.42102e-09 9.202e-08)
(-7.00456e-10 2.63622e-09 1.63582e-07)
(-2.58041e-09 -2.03564e-09 6.31155e-08)
(-4.48864e-09 3.05984e-10 4.49699e-08)
(3.51432e-10 -2.31336e-10 2.04687e-07)
(-1.37376e-09 1.57589e-09 2.3752e-08)
(1.18473e-09 -2.06597e-09 1.48114e-07)
(2.4493e-09 -3.61581e-09 9.39981e-08)
(-1.21671e-09 -1.40315e-09 2.936e-07)
(1.37152e-09 -2.8193e-09 2.21119e-07)
(2.2218e-09 1.48072e-09 2.8394e-08)
(7.67356e-09 -1.02035e-08 2.05048e-07)
(2.61815e-09 4.08556e-09 2.25261e-07)
(3.30579e-09 -1.31759e-09 4.6079e-08)
(1.00648e-09 -1.49352e-09 2.42928e-07)
(2.14615e-10 2.17871e-09 1.16197e-07)
(-2.51882e-10 2.38747e-09 2.61018e-07)
(7.2806e-10 1.35265e-09 1.75298e-07)
(-1.4988e-09 1.43641e-09 8.64517e-08)
(-1.17448e-09 -7.32777e-10 3.2281e-08)
(-7.7326e-09 3.31075e-09 1.43374e-07)
(-3.82482e-08 4.15628e-10 2.4559e-07)
(-7.47752e-09 -1.14258e-09 2.67211e-07)
(-1.28263e-09 4.60092e-09 1.07027e-07)
(7.4232e-09 -2.74569e-10 2.34879e-07)
(9.45553e-10 1.16948e-09 3.88538e-08)
(6.49145e-10 1.10763e-09 1.54871e-07)
(3.30151e-09 1.72432e-09 3.58897e-08)
(-2.4024e-09 1.07952e-09 2.82956e-07)
(2.89472e-09 6.77901e-10 2.95652e-07)
(1.17919e-09 1.29472e-09 1.78576e-07)
(-1.54071e-09 9.32485e-11 2.1392e-08)
(3.7749e-09 4.67083e-09 3.29658e-07)
(-1.76254e-09 1.85464e-09 2.14027e-07)
(-1.30171e-10 2.34497e-09 3.27675e-07)
(-1.57779e-09 -1.52953e-09 9.1658e-08)
(-3.01386e-08 2.95659e-09 2.23687e-07)
(-2.35037e-09 1.70084e-09 2.34454e-07)
(-3.48781e-09 5.08649e-09 1.07464e-07)
(-1.01578e-09 -2.12134e-09 1.91544e-07)
(-3.94903e-08 2.38504e-09 2.09591e-07)
(1.1336e-09 -8.37849e-11 1.96899e-07)
(1.87791e-09 9.13725e-10 4.82309e-08)
(-4.33746e-10 2.85731e-09 1.5463e-07)
(-6.54362e-11 4.20862e-10 1.4824e-07)
(-2.18342e-09 -2.44383e-09 2.23938e-07)
(1.23293e-09 -4.50931e-09 5.03629e-08)
(-1.83446e-09 -2.34081e-09 2.49521e-07)
(-1.65454e-09 1.56701e-08 2.23432e-07)
(-1.46969e-09 -2.91034e-11 4.09969e-08)
(-4.63588e-10 -3.41476e-10 1.60519e-07)
(-1.36507e-08 9.5161e-10 1.5869e-07)
(-4.59415e-09 -3.69586e-09 3.5708e-07)
(-8.15782e-10 -2.45713e-10 1.62659e-07)
(4.74715e-10 -2.85217e-10 1.45092e-07)
(2.68984e-09 8.27412e-10 2.54771e-07)
(2.87911e-09 -2.03439e-09 2.60793e-07)
(-1.76821e-09 -2.47211e-09 1.14693e-07)
(-2.45861e-09 -1.99733e-09 1.01969e-07)
(2.04252e-09 -3.88862e-10 3.04532e-07)
(-2.63268e-08 -6.75315e-10 2.25329e-07)
(1.19256e-09 5.27381e-09 2.27428e-07)
(-2.97194e-10 -1.48877e-09 2.02245e-07)
(2.74221e-09 3.50393e-09 1.6131e-07)
(5.48996e-10 -6.87111e-10 3.02726e-07)
(-6.06457e-10 -3.82655e-10 1.72074e-07)
(3.93918e-09 -1.39493e-09 2.1434e-07)
(3.76591e-09 6.13149e-09 2.79064e-07)
(1.30474e-09 7.5542e-10 6.68548e-08)
(4.51298e-09 9.07184e-10 2.31574e-07)
(1.11016e-09 8.1593e-10 5.78125e-08)
(-2.42866e-09 -4.15455e-09 2.86847e-07)
(-2.56082e-09 -2.7658e-09 2.58957e-07)
(-8.33687e-10 6.56446e-09 2.1553e-07)
(7.10376e-09 -4.78237e-09 1.91582e-07)
(1.57504e-09 -1.35971e-09 2.96506e-08)
(-1.94438e-10 -1.39901e-09 1.28184e-07)
(-3.37947e-09 -4.01394e-09 1.10866e-07)
(-1.29601e-09 3.74305e-10 2.06965e-07)
(1.11436e-09 -3.3627e-10 1.87523e-07)
(-2.36532e-08 6.31008e-10 2.20503e-07)
(-8.63092e-11 3.40783e-09 2.66696e-07)
(-4.90813e-09 1.74875e-09 1.02064e-07)
(-1.09426e-08 -1.42129e-10 1.36967e-07)
(-1.35526e-09 -2.63755e-09 2.52114e-07)
(1.88768e-09 -9.98399e-10 4.39738e-08)
(3.56581e-10 8.49714e-10 1.92186e-07)
(5.28461e-10 7.21112e-10 7.3323e-08)
(-3.24681e-09 1.03631e-10 1.96196e-07)
(4.19531e-09 -6.17218e-09 5.15405e-08)
(6.62915e-09 1.05075e-09 2.88026e-07)
(-1.03964e-08 3.83356e-10 2.03952e-07)