/*--------------------------------*- C++ -*----------------------------------*\
| =========                 |                                                 |
| \\      /  F ield         | OpenFOAM: The Open Source CFD Toolbox           |
|  \\    /   O peration     | Version:  2406                                  |
|   \\  /    A nd           | Website:  www.openfoam.com                      |
|    \\/     M anipulation  |                                                 |
\*---------------------------------------------------------------------------*/
FoamFile
{
    version     2.0;
    format      ascii;
    arch        "LSB;label=32;scalar=64";
    class       volVectorField;
    location    "14";
    object      momentum:momentum;
}
// * * * * * * * * * * * * * * * * * * * * * * * * * * * * * * * * * * * * * //

dimensions      [1 1 -1 0 0 0 0];

internalField   nonuniform List<vector> 
59516
(
(2.75627e-07 -7.02681e-09 -1.36513e-09)
(1.93471e-07 -2.46901e-09 -5.95127e-09)
(2.26058e-07 -2.96201e-10 1.66807e-10)
(1.74881e-07 3.6455e-09 1.27021e-09)
(1.99326e-07 2.89485e-09 -5.68497e-09)
(5.03216e-08 -2.36763e-09 -5.296e-09)
(2.31204e-07 1.47168e-09 -2.90405e-09)
(2.41565e-07 7.07009e-09 1.87739e-09)
(1.71292e-07 1.2464e-09 4.26244e-10)
(1.11476e-07 3.02887e-09 -1.35123e-10)
(1.80218e-07 1.91298e-09 -4.93787e-10)
(1.41181e-07 6.81255e-09 -8.35369e-09)
(3.82262e-07 -2.29669e-09 2.18514e-09)
(2.60106e-08 -6.2646e-10 -4.22217e-10)
(2.26647e-07 -2.93112e-09 2.35464e-09)
(1.14951e-07 -3.99461e-10 -1.21403e-09)
(2.21963e-07 1.90326e-10 -9.96458e-10)
(2.01043e-07 4.06358e-09 -8.97064e-09)
(3.7579e-07 -1.03225e-08 5.26539e-09)
(3.20664e-07 -2.57817e-09 -5.78783e-10)
(1.40501e-07 -4.58141e-09 4.8687e-10)
(3.09216e-07 1.28311e-09 3.18561e-09)
(3.27882e-07 1.60742e-09 -7.31283e-11)
(5.37105e-08 -9.99095e-10 -1.64706e-09)
(2.78286e-07 -2.92724e-09 2.6171e-09)
(2.64018e-07 7.78004e-09 -1.05519e-08)
(7.56984e-08 3.46256e-09 -6.43644e-09)
(1.01344e-07 -1.50864e-09 3.09844e-09)
(1.96848e-07 -5.25544e-09 3.34822e-09)
(2.24903e-08 -2.44326e-09 1.4924e-09)
(1.93374e-07 -3.62726e-08 -7.63486e-09)
(1.15521e-07 -3.49364e-09 -5.07274e-09)
(1.72152e-07 -3.07388e-09 2.06229e-09)
(1.91666e-07 5.06747e-09 -2.05279e-09)
(1.28131e-07 -2.33883e-09 -8.0977e-10)
(3.99702e-07 -4.50498e-09 -1.54016e-09)
(1.90265e-08 -2.4786e-09 -1.89635e-10)
(1.56777e-07 7.10714e-09 -1.02023e-08)
(3.40456e-07 3.1626e-09 4.83639e-09)
(2.51127e-07 -4.13081e-09 4.68e-09)
(3.04559e-07 -3.69669e-09 -3.63802e-09)
(3.99196e-07 -4.27283e-10 -7.49359e-09)
(3.31849e-07 4.91977e-09 3.36251e-09)
(1.27621e-07 3.05621e-10 -4.31455e-09)
(2.68385e-07 1.80252e-09 2.45223e-10)
(1.33765e-07 6.82769e-09 5.33838e-09)
(3.42882e-07 5.34251e-09 -6.39036e-09)
(2.18946e-07 1.27876e-09 8.81338e-11)
(2.51991e-07 -1.60745e-08 2.54963e-08)
(2.14476e-07 -2.98616e-10 1.32503e-09)
(1.63325e-07 1.7355e-08 -2.17377e-08)
(1.15976e-07 -4.39489e-09 -6.62013e-10)
(3.5779e-07 1.41573e-09 5.085e-09)
(3.35068e-07 1.93271e-09 -2.68474e-09)
(1.1578e-07 -3.58209e-09 -2.18502e-09)
(2.65437e-07 -9.42093e-09 1.25233e-09)
(1.85627e-07 3.29044e-09 5.0306e-09)
(1.22043e-07 7.13202e-09 4.74715e-09)
(1.63746e-07 -3.88182e-09 1.78675e-09)
(1.43835e-07 6.19185e-10 1.27866e-09)
(1.92247e-07 8.69382e-10 -8.21938e-10)
(2.63885e-08 1.96604e-09 -1.36436e-09)
(2.10709e-07 -3.58838e-09 -2.2122e-09)
(2.79847e-07 -2.62273e-10 -4.10788e-09)
(3.31566e-07 -4.46484e-09 -8.59049e-10)
(1.94102e-07 7.65811e-10 -6.01351e-10)
(2.9636e-08 -2.27085e-09 2.09991e-09)
(1.04097e-07 -3.85357e-09 5.15075e-10)
(1.97876e-07 -4.95661e-09 3.05495e-08)
(1.7074e-07 1.43951e-09 1.81513e-09)
(8.50004e-08 1.17616e-09 1.11233e-09)
(1.32059e-07 -2.75613e-10 -8.23651e-11)
(3.27606e-08 8.90489e-10 -2.7455e-09)
(1.81805e-07 -2.47585e-10 -3.99295e-10)
(2.87554e-07 -2.41663e-09 2.56785e-09)
(3.23333e-07 1.90792e-09 1.75157e-10)
(1.82363e-07 1.7046e-09 5.47502e-10)
(2.04406e-07 2.31071e-10 -1.98785e-09)
(1.26828e-07 -1.15182e-09 -4.55782e-09)
(1.66975e-07 6.71698e-10 6.89625e-10)
(7.59568e-08 -1.34664e-09 -4.12563e-09)
(1.5399e-07 -3.36959e-10 -2.7308e-10)
(1.74699e-07 -3.10618e-10 -7.58922e-11)
(2.80245e-08 -1.03856e-09 7.09039e-10)
(1.94521e-07 -8.32165e-10 -2.86069e-10)
(3.00139e-07 -1.85556e-09 -1.18664e-09)
(4.4418e-08 1.46652e-09 1.51285e-09)
(4.87174e-07 -2.0021e-09 -1.58988e-09)
(1.47727e-07 -7.9901e-09 4.9846e-10)
(1.91377e-07 7.05917e-09 -5.34408e-09)
(1.77794e-07 2.09859e-09 -7.93909e-09)
(1.75472e-07 8.07339e-10 2.1873e-09)
(2.09213e-07 -6.39394e-10 2.02016e-09)
(1.70724e-07 -3.15466e-10 4.40575e-10)
(1.48659e-07 -1.98081e-09 1.29801e-09)
(1.83676e-07 -1.29913e-08 7.13256e-09)
(1.19902e-07 -9.45667e-10 1.56646e-09)
(1.25929e-07 1.71707e-09 -4.54754e-09)
(1.51058e-07 -3.30976e-09 6.99485e-10)
(1.91443e-07 5.1581e-10 6.18752e-10)
(8.9207e-08 7.20879e-10 3.05372e-10)
(4.16269e-08 7.11454e-11 -3.61303e-09)
(3.92014e-08 8.52809e-10 3.1876e-09)
(1.23192e-07 3.07773e-10 -6.29375e-09)
(2.26879e-07 3.5039e-09 3.60473e-10)
(1.40662e-07 5.15227e-10 1.1218e-09)
(8.5217e-08 9.3745e-10 -3.7229e-09)
(1.55852e-07 -1.21542e-09 -1.06811e-09)
(2.07098e-07 -1.2007e-09 5.63371e-09)
(2.81098e-07 -9.25894e-10 -2.71224e-09)
(2.85404e-07 2.11859e-08 -2.42047e-08)
(6.75861e-08 2.09106e-09 4.82151e-10)
(2.65881e-07 -2.56285e-09 -1.57303e-08)
(2.32229e-07 2.39971e-08 -1.4052e-08)
(1.94091e-07 -1.54689e-09 1.71272e-09)
(1.64867e-07 2.42564e-09 5.38946e-09)
(1.65829e-07 -3.70738e-09 2.46028e-09)
(1.44528e-07 1.87766e-09 5.20329e-10)
(3.04974e-08 -4.80512e-10 2.4866e-09)
(2.36771e-07 1.41791e-09 2.92511e-09)
(3.13839e-07 1.49652e-09 1.64649e-09)
(1.43876e-07 1.97559e-09 4.20118e-10)
(1.39746e-07 1.25545e-09 -6.79939e-10)
(1.4924e-07 1.97803e-09 1.96287e-09)
(1.34683e-07 -9.08054e-09 3.08844e-09)
(1.74795e-07 -2.56058e-09 -2.29729e-09)
(5.88119e-08 -6.32003e-11 1.71078e-10)
(2.14199e-07 -4.65893e-09 2.27526e-09)
(1.69412e-07 -5.81501e-09 2.11355e-08)
(1.20744e-07 1.23467e-09 7.17465e-10)
(2.12893e-07 1.752e-09 3.26913e-09)
(3.77598e-07 8.69692e-09 6.94088e-09)
(3.68999e-08 2.08847e-09 -1.17119e-09)
(2.45658e-07 9.80645e-11 2.90453e-09)
(3.97489e-07 -1.85687e-09 2.00387e-09)
(2.25282e-07 -2.45762e-09 -3.73584e-09)
(1.67437e-07 1.13085e-08 -1.03495e-08)
(3.46333e-07 2.47401e-09 6.01471e-09)
(7.59006e-08 2.32469e-09 -3.21088e-10)
(1.95625e-07 4.23963e-10 3.17435e-09)
(1.13534e-07 6.65854e-10 -1.97364e-09)
(2.44884e-07 2.26452e-09 7.43844e-10)
(2.34143e-08 1.67608e-09 1.81509e-09)
(1.506e-07 -1.46138e-09 1.17212e-09)
(1.65889e-07 1.4115e-09 9.48095e-11)
(2.75491e-07 4.18791e-09 -8.56926e-10)
(2.07526e-07 2.22731e-09 1.49166e-09)
(2.3478e-07 -5.08816e-09 -3.91151e-10)
(6.5133e-08 -1.00509e-09 1.51371e-09)
(2.46784e-07 -4.11646e-09 3.18298e-09)
(3.96528e-07 -3.33909e-09 -3.75347e-09)
(7.8675e-08 8.85268e-10 1.89093e-09)
(3.31345e-07 1.4744e-09 5.77122e-09)
(1.94446e-07 1.13664e-10 1.73585e-09)
(2.08332e-07 -4.30632e-10 3.50648e-10)
(2.51046e-08 -4.78031e-10 1.93203e-09)
(3.1516e-07 3.22681e-09 8.25801e-09)
(3.86811e-07 2.37503e-09 -1.76027e-09)
(1.73995e-07 2.68459e-09 -1.73121e-09)
(2.59852e-08 2.68019e-09 -1.57616e-09)
(1.24948e-07 1.21481e-09 -2.59107e-09)
(1.59086e-07 -1.80172e-09 -1.55618e-09)
(6.24777e-08 1.46708e-09 1.34591e-09)
(3.65417e-08 3.9936e-10 -1.29396e-10)
(2.04275e-07 3.92377e-09 4.66536e-09)
(2.699e-07 -9.53132e-11 2.49077e-09)
(2.07452e-07 5.89628e-09 -9.19479e-10)
(2.18989e-07 9.52737e-10 9.36234e-11)
(2.92682e-08 -1.39904e-09 1.81049e-09)
(1.99851e-07 1.34731e-09 -1.65162e-09)
(1.11274e-07 -7.80028e-10 3.45471e-09)
(9.74395e-08 2.45174e-10 -4.74159e-10)
(1.51731e-07 -1.3078e-09 1.26117e-09)
(1.46976e-07 -6.72749e-10 1.48382e-09)
(1.26764e-07 -3.1101e-09 1.88411e-09)
(4.72568e-07 8.57638e-09 -7.3471e-09)
(2.01502e-07 1.93984e-09 8.72833e-10)
(3.0152e-07 4.3976e-09 4.15665e-09)
(2.09003e-07 5.84321e-09 1.0204e-08)
(9.98769e-08 -7.93048e-10 -3.78735e-09)
(2.97002e-07 -1.39216e-09 5.6452e-09)
(6.62734e-08 -2.0396e-09 -3.34765e-09)
(4.52383e-08 1.61839e-09 -3.39823e-09)
(1.47464e-07 -5.96276e-09 3.85827e-09)
(1.58768e-07 7.10578e-11 1.73757e-09)
(1.24827e-07 1.72218e-09 2.36658e-09)
(6.94183e-08 -1.59665e-09 -3.44962e-09)
(3.1234e-08 2.80817e-09 -1.16314e-09)
(2.08861e-07 -7.39716e-10 1.96868e-09)
(2.74383e-07 -9.02784e-09 4.49191e-10)
(1.56951e-07 -2.00974e-09 1.75065e-09)
(1.6783e-07 8.54882e-09 -3.78948e-09)
(1.85359e-07 -1.3266e-09 2.84019e-10)
(1.36844e-07 5.34893e-09 1.80873e-09)
(3.14481e-07 -1.13279e-09 4.08009e-09)
(4.32002e-08 -8.00855e-10 -7.22938e-10)
(1.35099e-07 6.41508e-10 1.23759e-09)
(8.14095e-08 -7.48024e-10 3.65229e-09)
(2.08101e-07 1.8799e-09 5.86461e-09)
(2.46884e-07 1.39734e-10 1.79617e-09)
(9.76225e-08 -4.62376e-09 2.04852e-09)
(1.41245e-07 1.04277e-09 -1.1538e-09)
(3.9319e-07 1.90193e-09 5.66978e-09)
(2.73905e-08 6.91777e-10 -8.73689e-10)
(2.35596e-07 3.55935e-10 -6.91929e-10)
(2.26055e-07 -4.05614e-09 1.42409e-10)
(2.68901e-07 -1.01691e-09 3.28429e-10)
(1.67424e-07 1.60868e-09 -5.06142e-10)
(2.71754e-08 -1.38256e-09 2.51904e-10)
(3.54105e-07 -3.92051e-09 -4.50966e-09)
(7.86044e-08 2.66579e-09 5.00344e-09)
(3.73495e-08 -2.69973e-09 -1.25142e-09)
(2.31235e-07 1.44554e-09 -2.22778e-09)
(1.399e-07 1.12267e-09 -1.08547e-09)
(3.4718e-07 2.37228e-09 6.80983e-09)
(2.32767e-07 -7.56537e-10 2.59767e-09)
(2.70725e-07 2.21092e-09 -8.8806e-10)
(1.85277e-07 -4.53767e-10 -1.2102e-09)
(1.21001e-07 1.322e-09 -8.65757e-09)
(1.99192e-07 -4.91392e-11 2.25116e-09)
(1.79913e-07 1.86914e-09 -2.52014e-09)
(2.30859e-07 2.04147e-09 -1.71998e-09)
(1.46507e-07 1.31905e-13 1.32322e-09)
(1.26885e-07 2.47391e-10 3.09476e-09)
(2.37443e-07 -3.57938e-09 -4.83922e-10)
(2.47555e-07 7.94775e-10 -3.20397e-10)
(4.83224e-08 5.18528e-10 3.26834e-09)
(9.9365e-08 -6.54099e-10 -1.16023e-09)
(1.59783e-07 -1.85172e-09 2.48467e-09)
(1.70635e-07 -6.38245e-09 -7.99815e-09)
(2.01452e-07 -1.70328e-09 5.91531e-10)
(1.41382e-07 1.54853e-09 -7.87e-10)
(2.40196e-07 1.71898e-09 1.62657e-09)
(4.31026e-08 -5.27198e-10 -1.35745e-09)
(4.41471e-08 -1.13973e-09 9.97855e-10)
(6.33767e-08 -1.63761e-09 -4.30489e-10)
(1.55616e-07 -6.59647e-10 2.91771e-09)
(2.06742e-07 2.65371e-09 -2.26304e-09)
(3.71499e-07 1.46561e-09 5.82028e-10)
(1.06972e-07 4.67795e-10 5.89572e-10)
(1.87193e-07 -2.35441e-10 2.50511e-09)
(3.02364e-08 -8.54652e-10 2.37551e-09)
(1.55074e-07 3.75516e-09 9.55414e-09)
(4.49765e-08 -8.47076e-10 4.73129e-09)
(1.23329e-07 1.12898e-09 4.69097e-10)
(2.00196e-07 1.55761e-09 -1.96216e-11)
(1.8436e-07 -9.32176e-10 -5.70907e-10)
(2.68321e-07 3.48942e-09 2.74581e-09)
(2.35263e-07 1.93167e-10 3.53117e-09)
(2.416e-07 4.55409e-10 -2.87703e-09)
(3.31616e-07 -7.25551e-09 1.44204e-09)
(2.06585e-07 -8.58139e-11 -1.4951e-09)
(1.42221e-07 5.24758e-10 1.62116e-09)
(2.63319e-07 -1.29836e-09 -3.1369e-09)
(2.6534e-07 4.59206e-10 -2.05329e-09)
(2.67165e-07 -1.92086e-09 4.63527e-10)
(1.54923e-07 1.49795e-10 3.55413e-09)
(2.56609e-07 8.46037e-10 -8.52118e-10)
(1.2369e-07 2.39951e-09 -1.00952e-09)
(1.38304e-07 -4.74281e-09 4.87441e-09)
(2.27581e-07 5.53947e-09 -2.47619e-09)
(2.21748e-07 8.4655e-10 2.64535e-09)
(2.78504e-07 3.64692e-09 3.18181e-09)
(2.26869e-07 -8.68149e-10 2.32591e-09)
(8.79168e-08 -1.99123e-09 2.39616e-09)
(1.46117e-07 8.5925e-09 -1.03051e-09)
(2.67424e-07 -4.98432e-10 -2.93211e-09)
(2.58059e-07 1.4784e-08 1.28234e-10)
(9.41713e-08 -2.34938e-09 3.80566e-09)
(1.07738e-07 5.77119e-10 -3.29028e-09)
(2.03345e-07 -6.22959e-09 -1.95225e-10)
(1.48496e-07 -3.3921e-10 -2.54285e-10)
(3.76083e-07 -9.60964e-09 -1.09999e-09)
(1.85533e-07 -4.4171e-09 -3.2811e-09)
(2.79944e-07 -1.61089e-09 1.64801e-09)
(2.45615e-07 -3.29318e-10 1.03982e-08)
(3.21371e-08 5.19067e-10 -8.83406e-10)
(2.61191e-07 -1.01763e-09 2.21703e-09)
(4.73e-08 5.33109e-10 1.34274e-12)
(7.65177e-08 -2.26976e-09 -4.74011e-10)
(2.67399e-07 9.68265e-11 1.75222e-09)
(2.44641e-07 6.94995e-10 8.19785e-10)
(4.36048e-08 6.04887e-09 2.21978e-09)
(3.41682e-07 5.16478e-09 8.20214e-09)
(2.80612e-07 6.31309e-09 4.99516e-09)
(2.04853e-07 1.40833e-09 5.0022e-11)
(2.45715e-07 -1.56329e-09 -1.30316e-09)
(3.84854e-08 2.09519e-09 6.66854e-10)
(2.09928e-07 -1.6301e-09 1.49263e-09)
(1.06687e-07 -1.40602e-09 5.25859e-10)
(1.25587e-07 -3.97606e-10 9.48855e-10)
(2.57326e-07 -3.09081e-09 2.75107e-09)
(1.59716e-07 5.68085e-10 2.93024e-09)
(2.12233e-07 2.70108e-09 -3.91816e-09)
(2.22813e-07 -1.05286e-09 -1.37363e-11)
(6.16046e-08 -1.3504e-09 6.75746e-10)
(2.40015e-07 -4.94515e-09 1.54577e-09)
(1.92995e-07 1.30711e-10 -7.30773e-10)
(2.73935e-07 -3.25491e-09 1.87017e-10)
(2.09736e-07 -3.40536e-09 1.19554e-09)
(3.51443e-07 -3.73835e-09 6.32453e-09)
(1.74161e-07 1.67265e-08 3.7945e-09)
(3.09679e-08 -1.24233e-09 2.57732e-09)
(5.85841e-08 1.2492e-09 -4.21311e-10)
(4.61758e-07 -6.28858e-09 9.25099e-10)
(2.71473e-08 1.24973e-10 2.39876e-09)
(2.42379e-07 -3.29664e-10 4.81491e-09)
(1.03866e-07 -1.52158e-10 4.72764e-09)
(2.64725e-07 -9.57469e-10 1.59391e-09)
(2.99458e-07 -5.64147e-10 -2.56324e-09)
(2.86285e-07 3.93101e-09 -4.55617e-10)
(1.72601e-07 -5.54433e-09 1.55148e-09)
(3.35531e-07 9.69022e-10 -1.6665e-09)
(1.04314e-07 -3.43407e-09 9.70357e-09)
(1.22344e-07 -2.74571e-09 -2.36506e-09)
(1.65777e-07 -2.81278e-09 1.4164e-09)
(1.96665e-07 4.89977e-10 6.11985e-10)
(2.68483e-07 2.91104e-08 7.2439e-09)
(2.32084e-07 -8.72042e-09 2.38044e-09)
(9.03252e-08 6.12869e-10 -2.27656e-09)
(1.39342e-07 4.94794e-11 1.22022e-09)
(2.46923e-07 3.03064e-10 -3.34763e-09)
(1.67166e-07 1.40881e-10 1.86537e-10)
(3.27052e-07 3.84508e-09 3.20588e-09)
(1.71163e-07 1.11115e-09 3.16254e-09)
(4.32392e-07 -1.08429e-09 -6.76785e-10)
(1.93493e-07 -4.56388e-09 4.05439e-09)
(3.50002e-07 3.97203e-09 -7.35088e-10)
(2.23927e-07 2.95675e-09 -8.65175e-10)
(1.69914e-07 2.19544e-09 1.34791e-09)
(2.87735e-07 -8.88243e-10 1.64692e-09)
(1.47912e-07 -1.41611e-09 -1.68424e-09)
(3.72977e-08 8.43089e-10 -4.47765e-09)
(2.711e-07 2.72274e-09 3.24101e-09)
(8.93376e-08 -2.38735e-09 4.4874e-09)
(4.50421e-08 -1.43983e-09 2.54704e-09)
(3.37856e-07 1.16391e-09 3.00776e-10)
(1.8636e-07 -2.70505e-09 -2.35319e-10)
(1.4026e-07 -9.59755e-09 -5.63519e-09)
(2.03738e-07 4.22941e-10 8.75312e-10)
(2.73543e-07 -7.89259e-10 1.60898e-09)
(3.19272e-07 -1.42131e-09 -6.88343e-10)
(2.15362e-07 2.48621e-09 -5.25888e-10)
(4.55238e-08 2.13899e-09 -1.88206e-09)
(2.80465e-07 -6.41777e-10 -1.78361e-09)
(1.6777e-07 8.87373e-10 6.38494e-11)
(1.39047e-07 1.47579e-09 9.64829e-10)
(2.22598e-07 -1.58946e-09 1.92461e-09)
(1.97147e-07 1.6367e-09 2.85033e-09)
(1.77964e-07 -7.25091e-10 -6.42916e-10)
(2.1258e-07 -3.79817e-09 -2.5841e-09)
(2.44484e-07 -3.08379e-09 -1.71976e-09)
(1.8718e-07 1.65206e-09 7.72773e-10)
(9.55361e-08 1.7074e-09 7.97097e-10)
(3.00691e-08 2.41567e-09 -2.31404e-09)
(5.15713e-08 2.48412e-09 -1.46913e-09)
(2.74711e-07 -4.40067e-09 2.7202e-09)
(3.03458e-07 -2.03913e-08 2.35264e-08)
(1.23218e-07 -6.08429e-09 -9.6791e-09)
(1.39967e-07 2.40491e-09 3.80192e-09)
(2.71264e-07 -1.2713e-09 1.03368e-09)
(3.29877e-07 -3.07461e-09 2.45689e-09)
(1.90887e-07 1.4067e-09 1.11349e-10)
(3.35404e-07 -1.99671e-09 9.9155e-10)
(3.53983e-07 -2.55788e-09 5.96419e-09)
(2.04714e-07 2.24849e-09 1.79619e-09)
(1.24058e-07 1.17171e-09 7.57813e-10)
(3.81275e-08 -9.94398e-10 -6.02935e-11)
(2.43447e-07 -4.65518e-08 6.69583e-09)
(1.24535e-07 5.76894e-09 4.4686e-10)
(8.90582e-08 -5.34324e-09 4.1823e-09)
(1.01052e-07 -4.98291e-09 1.86777e-09)
(1.46804e-07 1.32964e-09 5.88855e-10)
(2.1815e-07 4.68904e-10 1.86672e-10)
(2.08336e-07 4.13389e-10 -4.74295e-10)
(2.86256e-08 7.0702e-10 8.576e-11)
(1.78664e-07 -2.49467e-09 -1.22171e-10)
(9.57726e-08 -9.58589e-10 -4.60953e-09)
(1.54084e-07 -2.07096e-09 7.21756e-10)
(7.96717e-08 2.4357e-09 -1.13859e-09)
(2.06475e-07 -2.69141e-09 -2.46666e-11)
(2.64485e-07 3.42575e-10 7.2151e-11)
(1.60827e-07 1.64072e-09 3.37466e-10)
(3.10957e-08 1.64885e-09 -2.51387e-09)
(1.60256e-07 1.40459e-09 2.14216e-09)
(2.39865e-07 -2.41112e-09 1.12914e-09)
(3.92201e-08 -1.95283e-09 -2.77076e-09)
(2.93477e-07 5.07031e-10 4.37152e-09)
(1.99835e-07 -2.79069e-09 4.10514e-09)
(3.10491e-07 4.05182e-09 -5.3216e-09)
(2.41782e-07 4.36705e-09 -1.04703e-08)
(1.06639e-07 2.95334e-09 -5.40919e-10)
(3.52276e-07 3.70207e-10 -2.29684e-09)
(1.61503e-07 -9.18539e-09 -9.45937e-09)
(2.50736e-07 4.23298e-09 2.2495e-09)
(1.66604e-07 7.89503e-09 8.36283e-09)
(2.03762e-07 -1.83444e-08 -3.9972e-09)
(1.8531e-07 3.60717e-09 -3.04147e-09)
(2.12593e-07 7.81604e-10 -2.05507e-10)
(4.3647e-07 3.17691e-09 1.45681e-09)
(1.1578e-07 -1.34766e-09 3.88895e-09)
(3.6265e-07 -1.81925e-09 -1.47991e-09)
(1.42796e-07 -1.63882e-09 -2.8428e-09)
(3.41639e-07 -3.23917e-09 6.53873e-10)
(2.61151e-07 -1.48532e-09 3.11437e-10)
(1.03761e-07 3.72202e-09 -9.46809e-09)
(2.22679e-07 3.39609e-10 1.87742e-09)
(3.78905e-07 -6.49575e-09 3.13828e-09)
(2.19297e-07 -1.37788e-09 2.48595e-09)
(2.02451e-07 -3.95261e-10 1.52824e-09)
(3.36307e-08 -2.88948e-09 -1.95472e-09)
(2.98605e-08 1.9356e-09 -1.30628e-09)
(3.04562e-07 1.1982e-09 -5.57491e-09)
(2.21697e-07 6.79568e-10 -1.58371e-09)
(1.68192e-07 -1.16394e-09 -4.44314e-10)
(5.50999e-08 -4.83177e-10 -2.78936e-09)
(6.88697e-08 -4.08012e-10 2.38484e-10)
(3.6767e-07 4.82932e-09 -7.39899e-09)
(1.23555e-07 1.72794e-09 5.58322e-10)
(2.4927e-07 2.28684e-09 -4.4351e-10)
(2.19116e-07 -1.64308e-09 -1.1321e-09)
(1.74706e-07 1.44013e-09 1.46264e-09)
(1.89238e-07 1.94024e-09 1.84305e-09)
(1.56268e-07 1.29818e-09 4.77078e-09)
(1.63166e-07 2.95148e-09 7.17019e-10)
(1.25065e-07 -5.24454e-09 -6.38328e-09)
(2.39341e-07 -1.23444e-09 -1.29155e-09)
(2.23004e-07 -1.1153e-09 -3.92528e-09)
(1.87926e-07 3.09515e-09 6.23209e-10)
(1.71202e-07 -1.08013e-10 7.61772e-11)
(3.40011e-07 4.3873e-09 -1.28435e-09)
(2.5591e-07 2.651e-09 2.39292e-09)
(1.08525e-07 4.51704e-09 7.23658e-09)
(6.59113e-08 5.1669e-11 -5.79996e-09)
(3.24584e-08 1.87736e-10 -2.32611e-09)
(1.99165e-07 2.1559e-09 1.38148e-09)
(2.20413e-07 -2.82982e-11 -1.61663e-09)
(2.63694e-07 1.82683e-09 4.35795e-09)
(2.03598e-07 4.04225e-09 3.68677e-09)
(3.98314e-08 -2.21374e-09 2.51002e-10)
(3.67525e-08 -2.90477e-09 4.99125e-09)
(2.03205e-07 -2.08339e-09 1.49063e-09)
(2.06811e-07 2.91502e-09 1.98765e-09)
(2.45485e-07 1.87935e-09 1.6561e-09)
(3.01992e-07 3.78678e-09 -8.02809e-11)
(2.10631e-07 -1.32039e-10 -9.78814e-10)
(2.50209e-07 2.39753e-09 -1.07412e-09)
(3.96585e-07 2.41313e-09 3.03128e-10)
(5.10105e-08 -3.41352e-09 3.38179e-09)
(1.93487e-07 -3.04518e-09 -3.5688e-09)
(1.00552e-07 1.80485e-09 3.01802e-09)
(1.03268e-07 -8.1448e-09 2.63398e-09)
(1.12691e-07 7.44277e-11 -3.95836e-10)
(1.76163e-07 6.82445e-09 -3.19179e-09)
(2.44408e-07 1.7442e-09 7.73451e-10)
(3.40604e-08 -4.635e-09 7.47983e-10)
(2.85531e-07 4.90033e-09 7.62722e-10)
(2.05125e-07 -1.13316e-09 1.23312e-09)
(1.63556e-07 2.22727e-09 1.23137e-09)
(2.42974e-07 -1.59052e-09 -3.81273e-09)
(1.49467e-07 4.87443e-10 1.2671e-09)
(2.00322e-07 2.64724e-09 1.29783e-09)
(2.50997e-07 1.62595e-09 -7.86446e-09)
(2.25175e-07 -4.49301e-10 6.99122e-10)
(2.00471e-07 -4.3612e-09 -2.6446e-09)
(2.17257e-07 -1.05345e-09 3.01677e-10)
(2.77402e-07 -1.26653e-09 -2.03902e-09)
(2.85471e-08 -2.51763e-09 3.80701e-09)
(2.36111e-07 1.16849e-09 -1.11227e-09)
(2.07858e-07 4.43e-09 -4.85464e-10)
(9.1433e-08 -4.45993e-09 3.32235e-09)
(2.21277e-07 -1.5367e-09 -7.02735e-09)
(2.87197e-07 1.53581e-09 -3.0341e-09)
(2.42207e-07 -5.11422e-11 1.53604e-09)
(1.59299e-07 1.94153e-09 -3.42608e-09)
(2.62543e-08 -3.73222e-09 -1.61528e-09)
(2.03704e-07 -1.05351e-09 -2.91826e-09)
(3.5717e-07 4.57102e-09 -5.99188e-09)
(2.03524e-07 -1.78157e-09 4.07498e-10)
(2.03365e-07 -6.75499e-09 -1.68759e-10)
(8.76834e-08 3.88997e-10 7.95939e-10)
(2.44561e-07 -4.45392e-09 -1.29968e-09)
(3.89443e-08 -2.26486e-11 -5.35068e-09)
(1.46432e-07 4.58697e-11 7.37102e-10)
(2.09211e-07 2.34464e-08 -8.68726e-09)
(2.07307e-07 -3.25964e-11 1.76733e-09)
(1.34952e-07 -9.68551e-10 6.92709e-09)
(2.02815e-07 -2.78823e-09 2.39721e-09)
(1.38314e-07 -2.79623e-09 -8.20758e-11)
(7.18117e-08 3.59109e-09 -1.25385e-09)
(3.36306e-07 3.44359e-09 -1.29988e-09)
(1.59289e-07 2.04172e-09 -2.10304e-11)
(2.99661e-08 2.04115e-09 3.10903e-09)
(2.32982e-07 -4.88375e-09 8.55715e-10)
(2.02689e-07 -4.00367e-09 1.16581e-09)
(5.98891e-08 -1.24835e-09 -2.91767e-09)
(1.79584e-07 -1.09962e-09 1.02913e-09)
(1.40449e-07 5.134e-09 3.25417e-09)
(1.66574e-07 -2.49096e-10 1.60963e-09)
(1.94299e-07 -2.11591e-09 3.72791e-10)
(4.64796e-08 1.62443e-10 2.01128e-09)
(1.27521e-07 -3.71966e-09 6.6867e-09)
(1.38704e-07 3.77317e-09 4.42299e-09)
(1.93482e-07 -2.5201e-10 1.73239e-09)
(2.48684e-07 -3.61142e-09 8.36034e-10)
(3.52394e-08 7.98336e-10 -2.08616e-09)
(3.29694e-07 -1.15379e-09 9.11953e-11)
(2.18467e-07 -1.03447e-10 -8.22837e-11)
(2.03846e-07 2.46127e-09 1.36254e-09)
(1.14344e-07 4.32467e-09 -4.66054e-09)
(2.85171e-07 5.56215e-10 1.12144e-09)
(3.4497e-08 1.80365e-09 7.32317e-11)
(2.53768e-07 -3.79264e-09 -1.03982e-09)
(4.39054e-08 -7.23385e-10 -2.43576e-10)
(1.89345e-07 2.34659e-09 1.75294e-09)
(2.00979e-07 3.23681e-10 4.70626e-10)
(1.94032e-07 -6.85303e-10 7.38495e-11)
(3.24797e-08 8.79079e-10 2.56733e-09)
(8.09624e-08 -3.56823e-09 -2.19223e-10)
(1.12967e-07 9.73777e-10 5.22551e-09)
(1.92574e-07 -7.58229e-09 -3.68913e-09)
(3.16026e-07 -9.57708e-10 2.92368e-09)
(7.40166e-08 2.39313e-10 3.96458e-09)
(1.89303e-07 1.00173e-09 -4.73455e-09)
(2.21899e-07 -5.8651e-09 -1.43782e-08)
(1.64851e-07 2.72552e-09 -1.60773e-10)
(5.18846e-08 -8.90522e-10 1.17561e-09)
(2.75127e-07 4.64409e-09 -3.10056e-09)
(1.65029e-07 1.25828e-08 -7.12798e-09)
(1.62275e-07 -1.68482e-09 5.91993e-10)
(1.41014e-07 -2.47063e-09 -2.92823e-09)
(1.37809e-07 2.03029e-09 7.64866e-10)
(1.57696e-07 2.73629e-10 -8.27995e-09)
(1.62399e-07 -1.26964e-09 -7.78691e-10)
(1.21562e-07 1.84559e-09 -1.81903e-09)
(1.11256e-07 7.02878e-10 -4.6535e-09)
(2.29582e-07 3.92797e-09 -5.49072e-10)
(9.44141e-08 -1.45659e-09 2.85593e-09)
(2.51865e-08 3.22644e-09 8.59784e-10)
(2.91568e-07 -5.48595e-09 1.1404e-09)
(1.41037e-07 2.74163e-09 -1.75446e-09)
(3.06838e-07 2.1473e-09 -2.11645e-09)
(2.44743e-07 -3.0193e-09 1.63906e-09)
(3.60443e-07 -4.49152e-09 1.64607e-09)
(1.99659e-07 3.02419e-09 5.68826e-09)
(3.44169e-07 -5.06716e-09 1.48401e-09)
(1.43923e-07 -5.49764e-09 2.8324e-09)
(1.16181e-07 1.35274e-09 -1.4742e-09)
(3.23019e-07 -7.85151e-09 3.46108e-09)
(5.42497e-08 -1.99658e-09 -2.30466e-09)
(2.90437e-07 -2.71471e-09 -1.74314e-09)
(1.62212e-07 -6.05996e-09 2.93486e-09)
(5.04274e-08 3.98878e-10 8.65878e-10)
(2.72783e-07 -1.44383e-09 1.71317e-09)
(9.26706e-08 -1.2749e-09 -6.04038e-10)
(1.96515e-07 -2.49543e-10 1.46389e-09)
(1.64632e-07 9.64526e-10 6.24631e-10)
(3.93754e-07 1.24607e-09 5.12583e-09)
(1.21999e-07 6.03295e-09 -8.3897e-09)
(2.30571e-07 2.8135e-10 1.52403e-10)
(1.89984e-07 -2.08388e-09 2.47582e-09)
(2.42085e-07 2.85252e-10 3.41707e-09)
(2.47834e-07 3.39967e-09 -1.08873e-09)
(2.21816e-07 1.12853e-10 1.05573e-09)
(1.26634e-07 1.94128e-09 -7.13708e-10)
(7.28681e-08 -6.82406e-10 -1.37491e-10)
(1.00638e-07 -4.05271e-10 1.5149e-09)
(1.37119e-07 2.50346e-09 -2.93231e-10)
(2.47326e-07 2.135e-09 2.04112e-09)
(4.20808e-08 1.42759e-09 -1.50319e-09)
(2.07211e-07 1.39504e-09 -3.929e-10)
(3.79459e-07 -4.27391e-10 6.55946e-09)
(2.85009e-07 -3.05322e-09 -2.87418e-09)
(2.95958e-07 -2.91318e-09 -2.06382e-09)
(2.90857e-07 -7.41986e-09 4.00273e-09)
(3.52031e-08 2.54224e-09 2.68006e-09)
(1.84954e-07 1.1212e-09 2.4128e-09)
(1.77272e-07 2.38521e-09 -1.84755e-09)
(2.33199e-07 -2.04937e-09 7.57855e-10)
(1.92494e-07 -2.81756e-09 4.48492e-09)
(5.71165e-08 3.37806e-09 -2.06621e-09)
(1.56459e-07 1.53704e-09 -4.1597e-10)
(1.87885e-07 1.89865e-09 5.23221e-09)
(2.57577e-07 1.91139e-09 2.54875e-09)
(2.07301e-07 -2.36501e-09 -1.66433e-10)
(1.85909e-07 -5.58561e-09 7.95587e-10)
(2.28952e-08 4.09866e-10 -1.23934e-09)
(3.22589e-08 -4.08421e-10 -1.92646e-09)
(1.41891e-07 -1.61589e-09 1.42964e-09)
(2.41291e-07 4.93013e-10 7.0236e-10)
(1.75362e-07 7.5115e-10 1.69917e-09)
(1.58826e-07 1.54077e-09 2.21425e-09)
(1.9328e-07 -6.48653e-09 -1.61838e-09)
(2.35172e-07 -5.11456e-10 -1.32054e-09)
(2.30848e-07 1.15444e-09 1.50034e-09)
(3.39791e-08 1.83057e-09 5.43956e-11)
(1.10727e-07 -1.45733e-09 8.82561e-10)
(1.77048e-07 -6.67054e-09 2.28992e-09)
(7.27417e-08 2.62084e-09 1.92442e-09)
(1.18167e-07 -3.14926e-09 2.56261e-09)
(3.1241e-07 -1.97669e-09 -3.90962e-10)
(2.09497e-07 2.30265e-10 7.08251e-10)
(1.92645e-07 1.31112e-09 1.58559e-09)
(2.60577e-07 -1.5642e-09 1.71305e-09)
(1.6958e-07 -4.1497e-09 1.92064e-09)
(2.55841e-07 -8.66703e-10 8.66819e-10)
(2.12916e-07 6.00918e-09 -8.30839e-09)
(3.57527e-07 2.27759e-09 -1.50397e-09)
(1.72867e-07 -2.53981e-09 -9.83074e-10)
(1.81296e-07 -2.96496e-09 2.26131e-09)
(2.48256e-07 -2.84411e-09 3.23538e-09)
(7.19142e-08 2.81351e-09 -1.42275e-14)
(4.67598e-07 -6.04051e-09 1.9259e-09)
(5.17349e-08 2.43465e-09 -2.27322e-10)
(1.52519e-07 -1.45097e-08 9.49579e-09)
(1.60666e-07 8.40595e-09 -3.32079e-09)
(1.58353e-07 -2.47078e-10 -9.32826e-09)
(2.2262e-07 3.08552e-09 1.70523e-09)
(3.04267e-07 -3.74653e-08 -6.12601e-09)
(1.09849e-07 -8.18523e-10 5.24057e-10)
(2.61904e-07 1.13232e-09 -1.49231e-09)
(3.10323e-07 1.594e-09 2.35628e-09)
(1.68284e-07 1.04978e-11 1.98353e-09)
(5.50392e-08 -1.6172e-09 2.68843e-09)
(1.18345e-07 -4.54021e-09 -3.25229e-09)
(2.10397e-07 -3.74608e-09 -2.62437e-08)
(1.67502e-07 -5.75336e-10 -2.35416e-10)
(1.11533e-07 -2.33821e-09 4.71234e-10)
(2.21946e-07 -4.94262e-09 -3.00487e-09)
(2.03446e-07 1.67931e-09 1.28965e-10)
(3.57144e-07 1.46073e-08 6.44445e-09)
(6.66836e-08 1.2146e-09 5.14251e-10)
(7.61737e-08 -4.67955e-09 -1.3594e-09)
(4.15854e-08 -2.05426e-10 2.72565e-09)
(3.28632e-08 3.67921e-10 -3.04438e-09)
(6.42079e-08 9.46058e-11 2.29391e-09)
(2.34088e-07 -1.71153e-09 2.96556e-09)
(1.78262e-07 1.64836e-09 7.3902e-10)
(3.09656e-08 -4.23378e-10 2.96272e-09)
(3.36277e-08 -1.23991e-10 2.96885e-09)
(2.70884e-07 1.28131e-09 -8.77483e-10)
(1.73013e-07 -1.78103e-08 1.39992e-08)
(7.24141e-08 7.46315e-10 1.33772e-09)
(2.16873e-07 2.86331e-10 1.4434e-09)
(1.16432e-07 1.61196e-09 -9.71634e-10)
(2.07639e-07 1.69267e-10 6.33047e-10)
(6.95622e-08 -2.65066e-10 1.00727e-09)
(1.31272e-07 8.58824e-09 -4.23024e-09)
(2.21236e-07 -6.92541e-10 -4.52265e-10)
(2.19971e-07 -1.1115e-09 9.22287e-10)
(3.72654e-07 -2.13506e-09 3.09555e-10)
(6.25576e-08 -4.76757e-10 4.16351e-09)
(3.79364e-08 -3.04236e-09 7.11481e-10)
(2.03577e-07 -2.76849e-08 -2.30444e-08)
(4.33643e-08 -2.86497e-09 2.43211e-09)
(3.22623e-07 -6.68672e-09 -5.5481e-09)
(4.53511e-08 2.60925e-10 -4.36778e-10)
(1.79899e-07 -1.2981e-09 3.99255e-09)
(2.40043e-07 -3.48698e-09 2.88086e-09)
(3.50169e-07 -1.18952e-09 1.01275e-09)
(9.202e-08 3.46021e-09 3.08362e-09)
(1.63582e-07 2.35345e-09 1.37898e-09)
(6.31155e-08 3.1252e-09 -1.01759e-09)
(4.49699e-08 3.991e-09 -2.07686e-09)
(2.04687e-07 1.79229e-10 -3.80654e-10)
(2.3752e-08 -1.73517e-09 -1.16611e-09)
(1.48114e-07 -1.99029e-09 1.30789e-09)
(9.39981e-08 4.06824e-09 -1.58827e-09)
(2.936e-07 1.38213e-09 -1.24054e-09)
(2.21119e-07 2.94627e-09 1.07192e-09)
(2.8394e-08 -9.64396e-10 2.48975e-09)
(2.05048e-07 -7.56887e-09 -1.02814e-08)
(2.25261e-07 4.45263e-09 1.92888e-09)
(4.6079e-08 1.68788e-09 3.13294e-09)
(2.42928e-07 -1.51494e-09 -9.73945e-10)
(1.16197e-07 -2.83845e-10 2.17077e-09)
(2.61018e-07 9.46672e-10 2.20619e-09)
(1.75298e-07 -5.76003e-10 -1.42406e-09)
(8.64517e-08 -2.05504e-09 2.94031e-10)
(3.2281e-08 8.63701e-10 -1.08184e-09)
(1.43374e-07 3.40582e-09 -7.69119e-09)
(2.4559e-07 3.74407e-08 7.82901e-09)
(2.67211e-07 3.99877e-09 6.42095e-09)
(1.07027e-07 -4.15643e-09 2.35325e-09)
(2.34879e-07 1.02849e-09 7.35673e-09)
(3.88538e-08 -9.37938e-10 1.1756e-09)
(1.54871e-07 -1.32692e-10 -1.27696e-09)
(3.58897e-08 -2.26951e-09 -2.9534e-09)
(2.82956e-07 -1.63734e-09 -2.06301e-09)
(2.95652e-07 -1.23662e-09 2.70365e-09)
(1.78576e-07 -1.64721e-09 5.94573e-10)
(2.1392e-08 1.52881e-09 -2.12707e-10)
(3.29658e-07 -5.99181e-09 4.05846e-10)
(2.14027e-07 2.5572e-09 -8.33222e-11)
(3.27675e-07 1.53462e-09 1.77785e-09)
(9.1658e-08 2.18073e-09 -2.70742e-10)
(2.23687e-07 -2.58823e-08 1.5722e-08)
(2.34454e-07 -2.87366e-09 -3.98968e-10)
(1.07464e-07 4.77364e-10 6.14893e-09)
(1.91544e-07 -2.34436e-09 1.89381e-10)
(2.09591e-07 6.043e-09 -3.9098e-08)
(1.96899e-07 2.13524e-10 1.11646e-09)
(4.82309e-08 5.81885e-10 2.0057e-09)
(1.5463e-07 -1.38254e-09 -2.5379e-09)
(1.4824e-07 -4.24399e-10 3.5948e-11)
(2.23938e-07 1.39756e-09 -2.9642e-09)
(5.03629e-08 -4.66989e-09 2.1463e-10)
(2.49521e-07 4.12883e-10 -2.94519e-09)
(2.23432e-07 1.04145e-08 -1.18249e-08)
(4.09969e-08 -1.40981e-09 -4.16242e-10)
(1.60519e-07 3.68093e-10 -4.42749e-10)
(1.5869e-07 -1.44224e-09 1.36077e-08)
(3.5708e-07 1.00229e-09 -5.81042e-09)
(1.62659e-07 1.92188e-10 -8.30023e-10)
(1.45092e-07 4.15717e-10 3.65899e-10)
(2.54771e-07 -2.10648e-10 -2.80633e-09)
(2.60793e-07 3.05901e-09 -1.75229e-09)
(1.14693e-07 -1.78201e-09 -2.46219e-09)
(1.01969e-07 3.03567e-09 -9.0489e-10)
(3.04532e-07 2.06755e-09 -2.19821e-10)
(2.25329e-07 -1.89743e-08 1.82629e-08)
(2.27428e-07 -4.80361e-09 2.48206e-09)
(2.02245e-07 6.70669e-12 1.51813e-09)
(1.6131e-07 -9.4161e-10 4.34863e-09)
(3.02726e-07 4.22543e-10 -7.71347e-10)
(1.72074e-07 6.11369e-10 3.74758e-10)
(2.1434e-07 4.07395e-09 9.30539e-10)
(2.79064e-07 2.42554e-09 -6.77451e-09)
(6.68548e-08 -1.49538e-09 -1.91969e-10)
(2.31574e-07 -2.72133e-09 3.71273e-09)
(5.78125e-08 4.75883e-10 1.29296e-09)
(2.86847e-07 2.48248e-09 4.12261e-09)
(2.58957e-07 -1.70663e-09 3.36078e-09)
(2.1553e-07 3.57297e-09 -5.56965e-09)
(1.91582e-07 8.20191e-09 2.46233e-09)
(2.96506e-08 2.07461e-09 1.59872e-10)
(1.28184e-07 -1.07382e-09 -9.17578e-10)
(1.10866e-07 -1.23692e-09 -5.09927e-09)
(2.06965e-07 2.61762e-10 -1.32334e-09)
(1.87523e-07 -1.15861e-09 1.11792e-10)
(2.20503e-07 -1.8757e-08 1.44239e-08)
(2.66696e-07 2.52623e-09 2.28887e-09)
(1.02064e-07 -7.61426e-10 -5.15442e-09)
(1.36967e-07 -3.94951e-09 1.0206e-08)
(2.52114e-07 1.38752e-10 2.96212e-09)
(4.39738e-08 -1.41232e-09 1.60172e-09)
(1.92186e-07 -1.21721e-10 -9.13426e-10)
(7.3323e-08 6.09426e-10 -6.5412e-10)
(1.96196e-07 1.2092e-10 3.24621e-09)
(5.15405e-08 6.26926e-09 -4.0488e-09)
(2.88026e-07 4.58321e-09 -4.90345e-09)
(2.03952e-07 -8.30772e-09 6.26218e-09)
(2.28885e-07 9.77237e-11 1.27971e-09)