/*--------------------------------*- C++ -*----------------------------------*\
| =========                 |                                                 |
| \\      /  F ield         | OpenFOAM: The Open Source CFD Toolbox           |
|  \\    /   O peration     | Version:  2406                                  |
|   \\  /    A nd           | Website:  www.openfoam.com                      |
|    \\/     M anipulation  |                                                 |
\*---------------------------------------------------------------------------*/
FoamFile
{
    version     2.0;
    format      ascii;
    arch        "LSB;label=32;scalar=64";
    class       volVectorField;
    location    "14";
    object      momentum:angularVelocity;
}
// * * * * * * * * * * * * * * * * * * * * * * * * * * * * * * * * * * * * * //

dimensions      [0 1 -1 0 0 0 0];

internalField   nonuniform List<vector> 
59516
(
(-0.00314276 -0.00105721 0.127676)
(0.00279663 -0.00242496 0.111149)
(8.37764e-05 0.000165834 0.123552)
(-0.00258661 0.00120369 0.129241)
(-0.00339463 -0.00127406 0.113287)
(-0.0102803 0.00546761 0.101004)
(0.000389115 -0.00193573 0.140217)
(-0.000257344 -0.00374797 0.12406)
(-0.000910848 -0.000188921 0.120964)
(-3.61117e-05 -0.00201846 0.0742261)
(-1.7639e-05 -0.00146005 0.133193)
(-0.00189206 -0.00604758 0.0829932)
(0.00115283 -0.000111875 0.139665)
(-0.000108004 -0.000924651 0.0320524)
(0.0014361 -0.000295877 0.0883899)
(0.000674999 0.000360953 0.0688459)
(-4.41914e-05 -0.000636799 0.139665)
(-0.00431249 0.000199124 0.0881306)
(0.0037377 -0.00147434 0.130302)
(-0.00111432 0.000373166 0.142612)
(0.00228958 0.000980122 0.0759513)
(0.00137379 -0.000825456 0.144304)
(0.000393748 -0.000588074 0.144212)
(0.000401612 0.001765 0.0504685)
(0.000235877 0.00200924 0.143377)
(0.00395077 0.00138517 0.084312)
(-0.00214192 0.00527471 0.0589642)
(0.00148033 -0.00143054 0.0605381)
(0.0028158 -9.55675e-05 0.0890017)
(0.00334477 0.00133449 0.0282889)
(-0.0211548 0.00138689 0.110598)
(0.00298947 0.00151398 0.0628485)
(8.45915e-05 -0.00280447 0.130489)
(0.00103535 0.00330821 0.121518)
(0.00247625 -0.000735135 0.133723)
(0.000795071 0.00154803 0.146102)
(-0.000633785 0.00304815 0.0238293)
(-0.005669 -0.00338724 0.0832679)
(0.00145159 0.00146164 0.121366)
(0.00189384 -0.00298616 0.142256)
(0.00177154 -0.000955303 0.118187)
(-0.00191212 -0.00184422 0.14129)
(0.00247662 -0.000709954 0.143473)
(7.18793e-05 -0.0041306 0.121893)
(0.000976506 -7.86576e-05 0.144535)
(-0.00453645 0.000451025 0.0703607)
(-0.00104459 -0.00323149 0.139802)
(0.000796798 -0.000205036 0.140537)
(-0.0132258 0.00208482 0.11194)
(-0.00039142 -0.00075584 0.134405)
(-0.0176544 -0.000349061 0.10368)
(-0.000912043 -0.00231265 0.0648707)
(0.00102508 0.00170051 0.13459)
(-0.000191775 -0.00137579 0.140699)
(0.00230293 0.000716541 0.0665511)
(0.00500339 -4.67716e-05 0.139748)
(-0.0042077 -0.000799346 0.132259)
(-7.24759e-05 -0.00503796 0.071773)
(0.00299701 0.0019048 0.136073)
(-0.00127517 -0.000331301 0.133388)
(0.000121599 -0.000847411 0.137562)
(-0.00100844 0.0027162 0.0319492)
(0.00229982 -0.00129358 0.131892)
(0.00130035 0.00151699 0.135839)
(0.00143117 0.00123405 0.137808)
(4.80906e-05 0.000665519 0.133014)
(-0.000504279 0.00424521 0.0409626)
(0.00196683 -0.00126794 0.0626566)
(-0.018904 0.00150536 0.121248)
(0.00130853 -0.00131947 0.136958)
(-0.000173017 -0.00109323 0.058117)
(0.000224894 0.000195616 0.136837)
(0.00247666 -0.00122387 0.031356)
(0.000242987 0.000265743 0.13934)
(-0.000855498 0.00145738 0.13781)
(0.00055371 -0.000632224 0.141829)
(0.00105422 -0.000871462 0.139319)
(-0.00119921 0.000530295 0.133929)
(-0.00207333 0.00132402 0.0663676)
(-0.000669318 0.000352011 0.131167)
(0.00219355 0.00228442 0.0554303)
(0.000347876 -0.000130444 0.131909)
(0.000113408 -0.000216434 0.133499)
(-0.00130931 -0.000278565 0.029832)
(0.000381882 -0.000462777 0.132633)
(-0.00101296 4.20556e-05 0.138154)
(0.00135084 -0.00161048 0.0443129)
(-0.000755505 0.000102925 0.145296)
(0.00257498 -0.00286398 0.0710684)
(-0.00557534 -0.00112071 0.122922)
(-0.00555819 -0.00194723 0.127512)
(-0.00143972 -0.000927411 0.128888)
(0.00119458 -0.000749268 0.139228)
(-0.000223406 -0.000340623 0.128341)
(0.000169633 -0.00208253 0.131159)
(-0.00879763 0.00122433 0.110083)
(-0.00168938 -0.00117935 0.135008)
(-0.000878995 0.00284376 0.0771106)
(0.00158126 0.00103765 0.0844548)
(0.000495485 -0.000291562 0.136629)
(-7.76378e-05 0.000453374 0.052412)
(0.00322794 0.000239817 0.0372855)
(0.0028145 0.00144384 0.0375802)
(-0.00338834 0.00197443 0.0766692)
(0.00192916 0.000632003 0.130756)
(-0.000641072 0.000907142 0.126571)
(-0.00108465 -0.00244232 0.0593182)
(-0.000892027 0.000833419 0.117586)
(0.00220084 0.00242508 0.117741)
(-8.04965e-05 0.000974483 0.0959056)
(-0.0143325 0.00042334 0.127222)
(0.00137648 -0.000542699 0.0466)
(-0.00162808 0.00529532 0.0924203)
(-0.0149446 0.000927495 0.125042)
(-0.00143131 0.000861924 0.140513)
(0.00373308 -0.00208288 0.119249)
(0.00055948 0.00177011 0.0691877)
(-0.00167936 0.00064801 0.133522)
(-0.00130775 -0.00262005 0.0352622)
(-0.00181876 -4.48765e-05 0.132515)
(0.00020928 -0.000966768 0.139524)
(0.00178835 0.000711361 0.137099)
(-0.000468518 -0.00133564 0.138541)
(0.00126593 0.00219847 0.135863)
(-0.00926987 0.00226439 0.133996)
(-0.000623425 0.002058 0.109262)
(-0.000127339 -7.27728e-05 0.0472958)
(-0.00261045 0.00214602 0.139609)
(-0.0118934 0.00203617 0.0932538)
(0.00159031 4.82247e-05 0.134531)
(0.0017852 -0.00154169 0.13539)
(0.00293525 0.00248167 0.130437)
(0.000221768 -0.00237642 0.0367811)
(0.00109067 0.0012859 0.142529)
(-0.000628066 0.000608108 0.127197)
(-0.00189437 0.00180053 0.131667)
(-0.010593 0.00237445 0.118573)
(0.00268609 0.000124392 0.143193)
(7.73784e-05 0.00172841 0.0559577)
(0.000705222 -0.00184031 0.120385)
(-0.0010541 0.000490849 0.0633795)
(-6.36821e-05 0.00130805 0.134546)
(-0.00229151 -0.00225898 0.0304953)
(0.001015 0.00117926 0.125081)
(-0.000489897 0.00103172 0.133929)
(-0.00157221 0.0014456 0.137646)
(0.00185481 -8.35276e-06 0.143594)
(0.00215722 0.00197122 0.134441)
(0.000925942 -0.00150021 0.0631952)
(0.00260666 0.000576446 0.126611)
(-0.000943163 -0.00131795 0.12792)
(0.00115211 -0.000702523 0.0508473)
(0.00253851 -0.000385929 0.142831)
(0.0011441 -0.000449108 0.137386)
(0.000125324 -0.000283211 0.116183)
(-0.0021848 0.00112637 0.0310048)
(0.000510572 0.00356019 0.127848)
(-0.000489551 0.000888511 0.132737)
(-0.000771534 0.0018779 0.110583)
(-0.00223338 -0.00289963 0.0305878)
(0.00151994 0.00135871 0.0890136)
(0.0012982 -0.00050113 0.0929875)
(0.00166437 -0.000270236 0.0529139)
(0.000424628 -0.000159902 0.0394958)
(0.00369943 -5.71028e-05 0.123981)
(-0.00127522 0.000287856 0.141556)
(-0.00221862 -0.000587822 0.0797879)
(-0.000521765 -0.000293204 0.136908)
(0.00076301 0.00241493 0.0323965)
(0.00113355 0.000736004 0.126724)
(0.000682382 -0.003308 0.106121)
(-0.00023685 0.000324044 0.0732677)
(0.00101932 0.000317578 0.0891635)
(0.000351517 -0.00142732 0.13261)
(0.00154198 0.001383 0.0722083)
(-0.0010604 -0.00319204 0.140751)
(0.000496238 -0.00135846 0.137001)
(0.0028989 0.000334809 0.145408)
(-0.00313581 -0.00411191 0.0919151)
(0.00198252 0.00143674 0.0631962)
(0.00222344 -0.00162981 0.140821)
(-0.000916346 0.00280681 0.0499177)
(0.000479778 -0.00345824 0.0419624)
(0.00311731 0.00287273 0.0880183)
(0.000468546 -0.00141655 0.136219)
(-0.000504973 0.00164638 0.0734447)
(-0.00256607 0.00115204 0.051368)
(0.00221148 -0.00246482 0.0340286)
(0.000435977 -0.00126159 0.132562)
(0.00370408 0.00142371 0.120458)
(-0.00168257 -0.00152519 0.13373)
(-0.0026924 -0.00306169 0.0731751)
(-0.00101465 -0.000176631 0.140715)
(0.00304082 -0.00128064 0.0799644)
(0.0016174 0.00104772 0.143121)
(-0.00106262 0.000100972 0.0427402)
(5.15153e-05 0.000789386 0.0766673)
(-0.00191518 -0.00171286 0.0561072)
(-0.00333259 -0.00138173 0.121905)
(0.000394045 0.000970006 0.143475)
(-0.00420226 -0.00304798 0.10021)
(0.0013806 0.000447286 0.131804)
(0.00182492 0.000669819 0.127811)
(0.000509949 -0.00120024 0.0320526)
(-0.000345551 0.000287851 0.136172)
(0.00244023 0.000343175 0.137251)
(0.000316 0.000444488 0.137231)
(-0.000308214 0.0012602 0.128797)
(0.000683225 -0.00156378 0.0329998)
(0.000547798 0.00216742 0.132477)
(-0.00204632 0.00407733 0.0632522)
(-0.00279132 -0.000190393 0.0351171)
(-0.00149854 0.000674831 0.143101)
(2.79072e-05 -0.000885991 0.0794125)
(0.00147666 -0.00241243 0.136176)
(-0.00151168 0.000489466 0.136699)
(-0.000623701 0.00104933 0.138703)
(-0.00062226 -0.00075245 0.13997)
(-5.80089e-06 0.0055335 0.0764517)
(0.00154542 -0.000445603 0.142282)
(-0.00127218 0.000610269 0.0809058)
(0.000216854 0.00140331 0.122801)
(-9.1696e-05 -0.0011986 0.133097)
(0.00044403 -0.00152911 0.0650755)
(-0.00119771 -0.00164696 0.13387)
(-0.000165614 0.000437201 0.13506)
(-0.00255354 -0.00119776 0.0411859)
(-0.000214783 0.000896215 0.068754)
(-0.00229909 0.00125139 0.134972)
(0.000886745 0.00448744 0.076278)
(0.000576054 0.00113219 0.141927)
(-0.00161364 0.000302834 0.133631)
(-0.00122293 -0.000481347 0.13339)
(6.14677e-05 -0.0013071 0.0387312)
(0.000738028 0.00134039 0.0445935)
(0.000524109 0.00132435 0.0533097)
(0.00168663 -3.45643e-05 0.0877606)
(0.00191011 -4.54276e-05 0.113261)
(-0.000425582 0.000402349 0.137972)
(2.94804e-05 -0.000481306 0.0685383)
(0.00172127 0.000508268 0.133523)
(0.00124577 0.00234511 0.0318039)
(0.00469092 0.0014955 0.0743757)
(0.00302508 0.00301578 0.0399704)
(0.00126813 0.0003416 0.132485)
(0.000852865 0.00037517 0.119744)
(0.000424635 -0.000686866 0.136195)
(-0.00128906 -0.000798565 0.0916335)
(0.00208871 0.000431844 0.14189)
(0.000486235 0.00143192 0.125428)
(0.00316846 -0.000341876 0.142862)
(0.00096459 -0.000208179 0.136126)
(0.00141207 0.000716183 0.132149)
(0.00170725 0.000341898 0.135046)
(0.0010895 7.49331e-05 0.137724)
(-0.00081421 -0.000637826 0.139842)
(0.00154534 -0.000751652 0.0748402)
(0.000303748 0.000572266 0.138453)
(-0.000931863 0.000925822 0.0624142)
(-0.00368809 0.00171756 0.0827343)
(-0.00360646 0.000137603 0.135365)
(0.000876676 0.00146344 0.136197)
(0.00206897 0.00104294 0.133328)
(0.000167423 0.00149929 0.137859)
(0.00294394 0.00284689 0.115565)
(0.00205479 -0.00405824 0.0768024)
(-0.00081336 -0.00132259 0.139609)
(0.00620683 -0.00113935 0.110148)
(-0.00239422 0.00224754 0.0691448)
(-0.000738533 0.00214289 0.0731022)
(0.00308102 0.00194516 0.118877)
(-0.000249704 -0.000293287 0.134922)
(-0.00221257 0.00212118 0.119178)
(-0.00337888 -0.000300895 0.114382)
(-0.000664371 0.00091116 0.136982)
(0.00113262 0.00489272 0.118567)
(-0.000888786 -0.000620073 0.0339907)
(0.000377251 0.00126359 0.141194)
(0.000443742 0.0001243 0.0408863)
(0.000517559 0.00167209 0.0577615)
(-0.00064472 -0.000590915 0.133259)
(0.000479265 -0.000358812 0.136281)
(-0.00347577 0.00451285 0.0385489)
(0.00150565 -0.00361783 0.138137)
(0.000513455 -0.00402685 0.141503)
(0.00063206 0.000694305 0.136486)
(0.00110275 7.3018e-05 0.133429)
(0.00174742 -0.00139073 0.0390901)
(-0.00138555 -1.39133e-05 0.131606)
(-0.00133164 -0.0012129 0.128013)
(-1.72393e-05 -0.00109883 0.134152)
(-0.000722807 -0.00208913 0.137477)
(-0.00236422 -0.000446618 0.128747)
(-0.00244737 -0.000718507 0.11375)
(5.14812e-05 0.0006722 0.14266)
(0.00105697 0.000212253 0.0439818)
(0.00139543 -0.00256112 0.135112)
(-0.000183541 0.000512181 0.141444)
(8.93452e-06 -0.00160877 0.135174)
(-0.000200155 -0.00224165 0.130787)
(0.00127128 -0.00246578 0.132708)
(-0.00028592 -0.00733973 0.0745859)
(-0.000674019 -0.00319488 0.0353417)
(-0.000704692 -0.000763621 0.0461751)
(-0.000981905 0.00178436 0.147957)
(-0.00180816 0.00194327 0.0299995)
(0.000739771 0.00158791 0.087977)
(-0.00331345 8.27368e-05 0.0727815)
(0.000533404 -0.000829364 0.140392)
(-0.000840663 -0.000878623 0.138743)
(-0.00163421 -0.0010557 0.140747)
(0.000765037 -0.0026222 0.0818894)
(0.000670608 -3.55307e-05 0.116885)
(0.00321101 0.00508008 0.0609042)
(-0.000358683 0.00223221 0.0763276)
(-0.000358144 -0.00244995 0.130335)
(0.000460246 0.000173723 0.123408)
(-0.0119478 -0.00104248 0.107339)
(0.0012402 -0.00404765 0.10869)
(-0.00107644 -0.00112536 0.0596631)
(0.000645068 -0.000390866 0.0860604)
(0.000420732 -0.00170234 0.128817)
(0.000179352 -5.94824e-05 0.135128)
(-0.00205742 -0.000577004 0.139595)
(-0.00123935 0.00238134 0.137078)
(-0.000279909 0.000316766 0.143001)
(0.000234278 -0.00354469 0.112597)
(-0.000938811 0.00119619 0.131753)
(-0.000284513 0.00181847 0.133785)
(-0.0011826 -0.00173498 0.138486)
(0.000900118 -9.51873e-05 0.139185)
(-0.00111859 0.000407898 0.0800333)
(0.00413885 0.001283 0.0354707)
(-0.000891517 -0.00197319 0.138675)
(0.00204601 0.00274131 0.0601216)
(0.00299782 0.00125459 0.0500286)
(-0.00027111 0.000409361 0.137991)
(8.71778e-05 0.00198158 0.136135)
(-0.000220182 0.00624465 0.0787466)
(-0.000563265 0.000338554 0.13773)
(0.00082129 0.000387894 0.138636)
(-0.000637527 0.000201986 0.135203)
(0.00139431 -0.000867129 0.139152)
(-0.00215833 -0.0020212 0.0472471)
(-0.000595984 -0.000747313 0.141429)
(0.000614047 0.000359018 0.134134)
(0.000959274 0.000353353 0.0806182)
(0.000755146 -0.00130512 0.134467)
(0.000831343 0.00210782 0.135908)
(0.000719922 -0.000147062 0.13494)
(0.00273659 -0.000725016 0.131004)
(0.00185805 -0.000563426 0.134438)
(0.000236823 -0.00127796 0.133387)
(0.00152501 -0.000715742 0.0854125)
(-0.00143457 0.00503785 0.0470844)
(-0.00171072 -0.00188172 0.0454437)
(-0.00193983 0.0011077 0.118614)
(-0.00991163 -0.0015067 0.0977184)
(-0.00735295 0.000443019 0.0793924)
(0.00282963 -0.00181002 0.104508)
(0.000741019 0.00016764 0.125781)
(-0.00158126 -0.000571456 0.140926)
(0.000318571 0.000915505 0.131129)
(-4.51246e-05 0.000975002 0.146845)
(-0.00204136 0.0015094 0.138482)
(-0.00153156 -0.00115652 0.136519)
(-0.00143833 -0.000448573 0.133947)
(-0.000215558 0.00128022 0.0496864)
(-0.0221888 0.00125844 0.115041)
(0.00196373 0.00330525 0.0827462)
(0.00150262 0.00408282 0.0571008)
(-0.00306089 0.00108637 0.0616774)
(-0.000688683 -0.00116812 0.136892)
(0.000268174 -5.28911e-05 0.118149)
(-0.000426426 4.15173e-05 0.141871)
(-0.000803452 -0.000204454 0.0333224)
(0.00186429 -8.56225e-05 0.133498)
(-0.00020164 -0.00321537 0.0655352)
(0.000173352 0.00192923 0.136089)
(-0.000889137 -0.00212959 0.0683838)
(0.00050873 0.00100183 0.0861943)
(3.8069e-05 -0.000165704 0.128446)
(0.0005031 0.00127655 0.13174)
(0.00307058 -0.000426854 0.0320654)
(0.000871401 0.000870134 0.0770409)
(0.00115413 -0.000938834 0.134036)
(0.000245964 -0.00310349 0.0360202)
(-0.00198533 -0.000101882 0.132569)
(0.00150282 -0.00278525 0.127409)
(0.00192605 -0.00218237 0.13512)
(0.00245364 -0.00476636 0.114253)
(-0.00107197 -0.00261486 0.100374)
(-0.000242016 -0.000924444 0.144696)
(-0.00668245 -0.00259066 0.0877877)
(-0.0022552 -0.0013258 0.136836)
(-0.00822213 0.000494935 0.119324)
(-0.00751823 0.00218781 0.0849795)
(-0.00201635 0.000334335 0.0802728)
(-0.000414696 -0.000325308 0.138647)
(0.000654033 -0.000943489 0.143368)
(0.00126036 -0.00235791 0.0752102)
(-0.000810087 0.000456462 0.143788)
(-0.0021611 0.0015837 0.116595)
(0.00134411 2.75644e-05 0.138991)
(0.000806833 -9.26227e-06 0.138848)
(-0.00186023 -0.00631666 0.0671605)
(0.00109595 0.000388952 0.135731)
(0.00269867 0.000541352 0.144565)
(0.00184125 0.000148808 0.142525)
(0.00111344 -6.67793e-05 0.143059)
(0.00114676 -0.00292472 0.0302851)
(-0.00160682 -0.00184845 0.0313192)
(-0.000998324 0.00224933 0.131441)
(-0.000269402 -0.00102127 0.135873)
(0.000822893 0.000580863 0.135979)
(-0.00186918 0.00194501 0.0525048)
(0.000530118 -0.000716686 0.129906)
(0.000223309 -0.00310623 0.129591)
(-0.00168946 0.000806206 0.127369)
(0.00128994 0.000262836 0.140871)
(-0.000227279 -0.00123195 0.137569)
(9.17942e-05 -0.00161401 0.137595)
(0.000480166 -0.00190907 0.139204)
(0.00343798 -0.00102221 0.113362)
(-0.00250492 0.000224639 0.135105)
(-0.00190541 0.00484098 0.0787573)
(-3.14614e-05 0.00103205 0.138322)
(-0.00186687 -0.00141116 0.127891)
(-0.00189813 0.0012191 0.134275)
(8.76875e-05 5.5754e-05 0.134595)
(0.000806233 -0.00177554 0.145037)
(0.000232902 0.00193074 0.139357)
(0.0016043 0.00474153 0.0636802)
(-0.00128021 -0.00413059 0.0491413)
(-0.0024613 -0.000394121 0.0346696)
(-0.00148577 0.000805418 0.131454)
(0.0010137 2.04732e-05 0.138216)
(-0.000242203 0.00241029 0.135181)
(0.00165436 -0.00317345 0.13318)
(-7.41665e-06 0.00226119 0.0404263)
(0.00361337 -0.00474132 0.037938)
(0.000495863 -0.00153427 0.127902)
(0.000637209 0.00222644 0.135747)
(-0.00133994 0.000421833 0.137669)
(0.00150069 -0.00104769 0.145926)
(-0.000505944 -0.000442562 0.143351)
(-0.000308198 0.00137141 0.133871)
(0.000686917 -0.000533525 0.141828)
(-0.00337324 0.00202815 0.0417845)
(-0.00294629 -0.00107577 0.129359)
(0.00175177 -0.00208777 0.0779289)
(-0.00618259 -4.90372e-05 0.0745879)
(0.000482231 2.46171e-05 0.135099)
(0.00298277 -0.00388453 0.114518)
(0.00109475 0.00015753 0.141678)
(-0.00233705 0.00429405 0.0354668)
(0.00237926 -0.000721837 0.14315)
(0.000574047 0.000962711 0.137289)
(-0.00206038 0.000296184 0.133772)
(-0.0017755 -0.000533232 0.109033)
(-0.000589965 -0.00106335 0.13388)
(-0.00193348 -0.000203563 0.132098)
(0.00393261 0.000108488 0.122958)
(-3.07428e-05 -0.000490248 0.133095)
(0.000683068 0.00291271 0.11759)
(0.00045158 0.000531615 0.138294)
(-0.00111272 -0.000526266 0.142251)
(0.00323993 -0.00374574 0.0309762)
(-0.000907037 0.000235546 0.137157)
(0.00194885 0.00187664 0.126189)
(-0.000878658 -0.00377114 0.0636609)
(0.000380269 0.00375019 0.115951)
(0.000439867 0.00159448 0.139689)
(-0.00031372 -0.000822272 0.138697)
(-5.60527e-05 0.00276445 0.111851)
(-0.00227923 0.00381284 0.0286776)
(-0.00168635 0.00126003 0.138212)
(0.000885937 0.00263772 0.131872)
(-0.000616181 0.00108286 0.138747)
(0.00121409 -0.00426668 0.13351)
(-0.000550986 -4.19313e-05 0.0546917)
(0.000344932 -0.0025751 0.136948)
(-0.00416066 0.00312905 0.0378907)
(-0.000273443 -0.000634245 0.136945)
(-0.0122007 0.00116421 0.102548)
(-0.000174359 -0.00114985 0.136396)
(-0.00107035 0.00384207 0.0769522)
(0.00170955 0.00124355 0.116601)
(0.00227384 5.32001e-05 0.112456)
(-0.000590759 -0.00263982 0.0510711)
(0.00107378 -0.000937337 0.130231)
(-0.000815209 0.00143497 0.12875)
(-0.00442127 -0.000581972 0.0359302)
(0.00136088 -0.00251888 0.134531)
(-0.000659703 -0.00257726 0.129312)
(0.000291825 0.00292983 0.0555639)
(-0.00068469 -0.000181554 0.0844635)
(-0.00172431 0.00270721 0.0741636)
(-0.00131656 -3.8754e-05 0.134701)
(0.00143782 -0.000290802 0.132662)
(-0.000341241 0.00183901 0.0430839)
(-0.0010216 -0.00428147 0.0733572)
(-0.00282705 0.00136321 0.0748797)
(-0.000604807 0.00095986 0.125388)
(0.00172252 -0.000956702 0.132185)
(-0.00179747 -0.001167 0.0338098)
(0.00020597 0.00046144 0.143946)
(4.07446e-05 7.42747e-05 0.140018)
(-0.00176406 -0.000484623 0.132558)
(-0.0024415 -0.00438218 0.0902177)
(0.000215446 0.000597075 0.144603)
(0.00138915 0.00103497 0.0331053)
(-0.00218122 -4.128e-05 0.140778)
(0.000410701 -0.000598509 0.0417529)
(-0.00101959 0.000745736 0.0816589)
(0.000344837 -0.000181206 0.137067)
(-5.29463e-05 0.000290497 0.0831229)
(-0.00281011 6.13659e-05 0.0336421)
(-0.00244024 0.00058629 0.056837)
(0.00297177 0.00078292 0.0653125)
(-0.00354215 -0.000868127 0.0832902)
(0.00127888 0.000529129 0.142168)
(0.00335538 -4.28396e-05 0.0625344)
(-0.000661374 -0.00193314 0.0799225)
(-0.00880926 -0.000438088 0.126039)
(-0.00166539 0.00137952 0.130573)
(-0.000542382 0.00104221 0.0413332)
(-0.00133128 0.00224448 0.128576)
(-0.00754894 -0.00258613 0.0910606)
(0.00138781 -0.000606192 0.137615)
(-0.000639763 0.00207714 0.0799956)
(-0.00178553 0.000984681 0.129518)
(-0.00207902 0.00379582 0.0823819)
(0.00066071 -0.000915052 0.123064)
(-0.00274407 -0.00071509 0.133025)
(0.000773615 -0.00311487 0.0758725)
(0.00234424 -1.98631e-05 0.135702)
(-0.000217287 -0.00213304 0.0631429)
(0.00313137 -0.00243564 0.0299241)
(0.00198572 -0.00165143 0.134392)
(-0.00179051 -0.00245759 0.131752)
(-0.000818094 0.00104096 0.13474)
(-0.000630192 0.00176898 0.133779)
(0.00177875 -0.000418822 0.137692)
(0.00121344 0.00248319 0.0856571)
(0.00213087 -0.000376274 0.141046)
(-9.6287e-05 0.00349368 0.0813358)
(-0.00228182 5.03129e-05 0.132532)
(0.00258407 -0.00238896 0.132481)
(-0.00242254 0.000766973 0.0452086)
(0.000534626 0.00155057 0.147655)
(0.00284453 0.000892689 0.0718233)
(-0.000127197 -0.000791082 0.0423823)
(1.12909e-05 0.00120108 0.146242)
(-0.000413401 -0.000846823 0.0619011)
(-0.00100404 -5.83315e-05 0.133092)
(0.000847591 0.000346276 0.131176)
(-0.00157965 0.000946279 0.137448)
(-0.00546131 0.00127339 0.066206)
(0.000192892 3.76152e-05 0.141614)
(0.00186941 0.000179201 0.110252)
(-0.00159933 0.00115145 0.139133)
(0.00173178 0.000962419 0.13755)
(-7.31992e-06 0.000668604 0.139691)
(-0.000354912 -0.00213538 0.132533)
(0.000389212 -0.000470258 0.0638987)
(-0.000944755 -0.000603818 0.0719555)
(-0.00225523 0.000992032 0.134029)
(-0.000714702 -0.00149779 0.138962)
(-0.00221528 -0.000272654 0.0453069)
(-0.00071254 -0.000617671 0.134821)
(-0.000728779 0.00234781 0.141911)
(0.000280819 0.00206065 0.141355)
(0.000430253 0.00162368 0.139245)
(0.00309222 0.00237759 0.134571)
(-0.00248787 0.00283845 0.0359695)
(0.000283049 0.00202118 0.141876)
(0.00174265 0.00101804 0.118584)
(-0.000567244 -0.00110226 0.132304)
(-0.000536649 -0.00306038 0.112922)
(-0.00312176 -0.00023468 0.0451548)
(-0.000632145 0.00117023 0.130688)
(-0.00295207 0.00150778 0.111894)
(-0.00105448 -0.00136567 0.139499)
(0.000920488 0.00125707 0.136231)
(-0.000775953 0.00389386 0.13083)
(0.00132831 0.000867299 0.0278243)
(-0.00206835 0.000169058 0.0339948)
(-0.00151808 -0.0012705 0.130188)
(-0.000458797 5.2367e-05 0.129844)
(-0.00103238 0.00100228 0.13582)
(-0.00220729 0.000345117 0.131539)
(-0.0028635 0.00244565 0.108871)
(-0.000730343 0.000381612 0.136845)
(0.000470095 0.0010272 0.137754)
(0.00104371 0.00149416 0.0338162)
(-0.000999742 -0.00171051 0.128762)
(-0.00499521 0.00222256 0.137251)
(0.00235777 0.000891902 0.0563954)
(0.000810084 0.00239592 0.0736092)
(0.00063363 0.000701027 0.146508)
(-8.01214e-05 -0.000486148 0.138599)
(0.00142945 5.21305e-06 0.133844)
(0.000930796 -0.000769675 0.135671)
(-0.0024968 0.00230211 0.125949)
(0.000482402 0.000438421 0.136054)
(0.00283971 -0.0047007 0.114037)
(0.00061189 -0.00091583 0.144281)
(0.000202647 -0.00208486 0.132958)
(0.00211196 -0.00181854 0.135503)
(0.000229885 -0.00231521 0.134082)
(0.000986243 -0.00204259 0.0579764)
(0.00188543 -0.000274084 0.140517)
(0.00136152 -0.00181397 0.0479867)
(-0.0109513 -0.000971014 0.0966993)
(-0.000421925 -0.00449021 0.080172)
(-0.00723944 -0.00124413 0.124652)
(-0.00189991 -0.000979922 0.134993)
(-0.0152875 0.00123428 0.122926)
(0.000319625 -0.00112336 0.132006)
(0.000388595 -0.000926272 0.140438)
(-0.000817864 -0.000994725 0.140476)
(0.00128513 0.000876394 0.13197)
(0.00262347 0.00117344 0.0504182)
(-0.00475797 9.89881e-07 0.100823)
(-0.014133 0.00115675 0.112543)
(0.000445815 0.000212754 0.133104)
(0.000337278 0.00260622 0.122883)
(-0.00359292 -0.000517208 0.139282)
(0.000685031 0.000870267 0.133782)
(0.00428 0.00370859 0.126683)
(-0.000268846 0.000964441 0.0506183)
(-0.00135619 0.00447501 0.0730942)
(0.00229872 0.000351473 0.035379)
(0.0024779 0.00237197 0.0367605)
(-0.00151584 0.000775485 0.0476189)
(-0.00175737 0.00108405 0.141166)
(-0.000613358 0.00121682 0.13447)
(-0.00265216 -0.00239172 0.036951)
(-0.0028624 -0.00105537 0.0345254)
(0.000741868 0.000237487 0.135872)
(-0.0125768 0.00369379 0.100111)
(-0.000935924 -0.000676009 0.0545783)
(0.000858508 -0.000407071 0.14003)
(-0.000737064 -0.00166098 0.112413)
(0.000398587 -0.000164718 0.136659)
(-0.000915975 -0.000162897 0.0621347)
(-0.00365238 -0.00387299 0.0729961)
(-0.00020826 0.000422995 0.126109)
(-0.000364244 -0.00081533 0.136004)
(0.000616699 -0.000534285 0.140943)
(-0.00155887 -0.00289034 0.0490213)
(0.000101935 -0.00286805 0.0348453)
(-0.0189609 -0.000855471 0.107269)
(-0.000890088 0.00311706 0.0374052)
(0.00046487 0.00370416 0.138619)
(-0.00040896 -0.000185847 0.040041)
(0.000437958 0.00287167 0.124476)
(-0.00219503 0.00125041 0.134067)
(0.000463837 0.000426847 0.141289)
(0.00308081 -0.000992356 0.0642611)
(-0.000482608 0.00181633 0.112707)
(-0.00220531 -0.00173973 0.0539408)
(-0.00406496 0.000277103 0.0407253)
(0.000230833 -0.00015195 0.134446)
(-0.00166374 0.00190854 0.0287658)
(0.00106978 -0.00186551 0.133743)
(0.00180134 -0.00265926 0.0691311)
(-0.000575986 -0.000664247 0.138989)
(0.000850798 -0.0017489 0.137167)
(0.00235443 0.00156911 0.030089)
(0.00306542 -0.00407609 0.0819121)
(0.00156008 0.00243447 0.134227)
(0.00337227 -0.00134409 0.0470056)
(0.000550553 -0.000816967 0.132883)
(0.000137858 0.00139949 0.0746389)
(-0.000124844 0.00118334 0.129372)
(0.000559841 0.00104012 0.134795)
(-0.000919343 0.000881077 0.0530284)
(-0.00121608 -0.000758734 0.0334245)
(-0.00396562 0.0016979 0.0735286)
(-0.0173934 0.000189007 0.111683)
(-0.00338839 -0.000517752 0.121085)
(-0.000877363 0.00314719 0.0732101)
(0.00333256 -0.000123265 0.105446)
(0.00110114 0.00136191 0.045247)
(0.000564685 0.000963512 0.13472)
(0.00310383 0.00162108 0.0337408)
(-0.00120253 0.000540362 0.141635)
(0.00138599 0.000324578 0.141558)
(0.000884732 0.000971414 0.133983)
(-0.00192922 0.000116762 0.0267862)
(0.00165581 0.00204879 0.1446)
(-0.000906786 0.000954167 0.110112)
(-5.6948e-05 0.00102589 0.143353)
(-0.00129027 -0.00125081 0.0749555)
(-0.0146471 0.00143687 0.10871)
(-0.00142261 0.00102947 0.141909)
(-0.0019729 0.00287721 0.0607878)
(-0.000716521 -0.00149637 0.135113)
(-0.0204666 0.0012361 0.108625)
(0.000726904 -5.37256e-05 0.126258)
(0.00175783 0.000855301 0.045147)
(-0.000203941 0.00134347 0.0727048)
(-5.97633e-05 0.000384376 0.135388)
(-0.00131651 -0.00147353 0.135026)
(0.00115793 -0.00423501 0.0472994)
(-0.000908747 -0.00115958 0.123607)
(-0.000601692 0.00569863 0.0812538)
(-0.00136133 -2.69577e-05 0.0379744)
(-0.000394452 -0.000290551 0.13658)
(-0.00891054 0.000621164 0.103585)
(-0.00183622 -0.00147719 0.14272)
(-0.000686314 -0.000206718 0.136844)
(0.000446464 -0.000268243 0.136457)
(0.00144051 0.000443111 0.13644)
(0.0014847 -0.00104909 0.134486)
(-0.00102306 -0.00143033 0.0663599)
(-0.00127502 -0.0010358 0.0528804)
(0.000952224 -0.000181288 0.141973)
(-0.0125998 -0.000323201 0.107841)
(0.000687038 0.00303826 0.131022)
(-0.000201166 -0.00100773 0.136897)
(0.00170096 0.00217345 0.100059)
(0.000251029 -0.000314182 0.138422)
(-0.000482725 -0.000304584 0.136967)
(0.00211285 -0.000748198 0.114965)
(0.00170853 0.00278176 0.126607)
(0.00107441 0.000622062 0.0550526)
(0.00182837 0.000367532 0.0938187)
(0.00114796 0.00084371 0.0597807)
(-0.00117111 -0.00200334 0.138319)
(-0.00135165 -0.00145984 0.136683)
(-0.000461789 0.00363613 0.119385)
(0.00425556 -0.00286491 0.114769)
(0.00174147 -0.00150339 0.0327838)
(-0.000142273 -0.00102368 0.0937943)
(-0.00247456 -0.00293914 0.0811796)
(-0.000845671 0.000244241 0.135048)
(0.000815558 -0.000246103 0.137241)
(-0.011241 0.000299882 0.104792)
(-4.43356e-05 0.00175055 0.136998)
(-0.00474519 0.0016907 0.0986759)
(-0.00814915 -0.000105845 0.102002)
(-0.00073271 -0.00142596 0.136303)
(0.00169038 -0.000894043 0.0393775)
(0.000254179 0.000605693 0.136994)
(0.000463205 0.000632066 0.0642688)
(-0.00218296 6.96755e-05 0.131911)
(0.00348769 -0.00513111 0.0428472)
(0.00316106 0.000501044 0.137343)
(-0.00518125 0.000191052 0.101643)
(0.000217291 0.000736651 0.136968)
(0.00171929 -0.00209182 0.132245)
(0.000312578 -0.00145844 0.132779)
(0.00105977 0.000904988 0.136272)
(0.00219154 -7.09014e-05 0.133529)
(-0.000706129 0.00108997 0.0442814)
(-0.000138267 0.000322216 0.0654915)
(6.5123e-05 -0.000595763 0.0406016)
(0.000519624 0.00196016 0.136019)
(0.000372998 0.000131083 0.135412)
(0.00241606 0.000922708 0.131731)
(0.00105733 0.000436969 0.141992)
(0.00283695 -0.00162987 0.0317415)
(0.00137389 -0.00101859 0.120204)
(0.00218289 -0.00275454 0.104771)
(-4.65382e-05 0.000458696 0.136797)
(-0.00207649 0.00504618 0.132258)
(-0.00109126 0.00025754 0.133809)
(0.000170995 0.00212985 0.121935)
(0.000651909 0.00171717 0.134132)
(-0.00187384 0.00152452 0.0297331)
(-0.000614497 0.000449348 0.102645)
(8.71727e-05 0.000941211 0.132922)
(-0.00058025 0.00462528 0.0426377)
(-0.00108363 0.00324294 0.0607106)
(0.00270739 0.0020368 0.0821523)
(-0.00213729 -0.00245001 0.0334653)
(-0.00194751 0.00133581 0.112958)
(-0.00106269 0.000324944 0.133252)
(0.000656356 0.00487342 0.0822853)
(0.00195285 0.00119687 0.0287836)
(0.000301785 0.00141006 0.124274)
(-9.3255e-06 -0.000622593 0.0395798)
(0.00058468 0.0011118 0.116617)
(-0.00163478 -0.000241986 0.135789)
(-0.000577426 -0.000202541 0.135322)
(0.000680274 -0.000505732 0.135306)
(0.00196659 0.000258046 0.139232)
(-0.000919871 -7.14985e-05 0.135041)
(-0.00204931 0.00152098 0.1406)
(0.00266687 -0.00136112 0.0653977)
(0.000691689 0.00044276 0.135336)
(0.0021072 -0.00195277 0.136145)
(-0.00319451 0.0017702 0.103202)
(0.00121988 -0.00415102 0.112871)
(4.82915e-05 -9.42835e-05 0.136638)
(0.00125893 -0.000142979 0.13277)
(0.00590859 0.00451783 0.091907)
(0.00164277 0.00150197 0.140454)
(-0.000375041 -0.00105486 0.0469259)
(0.00199066 -0.00103012 0.111957)
(-0.000892069 0.00225443 0.114342)
(-0.000381027 -0.000477951 0.081904)
(0.000582952 6.64626e-05 0.137005)
(-0.0176882 -0.000942861 0.108581)
(-0.00172311 -0.00110382 0.134431)
(-0.000542129 0.000976603 0.0493679)
(0.00447542 0.000285792 0.0380162)
(-0.00358751 -0.000199898 0.0808569)
(0.000241889 -0.000300424 0.031665)
(-0.000881363 0.000709019 0.135217)
(-0.000709117 0.00261549 0.130392)
(-0.0011698 -0.00137923 0.134087)
(-0.0109377 0.00295044 0.121488)
(-0.0011556 0.00172921 0.125188)
(-0.00135666 0.00219258 0.128385)
(0.00389325 0.00522834 0.0333132)
(0.000247507 0.00167192 0.130182)
(-0.00765402 0.0028816 0.125122)
(-0.000454479 0.000984023 0.0626351)
(0.00098304 0.00185336 0.0330993)
(9.23254e-05 -0.00359501 0.124096)
(0.000592286 -0.00218107 0.12995)
(-0.00376415 -0.00102442 0.0409896)
(-0.000985958 0.00273025 0.143547)
(0.000980996 -0.00430292 0.0337015)
(-0.0010943 -6.09673e-05 0.136261)
(0.000458229 0.000732711 0.138985)
(-0.00208777 -0.00238039 0.127603)
(-0.000409477 -0.000759708 0.13829)
(0.00106734 0.000435566 0.139551)