/*--------------------------------*- C++ -*----------------------------------*\
| =========                 |                                                 |
| \\      /  F ield         | OpenFOAM: The Open Source CFD Toolbox           |
|  \\    /   O peration     | Version:  2406                                  |
|   \\  /    A nd           | Website:  www.openfoam.com                      |
|    \\/     M anipulation  |                                                 |
\*---------------------------------------------------------------------------*/
FoamFile
{
    version     2.0;
    format      ascii;
    arch        "LSB;label=32;scalar=64";
    class       volScalarField;
    location    "14";
    object      nut;
}
// * * * * * * * * * * * * * * * * * * * * * * * * * * * * * * * * * * * * * //

dimensions      [0 2 -1 0 0 0 0];

internalField   nonuniform List<scalar> 
59516
(
0.00018518
0.000213254
0.000302363
0.000559421
0.00150549
0.000186407
0.000454923
0.000202211
0.00024452
0.000167763
0.00179331
0.000131728
0.000242104
0.000205431
0.000161234
0.000133106
0.00154096
0.000146242
0.0002516
0.00112987
0.000205456
0.000745243
0.000918346
0.000187827
0.000903809
0.000156989
0.000183969
0.000214925
0.000169465
0.000181088
0.000273025
0.000206366
0.000521253
0.000303354
0.000707244
0.000627008
0.000171867
0.000132909
0.000150619
0.00095905
0.000195511
0.00100843
0.000790896
0.000245584
0.000679029
0.000135013
0.000417754
0.00136705
0.00107804
0.00118056
0.000641483
0.000188471
0.000285426
0.000321303
0.000225116
0.000414163
0.00134241
0.000201808
0.00152426
0.00062084
0.000852158
0.000193991
0.00140594
0.00133838
0.000403297
0.000930769
0.000250831
0.000183233
0.000558667
0.000532163
0.000276292
0.00128377
0.000217724
0.00068133
0.00152034
0.00112409
0.0014689
0.000759774
0.000187021
0.00119204
0.000176636
0.000997224
0.000721903
0.000200618
0.000971532
0.00142536
0.000176628
0.000729908
0.000139392
0.000168855
0.00124892
0.000695005
0.00148334
0.00066822
0.00131551
0.00135966
0.000744749
0.000134232
0.000144238
0.000821024
0.000204218
0.000224808
0.000221231
0.000133247
0.000535879
0.000896471
0.000195277
0.00023672
0.000215167
0.000167562
0.000477842
0.000245236
0.00016851
0.000280807
0.000966036
0.000191414
0.000138262
0.000565933
0.000203458
0.000694725
0.00189587
0.00136424
0.00106263
0.00149209
0.000632874
0.000135861
0.000244762
0.000632979
0.000289052
0.00160037
0.00191505
0.00023922
0.00019787
0.000745181
0.000172482
0.000265171
0.00019697
0.000384227
0.000193449
0.000203149
0.000191275
0.00187163
0.000175577
0.000414417
0.00172612
0.000692186
0.000586349
0.000294134
0.000254178
0.000236635
0.000182972
0.000174347
0.0012107
0.000870665
0.000153633
0.000194925
0.00034185
0.000257284
0.000128044
0.000195235
0.000195113
0.000190517
0.000182518
0.000231736
0.000185416
0.00125103
0.000152888
0.0016593
0.000184306
0.00066449
0.000139609
0.00012281
0.000144319
0.000689278
0.000168626
0.000464265
0.00142427
0.000875575
0.000171325
0.000158784
0.000728441
0.000168058
0.000254448
0.000132768
0.00180849
0.000128436
0.000155368
0.000189816
0.000299331
0.000187466
0.000536542
0.000128548
0.00111857
0.000108905
0.00088052
0.000145806
0.000134553
0.00016025
0.000324783
0.000815927
0.000175269
0.00187464
0.00018315
0.000179565
0.000439388
0.000643371
0.00170896
0.00111798
0.000194805
0.000290042
0.000141922
0.000225148
0.000738903
0.000147645
0.000302086
0.00136406
0.000641261
0.000985103
0.000144413
0.00106872
0.000147558
0.000250915
0.00133799
0.000211458
0.00152969
0.00147012
0.000232231
0.000185873
0.00148936
0.000134495
0.00154562
0.00135445
0.00192713
0.000213387
0.000168796
0.000155902
0.000126758
0.00019829
0.00110108
0.000149589
0.00176867
0.000205445
0.000130234
0.000230753
0.00183191
0.000129406
0.000857472
0.000167615
0.00134117
0.00022022
0.00114525
0.000652428
0.00190575
0.000754389
0.000759305
0.000957516
0.000135928
0.0009845
0.000182243
0.000170082
0.000464497
0.00121978
0.000282702
0.00152181
0.000217746
0.000115738
0.0011217
0.000146306
0.000242682
0.000114183
0.000194691
0.0015152
0.000152734
0.000164633
0.00128928
0.000140664
0.000189652
0.00112409
0.000215292
0.000188077
0.00183562
0.000613342
0.000233673
0.000323978
0.000393773
0.00137806
0.00179969
0.000234338
0.00188614
0.00209063
0.00173945
0.000499653
0.000649021
0.000161038
0.0013947
0.000255047
0.00110554
0.00066246
0.001964
0.00145467
0.000242218
0.000122919
0.000202636
0.000218512
0.00106919
0.000200266
0.00020401
0.000147918
0.00129506
0.00135836
0.000823611
0.00013463
0.000202838
0.000197579
0.00013272
0.00125252
0.000168325
0.00123445
0.00016364
0.000164595
0.000180343
0.000233483
0.00173927
0.00182699
0.00198377
0.00109034
0.000182638
0.000461969
0.00145464
0.00120011
0.00116263
0.000139205
0.00021768
0.0009396
0.000180305
0.000177267
0.00123954
0.00079071
0.000136782
0.00160328
0.00130906
0.00184457
0.00158284
0.000164662
0.00101474
0.00183344
0.000135173
0.00168453
0.00173166
0.000529912
0.000453966
0.00101303
0.000718355
0.000109834
0.00017779
0.000184617
0.000175072
0.00018121
0.000279363
0.000132287
0.000305325
0.000448061
0.0018649
0.000932637
0.000419804
0.000908673
0.000956227
0.000192772
0.000340568
0.000144941
0.000167708
0.000187989
0.00128988
0.000164196
0.00109946
0.000188798
0.000469964
0.000187191
0.00133996
0.000110737
0.000148718
0.000195716
0.00184575
0.000215122
0.000143268
0.000610258
0.000202862
0.000486036
0.000293394
0.000491626
0.000184601
0.000182775
0.00111364
0.000154259
0.00193238
0.000220473
0.000156964
0.00015421
0.00167267
0.00164931
0.000121275
0.000410735
0.000197346
0.00174529
0.00168252
0.000201394
0.000472247
0.000746618
0.000790062
0.00111191
0.000213664
0.000206013
0.000408531
0.00162859
0.00184706
0.000181275
0.00157138
0.000178636
0.00163993
0.00155635
0.00172864
0.00160973
0.00143822
0.000162035
0.00187585
0.000149946
0.0013191
0.000238735
0.00106192
0.00162141
0.000719224
0.000735819
0.000166255
0.000179461
0.000193535
0.00155103
0.00195487
0.000661567
0.000386642
0.000157274
0.000208462
0.000316754
0.000959575
0.00178352
0.00095222
0.000521419
0.00188902
0.000501901
0.000227188
0.000346631
0.000148821
0.00026937
0.00102299
0.000158217
0.000682766
0.000206821
0.00167236
0.00177294
0.00186817
0.00013431
0.00111705
0.00149503
0.000441438
0.00188446
0.000171445
0.00142848
0.000841456
0.000193949
0.00184868
0.000309899
0.000192509
0.000143055
0.00133062
0.000442293
0.000135308
0.000196763
0.00146267
0.000351988
0.0011334
0.000386798
0.000160489
0.000643896
0.000223068
0.00123052
0.000783488
0.00144742
0.000217634
0.000236645
0.000176496
0.000139187
0.0019454
0.00177413
0.000225804
0.00116251
0.00202927
0.00020903
0.000152364
0.000132454
0.00102434
0.00183656
0.000255689
0.00012929
0.000120111
0.000291806
0.00196438
0.000214311
0.00101549
0.000979158
0.00169021
0.000233415
0.00123851
0.000199306
0.00116622
0.000203064
0.000124547
0.00105386
0.000138199
0.000208435
0.000198398
0.000197264
0.000144198
0.00071141
0.00013374
0.000135778
0.000982494
0.00151727
0.000223905
0.000202311
0.00014723
0.00149663
0.000135717
0.00154736
0.000146957
0.000446487
0.00186388
0.000169709
0.00158276
0.000198103
0.000190524
0.000722827
0.00188287
0.000510921
0.000389069
0.00146808
0.000175283
0.00122544
0.000138658
0.00175011
0.000380349
0.000227736
0.000874136
0.000208591
0.000227286
0.000727263
0.000165977
0.000579818
0.00177926
0.000401509
0.000119866
0.00161858
0.000146198
0.00192187
0.00165965
0.00164128
0.00179908
0.000175348
0.000146702
0.00170168
0.00123372
0.000188513
0.00121362
0.00175098
0.00151583
0.0016067
0.000260371
0.000195727
0.00167879
0.000242062
0.00109415
0.000175625
0.000232274
0.00177632
0.000174488
0.000541919
0.001603
0.000688869
0.000160161
0.000208492
0.00165993
0.00138178
0.001905
0.000992493
0.000136862
0.000873829
0.00144366
0.000189674
0.00188276
0.000655323
0.000199007
0.000136881
0.000615743
0.000715667
0.000530247
0.000333064
0.000213824
0.00187658
0.000186278
0.00146496
0.00145471
0.00179134
0.00160466
0.000208788
0.00108798
0.000173656
0.000215418
0.000148748
0.00122527
0.000542007
0.00026146
0.00163164
0.00150252
0.00088502
0.00142725
0.000174047
0.00151335
0.000880835
0.00176324
0.000283565
0.00068783
0.00152712
0.000252652
0.000161325
0.000118159
0.000213614
0.000225153
0.000246992
0.000469925
0.000677863
0.00021707
0.00020821
0.00210585
0.000240089
0.000180211
0.000779943
0.00022402
0.000490365
0.000205178
0.000129445
0.000278336
0.00152128
0.000869644
0.000175172
0.000201686
0.000394904
0.0002401
0.000512659
0.000229788
0.000227782
0.00185936
0.00151971
0.000179461
0.000186622
0.000155718
0.000234506
0.0017036
0.00018587
0.00140194
0.000219382
0.00102122
0.000680378
0.000197113
0.000132987
0.000856781
0.000176539
0.00126498
0.000136911
0.000205399
0.00184222
0.000168698
0.000205465
0.000188655
0.000721568
0.000205706
0.000128024
0.000101375
0.0001594
0.00183526
0.00021444
0.00127963
0.000664053
0.00141866
0.000187875
0.000685647
0.000137626
0.000955391
0.000153529
0.000954479
0.0009891
0.000155473
0.00200008
0.000519731
0.000326396
0.000167388
0.000221344
0.00181959
0.000419544
0.000170582
0.000234065
0.00013865
0.000214037
0.00171851
0.00129468
0.000422472
0.00149342
0.00163029
0.00142905
0.000467835
0.000183796
0.000178092
0.0016491
0.00108422
0.000271229
0.000452456
0.000114716
0.000712552
0.00126237
0.000182166
0.000181274
0.000227239
0.000195211
0.000195575
0.000947931
0.00154351
0.000141597
0.000171515
0.000183716
0.000127684
0.000146341
0.00165761
0.00167313
0.0012394
0.00116751
0.000124477
0.000843498
0.000534116
0.000238379
0.00172626
0.000122608
0.000565604
0.000241034
0.00137869
0.00137858
0.00104669
0.00026418
0.000826529
0.000734248
0.00191144
0.000187752
0.00022268
0.000147045
0.00164164
0.00101184
0.000576009
0.00103078
0.000179576
0.000192893
0.000166272
0.00157869
0.000433115
0.000820692
0.000235573
0.00183347
0.000201507
0.000147698
0.00110752
0.000234036
0.000166097
0.00015036
0.000205773
0.000194427
0.00145641
0.000146857
0.000190123
0.000223255
0.000211526
0.00017426
0.00158058
0.00199807
0.00156395
0.00118497
0.00169038
0.000357394
0.000161616
0.00141686
0.000416065
0.000132842
0.000212404
0.00125223
0.000232933
0.000144413
0.00088094
0.000178485
0.000134407
0.000190382
0.000162387
0.00100853
0.000299071
0.000398493
0.000170019
0.000239283
0.000130296
0.000192343
0.000359892
0.00114401
0.000440683
0.000194479
0.000647185
0.000954468
0.000209797
0.00120904
0.00121831
0.000156176
0.000212155
0.000297653
0.000208585
0.000213697
0.00113069
0.000205572
0.00165036
0.00105948
0.000443422
0.00102042
0.00104854
0.000189375
0.00183878
0.000184106
0.000178346
0.000199521
0.00021029
0.000184136
0.000800419
0.000797377
0.00160354
0.00149602
0.000128709
0.00105353
0.00192312
0.000167243
0.000210113
0.00133443
0.000181428
0.000209812
0.00124536
0.00173695
0.00104533
0.000155019
0.000418966
0.000201076
0.000146329
0.00021136
0.000176477
0.000446945
0.000118305
0.00116968
0.00171625
0.00174142
0.000532273
0.000261715
0.000404699
0.000197929
0.000183684
0.000376204
0.000591285
0.000486813
0.00164816
0.000819578
0.00191327
0.00169224
0.000228664
0.000308488
0.00147551
0.000199809
0.000637345
0.000967086
0.000170635
0.00091582
0.00172719
0.000201738
0.00154199
0.00188559
0.00157485
0.000151471
0.00151569
0.000202443
0.000201205
0.00148878
0.000219718
0.000139573
0.000124253
0.000334472
0.000160146
0.000933472
0.0014764
0.0015419
0.00102902
0.000154712
0.000226115
0.00101851
0.00117064
0.00031294
0.000168003
0.00102869
0.00166153
0.00159741
0.000203278
0.00179647
0.000163287
0.000166491
0.000201354
0.000133451
0.000130952
0.00167453
0.000154709
0.00135239
0.00152229
0.00136674
0.0018887
0.00148998
0.00153789
0.00157905
0.00185941
0.00156974
0.00045889
0.00035404
0.000187377
0.000132559
0.00120103
0.000373063
0.000192354
0.00126237
0.000226716
0.00195506
0.00200085
0.00190883
0.000860176
0.000158732
0.00167977
0.000298772
0.000162052
0.00187756
0.000189581
0.00175055
0.000175845
0.000119004
0.00124119
0.000147064
0.000183876
0.00141499
0.00114587
0.000787345
0.000163167
0.00157993
0.000167852
0.000157934
0.000141631
0.000131962
0.000171044
0.00197333
0.0001498
0.000967591
0.00122558
0.000265395
0.00183918
0.00196915
0.00027513
0.00182038
0.00161592
0.000156296
0.00186656
0.000189573
0.000174554
0.00165988
0.00112161
0.000264937
0.00167814
0.000236559
0.00011139
0.00152618
0.000216388
0.00128492
0.00160847
0.000266648
0.000231112
0.000232673
0.000201176
0.000188376
0.000526966
0.000436212
0.000197294
0.000185087
0.000216752
0.00137999
0.00119631
0.00197748
0.00172619
0.000168319
0.00111961
0.00158813
0.000240556
0.000715293
0.000182044
0.000323655
0.00108529
0.00196421
0.000136878
0.00112954
0.000140982
0.000262354
0.000198462
0.000336013
0.000155192
0.000186043
0.000376337
0.000203835
0.00114619
0.000200666
0.00173907
0.000212436
0.00185831
0.000184716
0.000119001
0.000159224
0.000638796
0.000199265
0.00123319
0.00092723
0.000114761
0.000233614
0.000209588
0.00193236
0.000874897
0.00168929
0.000209192
0.00011358
0.000851533
0.00014859
0.00026917
0.00179363
0.00077721
0.000133083
0.000634692
0.000226433
0.000144799
0.000959656
0.00191968
0.000182735
0.000951746
0.000335715
0.000225168
0.00128009
0.00109661
0.00189534
0.000819425
0.000197682
0.000236717
0.00125647
0.000721353
0.000223417
0.000175471
0.000189057
0.00124098
0.000165746
0.00125637
0.000128126
0.00150615
0.000207861
0.000510971
0.000337326
0.0012504
0.00187378
0.00052117
0.000668869
0.000159782
0.0001733
0.00089922
0.000539386
0.000204467
0.000250966
0.00140875
0.000830308
0.00127163
0.000208711
0.000601326
0.00115539
0.00155227
0.000159766
0.00018816
0.000132182
0.000744123
0.000125978
0.00017018
0.00022999
0.00163104
0.000231798
0.000159459
0.00120962
0.00122455
0.0001352
0.00132156
0.00162457
0.000207682
0.000230032
0.00157316
0.00174136
0.000176592
0.000176016
0.0017537
0.000223442
0.000237818
0.000109883
0.00176859
0.00144423
0.00172222
0.00065523
0.00123985
0.000205463
0.000153348
0.00175296
0.00151951
0.000183612
0.00100016
0.000124019
0.000131841
0.000192615
0.00090768
0.000234855
0.000893793
0.000558484
0.000156006
0.000170288
0.000206095
0.00190002
0.00180611
0.000303158
0.00158096
0.000235295
0.000854027
0.000207078
0.000163875
0.000244756
0.000209756
0.000699053
0.000182377
0.000115587
0.000159594
0.000282884
0.000760001
0.000160166
0.000988572
0.00149634
0.000244525
0.00013382
0.000235952
0.0012556
0.000168819
0.000337165
0.000369178
0.000163071
0.000199197
0.000787041
0.000142623
0.000167347
0.000194302
0.000486518
0.00180322
0.00045848
0.000497804
0.000143701
0.000222758
0.000169214
0.000177145
0.000203075
0.0016742
0.000174906
0.000714695
0.000237502
0.000216882
0.000498978
0.000262943
0.000330194
0.000189017
0.00125249
0.000245643
0.000197044
0.00175155
0.000166824
0.000435143
0.00014364
0.000102744
0.00014937
0.000802056
0.00020899
0.00183086
0.00202724
0.000466019
0.000111466
0.000165491
0.00117042
0.000190292
0.00126951
0.00132453
0.0016233
0.000145459
0.00102589
0.00134099
0.00110055
0.00125724
0.000158529
0.000197655
0.00147251
0.000207909
0.000149149
0.00190313
0.000415797
0.000492625
0.000166988
0.000243427
0.000213404
0.000130305
0.0011679
0.00132722
0.000407701
0.000193517
0.000166099
0.000820024
0.000364217
0.000162741
0.00200235
0.00113362
0.00127315
0.00147369
0.00176505
0.00113012
0.000684194
0.00031269
0.0003295
0.000254404
0.000107081
0.000118524
0.00182239
0.000488298
0.000189445
0.000123195
0.00152285
0.000122429
0.000755978
0.000176567
0.00133161
0.000807838
0.000254789
0.00171568
0.00140415
0.00123754
0.000178608
0.000250844
0.00159813
0.00185243
0.000199672
0.000143624
0.000409045
0.00170568
0.000598596
0.000186932
0.000230572
0.000667535
0.000132312
0.00150959
0.000292952
0.000218839
0.000364499
0.000204867
0.000133114
0.00019881
0.000975599
0.000802809
0.00160203
0.000215975
0.000141997
0.000113473
0.000897516
0.000115775
0.00013743
0.000150768
0.00180986
0.000186121
0.00176934
0.000759375
0.00015518
0.000154032
0.000233379
0.00114996
0.0017349
0.000679539
0.000375809
0.00018007
0.000201187
0.000164076
0.000197087
0.000160819
0.000229954
0.000171013
0.0019655
0.000160038
0.000159169
0.000128126
0.000229605
0.00116814
0.000227726
0.00127973
0.00197905
0.000669917
0.00015561
0.00171551
0.000169805
0.000166222
0.00180762
0.00117939
0.000328689
0.00180747
0.00139568
0.000209904
0.000435078
0.00111996
0.00171213
0.000167484
0.000979606
0.00165386
0.000220909
0.000118854
0.000164426
0.000239069
0.00180344
0.000179005
0.000144404
0.00116871
0.000184869
0.000248763
0.00020559
0.000139296
0.000178429
0.00020622
0.000111737
0.000191015
0.000181171
0.000178942
0.000209504
0.000211386
0.000117337
0.00180338
0.000191375
0.00161154
0.000433787
0.000828763
0.000237007
0.00120017
0.000171287
0.00114716
0.0014979
0.000167244
0.00195609
0.000439729
0.000180853
0.000360693
0.000137185
0.000257014
0.000164162
0.000575982
0.00017313
0.000193059
0.000885254
0.000702268
0.00180572
0.00135499
0.000193122
0.000271824
0.000164347
0.000939931
0.000599171
0.000573979
0.00144477
0.000156678
0.00102818
0.000500837
0.00101744
0.000198962
0.000231976
0.000310288
0.000161519
0.00183869
0.000579668
0.000248897
0.00058013
0.000257858
0.000239702
0.000145574
0.000574958
0.000696602
0.0018081
0.000983277
0.000294147
0.000115868
0.000236405
0.000218655
0.000230037
0.000253522
0.000139254
0.000263266
0.00111087
0.000207082
0.000319884
0.000159605
0.000202435
0.00179785
0.000126409
0.00126122
0.000401584
0.00148505
0.000182698
0.000210758
0.000346386
0.000865248
0.000223154
0.00048041
0.000139659
0.000245545
0.00167459
0.00088727
0.00170052
0.000177741
0.000175921
0.000174348
0.000217613
0.000153924
0.000143337
0.000157823
0.000214669
0.00153339
0.000198947
0.00014299
0.000138019
0.000765602
0.00110935
0.00012545
0.000448491
0.000194376
0.00018251
0.000906845
0.000205864
0.000127335
0.000177355
0.00030999
0.00018502
0.000842467
0.000148466
0.000193378
0.00135368
0.000235429
0.0013494
0.000212001
0.000169642
0.000383479
0.000160123
0.000842674
0.000257855
0.000185436
0.000182897
0.000580426
0.000356767
0.000802951
0.000145939
0.000205612
0.000137441
0.000148043
0.000361462
0.000141839
0.000220821
0.000211185
0.000284268
0.000189649
0.000140973
0.00163734
0.000148175
0.000824546
0.00111878
0.000177904
0.000216536
0.000328954
0.000231551
0.000997465
0.00133472
0.000148202
0.00097384
0.000197419
0.000310649
0.000217843
0.000232026
0.000275479
0.00190339
0.00017911
0.00124454
0.000378946
0.000145127
0.000484289
0.000168483
0.00142902
0.000207215
0.000990249
0.000349069
0.000689256
0.000398373
0.000172804
0.000207451
0.00188072
0.00168989
0.000180442
0.000212691
0.000163109
0.000328717
0.000160549
0.000186198
0.000170361
0.000872376
0.000148259
0.00168158
0.000258757
0.000564834
0.00018403
0.00167325
0.000241478
0.000147914
0.00147812
0.00165072
0.000502611
0.00025265
0.000184116
0.00194129
0.00195506
0.000942937
0.000747066
0.00112758
0.000174854
0.000464738
0.000852825
0.000478762
0.00015094
0.00040271
0.00162427
0.000589682
0.00148981
0.00204993
0.000127866
0.000938559
0.000176571
0.00115345
0.000182586
0.000614228
0.000929431
0.00131564
0.00159393
0.000180185
0.00196608
0.000139748
0.000223281
0.00043295
0.000209318
0.00098273
0.000207093
0.000203448
0.000120544
0.000169539
0.000433355
0.000142175
0.000226955
0.000619794
0.000192882
0.00159433
0.000207344
0.000196951
0.000150394
0.000196133
0.000243459
0.00109295
0.000127234
0.00101693
0.00167809
0.00116379
0.00129893
0.00154508
0.00103355
0.00166398
0.000652416
0.000251821
0.000216198
0.000550938
0.000233289
0.000250238
0.000299312
0.000124071
0.00167198
0.000367909
0.00019395
0.00193282
0.000112842
0.00016356
0.000203835
0.000395641
0.00166102
0.000129513
0.000218743
0.000185469
0.000398116
0.000282458
0.000142726
0.000724999
0.000189467
0.000209242
0.00167464
0.000385355
0.00136704
0.00022637
0.000211264
0.00202219
0.000137692
0.00191172
0.0012139
0.000170237
0.000847791
0.00134305
0.00019003
0.000255262
0.00185749
0.00020059
0.000206112
0.000867266
0.000209716
0.000227339
0.000185097
0.00171313
0.0020002
0.000766273
0.00148512
0.00071231
0.00166124
0.000253856
0.000216719
0.00163267
0.000825964
0.000181616
0.000184841
0.000315247
0.00136218
0.000306204
0.000203174
0.000221743
0.000711245
0.000236716
0.000830573
0.00128184
0.00176909
0.000184218
0.000189209
0.00155618
0.000298535
0.000899815
0.000567844
0.000129516
0.000248687
0.00139077
0.000238929
0.00021514
0.000161314
0.000181829
0.00124827
0.00187325
0.000794457
0.000236407
0.000152774
0.000183735
0.00132804
0.00111858
0.000126966
0.00183776
0.0013227
0.00109804
0.000145667
0.00036813
0.000240616
0.000158129
0.000186738
0.00108795
0.000611744
0.00117065
0.000198739
0.000125749
0.000166321
0.000192053
0.000940014
0.000194577
0.000132484
0.00151264
0.0011571
0.00178221
0.00016166
0.000204805
0.000125772
0.00177773
0.00114893
0.0012444
0.00152211
0.000180638
0.000662
0.000267955
0.0018737
0.00141656
0.00135044
0.00115423
0.0018992
0.000200475
0.000164485
0.000259697
0.0019464
0.000700749
0.000162938
0.00158787
0.000126714
0.000318928
0.000543573
0.000135881
0.000163668
0.000131135
0.000184564
0.000958322
0.000556626
0.000136948
0.000336189
0.000185019
0.00098942
0.00164203
0.000231468
0.000294998
0.00038604
0.00122962
0.000241112
0.00021893
0.000198632
0.000156187
0.000129047
0.000233561
0.000222451
0.000228358
0.000135596
0.00131124
0.000699148
0.00112155
0.000442014
0.000203316
0.000865056
0.000320383
0.00017617
0.000185078
0.000244642
0.000180878
0.000250649
0.00108406
0.000667206
0.00179659
0.000800053
0.000164752
0.000118874
0.000971082
0.00186818
0.000740584
0.00109151
0.00159092
0.000131847
0.000217496
0.000839319
0.00127056
0.000161879
0.000370646
0.000227532
0.000317313
0.000245601
0.00160739
0.000121678
0.000155651
0.000226719
0.000153115
0.00197375
0.00181042
0.00109814
0.000196775
0.00018766
0.000130158
0.000171717
0.00136375
0.000158513
0.000216818
0.00164183
0.000883301
0.00106087
0.00126187
0.000180519
0.000129272
0.0007045
0.000206104
0.000343613
0.00068081
0.000500616
0.00173365
0.000120622
0.000580228
0.000192923
0.000138406
0.000230483
0.000144992
0.000319136
0.000189987
0.000108098
0.000713172
0.000154755
0.00013179
0.00019218
0.000271256
0.00167121
0.00138704
0.000180772
0.000186184
0.000136462
0.000205957
0.000202551
0.00159142
0.00187668
0.00020877
0.000185993
0.000131822
0.00186697
0.00166691
0.000724598
0.000156862
0.000951325
0.000571245
0.000173692
0.000173569
0.00172115
0.000597021
0.00064097
0.000332355
0.000728412
0.00145193
0.000153215
0.000372912
0.000182054
0.00127697
0.00120798
0.00165286
0.00017822
0.00152806
0.000216058
0.000942049
0.000900189
0.00118792
0.00121858
0.000123575
0.000227124
0.000134363
0.00184723
0.00160085
0.00045099
0.00133451
0.000182127
0.000179252
0.00118569
0.00152693
0.000233865
0.000277883
0.000404082
0.000212579
0.00130587
0.00159794
0.00141838
0.0015226
0.000776413
0.000722909
0.000139815
0.00138067
0.00142134
0.000768325
0.000175549
0.000222248
0.000197201
0.00012478
0.000204336
0.00160016
0.00175582
0.000228379
0.000277624
0.000477653
0.000504793
0.000169865
0.00120117
0.000628826
0.00052281
0.00187498
0.000188403
0.000443649
0.000176735
0.000269325
0.000618539
0.000198083
0.000307165
0.000922855
0.000540472
0.000997045
0.00175206
0.000167056
0.00132934
0.000158119
0.00135937
0.000113375
0.00148837
0.00033649
0.000163377
0.000294415
0.000204329
0.000303703
0.000188214
0.000188072
0.000634763
0.00019655
0.00155851
0.00112089
0.0015279
0.000110649
0.000188264
0.000202475
0.00051362
0.000154453
0.000157356
0.000973805
0.00112675
0.00149496
0.000837562
0.00100681
0.00185987
0.00107086
0.00113387
0.00105678
0.000197032
0.000218392
0.00180261
0.00174846
0.000151703
0.000757049
0.00126873
0.00147508
0.000190021
0.000596067
0.00021479
0.00176483
0.000226614
0.000153522
0.00031152
0.0004444
0.000650859
0.000264101
0.00019695
0.00142139
0.000234863
0.000201243
0.00079866
0.000143054
0.000148173
0.000435349
0.00106611
0.000201956
0.000138248
0.000171483
0.0015733
0.00132656
0.00013894
0.00088963
0.000159939
0.000138775
0.00159043
0.000223744
0.000544914
0.000996066
0.00164454
0.000932664
0.00167605
0.00144961
0.000309999
0.00198744
0.000822344
0.00161142
0.000254033
0.000206238
0.00164604
0.00014697
0.00106622
0.000801108
0.00112784
0.000865569
0.00174028
0.000670853
0.000189752
0.00119279
0.00170532
0.000123154
0.000299864
0.00183811
0.000215876
0.00108842
0.00152655
0.000166849
0.000370407
0.000204383
0.000227338
0.00147528
0.00105055
0.000171006
0.000135621
0.00013861
0.000373327
0.000183406
0.000173751
0.00025906
0.000537601
0.00141019
0.00181615
0.000536772
0.000696716
0.000739384
0.000190187
0.000225873
0.0016078
0.00173512
0.00194457
0.00199359
0.000168954
0.000198068
0.000204333
0.000139109
0.00115361
0.00167699
0.00178899
0.000161972
0.000945223
0.00132775
0.000206514
0.00193034
0.00128561
0.00154584
0.00180359
0.000175796
0.000158379
0.000274321
0.000189019
0.00103973
0.000707166
0.000218532
0.000852764
0.000155097
0.000125817
0.0001796
0.0018592
0.000146609
0.000420269
0.0015645
0.000352389
0.000185436
0.00143935
0.00190087
0.000135262
0.000202045
0.000144924
0.000210434
0.00171867
0.000387083
0.000181727
0.0017505
0.00161349
0.00135931
0.000392802
0.00131081
0.000991554
0.00123397
0.000707901
0.00016624
0.000811534
0.000161342
0.000128889
0.000133787
0.00149124
0.000275178
0.00142927
0.000617908
0.00016237
0.000209448
0.000198051
0.000223379
0.000191239
0.000176798
0.000733316
0.000809839
0.00135513
0.000863831
0.000166942
0.000220661
0.00129106
0.000108761
0.000180435
0.000385878
0.000186436
0.00154994
0.000509751
0.000973367
0.000282728
0.00120689
0.000307756
0.0010929
0.000163359
0.00151178
0.000183419
0.000167653
0.000155552
0.000435365
0.000318634
0.00184704
0.000182585
0.00169924
0.00084413
0.000228172
0.000125342
0.00015387
0.000170675
0.000180563
0.000187083
0.000148839
0.00174514
0.000130355
0.000981635
0.000133359
0.000169498
0.000158072
0.000168622
0.000205546
0.000200552
0.000729439
0.000248126
0.00162708
0.000154169
0.00176588
0.00022397
0.000247031
0.000121745
0.00102107
0.00125124
0.00020399
0.000476084
0.00115045
0.00112729
0.00061868
0.000428534
0.00127777
0.00108934
0.00139985
0.000571289
0.00024958
0.000147625
0.000128397
0.000876721
0.000167485
0.000154122
0.000791188
0.000131567
0.00018856
0.00018029
0.000320977
0.000241358
0.00166525
0.000457532
0.00112712
0.000638936
0.00121813
0.000472687
0.00187638
0.000135863
0.000134919
0.000848042
0.00135549
0.000575368
0.000829078
0.00124565
0.000997856
0.000689463
0.000176372
0.000819712
0.00194842
0.000203419
0.000341537
0.000230727
0.000506957
0.000137822
0.000179996
0.000917588
0.00016136
0.000222656
0.000181398
0.000173566
0.000171868
0.00147622
0.000378636
0.00167078
0.000421981
0.00015102
0.00124502
0.00177185
0.00126156
0.000206012
0.000576641
0.000214232
0.000244645
0.00101791
0.00019938
0.00015817
0.000622362
0.000250181
0.00173942
0.000201851
0.000377919
0.000133101
0.0018974
0.00179188
0.00117998
0.000185193
0.000183535
0.000184249
0.000879075
0.000131735
0.000158586
0.000266598
0.000156071
0.000205604
0.000169027
0.000240434
0.000352904
0.000696104
0.00173558
0.00100561
0.000218193
0.000213358
0.000134502
0.00175138
0.000952609
0.000331439
0.00109087
0.000167481
0.000233419
0.000168043
0.000725053
0.000192984
0.00183459
0.00179093
0.00013371
0.00018743
0.00138023
0.0011284
0.00166151
0.000134551
0.000609014
0.000240592
0.00027127
0.000180033
0.00156379
0.000181939
0.000228611
0.000208483
0.000202355
0.000787987
0.000123284
0.000167737
0.00017429
0.00073493
0.00102829
0.0016792
0.000119498
0.000516441
0.00125148
0.000287535
0.000305984
0.00100132
0.00162044
0.00159207
0.000230646
0.000894718
0.000292941
0.000163348
0.00022266
0.00166066
0.00149517
0.000191352
0.000910687
0.000218158
0.000252718
0.000398924
0.000197101
0.00104163
0.0012405
0.000758673
0.00020013
0.00154812
0.000179256
0.00176119
0.000134826
0.000196589
0.00149214
0.00126775
0.00013767
0.000737348
0.00134569
0.00130225
0.00168083
0.000144915
0.000219734
0.001309
0.000745292
0.00061536
0.00120285
0.000133495
0.000520977
0.000146356
0.00013822
0.000950977
0.00198125
0.000177034
0.000988367
0.000419586
0.000178401
0.000146363
0.00141885
0.00100305
0.000179192
0.000185702
0.000144136
0.000688042
0.000744017
0.000210355
0.000144805
0.0011105
0.00148152
0.00101951
0.000732178
0.00024376
0.00200796
0.000654116
0.00135015
0.000147899
0.000232336
0.000227116
0.000335112
0.000203588
0.000877394
0.00105835
0.00155785
0.00119076
0.00178401
0.0012726
0.000953286
0.00156712
0.000212348
0.00118183
0.0011753
0.000169493
0.00125395
0.000149652
0.000196238
0.000295532
0.000544884
0.000469554
0.000345518
0.000451416
0.000165623
0.000204886
0.000624853
0.00109256
0.000779129
0.000274183
0.000142977
0.00115585
0.000182276
0.00023989
0.000634303
0.000177028
0.00031679
0.000839412
0.000564882
0.000492922
0.000190793
0.000170445
0.000225612
0.000283759
0.00175339
0.00020408
0.0010332
0.00119454
0.000186623
0.00199671
0.000162607
0.00161057
0.000326441
0.000312668
0.000133443
0.0020112
0.00131921
0.000184035
0.00113424
0.000180065
0.000190236
0.000681183
0.000129323
0.00134811
0.00118539
0.00150116
0.000200428
0.000137175
0.000735226
0.00114355
0.000658828
0.000167498
0.000200022
0.000394193
0.00092458
0.00031728
0.00180829
0.000122013
0.000166554
0.000978638
0.00125098
0.00110756
0.00016738
0.000220536
0.0001728
0.000404204
0.000640322
0.000266508
0.000207391
0.000195316
0.000712296
0.000569824
0.000884797
0.00142809
0.000608322
0.0015503
0.000189036
0.000319437
0.000166683
0.000169695
0.000888096
0.000115623
0.00185897
0.00147817
0.000581177
0.00019783
0.000167775
0.000920519
0.00142085
0.000121832
0.00132623
0.000142412
0.000345606
0.000152732
0.000243822
0.000798724
0.00112556
0.000198792
0.000532867
0.00116284
0.00110645
0.000170199
0.000769983
0.00103638
0.000249103
0.00198229
0.000179824
0.000625307
0.00149469
0.00120488
0.000347552
0.000177791
0.000125945
0.000218246
0.000235421
0.00139933
0.00129853
0.000209972
0.000173458