/*--------------------------------*- C++ -*----------------------------------*\
| =========                 |                                                 |
| \\      /  F ield         | OpenFOAM: The Open Source CFD Toolbox           |
|  \\    /   O peration     | Version:  2406                                  |
|   \\  /    A nd           | Website:  www.openfoam.com                      |
|    \\/     M anipulation  |                                                 |
\*---------------------------------------------------------------------------*/
FoamFile
{
    version     2.0;
    format      ascii;
    arch        "LSB;label=32;scalar=64";
    class       volScalarField;
    location    "14";
    object      p;
}
// * * * * * * * * * * * * * * * * * * * * * * * * * * * * * * * * * * * * * //

dimensions      [0 2 -2 0 0 0 0];

internalField   nonuniform List<scalar> 
59516
(
1.43047
0.0869358
0.072845
0.00933135
1.46022
1.47656
1.4319
1.33339
0.491536
0.00651626
1.44558
1.43598
1.10806
1.42748
1.37706
0.495793
1.43458
1.44512
1.44679
1.42565
1.44577
1.33622
1.43097
1.03835
0.440239
1.00089
0.606689
1.4513
1.44409
1.38355
1.45973
1.45187
0.770177
0.00808364
1.44381
1.28491
0.409916
1.44891
1.4432
0.0708333
0.0930079
1.44732
1.44232
0.00465677
1.4396
0.249347
1.44094
1.44147
1.46045
1.44525
1.46319
0.0105559
0.795491
1.36036
1.44351
1.441
1.44973
0.0119295
1.03776
1.44559
0.0102636
1.2543
1.04173
1.43177
0.0212536
1.43777
0.0457859
1.29654
1.45962
1.43851
1.31496
1.42721
0.284467
1.42792
1.30846
1.43845
1.4401
0.163083
1.122
1.44284
0.0112789
1.44184
1.4401
0.683585
1.44163
1.4241
0.489038
1.42597
0.775279
1.44683
1.45364
1.32299
1.41391
1.31032
1.31509
1.46174
1.38419
1.33629
1.44527
1.09601
0.528907
0.938017
1.37072
0.0492575
0.278352
0.038475
0.0376416
0.464449
0.828725
1.1296
1.45359
0.580348
1.32717
1.45303
1.40899
1.22595
0.171526
1.35841
1.35475
0.182247
1.36394
1.35148
0.387511
1.35879
1.45335
1.44292
1.41397
1.44929
1.46385
1.41182
1.40322
0.0882107
1.30282
1.41326
1.41651
1.29433
1.45072
1.39534
0.936743
1.42425
0.574316
0.722258
1.33335
0.569508
1.42274
1.41887
1.44106
1.43292
1.46051
1.41877
1.42193
0.0201046
1.4072
0.0199481
1.41585
0.0283794
0.0318471
1.41767
1.41733
1.3875
1.42052
1.42023
1.38812
0.0280389
1.21943
0.164683
0.487579
1.41672
1.42025
0.0255352
1.41701
1.41711
1.39917
1.40597
1.40003
1.44091
1.23551
1.44388
0.0761696
1.22143
1.40812
0.848884
0.986079
1.40409
1.40787
0.546211
0.746642
0.419922
1.41399
1.40307
0.0027936
0.845632
1.42049
1.40337
1.4204
0.11336
0.944266
0.938505
0.0218306
1.39739
0.00361478
0.40738
1.34745
1.10435
1.26204
0.841617
1.41807
0.0211666
1.05809
1.37244
0.265769
1.44971
1.36721
1.27431
1.37147
0.614231
1.41785
0.109963
1.18874
1.37184
1.36847
1.41804
1.39728
0.0318779
1.38503
1.23191
1.05096
1.09845
1.40013
0.224616
1.38132
0.833323
1.39708
0.864242
0.917058
1.40097
1.3965
0.313835
1.39528
0.339523
1.40812
0.850054
0.822257
0.0267292
1.41225
1.41034
1.40875
0.0692587
1.39626
1.4141
0.0697312
1.40612
1.4104
0.976678
1.41234
1.41265
0.494775
1.39224
1.14465
1.3816
1.07464
1.3859
1.39242
1.39055
1.27824
0.375527
1.18542
0.450176
1.3835
1.02159
1.43739
1.25711
0.47355
1.04439
1.38754
1.29109
1.01956
1.38476
1.38959
0.619477
1.39603
1.105
1.03901
1.375
1.37004
1.43076
1.4107
0.0496846
1.39257
1.2894
1.38733
1.37848
1.31361
0.173208
1.32803
0.821074
1.2909
1.2769
1.37885
1.2846
1.28726
0.3896
0.639308
1.25803
1.30418
1.00204
0.106376
1.28351
1.29403
0.524752
0.433426
1.28373
0.986019
0.940519
1.43892
1.29778
1.34765
1.46121
1.2942
0.410215
0.832047
1.34585
0.880314
1.35574
1.10775
1.3029
1.44677
1.34486
1.05747
1.35357
0.127442
1.42598
1.0502
1.35287
1.15735
1.38122
1.39364
1.25295
1.44358
1.37098
1.26802
1.25276
1.35903
0.314662
0.680025
1.37066
0.631218
1.3858
1.35999
1.14971
1.40377
1.40334
0.21997
0.796366
1.05329
0.325256
0.0526132
1.45494
1.45968
1.22713
0.193679
1.41538
1.44468
1.33197
0.182955
1.35188
1.3499
1.41991
1.46041
1.36668
0.55371
0.551379
1.34962
1.08483
1.20867
1.34266
1.35184
1.33277
1.13197
1.30962
1.42102
0.0158782
1.44588
0.0687797
0.110295
1.35079
0.0444141
1.44441
1.34926
0.0803067
0.075733
0.365019
1.33653
1.45363
1.34553
1.45257
0.0736742
0.495776
1.33417
1.33845
1.37256
1.32772
1.1403
1.37631
1.38137
0.400193
0.942487
1.38326
1.37665
1.37445
0.247985
0.118436
0.133792
0.863046
1.26328
0.0513025
0.212387
0.462868
0.0299664
1.33316
1.32688
1.34509
1.34396
1.3879
1.3446
1.09452
1.32149
0.97315
1.34656
1.16532
1.36101
1.3418
1.2883
0.871862
1.37951
1.44633
0.130302
1.3645
1.07705
0.545275
1.09705
1.18468
1.36724
1.35962
1.34788
1.34235
0.523588
1.3441
1.09404
0.167755
1.1914
1.45987
0.960432
0.429435
1.34995
1.15307
1.33878
0.915801
1.33994
0.421077
1.34375
0.0265957
0.0490263
1.33046
1.44406
1.32074
1.24216
0.235423
1.25899
1.24939
0.257959
1.28996
1.24594
1.22302
1.22159
0.655829
1.26354
1.22965
0.897138
1.21736
0.58534
1.20637
1.44692
1.21051
1.46163
1.21465
1.39486
0.56574
0.651008
1.08343
0.0261341
0.0177743
1.15313
1.27928
1.30254
1.05676
1.23166
0.316665
1.32862
1.31988
1.44656
0.941071
0.836037
1.10581
1.31889
0.110594
1.29452
1.43245
0.0293349
1.48258
1.3256
0.445084
1.42285
1.14913
1.434
1.2538
1.12078
1.20539
1.32987
1.1318
1.33013
1.41535
0.500619
0.503854
1.45491
0.0186865
1.32505
1.28347
1.44968
1.27952
1.42613
0.00700361
1.29844
0.569174
0.00321255
1.03818
0.240882
1.45025
1.36178
0.469507
0.0188034
1.37832
0.854976
1.29061
1.37867
1.28714
1.41826
0.00544237
0.69685
0.456303
1.28843
0.215181
1.00584
1.32874
0.886686
1.31995
0.0172742
1.33783
0.44446
1.32622
1.09023
0.783552
0.725091
1.33365
0.0152396
0.272538
1.2762
0.542359
1.06342
1.17863
0.828065
0.797751
1.2819
1.27986
1.40538
1.26539
0.79109
1.27493
1.26836
0.75405
0.665749
0.00539487
1.27533
1.27601
1.28518
0.6441
1.24187
0.0530189
1.28676
0.0356287
1.3342
0.00398972
0.141469
1.12342
0.835525
0.0715628
1.28852
1.45047
0.0239096
0.0995028
1.27564
1.25842
0.200213
1.26546
1.28049
0.918676
0.256735
1.33472
1.29985
0.0802623
1.28143
1.28463
0.997491
1.26538
1.46235
1.28215
1.45552
1.13793
1.45721
1.14706
0.131074
1.42185
0.0356225
0.0342546
1.46329
1.46072
1.15502
1.28055
1.45032
1.44509
0.849124
0.690803
1.08678
0.417251
1.1421
0.791853
1.44507
1.15226
1.15567
1.24073
1.19048
1.45891
1.09679
1.20736
0.347805
1.21429
0.942713
0.105561
1.21433
1.20606
1.21211
0.951782
0.585313
1.46812
0.817268
0.838191
0.976847
1.38575
1.21359
0.431007
1.13921
0.976925
0.0682196
0.430355
1.22296
1.36368
1.01969
0.955973
1.22086
1.221
0.535009
1.4108
1.27141
0.89427
1.25661
1.06309
1.30515
1.24338
0.0614787
0.140837
1.14751
1.46127
0.940179
0.892087
0.0249422
1.00356
1.24119
0.769546
1.29374
1.27088
0.589266
0.800303
1.28397
1.42014
1.33382
1.07114
1.46226
1.2867
0.195056
1.32607
1.4629
0.121874
0.808946
1.37838
1.21836
0.511908
1.18715
0.129314
0.101518
1.07028
1.22028
1.46324
1.34488
1.21857
1.21649
1.24602
0.596869
0.0637096
0.427671
1.33551
1.4627
0.977609
1.23289
0.882752
0.377097
1.21503
0.399068
1.21789
1.43917
0.815354
0.00564319
1.35454
0.633436
1.24958
0.0981893
0.511752
0.989802
1.37472
1.24034
1.24935
1.4638
1.36672
0.235547
1.46423
0.026534
0.00914061
1.24584
0.254887
0.735897
0.993103
0.704598
1.46404
1.22959
1.3559
1.20453
0.287213
1.04862
0.328147
0.832516
1.34749
1.20294
1.2129
1.19975
0.479654
1.41713
1.14292
0.420798
1.21005
1.20133
1.19306
1.13614
1.20931
0.101263
0.0643764
1.19555
0.0254547
0.78514
0.889007
0.0501622
0.926668
1.06659
1.4304
1.15957
1.31954
1.0859
0.826257
1.21313
1.22258
1.22128
0.706603
1.21768
1.41557
0.104958
0.017717
0.863073
0.760135
0.021992
1.21488
1.20464
1.20905
0.10027
0.177653
1.20396
1.37629
0.154427
0.236496
1.46054
1.44897
1.23253
0.24456
1.27431
1.16102
1.30223
1.07241
1.19296
1.44876
1.07165
1.07084
0.584312
1.07771
1.45514
0.188462
1.18033
1.07642
0.672433
1.25769
1.30058
0.590792
1.26391
1.36945
1.27094
1.07078
1.43889
0.326177
1.06897
1.34385
0.0802285
1.1319
0.465119
1.05865
0.605051
1.45354
1.09149
0.0216838
1.06769
1.05512
1.11008
1.06708
1.00045
0.0316502
0.257228
1.25851
1.12227
0.951048
1.2767
0.697572
1.37377
0.136849
1.11568
0.528046
1.03038
1.27967
0.0875267
1.13313
1.11545
1.46317
0.137769
1.30425
1.39372
0.241046
1.09626
0.253933
0.925574
1.22164
1.29896
1.09855
1.09516
1.09215
1.45948
0.181853
1.29414
0.706889
0.106544
1.10419
1.31365
1.14964
1.14793
0.189318
1.16054
1.16963
0.655939
1.39816
1.46293
1.4303
0.918043
1.17147
0.0183484
1.44357
1.08076
1.15602
0.999516
1.16615
1.16209
1.18753
1.27426
1.19709
1.2976
1.16628
1.42116
1.42965
1.15631
1.25687
1.15303
1.30117
1.3023
0.0785796
0.818296
0.953436
0.0738381
1.21589
1.16652
1.22454
0.697539
0.0395238
0.718738
1.1526
1.24368
1.24477
0.797459
0.909801
1.23196
1.46301
1.17833
0.046193
0.098255
1.33059
1.18102
0.766947
0.990959
1.1689
0.822091
1.13449
1.13599
1.13402
1.00383
1.25346
1.13174
1.46056
0.138901
1.13021
1.46129
1.13587
1.39294
0.248488
1.12878
0.747183
0.572943
1.13576
1.1314
0.741312
0.762696
1.12785
0.63694
1.11333
1.11553
1.15163
0.700441
1.11249
0.178179
1.12412
1.12088
0.799755
1.11395
1.1162
1.43039
1.09397
0.942588
1.10335
1.10911
0.799808
0.388155
0.692589
1.44544
1.12149
1.12218
0.981525
0.39784
1.4467
1.00458
1.00859
0.977971
0.982008
0.0608705
0.0393055
0.310587
0.663165
1.12075
1.12335
0.0349365
1.33967
1.0764
0.508149
1.4459
0.955939
0.947915
1.44839
0.963973
1.30773
0.281394
0.947501
1.28035
1.19163
0.953717
0.723176
0.23898
0.956316
1.33866
1.22563
0.755566
0.352904
0.581215
0.997887
0.599737
1.33542
0.57156
0.984391
1.04659
1.45505
0.784129
0.060311
0.359636
0.590555
0.968629
1.33133
1.03828
1.03256
0.108964
0.837097
0.0545067
1.05263
1.05201
0.592844
0.0782448
1.21141
0.24173
1.40701
1.13424
1.12385
1.44281
0.592757
1.28367
1.32146
0.952669
0.0973346
1.12258
1.44292
1.11455
1.10282
0.967769
0.512171
1.11805
0.0971325
1.44038
1.33941
0.799849
1.11973
1.08257
1.33142
1.42494
1.28811
0.166856
0.519644
1.10835
1.14612
1.268
0.769817
1.24886
1.44905
1.10254
1.256
0.465509
1.12926
0.893915
0.556385
1.12827
1.13391
1.13337
1.27125
1.11112
0.249003
1.11406
0.511912
1.2401
0.114054
1.10804
1.25025
0.0286022
0.124127
1.09148
0.449643
0.280322
0.463921
0.382089
0.700074
0.229096
1.10182
1.09785
0.17861
1.09091
1.09871
1.24971
0.0650323
1.10444
1.07238
0.00624496
0.135812
1.05573
0.633846
0.022298
0.0782485
1.05909
0.792059
1.0836
1.43136
0.0909052
1.2466
0.996594
1.081
1.06387
0.984735
1.19352
1.10811
1.09799
1.00949
1.44267
1.34769
1.08539
1.09712
1.38716
0.205969
1.34075
1.19392
0.780292
0.723885
1.09513
0.518505
0.111416
1.03034
1.05011
1.4623
0.907528
1.05059
1.04936
1.1729
0.512282
1.04877
1.05085
1.41987
1.05262
0.487243
1.06067
1.06352
0.888465
0.806041
0.957007
1.0614
1.05068
1.06151
0.762723
0.925935
1.07494
0.971716
0.743061
0.792097
0.792796
0.796024
0.907144
1.05559
0.915956
1.44555
1.39341
0.252532
0.666643
0.702534
0.911491
0.901277
0.919615
1.1375
0.910773
0.901107
0.543852
0.695387
1.19748
0.550499
0.191517
0.916111
0.90767
0.928219
1.40303
0.0792503
0.0425188
0.656225
0.976801
0.961799
1.33738
0.199092
0.920186
1.44626
0.250526
0.964362
0.968843
1.12046
0.00910895
0.95894
0.960251
0.958821
1.02765
0.0299
0.0488276
1.03064
1.02764
1.02135
1.02199
1.05533
1.00207
0.514123
0.0834296
1.45161
1.22766
1.03193
1.02545
0.803212
1.43272
1.41954
1.3554
0.0118221
1.36032
1.0386
1.04023
1.03007
1.03424
1.0407
1.03309
1.31605
0.887422
1.29183
0.92512
0.512717
0.0757467
1.04631
0.803988
0.0286928
0.932012
1.06968
1.43611
1.07691
0.760892
0.735815
1.20753
0.830831
1.05999
1.08973
1.07904
0.906821
0.974525
1.4306
1.05676
1.28157
0.494972
0.401593
1.04425
0.419836
0.122384
1.07128
1.05892
0.82569
0.552479
0.635398
1.39712
1.06578
0.305879
0.033541
0.967128
0.158415
0.791004
1.03741
1.21836
0.976378
0.142625
1.40987
0.0805242
1.38197
0.85978
1.34046
0.99842
0.26979
1.05044
0.960017
0.61523
0.738532
1.05083
1.052
1.41066
1.22864
1.29229
1.42048
1.26093
1.22423
1.22465
1.31049
1.03473
1.02343
0.832997
0.424067
0.4788
0.0979735
1.34318
0.834705
1.01261
0.997861
1.00542
0.262189
0.984334
1.30245
0.0221414
0.985361
1.01525
1.12581
1.46271
1.30361
1.30435
0.998181
0.0780963
1.34145
1.00394
1.16674
1.04892
1.18139
1.25345
0.935211
1.3289
1.02172
1.23566
1.043
0.112745
1.30548
1.32853
0.847032
1.4494
0.477862
0.560385
0.482761
0.91663
1.28616
0.383466
1.16114
0.393689
1.02926
1.02456
0.906394
1.06079
0.975854
1.3792
1.19556
0.962773
1.22263
1.00241
1.46341
1.32307
0.999907
0.974748
1.1898
1.36981
0.983949
0.143226
1.15782
1.37917
0.975688
0.896918
0.989891
1.00788
1.01541
1.02219
0.0264618
0.479611
1.02189
1.45036
1.02184
0.854722
1.26084
0.840303
0.730738
1.3768
1.44931
1.31177
1.31087
1.31635
0.193459
0.960926
1.11898
1.44733
1.4241
1.45087
1.45506
1.42394
0.862242
0.846976
1.44842
0.368048
0.866006
1.22216
0.854039
1.31097
1.23792
1.44744
1.41399
1.30838
0.477155
0.86531
0.942585
0.919429
0.959235
1.32151
1.22068
0.947682
0.926834
0.937199
0.0895579
1.37006
0.255026
0.961799
1.09577
0.985733
0.960451
0.938253
0.25016
0.97335
0.872463
0.970168
0.9692
1.32848
0.887069
0.513058
0.305331
1.27786
0.707753
0.699293
1.24535
0.587933
0.308364
0.261491
0.192021
1.2398
0.444443
0.876798
1.07677
0.182715
1.3561
1.36126
0.631889
0.6118
1.41601
0.906801
0.0825759
1.05367
0.187214
1.20722
0.176928
0.286321
0.10202
0.0642626
0.527297
1.33863
0.281454
0.136444
0.151977
0.948485
0.164501
0.938005
1.35952
0.963253
0.949912
1.23218
0.283977
0.979038
0.974778
0.0617746
0.481543
1.34133
0.978049
0.982963
1.24482
1.3642
1.32068
1.35811
0.338415
1.43257
1.44986
0.97562
0.986534
0.0832055
1.39023
1.44519
0.970692
0.761328
0.970394
0.0939293
1.32614
0.0346354
0.278807
0.91833
1.13177
0.923664
0.763155
1.34808
0.693931
1.29341
0.921347
0.922437
0.468201
0.881286
0.815766
1.44039
1.34858
1.20175
0.921073
1.36793
0.517621
0.26383
0.43703
0.0749773
0.921689
1.35784
0.920671
0.0753004
0.0627509
1.32971
0.930325
0.440373
1.39609
0.93133
0.934315
1.33716
0.105459
1.32771
0.935581
0.953407
0.961045
1.0091
0.965863
1.31704
1.29757
0.965146
1.41576
1.0215
1.29609
1.12906
0.953533
1.35827
0.929197
0.761441
1.41957
1.043
0.943219
0.0635877
0.968584
0.964622
0.734104
0.927255
1.21399
0.368144
1.34365
0.889054
1.26517
1.31506
0.948666
1.01876
0.064048
0.457628
0.349422
0.941191
1.35808
0.0977135
0.915123
1.41902
0.344407
1.24646
0.316134
0.912742
1.09796
0.916137
0.00972708
1.15607
1.3533
0.735395
0.20444
0.35808
0.711179
0.721337
0.771317
1.34145
0.0647869
0.199884
0.805881
0.822725
1.29529
1.2143
0.806641
0.850888
0.784824
1.13507
1.42173
1.37285
1.01729
0.164139
1.28654
1.27809
0.622541
0.301711
1.18793
0.59092
0.805643
1.22746
1.02065
1.03602
0.89797
0.786772
0.844346
0.841525
0.82408
1.25105
0.858344
1.10032
1.41429
1.35327
1.22215
1.32472
0.789212
0.57753
1.34576
0.861604
1.2284
0.996296
1.27023
1.43375
0.81146
0.0446262
0.869793
0.881786
0.919325
1.34064
0.865068
0.908668
1.03284
0.920911
1.03326
0.877756
0.0079032
1.0234
0.905192
0.899747
0.0294135
1.22858
1.42787
1.02389
1.0526
0.831394
0.920387
0.912317
0.362984
1.42036
0.921802
0.925821
0.929025
0.206708
1.33949
0.974306
0.838318
1.02294
0.546076
0.704553
1.29145
0.858442
0.838842
0.688095
0.843337
0.899472
0.578386
0.85536
1.33767
0.95609
0.495255
1.33694
1.33801
0.764272
0.757933
0.645645
0.858014
0.382618
0.880425
0.419582
1.46334
1.26857
1.0909
0.552869
0.105522
1.37668
0.109241
0.11849
0.857796
0.0118411
0.859021
0.172898
1.09753
0.595381
0.851048
1.20215
1.10401
0.858923
0.151629
0.120647
1.08491
0.844316
0.224772
0.858444
0.850547
0.961955
0.892158
1.43408
1.23721
1.37182
1.08849
1.2073
0.855084
1.24105
1.09256
0.855317
1.38393
1.44657
1.20178
1.1764
0.855299
1.31551
0.836262
1.37439
1.06659
1.22465
0.111157
0.237201
1.17204
0.0595379
1.35086
1.46029
1.39213
0.0735965
0.368755
0.0979661
1.32768
1.37223
0.0407049
1.10218
0.821843
1.30788
1.12961
0.823687
0.868558
0.176733
1.18642
1.19956
0.363801
1.43199
1.38032
0.905831
0.828071
1.45269
0.821324
1.44475
1.19788
1.18829
0.829944
1.40867
0.737103
1.40322
1.33882
1.40995
0.0413149
0.840789
1.4291
0.456324
1.44562
0.842498
1.41615
0.645865
0.641495
0.680736
1.43389
1.27791
1.40928
1.27257
0.728147
1.42867
1.42731
0.647017
1.43137
0.76425
1.23527
0.712622
1.27679
0.901149
0.615584
0.864001
0.605753
0.863729
0.119754
0.766877
0.701778
1.37812
0.675193
1.19994
0.949603
1.09411
0.745453
0.212928
0.553651
1.20955
0.713608
1.37118
0.48205
0.785336
1.40258
1.23112
0.797708
1.30963
0.785193
0.712542
0.699077
0.885455
0.753665
0.010518
0.218626
0.260244
0.716016
0.722868
1.21342
0.308168
0.162452
0.678649
0.45651
1.37036
1.28852
0.192108
0.798828
1.103
0.748627
0.806334
0.648039
0.789154
1.27708
0.787487
1.06305
0.00473237
1.35783
1.04931
1.45045
0.808728
0.787303
0.119988
1.37727
0.596906
0.810141
1.23702
0.842017
0.822472
0.770307
0.763884
0.189018
0.835946
0.806079
0.813218
0.778351
0.885053
0.796632
1.35912
0.655184
0.825272
1.36856
1.44809
1.0855
0.676425
1.17331
0.809228
0.740327
0.701231
0.374594
0.665884
0.606934
1.42458
0.670138
0.885893
0.886258
0.208923
0.661052
1.35941
0.754267
0.771536
1.04715
0.987715
0.743467
1.11811
0.894824
0.758573
0.750472
0.840676
0.749063
1.35532
1.32163
0.67838
0.653409
0.719081
0.283365
0.769726
0.894938
1.21559
0.744409
0.773623
0.71439
0.782777
1.35892
0.651255
1.33385
0.767405
0.738261
0.695853
0.745515
0.591297
0.730316
0.594853
0.520394
0.733493
1.42065
0.831555
1.41527
1.04563
0.505029
0.142583
0.648509
1.35586
0.755632
0.742005
0.551328
0.755079
0.544899
1.36261
1.35886
0.568543
0.573682
0.601555
0.604934
1.14176
0.933401
0.590359
0.59334
0.444718
0.737091
0.603954
0.606871
0.346434
0.321527
0.00545716
0.607767
1.14542
0.187376
0.935422
0.631943
0.646109
0.674667
0.855759
1.35154
0.775134
0.554235
0.0661072
0.114023
0.950729
0.635234
0.604221
0.836758
0.185232
0.119974
0.647019
1.35335
0.718368
0.726239
0.33966
0.675551
1.43844
0.695471
0.6796
0.926134
0.693024
0.717002
1.35642
0.72312
0.820859
0.110536
0.0284949
1.12342
0.22713
0.121318
0.745772
0.614758
1.35579
0.726857
1.39041
1.38536
0.7073
1.35009
0.0435543
0.68519
0.730982
0.211337
0.742387
1.38902
1.44819
0.327056
1.37513
0.725682
1.20828
1.30316
0.733731
0.769427
1.38429
0.717959
1.43464
0.736711
0.871826
0.790934
1.43743
1.38008
0.881044
0.750861
0.727383
1.25056
0.870538
1.25536
1.37909
1.36138
0.748875
0.0752061
0.753593
0.697942
1.24205
0.579449
1.24119
0.261782
1.3078
0.00250837
1.36002
0.875777
0.631778
0.688436
1.37254
0.677018
1.35735
1.33416
1.36869
0.0700544
0.0244335
1.26185
0.0269109
0.674902
0.864178
1.12175
0.663214
1.33973
0.973966
1.34975
0.647136
1.34195
1.16047
1.2438
1.45047
0.904268
1.42271
0.645386
0.0634177
0.98447
0.0515761
1.44626
0.301598
0.952311
1.24343
0.711304
0.674171
0.0815617
0.204488
0.686982
1.2774
1.36891
0.0417286
1.39283
0.88316
1.43563
0.404301
1.28657
0.686035
1.15778
1.37358
1.14931
1.09406
1.20293
1.29056
1.349
1.0771
0.281869
1.22758
0.701243
0.701124
0.701207
0.40866
1.41672
1.42292
1.23314
0.764699
1.33653
1.36451
0.768498
0.703771
0.698177
0.67461
1.42214
0.326341
0.664506
1.01597
0.676393
1.22772
1.14801
0.806732
0.395509
0.674082
0.669644
0.933905
1.44649
1.05806
0.670758
1.3454
0.476837
0.355383
1.41295
0.0366118
0.472583
0.0833928
0.481872
0.476336
1.34643
0.661355
1.15655
1.34225
0.834215
0.708522
1.37349
0.504457
1.36276
0.634641
0.654913
0.653869
1.24338
1.08274
1.36165
1.27446
1.32504
0.558345
0.951307
1.37749
1.30956
0.698221
1.31053
0.490824
1.22797
0.300158
1.24319
0.668957
1.12957
0.597269
0.898628
1.31327
0.480118
1.31606
0.350773
0.718619
0.589753
0.192927
0.6172
0.574051
0.810979
1.36146
0.604423
0.255445
0.105421
1.24209
0.118599
1.32314
0.0262197
0.627439
0.334118
0.626078
1.31375
1.33009
0.311662
1.41872
0.197997
0.00608561
1.24137
1.14111
0.620833
1.31503
0.462675
0.119785
0.79211
0.0235158
0.993813
1.18864
0.918492
0.633327
1.44591
0.638292
1.00643
1.24242
0.837695
1.3286
0.616853
0.916248
0.608909
0.935983
1.41933
0.654721
0.5681
0.942402
0.611108
1.04706
0.610529
0.390906
0.609074
1.42054
0.605117
0.579172
0.598318
1.40173
0.775972
1.36451
1.42485
1.4213
1.11201
0.312798
0.448884
1.14777
1.31261
0.126193
0.426944
0.597622
0.589602
1.32171
1.44362
0.0124104
0.195535
0.541636
1.3642
0.190071
0.84544
1.32385
0.58185
0.577526
0.582282
0.558907
0.580939
1.1213
0.708526
1.30219
0.13665
0.605923
0.586172
1.404
0.899803
1.39384
1.42638
0.296868
0.589077
0.444745
1.40121
1.41249
1.39237
1.38521
0.798049
0.438321
1.3731
0.306938
0.587256
1.29166
0.659839
0.582515
0.461887
0.566367
1.28055
1.27347
0.580945
1.00643
0.655739
0.653075
1.44492
0.141522
0.344447
0.586442
0.590548
0.0514025
0.589479
0.443272
0.622658
1.26161
0.601317
0.0936119
0.637522
0.0483475
1.40956
1.38062
0.814161
0.605854
0.623451
0.702181
0.531167
0.487353
0.723681
0.510289
0.502669
0.4436
0.513401
1.41676
1.30421
0.849996
1.24414
0.539368
1.27833
0.436917
1.24628
1.08046
1.20342
0.521131
0.955101
0.109017
1.27623
1.35075
0.604834
1.45088
0.539636
0.552901
0.904298
0.12317
0.716374
0.555916
1.26972
0.436674
0.596699
0.580752
0.399165
1.0985
0.398153
0.388649
0.406227
0.410816
0.404189
1.24772
1.26436
1.28418
1.2422
0.235537
0.40528
1.39876
0.449619
0.227894
0.445132
0.439784
0.247665
0.447069
0.451748
0.44311
0.556574
0.543473
0.974177
0.619305
0.696242
0.883235
0.762472
0.711827
0.239117
0.564731
0.553232
0.426301
0.459472
0.549946
1.04534
0.0916893
1.19649
1.44401
0.973187
1.4179
0.550888
0.102642
0.108946
0.111628
0.752682
0.11203
0.532278
0.548176
1.36663
1.45293
0.916551
0.496114
1.38049
0.841987
1.00779
0.540322
1.0273
0.540707
1.04962
0.46016
0.20612
0.274632
0.515052
0.00791177
0.557571
1.37451
0.410457
1.18659
0.138459
0.500604
0.513259
1.3211
0.697456
1.05184
0.77734
1.04971
0.50517
0.082464
1.39245
0.612165
0.984662
1.37299
1.37205
0.530301
0.450442
0.529382
0.798123
0.521602
1.02905
1.31341
0.82171
0.530402
0.534219
0.842375
0.944433
1.12826
0.531404
0.542686
0.54308
1.37821
0.535904
0.544128
0.170847
0.48232
0.230635
0.0810716
0.22348
0.133096
0.470108
0.48512
0.0671215
0.372571
0.0651938
1.36639
0.493963
0.263407
1.36999
1.11616
0.740519
0.417602
0.511482
0.0691544
0.497283
1.07667
0.795089
0.491201
1.38844
0.212349
0.0267811
0.495442
1.46156
0.780523
0.995706
0.075061
0.49746
0.493762
1.13104
0.0716057
0.76783
0.972991
0.467857
0.4953
0.510397
1.45187
1.41837
1.3899
0.744273
0.233688
0.0858868
0.0722015
1.4004
0.0710207
0.289048
0.512888
1.45025
0.607268
0.527133
1.30539
1.39578
1.07642
1.03489
0.52885
0.519982
1.37276
1.22547
1.27942
0.130146
1.20166
0.32265
0.695731
0.262911
0.503683
0.811621
1.41629
0.81227
0.80689
1.43656
0.477554
1.37916
0.35547
1.02329
1.16385
1.41492
0.807003
1.38415
0.453647
0.366734
0.199674
0.467999
1.38642
0.353206
0.311049
0.952497
0.36805
0.359605
0.398409
0.110393
0.728005
0.488166
0.578208
0.3316
0.444907
0.383483
0.238647
1.39859
1.06298
0.350543
0.49682
1.46092
0.921169
0.475748
0.980243
0.481858
0.880827
0.470274
1.39222
0.35216
1.45724
0.277548
0.249242
0.955797
0.354751
1.03703
0.921629
1.08553
0.12971
0.00778646
0.168642
0.145789
0.282295
0.0889498
0.308457
0.292893
0.290576
1.42421
0.173209
1.40704
1.40133
0.219241
1.35582
0.502896
1.38242
1.3169
0.336418
1.35854
0.340197
0.0142123
1.076
0.713383
1.32994
1.31152
0.794306
0.0993212
0.192829
1.09162
1.16303
0.344784
0.334303
0.469798
1.1724
1.27019
1.00403
0.10681
0.0759208
0.466247
1.10359
1.1955
1.2914
1.42851
0.480436
1.3361
1.25423
0.994768
1.45731
0.713426
0.911212
1.12167
0.451427
1.40567
0.0765697
0.695526
1.24634
1.1423
1.30673
1.40023
0.119796
0.691012
0.467139
0.824231
0.468561
0.767988
0.848982
0.822308
0.603356
0.470376
0.467078
0.451255
0.611333
1.42286
0.658492
0.593502
0.625805
1.38497
1.265
0.107678
1.40513
0.47109
0.451306
0.918075
0.392152
0.390223
0.557224
0.11009
0.385589
0.410975
0.0850421
0.364996
0.354489
0.395171
0.519837
0.438247
0.442711
1.3985
0.272743
0.35597
0.238191
0.481687
0.23919
0.21072
0.458817
0.0943189
0.093381
0.641102
0.23328
0.209997
1.40233
0.458384
0.330435
0.311368
0.098208
0.271523
0.456627
0.465948
0.409791
0.734934
0.975839
1.09569
0.863252
0.0991143
0.401949
0.3988
0.413549
1.22418
0.634904
0.468006
1.44668
0.406983
0.630889
0.403446
0.416514
1.0713
1.09433
0.399656
0.67346
1.31809
1.30614
0.635912
0.406181
1.3964
0.403714
0.863493
0.407899
1.44972
0.412053
1.20119
0.400624
1.06388
1.24742
1.37876
1.29467
0.403465
1.25381
0.956976
1.06263
0.407011
0.151363
0.714167
0.982178
0.407373
0.404964
0.410551
0.713647
0.354953
1.43475
1.13386
0.139082
1.39545
0.373594
1.3695
0.130446
0.339608
0.365545
1.21671
0.394807
1.08403
1.42485
0.344259
0.379556
0.623587
1.41356
1.22164
1.21571
0.38425
1.27325
1.11177
0.379654
0.633867
0.536499
0.372932
0.368899
1.08585
1.28584
0.41938
0.652453
0.521338
1.39138
1.37241
1.3889
0.402353
1.39576
0.243852
1.16152
1.30795
0.80229
1.07417
0.403984
1.40973
0.170387
0.195551
0.214043
0.683447
0.215073
0.739496
0.720997
0.640911
0.793115
1.19168
0.65534
0.949474
0.0563886
0.254647
0.558249
0.915308
0.381224
1.01445
1.32105
0.749151
1.16785
1.13909
0.0641536
0.207573
1.06112
0.255895
0.00681011
1.40566
1.22345
1.37028
0.208144
1.40422
0.613769
1.36547
0.581765
1.37976
0.592052
1.39047
0.236626
1.27317
0.367436
1.1152
0.593428
1.14515
0.614778
1.46807
0.368864
0.511955
1.19555
1.11991
0.356635
0.785641
1.12299
0.371678
1.02611
0.128069
1.02387
0.328966
0.316382
0.513073
1.40456
0.372248
0.216668
0.369443
0.383404
0.689585
1.23216
0.427203
0.38691
0.690773
0.690942
0.0232506
1.37913
0.371054
0.500225
0.884778
1.15259
0.0173121
0.380499
1.39788
0.316972
0.287616
0.96376
0.163766
0.253165
1.30775
0.366206
1.3852
0.715103
0.222735
0.284352
0.807792
0.275366
0.369478
0.543957
0.342411
0.355353
0.338673
0.128971
0.931767
0.335065
0.490859
0.312046
0.444231
0.499993
0.323652
0.312622
1.38191
0.346084
0.282207
0.308909
1.39962
0.371988
0.29903
0.446905
1.11445
0.472798
0.332585
0.38015
0.320679
0.00456826
1.38941
0.471731
0.315413
0.238211
1.41711
0.637559
0.144072
0.305326
0.0623836
0.691458
1.3934
0.301434
1.38672
0.282218
0.173603
1.39926
1.38238
1.41181
0.223929
1.40482
0.0793442
0.0884238
0.311564
0.143207
0.123511
0.404054
1.12113
1.4007
1.36371
1.42221
1.35243
0.914295
0.684291
0.225427
0.289209
0.349792
0.871714
0.983498
0.608793
1.22726
0.468543
0.322141
1.04309
0.419796
1.35638
1.36183
0.163432
1.36257
0.976074
1.27313
1.41571
0.298221
1.17515
0.990952
1.04666
0.992453
0.303096
0.787779
1.36648
1.41892
0.375776
1.34767
1.41848
1.38245
1.1991
0.243741
1.42226
0.26025
1.32806
1.32393
0.262308
0.295255
0.22864
0.893664
1.40587
0.659907
0.982923
0.235598
1.07551
1.40663
0.320518
1.21914
0.304484
1.23414
1.36008
1.42352
1.35389
0.546607
0.606479
0.720442
1.16769
0.322749
1.28809
1.30062
0.311998
1.24349
0.774585
0.311894
0.979959
1.26658
0.294681
1.36762
0.23966
1.277
1.43157
0.277057
0.845795
0.282091
1.0036
0.298581
0.128085
1.40692
1.02232
0.513224
0.69958
0.875423
0.83493
0.11473
0.797151
0.792069
1.36638
1.02997
1.44529
1.32633
0.426371
1.38168
0.135554
0.13899
1.08287
0.943761
1.24368
1.24489
0.145877
0.126097
0.770097
1.39406
1.19211
1.32492
1.43034
0.149496
1.20249
1.02643
1.20549
1.23603
0.97005
1.40659
1.25208
1.27674
0.38423
0.417386
1.42584
0.148691
0.12925
0.273835
1.34005
1.39887
1.4138
0.260159
0.244099
1.11473
0.267958
0.264612
1.14252
1.42066
1.23551
0.455482
1.35813
0.768489
1.22458
1.23286
1.42422
0.248413
0.941405
0.94799
0.265502
0.241977
0.235644
0.250822
1.01192
0.266406
1.42179
1.20767
1.12658
0.265839
0.232509
0.556319
1.17614
1.42411
0.757332
0.666581
1.42033
0.106251
0.194705
0.447241
0.695847
0.19305
0.260144
0.265174
0.539669
0.272322
1.4197
1.42223
0.594901
1.41722
0.927758
0.533267
0.24772
0.430555
0.396787
0.479609
0.256306
0.214168
0.283948
0.337925
0.226243
0.4112
0.44555
1.18526
0.227254
0.255413
0.4967
0.147627
0.264717
0.230052
0.202908
0.21501
0.23456
1.4181
0.243367
0.264162
0.891811
0.898535
1.3942
0.933613
1.41479
1.30397
1.33487
1.39219
0.831262
0.217572
0.935789
1.42794
0.370561
0.107236
1.19081
0.215264
1.31323
0.214208
0.246927
0.586991
0.187694
0.536612
0.217175
0.179655
0.691175
1.20936
0.0309024
1.07442
1.45194
0.170579
1.16288
0.165754
1.3866
1.23514
0.157503
0.690882
1.20586
0.180846
1.39465
1.20402
0.623593
0.181226
0.23613
1.41287
0.762496
1.20383
0.467975
0.63749
1.30893
0.378673
0.237757
1.05112
0.569759
1.26775
0.572643
1.07797
0.215329
0.220031
0.319023
0.277858
1.42091
1.27862
0.133285
0.134516
1.46029
0.439494
1.40026
1.28526
0.208626
1.33203
0.19115
0.191661
0.188542
0.129749
0.184834
0.187218
1.47347
0.193406
0.755469
1.02847
0.075333
0.360921
1.06119
0.930058
1.05628
1.05785
0.0808427
0.0837193
0.0875367
0.0638714
0.0564372
1.42044
0.0654571
0.744765
0.0532492
1.44835
0.509756
1.41962
1.01372
1.12099
0.172476
0.145234
0.0418241
0.932414
0.156656
1.25619
0.15707
0.172004
0.303174
0.199264
0.736848
1.12965
0.170235
1.16845
0.956263
0.133629
0.658073
1.40295
0.16165
0.717445
0.92754
0.148329
0.15134
0.198902
0.156066
0.944565
0.955674
0.591734
0.533036
0.146886
0.365415
0.349254
0.267314
1.42396
0.388757
0.658039
0.342836
1.27676
0.0970089
0.80212
0.952611
0.0142226
0.229904
0.0927817
0.105226
0.469432
1.2182
1.15531
1.16217
0.822655
0.711465
0.770729
0.106897
1.38227
1.43092
0.121865
1.13723
0.114336
0.805374
0.130916
1.34712
0.479427
1.30462
1.17084
0.16091
0.134639
0.152504
1.40286
0.123805
1.16704
1.32936
0.638115
0.905389
1.41897
1.22479
1.38399
1.0526
1.06493
1.00474
0.0264705
0.134454
0.73325
0.133168
0.950076
0.856396
0.131959
0.93331
0.107341
0.105507
0.129999
0.629716
0.131917
0.817557
0.0208119
1.26533
0.245431
0.963499
0.108035
0.114159
1.0523
0.121687
0.473617
0.883658
0.125979
0.844902
0.759124
0.124064
0.12934
0.600586
0.114083
1.34592
0.808205
0.500452
0.110872
0.116805
0.50669
1.0299
0.0198916
0.787183
0.024246
0.858581
1.3579
0.519107
0.537867
0.527169
0.299445
0.919763
0.121444
1.07911
0.117742
0.482093
0.498568
0.916369
0.924111
0.37919
0.440016
0.924584
1.44236
0.116147
1.43985
0.444196
0.804141
0.0222043
0.204041
1.32713
0.0586431
1.38645
1.34645
0.091587
1.27913
1.25291
0.0823737
0.700764
0.118245
1.34253
0.814752
1.16109
0.541994
1.23782
1.36498
0.0765239
1.00975
0.818228
0.811902
1.17337
1.18527
0.0739244
0.03681
0.117722