/*--------------------------------*- C++ -*----------------------------------*\
| =========                 |                                                 |
| \\      /  F ield         | OpenFOAM: The Open Source CFD Toolbox           |
|  \\    /   O peration     | Version:  2406                                  |
|   \\  /    A nd           | Website:  www.openfoam.com                      |
|    \\/     M anipulation  |                                                 |
\*---------------------------------------------------------------------------*/
FoamFile
{
    version     2.0;
    format      ascii;
    arch        "LSB;label=32;scalar=64";
    class       surfaceScalarField;
    location    "14";
    object      phi;
}
// * * * * * * * * * * * * * * * * * * * * * * * * * * * * * * * * * * * * * //

dimensions      [0 3 -1 0 0 0 0];

oriented        oriented;

internalField   nonuniform List<scalar> 
113358
(
-1.77252e-05
3.61861e-05
-2.44726e-05
6.01236e-06
2.55239e-05
3.4387e-07
-7.10557e-06
-1.87317e-05
-2.77079e-05
2.1809e-05
-3.23071e-06
9.11637e-06
-2.31982e-05
-6.79251e-06
2.39706e-05
6.12849e-06
-1.69165e-05
1.19389e-06
2.95776e-05
-1.38431e-05
1.36466e-05
-1.42037e-05
-7.958e-06
8.52085e-06
-8.05396e-06
3.69074e-05
-2.62654e-05
-2.48472e-06
-1.1605e-06
-3.72167e-05
2.07361e-05
1.76794e-05
9.5819e-06
3.71243e-07
1.89442e-05
-2.89018e-05
1.11246e-05
4.0924e-06
-1.47872e-05
-2.16877e-07
-5.28749e-06
1.97078e-05
-1.81401e-05
3.71317e-06
-1.88507e-05
1.68467e-08
-2.51892e-07
1.91142e-05
-4.97703e-05
4.70571e-06
1.35413e-05
3.14848e-05
1.97073e-06
-3.82542e-06
1.88021e-06
3.41699e-06
-1.85767e-06
2.62332e-05
-2.79181e-05
1.34168e-06
3.73904e-07
1.59517e-05
-1.77025e-05
8.3809e-06
2.81173e-05
-2.32736e-05
-1.3214e-05
-2.19825e-05
1.26695e-05
7.36768e-06
1.93029e-06
1.37863e-05
-4.07889e-05
3.74352e-05
-1.04302e-05
2.09198e-05
2.55331e-06
2.412e-05
-4.76348e-05
2.2773e-05
9.89634e-07
-1.01698e-06
-2.2748e-05
-1.09947e-05
4.28237e-05
4.20363e-06
-3.61287e-05
-7.33049e-07
-3.98544e-05
4.29175e-05
-2.28941e-06
-1.40673e-06
6.51019e-06
5.03065e-07
-5.58124e-06
-4.22843e-05
1.85845e-05
-3.45119e-06
2.71315e-05
-2.92247e-05
6.46732e-06
2.42187e-05
-1.5748e-06
-1.29399e-05
1.27228e-05
-7.65731e-08
3.03316e-07
-2.08054e-06
-8.52704e-06
6.54588e-06
4.04924e-06
2.35234e-05
-4.95795e-08
-6.66733e-07
-3.3756e-06
3.39462e-06
-2.8046e-09
-5.20123e-06
-2.59822e-05
2.75451e-05
3.63995e-06
6.96215e-06
-1.06603e-06
-9.23976e-06
3.34162e-06
2.00369e-05
-1.18983e-06
7.41583e-07
-1.95899e-05
-3.05874e-05
1.29708e-05
-2.69802e-06
2.04812e-05
1.69374e-05
9.40387e-07
-1.8825e-05
9.61035e-07
-3.23839e-05
7.50911e-06
-1.21952e-05
3.69828e-05
-8.39617e-08
-3.33597e-06
3.41609e-06
9.02547e-06
1.23587e-05
2.3263e-06
-2.37667e-05
8.42075e-06
-4.34748e-05
3.44862e-05
5.49043e-07
-2.85187e-06
4.73007e-06
3.17088e-05
-3.35741e-05
-2.21071e-05
1.78855e-05
-2.21267e-05
2.63692e-05
2.44823e-06
-2.21161e-05
-3.01295e-05
4.98258e-05
-3.258e-07
4.0181e-05
-1.10483e-05
-2.88475e-05
6.12837e-06
-2.07643e-05
-8.7245e-06
-4.9969e-06
3.12032e-05
1.32283e-07
-2.63339e-05
-3.46212e-06
2.14751e-05
-1.45491e-05
-3.45823e-06
-3.03339e-05
-1.11717e-05
4.12013e-05
-8.51286e-06
2.9958e-05
6.25893e-07
-2.20768e-05
-3.39471e-05
3.7781e-06
-5.09017e-06
3.52669e-05
3.07901e-05
1.28605e-05
-4.10078e-05
-2.64537e-06
2.30395e-05
-1.60441e-05
1.72478e-06
-8.71534e-06
-1.55534e-05
5.21361e-06
1.48157e-05
-4.33141e-06
3.26971e-05
-8.11395e-06
1.82696e-05
-4.29049e-05
-1.00328e-05
-4.05242e-05
4.3065e-05
7.52043e-06
-2.59483e-06
1.08009e-05
-1.17456e-05
3.54837e-06
3.03855e-05
-1.24058e-05
2.11328e-05
-3.91041e-05
-1.83366e-05
3.43442e-06
3.30321e-05
-1.81158e-05
1.7338e-05
-8.62968e-06
7.93815e-06
-1.66118e-05
3.01925e-05
-7.56994e-06
-2.31018e-05
4.46229e-07
-1.15313e-05
-1.42833e-05
6.84238e-06
1.8977e-05
-2.84046e-05
-4.409e-06
1.35873e-05
1.91663e-05
-4.71293e-06
4.90894e-06
-1.98756e-07
2.90277e-05
-4.8511e-06
-2.76373e-05
3.46421e-06
-1.23997e-05
-3.4636e-05
1.27215e-05
3.43099e-05
-4.37572e-06
4.24414e-06
-3.87989e-05
3.89801e-05
2.21339e-06
1.94015e-05
1.42738e-06
-2.30305e-05
5.48406e-06
-4.52225e-06
-9.39529e-07
8.12363e-08
2.01313e-07
1.61087e-05
-1.644e-05
5.50331e-06
-2.95242e-05
3.23437e-05
-8.33528e-06
1.02862e-05
-2.32923e-05
2.14537e-05
-8.44124e-06
1.05792e-05
-1.14489e-05
9.33926e-07
-1.60687e-05
-5.25281e-06
2.79478e-05
-6.64166e-06
-3.44229e-07
5.99607e-06
-5.6554e-06
6.45674e-06
-2.71764e-05
8.72037e-06
1.20095e-05
3.52455e-05
-2.95876e-06
-2.27915e-06
-2.99697e-05
-2.36282e-05
-2.90096e-05
3.08386e-05
2.18465e-05
2.58728e-06
-3.10616e-05
4.83722e-06
3.23698e-05
-2.52536e-05
-1.2381e-06
-5.87331e-06
-2.12131e-07
1.73051e-07
-2.07343e-05
2.08622e-05
7.26102e-06
5.80914e-06
1.01375e-05
-2.31997e-05
1.13703e-05
-6.14403e-06
5.64483e-06
-1.05897e-05
-1.45587e-05
-9.31503e-06
2.50704e-05
-1.1937e-06
-1.97601e-05
2.49295e-05
-1.7222e-05
1.20498e-05
-4.8787e-06
7.58259e-08
4.79464e-06
-2.70581e-05
2.62231e-05
-2.61355e-05
2.08392e-05
-4.15367e-06
-1.34049e-06
-8.40954e-07
6.33608e-06
5.89684e-05
-5.66112e-05
1.99179e-06
-4.48767e-06
-1.56248e-05
4.5677e-06
1.55735e-05
-4.53119e-06
-4.80905e-06
2.61627e-05
-2.90988e-05
7.67914e-06
-1.63641e-05
-2.01971e-05
2.99278e-05
6.64406e-06
7.94135e-06
-1.18236e-05
1.75593e-05
-1.36575e-05
6.69364e-06
1.92178e-05
-4.09543e-05
1.50254e-05
-3.09237e-05
1.12018e-05
1.28009e-05
6.93053e-06
6.98219e-07
-2.41601e-05
1.92718e-05
4.18033e-06
-2.70268e-05
3.05364e-06
9.48923e-06
1.44826e-05
2.22887e-05
-1.90518e-05
6.83108e-06
-1.01298e-05
1.83349e-06
1.62334e-05
-1.81402e-05
-3.62627e-09
2.04776e-05
-2.61999e-06
-3.16248e-06
-1.46736e-05
1.4858e-05
1.63267e-05
-1.37787e-05
-1.74187e-05
3.29967e-06
-1.11908e-06
6.25146e-06
-8.4329e-06
6.91278e-06
-1.68687e-07
-6.71665e-06
-6.74738e-08
5.57604e-06
-5.50094e-06
-8.13382e-07
4.10092e-06
-1.77464e-05
1.44733e-05
-1.90325e-05
4.01033e-05
4.78702e-07
-2.15354e-05
4.14827e-06
-1.87559e-05
1.47715e-05
-1.00738e-07
-4.19888e-06
-6.46485e-06
1.40173e-06
9.26465e-06
-6.64212e-06
-1.55727e-05
3.99336e-06
1.81919e-05
-3.33376e-06
2.30714e-05
9.38027e-06
-2.91754e-05
5.37262e-06
4.31614e-06
-2.45896e-05
1.49069e-05
-3.45898e-06
2.78302e-05
-3.16526e-05
7.31025e-06
-1.1134e-05
1.15145e-05
-4.05962e-07
2.3965e-05
-2.92999e-05
4.42431e-06
8.2668e-07
1.93863e-05
9.58445e-06
-3.23511e-05
3.39035e-06
-2.37181e-05
-1.22808e-05
6.09618e-06
2.99106e-05
-2.19273e-06
-2.40981e-05
6.28363e-07
2.56533e-05
1.74018e-05
-1.80556e-05
4.58739e-07
1.96679e-07
1.58962e-05
-2.72158e-05
-5.43907e-06
1.68014e-05
-4.8907e-06
6.96415e-07
4.17987e-06
-3.65864e-06
-1.19216e-06
2.66273e-05
-2.17861e-05
-1.16122e-05
6.92836e-06
3.65667e-05
-3.19058e-05
-8.49347e-06
1.70494e-05
-2.6132e-05
1.76049e-05
1.50297e-06
-2.23633e-05
1.76478e-05
3.2344e-06
-3.11275e-06
-7.58657e-06
2.66387e-05
-1.59356e-05
2.27024e-05
-1.06435e-05
-8.97761e-06
-3.07478e-06
-2.44366e-06
-1.39834e-05
1.95031e-05
-2.99577e-06
8.97415e-06
-4.34851e-06
-4.61121e-06
-8.52495e-07
-2.62864e-05
-4.82123e-06
3.19841e-05
-1.47991e-05
2.07575e-05
5.81917e-06
-1.17522e-05
4.0412e-06
-1.06097e-05
1.82339e-05
-1.16623e-05
-3.48009e-05
7.78152e-06
-5.48296e-07
2.76037e-05
-2.81986e-06
-4.61784e-05
4.12734e-05
7.76633e-06
1.72595e-07
-5.67583e-06
5.56429e-06
2.0361e-05
-3.03574e-05
3.1431e-07
9.69328e-06
4.11753e-05
4.80559e-06
-4.40645e-05
-1.90415e-06
1.2501e-05
1.05354e-06
-2.88135e-05
1.53084e-05
-8.85694e-06
1.27129e-05
1.55249e-05
-2.78705e-05
-2.34217e-05
1.26826e-05
3.85462e-05
8.52237e-06
4.11379e-06
-5.68342e-06
8.1667e-06
-6.35765e-06
-3.01059e-05
2.83033e-05
6.76797e-06
2.00254e-05
-9.66464e-06
-1.71186e-05
-5.57973e-06
1.21389e-05
2.5762e-05
-3.23262e-05
1.67354e-07
3.59005e-06
-3.7672e-06
-2.23322e-05
3.60676e-06
1.33501e-05
5.38534e-06
2.63412e-05
-1.38872e-05
-1.79427e-05
5.4956e-06
3.04803e-05
-7.02878e-06
-3.52718e-06
-1.99269e-05
-2.88892e-05
2.291e-07
-7.24542e-07
2.94089e-05
2.63623e-05
1.27993e-05
-3.76603e-05
-1.55377e-06
6.91782e-06
4.92425e-06
-1.18381e-05
1.71637e-06
-2.872e-05
-2.29023e-07
2.7146e-05
4.61529e-05
-3.6031e-05
-3.50881e-06
-6.53457e-06
7.01124e-06
-1.13391e-06
-5.52089e-06
-3.18666e-07
-2.86037e-05
4.05118e-05
1.56299e-05
-2.74919e-05
1.68141e-05
-2.65704e-05
-2.21975e-06
1.19946e-05
-2.83629e-05
3.03989e-05
-5.26347e-07
-1.412e-06
-4.3267e-06
2.10842e-06
2.2509e-06
3.9691e-05
-4.17311e-06
1.09794e-05
-4.64912e-05
-2.82217e-05
3.74523e-05
-3.75092e-05
-3.23544e-07
2.95051e-06
2.30072e-05
-2.55759e-05
3.74112e-06
-3.67139e-06
-8.68361e-08
-1.50269e-05
-7.76764e-06
1.70029e-06
2.11303e-05
-1.05098e-05
2.76388e-05
-2.23236e-05
5.22688e-06
2.62401e-06
-7.18953e-06
4.61668e-06
-4.08448e-08
-2.85092e-06
-2.63619e-06
5.51743e-06
-2.82579e-05
2.67367e-05
2.74324e-05
-2.59101e-05
4.21534e-05
-1.08355e-05
-9.23741e-06
-2.20703e-05
1.79822e-05
7.43522e-07
-6.31987e-07
-1.80781e-05
2.75865e-05
-3.36703e-05
4.49574e-06
1.58072e-06
4.30309e-06
1.19544e-09
-4.29519e-06
-5.06159e-06
2.57238e-05
-2.54673e-05
4.90329e-06
-1.68929e-05
1.71062e-05
-1.81205e-06
1.59454e-06
-1.44727e-05
1.27844e-05
9.9161e-07
6.74084e-07
2.86494e-06
-2.59042e-05
9.08455e-06
1.39253e-05
-1.04107e-05
-1.03835e-05
2.4528e-05
-3.74481e-06
-2.01075e-05
1.97046e-05
4.28991e-07
-1.64415e-08
-3.03156e-05
-3.53152e-05
3.53522e-05
-9.38983e-06
2.92858e-05
9.19574e-06
-2.90805e-05
5.11843e-06
3.04674e-05
5.0308e-06
-4.06372e-05
-1.79501e-05
7.27102e-06
2.5523e-05
-1.48473e-05
-6.39078e-10
1.35042e-07
1.47896e-05
-1.48722e-05
2.31361e-06
3.54037e-05
-5.31123e-06
-3.23839e-05
-5.73986e-06
-3.97151e-06
6.1027e-06
3.62391e-06
6.24459e-06
-6.01264e-06
-2.2845e-07
-4.76995e-06
-1.64754e-05
1.14988e-06
-2.27364e-05
8.48122e-08
-4.42497e-06
2.70797e-05
-1.98305e-05
1.75383e-05
6.88575e-07
1.58469e-06
-5.06614e-07
1.15142e-05
-5.31241e-08
-1.09721e-05
-4.63062e-06
4.4919e-06
1.40823e-07
3.29916e-06
-7.15551e-07
2.14432e-05
-2.40845e-05
3.32812e-05
3.43634e-06
-2.80621e-05
-8.61542e-06
-3.53909e-06
-1.47324e-05
-1.01109e-05
1.94561e-05
-2.15095e-05
1.66931e-06
3.38865e-07
6.37272e-06
-2.69223e-05
3.15823e-05
-1.10261e-05
1.48514e-05
3.3197e-06
-8.40612e-06
-9.66191e-06
-1.47241e-05
-3.54606e-05
8.0558e-06
4.2042e-05
2.28923e-07
3.86141e-06
-3.50985e-07
-3.69838e-06
1.35218e-05
-6.45699e-07
1.71436e-06
-1.45397e-05
-1.38833e-05
2.72726e-07
1.38763e-05
-2.32758e-07
2.33761e-05
4.63671e-06
-3.04798e-05
2.46838e-06
-2.77767e-05
-1.60267e-05
3.56574e-05
8.1411e-06
-8.32226e-06
3.62741e-06
-8.38185e-06
5.07128e-06
2.18057e-05
-2.75501e-05
6.64756e-07
-2.59319e-05
-2.69989e-05
1.15596e-05
4.15117e-05
-4.14309e-06
4.46087e-06
-3.3087e-07
1.89918e-05
1.13952e-05
-2.04921e-06
-2.82433e-05
-6.92016e-07
-4.12108e-06
-2.70343e-05
3.18253e-05
-1.69717e-05
4.39854e-06
4.13543e-05
-2.88231e-05
2.32471e-05
-1.73452e-05
-8.64245e-06
2.69442e-06
3.86881e-06
-1.54872e-07
-3.74698e-06
4.7632e-05
-2.24623e-05
3.57156e-06
-2.8774e-05
1.28463e-05
-1.35436e-05
1.52564e-06
-8.09091e-07
2.7967e-06
3.06348e-06
-5.85557e-06
-1.55388e-05
-2.09801e-05
4.36286e-06
3.20863e-05
-1.60122e-05
4.04562e-08
1.64761e-05
-4.30832e-07
2.27739e-05
-4.95413e-05
1.17023e-06
2.56011e-05
-1.72777e-05
-2.18892e-05
2.87645e-05
1.03969e-05
-1.31679e-05
1.59916e-05
2.76514e-05
4.82611e-06
2.49167e-05
-2.6381e-05
-3.34812e-06
2.5226e-06
1.74436e-06
-1.73721e-05
1.31256e-05
-2.96112e-05
1.33413e-05
1.05919e-05
5.70127e-06
1.92958e-05
4.59162e-06
-1.85737e-06
-2.21504e-05
-3.76638e-06
-2.81133e-05
2.52746e-06
2.93866e-05
5.69656e-06
-2.1684e-06
2.17893e-05
-2.53147e-05
-3.13839e-06
2.18747e-07
-8.08386e-06
1.10969e-05
6.38219e-07
8.44358e-06
-3.22692e-05
2.31941e-05
-1.13816e-05
-2.29481e-05
-1.03974e-06
3.5338e-05
4.61738e-07
7.26104e-06
-7.70065e-06
-5.76189e-08
2.13217e-07
1.51808e-05
-1.53768e-05
2.19418e-06
1.36781e-05
1.12161e-05
-2.70918e-05
5.24358e-07
-2.0529e-05
-4.83998e-08
2.00501e-05
3.92899e-06
-1.73087e-05
-1.31932e-05
2.65834e-05
1.23067e-05
1.5138e-05
-1.28248e-05
-1.46278e-05
2.47202e-05
1.48207e-05
-3.33091e-05
-6.24056e-06
-1.29062e-08
-6.31002e-06
6.32468e-06
4.21715e-06
1.83303e-06
-6.80429e-08
-5.99934e-06
3.00494e-06
3.09835e-06
3.04657e-07
-6.44012e-06
3.21631e-06
-3.7866e-06
2.02857e-05
1.78463e-07
-3.276e-05
1.19637e-05
2.06316e-05
4.95614e-05
5.6374e-06
-1.0367e-05
-4.49076e-05
-1.11939e-05
1.49205e-05
-3.39812e-06
-3.28392e-07
-1.27468e-05
1.22048e-05
-2.01732e-05
2.07569e-05
4.84626e-06
-1.66214e-10
-4.86237e-06
9.85752e-07
1.20809e-05
-2.25733e-05
9.49849e-06
5.03744e-06
-7.46755e-06
2.42664e-06
2.11068e-05
-1.13125e-05
-5.74999e-06
-2.00061e-05
8.14472e-06
-1.89379e-05
3.07993e-05
3.01001e-05
-2.88916e-05
4.50981e-06
-5.70657e-06
2.04624e-05
6.16761e-06
-2.39779e-05
-2.64481e-06
2.10825e-06
-3.27344e-05
1.10595e-05
1.95782e-05
3.19062e-05
-6.29191e-06
4.85184e-06
4.15743e-05
-4.72423e-05
2.8315e-06
-3.01481e-05
1.47919e-06
3.16948e-05
-3.0539e-06
-2.22149e-05
-1.45148e-05
2.4007e-05
-1.12407e-05
-1.03967e-05
-1.51392e-05
3.67853e-05
-6.73357e-07
3.76629e-06
3.52063e-05
-3.82419e-05
1.56554e-06
2.45122e-05
-4.37789e-05
1.76936e-05
-1.90126e-07
1.37587e-07
2.37483e-05
-2.37217e-05
-3.67251e-05
5.65639e-06
3.60932e-06
2.73747e-05
1.71103e-05
-1.71571e-05
6.44708e-06
-6.34603e-06
1.13084e-06
1.51575e-05
-1.89603e-05
2.68694e-06
-2.42782e-05
3.56897e-05
-3.97423e-06
-7.42926e-06
-2.99378e-05
2.23268e-05
1.18153e-06
6.37768e-06
-3.30547e-05
3.11612e-05
4.05719e-05
-3.86506e-05
2.65763e-05
-2.16785e-05
1.37438e-06
-6.2783e-06
-1.48575e-05
1.91895e-05
-1.2029e-05
7.70977e-06
-9.58376e-06
2.31397e-05
1.93748e-06
-1.54718e-05
-3.27162e-05
2.32565e-06
3.58805e-05
-5.4968e-06
-6.09262e-06
-2.95347e-05
4.81804e-08
3.56225e-05
3.28048e-06
-1.17982e-05
9.66998e-06
1.3386e-05
1.15997e-06
-1.29824e-05
-1.53457e-06
1.11746e-05
2.20579e-05
-2.54648e-05
-7.74343e-06
-8.59123e-06
1.14404e-05
1.96668e-05
-2.25359e-05
1.2621e-06
5.17315e-06
-4.24315e-05
3.60324e-05
2.0899e-05
-3.12269e-05
1.02257e-05
1.61147e-07
-3.37777e-05
-5.42744e-06
9.3036e-06
-3.56001e-06
-1.00305e-06
-2.91252e-05
3.36346e-05
-4.58775e-06
-7.05481e-08
4.67105e-06
-4.15545e-06
-6.4242e-06
3.74465e-05
-2.68673e-05
7.9718e-06
-7.46598e-06
-4.11674e-07
3.29545e-07
2.40305e-07
-1.31479e-05
1.25978e-05
-1.50646e-05
1.41192e-05
2.56599e-05
6.35312e-06
3.05722e-05
-2.26495e-05
-1.4267e-05
6.42373e-06
-6.81482e-06
3.66078e-07
-5.14152e-06
5.63057e-05
-3.24279e-05
-1.86266e-05
-2.87257e-05
3.17034e-05
1.9791e-05
-2.07136e-06
2.0421e-05
9.77149e-06
-2.81198e-05
-2.59519e-05
-9.68426e-06
3.46083e-05
1.04331e-06
-7.20049e-06
6.54402e-06
6.65673e-07
2.5266e-05
-2.69151e-05
5.01382e-08
1.63995e-06
-1.5966e-05
-9.88139e-06
1.41864e-05
1.16763e-05
-3.14463e-06
1.39626e-06
-1.76257e-05
1.9388e-05
-2.72975e-05
-7.71127e-06
7.31607e-07
3.42817e-05
-1.66442e-05
-7.67008e-06
-6.60685e-06
1.84023e-05
-4.13907e-05
-4.15898e-06
2.70965e-05
6.48073e-06
-2.89659e-05
-8.44139e-06
3.08991e-05
1.08473e-05
-1.02675e-05
-5.91359e-07
-2.47195e-05
4.11445e-05
-5.66287e-06
-1.07044e-05
-6.44581e-06
-2.6667e-05
3.02741e-05
2.83988e-06
-3.57756e-05
3.64804e-05
-4.46975e-06
3.76114e-06
-2.11123e-05
-5.348e-06
1.4725e-05
1.17403e-05
-2.95396e-05
-5.62571e-06
3.52653e-05
1.13111e-08
-3.15416e-07
1.05125e-07
-1.74468e-05
1.76488e-05
4.83155e-06
3.26645e-07
-5.16184e-06
-9.18026e-06
9.41337e-06
-2.66932e-07
3.94848e-05
-3.25388e-05
-4.47683e-05
3.76729e-05
4.29342e-06
2.39534e-07
-4.53385e-06
-3.76807e-05
3.6841e-05
-5.54043e-07
1.40371e-06
-1.39487e-05
1.24063e-05
-3.23345e-07
1.93705e-06
4.04903e-06
4.22258e-05
-2.32653e-05
-2.30152e-05
-2.32756e-05
-7.48387e-06
2.9945e-06
2.77373e-05
3.13135e-05
1.34502e-05
-1.35964e-05
-3.11747e-05
1.73683e-05
-6.36341e-06
2.49414e-06
-1.34956e-05
4.05253e-05
-3.21199e-06
-2.90769e-05
-8.28472e-06
-5.9423e-06
8.76831e-06
-9.21953e-06
6.35866e-06
-3.32331e-06
1.08887e-05
4.34191e-06
-1.18401e-05
-1.20616e-05
-6.07699e-06
3.42178e-05
-1.60413e-05
7.86016e-06
2.87966e-05
-2.83567e-05
-8.31803e-06
-2.24108e-05
2.31708e-05
1.46721e-05
-1.54299e-05
2.63822e-05
-2.42295e-05
-3.38549e-06
1.34391e-06
-1.6269e-10
-1.50002e-05
-8.54076e-08
1.5109e-05
-9.28213e-06
1.80606e-05
-1.93671e-06
-6.84551e-06
-3.60166e-05
-1.42009e-05
1.96621e-05
3.04932e-05
1.92569e-05
-1.63377e-05
-3.30115e-06
3.89922e-07
7.66527e-06
-2.5906e-05
-2.8535e-05
4.68193e-05
1.57118e-05
-2.10838e-05
-9.97548e-06
1.53752e-05
-5.98952e-06
-4.7159e-05
1.33347e-05
3.97816e-05
1.95606e-05
-1.79634e-05
1.463e-06
-3.06143e-06
3.20962e-05
-1.16111e-05
-3.60195e-05
1.54291e-05
1.11898e-05
1.77179e-05
-4.13072e-05
1.23699e-05
-7.30201e-06
2.66102e-05
-2.30168e-05
3.70029e-06
-2.60703e-05
2.878e-05
2.92629e-05
-3.19694e-05
-3.22167e-08
-1.87052e-05
1.66506e-05
2.11788e-06
5.72071e-06
-5.59482e-06
-5.13255e-08
3.44112e-05
-4.29196e-05
1.20752e-06
-5.07952e-06
7.82427e-06
3.55448e-06
-6.27142e-06
-4.18283e-06
9.17939e-08
-1.98471e-06
6.10842e-06
1.5281e-05
-2.43611e-06
1.75247e-05
-2.58233e-05
9.11208e-07
7.38954e-06
-1.04077e-05
-2.93198e-06
1.0982e-05
2.0149e-05
-2.70519e-05
1.54342e-05
-8.51487e-06
-2.29606e-05
-3.50064e-06
2.80263e-05
-1.55115e-06
-4.3634e-05
-6.98232e-06
3.85574e-05
1.20022e-05
-3.39089e-05
8.87239e-06
7.16712e-07
2.43279e-05
-5.8843e-06
6.41927e-07
1.08493e-06
4.1548e-06
-2.37283e-05
-2.7793e-05
2.18028e-05
2.97279e-05
1.49897e-05
1.32868e-05
-2.26382e-05
-5.60191e-06
3.16771e-07
1.97497e-05
-1.70417e-05
-3.04252e-06
-3.91566e-08
-1.49192e-05
2.92278e-05
-1.42761e-05
3.15169e-05
-2.2414e-05
-1.22203e-05
2.7159e-05
-3.11806e-05
6.48243e-06
-2.49877e-06
-3.45171e-06
-2.77598e-05
2.94205e-05
1.8259e-06
3.55025e-05
-2.38721e-06
-3.65156e-05
2.22439e-05
-2.48869e-05
5.9407e-06
-3.31061e-06
2.45319e-06
-1.45477e-05
-1.17544e-06
1.32746e-05
-3.58116e-06
3.35747e-06
-4.17263e-06
4.40373e-06
-2.38684e-06
6.41991e-06
1.9954e-06
-6.03274e-06
-9.25487e-06
-2.20866e-05
-1.4631e-06
3.28317e-05
1.22768e-05
7.53141e-06
-3.11369e-05
1.13736e-05
-1.89585e-05
7.94545e-07
6.49401e-06
1.16619e-05
-2.06159e-06
-2.13539e-05
2.12714e-05
-2.61305e-05
3.02475e-05
9.17822e-06
-1.32587e-05
-3.58248e-05
4.00921e-05
-1.16225e-05
7.40075e-06
-4.84536e-06
-1.63802e-05
2.62618e-06
1.86011e-05
1.27159e-06
3.17084e-05
-3.71365e-05
4.12564e-06
1.69595e-05
-5.6322e-05
1.28232e-05
2.65315e-05
5.02162e-06
-3.43398e-05
1.8596e-05
1.0755e-05
1.74507e-06
1.79401e-05
-6.25979e-06
-1.34065e-05
-5.15708e-06
2.46789e-06
5.23096e-06
-2.51148e-06
-3.35601e-06
7.43766e-06
-2.92387e-05
2.5159e-05
-1.73837e-06
-1.52334e-05
5.28676e-07
1.64308e-05
3.81089e-07
1.54551e-05
-3.51696e-07
-1.55058e-05
2.08691e-07
1.56741e-07
1.65864e-05
-1.68897e-05
-8.12197e-06
-1.38531e-05
2.41913e-05
-2.1846e-06
4.61658e-06
-3.90362e-05
2.0344e-05
1.41121e-05
2.9443e-05
8.27715e-07
2.23725e-06
-3.25278e-05
3.83672e-06
-3.71364e-06
-1.04641e-07
1.08923e-05
2.20407e-05
-2.78947e-05
-1.51586e-05
-2.84159e-08
1.51428e-07
1.51573e-05
1.66516e-06
-2.29346e-05
8.31757e-06
1.29601e-05
1.33633e-06
9.75212e-06
-1.02381e-05
-8.86754e-07
-7.31287e-06
-1.56957e-05
2.98166e-05
-6.75482e-06
3.28031e-05
-3.45075e-05
2.99739e-05
-2.82188e-05
1.67493e-05
-7.52372e-06
-2.78821e-05
1.86511e-05
-2.7923e-06
-2.83205e-06
5.64439e-06
1.58057e-05
3.06284e-06
-4.3105e-06
-1.45402e-05
-2.44302e-05
3.70452e-05
4.45982e-06
3.58194e-06
-8.02472e-06
4.06828e-07
-2.88612e-05
4.39712e-08
2.84097e-05
-2.33994e-07
5.5346e-07
2.1731e-05
-6.74021e-07
2.43888e-05
-4.53147e-05
2.16001e-05
-7.97543e-06
-2.42614e-05
-3.8449e-06
3.61392e-05
6.18299e-06
-1.08558e-05
1.08099e-05
-6.15508e-06
-6.49041e-06
-3.10103e-05
-4.03145e-06
4.15827e-05
2.14441e-05
3.01676e-06
-2.35545e-05
-9.0164e-07
4.74151e-06
2.43205e-05
-4.01172e-05
1.10231e-05
-2.1349e-06
-1.49801e-05
-8.44976e-06
2.55511e-05
-2.53029e-05
-8.59134e-06
1.25842e-05
2.1362e-05
-1.43581e-06
-1.38676e-06
-1.76823e-05
2.04981e-05
3.13499e-05
-1.28577e-05
-7.57036e-06
-1.09092e-05
-1.99361e-05
4.84579e-05
-2.70321e-05
-1.49344e-06
1.48906e-05
2.98672e-07
2.70257e-07
-1.55471e-05
3.10123e-05
-3.56338e-05
3.64953e-05
-3.19159e-05
-5.71904e-06
1.84737e-05
-1.53059e-05
2.55042e-06
1.16418e-05
-4.2667e-05
2.13574e-06
2.89071e-05
8.05857e-06
3.73346e-05
-3.23312e-05
-1.30535e-05
9.27272e-06
-9.18612e-06
-1.37624e-05
1.36939e-05
-2.28742e-05
-1.31197e-05
3.97192e-05
-3.74953e-06
3.42311e-05
-2.61193e-05
-4.3128e-05
3.49571e-05
1.60045e-05
1.51438e-05
-8.40357e-06
-2.26577e-05
2.26929e-07
-1.38233e-05
1.54361e-07
5.88956e-06
-6.02687e-06
-4.7145e-06
4.54518e-06
1.59866e-07
2.54182e-05
-2.50942e-05
-2.30307e-05
2.27001e-05
-5.82428e-06
7.15136e-06
-2.09984e-05
1.96541e-05
3.06853e-05
-2.4294e-05
-4.89563e-06
-1.49795e-06
-6.89356e-06
1.62515e-06
4.46075e-06
-6.90389e-06
2.39943e-05
-6.58532e-06
-1.04997e-05
-4.94782e-05
1.49234e-06
1.60767e-05
3.18094e-05
1.13433e-05
-4.82067e-06
-1.14801e-05
4.97348e-06
6.51629e-06
3.08678e-05
-2.88732e-05
-8.47164e-06
-1.68972e-05
-3.54593e-06
3.2791e-05
-1.23404e-05
1.89457e-06
1.96895e-05
3.99793e-06
-2.55839e-05
6.61861e-06
2.19167e-05
-2.66505e-05
2.37741e-05
-1.71225e-05
-8.94218e-06
2.23507e-06
1.76868e-05
-2.30293e-05
1.00821e-05
-1.69446e-05
1.1665e-05
9.3961e-06
-4.12465e-06
7.80057e-06
1.03008e-05
1.87552e-05
-3.68117e-05
4.74172e-06
-3.00909e-05
-4.75219e-06
3.00402e-05
5.49863e-07
2.31675e-05
2.57093e-06
-2.62551e-05
9.96917e-06
1.93453e-05
-3.20229e-05
2.69941e-06
-5.25441e-05
4.38255e-05
-1.33455e-06
1.4139e-07
3.61409e-05
-3.2409e-06
-3.31014e-05
-4.92762e-06
1.04938e-05
-1.42312e-05
8.74739e-06
-1.33498e-06
-5.38879e-06
6.28874e-07
6.11722e-06
-4.80221e-06
4.6115e-06
1.72187e-07
-5.07669e-06
-5.83014e-06
3.16367e-05
-2.07302e-05
-2.37506e-05
3.67139e-06
-1.04391e-05
3.05167e-05
4.11235e-05
-1.0412e-05
-1.29543e-05
-1.76664e-05
3.82848e-06
-3.25072e-05
1.12462e-05
1.74617e-05
4.92763e-06
-4.50229e-06
-1.67764e-06
1.23515e-06
-5.53248e-06
5.49207e-06
6.75113e-08
1.96412e-06
2.96118e-05
-5.2017e-06
-2.63408e-05
-5.1098e-06
2.31255e-05
-3.02971e-05
1.23327e-05
9.83803e-06
1.60785e-05
-3.75047e-05
1.16e-05
-2.65871e-06
2.45557e-05
1.81762e-05
-4.00867e-05
-4.24535e-05
2.15436e-05
2.56472e-05
-4.74009e-06
2.98638e-05
-3.01872e-05
5.76134e-06
-5.43244e-06
-3.1167e-05
-7.69438e-07
-1.04962e-05
2.57526e-07
7.69011e-06
-7.95281e-06
3.08542e-05
4.25052e-06
-2.52766e-05
-9.85841e-06
-2.4561e-06
-3.57685e-06
1.69073e-05
-1.0875e-05
2.8822e-06
5.29656e-07
1.03361e-05
-1.37045e-05
-2.96565e-05
1.29648e-05
1.45367e-05
2.1536e-06
1.68004e-05
-2.57551e-05
-3.85718e-06
1.27843e-05
-2.29916e-05
5.92649e-06
3.7378e-05
-2.03091e-05
-4.8781e-06
2.20117e-08
4.76688e-06
-1.21031e-05
3.14241e-05
2.12699e-05
-4.05948e-05
2.6517e-05
5.85026e-07
-4.22868e-05
1.51827e-05
-1.96162e-06
2.66807e-05
-2.2992e-06
-2.24151e-05
2.24645e-05
-1.80193e-05
1.32715e-05
-1.7685e-05
-1.18009e-06
-2.06441e-05
2.32836e-05
-1.45269e-06
-1.66144e-05
-2.45742e-06
-1.2098e-05
3.11479e-05
-8.33082e-06
-8.29867e-06
-1.50035e-05
3.15749e-05
-1.03934e-06
2.75187e-05
-3.33861e-06
-2.31356e-05
2.63177e-05
-2.64202e-05
1.11884e-08
1.14228e-07
3.13752e-05
-7.84166e-09
-2.13944e-05
-9.94966e-06
-8.08231e-06
-4.03528e-06
-2.29225e-05
3.50074e-05
-4.03643e-07
-4.58344e-06
4.97551e-06
-2.48895e-05
3.76296e-05
-2.97351e-06
-9.755e-06
2.65838e-06
1.9812e-05
6.46895e-06
-2.902e-05
-5.65231e-06
1.34777e-05
5.24646e-06
-1.30962e-05
-1.95458e-05
-4.5834e-06
2.03053e-05
3.94767e-06
1.67292e-05
1.29266e-05
-4.38464e-05
1.41931e-05
1.25583e-05
-9.17902e-06
3.2323e-05
-3.56634e-05
-3.32779e-06
2.40417e-05
2.05979e-06
-2.27465e-05
4.30484e-06
-4.20625e-06
-9.85338e-08
2.24226e-06
2.63091e-05
1.2803e-06
-2.98386e-05
2.99363e-05
-5.17996e-06
-2.7813e-05
3.09755e-06
-4.59445e-06
5.9838e-06
-2.68111e-05
2.5449e-05
-2.9841e-05
-4.91833e-06
2.42344e-05
1.06267e-05
1.45612e-05
-1.41443e-05
2.81818e-08
-4.63826e-07
-4.04209e-05
2.54315e-05
-1.57715e-06
1.65892e-05
-6.04313e-06
5.14471e-06
9.21508e-07
1.17078e-05
-1.0422e-05
1.50616e-05
-1.6381e-05
1.96436e-05
1.6234e-05
-8.4391e-06
1.21752e-05
-3.27762e-05
-1.38441e-05
3.44064e-05
1.3524e-07
-2.04836e-05
2.03462e-05
-5.5054e-08
9.25156e-06
-1.63712e-05
-1.77015e-05
2.48391e-05
1.66138e-05
6.96752e-06
-2.79477e-06
-2.07776e-05
-5.74272e-06
1.55427e-06
7.32508e-06
-3.13101e-06
-3.24521e-06
4.25262e-05
-1.4507e-05
-2.47061e-05
1.13517e-05
1.38841e-05
-2.07334e-07
-2.50211e-05
-9.78601e-08
4.41618e-06
-4.30619e-06
-9.1155e-07
4.78285e-06
2.71797e-05
-3.10256e-05
3.05933e-05
4.24926e-06
-1.45289e-05
-2.03021e-05
-1.26675e-06
7.74363e-06
-6.29459e-06
-2.21461e-07
1.82371e-05
-1.07681e-06
-2.00501e-05
2.96509e-06
-5.75871e-06
-1.71219e-05
8.13562e-06
1.47664e-05
-5.20726e-06
2.41913e-05
3.89196e-06
-2.28963e-05
2.2912e-05
-2.58652e-06
-2.54435e-05
5.13196e-06
-3.53304e-06
6.55737e-06
-3.00825e-06
3.53607e-06
-1.61778e-05
1.43427e-05
-1.705e-06
8.16793e-07
1.46225e-05
-1.51449e-05
-3.06394e-07
1.17523e-05
1.37807e-05
-1.48483e-06
-2.40615e-05
1.67103e-05
2.16887e-05
-1.55025e-05
-7.97146e-08
5.63259e-06
-5.56202e-06
-3.59658e-05
1.79933e-05
3.30712e-05
-1.51496e-05
3.59172e-05
6.32108e-06
-3.77962e-05
-4.4718e-06
2.14782e-05
-1.39349e-05
-2.41276e-05
8.41705e-06
1.42542e-05
-2.94239e-05
-1.42244e-06
-6.72388e-06
3.75741e-05
-5.47826e-08
5.61768e-06
-5.58257e-06
3.28801e-05
-9.68207e-07
-3.48752e-06
-2.84451e-05
5.78217e-06
-6.03472e-06
2.8861e-07
-1.64321e-05
4.10898e-06
-9.09995e-06
2.14684e-05
-1.96319e-05
-1.54115e-05
1.47875e-05
2.02667e-05
2.68917e-05
-2.07226e-05
-5.31794e-06
-8.25044e-07
-8.15846e-10
4.36083e-06
-4.42258e-06
-7.63785e-07
-5.94974e-06
3.83581e-08
6.72463e-06
1.09569e-05
3.68209e-06
-7.04362e-06
-7.61354e-06
-1.67508e-05
1.80352e-05
-2.04078e-06
1.98045e-07
3.85299e-05
-1.60735e-06
-3.71207e-05
-9.9965e-06
-8.45089e-07
1.28771e-05
-2.05728e-06
4.08839e-06
-1.91392e-05
1.52811e-05
-2.39027e-07
1.07032e-05
-2.03257e-05
1.29771e-05
-3.34765e-06
6.81947e-06
1.61954e-05
2.25281e-06
-2.52378e-05
8.68551e-06
-8.52506e-06
-1.78598e-07
1.81513e-05
-1.461e-05
-3.82736e-05
3.46249e-05
6.69368e-07
1.02294e-06
1.69524e-05
-1.8588e-05
3.32478e-06
1.56328e-05
-1.9621e-05
6.61085e-07
1.52691e-05
-6.55375e-07
-1.97683e-06
-1.26454e-05
8.4085e-06
1.76408e-05
-2.62893e-05
2.25559e-07
1.97565e-05
-4.22535e-07
-1.41515e-06
-1.79052e-05
-2.60053e-05
9.56823e-06
1.16838e-06
1.52514e-05
-9.7172e-06
-8.89294e-06
-9.64398e-07
1.40483e-05
-2.36757e-05
1.80564e-05
-8.51068e-06
-3.41144e-06
-1.45313e-05
-2.19082e-05
3.98494e-05
-6.14911e-06
8.09134e-06
-1.6161e-06
-3.44799e-07
6.60696e-08
3.80902e-06
-3.90497e-06
-6.94738e-06
3.59829e-05
1.2077e-05
-4.11419e-05
2.37808e-05
9.98211e-06
-9.08116e-06
-2.4713e-05
2.65553e-05
-2.33968e-05
2.84223e-05
-3.15529e-05
3.67904e-05
-4.08903e-05
4.92825e-06
-8.22017e-07
-4.52051e-05
1.93914e-05
8.07591e-06
1.77234e-05
-1.70586e-05
-1.94649e-06
1.84742e-05
5.31142e-07
2.86738e-05
-3.81646e-05
1.34432e-05
-3.9539e-06
1.39868e-05
-1.61964e-05
5.10131e-06
-2.89264e-06
-1.38579e-05
1.22741e-05
-8.11109e-06
-1.62307e-05
4.99416e-05
5.76793e-06
-3.94303e-05
-7.93382e-06
4.52918e-08
7.86859e-06
-4.4535e-06
9.68956e-06
-3.76547e-05
-2.68704e-05
-5.65184e-07
3.07815e-07
2.7123e-05
6.96142e-06
3.26617e-07
-7.2431e-06
8.13894e-06
-6.53941e-07
-2.96504e-05
2.21971e-05
-1.37039e-07
5.08982e-08
1.4237e-05
-1.41779e-05
8.25298e-06
1.65789e-05
-2.84278e-05
3.628e-06
2.04172e-05
1.43088e-06
1.41125e-06
-2.32234e-05
-3.26597e-06
5.16407e-06
4.04167e-05
-4.22767e-05
-1.21487e-05
-1.66814e-06
-3.95287e-07
1.42267e-05
-7.9087e-06
6.48703e-06
-2.53156e-05
2.66977e-05
-1.88422e-06
3.03331e-05
-2.61156e-05
-2.30037e-06
3.0194e-05
9.21536e-06
-1.40577e-05
-2.5341e-05
6.42882e-06
-3.60918e-05
2.40833e-05
-3.08979e-05
3.903e-05
-1.61841e-06
1.63723e-05
-6.30017e-06
1.36897e-05
-1.88308e-05
-5.07604e-06
9.53619e-06
1.43683e-05
-9.68309e-06
1.03837e-06
8.78051e-06
-1.59021e-07
-1.00639e-05
2.4299e-05
-1.69315e-05
2.68481e-06
-2.97233e-05
2.59139e-05
2.70828e-05
-2.32759e-05
-5.09162e-06
4.66376e-06
2.17859e-07
2.2332e-07
2.81312e-05
-4.19229e-05
-1.54843e-05
2.92499e-05
-3.72315e-05
-1.40205e-05
2.49636e-05
2.62854e-05
3.3055e-05
3.56457e-06
1.90737e-06
-3.85492e-05
2.81797e-05
-1.82351e-05
2.31026e-05
-4.24182e-05
-3.82772e-06
1.73634e-05
2.89739e-05
4.68367e-06
1.94101e-07
-4.85095e-06
3.15463e-05
-2.92254e-05
-1.00184e-05
7.6913e-06
-2.33567e-05
-8.15219e-06
7.21536e-06
2.41983e-05
1.39415e-05
2.26854e-05
-1.27943e-05
-2.38415e-05
7.84601e-06
2.58838e-05
-2.52276e-05
-8.48096e-06
8.35639e-07
-9.58062e-06
8.75643e-06
-1.39521e-05
-1.17843e-05
1.18881e-05
1.38729e-05
2.29304e-06
2.31651e-05
-5.66239e-06
-1.98664e-05
-3.63461e-05
3.6389e-05
-6.56186e-06
-2.66285e-06
2.98961e-05
-2.89309e-05
1.70686e-06
1.86411e-05
3.86579e-06
1.09833e-05
-3.34764e-05
-3.24054e-08
-3.33188e-06
3.39627e-06
-4.86112e-06
4.81088e-06
5.52099e-08
-1.93346e-05
-9.80421e-06
1.1593e-05
1.75601e-05
-2.50599e-05
-7.20631e-07
3.10604e-05
-5.24665e-06
-7.72673e-06
2.78464e-05
-2.89033e-05
8.78153e-06
-2.29551e-05
1.86047e-05
-8.06072e-06
1.24026e-05
1.46739e-07
2.43445e-05
-2.69786e-05
2.49243e-06
-3.23727e-05
7.69034e-06
2.07896e-05
3.87969e-06
1.51106e-06
3.87108e-05
-1.47015e-05
-2.55374e-05
3.38219e-06
-6.16557e-06
-1.77752e-05
-8.80685e-06
7.24391e-06
1.83696e-05
-1.57503e-06
5.30165e-06
-2.20984e-05
-2.90732e-06
-7.21204e-06
8.93306e-06
1.25526e-06
1.76377e-05
-5.09321e-06
-1.27128e-05
1.94515e-07
1.22465e-05
-4.17731e-05
4.11101e-05
-1.15434e-05
-1.74654e-05
2.95339e-05
4.07058e-06
-1.61077e-05
-3.73838e-06
3.82401e-06
2.78365e-05
-2.79372e-05
-4.12365e-05
3.07608e-06
3.82468e-07
3.78986e-05
-2.42331e-05
3.19359e-06
1.89082e-05
2.14551e-06
-2.05166e-05
1.25773e-05
2.89169e-05
-2.09709e-05
-1.64879e-05
-3.02042e-05
9.10417e-06
3.76035e-05
4.7543e-06
-3.46364e-05
-3.8395e-06
3.3748e-05
-2.48777e-05
3.75774e-06
-1.6898e-06
2.28017e-05
-2.55087e-05
-1.31713e-06
-1.95335e-06
2.87873e-05
5.77029e-06
-3.2375e-06
2.81497e-05
-3.0651e-05
1.01684e-05
-5.81785e-06
-5.35597e-08
-4.27173e-06
4.29772e-06
-4.23426e-05
-7.07533e-06
4.51009e-05
-5.81696e-06
3.8894e-06
2.77666e-06
-8.7908e-07
-2.90539e-05
-7.6166e-06
1.59448e-05
2.07462e-05
-2.15923e-06
1.91239e-05
2.9189e-06
-1.98595e-05
-1.28784e-05
-1.34287e-05
9.94526e-06
-6.32816e-06
2.69415e-06
3.23494e-05
-2.86873e-05