/*--------------------------------*- C++ -*----------------------------------*\
| =========                 |                                                 |
| \\      /  F ield         | OpenFOAM: The Open Source CFD Toolbox           |
|  \\    /   O peration     | Version:  2406                                  |
|   \\  /    A nd           | Website:  www.openfoam.com                      |
|    \\/     M anipulation  |                                                 |
\*---------------------------------------------------------------------------*/
FoamFile
{
    version     2.0;
    format      ascii;
    arch        "LSB;label=32;scalar=64";
    class       volVectorField;
    location    "14";
    object      U;
}
// * * * * * * * * * * * * * * * * * * * * * * * * * * * * * * * * * * * * * //

dimensions      [0 1 -1 0 0 0 0];

internalField   nonuniform List<vector> 
59516
(
(0.127676 -0.00325496 -0.000632357)
(0.111149 -0.00141845 -0.003419)
(0.123552 -0.000161888 9.11681e-05)
(0.129241 0.00269411 0.000938716)
(0.113287 0.0016453 -0.00323106)
(0.101004 -0.00475224 -0.01063)
(0.140217 0.000892525 -0.00176121)
(0.12406 0.00363096 0.000964166)
(0.120964 0.000880188 0.000301006)
(0.0742261 0.00201678 -8.9972e-05)
(0.133193 0.00141382 -0.000364941)
(0.0829932 0.00400475 -0.00491071)
(0.139665 -0.000839131 0.000798372)
(0.0320524 -0.000771974 -0.00052029)
(0.0883899 -0.0011431 0.000918284)
(0.0688459 -0.000239243 -0.0007271)
(0.139665 0.000119758 -0.000626996)
(0.0881306 0.00178134 -0.00393244)
(0.130302 -0.00357922 0.00182572)
(0.142612 -0.00114661 -0.000257407)
(0.0759513 -0.0024766 0.00026319)
(0.144304 0.000598796 0.00148665)
(0.144212 0.000706989 -3.2164e-05)
(0.0504685 -0.000938788 -0.00154764)
(0.143377 -0.00150816 0.00134837)
(0.084312 0.00248449 -0.00336965)
(0.0589642 0.00269711 -0.00501358)
(0.0605381 -0.000901188 0.00185086)
(0.0890017 -0.00237617 0.00151384)
(0.0282889 -0.00307319 0.00187718)
(0.110598 -0.0207457 -0.00436666)
(0.0628485 -0.00190069 -0.00275979)
(0.130489 -0.00232995 0.00156318)
(0.121518 0.00321284 -0.0013015)
(0.133723 -0.00244091 -0.000845111)
(0.146102 -0.00164669 -0.000562969)
(0.0238293 -0.00310427 -0.000237505)
(0.0832679 0.00377478 -0.00541867)
(0.121366 0.00112741 0.00172408)
(0.142256 -0.00233999 0.00265109)
(0.118187 -0.00143453 -0.00141176)
(0.14129 -0.000151231 -0.00265226)
(0.143473 0.00212704 0.00145376)
(0.121893 0.000291903 -0.0041209)
(0.144535 0.000970727 0.000132062)
(0.0703607 0.00359137 0.002808)
(0.139802 0.00217829 -0.00260553)
(0.140537 0.000820809 5.65713e-05)
(0.11194 -0.00714063 0.011326)
(0.134405 -0.000187133 0.000830352)
(0.10368 0.0110171 -0.0137994)
(0.0648707 -0.00245827 -0.000370295)
(0.13459 0.000532554 0.00191282)
(0.140699 0.00081157 -0.00112736)
(0.0665511 -0.002059 -0.00125596)
(0.139748 -0.00495998 0.000659333)
(0.132259 0.00234444 0.00358431)
(0.071773 0.00419431 0.00279178)
(0.136073 -0.00322579 0.00148479)
(0.133388 0.000574213 0.00118579)
(0.137562 0.000622084 -0.000588135)
(0.0319492 0.00238034 -0.00165187)
(0.131892 -0.00224612 -0.00138472)
(0.135839 -0.000127308 -0.00199398)
(0.137808 -0.00185571 -0.000357044)
(0.133014 0.000524794 -0.000412093)
(0.0409626 -0.00313874 0.00290248)
(0.0626566 -0.00231948 0.000310026)
(0.121248 -0.00303714 0.0187191)
(0.136958 0.0011547 0.001456)
(0.058117 0.00080417 0.000760526)
(0.136837 -0.000285586 -8.53453e-05)
(0.031356 0.000852309 -0.00262779)
(0.13934 -0.000189756 -0.000306031)
(0.13781 -0.00115817 0.00123064)
(0.141829 0.000836898 7.68318e-05)
(0.139319 0.00130225 0.000418272)
(0.133929 0.0001514 -0.00130246)
(0.0663676 -0.000602732 -0.00238504)
(0.131167 0.000527654 0.000541737)
(0.0554303 -0.000982727 -0.00301072)
(0.131909 -0.000288642 -0.000233922)
(0.133499 -0.000237364 -5.79942e-05)
(0.029832 -0.00110554 0.000754772)
(0.132633 -0.000567407 -0.000195054)
(0.138154 -0.000854113 -0.000546208)
(0.0443129 0.00146305 0.00150928)
(0.145296 -0.000597113 -0.000474171)
(0.0710684 -0.00384388 0.000239799)
(0.122922 0.00453413 -0.00343251)
(0.127512 0.00150509 -0.00569385)
(0.128888 0.000593008 0.00160662)
(0.139228 -0.000425507 0.00134439)
(0.128341 -0.000237151 0.000331201)
(0.131159 -0.00174763 0.00114521)
(0.110083 -0.00778612 0.00427476)
(0.135008 -0.00106481 0.00176381)
(0.0771106 0.00105142 -0.00278462)
(0.0844548 -0.00185045 0.000391074)
(0.136629 0.000368122 0.000441589)
(0.052412 0.00042354 0.000179416)
(0.0372855 6.37254e-05 -0.00323621)
(0.0375802 0.000817541 0.00305577)
(0.0766692 0.000191545 -0.00391696)
(0.130756 0.00201939 0.00020775)
(0.126571 0.000463613 0.00100943)
(0.0593182 0.000652543 -0.00259145)
(0.117586 -0.000917 -0.00080586)
(0.117741 -0.00068263 0.00320292)
(0.0959056 -0.000315898 -0.000925368)
(0.127222 0.00944383 -0.0107895)
(0.0466 0.00144177 0.000332439)
(0.0924203 -0.000890847 -0.00546785)
(0.125042 0.0129211 -0.00756619)
(0.140513 -0.00111988 0.00123993)
(0.119249 0.00175448 0.00389821)
(0.0691877 -0.00154681 0.00102649)
(0.133522 0.00173467 0.000480704)
(0.0352622 -0.000555585 0.0028751)
(0.132515 0.000793572 0.00163712)
(0.139524 0.00066531 0.000731983)
(0.137099 0.00188254 0.00040033)
(0.138541 0.00124462 -0.000674072)
(0.135863 0.00180074 0.00178694)
(0.133996 -0.00903419 0.00307267)
(0.109262 -0.00160059 -0.00143601)
(0.0472958 -5.08249e-05 0.000137579)
(0.139609 -0.00303656 0.00148295)
(0.0932538 -0.00320092 0.0116342)
(0.134531 0.00137564 0.000799383)
(0.13539 0.00111419 0.00207901)
(0.130437 0.00300426 0.00239766)
(0.0367811 0.00208175 -0.00116742)
(0.142529 5.68963e-05 0.00168519)
(0.127197 -0.0005942 0.00064124)
(0.131667 -0.00143637 -0.00218343)
(0.118573 0.00800833 -0.00732915)
(0.143193 0.00102289 0.00248682)
(0.0559577 0.00171388 -0.000236722)
(0.120385 0.000260903 0.00195346)
(0.0633795 0.000371708 -0.00110177)
(0.134546 0.00124419 0.000408689)
(0.0304953 0.00218297 0.00236402)
(0.125081 -0.00121375 0.000973502)
(0.133929 0.00113956 7.65435e-05)
(0.137646 0.00209244 -0.000428152)
(0.143594 0.00154114 0.00103212)
(0.134441 -0.00291361 -0.000223983)
(0.0631952 -0.000975191 0.00146868)
(0.126611 -0.00211193 0.00163301)
(0.12792 -0.00107719 -0.00121087)
(0.0508473 0.000572145 0.0012221)
(0.142831 0.000635561 0.00248777)
(0.137386 8.03097e-05 0.00122647)
(0.116183 -0.000240155 0.00019555)
(0.0310048 -0.000590379 0.0023861)
(0.127848 0.00130899 0.00334995)
(0.132737 0.000815007 -0.000604049)
(0.110583 0.00170621 -0.00110028)
(0.0305878 0.00315492 -0.00185534)
(0.0890136 0.000865436 -0.0018459)
(0.0929875 -0.00105313 -0.000909605)
(0.0529139 0.0012425 0.00113988)
(0.0394958 0.000431645 -0.000139856)
(0.123981 0.00238146 0.00283155)
(0.141556 -4.99896e-05 0.00130635)
(0.0797879 0.00226776 -0.00035364)
(0.136908 0.000595635 5.85318e-05)
(0.0323965 -0.00154857 0.002004)
(0.126724 0.000854317 -0.00104727)
(0.106121 -0.000743903 0.00329471)
(0.0732677 0.000184354 -0.000356534)
(0.0891635 -0.000768519 0.000741115)
(0.13261 -0.000606993 0.00133879)
(0.0722083 -0.0017716 0.00107324)
(0.140751 0.00255441 -0.00218828)
(0.137001 0.0013189 0.00059344)
(0.145408 0.00212074 0.00200454)
(0.0919151 0.00256972 0.0044875)
(0.0631962 -0.000501794 -0.00239641)
(0.140821 -0.000660077 0.00267662)
(0.0499177 -0.00153624 -0.00252148)
(0.0419624 0.00150119 -0.00315215)
(0.0880183 -0.00355904 0.00230292)
(0.136219 6.09658e-05 0.00149079)
(0.0734447 0.00101328 0.00139242)
(0.051368 -0.00118148 -0.00255265)
(0.0340286 0.00305944 -0.00126721)
(0.132562 -0.00046949 0.0012495)
(0.120458 -0.00396336 0.000197202)
(0.13373 -0.00171239 0.00149163)
(0.0731751 0.00372734 -0.00165224)
(0.140715 -0.00100708 0.000215612)
(0.0799644 0.00312563 0.00105693)
(0.143121 -0.000515537 0.00185685)
(0.0427402 -0.000792328 -0.000715241)
(0.0766673 0.000364049 0.000702319)
(0.0561072 -0.000515536 0.00251715)
(0.121905 0.00110124 0.00343549)
(0.143475 8.12056e-05 0.00104383)
(0.10021 -0.0047463 0.00210281)
(0.131804 0.000973079 -0.00107668)
(0.127811 0.000618247 0.00184303)
(0.0320526 0.000809522 -0.0010224)
(0.136172 0.000205726 -0.000399926)
(0.137251 -0.00246273 8.64649e-05)
(0.137231 -0.000518973 0.00016761)
(0.128797 0.00123754 -0.000389368)
(0.0329998 -0.00167888 0.000305894)
(0.132477 -0.00146674 -0.00168715)
(0.0632522 0.00214513 0.00402622)
(0.0351171 -0.00253836 -0.00117662)
(0.143101 0.000894582 -0.00137868)
(0.0794125 0.000637271 -0.000616153)
(0.136176 0.000930489 0.00267105)
(0.136699 -0.000444299 0.00152556)
(0.138703 0.00113273 -0.000454986)
(0.13997 -0.000342805 -0.000914261)
(0.0764517 0.000835277 -0.0054701)
(0.142282 -3.51001e-05 0.001608)
(0.0809058 0.00084054 -0.00113329)
(0.122801 0.00108592 -0.000914913)
(0.133097 1.19831e-07 0.0012021)
(0.0650755 0.00012688 0.00158721)
(0.13387 -0.00201805 -0.000272835)
(0.13506 0.00043361 -0.000174801)
(0.0411859 0.000441949 0.00278566)
(0.068754 -0.000452593 -0.000802803)
(0.134972 -0.00156418 0.00209885)
(0.076278 -0.00285311 -0.00357537)
(0.141927 -0.0012 0.000416747)
(0.133631 0.00146363 -0.000743853)
(0.13339 0.000954618 0.000903298)
(0.0387312 -0.00047373 -0.00121978)
(0.0445935 -0.00115125 0.00100794)
(0.0533097 -0.00137748 -0.000362108)
(0.0877606 -0.000372012 0.00164546)
(0.113261 0.0014538 -0.00123978)
(0.137972 0.000544316 0.00021616)
(0.0685383 0.000299721 0.000377745)
(0.133523 -0.000167938 0.00178687)
(0.0318039 -0.000898959 0.00249866)
(0.0743757 0.00180103 0.0045823)
(0.0399704 -0.000752794 0.00420468)
(0.132485 0.0012128 0.000503925)
(0.119744 0.000931662 -1.17364e-05)
(0.136195 -0.000688639 -0.000421754)
(0.0916335 0.00119166 0.000937715)
(0.14189 0.000116502 0.0021297)
(0.125428 0.000236428 -0.00149362)
(0.142862 -0.00312571 0.000621236)
(0.136126 -5.65459e-05 -0.000985178)
(0.132149 0.000487597 0.00150635)
(0.135046 -0.000665877 -0.00160879)
(0.137724 0.000238349 -0.00106575)
(0.139842 -0.00100543 0.000242624)
(0.0748402 7.23628e-05 0.00171692)
(0.138453 0.000456478 -0.00045976)
(0.0624142 0.00121079 -0.000509406)
(0.0827343 -0.00283717 0.0029159)
(0.135365 0.00329487 -0.00147284)
(0.136197 0.000519947 0.00162476)
(0.133328 0.00174589 0.00152323)
(0.137859 -0.000527539 0.00141336)
(0.115565 -0.00261743 0.00314969)
(0.0768024 0.00451642 -0.000541661)
(0.139609 -0.000260208 -0.00153072)
(0.110148 0.0063103 5.47347e-05)
(0.0691448 -0.00172502 0.00279429)
(0.0731022 0.000391584 -0.00223251)
(0.118877 -0.00364188 -0.000114131)
(0.134922 -0.000308203 -0.000231041)
(0.119178 -0.00304522 -0.000348579)
(0.114382 -0.00272316 -0.00202281)
(0.136982 -0.000788237 0.000806402)
(0.118567 -0.000158973 0.00501959)
(0.0339907 0.000549005 -0.000934358)
(0.141194 -0.00055011 0.00119848)
(0.0408863 0.000460821 1.16067e-06)
(0.0577615 -0.00171339 -0.00035782)
(0.133259 4.82536e-05 0.000873221)
(0.136281 0.000387157 0.000456673)
(0.0385489 0.0053475 0.0019624)
(0.138137 0.00208804 0.00331599)
(0.141503 0.00318346 0.00251888)
(0.136486 0.000938322 3.33278e-05)
(0.133429 -0.000848902 -0.000707645)
(0.0390901 0.00212811 0.000677333)
(0.131606 -0.00102193 0.000935743)
(0.128013 -0.00168708 0.000630978)
(0.134152 -0.000424724 0.00101357)
(0.137477 -0.00165127 0.00146977)
(0.128747 0.000457931 0.00236205)
(0.11375 0.0014477 -0.00210002)
(0.14266 -0.000674111 -8.79493e-06)
(0.0439818 -0.000964099 0.00048244)
(0.135112 -0.00278377 0.000870159)
(0.141444 9.57967e-05 -0.000535574)
(0.135174 -0.00160614 9.22841e-05)
(0.130787 -0.00212351 0.000745512)
(0.132708 -0.00141164 0.0023882)
(0.0745859 0.00716329 0.00162503)
(0.0353417 -0.00141779 0.00294133)
(0.0461751 0.0009846 -0.000332071)
(0.147957 -0.002015 0.000296422)
(0.0299995 0.000138103 0.00265079)
(0.087977 -0.000119659 0.00174768)
(0.0727815 -0.000106621 0.00331276)
(0.140392 -0.000507776 0.000845298)
(0.138743 -0.000261378 -0.00118759)
(0.140747 0.00193261 -0.000223996)
(0.0818894 -0.00263047 0.00073609)
(0.116885 0.000337567 -0.000580539)
(0.0609042 -0.002005 0.00566549)
(0.0763276 -0.00171298 -0.0014755)
(0.130335 -0.00221143 0.00111358)
(0.123408 0.000307462 0.000384022)
(0.107339 0.0116383 0.0028961)
(0.10869 -0.00408396 0.00111481)
(0.0596631 0.000404823 -0.00150375)
(0.0860604 3.05594e-05 0.000753628)
(0.128817 0.000158105 -0.00174642)
(0.135128 0.000113881 0.000150786)
(0.139595 0.00164119 0.00136836)
(0.137078 0.000889876 0.00253276)
(0.143001 -0.000358597 -0.000223826)
(0.112597 -0.00265581 0.00235932)
(0.131753 0.00149521 -0.000276714)
(0.133785 0.00176652 -0.0005169)
(0.138486 0.00178936 0.00109859)
(0.139185 -0.000429665 0.000796656)
(0.0800333 -0.000766241 -0.000911323)
(0.0354707 0.000801793 -0.00425832)
(0.138675 0.00139276 0.00165787)
(0.0601216 -0.00160662 0.00301989)
(0.0500286 -0.00159924 0.00282902)
(0.137991 0.00047538 0.000122847)
(0.136135 -0.00197603 -0.000171899)
(0.0787466 -0.00538838 -0.00316378)
(0.13773 0.000285915 0.000591725)
(0.138636 -0.000400009 0.000815458)
(0.135203 -0.000601889 -0.000291495)
(0.139152 0.00160641 -0.000339792)
(0.0472471 0.00221996 -0.00195331)
(0.141429 -0.000323625 -0.000899411)
(0.134134 0.000709466 5.10484e-05)
(0.0806182 0.000855651 0.000559398)
(0.134467 -0.000960161 0.00116262)
(0.135908 0.0011283 0.00196494)
(0.13494 -0.000549794 -0.000487485)
(0.131004 -0.00234064 -0.00159247)
(0.134438 -0.00169573 -0.000945673)
(0.133387 0.00117728 0.000550689)
(0.0854125 0.00152647 0.000712631)
(0.0470844 0.00378263 -0.00362348)
(0.0454437 0.00218896 -0.00129457)
(0.118614 -0.00190011 0.00117452)
(0.0977184 -0.00656633 0.00757588)
(0.0793924 -0.00392026 -0.00623649)
(0.104508 0.00179566 0.00283876)
(0.125781 -0.000589479 0.000479298)
(0.140926 -0.0013135 0.0010496)
(0.131129 0.000966326 7.64907e-05)
(0.146845 -0.00087419 0.000434117)
(0.138482 -0.00100067 0.00233326)
(0.136519 0.00149947 0.00119784)
(0.133947 0.00126511 0.000818223)
(0.0496864 -0.00129586 -7.85723e-05)
(0.115041 -0.021998 0.00316411)
(0.0827462 0.00383312 0.000296912)
(0.0571008 -0.00342588 0.00268153)
(0.0616774 -0.00304133 0.00113999)
(0.136892 0.00123987 0.000549099)
(0.118149 0.000253956 0.000101101)
(0.141871 0.000281506 -0.000322982)
(0.0333224 0.000823025 9.98312e-05)
(0.133498 -0.00186402 -9.12864e-05)
(0.0655352 -0.000655942 -0.0031542)
(0.136089 -0.00182911 0.000637466)
(0.0683838 0.00209061 -0.000977272)
(0.0861943 -0.00112355 -1.02972e-05)
(0.128446 0.00016637 3.50399e-05)
(0.13174 0.00134398 0.000276432)
(0.0320654 0.00170026 -0.00259226)
(0.0770409 0.000675241 0.00102982)
(0.134036 -0.00134733 0.00063096)
(0.0360202 -0.00179351 -0.0025447)
(0.132569 0.000229035 0.0019747)
(0.127409 -0.00177926 0.00261731)
(0.13512 0.00176328 -0.00231587)
(0.114253 0.00206364 -0.00494772)
(0.100374 0.00277982 -0.000509138)
(0.144696 0.000152061 -0.000943422)
(0.0877877 -0.00499286 -0.00514178)
(0.136836 0.0023101 0.00122764)
(0.119324 0.00565451 0.00598956)
(0.0849795 -0.00765058 -0.00166704)
(0.0802728 0.00156256 -0.00131751)
(0.138647 0.000509741 -0.000134026)
(0.143368 0.00104353 0.000478522)
(0.0752102 -0.000875428 0.00252624)
(0.143788 -0.000721316 -0.000586773)
(0.116595 -0.00133812 -0.00232119)
(0.138991 -0.00131781 0.00026602)
(0.138848 -0.000789713 0.000165584)
(0.0671605 0.00240913 -0.00612836)
(0.135731 0.000207004 0.00114436)
(0.144565 -0.00247835 0.00119736)
(0.142525 -0.000895515 0.00161567)
(0.143059 -0.000279305 0.00107991)
(0.0302851 -0.00260202 -0.00176026)
(0.0313192 0.00203015 -0.00137009)
(0.131441 0.000517112 -0.00240598)
(0.135873 0.000416491 -0.000970621)
(0.135979 -0.000941019 -0.000359218)
(0.0525048 -0.000460421 -0.00265799)
(0.129906 -0.000769614 0.000449842)
(0.129591 0.00170217 -0.0026079)
(0.127369 0.00178128 0.000575558)
(0.140871 0.00129237 -0.000250642)
(0.137569 -0.00103158 -0.000710772)
(0.137595 0.00113422 0.00115195)
(0.139204 0.00142725 0.00135575)
(0.113362 0.000941743 0.00346089)
(0.135105 0.00244389 0.000593708)
(0.0787573 -0.00330264 -0.00401973)
(0.138322 -0.000713418 -0.000746426)
(0.127891 -0.00063961 -0.00225111)
(0.134275 0.00221152 0.00044529)
(0.134595 -8.49174e-05 5.98886e-05)
(0.145037 0.00187147 -0.000547859)
(0.139357 0.00144361 0.00130307)
(0.0636802 0.0026505 0.00424626)
(0.0491413 3.85227e-05 -0.00432426)
(0.0346696 0.000200525 -0.00248458)
(0.131454 0.00142296 0.000911816)
(0.138216 -1.77451e-05 -0.00101375)
(0.135181 0.000936515 0.00223408)
(0.13318 0.00264418 0.00241164)
(0.0404263 -0.0022468 0.000254751)
(0.037938 -0.00299847 0.00515226)
(0.127902 -0.00131133 0.000938235)
(0.135747 0.00191336 0.00130465)
(0.137669 0.00105395 0.000928749)
(0.145926 0.00182982 -3.87926e-05)
(0.143351 -8.98622e-05 -0.000666157)
(0.133871 0.00128276 -0.000574694)
(0.141828 0.00086299 0.000108406)
(0.0417845 -0.00279614 0.00277015)
(0.129359 -0.00203591 -0.00238599)
(0.0779289 0.00139878 0.002339)
(0.0745879 -0.00588281 0.00190247)
(0.135099 8.92268e-05 -0.000474544)
(0.114518 0.00443636 -0.00207488)
(0.141678 0.00101107 0.000448351)
(0.0354668 -0.00482639 0.000778868)
(0.14315 0.00245677 0.000382389)
(0.137289 -0.000758415 0.000825318)
(0.133772 0.00182169 0.00100714)
(0.109033 -0.000713734 -0.00171094)
(0.13388 0.000436611 0.00113496)
(0.132098 0.00174567 0.000855826)
(0.122958 0.00079652 -0.00385263)
(0.133095 -0.00026557 0.000413232)
(0.11759 -0.00255815 -0.00155124)
(0.138294 -0.000670569 0.000192031)
(0.142251 -0.000649474 -0.0010456)
(0.0309762 -0.00273185 0.00413094)
(0.137157 0.000678775 -0.000646113)
(0.126189 0.00268941 -0.000294721)
(0.0636609 -0.00310526 0.00231321)
(0.115951 -0.000805246 -0.0036824)
(0.139689 0.000747001 -0.00147575)
(0.138697 -2.92861e-05 0.000879599)
(0.111851 0.00136323 -0.0024056)
(0.0286776 -0.00407672 -0.00176438)
(0.138212 -0.000714801 -0.00198003)
(0.131872 0.00168768 -0.00221228)
(0.138747 -0.00121453 0.000277801)
(0.13351 -0.00443467 -0.000110791)
(0.0546917 0.000242634 0.00049646)
(0.136948 -0.00249408 -0.000727791)
(0.0378907 -2.20359e-05 -0.00520592)
(0.136945 4.28978e-05 0.000689346)
(0.102548 0.0114927 -0.00425821)
(0.136396 -2.14466e-05 0.0011628)
(0.0769522 -0.000552286 0.00394996)
(0.116601 -0.00160299 0.00137819)
(0.112456 -0.00227348 -6.6732e-05)
(0.0510711 0.00255391 -0.000891716)
(0.130231 0.0013335 -0.000503367)
(0.12875 0.00165028 -1.69984e-05)
(0.0359302 0.00244739 0.00372781)
(0.134531 -0.00282003 0.000494117)
(0.129312 -0.00255427 0.000743762)
(0.0555639 -0.00115819 -0.00270696)
(0.0844635 -0.000517183 0.000484028)
(0.0741636 0.00271099 0.00171835)
(0.134701 -0.000201434 0.00130164)
(0.132662 -0.00144468 0.000254531)
(0.0430839 0.000150575 0.00186434)
(0.0733572 -0.00213976 0.00384657)
(0.0748797 0.00203695 0.00238776)
(0.125388 -0.000163318 0.0011227)
(0.132185 -0.00191961 0.000444384)
(0.0338098 0.000765949 -0.00200153)
(0.143946 -0.000503751 3.98163e-05)
(0.140018 -6.63002e-05 -5.27366e-05)
(0.132558 0.00160053 0.000886039)
(0.0902177 0.00341216 -0.00367717)
(0.144603 0.000282043 0.000568654)
(0.0331053 0.00173088 7.02773e-05)
(0.140778 -0.00210397 -0.000576838)
(0.0417529 -0.00068792 -0.000231634)
(0.0816589 0.00101201 0.000755992)
(0.137067 0.000220749 0.000320964)
(0.0831229 -0.000293583 3.1637e-05)
(0.0336421 0.000910541 0.00265921)
(0.056837 -0.00250496 -0.000153898)
(0.0653125 0.000562995 0.00302116)
(0.0832902 -0.00327942 -0.00159559)
(0.142168 -0.000430836 0.00131525)
(0.0625344 0.000202188 0.00334956)
(0.0799225 0.000422925 -0.00199889)
(0.126039 -0.00333138 -0.00816682)
(0.130573 0.00215879 -0.000127343)
(0.0413332 -0.000709423 0.000936531)
(0.128576 0.00217034 -0.001449)
(0.0910606 0.00694299 -0.00393311)
(0.137615 -0.00142879 0.000502032)
(0.0799956 -0.00140156 -0.00166115)
(0.129518 0.00190813 0.000718846)
(0.0823819 0.000142946 -0.00432552)
(0.123064 -0.000962113 -0.000590082)
(0.133025 0.00201963 -0.00199057)
(0.0758725 0.000479336 -0.00317351)
(0.135702 0.00232175 -0.000324547)
(0.0631429 -0.000974147 0.00191001)
(0.0299241 0.00383332 0.00102151)
(0.134392 -0.00252864 0.000525646)
(0.131752 0.00256115 -0.00163896)
(0.13474 0.00094293 -0.000929381)
(0.133779 -0.00165038 0.000895926)
(0.137692 -0.00171579 0.000628811)
(0.0856571 0.00129743 0.00244036)
(0.141046 -0.00207661 0.000608173)
(0.0813358 -0.00310691 0.00160069)
(0.132532 0.00154312 -0.00168168)
(0.132481 -0.00322018 0.00141951)
(0.0452086 -0.00166384 -0.00192057)
(0.147655 -0.00138013 -0.000886192)
(0.0718233 -0.0026832 0.00129948)
(0.0423823 0.000335242 0.000727738)
(0.146242 -0.000774056 0.000918449)
(0.0619011 -0.000851595 -0.000403479)
(0.133092 -0.000169006 0.000991435)
(0.131176 0.000768517 0.000497694)
(0.137448 0.000434969 0.00178929)
(0.066206 0.00327394 -0.00455288)
(0.141614 0.000172802 9.36038e-05)
(0.110252 -0.00120933 0.00143678)
(0.139133 0.000163942 0.00196388)
(0.13755 0.00188685 -0.000604253)
(0.139691 7.10704e-05 0.000664857)
(0.132533 0.00203172 -0.000746958)
(0.0638987 -0.000598408 -0.000120567)
(0.0719555 -0.000289766 0.00108314)
(0.134029 0.00244705 -0.000286623)
(0.138962 0.00119957 0.00114682)
(0.0453069 0.00153704 -0.00161843)
(0.134821 0.000907678 -0.000255639)
(0.141911 -0.000159836 0.00245312)
(0.141355 -0.0015143 -0.0014255)
(0.139245 -0.00137062 -0.000971006)
(0.134571 -0.00343294 0.00185194)
(0.0359695 0.00259759 0.00273841)
(0.141876 0.00086006 0.00185083)
(0.118584 0.00159556 -0.00123589)
(0.132304 -0.0011627 0.000429964)
(0.112922 -0.00165286 0.00263097)
(0.0451548 0.00267061 -0.00163349)
(0.130688 0.00128387 -0.000347456)
(0.111894 0.00113073 0.00311602)
(0.139499 0.00103517 0.00138036)
(0.136231 -0.00155421 -0.000109374)
(0.13083 -0.00393075 0.000559877)
(0.0278243 0.000498105 -0.00150615)
(0.0339948 -0.000430399 -0.00203013)
(0.130188 -0.00148261 0.00131172)
(0.129844 0.000265303 0.000377957)
(0.13582 0.000581774 0.00131603)
(0.131539 0.00127605 0.00183383)
(0.108871 -0.00365374 -0.000911605)
(0.136845 -0.000297613 -0.000768411)
(0.137754 0.000688889 0.000895298)
(0.0338162 0.00182179 5.41348e-05)
(0.128762 -0.0016947 0.00102631)
(0.137251 -0.00517113 0.00177519)
(0.0563954 0.00203189 0.00149197)
(0.0736092 -0.00196175 0.00159631)
(0.146508 -0.000926989 -0.000183346)
(0.138599 0.000152338 0.000468564)
(0.133844 0.000910929 0.00110162)
(0.135671 -0.000814414 0.000891915)
(0.125949 -0.00308202 0.00142648)
(0.136054 -0.000460905 0.000460968)
(0.114037 0.00321849 -0.00444993)
(0.144281 0.000919125 -0.000606929)
(0.132958 -0.00195345 -0.000756116)
(0.135503 -0.00221605 0.00169014)
(0.134082 -0.00153609 0.00174742)
(0.0579764 0.00226822 -1.147e-08)
(0.140517 -0.00181522 0.000578748)
(0.0479867 0.00225826 -0.000210852)
(0.0966993 -0.00919936 0.00602047)
(0.080172 0.00419454 -0.00165706)
(0.124652 -0.000194494 -0.00734299)
(0.134993 0.00187102 0.00103402)
(0.122926 -0.0151362 -0.00247495)
(0.132006 -0.000983619 0.000629759)
(0.140438 0.000607171 -0.000800207)
(0.140476 0.00072157 0.00106664)
(0.13197 8.23243e-06 0.0015555)
(0.0504182 -0.00148142 0.00246271)
(0.100823 -0.00386798 -0.00277075)
(0.112543 -0.00200382 -0.014038)
(0.133104 -0.000457186 -0.000187071)
(0.122883 -0.00257616 0.000519189)
(0.139282 -0.00310173 -0.0018857)
(0.133782 0.00110428 8.4805e-05)
(0.126683 0.00518137 0.00228592)
(0.0506183 0.000921979 0.000390358)
(0.0730942 -0.00449037 -0.00130444)
(0.035379 -0.000174767 0.00231886)
(0.0367605 0.000411553 -0.00340541)
(0.0476189 7.01631e-05 0.00170124)
(0.141166 -0.00103213 0.00178837)
(0.13447 0.00124342 0.000557471)
(0.036951 -0.000505214 0.00353539)
(0.0345254 -0.000127301 0.00304811)
(0.135872 0.000642689 -0.000440135)
(0.100111 -0.0103056 0.00810036)
(0.0545783 0.000562495 0.00100824)
(0.14003 0.000184877 0.000931967)
(0.112413 0.00155631 -0.000938094)
(0.136659 0.000111405 0.000416644)
(0.0621347 -0.000236763 0.000899716)
(0.0729961 0.00477564 -0.0023523)
(0.126109 -0.000394761 -0.0002578)
(0.136004 -0.000687221 0.000570233)
(0.140943 -0.000807509 0.000117078)
(0.0490213 -0.000373595 0.0032626)
(0.0348453 -0.00279446 0.000653509)
(0.107269 -0.0145878 -0.0121426)
(0.0374052 -0.00247127 0.00209789)
(0.138619 -0.00287304 -0.00238382)
(0.040041 0.000230374 -0.000385636)
(0.124476 -0.000898182 0.00276253)
(0.134067 -0.00194752 0.00160899)
(0.141289 -0.000479959 0.000408635)
(0.0642611 0.0024164 0.00215341)
(0.112707 0.0016215 0.000950103)
(0.0539408 0.0026709 -0.000869672)
(0.0407253 0.0036143 -0.00188083)
(0.134446 0.000117724 -0.000250028)
(0.0287658 -0.00210145 -0.00141226)
(0.133743 -0.00179717 0.00118099)
(0.0691311 0.00299199 -0.00116809)
(0.138989 0.000654295 -0.000587266)
(0.137167 0.00182767 0.000664949)
(0.030089 -0.00102196 0.00263837)
(0.0819121 -0.0030236 -0.00410721)
(0.134227 0.0026532 0.00114937)
(0.0470056 0.00172182 0.00319595)
(0.132883 -0.000828683 -0.000532755)
(0.0746389 -0.000182328 0.0013944)
(0.129372 0.000469212 0.00109349)
(0.134795 -0.000442916 -0.00109503)
(0.0530284 -0.00126054 0.000180355)
(0.0334245 0.000894295 -0.00112017)
(0.0735286 0.00174666 -0.00394439)
(0.111683 0.0170262 0.00356025)
(0.121085 0.00181202 0.00290962)
(0.0732101 -0.00284313 0.0016097)
(0.105446 0.000461729 0.00330272)
(0.045247 -0.00109227 0.00136903)
(0.13472 -0.000115427 -0.00111081)
(0.0337408 -0.00213362 -0.00277656)
(0.141635 -0.00081958 -0.00103265)
(0.141558 -0.000592093 0.0012945)
(0.133983 -0.00123588 0.0004461)
(0.0267862 0.00191431 -0.000266344)
(0.1446 -0.00262822 0.000178019)
(0.110112 0.00131562 -4.28674e-05)
(0.143353 0.000671374 0.000777785)
(0.0749555 0.00178334 -0.000221406)
(0.10871 -0.0125786 0.00764074)
(0.141909 -0.00173935 -0.000241485)
(0.0607878 0.000270024 0.00347818)
(0.135113 -0.00165369 0.000133588)
(0.108625 0.0031319 -0.0202633)
(0.126258 0.000136919 0.000715911)
(0.045147 0.000544678 0.00187745)
(0.0727048 -0.000650052 -0.00119329)
(0.135388 -0.000387606 3.28316e-05)
(0.135026 0.000842669 -0.00178729)
(0.0472994 -0.00438583 0.000201574)
(0.123607 0.000204532 -0.00145898)
(0.0812538 0.00378734 -0.00430028)
(0.0379744 -0.00130587 -0.000385554)
(0.13658 0.000313198 -0.000376721)
(0.103585 -0.00094142 0.00888241)
(0.14272 0.000400602 -0.00232235)
(0.136844 0.000161687 -0.000698295)
(0.136457 0.000390977 0.000344124)
(0.13644 -0.00011281 -0.00150289)
(0.134486 0.00157747 -0.000903619)
(0.0663599 -0.00103104 -0.00142459)
(0.0528804 0.00157428 -0.00046927)
(0.141973 0.000963895 -0.000102481)
(0.107841 -0.00908096 0.00874047)
(0.131022 -0.00276737 0.00142992)
(0.136897 4.53965e-06 0.0010276)
(0.100059 -0.00058407 0.00269741)
(0.138422 0.000193208 -0.000352699)
(0.136967 0.000486634 0.000298298)
(0.114965 0.00218514 0.000499112)
(0.126607 0.00110043 -0.00307349)
(0.0550526 -0.00123139 -0.00015808)
(0.0938187 -0.0011025 0.00150416)
(0.0597807 0.000492085 0.00133698)
(0.138319 0.00119706 0.00198794)
(0.136683 -0.000900795 0.00177389)
(0.119385 0.00197911 -0.00308509)
(0.114769 0.00491342 0.00147508)
(0.0327838 0.00229383 0.000176766)
(0.0937943 -0.000785734 -0.000671408)
(0.0811796 -0.000905712 -0.00373385)
(0.135048 0.000170805 -0.000863504)
(0.137241 -0.000847944 8.18161e-05)
(0.104792 -0.00891412 0.00685486)
(0.136998 0.00129768 0.00117575)
(0.0986759 -0.000736149 -0.00498331)
(0.102002 -0.00294127 0.00760058)
(0.136303 7.50148e-05 0.00160144)
(0.0393775 -0.0012647 0.0014343)
(0.136994 -8.67649e-05 -0.000651109)
(0.0642688 0.000534172 -0.000573347)
(0.131911 8.12993e-05 0.00218256)
(0.0428472 0.00521182 -0.00336589)
(0.137343 0.00218547 -0.00233817)
(0.101643 -0.00414029 0.00312086)
(0.136968 5.84795e-05 0.0007658)
(0.132245 0.00192575 0.00190346)
(0.132779 -0.000406607 -0.00143507)
(0.136272 0.00127278 -0.000567589)
(0.133529 -0.00210012 -0.000630372)
(0.0442814 -0.00100658 -0.000820633)
(0.0654915 -0.00030175 0.000178571)
(0.0406016 0.000599246 -8.85389e-06)
(0.136019 4.22632e-05 0.00202743)
(0.135412 0.000329452 -0.000218567)
(0.131731 0.00254078 -0.000482905)
(0.141992 0.00112006 0.000233128)
(0.0317415 -0.000229376 0.00326377)
(0.120204 -0.000631757 0.00158933)
(0.104771 0.0011385 -0.0033251)
(0.136797 -0.000321061 0.000330889)
(0.132258 -0.00294456 0.00459405)
(0.133809 -0.00100092 0.00050531)
(0.121935 0.00186243 0.0010473)
(0.134132 0.000133643 0.00183188)
(0.0297331 -0.00175726 -0.00165755)
(0.102645 -0.000467594 -0.00060073)
(0.132922 0.000380279 0.00086537)
(0.0426377 -0.00373598 0.0027879)
(0.0607106 0.000385508 -0.0033974)
(0.0821523 0.00317431 -0.00118417)
(0.0334653 0.00268236 -0.00183725)
(0.112958 0.000578066 0.00228977)
(0.133252 0.00109182 -0.000206942)
(0.0822853 -0.00458269 -0.00178325)
(0.0287836 -0.00204518 -0.00103122)
(0.124274 -0.000847923 0.00116634)
(0.0395798 0.000502492 -0.000367709)
(0.116617 0.000720273 -0.00102915)
(0.135789 -0.000597784 0.00154068)
(0.135322 0.00017527 0.00058628)
(0.135306 -0.000825935 -0.000190709)
(0.139232 0.00131874 -0.00148155)
(0.135041 -5.28638e-05 0.000921129)
(0.1406 -0.000951692 0.00236798)
(0.0653977 0.00254487 -0.0015775)
(0.135336 9.57926e-05 0.000815655)
(0.136145 -0.00252056 0.00137854)
(0.103202 -0.00347161 -0.0011342)
(0.112871 -0.00366039 -0.00230664)
(0.136638 -8.35863e-05 -6.5075e-05)
(0.13277 0.000814189 0.000970795)
(0.091907 0.00262564 0.00695904)
(0.140454 -0.00107658 -0.00194823)
(0.0469259 0.0010909 -0.000251627)
(0.111957 0.00200222 0.00100747)
(0.114342 0.000910826 -0.00224692)
(0.081904 -0.000585077 0.000176927)
(0.137005 0.000261889 0.000525038)
(0.108581 -0.0124515 0.0125985)
(0.134431 0.000771911 0.00189517)
(0.0493679 0.000549468 -0.000972493)
(0.0380162 -0.00434284 0.00111841)
(0.0808569 0.00171329 0.00315829)
(0.031665 -0.000376117 -8.5448e-05)
(0.135217 0.000796231 -0.000803446)
(0.130392 0.00267347 -0.000442938)
(0.134087 -0.000638504 0.00169205)
(0.121488 0.00574526 -0.00976368)
(0.125188 0.002006 0.000549135)
(0.128385 0.00247867 0.000710011)
(0.0333132 -0.00431296 0.00488788)
(0.130182 0.00136762 -0.000993073)
(0.125122 0.000607223 0.00815591)
(0.0626351 -0.000765301 -0.000767572)
(0.0330993 -0.00207331 -0.000320473)
(0.124096 -0.00062704 0.00354111)
(0.12995 0.000911534 -0.00206809)
(0.0409896 -0.000782645 0.00382174)
(0.143547 -0.0019964 -0.00210731)
(0.0337015 -0.00100125 0.00429825)
(0.136261 -0.000941772 -0.0005606)
(0.138985 0.000853025 -0.000138521)
(0.127603 -0.00256543 0.00185569)
(0.13829 0.000651872 0.000565589)
(0.139551 -0.00114482 0.000135342)
(0.117032 0.00261058 -0.0024666)
(0.133453 0.0016803 -0.000737782)
(0.0266206 0.00109682 -0.00221533)