/*--------------------------------*- C++ -*----------------------------------*\
| =========                 |                                                 |
| \\      /  F ield         | OpenFOAM: The Open Source CFD Toolbox           |
|  \\    /   O peration     | Version:  2406                                  |
|   \\  /    A nd           | Website:  www.openfoam.com                      |
|    \\/     M anipulation  |                                                 |
\*---------------------------------------------------------------------------*/
FoamFile
{
    version     2.0;
    format      ascii;
    arch        "LSB;label=32;scalar=64";
    class       volScalarField;
    location    "66";
    object      epsilon;
}
// * * * * * * * * * * * * * * * * * * * * * * * * * * * * * * * * * * * * * //

dimensions      [0 2 -3 0 0 0 0];

internalField   nonuniform List<scalar> 
59516
(
0.0100388
0.00847731
0.00642787
0.00512358
0.00921608
0.345174
0.00615168
0.00815672
0.00714156
0.0189708
0.00697506
0.0231036
0.00677629
0.0685692
0.0164702
0.019664
0.00399367
0.0380439
0.0128901
0.00311032
0.0312829
0.00363505
0.00429353
0.0275465
0.00290445
0.0147235
0.027186
0.0418939
0.021655
0.0480362
0.0457913
0.0373914
0.00459739
0.00684472
0.00829269
0.00382411
0.0464087
0.0437595
0.0152827
0.00286353
0.0086286
0.00943412
0.00680815
0.0089393
0.00619461
0.0202546
0.0085519
0.00570859
0.0126248
0.00753991
0.0271112
0.0220542
0.00621117
0.00575293
0.0247606
0.00856272
0.0093924
0.0229581
0.00210448
0.0106073
0.00341084
0.0358128
0.00237841
0.00413151
0.00569626
0.00620107
0.0453668
0.0226101
0.0200252
0.00705723
0.021982
0.00340954
0.0364902
0.00498673
0.00184735
0.00522934
0.0052449
0.00354258
0.0202194
0.00730854
0.0256155
0.00730295
0.00795155
0.0406018
0.00761553
0.00267945
0.0283582
0.00402835
0.0184844
0.0253691
0.00986764
0.00421568
0.00221278
0.00447432
0.00275435
0.0106313
0.00416351
0.0202957
0.0289642
0.00359834
0.023046
0.0351117
0.0348385
0.0178341
0.00471298
0.00353469
0.0248717
0.00792025
0.00857814
0.014443
0.0198576
0.0189593
0.0156553
0.0300796
0.00286789
0.00972183
0.017743
0.00476778
0.0332554
0.0036037
0.00166596
0.00246896
0.00285453
0.00248148
0.015431
0.018073
0.0337812
0.0125216
0.0817457
0.00193129
0.00173417
0.00741948
0.0343637
0.00358346
0.00886969
0.00635209
0.0364444
0.00490876
0.0236534
0.00985681
0.0210711
0.00163654
0.0459423
0.00545301
0.00258099
0.00408569
0.0070031
0.00800041
0.252762
0.00765976
0.00962922
0.025684
0.00246708
0.00315288
0.010824
0.0513477
0.00636632
0.0065665
0.0128029
0.0442841
0.0147409
0.0139874
0.0282622
0.0522202
0.00919165
0.00211992
0.0158902
0.00216316
0.0415312
0.00446535
0.0122483
0.022058
0.0134881
0.00441424
0.0206727
0.00874077
0.00233907
0.00707057
0.013975
0.0269428
0.00368352
0.0334758
0.0456508
0.0173138
0.00190178
0.0187787
0.0289167
0.0415707
0.00601076
0.00928422
0.00460749
0.0206867
0.00273872
0.0181483
0.00330608
0.0331736
0.0196993
0.0250548
0.00725025
0.00319486
0.0129392
0.00162011
0.00837522
0.0439317
0.00520916
0.00385892
0.00215775
0.00318252
0.044956
0.00684934
0.0224522
0.0572347
0.00390659
0.0189323
0.00669777
0.00224558
0.00419696
0.00294651
0.0192739
0.00297059
0.0196449
0.00789595
0.00256472
0.0228324
0.00230503
0.00222861
0.0229552
0.020454
0.00226429
0.0184169
0.00212129
0.00219037
0.00175633
0.0282284
0.0290295
0.0262893
0.0178424
0.00833969
0.00299062
0.0214885
0.001729
0.0410942
0.0198836
0.0354025
0.00188295
0.0109596
0.00370798
0.0138863
0.00222465
0.00815338
0.00243906
0.00409613
0.00171166
0.00372241
0.00376618
0.0029231
0.0213279
0.00318823
0.0202297
0.0164649
0.00508659
0.00263627
0.0070821
0.00197909
0.00919068
0.01951
0.00283692
0.0107953
0.0180292
0.0213636
0.01162
0.00220557
0.00893467
0.010248
0.00245968
0.0106432
0.0332134
0.00268351
0.0258858
0.022359
0.00181103
0.00424695
0.0318534
0.00623878
0.00563241
0.00367591
0.00185514
0.0321963
0.00186041
0.00179334
0.00211708
0.00474517
0.00443175
0.00976692
0.00221389
0.0195798
0.00277215
0.00396665
0.00170971
0.00231407
0.00635677
0.0176568
0.0343699
0.0193967
0.00264979
0.0425855
0.0135908
0.0214459
0.00239782
0.00206212
0.00305198
0.0177
0.00828752
0.0239902
0.0267211
0.00293092
0.00950535
0.0117126
0.0111103
0.0248002
0.0151643
0.00814161
0.00206916
0.00171698
0.00177215
0.00280653
0.0189576
0.00518048
0.00242078
0.00281462
0.00262654
0.0182838
0.0358774
0.00339489
0.0206176
0.0281896
0.00266915
0.00382859
0.0276765
0.00212974
0.00240806
0.00175531
0.00210492
0.0267965
0.00282774
0.00201813
0.019831
0.00177028
0.00209506
0.00489922
0.00551222
0.00322758
0.0037152
0.0163102
0.0322743
0.0238427
0.00933462
0.0524103
0.0968256
0.013675
0.00700593
0.00502093
0.00639646
0.00301443
0.00475146
0.00336299
0.0034473
0.027638
0.0360366
0.0194896
0.0235067
0.0244427
0.00279353
0.00969137
0.00279611
0.038379
0.00524546
0.0241335
0.00251632
0.02387
0.0165064
0.0077567
0.00711454
0.0406326
0.018379
0.00457654
0.0305639
0.0121185
0.00690879
0.00467051
0.0102959
0.0102305
0.0027137
0.0671243
0.00173133
0.0281881
0.0155372
0.0158061
0.00185476
0.00186246
0.0211102
0.00497404
0.00966188
0.00176942
0.00183756
0.0184491
0.0050897
0.00367388
0.00350746
0.00294854
0.0344154
0.0364034
0.00512746
0.00201519
0.0017745
0.025582
0.00232639
0.00769711
0.0019496
0.00195056
0.0017745
0.00205004
0.00211106
0.0105866
0.00186802
0.0158611
0.00245725
0.00797461
0.00315743
0.00207201
0.00370448
0.00388661
0.02323
0.0284731
0.0368426
0.0076654
0.0015481
0.00428214
0.00530383
0.0287845
0.0378609
0.00672644
0.00330066
0.00197474
0.00302176
0.00430491
0.00162585
0.00440374
0.0259587
0.00576793
0.0181257
0.114979
0.00311651
0.00963741
0.00381049
0.0401258
0.00185025
0.00191397
0.00194332
0.0110789
0.00325202
0.00208173
0.00572503
0.00182501
0.0149397
0.00221649
0.00351234
0.0358767
0.00187852
0.0064153
0.0196989
0.010186
0.00229492
0.00514154
0.0127456
0.0379328
0.00203958
0.00519086
0.00279706
0.00535106
0.0251503
0.0040707
0.0539867
0.00264779
0.0169911
0.00234413
0.0180317
0.00777013
0.00933008
0.0258248
0.00162547
0.002125
0.0414573
0.00260192
0.00180238
0.0242955
0.0158251
0.0177416
0.00314164
0.00192939
0.0843343
0.0197223
0.0191419
0.00704241
0.00185215
0.0328989
0.00289674
0.00437081
0.00180864
0.114203
0.002318
0.0296688
0.0029399
0.0366572
0.0206429
0.00326943
0.017182
0.0386187
0.0266147
0.0178112
0.0192671
0.00379565
0.0218798
0.0161897
0.0123219
0.00223511
0.0241257
0.00763844
0.0677607
0.00215181
0.0212937
0.0025286
0.0196698
0.00549196
0.00196671
0.0187707
0.0020241
0.0532809
0.0469426
0.00348071
0.00182287
0.0049518
0.00557278
0.00188215
0.0171788
0.00237193
0.0174035
0.00206615
0.00535373
0.0253171
0.00312958
0.0182295
0.0250261
0.00362288
0.0244247
0.00447242
0.00182562
0.00491047
0.0182481
0.00186398
0.011792
0.00160947
0.00171959
0.00182307
0.00185086
0.0221111
0.0204367
0.0019134
0.00270342
0.0303955
0.00271278
0.00178599
0.0019705
0.00179978
0.00677282
0.040092
0.00195023
0.00855539
0.00325068
0.00913972
0.0225718
0.00182147
0.0111154
0.00445255
0.00173289
0.00399786
0.0467678
0.0353222
0.00204816
0.00236303
0.00172337
0.00339239
0.0115897
0.00368883
0.00205124
0.0312738
0.00196379
0.0137265
0.0246037
0.0162911
0.00390836
0.00401055
0.00451391
0.00576671
0.00884909
0.00183362
0.0102628
0.00203211
0.00221935
0.00153827
0.00207237
0.0231903
0.00255977
0.030449
0.0948994
0.0167924
0.010823
0.00459885
0.0299435
0.00227488
0.00198814
0.00345918
0.00211803
0.0273693
0.0104259
0.0142695
0.00199158
0.00702441
0.0125019
0.00675618
0.00698655
0.0242241
0.0207915
0.0228261
0.0394258
0.0256639
0.0112839
0.00425625
0.0441633
0.0385133
0.00170493
0.0656702
0.0267637
0.00373461
0.00762672
0.00475466
0.0263598
0.0201122
0.00706291
0.00225652
0.00335473
0.0277251
0.0294517
0.0596081
0.0309662
0.00453648
0.0282212
0.00867727
0.00198686
0.00188374
0.0225078
0.00893611
0.0282586
0.0321718
0.00197693
0.0441839
0.00248276
0.0184108
0.0030668
0.00404027
0.038481
0.0194362
0.00355272
0.0257477
0.00276699
0.0207414
0.00819979
0.00178522
0.0261852
0.03624
0.0194821
0.0190518
0.00850797
0.0207036
0.0134758
0.0338856
0.00176159
0.0254372
0.00232198
0.00387606
0.00240333
0.0465974
0.00348956
0.0119909
0.0029692
0.0214756
0.0140933
0.00285342
0.0252613
0.00166071
0.0294959
0.00603659
0.0304225
0.0177365
0.00185007
0.00501895
0.0275912
0.00697
0.0178042
0.0311069
0.00193819
0.0121218
0.00499684
0.002214
0.00204246
0.00232283
0.00485023
0.0197246
0.0231119
0.00186925
0.0125802
0.00670222
0.00503777
0.0142049
0.00354553
0.00262655
0.00882575
0.00866574
0.0307756
0.0114829
0.0267594
0.0032625
0.00207712
0.0106689
0.00922586
0.0407245
0.0136404
0.0197401
0.00205529
0.00198862
0.0127677
0.00276204
0.0134053
0.0160047
0.0045437
0.0359662
0.00198751
0.023118
0.00428885
0.0320006
0.00202392
0.0106339
0.00298509
0.00698367
0.0037251
0.00351769
0.00173794
0.0244339
0.0173803
0.0348278
0.00209549
0.00305669
0.0046273
0.00280963
0.0567152
0.00902036
0.0108404
0.00208862
0.00529476
0.00382833
0.00871956
0.00187431
0.0385352
0.0121537
0.00329749
0.0233622
0.0220159
0.0160397
0.0377299
0.0106611
0.00240256
0.0171678
0.0427348
0.00813872
0.0223379
0.00869256
0.00214368
0.00167697
0.00220885
0.00254781
0.00210152
0.00539659
0.0290156
0.00199872
0.00519683
0.0120985
0.00893854
0.00257173
0.00676291
0.0148356
0.00301507
0.0263739
0.0112484
0.00996177
0.016823
0.00301602
0.0423964
0.0152834
0.0280376
0.0333792
0.0177767
0.0380951
0.00548494
0.00326445
0.0052984
0.0301631
0.00472786
0.00364465
0.0363322
0.00303277
0.0103047
0.0231682
0.0369486
0.00679089
0.00744102
0.0294059
0.00274738
0.0356528
0.00203028
0.0031066
0.00580301
0.0030893
0.00506745
0.00872524
0.00187579
0.0528088
0.0284276
0.00902725
0.0088807
0.0445033
0.00397195
0.0127654
0.00201527
0.00243531
0.0140371
0.00320936
0.00171985
0.0110049
0.0193402
0.0023107
0.0093864
0.0234956
0.00278811
0.0021804
0.00298364
0.00985127
0.00507789
0.0080874
0.0121154
0.00863861
0.00913599
0.0048125
0.0183333
0.00292599
0.00206444
0.00930126
0.00394098
0.00757344
0.0058263
0.0261256
0.0176549
0.0057052
0.00414077
0.00465719
0.00177335
0.00332637
0.00175721
0.00173638
0.228157
0.00668012
0.0019689
0.0339485
0.00405521
0.00345895
0.0342579
0.00307538
0.00205974
0.00859639
0.00206917
0.00180279
0.00199476
0.016741
0.0106158
0.0236431
0.00747177
0.00222582
0.0299051
0.0331192
0.0193795
0.00610153
0.0226853
0.00336562
0.00225809
0.00224747
0.00293246
0.0116041
0.0167188
0.00309326
0.00279895
0.00735177
0.0117541
0.00312543
0.00196982
0.00182853
0.0274805
0.00171659
0.0102092
0.0130084
0.0266579
0.0186635
0.011104
0.0020772
0.0205149
0.0023517
0.0022142
0.00252631
0.00180587
0.00226347
0.00183253
0.00217814
0.00179244
0.009628
0.00452117
0.00595886
0.0268681
0.0218286
0.0028076
0.00525148
0.0265361
0.00245249
0.00829143
0.00182648
0.0017862
0.00190889
0.00363581
0.0109718
0.00197563
0.122634
0.00969103
0.0019379
0.0700795
0.00211043
0.0256478
0.0124302
0.00276226
0.0141154
0.0240127
0.00263955
0.00303146
0.00334395
0.0263607
0.0022504
0.026512
0.010532
0.0157584
0.0175855
0.00920782
0.00177628
0.0165002
0.00312028
0.00248243
0.00744207
0.00182931
0.0017549
0.00754757
0.00169955
0.00221811
0.0146576
0.00182275
0.018743
0.0275234
0.00234907
0.0078897
0.0195336
0.00201325
0.00783977
0.0131222
0.00764088
0.0414632
0.00229262
0.00214793
0.00703588
0.0307161
0.0193833
0.00931459
0.0191251
0.00452029
0.00502248
0.00865872
0.04153
0.00737598
0.00229649
0.00857538
0.00184753
0.00207739
0.0276777
0.0029534
0.00190312
0.00721913
0.00393087
0.0273164
0.00658838
0.00310196
0.00154664
0.0163139
0.00286389
0.0109463
0.00723102
0.0353232
0.00646444
0.0117334
0.023776
0.005996
0.0239759
0.00275602
0.00790682
0.00188132
0.066067
0.00161478
0.00973469
0.0201168
0.00949118
0.0041765
0.0343819
0.0026918
0.00329804
0.0214819
0.0495216
0.0209128
0.00161209
0.00351771
0.00211084
0.00884598
0.0221589
0.00354588
0.032919
0.00785465
0.00199859
0.00814594
0.0205756
0.00387549
0.0359651
0.0117973
0.00322427
0.00184107
0.0366013
0.00316422
0.00572445
0.0192232
0.00242122
0.00285684
0.00154454
0.00746199
0.00967416
0.019158
0.00242713
0.00351273
0.0353017
0.0259028
0.0185159
0.00215765
0.0100891
0.00262888
0.0214469
0.0021428
0.0270892
0.00454299
0.0154066
0.00245493
0.0019036
0.00424088
0.00425052
0.0336893
0.0283234
0.00361034
0.00460399
0.0324996
0.0272014
0.00251658
0.00329918
0.00271779
0.00861266
0.00441391
0.002358
0.0023213
0.0172986
0.0116221
0.0165296
0.00367149
0.0121182
0.0284031
0.0270407
0.00188478
0.0074867
0.00983291
0.0026895
0.00271975
0.0331334
0.00237536
0.00207241
0.0234645
0.0339587
0.00222099
0.00172285
0.0339771
0.0487316
0.0018873
0.00895384
0.0359004
0.0155001
0.00186182
0.00215954
0.00210823
0.00519012
0.00254165
0.0322437
0.0275333
0.00197539
0.00221549
0.00901348
0.00314951
0.0212056
0.0193404
0.0207949
0.00682611
0.0457581
0.00326669
0.00412469
0.0101087
0.0179928
0.0389547
0.0018007
0.00176675
0.00631805
0.00195288
0.00820659
0.00312528
0.0220724
0.0184294
0.210898
0.00791948
0.00394029
0.00884497
0.0201463
0.0110671
0.00664604
0.00382744
0.0103643
0.00314313
0.00217649
0.00814147
0.019932
0.0315759
0.00261824
0.0324815
0.00631245
0.00577243
0.0113582
0.0349155
0.00364966
0.0166675
0.0446777
0.0376778
0.00477951
0.00191797
0.00512059
0.00499083
0.0121482
0.00765168
0.0515928
0.0259361
0.0233224
0.0016877
0.00886318
0.00377877
0.00786889
0.00802443
0.00491729
0.0368579
0.00618348
0.0359964
0.00254697
0.00756708
0.0310803
0.00169316
0.00998967
0.00499198
0.0110501
0.0203259
0.0368881
0.00322543
0.0217765
0.0019365
0.00180387
0.00569597
0.0158176
0.0325264
0.00873855
0.0238473
0.00254002
0.00258913
0.00216754
0.0205977
0.0027126
0.00265467
0.00295872
0.00268045
0.0372324
0.0218661
0.00232543
0.00775725
0.0164389
0.0017339
0.00572117
0.00523798
0.00935794
0.0263257
0.131902
0.0225603
0.0029113
0.00225553
0.00580441
0.0352519
0.0270483
0.00351297
0.00631865
0.015405
0.0016954
0.00279358
0.00251005
0.00214431
0.00173884
0.00268758
0.00394383
0.00718798
0.00667749
0.00701545
0.0141242
0.0167943
0.00168644
0.00498399
0.0271479
0.0199649
0.00207343
0.0305363
0.00369353
0.00962148
0.00234214
0.00359449
0.00700565
0.00186575
0.0022137
0.00249691
0.0194755
0.0222411
0.00360161
0.00165788
0.0361976
0.011848
0.00578795
0.00207026
0.00423912
0.0466646
0.00848354
0.00441228
0.012698
0.00197089
0.00654528
0.0393882
0.00566475
0.032859
0.0106161
0.043339
0.00289134
0.00348947
0.0019646
0.0374608
0.0195166
0.0121221
0.00328714
0.022239
0.0211635
0.0104282
0.00192033
0.0268041
0.00156395
0.00341501
0.0158641
0.0168092
0.0221235
0.00256164
0.00178293
0.00392845
0.00589259
0.00930411
0.00922732
0.00952608
0.0298013
0.0307657
0.025088
0.0106335
0.00169343
0.0282175
0.0466619
0.0211982
0.0344548
0.0030264
0.0321938
0.00221548
0.00177622
0.00381171
0.0161202
0.00217167
0.0272289
0.0168198
0.00177401
0.00243878
0.00619119
0.00987969
0.00240497
0.0368139
0.00501627
0.00307373
0.0019973
0.0103492
0.00300898
0.00183652
0.00831117
0.0249697
0.0329048
0.00826351
0.0017847
0.0294868
0.0121483
0.00243887
0.0252216
0.027075
0.0090912
0.0445381
0.0147109
0.0384028
0.0221652
0.02656
0.0400267
0.0261205
0.0420526
0.0080887
0.0127342
0.00187224
0.0402457
0.00199568
0.00528641
0.00351212
0.00683093
0.00309742
0.0283028
0.00266577
0.0107058
0.0104623
0.00171376
0.00510854
0.047492
0.00644686
0.0117102
0.029618
0.0303405
0.00431145
0.0103633
0.0329559
0.00354145
0.00419453
0.00178353
0.00249473
0.0214866
0.00666915
0.0115892
0.011056
0.00427273
0.00412253
0.00226796
0.010356
0.00308946
0.00483537
0.0105448
0.00844123
0.00803418
0.00633757
0.0110892
0.00188985
0.00472151
0.0431789
0.00456866
0.0475936
0.11972
0.0204442
0.0041661
0.00434592
0.00786994
0.00306538
0.00666326
0.0135614
0.00721232
0.0426309
0.0350527
0.0547808
0.0192946
0.0203934
0.00260853
0.0215196
0.00647427
0.0319005
0.0295092
0.00171833
0.0195948
0.00277085
0.00526785
0.00235158
0.0267921
0.0222189
0.00576153
0.00354425
0.0408758
0.00441003
0.0177392
0.00795536
0.00191325
0.00321149
0.00199935
0.00899382
0.00941864
0.0114651
0.0156459
0.0266176
0.0221047
0.0305059
0.00778821
0.00207677
0.0136923
0.0180942
0.00933478
0.00338968
0.00319603
0.0193994
0.00471256
0.0324675
0.0157613
0.00343869
0.0215198
0.0124555
0.00994753
0.00623192
0.00862713
0.00355052
0.0105211
0.00891544
0.00243444
0.00746314
0.00253038
0.0363123
0.0376865
0.00552236
0.00872444
0.00347931
0.00776067
0.00960059
0.040761
0.00465295
0.00524644
0.00373801
0.0108241
0.0234071
0.0183238
0.0226362
0.00591175
0.0165431
0.00823924
0.0365724
0.00665746
0.0234982
0.0126735
0.00206871
0.0191471
0.00335602
0.0029232
0.0252486
0.0322508
0.00739484
0.067035
0.00315447
0.00243537
0.0119335
0.00366671
0.0178846
0.00641734
0.0296383
0.00785592
0.00611305
0.00167064
0.0452715
0.00270833
0.00541186
0.0125458
0.00463743
0.0271798
0.00255539
0.0284006
0.00336777
0.00580718
0.00392701
0.00503156
0.0235916
0.0357724
0.00561826
0.00193433
0.0240726
0.00789506
0.0289911
0.00554035
0.0181274
0.0394927
0.00990421
0.00365369
0.0113328
0.00199272
0.00697808
0.00415918
0.0295869
0.0019067
0.0277917
0.0136387
0.00209741
0.00197812
0.00544672
0.0378756
0.0217676
0.00188671
0.00184673
0.00372609
0.00363025
0.00323992
0.05237
0.00457216
0.0039942
0.00505875
0.0201474
0.00532266
0.00212589
0.00495582
0.00220853
0.00197495
0.019008
0.00334728
0.0222542
0.00307165
0.00991292
0.00483347
0.00323129
0.0022892
0.0021107
0.0263269
0.00154256
0.019497
0.0319314
0.00545441
0.0207929
0.00309565
0.0388436
0.0200192
0.0211716
0.012423
0.00546174
0.0292711
0.0295536
0.00412348
0.0102348
0.00194228
0.00874778
0.0363848
0.0113647
0.024619
0.00737883
0.00324906
0.0194705
0.00337234
0.00196104
0.0027809
0.00254766
0.00191916
0.00284634
0.00199767
0.00368816
0.0183295
0.0418381
0.00407171
0.043674
0.00644289
0.00612997
0.0124259
0.00176902
0.00547891
0.0249969
0.00227943
0.0233768
0.00961794
0.0173425
0.00499039
0.00177012
0.012986
0.0082796
0.023066
0.00567341
0.006256
0.0112266
0.00404943
0.0453144
0.0318608
0.00192804
0.00560147
0.00225287
0.00855942
0.0515151
0.0017139
0.0165458
0.00178013
0.0028859
0.0279383
0.00335774
0.00247927
0.0269221
0.0194199
0.00171722
0.00908378
0.0349034
0.00326725
0.0219637
0.0354315
0.00986756
0.00201981
0.00187821
0.00385392
0.00232824
0.00374192
0.00208626
0.00717612
0.00814268
0.00201618
0.0036517
0.0404278
0.0257252
0.00591287
0.0024483
0.00663339
0.0365605
0.0337856
0.00381002
0.0230824
0.00341742
0.0025083
0.00189978
0.0226729
0.013152
0.00213724
0.00695088
0.00338732
0.00422882
0.0190335
0.0279704
0.00217408
0.0315163
0.0152737
0.0278034
0.0233469
0.00243071
0.00181976
0.00368411
0.00803581
0.0103397
0.0103881
0.00234263
0.00314196
0.0200262
0.00167822
0.00263805
0.00271231
0.0338054
0.00579809
0.0334952
0.0105822
0.0223471
0.00295206
0.00404388
0.0117396
0.0287423
0.0121888
0.0162289
0.0451198
0.00335539
0.0353778
0.0196174
0.00223389
0.00252753
0.00174917
0.0259971
0.00797967
0.0209794
0.00185964
0.00287075
0.00239675
0.00211747
0.023737
0.00401887
0.00668687
0.00179576
0.00233724
0.00236448
0.00268442
0.00180126
0.0405917
0.0280517
0.00688882
0.00167807
0.00386665
0.0237858
0.00207057
0.018017
0.00598689
0.00419984
0.0117045
0.0202612
0.0180928
0.0429886
0.00307586
0.00408144
0.0189251
0.00616242
0.0414358
0.00321072
0.00174859
0.037015
0.006317
0.0053367
0.00257147
0.091735
0.0433617
0.0294839
0.0155036
0.0177497
0.0346029
0.0288822
0.0401636
0.0118892
0.00252717
0.00434837
0.00295946
0.00558749
0.0376722
0.00284524
0.00655
0.0451485
0.0448634
0.032497
0.010826
0.0230216
0.00295222
0.0148818
0.00178291
0.00791203
0.0231217
0.0115359
0.00310577
0.00190891
0.00369008
0.00279616
0.00220458
0.0214503
0.00800123
0.00328257
0.0035544
0.0504633
0.0133827
0.00803547
0.00578585
0.00671324
0.00196357
0.0184496
0.0330824
0.0383498
0.00959481
0.00170516
0.00154966
0.00378368
0.0179186
0.00791304
0.0237607
0.00942813
0.00245364
0.0235824
0.017447
0.00217482
0.00362559
0.00301647
0.00262699
0.0110144
0.015665
0.00366016
0.00867707
0.00597863
0.0039116
0.0048875
0.00217652
0.0126889
0.00417389
0.0405429
0.0308361
0.0435994
0.010245
0.00646813
0.00901964
0.0233509
0.00347802
0.0219291
0.0187399
0.0396896
0.00650722
0.00177087
0.00227213
0.0389317
0.0182681
0.0220956
0.0339338
0.0188499
0.00187078
0.00161136
0.0293234
0.0253199
0.0189687
0.00180433
0.00162009
0.0039299
0.0103227
0.00302766
0.00399918
0.00946263
0.0266409
0.00168421
0.00404873
0.00414146
0.00601948
0.00384745
0.00222347
0.0136732
0.00600946
0.0153
0.00956443
0.00249134
0.00208967
0.0480306
0.00216398
0.0340629
0.00292622
0.00328312
0.00244709
0.00265342
0.0203108
0.0363922
0.0196036
0.0019428
0.00193603
0.00533676
0.00237235
0.0324674
0.0106268
0.00266156
0.00200533
0.00736567
0.0232034
0.015052
0.00758417
0.00216403
0.00229398
0.00245487
0.00185796
0.00328439
0.00369687
0.0109642
0.00230162
0.00278644
0.0036596
0.0109693
0.0268415
0.0364329
0.0137106
0.00816146
0.00193647
0.00195617
0.0309665
0.00729714
0.00443741
0.00459167
0.00992862
0.00265376
0.00407457
0.00496364
0.00162128
0.00876213
0.00485964
0.0205499
0.00724885
0.00402607
0.035356
0.00575717
0.00330915
0.00450738
0.00283951
0.00194514
0.0348288
0.00245919
0.0118494
0.00203762
0.0141465
0.00222951
0.00543287
0.0103688
0.00601406
0.0357705
0.00572027
0.0228199
0.0253527
0.00383431
0.0326655
0.00209961
0.0028657
0.00198625
0.0220653
0.00910996
0.0369803
0.00477394
0.0264744
0.00993778
0.00306
0.00253251
0.00199355
0.00352134
0.00311037
0.00190936
0.00318296
0.00293203
0.00317094
0.0223269
0.00927113
0.00163952
0.00171459
0.0179052
0.00366688
0.0025561
0.00211803
0.0354696
0.00451548
0.035015
0.00173755
0.0296934
0.0258604
0.00673393
0.00483496
0.00419623
0.00666693
0.0275802
0.00255544
0.0283577
0.0281296
0.00334995
0.0213295
0.0118578
0.00509574
0.00289441
0.037817
0.0178527
0.0286758
0.00215341
0.00259338
0.0164406
0.00309419
0.0104762
0.0170342
0.00492161
0.0250614
0.0044021
0.00315911
0.00206506
0.00272789
0.00201324
0.0018556
0.00610136
0.00152848
0.00337774
0.00217238
0.00798246
0.00951597
0.00171879
0.0129885
0.00311055
0.00359877
0.00303863
0.0037193
0.00166842
0.00415816
0.0247707
0.00275959
0.00168081
0.0179847
0.00617318
0.00174376
0.105941
0.00289609
0.00228418
0.0101697
0.00538056
0.0206961
0.00721054
0.00208399
0.00323039
0.00990423
0.0215444
0.0178068
0.00545044
0.0238574
0.0305127
0.0306442
0.00431016
0.00212635
0.00161145
0.0046564
0.00368936
0.00417497
0.0169664
0.0077102
0.0018677
0.00165908
0.00159157
0.00152883
0.0323593
0.0477736
0.0412906
0.0153637
0.00322074
0.00203012
0.0017828
0.0111447
0.00321833
0.00234483
0.0378525
0.00162314
0.0026153
0.00196156
0.00197377
0.0144523
0.0197885
0.00638119
0.0208857
0.00268563
0.00384914
0.00923342
0.00324203
0.0101772
0.0164804
0.00892491
0.00173483
0.0115255
0.00534527
0.00208799
0.0192062
0.0242204
0.00271908
0.00176405
0.0190464
0.0249965
0.0105894
0.0369551
0.00189863
0.00626584
0.0196063
0.00167871
0.00168635
0.00227114
0.00541523
0.00247193
0.00313105
0.00274844
0.00387305
0.0113668
0.00370802
0.0159337
0.0134181
0.0202793
0.00186124
0.00673001
0.00258204
0.0043198
0.0102544
0.00848309
0.0380668
0.00854287
0.0388525
0.0104838
0.00392347
0.0032122
0.00212131
0.00307492
0.0272358
0.0222668
0.00294132
0.0131348
0.016305
0.00537592
0.023044
0.00208652
0.00401491
0.00277564
0.00662083
0.0027193
0.00618678
0.00298126
0.0256378
0.00213839
0.0275032
0.0285875
0.0164049
0.00472995
0.00618593
0.00164144
0.0280991
0.00707594
0.00322513
0.00864553
0.0123974
0.0111385
0.0250945
0.0180238
0.0241748
0.0162624
0.00160522
0.0205696
0.00321577
0.0176332
0.0405022
0.0100558
0.0233414
0.0486695
0.0366522
0.00408771
0.00690704
0.00227622
0.0162631
0.00165353
0.0263055
0.00718773
0.0181049
0.00323028
0.00271472
0.040826
0.00481653
0.00285495
0.00300065
0.00454443
0.00512446
0.00234637
0.00295172
0.00243835
0.00411717
0.0257533
0.0109273
0.0212627
0.00313656
0.0332672
0.0111092
0.00344327
0.0142622
0.00784037
0.0405353
0.00701752
0.0083785
0.00191994
0.00547111
0.00251618
0.0042094
0.0023746
0.00465504
0.00161218
0.0195787
0.0206595
0.00317904
0.00259646
0.00437353
0.00334893
0.00260135
0.00346359
0.00356224
0.0278076
0.00346179
0.00168005
0.0272656
0.0055871
0.0276014
0.00502416
0.0155689
0.0226912
0.00301748
0.0245601
0.0264511
0.0366481
0.0303004
0.0266154
0.0021368
0.00982741
0.00178501
0.00490465
0.017435
0.0026691
0.00177164
0.0025265
0.0377276
0.00384186
0.00749824
0.00703907
0.00302094
0.0303664
0.0287346
0.00380726
0.0260709
0.00195357
0.0216039
0.00579488
0.0155919
0.00160418
0.00164943
0.0027756
0.0236221
0.0369991
0.0259496
0.00349712
0.0183194
0.0484786
0.00679753
0.0102108
0.0300529
0.00929855
0.0180173
0.00526614
0.00362726
0.00190342
0.0031578
0.0953031
0.00776427
0.0359099
0.00177765
0.00322758
0.00589171
0.00282778
0.0104643
0.00746417
0.0364048
0.0037853
0.00880675
0.00176949
0.00196126
0.0184869
0.0442109
0.00226261
0.00276538
0.00211368
0.0161011
0.00430273
0.0363626
0.025623
0.0224445
0.00222782
0.0301998
0.00726453
0.0417514
0.0212375
0.00383548
0.0207081
0.0267499
0.0273147
0.00366319
0.00319409
0.00208902
0.019782
0.0049452
0.00233766
0.00624843
0.00628044
0.00344081
0.00207598
0.00206025
0.035847
0.00320893
0.013476
0.0153913
0.0224072
0.00199939
0.00219673
0.00943837
0.00362922
0.0442901
0.00703359
0.00534003
0.0401504
0.00283687
0.00255851
0.00366288
0.0184941
0.00203703
0.0199743
0.00172974
0.0181206
0.0378681
0.00200692
0.00250542
0.0163705
0.0037277
0.00245895
0.00223569
0.00192993
0.0186488
0.0293257
0.00226409
0.00362647
0.00381338
0.00284816
0.0204636
0.00451569
0.0188021
0.0159702
0.002866
0.00186441
0.00912604
0.00334929
0.006177
0.0251543
0.065548
0.00197126
0.00285803
0.0205101
0.0308989
0.011503
0.00357818
0.00389392
0.037704
0.0106989
0.00286769
0.00219577
0.00280465
0.00356172
0.00714941
0.00165525
0.00346989
0.00241651
0.0109144
0.0278513
0.0370427
0.00602632
0.00812156
0.00344865
0.00299912
0.00218279
0.00257263
0.00192985
0.00264755
0.00301976
0.00219892
0.0087907
0.0028602
0.00278156
0.0097356
0.00269356
0.00987683
0.0281606
0.00602064
0.00446323
0.00484153
0.00564948
0.00483382
0.010266
0.020271
0.00371908
0.00296992
0.00379843
0.00646247
0.0322314
0.00683911
0.00842816
0.0363052
0.0040364
0.0287469
0.00618311
0.00335751
0.00401002
0.00465963
0.00745942
0.0250325
0.0330506
0.0660108
0.00196244
0.0210476
0.00293519
0.00262698
0.0224298
0.00163761
0.00953373
0.00180833
0.00626684
0.00601519
0.0136016
0.00153249
0.00215178
0.043268
0.0025981
0.0252095
0.0448888
0.00430832
0.0165167
0.00235593
0.00254179
0.00199469
0.00842648
0.0119388
0.00380131
0.00265908
0.00384974
0.0193969
0.0326881
0.00615093
0.0030667
0.00690036
0.00189615
0.0118366
0.009471
0.00279247
0.00247164
0.00255434
0.0102775
0.00760637
0.011169
0.00499759
0.00379561
0.00720514
0.00832721
0.025552
0.00352178
0.00395895
0.00299806
0.00237402
0.00377632
0.00191685
0.0245107
0.00590751
0.0131603
0.0196734
0.0030338
0.0130019
0.00170293
0.00223468
0.003884
0.0364793
0.009049
0.00350463
0.00215165
0.0178556
0.00266221
0.0126431
0.00513239
0.0121432
0.00734893
0.00333477
0.00264582
0.0453555
0.00436695
0.00254066
0.0027902
0.00994248
0.00342496
0.00302439
0.132284
0.00158902
0.0222439
0.00386788
0.00221556
0.00262154
0.00634041
0.00991956
0.013659
0.0175111
0.0260339
0.00230835
0.0023464
0.0884045
0.0245614
0.00379834
0.00414423
0.0194589
0.008392
0.00415337
0.00450833
0.00391964
0.0395558
0.00308
0.020327
0.022542
0.00248269
0.0191056
0.0114212
0.0335925
0.0218213
0.011713
0.0194324
0.00576305
0.0183995
0.00681689
0.0277408
0.034861
0.00579518
0.0289824
0.0172541
0.00393043
0.0310683
0.00362729
0.0185203
0.0150283
0.0209409
0.0019849
0.0296519
0.0277777
0.00480232
0.00334443
0.00549183
0.0214074
0.00449675
0.0113096
0.00564403
0.0155946
0.00901894
0.0016513
0.00949285
0.00200528
0.00415281
0.00489268
0.00225436
0.0465369
0.00552389
0.00652598
0.00313697
0.0312549
0.00646292
0.046581
0.00932474
0.00952902
0.0023366
0.00286343
0.0071476
0.00342609
0.020672
0.00192895
0.00270768
0.0121146
0.00158945
0.0154556
0.00296927
0.00474432
0.0172993
0.0149938
0.0154517
0.00226404
0.0034596
0.0168297
0.00492107
0.00609106
0.0397077
0.00275749
0.0360495
0.0223773
0.00724929
0.00333553
0.00435663
0.0192652
0.00227555
0.00280155
0.00928458
0.0183665
0.0111816
0.0283688
0.00367787
0.0104365
0.00486254
0.0101347
0.00187684
0.00403234
0.0254826
0.00467104
0.00182072
0.0101082
0.046733
0.0154126
0.00384053
0.0192754
0.0110676
0.0175509
0.0040199
0.0107288
0.0206488
0.0202377
0.00193018
0.0351633
0.00319389
0.0304668
0.00237659
0.00904719
0.00319677
0.0264537
0.00382673
0.00201444
0.0033821
0.00217729
0.00905907
0.0405167
0.0400077
0.0312654
0.0465573
0.00314616
0.0261127
0.00199732
0.00357204
0.00563087
0.00263168
0.0335307
0.0171416
0.0194976
0.00357031
0.0295608
0.00346549
0.00960833
0.0042508
0.0172491
0.0263084
0.030318
0.00310146
0.0190498
0.00254805
0.00558669
0.00567579
0.0192963
0.0203497
0.00629524
0.00869638
0.021962
0.00208732
0.00297112
0.0123589
0.00955776
0.00407046
0.00295114
0.00279439
0.00199786
0.00216831
0.00840005
0.0119048
0.00226413
0.0471195
0.0303616
0.00525503
0.00320326
0.00168703
0.0312305
0.021587
0.00162542
0.00933384
0.00157358
0.0245803
0.00169147
0.00205
0.00301085
0.0172816
0.0117223
0.033189
0.0369151
0.00628319
0.0391709
0.00527076
0.0137347
0.00550449
0.00469144
0.00257138
0.0339115
0.0525889
0.00248089
0.00522785
0.0266914
0.00278165
0.00287158
0.0273985
0.0382473
0.0418011
0.022816
0.0134088
0.0374823
0.0107571
0.0018581
0.0265892
0.0446511
0.00605754
0.00310572
0.00228827
0.00367927
0.00933636
0.0497339
0.00203119
0.024491
0.00242074
0.0215017
0.00840711
0.00554276
0.0084558
0.00679589
0.0283053
0.00219284
0.0102185
0.00185408
0.0352782
0.00620118
0.0198724
0.00855303
0.0146888
0.0325063
0.00744144
0.00741797
0.00621992
0.01306
0.00364511
0.0209004
0.0270096
0.0209062
0.00507994
0.00713714
0.00519738
0.0272075
0.00703837
0.0367424
0.0494364
0.0042114
0.00214649
0.0196896
0.0253761
0.0104138
0.00230208
0.00621113
0.0028763
0.00573912
0.00438517
0.00345419
0.00372272
0.0017664
0.0190913
0.0381046
0.00544811
0.00178777
0.00203559
0.0100753
0.0451453