/*--------------------------------*- C++ -*----------------------------------*\
| =========                 |                                                 |
| \\      /  F ield         | OpenFOAM: The Open Source CFD Toolbox           |
|  \\    /   O peration     | Version:  2406                                  |
|   \\  /    A nd           | Website:  www.openfoam.com                      |
|    \\/     M anipulation  |                                                 |
\*---------------------------------------------------------------------------*/
FoamFile
{
    version     2.0;
    format      ascii;
    arch        "LSB;label=32;scalar=64";
    class       volVectorField;
    location    "66";
    object      momentum:angularVelocity;
}
// * * * * * * * * * * * * * * * * * * * * * * * * * * * * * * * * * * * * * //

dimensions      [0 1 -1 0 0 0 0];

internalField   nonuniform List<vector> 
59516
(
(-0.00109158 -0.000691862 0.103211)
(0.000343201 -0.000213955 0.0942287)
(-0.000510307 0.000516795 0.109935)
(-0.00212984 -0.000422601 0.126901)
(-0.00455705 0.000300189 0.113662)
(-0.010443 0.00555709 0.101091)
(-0.00275196 -0.00165394 0.126835)
(-0.000308378 -0.00054195 0.0982025)
(-0.000858182 0.000147967 0.109216)
(0.0019367 0.00106626 0.0507715)
(-0.00253855 -0.000261394 0.154055)
(-0.00302803 -0.00222705 0.059687)
(-0.000882109 -0.000775484 0.115792)
(5.20029e-05 -0.000206421 0.018947)
(0.000237361 -0.00343978 0.0569175)
(-0.00142298 0.00343477 0.0490729)
(-0.00311007 -0.00058187 0.170081)
(-0.00573273 -0.00158403 0.0700179)
(-0.00603994 -0.0011942 0.114329)
(-0.00193771 0.000540823 0.166443)
(-0.00144572 0.000672976 0.0537134)
(0.000390396 0.000927304 0.148065)
(-0.00301558 -0.00069679 0.15449)
(0.000824924 0.000559595 0.0313414)
(-0.000158093 0.000729019 0.161569)
(-0.000161017 0.00156102 0.0619569)
(-0.000476602 0.00282705 0.0391128)
(-0.00349415 -0.00147425 0.0442206)
(-0.00269579 -0.000864697 0.0652396)
(0.00198766 0.00163711 0.0160697)
(-0.0215112 0.00120378 0.108361)
(-0.0029507 0.00226708 0.045521)
(-0.000694416 -0.000405076 0.131221)
(-0.0018571 -0.00113742 0.109579)
(-0.00681004 -1.48593e-06 0.139504)
(-0.000573908 0.000177492 0.146034)
(-0.00233498 0.00122067 0.015528)
(-0.00693861 -0.00220514 0.0699189)
(-0.0039004 0.00039177 0.0949558)
(-0.000152882 0.000832149 0.161125)
(-5.97057e-05 -0.000582587 0.0977948)
(-0.0117374 -4.33861e-05 0.14405)
(-0.00540774 0.000997573 0.148439)
(-0.000643939 0.000326502 0.103268)
(-0.00559536 0.000690244 0.142537)
(0.00134254 0.000375372 0.0520374)
(-0.0055455 0.000141207 0.132234)
(-0.00541675 0.000631981 0.163713)
(-0.015242 0.00138646 0.111885)
(-0.00879032 0.000340745 0.151226)
(-0.0178974 0.000518785 0.104055)
(-0.00393603 -0.00188653 0.0409808)
(0.000411712 -0.00248076 0.116897)
(-0.000316441 0.000490386 0.124241)
(-0.00293551 0.000765613 0.0471446)
(-0.00322853 0.000588114 0.129508)
(-0.0119441 7.07581e-05 0.144978)
(-0.00434428 -0.00163086 0.0432439)
(-0.000325713 0.000198573 0.178664)
(-0.0104008 -0.000326199 0.135279)
(-0.000492188 0.000312038 0.149553)
(-0.00139382 0.00191378 0.0176769)
(-0.000905568 -0.000147675 0.171674)
(-0.0037481 -6.90486e-05 0.167405)
(-0.000693384 0.000565602 0.118218)
(-0.00694151 0.000117788 0.147725)
(0.000184241 0.00270999 0.0238427)
(-0.000126557 0.000317788 0.0384701)
(-0.0227982 0.000385911 0.121534)
(-0.0037823 -0.000822346 0.135473)
(-0.000563105 -0.000787638 0.0340631)
(-0.00275843 -0.000779369 0.164537)
(0.00324599 -0.00130492 0.0212894)
(-0.00192854 -0.00042395 0.142744)
(-0.000568182 -0.000434874 0.18896)
(-0.00439963 0.000210798 0.15823)
(-0.00514523 0.000126238 0.164445)
(0.000558217 3.28413e-05 0.148716)
(0.001718 0.000902631 0.0425714)
(-0.00862703 0.000736115 0.151902)
(-0.00241274 1.99649e-06 0.0352204)
(-0.00767112 0.000431629 0.147009)
(-0.00644687 0.000381363 0.139805)
(-0.00234828 0.00128407 0.0184414)
(-0.00746619 0.000790383 0.146817)
(-0.00101747 0.000835638 0.178849)
(0.000600022 0.00106288 0.0302486)
(-0.000824064 8.94832e-05 0.149626)
(-0.00184691 -0.000965002 0.0513869)
(-0.00998951 -0.00248935 0.107108)
(-0.0115691 -2.84316e-05 0.131508)
(-0.000860082 0.00111895 0.139335)
(-0.000753545 -1.43309e-05 0.177468)
(-1.08676e-05 0.000936255 0.137054)
(7.81348e-05 -9.30445e-05 0.165199)
(-0.0112373 -7.02656e-05 0.109926)
(-0.000365463 -0.000325496 0.139663)
(0.00212195 0.00385645 0.0499714)
(-0.00247992 -0.000982429 0.0643146)
(0.0016966 0.00103222 0.148391)
(-0.00117887 0.000817611 0.0351672)
(0.00246956 0.00130951 0.0224693)
(0.00266252 0.00138898 0.0212457)
(-0.00195558 0.00217858 0.0510031)
(0.000832381 -8.88521e-06 0.133649)
(0.000170179 -0.000712682 0.148454)
(0.00172482 -0.00306853 0.0368547)
(-0.000768298 -0.000342607 0.1015)
(-0.000188143 0.000692519 0.0974281)
(-0.00134709 0.00213035 0.0621948)
(-0.0187507 -0.000240464 0.124958)
(0.00211331 -0.00203807 0.0284822)
(-0.00250197 0.00319716 0.062927)
(-0.0195073 -5.06561e-05 0.118045)
(-0.000232088 0.000149089 0.161631)
(0.00109564 -0.00118807 0.0963616)
(-0.00164875 -0.00108303 0.0508924)
(-0.000321946 -0.000609084 0.131888)
(-0.000358735 -0.000957492 0.0202538)
(-0.000808334 0.000826049 0.147074)
(7.16381e-05 -6.68472e-05 0.194325)
(-0.000357554 0.000600725 0.173388)
(0.000794179 0.000153802 0.158992)
(-0.00033235 0.000264197 0.171899)
(-0.0180199 0.0011474 0.13241)
(-0.00334786 0.000111818 0.0897672)
(-0.00169188 -0.000827435 0.0275943)
(-0.0137076 0.00205951 0.138369)
(-0.0130694 0.00307954 0.0898413)
(-1.88313e-05 -0.000299138 0.186074)
(-0.000213365 -0.000112977 0.190636)
(0.0017097 0.00193572 0.109656)
(-0.000480177 -0.0018981 0.0215002)
(-0.000244593 0.000555674 0.147508)
(0.00100698 0.000342666 0.098684)
(-0.00207458 0.000971723 0.112508)
(-0.0155936 0.00140425 0.107484)
(0.000107204 0.000473249 0.127479)
(-0.000361355 0.00251942 0.0366308)
(-0.00119785 0.000854012 0.0963872)
(-0.000971566 0.0020406 0.0409535)
(-0.000243669 -0.000449015 0.191465)
(-0.000790532 -0.00146502 0.0172294)
(-0.000645882 0.00092635 0.123275)
(-0.00156916 -2.66199e-05 0.180095)
(-0.00239602 0.000695511 0.141874)
(-0.0059129 0.00133443 0.140266)
(-0.00354359 0.001327 0.116947)
(0.000947131 -0.0017636 0.0621281)
(-0.000492821 0.0010357 0.104441)
(-0.000471113 -0.000921456 0.101232)
(0.000141854 0.0012286 0.032116)
(0.000855879 0.00101527 0.16931)
(-0.000127213 -1.56224e-05 0.154672)
(-0.00101352 -0.0019795 0.0865555)
(-0.00158787 0.00097332 0.017129)
(-0.000461368 -0.000384355 0.110322)
(-0.00164311 0.000796263 0.111619)
(-0.00134267 0.000540814 0.0802781)
(-0.00252797 -0.00178445 0.017562)
(0.00245939 0.00242361 0.0617268)
(0.00342679 -0.00204104 0.0636353)
(-0.000556142 0.00121155 0.0321108)
(-0.000218012 -0.000433854 0.0229638)
(0.00300366 0.000106922 0.0961012)
(-0.00104161 -5.57364e-05 0.178144)
(0.00091553 -6.53185e-05 0.0579838)
(-0.00128522 -0.000372554 0.183346)
(0.00104538 0.00214411 0.0184251)
(0.000251797 -0.000563858 0.136517)
(-0.0014925 -0.00114487 0.0809046)
(-0.000913528 0.000610637 0.0487791)
(-0.00014667 -0.00175406 0.0599286)
(-0.000129465 -0.000528569 0.135627)
(0.000377358 0.000580609 0.04648)
(-0.00585001 -0.000548842 0.134852)
(-0.000817448 0.00034901 0.173617)
(-0.00700594 0.000537695 0.149529)
(0.000361545 -0.00300619 0.0634657)
(0.00042317 0.000308365 0.0374918)
(-0.00169808 -0.00211142 0.146011)
(0.000814599 0.0029077 0.0306782)
(-0.000909582 -0.00185425 0.0261322)
(0.000522819 0.00136121 0.0602663)
(-0.000359831 -0.000959017 0.185157)
(-0.000347679 0.000647301 0.0552649)
(-0.00256086 0.000460528 0.0326181)
(0.000136512 0.000250065 0.0209298)
(-0.000417724 5.35033e-05 0.11954)
(0.00147013 0.000766345 0.0965736)
(-0.00263565 -0.000118505 0.135332)
(-0.000968145 -0.00280126 0.0480532)
(-0.00151564 -0.000509065 0.165783)
(0.00144248 -0.0011749 0.0527399)
(-0.00100076 -3.8233e-05 0.154646)
(0.00039504 0.000677042 0.0272829)
(0.000700483 0.00027286 0.0527485)
(0.000305988 -0.00106641 0.037143)
(-0.0045702 1.64307e-05 0.105869)
(0.000371463 -0.000797757 0.154958)
(-0.00156629 -0.00225991 0.0771047)
(-0.000256695 -0.000335986 0.193507)
(0.000103565 0.00111469 0.098703)
(0.00149345 -0.00178251 0.0177149)
(0.000475621 0.000817205 0.125292)
(-0.000498679 -0.000422462 0.145092)
(-0.00056309 -0.000264264 0.186928)
(0.00159124 -0.000813037 0.155933)
(0.000224033 -0.000689935 0.021042)
(0.00178619 0.00107112 0.110724)
(-0.000527217 0.00442359 0.0467803)
(-0.00385933 0.000788629 0.0235599)
(-0.000907311 0.00124643 0.143001)
(-0.000333394 0.00129735 0.0515409)
(-0.000967419 -0.00123662 0.112761)
(0.00041661 -0.000131119 0.174482)
(-0.00185903 0.000494003 0.139804)
(-0.0012196 0.000962568 0.158048)
(-0.00158803 0.00297536 0.0501037)
(0.000788423 -0.000146732 0.157637)
(-0.000832538 -0.0025479 0.0510346)
(-0.000482678 0.000267269 0.10229)
(-0.000939207 -0.00096947 0.167988)
(0.000333364 -0.000488553 0.0357547)
(0.00043819 -0.000201431 0.173893)
(0.000427542 0.000131973 0.176312)
(-0.000912354 -0.000996158 0.0259696)
(-0.00240245 0.000547574 0.043097)
(0.000122949 0.000933091 0.174889)
(-0.00202849 0.00332973 0.0505302)
(3.75608e-05 0.000607473 0.176242)
(-0.000465576 0.000328771 0.177078)
(-0.000928687 -0.000439945 0.191167)
(-0.00109192 -0.00188821 0.0227592)
(-0.00121209 -0.00108221 0.0299499)
(-0.00143202 -3.48491e-05 0.0312463)
(-0.000136382 -0.000371521 0.0590149)
(-0.0012912 -0.000195124 0.0926242)
(-0.00173942 0.000423104 0.158532)
(0.00188356 -0.000326601 0.0531782)
(0.000370217 0.000347833 0.192734)
(0.0022555 0.00160074 0.0185955)
(0.000687371 0.000526001 0.0505564)
(0.00212037 0.00133036 0.0225145)
(0.000468853 0.000528043 0.18812)
(-0.000521428 -0.000309519 0.0882834)
(-0.00137088 0.000287162 0.146302)
(-0.000896238 0.00150711 0.06138)
(-0.000719501 -0.000420903 0.172233)
(-0.000701479 -0.000260872 0.101328)
(-0.000316762 -0.000135944 0.16803)
(-0.000863887 9.29359e-06 0.140193)
(0.000790052 0.000215054 0.194091)
(0.000268167 0.00141722 0.144977)
(-0.00119765 0.00133357 0.147495)
(-0.00111758 0.00057886 0.159762)
(-0.000232104 9.08392e-05 0.0517171)
(-0.00224627 0.000429119 0.154927)
(0.00118954 0.00182482 0.0385157)
(-0.000288913 0.00195776 0.0558279)
(-0.00121849 0.000676288 0.128108)
(-0.000216965 0.000322576 0.164578)
(0.00360275 0.00075377 0.111823)
(0.00042989 0.00011172 0.181866)
(0.00206262 -6.61363e-05 0.0944463)
(-0.000130487 -0.00254273 0.0538094)
(-0.000773663 -0.00126974 0.162123)
(0.00202907 9.74028e-05 0.0887646)
(-0.000524188 -0.000875722 0.0427197)
(-0.000506211 0.00134022 0.0483428)
(-0.00268858 0.00237586 0.0955364)
(0.000150298 -0.000247862 0.177414)
(-0.00154032 0.00196962 0.0946821)
(-0.000874981 0.00157238 0.0886903)
(-0.00113956 -0.000504021 0.167918)
(-2.79084e-05 0.00232157 0.0883217)
(-0.00111664 -0.00241411 0.0192838)
(0.000772177 0.000266021 0.163741)
(0.00198659 -0.00154863 0.0233904)
(0.00168108 0.000826237 0.0374555)
(-0.00121021 -0.000272058 0.189525)
(-0.000357217 -0.000373155 0.138268)
(-0.00311191 0.00162677 0.0233014)
(-5.90089e-05 -0.000958229 0.118078)
(-0.00139967 -0.00208743 0.121386)
(-0.00278748 0.00025087 0.16883)
(1.57847e-05 -0.000487605 0.188152)
(0.00184509 -0.00193677 0.0221873)
(0.000234821 0.000724761 0.188167)
(4.66843e-05 8.30546e-05 0.194821)
(-0.000521068 -0.000562867 0.178885)
(-0.00110152 0.000568835 0.134135)
(-0.000802253 0.000357102 0.137259)
(-0.000342143 -0.000465003 0.0917889)
(0.000223029 -0.000649082 0.175143)
(-4.28133e-07 0.00151662 0.0260511)
(-0.000199388 -0.000477563 0.163776)
(0.000111362 0.000684743 0.138906)
(-0.000228671 0.000419918 0.193346)
(-0.00094846 0.000836228 0.174547)
(0.000383682 -0.000654092 0.114634)
(0.000958343 -0.00119259 0.0555147)
(-0.000635236 -0.00136371 0.0212345)
(0.00064571 0.000407945 0.0262083)
(-0.00158099 0.000279528 0.165093)
(-0.00269762 0.00109358 0.01876)
(-0.000804831 -0.000792456 0.0603011)
(-0.000909093 0.00279959 0.0490179)
(-0.000804702 -0.000884817 0.172154)
(-0.00056423 -0.00010144 0.179305)
(-0.000600097 0.000815764 0.155543)
(0.00101878 0.000826916 0.0558024)
(0.00297659 7.981e-05 0.100014)
(3.09761e-05 0.00402957 0.0373065)
(0.000208076 -0.00167183 0.0538467)
(-0.00025769 0.000790025 0.160671)
(0.000359399 -0.00127001 0.0946173)
(-0.012738 -0.00153049 0.107732)
(0.000291415 -0.00214112 0.0874058)
(-0.000396655 -6.82244e-05 0.0400259)
(0.00214836 -0.000185886 0.0606153)
(-0.000715788 -0.00176394 0.105376)
(-0.000437514 -8.2413e-05 0.182147)
(0.000458969 -0.00118123 0.19191)
(-0.000584406 0.00111002 0.193553)
(0.00013231 0.00156527 0.163702)
(-0.00600526 -0.000580218 0.0969376)
(-0.00106099 -0.000252453 0.124978)
(-0.00112321 0.0001817 0.170993)
(0.000754378 0.000249611 0.163337)
(0.00125487 0.000357492 0.166381)
(-0.00276662 -0.00217448 0.0543466)
(0.00257186 -0.00112334 0.0207845)
(0.00139369 0.000196608 0.15112)
(0.00105404 0.00251095 0.0367579)
(2.84996e-05 -6.86203e-05 0.0293607)
(-0.002031 -0.000140537 0.164259)
(0.000337938 -0.000142013 0.144907)
(-0.00208051 0.00255199 0.0595866)
(-0.000359447 -0.000583676 0.179293)
(0.000420427 0.000568976 0.16949)
(-0.000391886 -0.000310942 0.19151)
(-0.00136885 -1.58897e-05 0.179753)
(-6.84444e-05 -0.00147611 0.0304974)
(-0.000387961 0.000187455 0.160898)
(-0.000757653 0.000138945 0.184621)
(0.00033832 0.000781315 0.0543227)
(-0.000194362 -0.000981147 0.190277)
(-4.97401e-05 0.000182275 0.18232)
(0.000795448 0.000485485 0.129721)
(0.000520533 0.000914681 0.121143)
(-0.00050795 -0.00203061 0.153491)
(0.00045052 0.00101805 0.142933)
(-0.000293745 0.000217992 0.0665141)
(-0.000597365 0.0014583 0.029657)
(0.000347525 0.00243752 0.0326007)
(0.000450019 -0.000373998 0.0912101)
(-0.0126132 -6.66304e-05 0.0862565)
(-0.00735683 0.000762379 0.0746072)
(0.000430416 -0.000410943 0.0793808)
(0.0014939 -0.00131438 0.111945)
(-0.00106368 0.000654203 0.130518)
(-0.0045181 0.000163086 0.159647)
(0.000351489 0.00130731 0.158)
(-0.000511995 -0.00096863 0.13036)
(6.56334e-05 -0.00052497 0.149446)
(-0.000926541 -2.04252e-05 0.150232)
(-0.000450704 0.000887787 0.0293517)
(-0.0226215 0.000817728 0.113929)
(0.000444766 0.00136914 0.0549882)
(-0.000885512 0.00148569 0.0384401)
(0.000853674 0.000322757 0.0388499)
(0.000142031 0.000770165 0.164129)
(-0.000473909 0.000302525 0.0907245)
(-0.00128171 0.000474852 0.162542)
(-0.00117328 0.00143641 0.0183675)
(0.000276376 -0.000350624 0.124286)
(0.00107766 -0.000669456 0.041584)
(-0.000105213 0.000129787 0.168917)
(-0.00051846 0.00060537 0.0448169)
(0.00153084 0.000733688 0.0592551)
(0.00063076 0.00279546 0.102007)
(-0.00155379 -0.000471011 0.151945)
(0.00239919 -0.000238612 0.0180862)
(-0.000129714 0.00213474 0.0514372)
(4.49413e-05 -0.000531809 0.13173)
(9.00261e-05 -0.00220459 0.0215199)
(-0.00963886 -0.000281775 0.130884)
(0.000557271 -0.00267431 0.113132)
(-0.000526334 -0.00216396 0.130157)
(0.00224468 -0.00276411 0.0912668)
(0.00229422 0.000784051 0.0846035)
(0.000547155 0.000125875 0.164525)
(-0.0101933 -0.00323114 0.0771931)
(-0.000127382 4.13004e-05 0.191827)
(-0.012478 0.000849457 0.111394)
(-0.00214662 0.00155015 0.0563372)
(-0.000284004 0.0013952 0.0594722)
(0.000326963 -0.000122334 0.186916)
(0.000315583 -6.21432e-05 0.18566)
(0.000587867 -0.000512513 0.0493738)
(-0.000461796 -0.000488175 0.131087)
(-0.00212601 0.000681553 0.0937044)
(-0.000258158 -0.000470681 0.188371)
(0.0004486 -0.000907488 0.187447)
(-0.00101329 -0.00335981 0.0426058)
(-0.000354399 0.00107693 0.13066)
(0.0024944 -0.000303126 0.145422)
(-0.000972073 -0.000265513 0.147988)
(0.000240733 -0.000967353 0.157911)
(0.00229218 -0.00121856 0.0199949)
(-0.00255393 -0.000656859 0.0196408)
(-0.00142484 0.00135024 0.124919)
(-0.000173432 -6.5653e-05 0.182333)
(0.000838969 0.00100967 0.190039)
(-0.00215703 0.00115891 0.0321406)
(0.00141207 -0.00077737 0.174017)
(-0.0013676 -0.0002978 0.103412)
(0.000158314 0.000271886 0.18305)
(-0.000890933 0.00100933 0.183187)
(0.000104184 -0.000646155 0.190011)
(1.19111e-05 -0.00102603 0.178926)
(-0.000504579 -0.00171165 0.17726)
(0.000287669 -0.000545058 0.0847845)
(-0.000546598 0.000469228 0.187023)
(-0.00169296 0.00205951 0.0529163)
(-0.000434279 0.000444084 0.17124)
(-0.000911771 -0.000653727 0.105546)
(-0.00104173 -0.000459293 0.154952)
(-0.000339831 5.69551e-05 0.181925)
(-0.000218378 0.000385454 0.148901)
(0.00108669 -0.00102561 0.145446)
(0.00161361 0.00247028 0.0375)
(0.000870798 -5.47193e-05 0.0315027)
(-0.00178024 -0.00183232 0.0194896)
(-0.00869936 7.10358e-05 0.153361)
(0.000233089 -0.000249159 0.196232)
(-0.00084897 0.000281272 0.139438)
(-0.000166808 -0.000872993 0.124017)
(0.00107193 0.000239448 0.0285806)
(0.000647305 -0.00244647 0.0218891)
(-0.000425296 -0.00174421 0.110867)
(-0.000793898 0.00119234 0.154666)
(-0.000459407 -0.000506263 0.182481)
(0.000651584 -0.000126248 0.155259)
(-0.00126682 0.000290216 0.133457)
(-0.000146055 -0.000109849 0.196291)
(0.001268 0.00030651 0.13272)
(-0.000999993 0.0021105 0.0244689)
(0.0002712 0.000909289 0.120128)
(0.00249725 -0.00138376 0.0536929)
(-0.00716106 -0.000786342 0.070482)
(-0.00047582 0.000653058 0.156101)
(0.000437551 -0.000427437 0.0893416)
(-1.03004e-05 0.000256453 0.146837)
(-0.0032033 0.0020439 0.0188822)
(-0.000116344 -0.000692871 0.186665)
(5.94625e-05 0.000329208 0.188507)
(-0.000455299 -0.000637592 0.185236)
(0.000574469 -0.000654734 0.0876339)
(0.000717547 -0.0019158 0.154714)
(-0.000402588 -0.000164527 0.179386)
(-0.000268629 0.000538759 0.118798)
(-0.000330592 -2.6779e-05 0.191144)
(-0.00532682 -0.000504223 0.0975939)
(-0.000383272 0.000127443 0.175726)
(-0.00260167 0.00126608 0.148805)
(0.00137022 -0.00120817 0.0190229)
(-0.000429377 -0.000456694 0.186374)
(0.00144761 0.00190082 0.114232)
(-0.00278805 -0.00258057 0.042983)
(-0.00102818 0.00143667 0.0874871)
(-0.000307704 0.000409483 0.17198)
(-0.000155087 -0.00129774 0.126124)
(0.000842052 0.00208221 0.0800911)
(-0.0020482 0.00145089 0.0187534)
(-0.000419426 -0.000383565 0.180185)
(0.000549589 0.00249056 0.122229)
(-0.000695405 -8.45134e-05 0.163398)
(-0.000773564 -0.000215807 0.121597)
(-0.00207799 0.000614187 0.0340938)
(0.000159674 -4.76372e-05 0.140698)
(-0.00390363 0.000318333 0.0257064)
(4.0133e-05 0.000794057 0.166007)
(-0.0119537 0.000600966 0.102281)
(0.00166165 0.000418039 0.173063)
(-0.000183402 0.00170557 0.0479383)
(-0.00133627 0.00148674 0.102311)
(-1.62644e-05 0.0011647 0.0911252)
(0.00187494 -0.00158271 0.0321426)
(0.000148152 -0.000309284 0.19435)
(-0.000125972 -0.000503932 0.179223)
(-0.00192204 -0.00076247 0.0200056)
(-0.000600227 0.000222916 0.165862)
(-0.000592412 0.000325771 0.19356)
(-0.000556167 0.00204579 0.0342913)
(0.00146076 0.0020985 0.0577378)
(-0.00130672 0.00186893 0.0502216)
(-0.000798812 -0.000394008 0.155775)
(0.000472237 -0.000584643 0.187661)
(-0.00122818 0.00120593 0.0324144)
(0.00157501 -0.000744137 0.0497573)
(-0.000180108 0.00102396 0.0527096)
(0.00124986 0.00111196 0.111785)
(-3.36695e-05 -0.000748489 0.19005)
(-0.00248504 -0.0017432 0.0215408)
(0.000911199 0.00035881 0.16104)
(-0.00412549 -0.000733263 0.151951)
(0.00010102 -0.000842457 0.187509)
(-0.00234852 -0.00483045 0.0900999)
(-6.01784e-05 0.000337757 0.171913)
(0.00104361 -0.0020395 0.0208723)
(-0.00164562 -0.000347937 0.165957)
(0.00014231 -0.000327602 0.0250293)
(-0.000375867 -0.00174964 0.0584624)
(-7.11865e-05 0.00118215 0.154987)
(-0.00103133 0.00146027 0.0563676)
(-0.00250089 0.00148362 0.018683)
(0.000347168 -0.00120941 0.0338609)
(0.000466934 0.00274566 0.0416415)
(0.000761619 -0.00178748 0.0547988)
(-0.00115798 -0.000210061 0.145715)
(3.52588e-05 0.00109577 0.0466226)
(0.00108129 -0.00170054 0.0553707)
(-0.0155376 0.000623113 0.128246)
(-0.000270993 -2.08694e-05 0.175716)
(0.00143626 2.2489e-05 0.0219826)
(0.000178142 0.00118731 0.103636)
(-0.00851348 -0.00431204 0.0812666)
(-0.000106392 0.000423806 0.177002)
(-0.00116247 0.000814313 0.0553085)
(-0.00080569 -0.000547359 0.171057)
(0.00120051 0.00243803 0.0534611)
(-0.000636712 0.000842326 0.120465)
(-0.000942623 0.000956643 0.18393)
(0.00239444 -0.00401681 0.0470421)
(0.000222247 -0.0002327 0.181168)
(-0.00319957 -0.000792444 0.0474995)
(0.00238549 -0.00150496 0.0174049)
(-0.000361716 0.000744049 0.146372)
(-0.00024671 0.000391268 0.18789)
(-0.00099932 0.000632128 0.127254)
(0.000612664 -0.00179149 0.12242)
(0.000859008 0.000258937 0.186901)
(0.0017177 -0.000222469 0.056658)
(0.000797958 -0.000198275 0.172155)
(0.00107844 0.00262122 0.053447)
(-0.000227277 -6.06446e-05 0.180716)
(0.00166061 0.000920873 0.123577)
(-0.00299692 -0.00201455 0.0256577)
(-0.00129063 0.000250865 0.154858)
(0.0010182 -0.00113589 0.0482638)
(0.00113263 0.00219405 0.0238415)
(-0.00149701 0.000652218 0.147654)
(-0.0015347 7.64188e-05 0.0397825)
(-3.38735e-05 -0.000227532 0.13683)
(-0.000299621 0.000815448 0.188823)
(1.84859e-06 0.000216106 0.12969)
(8.83752e-05 0.00334529 0.0502386)
(0.000691273 0.00028798 0.186523)
(0.00183477 0.000333985 0.0855727)
(-2.62881e-05 8.90541e-05 0.194618)
(-0.00043608 0.00020243 0.187398)
(-0.000681653 0.0010649 0.188769)
(-0.000956335 0.000495123 0.187076)
(0.00282438 -0.00109364 0.0406709)
(0.000273649 0.000434735 0.047942)
(0.000841172 0.000270828 0.184732)
(0.000584736 -0.00158458 0.164248)
(0.00051512 0.00228956 0.028857)
(0.000700663 -0.000169396 0.164625)
(3.32773e-05 0.000467531 0.187865)
(-6.90785e-05 0.000401023 0.182868)
(0.000187143 0.000548293 0.189682)
(-0.00191305 0.000577168 0.112314)
(-0.00149422 0.00214855 0.019528)
(0.000499868 3.16302e-05 0.183501)
(0.000683704 -0.00119427 0.0961)
(-0.000541369 0.00146934 0.153243)
(-0.000124997 0.000395756 0.0916727)
(-0.00156089 -0.00103505 0.0265034)
(-0.000105753 -0.000247629 0.190751)
(-0.00212587 0.00266168 0.0871448)
(-0.000255303 -0.000203904 0.130979)
(3.86429e-05 0.000166824 0.193557)
(-0.00052791 0.00159568 0.140216)
(0.00139448 0.00188993 0.0157285)
(-0.00208362 0.000998156 0.019987)
(-8.58517e-05 0.000743396 0.183783)
(0.00134361 -0.000345869 0.173521)
(-0.00120162 0.000285687 0.194294)
(-0.000824983 -0.0010866 0.15451)
(-0.000318507 0.00148625 0.0877311)
(-0.000480221 0.00108707 0.149408)
(5.18046e-05 0.00107284 0.182416)
(0.000649251 0.0015465 0.0183448)
(-0.000509743 0.000783345 0.1868)
(-0.0151438 0.000872272 0.135033)
(-5.42154e-05 0.00192263 0.0339227)
(-0.000372488 0.00332688 0.0510171)
(-0.000659557 0.000726579 0.143286)
(0.00152727 -0.000789208 0.139531)
(-7.08256e-06 -0.000475839 0.136225)
(0.000647858 -0.00057028 0.120532)
(-0.00289843 0.00212317 0.0999149)
(0.000744407 7.92558e-05 0.193298)
(0.000634617 -0.00305417 0.0934568)
(0.000164525 -0.000305137 0.181536)
(9.60154e-05 0.000729301 0.177017)
(-0.000157093 -0.000206644 0.193943)
(-9.25302e-05 -9.1696e-05 0.182265)
(0.00151533 0.00103209 0.0364343)
(-0.000178304 -2.87372e-05 0.167322)
(-0.000253856 -0.00150107 0.0294418)
(-0.01058 -0.00143379 0.0944326)
(0.00195668 -0.00138606 0.0554217)
(-0.0133216 -7.6087e-05 0.12724)
(0.000606401 0.000796267 0.127938)
(-0.0195361 0.000456486 0.117478)
(8.38663e-05 0.000727207 0.176549)
(-0.000721696 2.39754e-05 0.18074)
(-0.00187576 0.000187523 0.15523)
(-4.52287e-05 0.000336757 0.177137)
(-0.000606355 -0.000203623 0.0302182)
(-0.00455654 0.000140454 0.100941)
(-0.0161089 0.00112972 0.112495)
(-0.000148228 -0.000201277 0.184533)
(-0.000813121 0.00210918 0.107695)
(-0.0143716 0.000917779 0.136956)
(-0.00606458 0.000108229 0.157279)
(0.00051346 0.00116662 0.106736)
(-0.00124753 -0.000470753 0.0318603)
(0.00130533 0.00244855 0.0495249)
(-0.000191499 -0.000119749 0.0219371)
(0.00115725 0.00108186 0.0206708)
(-0.000145884 3.56265e-06 0.0311532)
(-0.0112235 0.000261844 0.133633)
(-0.000777869 -0.000774546 0.137637)
(-0.00199067 -0.00225162 0.0209866)
(-0.00252301 0.000682189 0.0199565)
(0.000164239 -0.000153515 0.195907)
(-0.0149126 0.00327844 0.0961459)
(-0.00151845 0.00015967 0.0335426)
(-0.000729313 8.19959e-06 0.147353)
(-0.00147994 0.00101072 0.101016)
(0.00121234 -0.000455159 0.131949)
(0.00121117 0.00186533 0.0376576)
(-0.00102783 -0.00130816 0.0501894)
(0.000161534 0.00123433 0.107035)
(0.000927184 0.000164156 0.17509)
(0.000579685 0.000422655 0.152911)
(-0.00165916 0.00224322 0.0317289)
(-0.000521729 -0.00186844 0.021423)
(-0.0189033 0.000199921 0.106235)
(-0.00237732 0.00180541 0.0228859)
(-0.000273177 0.00119037 0.132536)
(-0.00307949 -0.00100048 0.0239062)
(0.00046666 0.00210558 0.0996596)
(-0.00140085 6.87733e-05 0.183692)
(0.00119131 0.000260034 0.181835)
(-0.000308097 -0.000865214 0.0390975)
(0.000950779 -0.000430181 0.0935966)
(-0.00177307 -0.000214902 0.0317342)
(-0.00312379 -0.000214951 0.0249203)
(-0.000405062 -0.00070371 0.185014)
(-0.0023059 0.00114875 0.0167952)
(0.000642169 0.000196713 0.170114)
(-0.000295319 -0.00227201 0.043014)
(-0.000250387 0.00135672 0.156397)
(-0.000225048 0.000815784 0.140197)
(0.00288535 0.00115642 0.019326)
(-0.00104066 -0.00241528 0.051897)
(0.00016299 0.000878503 0.148631)
(-0.00013446 0.00150062 0.030542)
(0.000544612 0.000650836 0.163258)
(-0.00122095 0.00340419 0.048952)
(0.000106992 9.53309e-05 0.10345)
(8.75371e-05 -0.000206577 0.189379)
(0.00116184 -4.67398e-05 0.032452)
(-0.00278088 -0.000577512 0.0210095)
(-0.000940831 -0.000348326 0.0452655)
(-0.0177736 9.55624e-05 0.110797)
(-0.00062314 -3.32132e-05 0.0993294)
(1.05034e-05 0.00344371 0.0507499)
(0.00105435 -0.000265051 0.079307)
(0.000385096 0.00111951 0.0269629)
(0.000338815 -4.34663e-05 0.191141)
(0.000999769 0.00134408 0.0209421)
(-0.000932303 0.00018936 0.172247)
(-4.57208e-05 -0.00035434 0.143528)
(-0.000654482 -9.74336e-05 0.171355)
(-0.00167901 -0.000173137 0.0171805)
(9.12269e-05 -0.000597437 0.151424)
(-0.00102212 0.000477389 0.078938)
(-0.000124045 -2.13174e-05 0.159262)
(0.000205259 0.000600525 0.0493893)
(-0.0146132 0.000392153 0.108168)
(-0.00127311 0.000357459 0.160476)
(0.000578656 -9.54207e-05 0.0353625)
(-0.000563307 -2.78899e-05 0.196261)
(-0.0204577 0.00237827 0.108871)
(-0.000708365 -0.000433342 0.114898)
(-0.000681721 -0.00164149 0.0293019)
(-0.00116282 0.00226607 0.0452755)
(-0.000148258 0.000267768 0.188417)
(0.00120504 -0.000875542 0.129863)
(-0.00101408 0.00119088 0.0284511)
(-0.00015639 -0.00220307 0.106196)
(0.00133651 0.00115415 0.0557083)
(-0.00145941 0.00173816 0.0216734)
(-0.000403162 1.30549e-05 0.184318)
(-0.0100953 0.00048802 0.103344)
(-0.000954774 -0.00212126 0.127991)
(-6.57912e-05 0.000606724 0.177238)
(0.000666811 0.000800332 0.182257)
(-4.24885e-05 3.36111e-05 0.173086)
(0.000801714 -0.000408363 0.130145)
(0.000988029 0.000340437 0.0389665)
(-0.000459787 0.00238753 0.0357971)
(-0.000394076 0.000799583 0.187379)
(-0.0127909 -0.000550275 0.107584)
(0.000171466 0.00101936 0.117546)
(0.00139987 -0.00134351 0.125023)
(0.00185695 -0.000935719 0.0762679)
(-0.000586925 0.00156434 0.147963)
(0.000707905 0.000894064 0.165465)
(-0.000910075 -0.000983808 0.0944154)
(-0.00159555 0.00101753 0.0994392)
(-0.00139425 0.0019031 0.0353428)
(-0.000455097 -0.000286958 0.0665062)
(-0.00239693 -0.00184908 0.0384156)
(0.000997459 -0.000881727 0.151959)
(0.000535866 -0.000447055 0.179366)
(-0.000899337 0.00269195 0.0892163)
(4.34968e-06 -0.00101716 0.094271)
(0.00107305 -0.00162558 0.0186893)
(0.000234378 -0.000714735 0.0738982)
(-0.00259565 -0.00122947 0.0528986)
(-0.0010324 0.000246569 0.180334)
(0.000699041 0.000315776 0.1835)
(-0.0112894 -0.000730233 0.104824)
(-0.000953605 0.000617121 0.165414)
(-0.00144159 0.00256197 0.0768658)
(-0.00832873 0.000380108 0.101709)
(0.000685731 -0.00201618 0.130609)
(0.0015638 0.000789969 0.0229002)
(0.000293531 -0.000357537 0.183509)
(-0.000157907 0.0012685 0.0453429)
(-0.00134219 -0.000185744 0.138444)
(0.00317769 -0.0016595 0.0250734)
(0.000688028 -0.000306163 0.178777)
(-0.00506933 -0.00029157 0.101647)
(-0.000786093 1.71723e-05 0.159279)
(0.000544104 -0.000434577 0.111158)
(-0.000751232 0.000910938 0.146222)
(0.000171084 0.00144198 0.149607)
(-0.000413047 -0.000171971 0.191511)
(0.000199676 0.00192219 0.0309022)
(-6.66917e-05 -0.00107612 0.042778)
(-0.00028755 0.00063776 0.0257477)
(-0.000299509 0.000973465 0.182369)
(0.00037821 -4.92944e-07 0.158813)
(0.00129311 0.000875478 0.134705)
(0.00073982 -0.0013503 0.160838)
(0.000211694 -0.000565541 0.0188334)
(0.000125343 0.000333308 0.0935018)
(0.00158036 -0.00144351 0.0843207)
(-0.000676642 -0.000228944 0.181303)
(-0.000931822 -1.57512e-05 0.124022)
(5.40371e-05 -0.000530709 0.145306)
(-0.00126444 0.000396634 0.101893)
(-0.000302119 -0.000167116 0.18715)
(-0.00250651 0.00182226 0.0185457)
(0.000333583 0.00331433 0.0805336)
(-0.000757576 0.000469481 0.153135)
(-0.000174827 0.0027922 0.0231527)
(0.00037698 0.00204678 0.0406975)
(-0.00101292 -0.000421863 0.0569252)
(-0.00215308 -0.000935703 0.0192118)
(0.00135121 -1.00807e-05 0.090089)
(-0.00013978 0.000469242 0.171999)
(-0.000664536 0.00218193 0.0561867)
(0.00206114 0.00181877 0.0170006)
(-0.000382218 -0.000788387 0.0994935)
(0.000363747 9.55748e-05 0.0232191)
(-5.93587e-06 0.00134101 0.0936712)
(-0.000255124 0.000165103 0.178708)
(-0.000171114 2.60971e-05 0.195165)
(1.84972e-05 -0.000243329 0.177835)
(0.000521649 0.000697153 0.165965)
(-0.000319132 -0.000151275 0.180336)
(-0.00101762 0.00215227 0.127613)
(0.000884444 -0.00103044 0.0423795)
(0.000393964 -0.000529912 0.180975)
(9.41897e-05 -0.00106002 0.120518)
(-0.000831426 -0.00153722 0.0834383)
(-0.00151285 -0.000561375 0.0918683)
(-0.000562164 -0.00011252 0.166296)
(-0.00129716 0.000647307 0.111447)
(0.000852902 0.00133678 0.0605068)
(-0.00120256 -0.00105798 0.155403)
(0.000385989 -0.00118687 0.0300504)
(0.000480655 0.000344992 0.0823589)
(0.000275753 -0.00016043 0.0915487)
(-0.000727193 0.000675567 0.0563383)
(-0.000158191 -0.000288708 0.162099)
(-0.0184075 -0.000497405 0.106009)
(-0.00969189 0.000375385 0.127228)
(-0.00055644 0.00255777 0.0292151)
(0.00165776 -0.000257031 0.0237933)
(-0.000126242 0.00223378 0.0518224)
(0.00184699 -0.000403025 0.0183505)
(-0.000528469 0.000619325 0.124106)
(0.000805808 0.00112097 0.155135)
(-0.00122582 0.0012796 0.125851)
(-0.015343 0.00120034 0.110211)
(-0.000121312 -0.000244747 0.132314)
(0.000786892 0.000595143 0.147077)
(0.00385636 0.00278409 0.0227275)
(-5.0226e-05 0.000899847 0.15897)
(-0.0131347 -0.000368117 0.127565)
(-0.00124381 -0.000352644 0.0400965)