/*--------------------------------*- C++ -*----------------------------------*\
| =========                 |                                                 |
| \\      /  F ield         | OpenFOAM: The Open Source CFD Toolbox           |
|  \\    /   O peration     | Version:  2406                                  |
|   \\  /    A nd           | Website:  www.openfoam.com                      |
|    \\/     M anipulation  |                                                 |
\*---------------------------------------------------------------------------*/
FoamFile
{
    version     2.0;
    format      ascii;
    arch        "LSB;label=32;scalar=64";
    class       volVectorField;
    location    "66";
    object      momentum:angularMomentum;
}
// * * * * * * * * * * * * * * * * * * * * * * * * * * * * * * * * * * * * * //

dimensions      [1 1 -1 0 0 0 0];

internalField   nonuniform List<vector> 
59516
(
(-2.3565e-09 -1.49359e-09 2.22811e-07)
(5.97391e-10 -3.7242e-10 1.64019e-07)
(-9.33692e-10 9.45563e-10 2.01144e-07)
(-2.88196e-09 -5.71837e-10 1.71715e-07)
(-8.01801e-09 5.28174e-10 1.99985e-07)
(-5.20282e-09 2.76862e-09 5.03649e-08)
(-4.5377e-09 -2.72717e-09 2.09137e-07)
(-6.00463e-10 -1.05527e-09 1.91217e-07)
(-1.21524e-09 2.09531e-10 1.54658e-07)
(2.90861e-09 1.60135e-09 7.62505e-08)
(-3.4348e-09 -3.53681e-10 2.08445e-07)
(-5.15103e-09 -3.78847e-09 1.01535e-07)
(-2.41432e-09 -2.12249e-09 3.1692e-07)
(4.22006e-11 -1.67511e-10 1.53756e-08)
(6.08635e-10 -8.8202e-09 1.45947e-07)
(-2.37594e-09 5.73499e-09 8.19364e-08)
(-4.94271e-09 -9.24741e-10 2.70302e-07)
(-1.30775e-08 -3.61348e-09 1.59724e-07)
(-1.74192e-08 -3.44408e-09 3.29726e-07)
(-4.35698e-09 1.21605e-09 3.74249e-07)
(-2.67441e-09 1.24492e-09 9.93634e-08)
(8.36545e-10 1.98704e-09 3.17275e-07)
(-6.85625e-09 -1.58423e-09 3.51249e-07)
(8.77917e-10 5.95543e-10 3.33547e-08)
(-3.06848e-10 1.41498e-09 3.13595e-07)
(-5.04215e-10 4.88825e-09 1.94015e-07)
(-6.11863e-10 3.62938e-09 5.02131e-08)
(-5.84941e-09 -2.46798e-09 7.40278e-08)
(-5.96237e-09 -1.91248e-09 1.44292e-07)
(1.58024e-09 1.30154e-09 1.27758e-08)
(-3.7611e-08 2.10475e-09 1.89464e-07)
(-5.42366e-09 4.16709e-09 8.36717e-08)
(-9.16136e-10 -5.34413e-10 1.73118e-07)
(-2.92913e-09 -1.794e-09 1.72833e-07)
(-6.52525e-09 -1.42379e-12 1.3367e-07)
(-1.57009e-09 4.85579e-10 3.99517e-07)
(-1.86436e-09 9.74639e-10 1.23983e-08)
(-1.3064e-08 -4.15183e-09 1.31643e-07)
(-1.09414e-08 1.09899e-09 2.66369e-07)
(-2.69884e-10 1.469e-09 2.84435e-07)
(-1.53857e-10 -1.50129e-09 2.52011e-07)
(-3.31623e-08 -1.22581e-10 4.06994e-07)
(-1.25079e-08 2.30736e-09 3.43335e-07)
(-6.74199e-10 3.41845e-10 1.0812e-07)
(-1.03899e-08 1.2817e-09 2.64673e-07)
(2.55235e-09 7.13634e-10 9.89302e-08)
(-1.3601e-08 3.46328e-10 3.24319e-07)
(-8.43888e-09 9.84578e-10 2.55052e-07)
(-3.43117e-08 3.12109e-09 2.51867e-07)
(-1.40271e-08 5.43741e-10 2.41319e-07)
(-2.81933e-08 8.17226e-10 1.63915e-07)
(-7.03685e-09 -3.37274e-09 7.32655e-08)
(1.09448e-09 -6.59478e-09 3.10755e-07)
(-7.53588e-10 1.16783e-09 2.95873e-07)
(-5.10696e-09 1.33195e-09 8.20185e-08)
(-6.13223e-09 1.11706e-09 2.45986e-07)
(-1.67637e-08 9.93095e-11 2.03478e-07)
(-7.38703e-09 -2.77311e-09 7.3532e-08)
(-3.91953e-10 2.38957e-10 2.14999e-07)
(-1.12154e-08 -3.51747e-10 1.45874e-07)
(-6.87849e-10 4.36084e-10 2.09006e-07)
(-1.15122e-09 1.58069e-09 1.46002e-08)
(-1.44672e-09 -2.35923e-10 2.74264e-07)
(-7.72161e-09 -1.4225e-10 3.44878e-07)
(-1.66828e-09 1.36084e-09 2.84434e-07)
(-1.01295e-08 1.71884e-10 2.1557e-07)
(1.33297e-10 1.96065e-09 1.725e-08)
(-2.1026e-10 5.27972e-10 6.39139e-08)
(-3.72066e-08 6.29806e-10 1.98343e-07)
(-4.71524e-09 -1.02519e-09 1.68889e-07)
(-8.23582e-10 -1.15198e-09 4.98197e-08)
(-2.66211e-09 -7.52153e-10 1.58791e-07)
(3.3914e-09 -1.36338e-09 2.2243e-08)
(-2.51627e-09 -5.5315e-10 1.86245e-07)
(-1.18557e-09 -9.07405e-10 3.94284e-07)
(-1.00301e-08 4.80567e-10 3.60725e-07)
(-6.73491e-09 1.65241e-10 2.15253e-07)
(8.51967e-10 5.01234e-11 2.26975e-07)
(3.2831e-09 1.72493e-09 8.1354e-08)
(-1.09821e-08 9.37066e-10 1.93369e-07)
(-3.3062e-09 2.73582e-12 4.8263e-08)
(-8.95524e-09 5.03882e-10 1.71618e-07)
(-8.43648e-09 4.99058e-10 1.82951e-07)
(-2.20599e-09 1.20627e-09 1.7324e-08)
(-1.095e-08 1.15918e-09 2.15323e-07)
(-2.21045e-09 1.81542e-09 3.88549e-07)
(6.01445e-10 1.0654e-09 3.03203e-08)
(-2.76306e-09 3.00035e-10 5.0169e-07)
(-3.8391e-09 -2.00591e-09 1.06816e-07)
(-1.55527e-08 -3.87567e-09 1.66757e-07)
(-1.61311e-08 -3.9643e-11 1.83366e-07)
(-1.17094e-09 1.52337e-09 1.89695e-07)
(-1.13232e-09 -2.15345e-11 2.66675e-07)
(-1.44564e-11 1.24544e-09 1.82314e-07)
(8.856e-11 -1.05459e-10 1.87241e-07)
(-1.87498e-08 -1.1724e-10 1.83415e-07)
(-3.2457e-10 -2.89075e-10 1.24036e-07)
(3.46535e-09 6.29795e-09 8.16079e-08)
(-4.43565e-09 -1.7572e-09 1.15035e-07)
(2.37726e-09 1.44633e-09 2.07924e-07)
(-2.00647e-09 1.3916e-09 5.98558e-08)
(2.75711e-09 1.46199e-09 2.50855e-08)
(2.77738e-09 1.4489e-09 2.21622e-08)
(-3.14221e-09 3.50053e-09 8.19515e-08)
(1.44429e-09 -1.5417e-11 2.31899e-07)
(1.89125e-10 -7.92024e-10 1.64981e-07)
(2.4779e-09 -4.40827e-09 5.29458e-08)
(-1.01832e-09 -4.541e-10 1.34531e-07)
(-3.30929e-10 1.21809e-09 1.71369e-07)
(-3.94832e-09 6.24404e-09 1.82292e-07)
(-4.20646e-08 -5.39446e-10 2.80325e-07)
(3.06503e-09 -2.95591e-09 4.1309e-08)
(-7.19784e-09 9.1978e-09 1.81033e-07)
(-3.62292e-08 -9.40789e-11 2.19233e-07)
(-3.20583e-10 2.05937e-10 2.23261e-07)
(1.51477e-09 -1.64256e-09 1.33224e-07)
(-3.95171e-09 -2.59579e-09 1.21979e-07)
(-3.48484e-10 -6.59291e-10 1.42759e-07)
(-3.10261e-10 -8.28111e-10 1.75171e-08)
(-1.44429e-09 1.47594e-09 2.62783e-07)
(1.61139e-10 -1.50363e-10 4.37106e-07)
(-3.75228e-10 6.30418e-10 1.81959e-07)
(8.0109e-10 1.5514e-10 1.60375e-07)
(-3.65071e-10 2.90208e-10 1.88823e-07)
(-1.81123e-08 1.15329e-09 1.33089e-07)
(-5.35582e-09 1.78884e-10 1.43607e-07)
(-2.10384e-09 -1.02891e-09 3.43132e-08)
(-2.10312e-08 3.15987e-09 2.12296e-07)
(-2.37428e-08 5.59452e-09 1.63212e-07)
(-1.69016e-11 -2.68483e-10 1.67005e-07)
(-3.35504e-10 -1.7765e-10 2.99764e-07)
(4.94935e-09 5.60363e-09 3.1744e-07)
(-4.81727e-10 -1.90423e-09 2.15696e-08)
(-4.21572e-10 9.57739e-10 2.5424e-07)
(3.1468e-09 1.07083e-09 3.08387e-07)
(-3.5496e-09 1.66261e-09 1.925e-07)
(-2.20197e-08 1.98294e-09 1.51777e-07)
(2.59289e-10 1.14462e-09 3.08326e-07)
(-4.90139e-10 3.41732e-09 4.96857e-08)
(-1.94649e-09 1.38776e-09 1.56628e-07)
(-1.7404e-09 3.65541e-09 7.33615e-08)
(-4.43496e-10 -8.1724e-10 3.48481e-07)
(-6.06969e-10 -1.12484e-09 1.32287e-08)
(-7.77657e-10 1.11535e-09 1.48427e-07)
(-1.94361e-09 -3.29724e-11 2.23072e-07)
(-4.79552e-09 1.39203e-09 2.83954e-07)
(-8.54551e-09 1.92856e-09 2.02716e-07)
(-6.18832e-09 2.3174e-09 2.04229e-07)
(9.76174e-10 -1.81768e-09 6.40332e-08)
(-9.6058e-10 2.01873e-09 2.03571e-07)
(-1.46036e-09 -2.85633e-09 3.13801e-07)
(2.19488e-10 1.90099e-09 4.96923e-08)
(1.9855e-09 2.35526e-09 3.92772e-07)
(-1.80047e-10 -2.21108e-11 2.18912e-07)
(-1.81739e-09 -3.54952e-09 1.55206e-07)
(-1.2857e-09 7.88098e-10 1.38694e-08)
(-1.13732e-09 -9.47479e-10 2.71956e-07)
(-4.78821e-09 2.32041e-09 3.25272e-07)
(-2.11259e-09 8.50931e-10 1.26312e-07)
(-2.14758e-09 -1.51594e-09 1.49194e-08)
(3.45223e-09 3.40201e-09 8.66456e-08)
(5.86265e-09 -3.49187e-09 1.08869e-07)
(-6.56661e-10 1.43053e-09 3.79146e-08)
(-2.01705e-10 -4.01403e-10 2.12462e-08)
(4.94893e-09 1.76168e-10 1.58339e-07)
(-1.986e-09 -1.06271e-10 3.39661e-07)
(2.38042e-09 -1.69831e-10 1.5076e-07)
(-2.05575e-09 -5.95912e-10 2.93267e-07)
(9.44435e-10 1.93707e-09 1.6646e-08)
(3.971e-10 -8.8924e-10 2.15297e-07)
(-1.56498e-09 -1.20047e-09 8.48335e-08)
(-1.21491e-09 8.12092e-10 6.48718e-08)
(-2.4959e-10 -2.98491e-09 1.01981e-07)
(-1.4349e-10 -5.85829e-10 1.5032e-07)
(6.62465e-10 1.01928e-09 8.15974e-08)
(-1.96413e-08 -1.84273e-09 4.52762e-07)
(-1.2023e-09 5.13324e-10 2.55357e-07)
(-1.45276e-08 1.11497e-09 3.10065e-07)
(8.22107e-10 -6.83567e-09 1.44313e-07)
(6.68789e-10 4.87347e-10 5.92529e-08)
(-3.58139e-09 -4.45316e-09 3.07949e-07)
(1.08151e-09 3.86042e-09 4.07301e-08)
(-9.8059e-10 -1.99901e-09 2.81723e-08)
(8.7592e-10 2.28055e-09 1.00969e-07)
(-4.19397e-10 -1.11777e-09 2.15807e-07)
(-5.90919e-10 1.10016e-09 9.39288e-08)
(-3.46073e-09 6.22354e-10 4.40799e-08)
(1.25301e-10 2.29528e-10 1.92109e-08)
(-6.58154e-10 8.42984e-11 1.88344e-07)
(3.34871e-09 1.7456e-09 2.19977e-07)
(-3.09332e-09 -1.39083e-10 1.58832e-07)
(-2.22048e-09 -6.42481e-09 1.10212e-07)
(-1.99651e-09 -6.70575e-10 2.18381e-07)
(2.46854e-09 -2.01062e-09 9.02545e-08)
(-2.19899e-09 -8.40099e-11 3.39805e-07)
(3.99291e-10 6.84327e-10 2.75765e-08)
(1.23435e-09 4.8082e-10 9.29506e-08)
(4.43977e-10 -1.54733e-09 5.38932e-08)
(-7.80163e-09 2.80483e-11 1.80725e-07)
(6.39194e-10 -1.37274e-09 2.66643e-07)
(-1.52585e-09 -2.20157e-09 7.5114e-08)
(-2.75081e-10 -3.60051e-10 2.07367e-07)
(3.186e-10 3.42916e-09 3.03643e-07)
(1.27623e-09 -1.52324e-09 1.51383e-08)
(8.22893e-10 1.41388e-09 2.16774e-07)
(-8.2133e-10 -6.95799e-10 2.38969e-07)
(-1.10336e-09 -5.17819e-10 3.66281e-07)
(2.06847e-09 -1.05687e-09 2.02699e-07)
(1.84491e-10 -5.68162e-10 1.73281e-08)
(4.7744e-09 2.86305e-09 2.9596e-07)
(-6.5518e-10 5.49726e-09 5.81345e-08)
(-4.10467e-09 8.38763e-10 2.50577e-08)
(-1.46611e-09 2.01409e-09 2.31073e-07)
(-5.87336e-10 2.28552e-09 9.07989e-08)
(-2.46643e-09 -3.15276e-09 2.87482e-07)
(7.09389e-10 -2.23265e-10 2.97102e-07)
(-3.62854e-09 9.64214e-10 2.72876e-07)
(-1.61437e-09 1.27414e-09 2.09207e-07)
(-2.51339e-09 4.70912e-09 7.92995e-08)
(1.10377e-09 -2.0542e-10 2.20688e-07)
(-1.85134e-09 -5.66585e-09 1.13487e-07)
(-9.07406e-10 5.02449e-10 1.92298e-07)
(-1.03384e-09 -1.06715e-09 1.84913e-07)
(6.49995e-10 -9.52585e-10 6.97147e-08)
(7.77208e-10 -3.57274e-10 3.0843e-07)
(7.83653e-10 2.41898e-10 3.23166e-07)
(-1.07044e-09 -1.16877e-09 3.04695e-08)
(-3.47209e-09 7.91368e-10 6.22849e-08)
(1.4555e-10 1.10462e-09 2.07039e-07)
(-4.53776e-09 7.44866e-09 1.13037e-07)
(5.33138e-11 8.62248e-10 2.50157e-07)
(-4.92581e-10 3.47842e-10 1.87349e-07)
(-1.67229e-09 -7.9221e-10 3.44236e-07)
(-1.21516e-09 -2.10132e-09 2.5328e-08)
(-1.19996e-09 -1.07138e-09 2.96501e-08)
(-1.70245e-09 -4.143e-11 3.71468e-08)
(-2.41832e-10 -6.58777e-10 1.04645e-07)
(-2.35691e-09 -3.56172e-10 1.69072e-07)
(-4.68352e-09 1.13924e-09 4.2686e-07)
(2.93979e-09 -5.09747e-10 8.29987e-08)
(5.19026e-10 4.87646e-10 2.70204e-07)
(2.14434e-09 1.52185e-09 1.7679e-08)
(1.43317e-09 1.09672e-09 1.0541e-07)
(2.38593e-09 1.49698e-09 2.53342e-08)
(4.36449e-10 4.91548e-10 1.75118e-07)
(-8.71756e-10 -5.17474e-10 1.47598e-07)
(-1.8557e-09 3.88716e-10 1.98041e-07)
(-2.62436e-09 4.4131e-09 1.79733e-07)
(-1.19298e-09 -6.97883e-10 2.85574e-07)
(-1.3512e-09 -5.02494e-10 1.95178e-07)
(-7.35279e-10 -3.15559e-10 3.90037e-07)
(-1.31103e-09 1.41039e-11 2.12756e-07)
(8.50263e-10 2.31444e-10 2.08883e-07)
(5.22884e-10 2.76337e-09 2.82682e-07)
(-2.30741e-09 2.56927e-09 2.84165e-07)
(-2.13511e-09 1.1059e-09 3.05221e-07)
(-4.80469e-10 1.88042e-10 1.07057e-07)
(-4.16323e-09 7.95329e-10 2.87141e-07)
(2.35738e-09 3.61636e-09 7.63292e-08)
(-4.82967e-10 3.27273e-09 9.33257e-08)
(-2.04858e-09 1.137e-09 2.15379e-07)
(-3.53251e-10 5.25201e-10 2.67957e-07)
(7.52562e-09 1.57452e-09 2.33583e-07)
(7.07452e-10 1.83853e-10 2.99289e-07)
(1.56915e-09 -5.03137e-11 7.18508e-08)
(-2.48252e-10 -4.83755e-09 1.02372e-07)
(-1.48196e-09 -2.4322e-09 3.10549e-07)
(4.75375e-09 2.28198e-10 2.0796e-07)
(-7.13914e-10 -1.19268e-09 5.81818e-08)
(-7.46057e-10 1.97523e-09 7.1248e-08)
(-4.59893e-09 4.06401e-09 1.63419e-07)
(1.65419e-10 -2.72799e-10 1.95263e-07)
(-4.86071e-09 6.21542e-09 2.98783e-07)
(-1.41926e-09 2.55047e-09 1.4386e-07)
(-2.32887e-09 -1.03005e-09 3.43167e-07)
(-5.7813e-11 4.8092e-09 1.82961e-07)
(-1.05575e-09 -2.28246e-09 1.82323e-08)
(1.42843e-09 4.92104e-10 3.02899e-07)
(2.29822e-09 -1.79156e-09 2.70596e-08)
(2.22696e-09 1.09453e-09 4.96179e-08)
(-2.42843e-09 -5.45917e-10 3.80304e-07)
(-6.41249e-10 -6.69859e-10 2.48209e-07)
(-3.52006e-09 1.84013e-09 2.63575e-08)
(-1.45959e-10 -2.37019e-09 2.92068e-07)
(-2.77566e-09 -4.13956e-09 2.4072e-07)
(-4.18375e-09 3.76532e-10 2.53397e-07)
(2.90681e-11 -8.97945e-10 3.46491e-07)
(1.81655e-09 -1.90681e-09 2.18441e-08)
(3.7457e-10 1.15608e-09 3.00151e-07)
(3.89069e-11 6.9218e-11 1.62365e-07)
(-4.87799e-10 -5.26929e-10 1.67464e-07)
(-2.0618e-09 1.06473e-09 2.5107e-07)
(-9.95233e-10 4.43003e-10 1.70276e-07)
(-6.38363e-10 -8.67593e-10 1.71258e-07)
(3.48336e-10 -1.01377e-09 2.73546e-07)
(-5.9968e-13 2.12431e-09 3.64894e-08)
(-3.54196e-10 -8.48353e-10 2.90935e-07)
(1.5195e-10 9.34308e-10 1.89532e-07)
(-4.63411e-10 8.50979e-10 3.91822e-07)
(-1.521e-09 1.34102e-09 2.79912e-07)
(1.01608e-09 -1.73219e-09 3.03578e-07)
(2.23777e-09 -2.78474e-09 1.29629e-07)
(-5.56621e-10 -1.19494e-09 1.86066e-08)
(8.19236e-10 5.17575e-10 3.32514e-08)
(-4.93409e-09 8.72377e-10 5.15237e-07)
(-2.44114e-09 9.89607e-10 1.69763e-08)
(-2.21733e-09 -2.18324e-09 1.66131e-07)
(-1.29736e-09 3.99529e-09 6.99533e-08)
(-1.51736e-09 -1.66842e-09 3.24617e-07)
(-1.21781e-09 -2.18944e-10 3.87005e-07)
(-1.22062e-09 1.6593e-09 3.1638e-07)
(2.14732e-09 1.74291e-09 1.17616e-07)
(8.54463e-09 2.29103e-10 2.871e-07)
(5.30543e-11 6.90164e-09 6.38968e-08)
(3.33521e-10 -2.67975e-09 8.63101e-08)
(-3.27763e-10 1.00486e-09 2.04363e-07)
(5.72746e-10 -2.02391e-09 1.50784e-07)
(-3.18611e-08 -3.82816e-09 2.69465e-07)
(6.22253e-10 -4.57189e-09 1.86636e-07)
(-6.00504e-10 -1.03286e-10 6.0596e-08)
(3.47846e-09 -3.00973e-10 9.81436e-08)
(-1.37206e-09 -3.38122e-09 2.01991e-07)
(-5.41246e-10 -1.01953e-10 2.25333e-07)
(1.0753e-09 -2.76747e-09 4.49619e-07)
(-7.29721e-10 1.38602e-09 2.4168e-07)
(4.00066e-10 4.73292e-09 4.94986e-07)
(-1.03198e-08 -9.97079e-10 1.66583e-07)
(-2.81852e-09 -6.70641e-10 3.32004e-07)
(-1.88e-09 3.04125e-10 2.86204e-07)
(9.25577e-10 3.06258e-10 2.00405e-07)
(2.59418e-09 7.39039e-10 3.43958e-07)
(-5.11305e-09 -4.01872e-09 1.00439e-07)
(2.70432e-09 -1.18119e-09 2.1855e-08)
(2.72457e-09 3.84355e-10 2.95428e-07)
(1.56625e-09 3.73114e-09 5.46204e-08)
(2.5659e-11 -6.17807e-11 2.64342e-08)
(-4.97268e-09 -3.44088e-10 4.0217e-07)
(4.62614e-10 -1.94406e-10 1.98368e-07)
(-3.70572e-09 4.54549e-09 1.06133e-07)
(-5.31714e-10 -8.63406e-10 2.65221e-07)
(8.29546e-10 1.12265e-09 3.34422e-07)
(-9.25407e-10 -7.34264e-10 4.52235e-07)
(-2.11854e-09 -2.4592e-11 2.782e-07)
(-6.5948e-11 -1.42227e-09 2.9385e-08)
(-7.69358e-10 3.7174e-10 3.19074e-07)
(-9.47643e-10 1.73787e-10 2.30917e-07)
(5.83521e-10 1.34758e-09 9.36938e-08)
(-3.21749e-10 -1.6242e-09 3.14987e-07)
(-7.21526e-11 2.64407e-10 2.64471e-07)
(1.04907e-09 6.40279e-10 1.71081e-07)
(8.44671e-10 1.48426e-09 1.9658e-07)
(-9.23738e-10 -3.69279e-09 2.79132e-07)
(6.32207e-10 1.42862e-09 2.00575e-07)
(-3.28562e-10 2.4383e-10 7.43977e-08)
(-3.81491e-10 9.31304e-10 1.89396e-08)
(3.94385e-10 2.7662e-09 3.69966e-08)
(1.04225e-09 -8.66182e-10 2.11244e-07)
(-3.91696e-08 -2.06916e-10 2.67864e-07)
(-1.14179e-08 1.18322e-09 1.15791e-07)
(5.7645e-10 -5.50372e-10 1.06314e-07)
(3.2218e-09 -2.83466e-09 2.41426e-07)
(-2.48983e-09 1.53135e-09 3.05513e-07)
(-6.57708e-09 2.37407e-10 2.32401e-07)
(8.02823e-10 2.98598e-09 3.60882e-07)
(-1.30874e-09 -2.47597e-09 3.33222e-07)
(9.84191e-11 -7.87208e-10 2.24098e-07)
(-8.58134e-10 -1.89172e-11 1.3914e-07)
(-3.45854e-10 6.81255e-10 2.25235e-08)
(-4.78712e-08 1.73046e-09 2.41095e-07)
(6.69385e-10 2.06059e-09 8.27587e-08)
(-1.3811e-09 2.31718e-09 5.99538e-08)
(1.39866e-09 5.28806e-10 6.36516e-08)
(1.52314e-10 8.25928e-10 1.76013e-07)
(-8.75027e-10 5.58582e-10 1.67514e-07)
(-1.88217e-09 6.97315e-10 2.3869e-07)
(-1.0079e-09 1.23395e-09 1.57786e-08)
(3.69882e-10 -4.6925e-10 1.66335e-07)
(1.57489e-09 -9.78337e-10 6.07705e-08)
(-1.19125e-10 1.46949e-10 1.91252e-07)
(-6.04041e-10 7.05296e-10 5.22146e-08)
(3.66708e-09 1.75752e-09 1.41943e-07)
(1.2988e-09 5.75616e-09 2.10043e-07)
(-1.89686e-09 -5.75006e-10 1.85493e-07)
(2.32664e-09 -2.31396e-10 1.75393e-08)
(-2.69824e-10 4.44056e-09 1.06996e-07)
(8.04248e-11 -9.517e-10 2.35737e-07)
(9.80235e-11 -2.40043e-09 2.34316e-08)
(-2.13382e-08 -6.23784e-10 2.89746e-07)
(8.74055e-10 -4.19453e-09 1.77442e-07)
(-1.20946e-09 -4.97255e-09 2.99085e-07)
(4.75017e-09 -5.8494e-09 1.93138e-07)
(2.43742e-09 8.32992e-10 8.98845e-08)
(1.3321e-09 3.06454e-10 4.0055e-07)
(-1.87527e-08 -5.94435e-09 1.42013e-07)
(-2.33413e-10 7.5678e-11 3.515e-07)
(-1.74222e-08 1.18604e-09 1.55532e-07)
(-5.14711e-09 3.7169e-09 1.35084e-07)
(-6.55623e-10 3.22082e-09 1.37291e-07)
(5.01344e-10 -1.87579e-10 2.86605e-07)
(9.60761e-10 -1.89188e-10 5.65224e-07)
(9.04977e-10 -7.88975e-10 7.60072e-08)
(-1.16471e-09 -1.23124e-09 3.30618e-07)
(-2.60377e-09 8.34712e-10 1.14762e-07)
(-6.34549e-10 -1.15693e-09 4.63015e-07)
(8.43743e-10 -1.70684e-09 3.52556e-07)
(-1.56549e-09 -5.19078e-09 6.58244e-08)
(-5.81423e-10 1.7668e-09 2.1436e-07)
(6.53782e-09 -7.94494e-10 3.81152e-07)
(-1.49568e-09 -4.08531e-10 2.27702e-07)
(3.40676e-10 -1.36896e-09 2.23469e-07)
(2.5454e-09 -1.35318e-09 2.22038e-08)
(-2.43499e-09 -6.26267e-10 1.87261e-08)
(-3.30152e-09 3.12865e-09 2.8945e-07)
(-2.8298e-10 -1.07123e-10 2.97504e-07)
(1.03771e-09 1.24885e-09 2.35058e-07)
(-2.26364e-09 1.21619e-09 3.37292e-08)
(7.48608e-10 -4.12123e-10 9.22552e-08)
(-3.88009e-09 -8.44902e-10 2.93394e-07)
(1.53573e-10 2.63744e-10 1.77569e-07)
(-1.5765e-09 1.78601e-09 3.24149e-07)
(1.65942e-10 -1.02918e-09 3.02646e-07)
(1.51237e-11 -1.30276e-09 2.27185e-07)
(-6.85939e-10 -2.32686e-09 2.40973e-07)
(3.96547e-10 -7.51353e-10 1.16874e-07)
(-6.60124e-10 5.66685e-10 2.25867e-07)
(-2.6884e-09 3.27047e-09 8.40303e-08)
(-7.51441e-10 7.68406e-10 2.96299e-07)
(-1.58987e-09 -1.13991e-09 1.84042e-07)
(-1.45796e-09 -6.42807e-10 2.16864e-07)
(-4.32259e-10 7.24458e-11 2.31406e-07)
(-5.11944e-10 9.03622e-10 3.49069e-07)
(1.99557e-09 -1.8834e-09 2.67092e-07)
(2.74996e-09 4.20992e-09 6.39084e-08)
(1.16797e-09 -7.33929e-11 4.22533e-08)
(-1.6667e-09 -1.71546e-09 1.82466e-08)
(-1.31803e-08 1.07625e-10 2.32355e-07)
(3.71707e-10 -3.97334e-10 3.12931e-07)
(-1.65606e-09 5.48669e-10 2.71997e-07)
(-2.55005e-10 -1.33458e-09 1.8959e-07)
(1.05616e-09 2.35925e-10 2.816e-08)
(6.27078e-10 -2.37002e-09 2.12051e-08)
(-6.75693e-10 -2.77113e-09 1.7614e-07)
(-1.20951e-09 1.81654e-09 2.35635e-07)
(-8.19192e-10 -9.02743e-10 3.25391e-07)
(1.34844e-09 -2.61268e-10 3.21307e-07)
(-1.8614e-09 4.26427e-10 1.96094e-07)
(-2.72982e-10 -2.05312e-10 3.66875e-07)
(3.54564e-09 8.57077e-10 3.71118e-07)
(-1.22079e-09 2.57649e-09 2.98716e-08)
(4.05644e-10 1.36005e-09 1.7968e-07)
(3.22222e-09 -1.78547e-09 6.92803e-08)
(-9.91456e-09 -1.0887e-09 9.75829e-08)
(-3.96901e-10 5.44742e-10 1.3021e-07)
(6.73085e-10 -6.57526e-10 1.37434e-07)
(-1.77692e-11 4.42407e-10 2.53309e-07)
(-3.07627e-09 1.96285e-09 1.81334e-08)
(-2.32062e-10 -1.38202e-09 3.72327e-07)
(8.88436e-11 4.91874e-10 2.81651e-07)
(-5.56667e-10 -7.79546e-10 2.26477e-07)
(1.28017e-09 -1.45904e-09 1.95287e-07)
(8.01086e-10 -2.13884e-09 1.72726e-07)
(-6.10509e-10 -2.49499e-10 2.72033e-07)
(-5.48359e-10 1.09978e-09 2.42505e-07)
(-5.59308e-10 -4.53057e-11 3.23385e-07)
(-9.08132e-09 -8.59614e-10 1.66381e-07)
(-6.02114e-10 2.00211e-10 2.76063e-07)
(-5.07349e-09 2.46896e-09 2.90183e-07)
(1.26278e-09 -1.11343e-09 1.75312e-08)
(-7.3916e-10 -7.86186e-10 3.20838e-07)
(2.3845e-09 3.13103e-09 1.88163e-07)
(-4.00435e-09 -3.70634e-09 6.17344e-08)
(-1.96214e-09 2.74168e-09 1.66957e-07)
(-6.32628e-10 8.41883e-10 3.53584e-07)
(-2.70828e-10 -2.26625e-09 2.20251e-07)
(1.19926e-09 2.9655e-09 1.14066e-07)
(-1.87512e-09 1.32828e-09 1.71686e-08)
(-6.18171e-10 -5.65317e-10 2.65566e-07)
(1.48854e-09 6.74558e-09 3.31053e-07)
(-1.02007e-09 -1.2397e-10 2.39684e-07)
(-1.17831e-09 -3.28723e-10 1.85219e-07)
(-3.33149e-09 9.84682e-10 5.46601e-08)
(2.85144e-10 -8.50701e-11 2.51257e-07)
(-4.01217e-09 3.27184e-10 2.64213e-08)
(4.29134e-11 8.49068e-10 1.77507e-07)
(-2.43871e-08 1.22604e-09 2.08665e-07)
(2.52553e-09 6.35373e-10 2.63037e-07)
(-3.21634e-10 2.99108e-09 8.40701e-08)
(-2.3243e-09 2.58602e-09 1.77959e-07)
(-2.00042e-11 1.4325e-09 1.12078e-07)
(2.63638e-09 -2.22546e-09 4.5196e-08)
(3.82584e-10 -7.98688e-10 5.01885e-07)
(-1.55852e-10 -6.23464e-10 2.21735e-07)
(-1.603e-09 -6.35908e-10 1.66849e-08)
(-1.03948e-09 3.86047e-10 2.87241e-07)
(-9.28573e-10 5.10627e-10 3.03395e-07)
(-5.99459e-10 2.20503e-09 3.69606e-08)
(3.10582e-09 4.46177e-09 1.2276e-07)
(-2.47463e-09 3.53932e-09 9.51083e-08)
(-9.87824e-10 -4.87237e-10 1.92634e-07)
(6.91648e-10 -8.56279e-10 2.74852e-07)
(-1.32498e-09 1.30098e-09 3.49692e-08)
(2.73793e-09 -1.29357e-09 8.64957e-08)
(-3.33625e-10 1.89674e-09 9.76372e-08)
(1.92861e-09 1.71582e-09 1.72491e-07)
(-6.33435e-11 -1.40816e-09 3.57546e-07)
(-2.59012e-09 -1.81691e-09 2.24516e-08)
(2.08701e-09 8.21819e-10 3.68847e-07)
(-6.43692e-09 -1.14409e-09 2.37085e-07)
(1.55347e-10 -1.29552e-09 2.88349e-07)
(-2.97658e-09 -6.12225e-09 1.14195e-07)
(-1.18677e-10 6.66088e-10 3.39029e-07)
(1.08748e-09 -2.12524e-09 2.17498e-08)
(-2.96642e-09 -6.27196e-10 2.99155e-07)
(1.49647e-10 -3.4449e-10 2.63196e-08)
(-8.71535e-10 -4.05693e-09 1.35559e-07)
(-1.0438e-10 1.73337e-09 2.27255e-07)
(-2.40741e-09 3.40868e-09 1.31577e-07)
(-2.41447e-09 1.43236e-09 1.80374e-08)
(4.94529e-10 -1.72276e-09 4.82338e-08)
(8.07627e-10 4.74899e-09 7.20247e-08)
(1.76093e-09 -4.13281e-09 1.26699e-07)
(-2.57408e-09 -4.66946e-10 3.2391e-07)
(4.17327e-11 1.29697e-09 5.51831e-08)
(2.56113e-09 -4.02788e-09 1.3115e-07)
(-2.7355e-08 1.09703e-09 2.25785e-07)
(-3.42134e-10 -2.6348e-11 2.21845e-07)
(1.8029e-09 2.82299e-11 2.75942e-08)
(3.81187e-10 2.5406e-09 2.2176e-07)
(-1.5429e-08 -7.8147e-09 1.47279e-07)
(-1.25457e-10 4.9975e-10 2.0872e-07)
(-2.04916e-09 1.43545e-09 9.74963e-08)
(-8.5727e-10 -5.824e-10 1.82008e-07)
(2.29803e-09 4.66689e-09 1.02336e-07)
(-8.40226e-10 1.11156e-09 1.58969e-07)
(-8.61392e-10 8.74204e-10 1.68079e-07)
(3.5111e-09 -5.89008e-09 6.89806e-08)
(3.76001e-10 -3.93685e-10 3.06503e-07)
(-4.78414e-09 -1.1849e-09 7.10234e-08)
(2.00782e-09 -1.2667e-09 1.46494e-08)
(-7.84753e-10 1.61424e-09 3.17559e-07)
(-2.64096e-10 4.1884e-10 2.01131e-07)
(-2.27572e-09 1.43952e-09 2.89791e-07)
(1.12084e-09 -3.27746e-09 2.23961e-07)
(2.24867e-09 6.77832e-10 4.89261e-07)
(4.00381e-09 -5.18556e-10 1.32065e-07)
(1.94711e-09 -4.83814e-10 4.20077e-07)
(1.90828e-09 4.63823e-09 9.45739e-08)
(-1.99237e-10 -5.31626e-11 1.5842e-07)
(4.04893e-09 2.24529e-09 3.01309e-07)
(-3.59627e-09 -2.41743e-09 3.07889e-08)
(-2.53866e-09 4.93451e-10 3.04605e-07)
(2.29959e-09 -2.56538e-09 1.09003e-07)
(1.34763e-09 2.61053e-09 2.83671e-08)
(-2.79235e-09 1.21657e-09 2.75416e-07)
(-2.29755e-09 1.14405e-10 5.95573e-08)
(-5.00154e-11 -3.35959e-10 2.02035e-07)
(-3.7604e-10 1.02343e-09 2.36982e-07)
(5.29573e-12 6.19086e-10 3.71527e-07)
(1.62851e-10 6.16444e-09 9.25757e-08)
(1.12551e-09 4.68879e-10 3.0369e-07)
(3.16164e-09 5.75516e-10 1.47457e-07)
(-4.57404e-11 1.54951e-10 3.38627e-07)
(-7.85719e-10 3.64733e-10 3.37649e-07)
(-1.0824e-09 1.69096e-09 2.99746e-07)
(-9.13765e-10 4.73083e-10 1.78748e-07)
(3.22084e-09 -1.24715e-09 4.63798e-08)
(3.8273e-10 6.08027e-10 6.70525e-08)
(8.60563e-10 2.77072e-10 1.88991e-07)
(1.04072e-09 -2.82025e-09 2.92329e-07)
(4.7844e-10 2.12653e-09 2.68022e-08)
(1.07687e-09 -2.6035e-10 2.53018e-07)
(8.89812e-11 1.25014e-09 5.02336e-07)
(-1.3928e-10 8.08565e-10 3.68709e-07)
(3.97762e-10 1.16537e-09 4.03159e-07)
(-4.13481e-09 1.24747e-09 2.42753e-07)
(-1.46238e-09 2.10277e-09 1.91119e-08)
(6.51645e-10 4.12343e-11 2.39219e-07)
(1.02207e-09 -1.78532e-09 1.43661e-07)
(-9.54219e-10 2.58986e-09 2.70107e-07)
(-2.13077e-10 6.74631e-10 1.56271e-07)
(-1.97438e-09 -1.30924e-09 3.35243e-08)
(-1.26606e-10 -2.96459e-10 2.28364e-07)
(-3.56962e-09 4.46932e-09 1.46328e-07)
(-4.71403e-10 -3.76497e-10 2.41846e-07)
(5.88023e-11 2.53853e-10 2.94533e-07)
(-7.50162e-10 2.26747e-09 1.99247e-07)
(1.14744e-09 1.55513e-09 1.29422e-08)
(-1.97722e-09 9.47185e-10 1.89663e-08)
(-9.35695e-11 8.10224e-10 2.00304e-07)
(2.49683e-09 -6.4273e-10 3.22455e-07)
(-1.55146e-09 3.68861e-10 2.50861e-07)
(-9.96123e-10 -1.31201e-09 1.86562e-07)
(-5.65449e-10 2.63855e-09 1.5575e-07)
(-8.25273e-10 1.86816e-09 2.56763e-07)
(8.68142e-11 1.79786e-09 3.05693e-07)
(6.52378e-10 1.55395e-09 1.84332e-08)
(-4.38345e-10 6.73624e-10 1.60635e-07)
(-1.95348e-08 1.12519e-09 1.74186e-07)
(-6.99299e-11 2.47991e-09 4.37553e-08)
(-5.97967e-10 5.34074e-09 8.18993e-08)
(-1.40642e-09 1.54934e-09 3.0554e-07)
(2.30852e-09 -1.19292e-09 2.10906e-07)
(-1.01941e-11 -6.84885e-10 1.96071e-07)
(1.24431e-09 -1.09531e-09 2.31499e-07)
(-3.9025e-09 2.85869e-09 1.34528e-07)
(1.39981e-09 1.49035e-10 3.63485e-07)
(1.18488e-09 -5.70239e-09 1.74491e-07)
(4.07693e-10 -7.56129e-10 4.49844e-07)
(1.24836e-10 9.4821e-10 2.30151e-07)
(-2.10182e-10 -2.76479e-10 2.59485e-07)
(-1.71322e-10 -1.69777e-10 3.37467e-07)
(1.87962e-09 1.28021e-09 4.51932e-08)
(-5.93341e-10 -9.56288e-11 5.56798e-07)
(-2.73684e-10 -1.61831e-09 3.17414e-08)
(-1.66873e-08 -2.26145e-09 1.48944e-07)
(3.92124e-09 -2.77768e-09 1.11066e-07)
(-1.69233e-08 -9.66581e-11 1.61641e-07)
(1.00003e-09 1.31314e-09 2.10985e-07)
(-4.83559e-08 1.1299e-09 2.90783e-07)
(6.97898e-11 6.05149e-10 1.46916e-07)
(-1.3459e-09 4.47119e-11 3.37064e-07)
(-4.14368e-09 4.14251e-10 3.42913e-07)
(-5.76745e-11 4.29425e-10 2.25881e-07)
(-6.6193e-10 -2.22286e-10 3.29879e-08)
(-5.34844e-09 1.64864e-10 1.18483e-07)
(-3.01151e-08 2.11197e-09 2.10306e-07)
(-1.86535e-10 -2.53293e-10 2.32221e-07)
(-7.38017e-10 1.91436e-09 9.7748e-08)
(-2.29011e-08 1.46248e-09 2.1824e-07)
(-9.22257e-09 1.64587e-10 2.39178e-07)
(1.44755e-09 3.28892e-09 3.0091e-07)
(-1.64348e-09 -6.20161e-10 4.19722e-08)
(1.36032e-09 2.55171e-09 5.16115e-08)
(-2.25093e-10 -1.40756e-10 2.57854e-08)
(1.03456e-09 9.67168e-10 1.84794e-08)
(-1.96705e-10 4.80377e-12 4.2006e-08)
(-1.86114e-08 4.34204e-10 2.21598e-07)
(-1.0312e-09 -1.02679e-09 1.8246e-07)
(-1.66822e-09 -1.8869e-09 1.75871e-08)
(-2.45741e-09 6.64451e-10 1.94376e-08)
(3.27439e-10 -3.06058e-10 3.90573e-07)
(-2.57722e-08 5.66585e-09 1.66161e-07)
(-2.01466e-09 2.11849e-10 4.45041e-08)
(-1.12953e-09 1.26992e-11 2.28215e-07)
(-1.53285e-09 1.04685e-09 1.04628e-07)
(1.84202e-09 -6.91566e-10 2.00483e-07)
(1.35595e-09 2.08831e-09 4.21591e-08)
(-1.8484e-09 -2.35252e-09 9.02578e-08)
(2.83384e-10 2.16543e-09 1.87774e-07)
(1.49962e-09 2.65504e-10 2.83188e-07)
(1.53269e-09 1.1175e-09 4.04296e-07)
(-2.1173e-09 2.86265e-09 4.04903e-08)
(-5.68011e-10 -2.03418e-09 2.33234e-08)
(-3.58749e-08 3.79412e-10 2.01614e-07)
(-2.75605e-09 2.09303e-09 2.6532e-08)
(-6.35793e-10 2.77047e-09 3.08464e-07)
(-3.48789e-09 -1.13316e-09 2.70766e-08)
(6.74441e-10 3.04309e-09 1.44033e-07)
(-2.50819e-09 1.23137e-10 3.28896e-07)
(2.95252e-09 6.44465e-10 4.50658e-07)
(-4.41185e-10 -1.23896e-09 5.59865e-08)
(1.37996e-09 -6.24364e-10 1.35846e-07)
(-2.07465e-09 -2.51455e-10 3.71319e-08)
(-3.44938e-09 -2.37354e-10 2.75177e-08)
(-6.16686e-10 -1.07136e-09 2.81674e-07)
(-1.90399e-09 9.48524e-10 1.38678e-08)
(7.11173e-10 2.17851e-10 1.88394e-07)
(-4.01548e-10 -3.08927e-09 5.84865e-08)
(-5.28915e-10 2.86593e-09 3.30372e-07)
(-3.62786e-10 1.31508e-09 2.26002e-07)
(2.72281e-09 1.09128e-09 1.82374e-08)
(-2.60505e-09 -6.04609e-09 1.29912e-07)
(2.73531e-10 1.47432e-09 2.49434e-07)
(-1.31809e-10 1.47103e-09 2.99399e-08)
(9.95621e-10 1.18981e-09 2.98456e-07)
(-1.90075e-09 5.29958e-09 7.62077e-08)
(2.15864e-10 1.92338e-10 2.08718e-07)
(1.1384e-10 -2.68649e-10 2.46283e-07)
(1.89414e-09 -7.61995e-11 5.29061e-08)
(-2.68574e-09 -5.57755e-10 2.02907e-08)
(-1.83453e-09 -6.79204e-10 8.82635e-08)
(-3.90842e-08 2.10142e-10 2.43644e-07)
(-1.37515e-09 -7.3295e-11 2.192e-07)
(1.53551e-11 5.03441e-09 7.41921e-08)
(2.34854e-09 -5.90395e-10 1.76655e-07)
(3.30684e-10 9.61329e-10 2.31532e-08)
(3.89492e-10 -4.99676e-11 2.1973e-07)
(1.06344e-09 1.42968e-09 2.22759e-08)
(-1.86254e-09 3.78301e-10 3.44112e-07)
(-9.54906e-11 -7.4006e-10 2.99766e-07)
(-8.72309e-10 -1.29862e-10 2.28387e-07)
(-1.34089e-09 -1.3827e-10 1.37206e-08)
(2.07979e-10 -1.36203e-09 3.45215e-07)
(-1.98671e-09 9.27911e-10 1.53433e-07)
(-2.83541e-10 -4.87272e-11 3.64039e-07)
(2.50998e-10 7.3434e-10 6.03948e-08)
(-3.00689e-08 8.06915e-10 2.22572e-07)
(-2.10337e-09 5.90574e-10 2.65129e-07)
(1.02298e-09 -1.6869e-10 6.25158e-08)
(-7.98575e-10 -3.95383e-11 2.7823e-07)
(-3.94731e-08 4.58886e-09 2.10066e-07)
(-1.10469e-09 -6.75795e-10 1.79182e-07)
(-7.28289e-10 -1.75362e-09 3.13035e-08)
(-2.4731e-09 4.81951e-09 9.62928e-08)
(-1.62331e-10 2.93186e-10 2.06302e-07)
(1.99854e-09 -1.45208e-09 2.15376e-07)
(-1.07976e-09 1.26801e-09 3.02938e-08)
(-3.157e-10 -4.44726e-09 2.14374e-07)
(3.67516e-09 3.17369e-09 1.53187e-07)
(-1.57557e-09 1.8765e-09 2.33985e-08)
(-4.73825e-10 1.5343e-11 2.16624e-07)
(-1.54658e-08 7.47636e-10 1.5832e-07)
(-2.38881e-09 -5.30731e-09 3.20227e-07)
(-7.82023e-11 7.21178e-10 2.10672e-07)
(7.09005e-10 8.50975e-10 1.9379e-07)
(-7.9338e-11 6.27614e-11 3.23201e-07)
(1.55467e-09 -7.91892e-10 2.52375e-07)
(1.70766e-09 5.88393e-10 6.73477e-08)
(-8.86603e-10 4.60385e-09 6.90272e-08)
(-8.45294e-10 1.71511e-09 4.01927e-07)
(-2.67261e-08 -1.14978e-09 2.24792e-07)
(2.9763e-10 1.76941e-09 2.04036e-07)
(2.06811e-09 -1.98484e-09 1.84703e-07)
(2.99369e-09 -1.50852e-09 1.22956e-07)
(-1.28359e-09 3.42119e-09 3.23592e-07)
(8.89356e-10 1.12323e-09 2.07878e-07)
(-1.69674e-09 -1.8342e-09 1.76027e-07)
(-3.51688e-09 2.24282e-09 2.19182e-07)
(-1.69315e-09 2.31109e-09 4.29196e-08)
(-1.12332e-09 -7.08302e-10 1.64158e-07)
(-2.31801e-09 -1.7882e-09 3.71507e-08)
(2.06854e-09 -1.82853e-09 3.15134e-07)
(1.01524e-09 -8.46985e-10 3.39824e-07)
(-1.62361e-09 4.8599e-09 1.61066e-07)
(7.26087e-12 -1.69793e-09 1.57365e-07)
(9.70498e-10 -1.47023e-09 1.69031e-08)
(3.20313e-10 -9.76791e-10 1.00993e-07)
(-3.54484e-09 -1.67906e-09 7.22429e-08)
(-1.58218e-09 3.77873e-10 2.76365e-07)
(9.55154e-10 4.31469e-10 2.5073e-07)
(-2.3755e-08 -1.53655e-09 2.20569e-07)
(-1.8564e-09 1.20136e-09 3.22014e-07)
(-1.49109e-09 2.64994e-09 7.95052e-08)
(-1.11838e-08 5.10406e-10 1.36574e-07)
(1.26837e-09 -3.72925e-09 2.41583e-07)
(1.74633e-09 8.82177e-10 2.55732e-08)
(4.11788e-10 -5.01581e-10 2.57441e-07)
(-1.80153e-10 1.4472e-09 5.17309e-08)
(-1.9963e-09 -2.76264e-10 2.05913e-07)
(3.82242e-09 -1.9962e-09 3.01607e-08)