/*--------------------------------*- C++ -*----------------------------------*\
| =========                 |                                                 |
| \\      /  F ield         | OpenFOAM: The Open Source CFD Toolbox           |
|  \\    /   O peration     | Version:  2406                                  |
|   \\  /    A nd           | Website:  www.openfoam.com                      |
|    \\/     M anipulation  |                                                 |
\*---------------------------------------------------------------------------*/
FoamFile
{
    version     2.0;
    format      ascii;
    arch        "LSB;label=32;scalar=64";
    class       volScalarField;
    location    "66";
    object      nut;
}
// * * * * * * * * * * * * * * * * * * * * * * * * * * * * * * * * * * * * * //

dimensions      [0 2 -1 0 0 0 0];

internalField   nonuniform List<scalar> 
59516
(
2.15805e-06
1.10285e-05
6.99016e-09
8.28938e-08
0.00108504
0.000186194
5.51521e-09
2.82264e-06
2.37506e-07
6.88754e-05
0.000337199
5.80251e-05
4.32688e-07
0.000146692
6.1472e-05
5.72932e-05
1.0004e-05
9.15477e-05
1.24969e-05
1.15927e-08
0.000131971
5.15265e-14
2.59665e-08
0.000118176
2.60162e-16
4.93939e-05
0.000112495
0.000155086
7.05394e-05
0.000125368
0.000242105
0.000146687
9.34767e-12
7.16064e-07
1.35267e-05
4.78911e-12
0.000122429
8.31704e-05
1.68728e-05
2.2813e-13
2.0933e-06
0.000158649
1.28754e-05
5.4635e-06
8.38476e-07
5.62902e-05
3.56164e-06
7.45508e-05
0.000861296
5.798e-05
0.000623635
0.000105425
6.52104e-09
4.62643e-09
0.000135483
2.72249e-06
0.000238788
0.000121025
1.03732e-08
2.29401e-05
2.60653e-11
0.000132437
7.02464e-09
7.73557e-06
9.24265e-07
3.69636e-06
0.000174555
0.000106302
0.000423689
3.59703e-08
0.000190143
6.80537e-08
0.000154941
7.81959e-11
9.95578e-07
1.0648e-05
4.75824e-05
2.72415e-12
0.000101533
4.84484e-05
0.000109005
1.82963e-05
7.06051e-06
0.000142523
2.19767e-05
1.43032e-06
0.000109702
1.8561e-13
5.6968e-05
4.84428e-05
0.0005268
6.23601e-10
5.87428e-09
1.33337e-09
4.16467e-09
0.00108651
2.74451e-10
5.51919e-05
7.22648e-05
6.82857e-12
0.00012483
0.000155554
0.000152671
5.65014e-05
2.04378e-11
7.28014e-10
0.000116509
6.44933e-07
4.47203e-06
5.80131e-05
0.000242909
0.000165152
6.13688e-05
0.000153447
9.90704e-11
3.21712e-06
5.63726e-05
6.04844e-10
0.000141055
1.77734e-12
2.70658e-06
5.40861e-08
2.69555e-13
2.03093e-08
0.000231829
2.06038e-05
0.000170225
0.000103865
0.000280982
4.58386e-07
1.04252e-06
9.21277e-07
0.000135986
1.18497e-15
6.94294e-06
2.14954e-08
0.0001116
4.06408e-15
0.000115554
1.14417e-05
0.000107827
7.80572e-08
0.000121038
1.68785e-10
1.28471e-06
1.87287e-13
1.82387e-06
8.20465e-07
0.000251054
1.60106e-06
8.99248e-06
0.000106093
3.13869e-11
5.82603e-13
9.66659e-06
0.000133006
5.46761e-07
1.21832e-07
1.48004e-05
0.000135487
6.12494e-05
5.88638e-05
0.000113841
0.000160747
3.72036e-06
1.35133e-08
5.53016e-05
2.8751e-07
0.000128321
2.10154e-08
1.40302e-05
5.65017e-05
4.03929e-05
7.1018e-15
9.20575e-05
6.44161e-06
1.00812e-08
2.46164e-05
5.55908e-05
9.46379e-05
8.39505e-14
0.000109943
0.000181755
4.35683e-05
1.60712e-07
5.36875e-05
9.23057e-05
0.000131563
4.02408e-08
6.21813e-06
2.63893e-08
5.76255e-05
1.3861e-09
4.08608e-05
1.99165e-14
9.48701e-05
5.34906e-05
9.42076e-05
3.534e-06
2.12519e-14
2.46171e-05
6.24486e-07
3.47694e-06
0.000124545
1.41049e-10
2.67618e-12
1.10292e-06
4.56819e-09
0.000137072
1.90616e-06
6.69873e-05
0.000176529
2.39803e-12
6.18713e-05
4.74528e-07
5.23138e-09
5.18344e-13
2.7503e-15
6.18842e-05
4.38217e-13
6.42704e-05
8.91655e-06
2.9785e-09
0.000126454
2.26688e-08
5.37689e-08
0.000160312
0.000106483
4.45747e-08
5.94408e-05
2.10298e-09
8.98656e-08
1.99646e-06
0.000147202
0.000107762
9.37554e-05
4.56083e-05
1.24205e-06
5.08731e-11
6.7142e-05
1.58506e-06
0.000144592
5.23897e-05
0.000158993
1.25086e-06
8.19717e-06
5.11391e-10
5.81745e-05
1.26166e-10
1.82191e-06
2.43492e-13
3.69759e-10
3.31118e-06
2.13961e-11
1.35673e-11
2.133e-11
6.92657e-05
1.55144e-11
0.000104858
5.75009e-05
5.96336e-10
3.1022e-10
1.77149e-06
4.26007e-08
2.46191e-06
5.02448e-05
1.67385e-09
9.98749e-06
0.00013047
5.37142e-05
1.21756e-05
5.3217e-08
4.43938e-06
1.08023e-05
2.59855e-10
9.13624e-06
0.000130668
2.70249e-11
0.000145506
0.000105377
1.52667e-06
1.0054e-12
0.000163801
3.2948e-07
2.31475e-09
4.28447e-06
5.65434e-07
0.000164612
2.23848e-06
1.05703e-05
1.03037e-07
1.14322e-10
4.0149e-10
7.78861e-06
9.07202e-10
0.000172554
1.97414e-09
2.38876e-15
3.58164e-06
1.71369e-07
8.06487e-09
4.97341e-05
0.000141127
0.000149001
7.55909e-14
0.000141941
9.03139e-05
6.72932e-05
5.48723e-09
6.87155e-09
3.91426e-16
5.00754e-05
3.93946e-06
0.000118932
6.05123e-05
4.03302e-09
7.01811e-06
0.00108021
1.31998e-05
0.00010108
6.32509e-05
2.99255e-06
2.5595e-07
1.28044e-06
6.00966e-06
2.91715e-12
2.94824e-05
1.01854e-08
4.57293e-09
1.01051e-10
1.1609e-12
5.36778e-05
0.000149968
1.51039e-11
0.000101454
0.000110736
1.91169e-10
3.85719e-15
6.33839e-05
7.26574e-08
8.01435e-12
1.14094e-06
4.94325e-08
9.8227e-05
2.91239e-13
8.89546e-07
5.64314e-05
1.27979e-06
3.04525e-07
1.39825e-08
7.44187e-08
6.77024e-11
4.81332e-16
2.21409e-05
0.000114364
0.000116352
9.07399e-06
0.000142799
0.000263562
1.45575e-05
1.60579e-06
2.7386e-08
0.000229301
3.38712e-13
8.71467e-12
6.55183e-13
1.05433e-11
0.000117097
0.000287666
6.43602e-05
0.000101379
0.000110546
3.75328e-10
1.0245e-05
1.29066e-10
0.000129966
1.11776e-09
0.000111827
2.1846e-08
5.15859e-05
4.92737e-05
6.44329e-07
0.000360681
0.000150453
5.91296e-05
3.01772e-12
0.000140513
2.4748e-05
6.59184e-07
2.17037e-13
1.31343e-05
1.22197e-05
1.42161e-10
0.000127946
9.04315e-07
9.72897e-05
5.97545e-05
5.8517e-05
2.92531e-07
9.94446e-08
5.03455e-05
1.77128e-10
4.52492e-06
5.60532e-07
3.39977e-07
0.000114092
3.13749e-08
2.6645e-12
6.13756e-14
4.95953e-13
0.000153027
0.000144597
2.11395e-10
6.47652e-08
1.86057e-06
0.000110969
2.2614e-08
1.57989e-06
4.08892e-07
1.82448e-07
1.02846e-06
5.71484e-08
2.59316e-08
5.31102e-06
5.46671e-07
5.68629e-05
5.74642e-09
2.48088e-06
9.91824e-12
3.66793e-07
1.3965e-14
3.24732e-11
9.69869e-05
0.000111228
0.000133655
0.000167605
8.15839e-07
1.84988e-11
2.20647e-08
0.000100408
0.000142976
3.26127e-07
1.99757e-11
1.6659e-07
1.48224e-13
1.59631e-12
3.82637e-06
1.83131e-13
0.000158122
6.85036e-08
5.24851e-05
0.000254342
1.00447e-09
1.01476e-05
4.37289e-12
0.000144324
3.14969e-07
2.01303e-06
5.50527e-07
6.69011e-06
2.14817e-11
5.95119e-08
4.55476e-07
2.20014e-06
1.7327e-05
3.25849e-08
7.4299e-15
0.000134768
5.45585e-07
1.67373e-07
0.000108392
4.35586e-06
2.65755e-09
6.50343e-10
1.74937e-05
0.0001396
4.09584e-08
1.90345e-10
1.03515e-10
9.93621e-10
9.56314e-05
6.56796e-12
0.000173274
8.54398e-09
0.000792521
4.08257e-08
0.000117341
1.06252e-06
3.4902e-06
8.30898e-05
2.24466e-06
4.75648e-07
0.000156637
2.69842e-09
6.15886e-06
0.000125343
5.55737e-05
5.26003e-05
7.64141e-11
1.59476e-06
0.000213839
5.34229e-05
5.13068e-05
6.65656e-08
2.38163e-06
0.000151131
2.70614e-13
6.55114e-09
2.17257e-07
0.000233241
4.8714e-10
0.000137394
6.47525e-09
0.000139384
4.59897e-05
8.84904e-14
5.09523e-05
0.000143475
0.000121127
0.000102911
5.85773e-05
3.17009e-16
5.81572e-05
4.96249e-05
0.000387308
1.26155e-07
0.000155355
1.35934e-06
0.000119346
4.06146e-08
5.89513e-05
1.11181e-07
6.30614e-05
1.63675e-08
6.17772e-07
8.36367e-05
1.87799e-09
0.000148979
0.000131799
1.20117e-14
8.66961e-07
7.46293e-11
9.90829e-09
6.0708e-07
6.4758e-05
2.52597e-09
5.20968e-05
2.50588e-07
1.00977e-07
0.000155168
5.20526e-14
0.000112929
0.00015467
1.52605e-14
9.75679e-05
4.6931e-10
1.59202e-06
7.70288e-09
5.13075e-05
2.12012e-07
1.34623e-05
1.15495e-06
2.95025e-09
7.42916e-07
9.54758e-07
0.000103009
6.24287e-05
1.26926e-07
2.76136e-12
0.000118488
6.25461e-10
9.21342e-08
4.15363e-08
7.61545e-07
9.55965e-08
0.000134634
1.61511e-08
7.35044e-06
6.26049e-11
3.88374e-06
0.000159101
2.4818e-06
1.17748e-05
3.36424e-16
2.70681e-06
9.84937e-13
0.00011008
0.000142563
1.09061e-06
1.86377e-09
3.80926e-06
1.05081e-08
1.09731e-05
2.4945e-12
2.18968e-07
0.000130736
2.66134e-06
0.000151887
0.000119003
5.16922e-05
4.98489e-14
1.81692e-13
6.21011e-13
2.40458e-09
2.85303e-06
5.83297e-06
1.21519e-05
2.81118e-08
3.07767e-08
2.63956e-08
3.02905e-07
0.000126077
3.88988e-10
0.000109857
0.000207498
5.04471e-05
0.000535886
1.9004e-12
0.000159216
3.95362e-07
1.36748e-09
1.57586e-13
3.53374e-08
0.000109
0.00148492
0.000700959
1.20882e-06
1.57819e-07
0.000149278
0.000197013
7.34862e-07
9.92209e-05
4.55457e-05
0.000147025
0.000155043
0.000170827
3.34718e-05
2.02703e-09
0.000150654
0.000145061
5.94435e-06
0.000209335
0.000108027
1.03021e-13
3.90674e-07
1.5104e-11
0.000124794
5.5496e-05
1.70763e-07
6.33461e-08
1.21426e-11
0.00010999
0.000138608
0.000391296
0.000168337
2.21117e-11
0.000157355
4.79393e-06
4.05027e-07
6.03019e-11
0.000101147
4.38172e-06
9.73664e-05
0.000165282
2.80523e-07
0.00012915
4.51941e-09
0.000118533
6.90785e-12
4.85836e-14
0.00013839
5.64542e-05
2.69826e-14
0.000109347
6.5684e-09
6.18578e-05
1.85538e-06
1.24239e-06
0.000106123
0.000144114
0.000106335
0.000667158
1.75511e-06
6.09778e-05
1.02323e-05
0.00010182
1.93714e-06
0.000145708
1.42e-10
1.62707e-18
8.51695e-09
0.00013421
6.01982e-15
1.2555e-05
2.75595e-11
6.5971e-05
0.000881156
9.51838e-14
9.24896e-05
3.99501e-06
0.000486756
5.13505e-09
0.000106859
0.000118663
9.86634e-07
1.92191e-09
0.000107429
4.17986e-07
5.47423e-05
0.000149656
2.2826e-07
0.00124554
1.79644e-13
3.82122e-08
2.53059e-07
1.38171e-08
3.09991e-12
0.00010164
0.000109904
3.64211e-07
0.00098419
5.49446e-08
2.2537e-09
1.89651e-05
1.02214e-13
3.56041e-09
6.74986e-06
1.85095e-06
0.000144268
5.27972e-05
0.000130129
2.20611e-12
1.11914e-07
9.2601e-06
3.58415e-06
0.000127935
1.68552e-05
6.24353e-05
6.34215e-08
4.0245e-07
0.00118148
5.76368e-10
1.26412e-05
0.000839843
3.89292e-09
0.000160364
4.04914e-07
5.98622e-05
3.09009e-12
0.000165426
4.02871e-10
0.001349
4.99351e-12
1.82008e-07
9.35853e-13
3.44536e-13
6.72462e-07
0.000118573
0.000121793
9.49534e-05
7.13415e-07
7.23362e-11
1.27352e-09
4.72574e-14
0.000124069
1.35505e-05
1.27589e-05
2.28433e-07
1.90333e-09
5.54389e-11
8.3704e-06
1.52286e-06
0.000141823
1.00558e-05
9.06887e-10
0.000157082
9.07931e-05
5.15996e-05
0.000140609
1.69176e-05
2.00482e-09
5.24712e-05
0.000132365
2.21518e-06
0.000146084
1.94763e-06
1.96191e-07
3.88919e-06
1.67822e-07
3.93783e-13
4.68048e-07
1.79703e-08
0.000101893
1.00084e-07
2.14374e-11
1.21808e-05
1.20085e-05
2.64055e-09
1.80649e-07
4.23745e-05
1.14616e-14
0.000111398
1.09825e-05
5.70603e-06
5.98479e-05
5.10621e-13
0.000264252
4.94242e-05
0.000106633
0.000168313
5.05567e-05
0.000133867
1.13151e-09
2.27306e-11
1.54653e-09
8.54897e-05
3.99365e-11
8.22429e-12
0.000147688
2.08192e-10
0.000579804
9.20639e-05
0.000147365
7.43114e-08
1.20544e-06
0.000146958
5.25881e-11
0.000142447
8.42961e-08
2.97466e-11
5.33897e-08
7.97657e-14
2.44362e-06
5.41988e-06
7.19736e-07
0.000130223
0.000113225
3.45955e-06
4.56565e-06
0.000128983
1.34375e-13
0.000311672
9.69814e-08
6.22505e-08
1.95751e-05
6.79215e-11
6.86258e-06
1.17515e-05
0.000118434
2.02677e-08
3.32531e-06
0.00012385
2.31781e-09
1.55006e-06
4.28447e-15
6.87224e-06
5.04235e-11
1.48612e-06
1.30922e-05
2.57893e-06
7.41057e-06
2.43691e-12
4.63005e-05
2.96131e-08
8.32943e-07
0.00155938
1.75856e-16
2.39649e-06
2.04937e-07
0.000124401
9.57944e-05
6.57918e-08
1.77536e-12
8.25391e-12
3.98414e-06
8.95695e-13
2.67851e-06
6.62293e-07
0.000224641
1.47657e-06
5.92119e-07
0.000140035
2.24559e-12
9.53915e-11
0.000109328
3.94977e-11
9.42829e-07
3.20365e-06
6.33163e-07
3.5028e-06
1.55374e-07
5.46801e-05
0.00143823
0.0001206
4.56434e-07
2.60757e-07
0.00015458
7.65451e-05
5.44245e-05
2.66124e-07
9.21143e-05
2.8351e-11
1.64501e-07
2.24373e-08
1.57155e-12
1.50166e-05
0.000119431
6.63431e-11
3.29327e-10
2.95418e-07
1.49781e-05
7.17545e-13
3.26633e-06
9.04428e-07
0.000125975
2.37368e-09
9.07601e-06
1.78458e-05
0.000124143
5.50817e-05
7.88731e-06
3.53874e-07
8.14805e-05
6.2355e-09
1.81813e-10
8.06002e-08
4.98883e-07
1.28679e-09
1.90159e-07
2.9541e-07
1.23135e-06
0.0013992
6.57456e-13
5.93056e-07
0.000117837
5.77172e-05
8.25135e-09
8.43804e-11
0.000116554
4.6799e-09
1.52994e-06
1.0637e-05
1.04588e-05
3.34991e-06
2.17353e-12
7.43482e-06
1.4078e-06
0.000294702
6.75025e-06
2.64176e-06
0.000166238
1.93139e-06
0.000105858
1.24372e-05
6.62396e-08
4.66176e-05
0.000109964
1.77426e-07
5.65182e-09
1.39151e-16
0.000100628
1.24268e-06
0.00010199
9.69835e-06
4.61869e-05
4.50164e-05
7.42205e-06
5.81459e-06
5.56416e-05
2.18588e-11
2.78184e-08
1.34365e-06
3.92886e-06
6.15685e-06
2.47447e-07
1.72765e-06
2.40535e-07
5.39165e-05
3.99209e-06
0.000104324
0.000109853
2.41365e-08
9.20598e-05
0.000178264
1.35304e-06
1.80139e-06
1.15237e-05
0.000225301
0.000150849
1.97051e-09
1.85667e-06
2.20127e-07
0.000161047
0.000134586
7.4518e-06
0.000102649
6.9984e-10
6.26048e-08
4.71882e-06
0.000129729
4.36233e-07
1.82604e-09
0.000127883
8.4907e-06
1.96818e-06
5.39328e-05
4.26137e-09
1.13627e-06
9.02146e-07
6.61688e-10
0.000108487
1.47111e-07
2.56004e-09
1.1269e-07
4.32377e-05
4.89052e-09
9.12262e-06
5.91274e-07
0.000137179
5.68215e-07
1.05628e-05
0.00010847
6.51914e-09
0.000118626
2.01228e-11
2.1932e-06
1.92844e-07
0.000185452
1.53281e-06
9.97995e-06
4.72536e-05
7.42964e-06
1.71593e-10
0.000139169
5.36528e-10
1.05282e-12
4.96058e-05
0.000164866
0.000118285
1.07253e-06
7.21816e-15
2.59149e-07
1.18302e-05
4.65214e-05
1.18856e-11
9.44125e-05
1.61723e-06
2.27374e-06
2.48241e-05
5.84262e-05
7.26189e-15
0.000158762
1.22649e-05
1.33991e-13
2.89099e-06
0.000121389
2.57972e-11
2.36317e-09
0.000154702
4.96412e-10
2.22008e-09
6.76837e-08
1.28702e-05
4.64355e-06
0.000158584
8.86948e-09
3.4079e-15
0.000157566
0.00010278
0.000104977
1.01006e-08
1.17113e-05
3.40259e-09
5.41054e-05
1.39139e-08
0.000145492
1.70169e-12
3.34229e-05
9.10945e-10
1.23972e-06
4.66696e-16
7.82212e-12
0.000106619
0.000109301
5.08325e-12
4.96986e-12
0.000139858
0.000170454
1.79482e-08
3.31311e-16
4.43171e-10
2.73129e-06
3.79866e-13
3.0904e-13
8.22683e-08
5.74273e-05
2.19405e-05
4.96522e-05
1.99876e-13
1.49322e-05
0.000108842
0.000160701
1.27324e-08
9.30832e-07
3.23735e-06
8.91647e-09
1.16188e-09
9.11923e-05
1.39652e-09
4.30713e-07
0.000123845
0.00015691
2.33765e-07
1.03965e-07
0.0001197
0.000124528
3.1127e-08
5.28567e-06
0.000164738
1.92729e-05
4.01865e-08
3.17361e-09
2.7284e-07
1.59694e-11
4.29246e-13
0.000141333
8.90783e-05
8.01736e-07
3.16634e-09
1.49685e-06
2.48796e-10
5.36072e-05
5.73874e-05
0.000105069
1.8285e-05
0.000164291
6.76332e-15
1.59299e-15
7.97382e-06
6.03818e-05
0.000142283
1.94693e-06
1.09496e-07
8.96361e-09
5.09084e-07
2.92258e-06
1.02694e-15
0.000122569
7.07529e-05
0.000241043
1.73059e-06
5.07833e-13
1.91815e-06
5.14954e-05
1.41852e-05
4.986e-08
1.03838e-15
9.98241e-06
9.96293e-15
1.78742e-09
2.61039e-06
5.70147e-05
0.000167946
6.16209e-09
0.000107443
2.55807e-07
1.55798e-08
1.30861e-05
0.000136861
4.22126e-12
4.66554e-05
0.000117077
0.00013392
1.50488e-09
6.95759e-07
3.06935e-08
9.31867e-08
1.38114e-05
1.63879e-06
0.000124394
0.000107472
0.000120975
9.16749e-07
3.02004e-06
9.66409e-12
1.46276e-06
7.4026e-07
3.19871e-09
0.000186871
4.95185e-08
0.000132919
1.07392e-10
1.56581e-06
0.00013532
1.94735e-07
3.74985e-06
7.35275e-11
7.45378e-06
4.41129e-05
9.46186e-05
4.8704e-13
0.000121743
3.98686e-06
1.00331e-05
8.97201e-08
3.14183e-05
0.000106686
0.000181594
0.000115423
6.43722e-08
4.86153e-08
2.16155e-07
6.98642e-05
5.69187e-09
1.4189e-08
2.37479e-10
1.229e-10
9.81617e-05
0.00011571
4.84431e-09
7.96742e-07
5.71789e-05
1.94357e-06
1.1888e-07
1.04588e-09
7.98133e-06
0.000165165
0.000201379
5.62683e-05
4.45801e-12
4.29503e-09
1.10875e-06
0.000134391
9.88596e-05
8.26234e-15
3.44619e-07
5.69462e-05
6.71856e-07
4.2347e-11
5.06595e-10
1.11117e-08
5.28579e-07
2.32027e-11
1.13826e-10
3.83055e-06
3.56988e-07
2.58143e-07
1.46987e-05
4.18248e-05
9.78708e-07
1.7258e-09
0.000114898
5.30652e-05
1.17594e-10
5.91279e-05
2.65385e-16
4.23848e-06
6.32192e-11
4.74364e-12
2.07058e-07
1.119e-08
1.01522e-08
8.19073e-12
9.84312e-05
0.000169204
8.55762e-06
8.87916e-07
0.00013814
1.25276e-05
2.18877e-07
3.87903e-08
7.76099e-12
0.000131431
2.06114e-06
8.57977e-11
1.33467e-05
1.02698e-08
3.96824e-07
0.000151693
2.53152e-08
0.000142634
5.97632e-06
0.000138781
2.85045e-11
4.80634e-16
1.20979e-08
0.000147475
6.16258e-05
8.40664e-06
6.02566e-17
4.98772e-05
5.91174e-05
7.72711e-06
4.7355e-07
0.000116441
4.17357e-07
5.45948e-16
5.51213e-05
5.38523e-05
0.000159881
7.95052e-12
1.4875e-07
6.03873e-17
1.9493e-08
4.4199e-06
4.29476e-06
5.23085e-06
0.000132731
0.000102022
0.000158704
1.4109e-05
2.14316e-06
0.000100009
0.000110979
5.25382e-05
0.000160655
1.18014e-10
0.000159011
1.74346e-08
3.07428e-06
1.77274e-11
5.37533e-05
1.59956e-06
0.000103887
6.2001e-05
1.9725e-06
8.46437e-10
1.50565e-07
0.00171372
1.54345e-08
0.000143944
1.51626e-08
1.23453e-13
5.13243e-07
1.31034e-05
3.73674e-12
1.93501e-08
8.31388e-06
5.95976e-05
0.000104497
1.8497e-06
9.84909e-07
0.000110757
1.18711e-05
4.5961e-14
0.000111449
0.000171598
3.82866e-06
7.87177e-05
6.10067e-05
0.000147729
4.74761e-05
0.000116076
0.000124807
0.000112683
0.000145416
2.09382e-06
1.154e-05
3.9844e-07
0.000134629
4.4962e-09
7.57661e-13
1.50518e-15
1.18198e-06
2.83466e-10
0.000106098
9.90622e-11
0.00140651
1.16983e-05
2.92729e-06
7.27421e-09
0.000126534
4.90716e-07
9.54048e-06
0.000181546
0.000101431
1.06643e-14
6.01173e-06
0.000132152
2.04547e-11
5.61686e-12
4.84582e-07
1.02298e-10
0.00010669
1.35491e-08
1.39338e-05
0.000183051
9.54967e-14
9.05104e-14
8.39648e-08
8.02467e-06
1.18512e-13
6.66853e-11
0.000268955
3.10762e-06
3.0127e-06
2.18447e-07
1.21347e-05
4.59188e-06
1.81699e-11
0.000192004
2.61777e-15
0.000203901
0.000228192
6.39844e-05
2.40505e-12
1.88733e-13
0.000437476
2.36226e-11
1.32402e-06
1.64548e-05
2.68245e-07
0.000152144
0.000158999
0.000220774
5.92858e-05
0.000178074
1.3208e-13
0.000120995
5.08684e-07
0.000103113
0.000139192
3.00537e-06
5.22104e-05
2.52004e-08
3.73958e-10
1.92936e-07
0.000117187
0.000120728
6.80086e-09
1.39877e-10
0.000156216
5.40316e-11
5.31613e-05
9.07191e-06
4.97737e-08
2.7574e-11
3.11442e-07
3.09932e-06
5.64289e-06
1.16817e-05
0.000108809
9.28936e-05
6.44135e-05
0.000100812
1.64846e-06
1.22656e-09
5.64016e-05
5.56308e-05
4.52177e-06
5.44084e-15
5.41865e-13
5.24037e-05
1.77069e-10
0.000134589
7.19402e-05
3.41906e-14
0.000118176
1.21386e-05
9.00679e-06
1.83991e-07
6.86955e-06
2.2359e-10
8.15234e-06
8.67124e-06
3.7328e-10
9.28873e-07
2.97091e-10
0.000149633
0.000117751
3.7649e-07
3.11125e-06
1.64184e-12
7.7333e-06
4.90137e-06
0.000128825
1.72972e-09
2.14195e-09
6.66799e-11
8.01045e-06
0.00012057
5.18364e-05
8.05474e-05
2.18208e-08
4.99116e-05
2.14371e-06
0.000148416
8.0618e-09
0.000112124
1.15398e-05
6.93238e-07
6.11944e-05
2.8371e-14
1.54958e-10
0.00010678
0.00015418
7.58815e-07
0.000187437
4.55276e-10
8.69024e-09
1.25478e-05
2.88118e-12
1.74306e-05
2.68445e-07
0.000150733
2.29296e-06
1.49589e-08
2.24885e-06
0.000127045
2.16218e-11
1.01923e-09
1.2364e-05
3.41766e-10
0.000104086
2.24722e-09
0.000140987
7.84467e-11
4.41941e-08
3.48581e-12
1.0917e-14
0.000105618
0.000143142
0.000108213
1.08562e-07
0.000105228
1.19635e-06
9.94745e-05
3.66913e-07
6.08478e-05
0.000128169
3.43902e-06
2.00383e-11
1.09963e-05
7.89319e-07
7.59161e-08
9.02639e-12
0.000114564
3.43977e-06
0.000169731
4.9347e-05
9.3745e-07
2.83721e-06
7.69129e-09
0.000180841
0.00010454
1.63083e-05
1.0216e-05
7.50266e-12
7.66154e-15
4.07551e-11
0.000121814
8.18718e-17
1.14062e-11
1.02518e-07
6.73641e-05
8.08896e-10
3.03665e-07
9.50543e-09
7.88555e-09
1.92269e-05
5.17137e-05
9.63576e-13
0.000100871
3.36859e-09
9.26431e-06
7.34382e-11
4.54825e-11
9.71385e-12
6.03281e-07
0.000106075
1.26102e-06
5.97066e-05
0.000154529
1.46022e-08
0.000119693
4.84384e-11
0.000145667
0.000112334
5.35249e-05
2.10094e-05
1.29062e-08
8.55165e-05
0.000161158
1.89685e-09
1.3881e-05
1.05343e-08
2.96545e-06
0.000136703
1.13408e-05
0.000115932
9.5304e-07
1.00727e-09
4.89988e-05
2.1204e-10
3.88237e-09
1.85852e-12
1.47202e-09
2.76207e-09
8.139e-14
5.07927e-08
9.82324e-18
0.000167594
0.000151305
1.43515e-13
0.000166737
4.27414e-07
2.37303e-08
1.29712e-05
1.16759e-06
8.78524e-09
0.00011475
4.77031e-06
4.87565e-05
9.04781e-06
0.000112053
1.62784e-11
2.87499e-06
2.56276e-05
3.13198e-06
0.000109048
2.45426e-07
8.60405e-09
1.18879e-05
1.1035e-13
0.000128865
0.000142298
8.48795e-09
5.18926e-08
2.37557e-08
3.74277e-06
0.000146439
4.76825e-06
4.53312e-05
1.86202e-06
2.53369e-09
0.000106438
3.31188e-14
1.7948e-10
0.000114813
0.000177027
3.49972e-06
9.98876e-06
0.000146337
2.41886e-15
0.000118567
0.000160608
1.3787e-05
1.23027e-07
3.41006e-06
1.24495e-11
6.47226e-08
7.11822e-13
8.55809e-07
9.70401e-07
1.31495e-06
1.06608e-08
1.66583e-12
0.000127371
0.000110553
1.71779e-09
3.46279e-08
2.38923e-06
0.000140175
0.000154737
6.05785e-16
0.000164175
1.29687e-12
8.04308e-09
2.83122e-06
0.000109373
5.75035e-05
2.76361e-07
2.73931e-07
8.14138e-12
7.14825e-14
5.17307e-05
0.000170691
6.30192e-08
0.000165078
0.000117685
0.0001021
0.000105632
3.78043e-10
2.33399e-06
6.80886e-15
1.16303e-06
7.35543e-06
5.22951e-06
2.04644e-09
3.73089e-10
5.66674e-05
4.38362e-07
2.07987e-09
2.42374e-09
9.31248e-05
9.41067e-07
0.000165936
1.0484e-05
0.000112199
6.30569e-11
4.37815e-15
0.00116755
0.000136023
8.15959e-06
6.31944e-05
0.000135485
1.50366e-14
0.000136402
5.88785e-05
1.04182e-08
8.18884e-10
1.45655e-06
0.00010092
2.23557e-06
4.96356e-05
7.72711e-07
1.2906e-09
1.56779e-09
4.99153e-08
0.000107705
1.22332e-13
2.90761e-08
2.35818e-06
3.37497e-11
2.93659e-10
3.90928e-11
5.30543e-06
0.00014234
9.97818e-05
3.65856e-07
1.38185e-06
1.36895e-14
8.86597e-05
2.90527e-08
4.95292e-05
2.61605e-10
1.74153e-14
1.19454e-05
6.12845e-05
4.93528e-05
0.000125418
3.0204e-12
2.4672e-19
5.15008e-05
1.83237e-07
0.000129661
3.75246e-12
4.74216e-08
0.000162974
8.41264e-07
1.9592e-07
7.8054e-11
0.000223766
0.000152802
0.000123086
5.62796e-05
4.9448e-05
0.000162677
0.000152101
0.000155974
1.1696e-05
1.59726e-08
1.00229e-09
6.9603e-09
4.28316e-07
0.000141817
1.61823e-11
1.11177e-08
0.000120689
0.000130751
0.000176867
1.41864e-05
0.000175048
1.41216e-11
0.000302541
6.01936e-06
2.09664e-05
9.21983e-05
8.44826e-06
2.18977e-11
1.05961e-06
6.61613e-16
1.11004e-10
1.82204e-08
6.17374e-05
2.43643e-06
3.43999e-13
1.13047e-07
0.000116548
3.20165e-05
1.68266e-06
1.43442e-09
7.74323e-07
3.26887e-07
4.80118e-05
9.93677e-05
0.00015772
6.12868e-06
5.2514e-06
4.65454e-08
9.89482e-09
0.000103138
1.31946e-06
6.03502e-05
2.67263e-06
2.52562e-09
9.46961e-05
0.000113112
5.80861e-07
1.37838e-12
1.70167e-11
8.50113e-11
1.70175e-05
4.61557e-05
7.6083e-17
2.68085e-06
6.77249e-08
5.57022e-13
1.79809e-11
6.52851e-07
1.02343e-05
6.3672e-14
0.000133934
8.43694e-05
0.000160496
3.99122e-06
6.45489e-07
8.46348e-06
4.97155e-05
1.24953e-13
8.36051e-05
4.94603e-05
0.000134875
1.16151e-07
1.47609e-09
4.03083e-10
0.000125754
0.000102694
6.23357e-05
0.00014734
0.00011693
2.76263e-09
3.31961e-08
0.000142882
0.000113423
5.09598e-05
4.72558e-07
1.97276e-08
6.0683e-14
8.22487e-06
7.03252e-13
3.06796e-16
5.30166e-06
0.000106864
3.90545e-06
5.17597e-12
6.51318e-15
4.23716e-08
1.95932e-15
1.97111e-10
2.58008e-05
1.60061e-07
6.41725e-05
0.000345695
4.50705e-11
9.28422e-09
0.000124303
2.81091e-08
0.000150013
3.62613e-14
1.41371e-13
9.09922e-10
2.64497e-09
5.56394e-05
0.000160419
5.64137e-05
2.28015e-06
6.6385e-07
4.51319e-07
4.86028e-10
0.000116356
1.37574e-05
5.28822e-11
2.73249e-08
6.7994e-07
0.000189089
8.72246e-05
1.44846e-06
2.99873e-10
2.76249e-07
2.4478e-08
2.69576e-10
6.82712e-15
2.73483e-15
4.2737e-06
1.84798e-08
5.19372e-07
2.14792e-13
1.12606e-05
0.0001519
0.000134253
1.43597e-05
1.2679e-06
1.94256e-09
1.07415e-08
0.000156536
1.06411e-06
7.60994e-15
6.46324e-09
1.13104e-05
5.27787e-12
2.19838e-16
1.10751e-11
1.08194e-07
9.49314e-07
6.57049e-13
0.000101315
2.69684e-07
5.85095e-12
0.000139295
6.90002e-08
1.01342e-11
4.18371e-12
4.23874e-15
1.17255e-08
0.000107233
3.40264e-09
1.36412e-05
1.87375e-08
1.6045e-05
1.84882e-10
4.27726e-11
1.27697e-05
3.67651e-09
0.000141398
2.57349e-09
0.000107972
0.000115059
5.82422e-15
0.000134882
1.13207e-07
2.61016e-10
2.76828e-09
5.05886e-05
7.29996e-06
0.000142908
1.34188e-13
9.92703e-05
9.10494e-06
4.35245e-14
2.55409e-14
4.12634e-09
6.75206e-13
1.6135e-12
3.84669e-07
3.7448e-12
4.78921e-12
5.75566e-12
0.000118282
1.20483e-05
6.70131e-07
1.41519e-07
5.66803e-05
9.56779e-17
2.3427e-10
3.55844e-09
0.000132802
2.45343e-11
0.000149643
5.42807e-07
0.000156223
9.5565e-05
1.72519e-06
1.27711e-11
4.10752e-12
8.71679e-07
0.000136293
9.59595e-10
0.000162723
0.000139367
8.99334e-14
6.42437e-05
8.2124e-06
4.8576e-11
2.22992e-12
0.000139134
5.38377e-05
0.00010905
1.23912e-07
1.45719e-09
4.78751e-05
2.33331e-15
1.13461e-05
5.67375e-05
6.33514e-05
0.000152973
7.1842e-12
4.69085e-09
1.82277e-08
1.44024e-14
7.02498e-08
8.11663e-10
2.92717e-08
3.04841e-07
4.19299e-13
4.99682e-07
4.45398e-06
1.16394e-05
2.1547e-08
1.37901e-05
2.45167e-10
9.97594e-15
5.2147e-11
1.0163e-11
3.91449e-08
9.58457e-11
0.000113742
1.06162e-10
7.55551e-08
4.60227e-05
1.37991e-07
1.74565e-06
0.000190246
8.85408e-12
1.13523e-08
8.38572e-06
4.49516e-09
0.000113647
9.00242e-07
5.93568e-10
7.88206e-11
8.95092e-06
5.59608e-05
6.05989e-05
2.45355e-09
0.000109075
0.000109818
0.000179188
2.41774e-14
8.87746e-11
2.64201e-08
1.68923e-11
6.78505e-16
3.33207e-14
7.30502e-05
8.94382e-07
1.07037e-08
6.65059e-09
1.06743e-06
4.40539e-07
0.000108494
0.000137594
0.000145023
4.60738e-05
5.74059e-10
5.71682e-07
3.40058e-07
1.14959e-05
5.34795e-11
1.29829e-09
0.00014387
2.3282e-06
1.03748e-08
1.95057e-08
1.20283e-06
6.32889e-05
6.61464e-05
3.8166e-08
9.79546e-05
3.84979e-11
1.83144e-14
4.53111e-06
2.97857e-12
1.07412e-05
4.31344e-05
5.53963e-06
1.55832e-06
8.49685e-06
1.54372e-08
1.11276e-07
7.49815e-05
0.000109412
1.36107e-07
2.0486e-06
5.63214e-05
0.00012142
1.04004e-05
0.000147771
8.09967e-09
2.77538e-07
0.000102177
9.83937e-08
8.06751e-07
2.84694e-12
9.7278e-09
1.71505e-09
2.74342e-12
1.4254e-09
7.28066e-10
1.39692e-05
2.73497e-10
4.95335e-05
1.83052e-05
5.29565e-05
7.76718e-08
1.15229e-06
1.91433e-08
5.95595e-11
8.12617e-06
6.4185e-06
0.000136313
8.59911e-06
0.000132402
1.25765e-05
1.19892e-12
1.82806e-15
9.43384e-10
3.71123e-14
0.000107824
0.000130498
1.59684e-08
1.08751e-05
8.97669e-05
1.21612e-07
0.000107445
6.28175e-10
2.62593e-13
1.38293e-12
1.62745e-07
1.26411e-08
5.51469e-07
2.93331e-10
9.87066e-05
4.75858e-08
0.000114022
0.000105146
5.02695e-05
5.12745e-13
6.92031e-07
2.06117e-06
0.000111919
0.000307199
4.99862e-12
5.98142e-06
1.03641e-05
1.16811e-05
0.000108948
9.69231e-05
0.000113085
5.09992e-05
1.25603e-08
5.67475e-05
1.53848e-13
4.76664e-05
0.000115867
7.64828e-06
9.58091e-05
0.000143274
0.000138915
3.00451e-09
1.02842e-07
7.09007e-08
5.63552e-05
2.4624e-06
0.000143877
1.05377e-06
4.32481e-05
1.21038e-10
8.74504e-12
0.00014372
1.21343e-11
1.35857e-08
2.13469e-10
6.47853e-10
3.52643e-12
4.76961e-08
4.72874e-13
1.40268e-09
3.7597e-11
0.000169975
1.10192e-05
5.39167e-05
1.99828e-13
0.000107708
1.45119e-05
3.17274e-17
2.45409e-05
1.14786e-06
0.000128978
2.13565e-07
1.64616e-06
1.27468e-07
1.75885e-09
1.13047e-10
1.57953e-12
6.64871e-11
1.13671e-10
1.28267e-07
5.53286e-05
5.55578e-05
3.2097e-14
1.29653e-08
1.92273e-12
9.94942e-13
8.44309e-10
6.19511e-11
5.53586e-13
0.000108893
7.60068e-14
4.37048e-07
0.000136373
2.09658e-09
0.000143174
3.54286e-09
4.97523e-05
0.000108163
4.7188e-14
9.55238e-05
0.000150242
0.000125544
0.000110018
0.000103833
3.26902e-08
7.22723e-06
5.29396e-07
8.89926e-13
5.39747e-05
3.75175e-10
8.20614e-07
1.21478e-09
0.000145363
3.9806e-14
1.4395e-06
3.11213e-07
2.45079e-10
0.000137846
9.84142e-05
2.69197e-13
0.000171917
2.92935e-07
0.000124364
4.1796e-09
4.13917e-05
2.53563e-06
1.25522e-06
5.3788e-12
0.000109104
0.000128071
0.000108931
2.05705e-14
5.12308e-05
0.000108901
5.55735e-07
1.21885e-05
0.000142432
5.95518e-06
0.000155701
1.74386e-10
2.21388e-13
1.30016e-07
7.54322e-10
0.000181245
1.5687e-06
9.26511e-05
1.52031e-07
1.36588e-12
8.92454e-07
5.31741e-10
9.43311e-06
1.41624e-06
0.000106637
2.8712e-13
2.6125e-06
1.33365e-06
1.12268e-06
5.34848e-05
0.000127363
3.51733e-11
1.40791e-11
2.23717e-09
4.37721e-05
3.16039e-11
0.00016752
0.000190417
0.000106961
1.33077e-08
0.000115071
4.48321e-07
0.000144018
0.000115765
2.74231e-09
5.11399e-05
0.000103116
0.000105783
1.86651e-16
1.29747e-12
6.66348e-07
5.23438e-05
7.02772e-12
1.40755e-13
5.23026e-07
1.45843e-07
3.56702e-11
3.6128e-09
1.65238e-07
0.000157988
1.31701e-11
2.46131e-05
5.23378e-05
0.000153647
7.16461e-09
6.29595e-10
5.12097e-06
2.24337e-13
0.000156338
1.00569e-06
4.27471e-11
0.000136458
1.0772e-14
1.98574e-09
4.83797e-12
0.000107459
8.92193e-09
9.95591e-05
6.21815e-07
4.89734e-05
0.000137595
1.33355e-07
6.18646e-12
4.73271e-05
2.12064e-15
2.93517e-10
5.65822e-11
4.94164e-08
5.90929e-05
0.000152491
2.84631e-09
1.3333e-13
9.20726e-12
1.74445e-10
5.66625e-05
8.9568e-15
6.06615e-05
4.63197e-05
2.59248e-14
1.48989e-05
3.21848e-06
1.44466e-11
1.12653e-06
0.000103595
0.000113828
6.4682e-08
1.23493e-10
9.78639e-05
0.000117265
1.03722e-05
2.04118e-11
4.62691e-12
0.000147083
1.05617e-05
2.67973e-11
8.03609e-11
2.82999e-12
1.54867e-15
1.11677e-06
3.70416e-07
6.94811e-16
3.71314e-11
1.2033e-05
0.000156915
0.000157518
7.08027e-09
3.33523e-06
4.81891e-13
3.60099e-11
6.85407e-10
3.76897e-12
7.2165e-09
1.32165e-11
1.30807e-13
3.85711e-10
4.5118e-06
2.54225e-12
1.55114e-10
7.33137e-06
1.68726e-09
7.44658e-06
0.000132689
1.87754e-08
3.26652e-11
1.7225e-12
2.30517e-09
3.32974e-10
6.99853e-06
0.000125871
5.21095e-15
1.28402e-10
1.48389e-14
8.14017e-09
8.44134e-05
5.24446e-05
9.9339e-07
0.000168643
1.32286e-10
0.000112741
4.93989e-07
3.85132e-15
5.09544e-17
1.80739e-13
1.90346e-07
0.0001024
0.000156086
0.000253392
4.68802e-06
0.000122409
2.625e-13
7.84277e-10
0.000104384
3.40607e-06
2.77098e-06
2.2724e-07
6.5269e-08
1.55283e-07
2.53922e-05
6.05895e-07
1.73084e-09
0.000129367
4.01744e-09
0.000106309
0.000132606
1.46015e-09
4.75966e-05
1.46281e-10
2.04613e-11
4.39436e-08
5.94276e-06
1.14854e-05
7.53651e-12
1.27116e-14
1.24685e-12
8.92256e-05
0.000126522
4.30693e-07
7.01938e-11
1.61082e-06
7.85911e-07