/*--------------------------------*- C++ -*----------------------------------*\
| =========                 |                                                 |
| \\      /  F ield         | OpenFOAM: The Open Source CFD Toolbox           |
|  \\    /   O peration     | Version:  2406                                  |
|   \\  /    A nd           | Website:  www.openfoam.com                      |
|    \\/     M anipulation  |                                                 |
\*---------------------------------------------------------------------------*/
FoamFile
{
    version     2.0;
    format      ascii;
    arch        "LSB;label=32;scalar=64";
    class       volScalarField;
    location    "66";
    object      p;
}
// * * * * * * * * * * * * * * * * * * * * * * * * * * * * * * * * * * * * * //

dimensions      [0 2 -2 0 0 0 0];

internalField   nonuniform List<scalar> 
59516
(
0.234004
0.0135264
0.0128405
0.00178316
0.247461
0.267968
0.234806
0.208035
0.0681374
-0.000530427
0.242149
0.236092
0.163125
0.233253
0.218805
0.0691977
0.2351
0.243067
0.239427
0.232116
0.238557
0.207439
0.234701
0.150455
0.060365
0.145186
0.0855961
0.241841
0.237223
0.21782
0.250782
0.241997
0.109267
0.00132141
0.239602
0.195858
0.0588164
0.24591
0.237824
0.0118233
0.0139289
0.24218
0.238726
0.00148032
0.237233
0.0369153
0.238033
0.238548
0.249091
0.239865
0.255109
0.00104983
0.111283
0.21166
0.238006
0.237119
0.243359
0.00142026
0.150099
0.240681
0.00135674
0.191496
0.151355
0.235705
0.00292114
0.23754
0.00726417
0.199496
0.249406
0.237089
0.203045
0.232108
0.0410788
0.233387
0.200766
0.236681
0.238096
0.0261482
0.166386
0.239761
0.0013155
0.239771
0.238819
0.0974047
0.239778
0.231739
0.0685096
0.232373
0.110125
0.243035
0.245596
0.20422
0.227279
0.201569
0.202523
0.248808
0.217846
0.208658
0.239523
0.161524
0.0742625
0.134026
0.213921
0.00776267
0.0410979
0.00621649
0.00557029
0.0642632
0.116046
0.167831
0.247714
0.0800824
0.204707
0.248258
0.225114
0.186476
0.0287403
0.212063
0.212642
0.0287455
0.213936
0.210626
0.0553651
0.212136
0.246186
0.239656
0.22521
0.243798
0.254863
0.226516
0.224287
0.0137221
0.200545
0.22704
0.227761
0.197532
0.246594
0.221047
0.135061
0.230799
0.0811027
0.101732
0.208129
0.0804579
0.231394
0.229064
0.237585
0.233041
0.253897
0.227929
0.23115
0.00276974
0.225185
0.00260416
0.226602
0.00491855
0.00348515
0.227245
0.227848
0.219546
0.231419
0.231183
0.219002
0.00403749
0.18479
0.027097
0.0683691
0.228848
0.229486
0.00382521
0.226671
0.226686
0.222315
0.223151
0.222726
0.238623
0.187454
0.239404
0.0124463
0.185044
0.224991
0.119299
0.141518
0.224372
0.224545
0.0757104
0.10457
0.0582113
0.225975
0.223646
0.000298773
0.118246
0.22857
0.223593
0.229973
0.0184022
0.135698
0.135185
0.00361659
0.222071
-0.000569006
0.0571236
0.209194
0.162267
0.191204
0.119577
0.229561
0.00315462
0.154835
0.215887
0.0384099
0.241617
0.214929
0.192333
0.216019
0.0861211
0.228194
0.0184008
0.177023
0.216485
0.216262
0.229244
0.222232
0.0039975
0.218927
0.1867
0.154223
0.162392
0.221822
0.033424
0.218068
0.117489
0.222419
0.123732
0.130222
0.222547
0.221108
0.0466958
0.220991
0.0497507
0.225119
0.119516
0.115876
0.00292102
0.226408
0.225954
0.223536
0.0110878
0.222503
0.225545
0.011545
0.223806
0.225593
0.14046
0.22456
0.225394
0.0696522
0.220527
0.1713
0.217453
0.156364
0.219285
0.220815
0.220483
0.195786
0.0528981
0.177638
0.0631621
0.218141
0.147845
0.235348
0.190809
0.0670634
0.150447
0.219018
0.195812
0.14812
0.217885
0.218907
0.0866225
0.222122
0.162827
0.1516
0.216906
0.215185
0.234533
0.225397
0.00662212
0.220746
0.196883
0.219846
0.217423
0.20201
0.026589
0.204977
0.115427
0.197575
0.193271
0.217893
0.19675
0.19608
0.0554977
0.0905631
0.19087
0.199581
0.144827
0.0182816
0.196088
0.196729
0.073912
0.0604616
0.197239
0.141356
0.133257
0.237421
0.198833
0.209833
0.249512
0.19819
0.0580895
0.117669
0.208728
0.124917
0.211547
0.163041
0.199237
0.241493
0.209986
0.154079
0.211119
0.0209833
0.231128
0.151501
0.21109
0.173361
0.217407
0.220554
0.190494
0.240813
0.21569
0.192395
0.190416
0.211888
0.0463592
0.0957072
0.215694
0.0890354
0.21989
0.212244
0.171802
0.221775
0.223611
0.0342919
0.110964
0.154194
0.0472434
0.00694824
0.247573
0.252153
0.186261
0.030677
0.227696
0.240553
0.205109
0.0301911
0.211129
0.210547
0.228061
0.251204
0.214433
0.0786643
0.0772106
0.21025
0.15833
0.181642
0.210026
0.211601
0.206446
0.168967
0.200974
0.228531
0.00100357
0.241403
0.0092785
0.0177147
0.211582
0.0069065
0.240856
0.210993
0.0128452
0.012656
0.0523879
0.206563
0.246169
0.20918
0.246663
0.0102465
0.069321
0.206498
0.207735
0.217369
0.204809
0.169789
0.217804
0.218746
0.0558246
0.134604
0.218914
0.217346
0.216391
0.0367368
0.0207533
0.0225675
0.122683
0.192008
0.00931266
0.0331809
0.0643409
0.00435595
0.206341
0.204045
0.209707
0.209335
0.219668
0.20892
0.160886
0.203733
0.139294
0.209376
0.174892
0.212562
0.208033
0.195811
0.124217
0.2178
0.241201
0.0215073
0.213192
0.158088
0.0764473
0.160478
0.177787
0.215005
0.213018
0.210154
0.208506
0.0739859
0.208165
0.162362
0.0264795
0.179752
0.25231
0.139003
0.059538
0.210474
0.173157
0.207953
0.130641
0.207751
0.058713
0.208491
0.00381258
0.0071234
0.20518
0.238729
0.203062
0.187792
0.0351858
0.190723
0.189145
0.0395469
0.197402
0.189186
0.184844
0.184184
0.0931914
0.191118
0.186537
0.127286
0.184797
0.0821146
0.182442
0.241984
0.182612
0.254363
0.183633
0.221463
0.0799033
0.0921756
0.159805
0.00361918
0.00282524
0.173163
0.195642
0.199414
0.153807
0.187167
0.0468953
0.204821
0.202868
0.243172
0.135699
0.11912
0.16298
0.202667
0.0195646
0.197589
0.234386
0.0044358
0.274009
0.203543
0.0617219
0.231022
0.171769
0.236228
0.190187
0.165272
0.182676
0.205902
0.168442
0.206142
0.227596
0.070965
0.0712117
0.246865
0.00288933
0.204689
0.196622
0.246405
0.195044
0.230947
0.000724236
0.1982
0.0806752
0.000206553
0.14948
0.0371523
0.244351
0.211607
0.0659352
0.00193899
0.217623
0.121689
0.197303
0.216931
0.196765
0.22828
0.000684178
0.0993165
0.0648804
0.196353
0.0336227
0.144253
0.204575
0.126723
0.203342
0.00250405
0.207634
0.0614362
0.204203
0.160739
0.109777
0.102413
0.205626
0.00204122
0.0407379
0.195458
0.0760007
0.154877
0.177184
0.116426
0.111865
0.195156
0.194519
0.223616
0.19386
0.110935
0.195419
0.193419
0.106233
0.0949042
0.000867171
0.194271
0.194148
0.1958
0.0905547
0.187613
0.00975544
0.196571
0.00522394
0.206161
0.000917073
0.0229099
0.166598
0.118648
0.0102043
0.196944
0.244617
0.00336165
0.0161645
0.193955
0.190642
0.0316623
0.192861
0.193395
0.131104
0.0379017
0.206061
0.199755
0.012785
0.19534
0.195727
0.143572
0.192232
0.253414
0.196151
0.246659
0.168516
0.249062
0.171411
0.0219775
0.230149
0.0050946
0.00565037
0.250764
0.249431
0.173106
0.195474
0.244105
0.240887
0.121409
0.0973257
0.159038
0.0593116
0.169317
0.11262
0.241111
0.171986
0.174187
0.189214
0.178971
0.251279
0.161813
0.182661
0.0509127
0.182652
0.135977
0.0168799
0.182713
0.181719
0.183134
0.13708
0.0830686
0.25951
0.115554
0.118659
0.140666
0.217279
0.183193
0.0599868
0.16972
0.140446
0.0123537
0.062564
0.185907
0.213465
0.147234
0.137588
0.184869
0.18475
0.0743714
0.223047
0.193538
0.127444
0.190673
0.153441
0.200131
0.188567
0.00952025
0.0242994
0.171708
0.251912
0.134872
0.125936
0.00299283
0.144041
0.188295
0.108645
0.197507
0.193061
0.0825937
0.113666
0.195985
0.230744
0.206321
0.156656
0.251264
0.195793
0.0318949
0.203858
0.25406
0.0203183
0.112785
0.217685
0.184349
0.0717412
0.178871
0.0218331
0.0163613
0.156217
0.184638
0.25134
0.207793
0.184112
0.183784
0.18904
0.0838656
0.0100496
0.0608048
0.206481
0.250687
0.138988
0.186532
0.12554
0.0541471
0.18341
0.0577229
0.184301
0.235476
0.1143
0.00212685
0.211181
0.0885121
0.189506
0.0165831
0.0712392
0.141889
0.214087
0.18771
0.189734
0.25198
0.214294
0.0359659
0.253981
0.00301936
-0.000617447
0.188985
0.0387359
0.103183
0.141706
0.099146
0.251511
0.185945
0.210988
0.182031
0.0420514
0.152197
0.0483594
0.116651
0.209609
0.182236
0.183858
0.181529
0.0674871
0.22597
0.170921
0.0600541
0.182744
0.1812
0.180638
0.168333
0.182857
0.0179255
0.0111064
0.181922
0.0032511
0.110545
0.126601
0.00963254
0.133013
0.155464
0.232884
0.172825
0.203384
0.159449
0.117308
0.183177
0.184885
0.185628
0.0998137
0.184411
0.226269
0.0153829
0.00265724
0.124264
0.105591
0.00277627
0.184143
0.181647
0.183108
0.0170001
0.0280084
0.180923
0.216994
0.0269961
0.0353734
0.251489
0.242963
0.186365
0.0367027
0.195201
0.17242
0.199952
0.156675
0.17856
0.245462
0.156858
0.156296
0.0801906
0.158385
0.246468
0.0301799
0.176848
0.156721
0.0945383
0.193098
0.199061
0.0815004
0.191745
0.214567
0.194609
0.15699
0.236707
0.0479244
0.15655
0.209971
0.0138224
0.168019
0.0646029
0.153801
0.0850558
0.24549
0.160213
0.00281023
0.154539
0.15387
0.163923
0.155787
0.143483
0.00435383
0.0390185
0.192278
0.165999
0.136756
0.194688
0.0995322
0.215668
0.0220146
0.165691
0.0738598
0.150003
0.194771
0.0142544
0.168229
0.164857
0.2478
0.0233123
0.200155
0.219301
0.0372175
0.161961
0.0389151
0.131516
0.184787
0.198891
0.16183
0.160713
0.160111
0.251399
0.0289088
0.197886
0.0981823
0.0173507
0.162448
0.202743
0.172484
0.171299
0.0299327
0.173913
0.175428
0.0923947
0.221748
0.25
0.232989
0.131046
0.175908
0.00373508
0.24018
0.158388
0.172959
0.143828
0.175258
0.173544
0.17797
0.193928
0.178145
0.199027
0.173954
0.230568
0.231733
0.173699
0.190498
0.172916
0.198833
0.199745
0.0122789
0.114878
0.136578
0.0120312
0.184335
0.176028
0.185882
0.0969596
0.00601727
0.101258
0.172463
0.188746
0.188691
0.112244
0.129415
0.18625
0.248365
0.177096
0.00792862
0.017352
0.207064
0.17835
0.106445
0.142279
0.176038
0.115794
0.168873
0.16935
0.169211
0.144012
0.190797
0.168503
0.252522
0.0220236
0.168262
0.252749
0.168555
0.220828
0.0382123
0.16697
0.106318
0.080966
0.169346
0.16862
0.104447
0.106448
0.167391
0.0895024
0.165825
0.166484
0.172753
0.0992194
0.164575
0.0283752
0.166732
0.166541
0.112289
0.165021
0.165395
0.234048
0.160499
0.135517
0.161698
0.163462
0.113788
0.0545231
0.0981457
0.240918
0.165652
0.166605
0.140111
0.0557931
0.241399
0.142535
0.145176
0.141474
0.140317
0.0103741
0.00540616
0.0461254
0.0934651
0.166898
0.166043
0.00530291
0.206942
0.156653
0.0716872
0.24149
0.137196
0.135925
0.243863
0.13852
0.200491
0.0422152
0.1369
0.195088
0.180957
0.137179
0.101125
0.0367263
0.137878
0.206849
0.185553
0.105918
0.0502528
0.0814271
0.144035
0.0845039
0.206665
0.0807691
0.141659
0.151717
0.247709
0.109715
0.0096736
0.0531766
0.0821644
0.139326
0.20523
0.150555
0.150247
0.0188951
0.119171
0.00753651
0.152606
0.152603
0.0836836
0.0116232
0.182584
0.0359345
0.225149
0.169922
0.166675
0.239938
0.0816243
0.19592
0.204249
0.136715
0.0143554
0.166716
0.237569
0.165132
0.163109
0.139143
0.0721428
0.166792
0.0154439
0.238969
0.208384
0.111639
0.166036
0.158935
0.206302
0.23259
0.197309
0.0271713
0.0728945
0.163858
0.171117
0.192283
0.108746
0.189181
0.24294
0.162636
0.191411
0.0654301
0.168846
0.126905
0.0784342
0.168453
0.168295
0.167502
0.191358
0.164603
0.0378006
0.165318
0.0716393
0.187764
0.018485
0.163524
0.190742
0.00346594
0.0211602
0.160588
0.0610752
0.0416588
0.0648454
0.0543395
0.0986852
0.0356219
0.163479
0.161431
0.0286064
0.160613
0.161704
0.189652
0.00908729
0.162996
0.156257
0.00209271
0.0225357
0.153642
0.0892511
0.00339982
0.0115471
0.154026
0.110484
0.159008
0.235578
0.0149603
0.190015
0.142909
0.158184
0.155423
0.140422
0.179431
0.165237
0.159927
0.146167
0.238564
0.209442
0.158738
0.161204
0.219271
0.0322584
0.207327
0.18001
0.108925
0.102962
0.16109
0.0735483
0.0183755
0.148642
0.153103
0.253435
0.128994
0.153374
0.151375
0.176252
0.0730289
0.151578
0.152612
0.229334
0.153063
0.0689762
0.155825
0.155496
0.124788
0.113081
0.136855
0.155677
0.152785
0.155508
0.105095
0.132328
0.158827
0.138342
0.103999
0.110639
0.111491
0.111783
0.12976
0.153765
0.132341
0.241638
0.220454
0.0394264
0.093816
0.0975889
0.130652
0.128595
0.132577
0.170149
0.129654
0.128889
0.0775742
0.0977955
0.180747
0.0770253
0.0311173
0.131799
0.130878
0.133445
0.223905
0.0127369
0.00625894
0.0917359
0.141011
0.138119
0.207431
0.0316218
0.131209
0.241745
0.037329
0.139744
0.139179
0.1662
0.00165951
0.13792
0.138055
0.137365
0.148723
0.00467009
0.0068105
0.149139
0.149261
0.146143
0.147802
0.15328
0.144812
0.0725253
0.0145185
0.246586
0.185161
0.149369
0.148435
0.112302
0.234203
0.227535
0.211546
0.00120747
0.21171
0.1502
0.150187
0.149132
0.149891
0.150475
0.14913
0.203252
0.125412
0.197511
0.1323
0.0722134
0.0127495
0.151405
0.112823
0.00407823
0.133954
0.155832
0.238294
0.156945
0.106932
0.103718
0.182651
0.117142
0.15391
0.160074
0.15807
0.128377
0.138435
0.234292
0.153375
0.196141
0.069039
0.0571301
0.151363
0.0591714
0.0207702
0.155951
0.155611
0.115416
0.0776263
0.0891655
0.221055
0.154909
0.0459649
0.00521228
0.139336
0.0257891
0.109693
0.149803
0.185084
0.138643
0.0234191
0.225077
0.0137409
0.219266
0.121768
0.20823
0.142971
0.0408174
0.151479
0.136754
0.0866417
0.104136
0.152011
0.152346
0.22618
0.186666
0.197691
0.230804
0.191675
0.184812
0.185143
0.201953
0.148709
0.148202
0.116891
0.0581268
0.0669096
0.0163007
0.209452
0.1175
0.14592
0.1438
0.145173
0.0409695
0.141933
0.198927
0.00470482
0.142055
0.146206
0.167242
0.249118
0.199949
0.198743
0.142609
0.0114646
0.208944
0.144767
0.174596
0.151766
0.178355
0.188829
0.133322
0.206251
0.147636
0.186434
0.15181
0.0183456
0.200244
0.206588
0.119802
0.24473
0.0670959
0.0773232
0.0674015
0.131855
0.194971
0.0542917
0.174208
0.0556643
0.148121
0.14809
0.127641
0.153749
0.139469
0.217461
0.17963
0.13782
0.184479
0.144427
0.250132
0.204407
0.14389
0.140119
0.17941
0.213993
0.14164
0.0240599
0.173773
0.217226
0.138722
0.126586
0.142929
0.145491
0.146742
0.147483
0.00344327
0.0673608
0.148575
0.244003
0.147027
0.120741
0.192303
0.118447
0.102841
0.218566
0.244206
0.200792
0.200919
0.202418
0.032103
0.13813
0.165455
0.2427
0.231168
0.244762
0.248391
0.230918
0.122708
0.119703
0.243157
0.0529872
0.123914
0.183908
0.120796
0.200401
0.188939
0.24292
0.224735
0.200077
0.0667752
0.122868
0.13614
0.130668
0.137159
0.202703
0.184994
0.136764
0.132526
0.134598
0.0143771
0.214305
0.037952
0.137632
0.162668
0.14297
0.139102
0.134228
0.0382978
0.140441
0.123849
0.139736
0.138836
0.206929
0.126741
0.0722505
0.0434352
0.194074
0.0994223
0.0985889
0.1896
0.0824505
0.0460293
0.0396519
0.0295761
0.18681
0.0620966
0.126167
0.156992
0.0294866
0.211521
0.212186
0.0880878
0.0854464
0.228603
0.13039
0.0139874
0.151988
0.0297987
0.182654
0.0285002
0.0444064
0.0177774
0.00910217
0.0739515
0.207913
0.0427124
0.0225665
0.0235631
0.136964
0.0272789
0.134885
0.213155
0.138245
0.135889
0.186292
0.0419137
0.141032
0.139773
0.0110056
0.0674182
0.208682
0.140974
0.141442
0.188119
0.21341
0.203329
0.212524
0.0505903
0.235077
0.243113
0.141132
0.141825
0.0117951
0.219848
0.242021
0.139366
0.105778
0.138729
0.0160564
0.203891
0.00608931
0.0419672
0.130949
0.168552
0.132613
0.10799
0.209785
0.0990547
0.199706
0.131221
0.132369
0.0650416
0.124879
0.113246
0.238355
0.210039
0.180558
0.131334
0.214405
0.0725517
0.0414402
0.0599358
0.0123391
0.131443
0.211812
0.13113
0.0125112
0.0104647
0.206573
0.133523
0.0629466
0.220556
0.133533
0.133864
0.206734
0.0183275
0.205338
0.134319
0.136778
0.138104
0.144565
0.137885
0.201726
0.198629
0.138183
0.227481
0.147393
0.198415
0.168098
0.136029
0.212813
0.133365
0.106942
0.229595
0.150492
0.13546
0.0108578
0.13867
0.13737
0.103505
0.132361
0.183175
0.0526575
0.210243
0.1263
0.191914
0.201512
0.135702
0.148027
0.00958334
0.0631413
0.0510086
0.134041
0.210658
0.0175921
0.131544
0.229745
0.0503417
0.190333
0.0474388
0.132457
0.161661
0.13057
0.00117529
0.173503
0.210495
0.103621
0.0325181
0.0513069
0.100089
0.101722
0.108646
0.208591
0.0100354
0.0331349
0.113754
0.11495
0.197758
0.183346
0.115607
0.120435
0.110273
0.168119
0.231085
0.216148
0.14684
0.0271669
0.195477
0.194403
0.0879249
0.0453476
0.178837
0.0832892
0.113578
0.186399
0.147021
0.150531
0.128434
0.109915
0.119514
0.119255
0.11782
0.189738
0.121789
0.164114
0.227117
0.210281
0.184359
0.203512
0.111004
0.0810507
0.209342
0.122631
0.187081
0.145247
0.192297
0.236559
0.115281
0.00636248
0.123997
0.125677
0.131774
0.207825
0.123252
0.129662
0.149697
0.131673
0.149444
0.125708
0.00176746
0.148315
0.129372
0.12894
0.0046808
0.18525
0.232717
0.147957
0.154761
0.117001
0.131281
0.129762
0.0530252
0.230702
0.131444
0.131044
0.13307
0.0319948
0.208306
0.141196
0.118101
0.148027
0.0770237
0.100514
0.19715
0.121944
0.118516
0.0958305
0.119044
0.128895
0.0804218
0.12206
0.208381
0.138156
0.0701174
0.207363
0.208287
0.106415
0.107367
0.0903425
0.122011
0.0534989
0.125234
0.0589318
0.252145
0.193728
0.160604
0.0768999
0.019246
0.216185
0.0172795
0.0200032
0.121359
0.00205712
0.12187
0.0280407
0.161708
0.08512
0.120636
0.181228
0.162703
0.121737
0.0243043
0.0197985
0.158253
0.119652
0.0354252
0.1225
0.121139
0.138203
0.127311
0.235726
0.187025
0.216145
0.159848
0.182688
0.121381
0.186567
0.161115
0.121937
0.217669
0.239411
0.181737
0.17737
0.122009
0.202063
0.119131
0.217101
0.156769
0.184748
0.0178521
0.0374285
0.175325
0.00947358
0.209921
0.25178
0.219207
0.0111987
0.051577
0.0172464
0.206669
0.215122
0.00571189
0.162743
0.115355
0.201844
0.16664
0.114774
0.122729
0.0285849
0.178399
0.181766
0.05015
0.235658
0.215946
0.130926
0.116674
0.246759
0.11602
0.24064
0.180208
0.178318
0.116979
0.224206
0.103762
0.222283
0.207668
0.226705
0.00631388
0.120089
0.233779
0.06291
0.242434
0.120351
0.228126
0.0905727
0.0898815
0.0955981
0.236619
0.194331
0.225777
0.193271
0.102021
0.233571
0.233944
0.091133
0.235142
0.105953
0.187262
0.100259
0.194215
0.129467
0.0875629
0.122888
0.0846486
0.123684
0.0188752
0.107345
0.0981754
0.217251
0.0953447
0.181174
0.136537
0.161789
0.10525
0.0355748
0.0784094
0.182397
0.100336
0.21694
0.0676727
0.109537
0.223245
0.185697
0.111586
0.201761
0.109944
0.0998555
0.0976393
0.127842
0.104932
0.00194221
0.0356402
0.0390796
0.100437
0.101089
0.184438
0.0448925
0.0259548
0.0956536
0.0637519
0.215529
0.196187
0.0316831
0.112193
0.164265
0.106247
0.113638
0.0913088
0.111164
0.195764
0.110706
0.15418
0.000641189
0.212518
0.151623
0.24409
0.114206
0.110879
0.0201418
0.217556
0.0849087
0.114923
0.187074
0.118612
0.115919
0.108785
0.106883
0.0293873
0.118445
0.113632
0.114202
0.109219
0.127527
0.1112
0.2129
0.0921471
0.116187
0.21458
0.243772
0.158471
0.0955034
0.17641
0.113901
0.103923
0.0990556
0.0533697
0.0926485
0.0846792
0.231694
0.0937397
0.128062
0.125796
0.0314706
0.0928773
0.21236
0.105953
0.108822
0.150334
0.142087
0.103597
0.16467
0.128161
0.107133
0.104756
0.118853
0.105056
0.211047
0.203259
0.0952362
0.0921404
0.101524
0.0413277
0.107498
0.127844
0.183808
0.104538
0.108449
0.0990707
0.110362
0.213406
0.0915855
0.206715
0.108335
0.104637
0.0965134
0.104991
0.0816294
0.10162
0.0833271
0.0728526
0.103848
0.228992
0.117998
0.22704
0.151161
0.0700001
0.0225456
0.0901308
0.212376
0.105825
0.104541
0.0768891
0.106404
0.0766206
0.214224
0.212777
0.0802981
0.0809725
0.0843593
0.0849617
0.170788
0.134595
0.0825312
0.0831159
0.0626537
0.102877
0.0845037
0.0849256
0.0488506
0.0474145
0.00225272
0.0852062
0.172721
0.0293569
0.134656
0.0881489
0.0909942
0.0948577
0.121324
0.210201
0.10771
0.0778991
0.011291
0.018324
0.136455
0.0894532
0.0847422
0.11669
0.0306176
0.0201221
0.0905763
0.211841
0.100532
0.102291
0.0478318
0.0949484
0.237451
0.0972542
0.0954243
0.133906
0.0976447
0.100873
0.211695
0.10158
0.11455
0.0180969
0.00391534
0.166147
0.0356116
0.0206411
0.104671
0.0864193
0.21222
0.102784
0.219584
0.220253
0.0999416
0.211229
0.00700424
0.0965423
0.102701
0.0333394
0.103781
0.219814
0.24422
0.0479342
0.216116
0.102274
0.183034
0.200955
0.102851
0.107235
0.218563
0.100635
0.236035
0.102257
0.124195
0.11127
0.23684
0.216243
0.125625
0.105008
0.101986
0.190589
0.123935
0.190072
0.216336
0.213212
0.105201
0.0117651
0.105741
0.0983792
0.189163
0.0801816
0.189796
0.040714
0.200371
0.000259595
0.213032
0.124545
0.088899
0.0978574
0.21517
0.0954259
0.212794
0.206448
0.214761
0.0130576
0.0034555
0.191602
0.00361105
0.0952587
0.122618
0.165246
0.0931179
0.206747
0.141287
0.210576
0.0908914
0.209007
0.173528
0.18871
0.245287
0.128563
0.230905
0.0905016
0.00980532
0.141274
0.00957184
0.242626
0.0445397
0.136832
0.188939
0.0995543
0.0949165
0.0134872
0.0327417
0.0969212
0.19403
0.214912
0.00664359
0.220264
0.124722
0.235519
0.0569772
0.19634
0.0968166
0.174272
0.21657
0.171796
0.161297
0.181845
0.197791
0.210636
0.159256
0.0416558
0.18573
0.098096
0.0985056
0.0979883
0.0589551
0.230096
0.231113
0.187243
0.107615
0.206706
0.213046
0.107155
0.0990949
0.0978997
0.0947609
0.230175
0.0472336
0.0925527
0.146233
0.0951385
0.185277
0.171643
0.11417
0.0561366
0.0961836
0.0942757
0.13359
0.241208
0.154472
0.0943446
0.208095
0.0670437
0.05117
0.226271
0.00464612
0.0667444
0.0135417
0.0668972
0.0671913
0.209153
0.0930874
0.172981
0.207821
0.116282
0.0990965
0.216017
0.0706535
0.213294
0.0892558
0.0918037
0.0921562
0.188998
0.159436
0.212913
0.193009
0.20472
0.0791185
0.137111
0.216749
0.202402
0.0991231
0.201662
0.0687424
0.185801
0.0451531
0.187762
0.0948755
0.168897
0.0841371
0.128185
0.201889
0.0668946
0.202553
0.0514126
0.102529
0.0820636
0.0295927
0.0866252
0.0810735
0.114269
0.213028
0.0846783
0.0392272
0.0173072
0.189712
0.0192376
0.204043
0.00418309
0.088946
0.0480079
0.0877326
0.202286
0.205834
0.0447482
0.229194
0.0314145
0.00219186
0.188371
0.170342
0.0865426
0.202511
0.0653912
0.0186543
0.111573
0.00247192
0.141559
0.180685
0.131738
0.0885932
0.239644
0.0900318
0.144873
0.188318
0.11888
0.204771
0.0865272
0.129773
0.0857478
0.134213
0.228708
0.0920518
0.0793428
0.134665
0.0865261
0.15005
0.084906
0.0557741
0.085007
0.228536
0.0847658
0.081503
0.0841473
0.222573
0.107223
0.214324
0.232151
0.230485
0.164877
0.0460973
0.0616849
0.17229
0.203047
0.0214717
0.0594414
0.0841845
0.0827082
0.204349
0.24278
0.00295507
0.0306061
0.0758207
0.214204
0.0311606
0.120446
0.20433
0.0818406
0.0806642
0.0812043
0.0789647
0.0815492
0.165563
0.100874
0.200923
0.0216986
0.0846253
0.0815524
0.224273
0.128431
0.220487
0.233831
0.0446482
0.0822478
0.061562
0.222639
0.225039
0.219954
0.219332
0.113892
0.0607822
0.215099
0.0447462
0.082042
0.197193
0.0915782
0.0811305
0.064606
0.0798455
0.195749
0.194715
0.0821808
0.144658
0.0919654
0.0913244
0.240131
0.0236487
0.050622
0.0818556
0.0826491
0.00731583
0.0826875
0.0629482
0.0876874
0.191529
0.0829127
0.0157585
0.0891269
0.00738102
0.224934
0.218032
0.115045
0.0851048
0.0877106
0.100694
0.0750464
0.0681298
0.10274
0.0720487
0.0708615
0.0619846
0.0723928
0.226278
0.201777
0.120888
0.188895
0.0763879
0.195003
0.0604677
0.188325
0.156612
0.18085
0.0734768
0.137114
0.0171033
0.195344
0.210492
0.0842691
0.247805
0.0759129
0.0778278
0.130444
0.0201204
0.101331
0.0785593
0.194201
0.0596105
0.0841341
0.0814097
0.0566736
0.161296
0.0568346
0.0559783
0.0572005
0.0580166
0.0569022
0.190734
0.191201
0.197165
0.187892
0.0364871
0.0574291
0.221317
0.0630114
0.035006
0.0623826
0.061997
0.037408
0.0627515
0.0615035
0.0621219
0.079093
0.075677
0.13911
0.086667
0.0977024
0.126313
0.109177
0.100235
0.03744
0.0795134
0.0788025
0.0595384
0.0643361
0.076745
0.152117
0.015792
0.179945
0.239788
0.141326
0.229761
0.0780003
0.0173158
0.0190001
0.0185902
0.105198
0.0199711
0.0746668
0.0767984
0.21531
0.247367
0.131
0.0695688
0.218689
0.118573
0.145963
0.076222
0.148272
0.0764468
0.152816
0.0639716
0.0341557
0.0414459
0.072368
0.00144241
0.0783212
0.217038
0.0578572
0.177836
0.0232573
0.0700582
0.0722038
0.203046
0.0983165
0.153048
0.110259
0.151961
0.0714203
0.0138457
0.219511
0.0857586
0.141736
0.216109
0.216217
0.0731567
0.0620969
0.0738934
0.112422
0.0735233
0.149053
0.202677
0.115345
0.0746343
0.0752813
0.119356
0.136215
0.167856
0.0744463
0.0762926
0.0767274
0.217056
0.0753559
0.0767496
0.0276072
0.0673479
0.0356017
0.0134513
0.0350934
0.0217744
0.0660925
0.0676902
0.0110439
0.0535724
0.0106442
0.214779
0.0690356
0.03908
0.214934
0.165025
0.103231
0.0597525
0.0721392
0.0110071
0.0705718
0.158114
0.111225
0.0689607
0.220433
0.0340163
0.0031269
0.0697788
0.254894
0.109439
0.143723
0.0124225
0.0701516
0.0695387
0.167897
0.0125929
0.108448
0.139225
0.0645192
0.0696137
0.0718523
0.247045
0.22683
0.220726
0.105194
0.035539
0.0137587
0.0124394
0.222003
0.0125612
0.0441364
0.0729869
0.243247
0.0856161
0.0743276
0.200004
0.221787
0.158473
0.150364
0.0733635
0.0714814
0.214968
0.18413
0.19528
0.0214333
0.180607
0.0476667
0.0994911
0.0391648
0.0709029
0.11259
0.226714
0.113302
0.111465
0.234542
0.0667097
0.216552
0.0501618
0.148209
0.173891
0.226473
0.113295
0.22007
0.0629326
0.0526185
0.0314753
0.066877
0.219902
0.0507433
0.0457938
0.136175
0.0520761
0.0522991
0.0562175
0.0180096
0.103386
0.0683166
0.0806707
0.04742
0.0618897
0.0547678
0.0375743
0.222112
0.154177
0.0505449
0.0701262
0.252021
0.131562
0.0670788
0.141391
0.0675848
0.125835
0.0656587
0.220424
0.0490809
0.248887
0.0428525
0.0378543
0.137396
0.051609
0.150174
0.131519
0.158723
0.0208473
-0.000969833
0.0288027
0.023897
0.0427239
0.015407
0.047247
0.0438882
0.0432734
0.232924
0.028978
0.222485
0.222784
0.0337905
0.211942
0.0707182
0.217531
0.202025
0.0490943
0.21398
0.0492722
0.00147338
0.158317
0.101663
0.206497
0.201313
0.111347
0.0170795
0.0308104
0.160225
0.17451
0.0506333
0.0490547
0.0660249
0.177709
0.193568
0.143184
0.017796
0.0128368
0.0651646
0.163194
0.179496
0.196461
0.233301
0.0672069
0.206933
0.189542
0.142051
0.249771
0.101553
0.130635
0.165593
0.0632798
0.224681
0.010765
0.0979181
0.189286
0.171021
0.20064
0.223489
0.0200894
0.0977209
0.0655348
0.116696
0.0663448
0.108082
0.119816
0.115855
0.0838897
0.0661494
0.0652169
0.0630268
0.0855165
0.231842
0.0922242
0.0828675
0.0887677
0.218767
0.192149
0.0190725
0.224233
0.0656682
0.0629617
0.131519
0.0554979
0.0562016
0.0774301
0.0195101
0.0544387
0.0590788
0.0135731
0.0519228
0.05088
0.0558767
0.0735683
0.0613416
0.061813
0.222529
0.0410793
0.0498343
0.0364855
0.0674956
0.0361661
0.0341102
0.063816
0.0149756
0.0161535
0.0909949
0.0373799
0.0330754
0.223651
0.0644049
0.0496399
0.0456438
0.0172872
0.0408152
0.0637742
0.0659807
0.0584423
0.102534
0.140297
0.161919
0.121267
0.0163072
0.0582495
0.0567256
0.05843
0.184854
0.0893487
0.0652263
0.239033
0.0573151
0.0885759
0.0567451
0.0591773
0.155357
0.161203
0.0567948
0.0948196
0.202819
0.201728
0.0894464
0.05748
0.221664
0.0574465
0.123378
0.0581593
0.24381
0.058453
0.18261
0.0571025
0.155199
0.188048
0.217003
0.197265
0.0556501
0.190825
0.138593
0.154854
0.0576205
0.0237539
0.100849
0.140997
0.0573676
0.0569882
0.0577954
0.100796
0.0514997
0.234046
0.169107
0.0218842
0.22228
0.0541521
0.215979
0.0221545
0.0499502
0.0529671
0.18434
0.0573364
0.159069
0.232037
0.0503802
0.0538306
0.086953
0.227786
0.18436
0.183406
0.055155
0.193514
0.165504
0.0533031
0.089398
0.0755631
0.0523886
0.0526368
0.158684
0.196025
0.0580976
0.0916376
0.0742849
0.21997
0.215095
0.21937
0.0574586
0.221239
0.0388876
0.17412
0.200694
0.115551
0.156386
0.0569909
0.225894
0.0276949
0.0313091
0.0335034
0.0962088
0.0333779
0.103017
0.101106
0.0899609
0.111858
0.179701
0.0918326
0.136058
0.00767217
0.0387139
0.0781582
0.130072
0.0546911
0.145305
0.203906
0.105625
0.175676
0.16949
0.0101265
0.0335218
0.153701
0.039289
0.000318551
0.224259
0.185763
0.214965
0.0317111
0.224115
0.0859553
0.212989
0.082181
0.216164
0.0813097
0.220974
0.0363916
0.194073
0.0527503
0.165347
0.0831625
0.17037
0.0857676
0.258142
0.0530895
0.0717204
0.18043
0.165668
0.0513656
0.111746
0.165813
0.0530978
0.148888
0.021463
0.148441
0.0487449
0.0473811
0.0724923
0.224004
0.0533421
0.034177
0.0524063
0.0542117
0.0972264
0.18704
0.0607323
0.0545827
0.0967774
0.0968536
0.00422815
0.218015
0.0526069
0.0695749
0.125601
0.17196
0.00165909
0.0541339
0.222561
0.0450867
0.0436583
0.137076
0.0258689
0.0384552
0.200997
0.0545214
0.219985
0.100988
0.0345872
0.0427058
0.113423
0.0401472
0.0524892
0.0775902
0.0497611
0.051067
0.0507421
0.0210114
0.132296
0.0489667
0.0690867
0.0467159
0.0631428
0.070254
0.048494
0.0453633
0.217466
0.0494897
0.0430061
0.0454571
0.22211
0.0532708
0.0445312
0.0616741
0.164279
0.0663692
0.0484841
0.0540665
0.0472792
0.0027185
0.220276
0.0670598
0.047343
0.0349957
0.227321
0.0892626
0.0240682
0.0460767
0.00970897
0.097153
0.219085
0.044898
0.217703
0.0418655
0.0276132
0.221733
0.218527
0.226395
0.0337343
0.223046
0.013253
0.0162632
0.0461037
0.0242726
0.0207569
0.0566154
0.166467
0.222585
0.21359
0.23058
0.211657
0.131252
0.0954416
0.0353464
0.0432229
0.0507173
0.124645
0.139794
0.0860571
0.186021
0.0660872
0.0473232
0.150999
0.0595943
0.21244
0.211918
0.0265463
0.213611
0.140624
0.19352
0.227164
0.044347
0.176572
0.142644
0.151311
0.142018
0.044641
0.10889
0.214642
0.229037
0.0536586
0.209632
0.227161
0.218607
0.18167
0.0375358
0.230431
0.039964
0.203634
0.204316
0.0397153
0.0441551
0.0355053
0.125951
0.223762
0.0916675
0.141365
0.0360699
0.156726
0.224134
0.0473123
0.183181
0.0456707
0.187116
0.212078
0.230366
0.211333
0.0768932
0.0848321
0.1005
0.177359
0.0474764
0.19859
0.19877
0.0458377
0.188504
0.108994
0.0460594
0.14132
0.19163
0.044584
0.214931
0.0375169
0.19576
0.234251
0.0418159
0.119396
0.0425301
0.145054
0.0446812
0.0213413
0.224194
0.147207
0.0723296
0.097812
0.124634
0.118007
0.0179808
0.112295
0.110333
0.213611
0.150605
0.237439
0.204114
0.0598502
0.218312
0.0226078
0.0235318
0.158796
0.135301
0.188664
0.187988
0.0249386
0.0212911
0.108492
0.221146
0.178872
0.203854
0.23485
0.0242255
0.181088
0.148304
0.181571
0.187281
0.138644
0.225183
0.191156
0.194635
0.0552824
0.0593679
0.233584
0.0243219
0.0216002
0.0407917
0.206526
0.221607
0.224692
0.0396541
0.037508
0.164526
0.0389673
0.0400881
0.169417
0.229377
0.187067
0.0621405
0.213165
0.108545
0.184454
0.18633
0.230615
0.038012
0.136154
0.136973
0.0401383
0.0385245
0.0365354
0.0387659
0.14525
0.0402452
0.229845
0.182072
0.167886
0.0401334
0.0354765
0.0790247
0.176512
0.23116
0.105913
0.0952071
0.228819
0.0173812
0.0310315
0.0629643
0.0984159
0.0305074
0.0393501
0.0408649
0.0760844
0.0410139
0.228766
0.229845
0.0838446
0.22885
0.133747
0.0755144
0.036691
0.0601574
0.0565609
0.0673171
0.0393104
0.0334518