/*--------------------------------*- C++ -*----------------------------------*\
| =========                 |                                                 |
| \\      /  F ield         | OpenFOAM: The Open Source CFD Toolbox           |
|  \\    /   O peration     | Version:  2406                                  |
|   \\  /    A nd           | Website:  www.openfoam.com                      |
|    \\/     M anipulation  |                                                 |
\*---------------------------------------------------------------------------*/
FoamFile
{
    version     2.0;
    format      ascii;
    arch        "LSB;label=32;scalar=64";
    class       surfaceScalarField;
    location    "66";
    object      phi;
}
// * * * * * * * * * * * * * * * * * * * * * * * * * * * * * * * * * * * * * //

dimensions      [0 3 -1 0 0 0 0];

oriented        oriented;

internalField   nonuniform List<scalar> 
113358
(
-1.46403e-05
3.02727e-05
-2.12793e-05
5.64695e-06
2.14401e-05
2.68401e-07
-5.7401e-06
-1.59684e-05
-2.52182e-05
1.89079e-05
-2.91379e-06
9.22414e-06
-2.36665e-05
-6.13419e-06
2.3201e-05
6.59973e-06
-1.72874e-05
9.1961e-07
3.01301e-05
-1.37623e-05
1.36156e-05
-1.41962e-05
-7.96037e-06
8.54096e-06
-7.1923e-06
3.36394e-05
-2.46115e-05
-1.83563e-06
-7.06877e-07
-3.05873e-05
1.67021e-05
1.4592e-05
8.08348e-06
5.73388e-07
1.77714e-05
-2.64283e-05
6.89185e-06
3.49527e-06
-1.01096e-05
-2.77355e-07
-6.07516e-06
2.30924e-05
-2.18158e-05
4.79855e-06
-1.46584e-05
1.22417e-07
-3.51539e-07
1.48875e-05
-4.40097e-05
3.41e-06
1.16799e-05
2.89196e-05
1.18582e-06
-2.52257e-06
1.33674e-06
1.87338e-06
-1.36685e-06
1.84557e-05
-1.89623e-05
9.82611e-07
3.19326e-07
1.1217e-05
-1.25191e-05
9.75003e-06
3.59919e-05
-2.9374e-05
-1.63679e-05
-1.95091e-05
1.07859e-05
6.70864e-06
2.01456e-06
1.50633e-05
-3.79574e-05
3.17543e-05
-8.86026e-06
2.64618e-05
3.02716e-06
2.80768e-05
-5.75657e-05
1.88956e-05
3.69578e-07
-4.82903e-07
-1.87823e-05
-1.15916e-05
4.65376e-05
4.3532e-06
-3.92995e-05
-9.44112e-07
-4.52438e-05
4.95393e-05
-3.35147e-06
-8.76325e-07
4.14551e-06
3.1056e-07
-3.57965e-06
-4.80415e-05
2.09634e-05
-4.17041e-06
3.12484e-05
-2.11338e-05
4.9539e-06
1.74038e-05
-1.22429e-06
-9.04248e-06
8.75369e-06
-1.79448e-07
4.68235e-07
-1.88136e-06
-7.44657e-06
5.32752e-06
4.00042e-06
1.88633e-05
-4.0948e-07
4.41838e-07
-2.10754e-06
2.09967e-06
7.90806e-09
-5.4417e-06
-2.58639e-05
2.74669e-05
3.83872e-06
5.07056e-06
-2.60255e-07
-8.07919e-06
3.26888e-06
2.0161e-05
-1.05117e-06
1.17409e-06
-2.0284e-05
-2.72487e-05
1.25725e-05
-2.93227e-06
1.76085e-05
1.75058e-05
2.57875e-06
-1.98261e-05
-2.58418e-07
-3.41368e-05
8.68185e-06
-1.19198e-05
3.73746e-05
-3.49302e-08
-2.04521e-06
2.08017e-06
9.35018e-06
1.07755e-05
1.75601e-06
-2.18817e-05
7.31507e-06
-3.69768e-05
3.0371e-05
-7.09207e-07
-3.50181e-06
4.36483e-06
3.72555e-05
-3.81187e-05
-1.8399e-05
1.56378e-05
-1.94109e-05
2.21721e-05
9.20011e-08
-2.41152e-05
-3.10155e-05
5.50387e-05
-1.34312e-06
4.33929e-05
-1.23858e-05
-2.9664e-05
5.08506e-06
-1.78706e-05
-7.12418e-06
-6.40135e-06
3.24318e-05
-2.99009e-07
-2.57314e-05
-2.17266e-06
1.5081e-05
-1.00687e-05
-2.83959e-06
-3.04428e-05
-1.21406e-05
4.12403e-05
-1.176e-05
3.58398e-05
1.58947e-06
-2.56692e-05
-3.41004e-05
4.25103e-06
-5.51767e-06
3.5367e-05
3.55931e-05
1.58852e-05
-4.71109e-05
-4.36733e-06
2.32255e-05
-1.61794e-05
1.55248e-06
-8.59861e-06
-9.94674e-06
2.8636e-06
1.0099e-05
-3.0158e-06
2.86256e-05
-7.67108e-06
1.61986e-05
-3.71534e-05
-1.01483e-05
-3.71437e-05
4.04246e-05
6.86753e-06
-2.06033e-06
7.53598e-06
-8.7583e-06
3.28265e-06
2.79506e-05
-1.2026e-05
2.01404e-05
-3.6065e-05
-2.13896e-05
4.97266e-06
3.74329e-05
-2.10159e-05
1.10955e-05
-5.40974e-06
4.2596e-06
-9.9453e-06
3.97374e-05
-1.03473e-05
-3.0559e-05
1.16857e-06
-1.30289e-05
-1.47851e-05
8.15867e-06
1.96553e-05
-3.08234e-05
-5.08674e-06
1.45006e-05
2.14095e-05
-2.70695e-06
3.10433e-06
-3.97398e-07
3.64232e-05
-6.24788e-06
-3.59737e-05
5.79839e-06
-1.60129e-05
-4.33335e-05
1.73494e-05
4.19971e-05
-3.95168e-06
4.30571e-06
-3.34166e-05
3.30626e-05
1.5826e-06
2.17371e-05
3.11769e-06
-2.64374e-05
3.31998e-06
-2.74958e-06
-5.70465e-07
-2.32755e-08
7.00964e-08
1.11233e-05
-1.11702e-05
6.24095e-06
-3.01979e-05
3.26594e-05
-8.7025e-06
9.6758e-06
-2.42479e-05
2.34813e-05
-8.90924e-06
6.98876e-06
-7.20719e-06
2.18513e-07
-1.97643e-05
-6.4183e-06
3.43579e-05
-8.1754e-06
-2.33461e-07
3.88246e-06
-3.64905e-06
7.56449e-06
-2.93397e-05
8.76035e-06
1.30148e-05
4.98116e-05
-3.61828e-06
-3.40703e-06
-4.27862e-05
-2.7291e-05
-3.3242e-05
3.59371e-05
2.45959e-05
3.97065e-06
-3.74878e-05
6.22616e-06
3.67339e-05
-2.9621e-05
-8.6037e-07
-6.2525e-06
1.04315e-07
1.62051e-07
-1.45432e-05
1.4277e-05
6.41372e-06
8.48532e-06
1.29745e-05
-2.78735e-05
7.42862e-06
-3.89921e-06
3.0075e-06
-6.53682e-06
-1.6124e-05
-1.12173e-05
2.73395e-05
1.79599e-09
-2.1152e-05
2.60999e-05
-1.88904e-05
1.39425e-05
-2.89938e-06
1.21111e-09
2.89815e-06
-3.08622e-05
3.458e-05
-3.54239e-05
2.73057e-05
-2.72404e-06
-9.01965e-07
-6.02529e-07
4.22856e-06
6.42636e-05
-6.17955e-05
1.85578e-06
-4.32381e-06
-1.13335e-05
3.51664e-06
1.08991e-05
-3.08243e-06
-4.6446e-06
2.57615e-05
-2.82898e-05
7.17292e-06
-1.79901e-05
-2.12963e-05
3.14735e-05
7.81288e-06
9.11091e-06
-1.31067e-05
1.85068e-05
-1.45109e-05
7.79557e-06
2.61779e-05
-5.34389e-05
1.94655e-05
-3.37066e-05
1.21225e-05
1.462e-05
6.96409e-06
9.62737e-07
-3.1141e-05
2.53462e-05
4.83193e-06
-2.70988e-05
2.50615e-06
9.68302e-06
1.49096e-05
2.3382e-05
-2.03062e-05
6.97039e-06
-1.00462e-05
1.24002e-06
1.13755e-05
-1.24335e-05
-1.82028e-07
1.71203e-05
-2.43059e-06
-2.51382e-06
-1.21759e-05
1.60127e-05
1.83805e-05
-1.60989e-05
-1.82943e-05
2.29207e-06
-7.16209e-07
4.09194e-06
-5.66775e-06
4.4027e-06
-2.66751e-07
-4.1358e-06
3.15878e-08
3.65357e-06
-3.68515e-06
-4.70352e-07
2.90398e-06
-1.24478e-05
1.00141e-05
-2.03125e-05
4.09583e-05
4.33104e-07
-2.10788e-05
4.81462e-06
-2.2293e-05
1.72434e-05
2.35009e-07
-2.89276e-06
-3.81996e-06
1.08586e-06
5.62682e-06
-5.59357e-06
-1.35975e-05
3.61384e-06
1.55771e-05
-2.97805e-06
1.90654e-05
8.26371e-06
-2.43516e-05
3.94618e-06
3.51888e-06
-1.70621e-05
9.59718e-06
-2.71592e-06
2.83817e-05
-3.22823e-05
6.6165e-06
-7.04618e-06
7.21975e-06
-1.73968e-07
1.73557e-05
-2.1518e-05
3.44047e-06
7.2171e-07
1.84037e-05
1.08547e-05
-3.24489e-05
3.19043e-06
-2.67317e-05
-1.51624e-05
7.48696e-06
3.44072e-05
-2.08385e-06
-2.03437e-05
8.70044e-07
2.15574e-05
1.22301e-05
-1.26918e-05
9.99075e-08
3.61842e-07
1.60485e-05
-2.81459e-05
-5.35432e-06
1.74518e-05
-3.27846e-06
2.5861e-07
3.01979e-06
-4.45818e-06
-1.31903e-06
2.95417e-05
-2.37645e-05
-1.60243e-05
1.01933e-05
5.12953e-05
-4.54642e-05
-1.1124e-05
2.28287e-05
-3.32241e-05
2.15195e-05
1.64291e-06
-2.55762e-05
2.04082e-05
3.52528e-06
-4.09899e-06
-9.51391e-06
3.38176e-05
-2.02047e-05
2.31886e-05
-9.81893e-06
-1.02988e-05
-3.07084e-06
-2.84202e-06
-1.22328e-05
1.81151e-05
-3.04031e-06
5.74072e-06
-2.8063e-06
-2.93441e-06
-1.1042e-06
-2.49982e-05
-6.61164e-06
3.27141e-05
-1.47491e-05
2.06306e-05
5.87004e-06
-1.17516e-05
6.05952e-06
-1.49135e-05
2.54093e-05
-1.65553e-05
-4.98624e-05
1.20152e-05
-8.91561e-07
3.87387e-05
-2.50374e-06
-4.15561e-05
3.76805e-05
6.37919e-06
5.31733e-08
-3.72148e-06
3.66842e-06
2.06996e-05
-3.23766e-05
6.60033e-07
1.1017e-05
3.47708e-05
3.97549e-06
-3.7472e-05
-1.27439e-06
1.05389e-05
1.20517e-06
-2.51132e-05
1.33692e-05
-9.41936e-06
1.29919e-05
1.48312e-05
-2.58123e-05
-2.15631e-05
1.29477e-05
3.44277e-05
5.41284e-06
2.88618e-06
-3.89607e-06
6.78392e-06
-5.01144e-06
-2.5736e-05
2.39636e-05
4.27647e-06
1.36052e-05
-6.09054e-06
-1.17911e-05
-8.13966e-06
1.77905e-05
3.60568e-05
-4.57079e-05
1.69013e-07
2.28598e-06
-2.45497e-06
-2.2035e-05
3.49199e-06
1.36718e-05
4.87141e-06
3.55696e-05
-1.93152e-05
-2.4174e-05
7.91958e-06
3.28008e-05
-7.88735e-06
-3.7409e-06
-2.11725e-05
-2.86511e-05
-1.17196e-06
-7.46796e-07
3.05698e-05
2.55907e-05
1.1436e-05
-3.49922e-05
-2.03442e-06
6.92835e-06
4.83015e-06
-1.17585e-05
1.80124e-06
-2.47554e-05
-1.3472e-07
2.3089e-05
3.88772e-05
-2.99315e-05
-2.90877e-06
-6.03696e-06
4.19425e-06
-5.98475e-07
-3.35442e-06
-2.41382e-07
-3.31e-05
4.71014e-05
2.01762e-05
-3.41777e-05
1.80441e-05
-2.96725e-05
-2.91803e-06
1.45465e-05
-2.33229e-05
2.54327e-05
-8.78296e-07
-1.23144e-06
-2.85761e-06
1.4111e-06
1.44649e-06
3.40233e-05
-3.78157e-06
9.75691e-06
-3.99986e-05
-2.56792e-05
3.50546e-05
-3.26983e-05
6.08814e-08
2.27752e-06
1.84619e-05
-2.08004e-05
2.52156e-06
-2.44008e-06
-8.14999e-08
-1.08339e-05
-6.07996e-06
1.01588e-06
1.58979e-05
-8.29069e-06
2.0667e-05
-1.57548e-05
3.37848e-06
1.50379e-06
-4.56377e-06
2.85935e-06
2.00661e-07
-1.79677e-06
-1.67677e-06
3.47352e-06
-2.17744e-05
2.18539e-05
2.19007e-05
-2.198e-05
5.44922e-05
-1.34953e-05
-1.20326e-05
-2.89643e-05
1.26338e-05
4.61791e-07
-3.97505e-07
-1.2698e-05
3.77792e-05
-4.59367e-05
6.41796e-06
1.73948e-06
2.9898e-06
-4.75552e-08
-2.94223e-06
-6.02124e-06
2.89466e-05
-2.77633e-05
4.83802e-06
-1.3699e-05
1.43129e-05
-1.55741e-06
9.43542e-07
-1.01033e-05
8.82255e-06
5.95343e-07
6.85456e-07
2.38142e-06
-1.90783e-05
7.01174e-06
9.68516e-06
-1.135e-05
-1.07041e-05
2.60871e-05
-4.03289e-06
-1.4241e-05
1.39661e-05
2.4337e-07
3.16144e-08
-3.01737e-05
-3.60765e-05
3.58074e-05
-1.16722e-05
3.77242e-05
1.20699e-05
-3.8122e-05
6.01422e-06
3.03345e-05
7.0884e-06
-4.34371e-05
-1.30599e-05
5.89547e-06
1.75066e-05
-1.03421e-05
-2.18696e-08
7.15403e-08
1.01821e-05
-1.02317e-05
1.21582e-06
3.85677e-05
-5.68457e-06
-3.40988e-05
-3.76152e-06
-2.41079e-06
4.02655e-06
2.1458e-06
4.04647e-06
-3.82344e-06
-2.22944e-07
-3.38207e-06
-1.18547e-05
9.95795e-07
-3.16847e-05
4.26217e-07
-6.30595e-06
3.75645e-05
-1.4519e-05
1.30554e-05
4.04314e-07
1.0592e-06
-4.18967e-07
7.97408e-06
-1.34632e-07
-7.42056e-06
-2.74967e-06
2.68027e-06
6.94366e-08
3.09021e-06
-8.46065e-07
2.08839e-05
-2.31279e-05
2.77748e-05
3.12918e-06
-2.42788e-05
-6.62525e-06
-3.38255e-06
-1.5839e-05
-1.00383e-05
1.32263e-05
-1.45768e-05
1.01209e-06
3.38075e-07
8.04295e-06
-3.25485e-05
3.81897e-05
-1.36842e-05
1.06297e-05
2.16195e-06
-5.53788e-06
-7.25372e-06
-1.6665e-05
-3.85363e-05
1.00944e-05
4.51071e-05
5.74665e-08
2.52502e-06
-2.0036e-07
-2.38195e-06
9.41831e-06
-6.29998e-07
1.4594e-06
-1.02474e-05
-9.53915e-06
2.12403e-07
9.41843e-06
-9.15161e-08
2.20052e-05
3.62e-06
-2.76134e-05
1.98818e-06
-3.17775e-05
-1.77911e-05
4.05618e-05
9.00685e-06
-6.87907e-06
2.94227e-06
-6.29423e-06
7.53203e-06
3.18015e-05
-4.08003e-05
1.46664e-06
-2.18888e-05
-2.20848e-05
8.78197e-06
3.51919e-05
-2.61978e-06
2.86283e-06
-2.43041e-07
1.74525e-05
9.97502e-06
-1.93638e-06
-2.54911e-05
-7.19305e-07
-4.41382e-06
-2.93858e-05
3.45186e-05
-2.35454e-05
5.76673e-06
5.76195e-05
-3.98406e-05
2.82906e-05
-2.07794e-05
-1.13831e-05
3.87172e-06
2.52718e-06
-1.03434e-07
-2.42381e-06
4.16436e-05
-2.09494e-05
2.95464e-06
-2.36486e-05
9.07212e-06
-9.7874e-06
1.2666e-06
-5.51256e-07
2.42318e-06
2.30887e-06
-4.73206e-06
-1.65907e-05
-2.10111e-05
4.35222e-06
3.32494e-05
-1.0907e-05
2.05322e-07
1.13084e-05
-6.06739e-07
2.059e-05
-4.21367e-05
5.52035e-07
2.09946e-05
-2.2608e-05
-2.72243e-05
3.64417e-05
1.33906e-05
-1.31461e-05
1.81039e-05
2.78431e-05
5.40707e-06
2.9177e-05
-3.0445e-05
-4.13905e-06
1.79922e-06
1.36642e-06
-1.21112e-05
8.94551e-06
-3.39296e-05
1.47977e-05
1.2178e-05
6.9539e-06
1.28184e-05
3.37534e-06
-1.46042e-06
-1.47335e-05
-3.30803e-06
-2.53639e-05
2.678e-06
2.59939e-05
6.93674e-06
-2.71144e-06
2.83889e-05
-3.26142e-05
-1.88562e-06
-7.98883e-08
-4.7786e-06
6.74409e-06
6.8383e-07
1.12839e-05
-4.22005e-05
3.02329e-05
-1.5218e-05
-3.0924e-05
-1.11513e-06
4.72571e-05
3.45294e-07
4.86588e-06
-5.21107e-06
7.63055e-08
-1.83328e-07
1.06483e-05
-1.05413e-05
2.77368e-06
1.79024e-05
1.51386e-05
-3.58148e-05
2.52342e-07
-1.40267e-05
1.5835e-07
1.3616e-05
4.49716e-06
-2.17088e-05
-1.67262e-05
3.3938e-05
1.61231e-05
2.03091e-05
-1.77471e-05
-1.86852e-05
3.64232e-05
2.19151e-05
-4.90552e-05
-9.2831e-06
1.31561e-07
-4.18954e-06
4.05795e-06
2.60692e-06
1.27237e-06
-2.80926e-09
-3.87649e-06
1.85608e-06
2.43942e-06
2.97383e-07
-4.59287e-06
2.37954e-06
-2.87228e-06
1.44588e-05
1.97106e-07
-2.76553e-05
1.03523e-05
1.71061e-05
5.98189e-05
5.99914e-06
-1.25366e-05
-5.32815e-05
-7.7244e-06
1.05178e-05
-2.64631e-06
-1.47155e-07
-1.85519e-05
1.74883e-05
-2.97661e-05
3.08297e-05
2.9753e-06
5.76612e-08
-3.03307e-06
1.14971e-06
8.20628e-06
-1.56966e-05
6.34063e-06
2.95489e-06
-4.45595e-06
1.50103e-06
3.04806e-05
-1.63066e-05
-8.11447e-06
-1.57237e-05
5.68029e-06
-1.46382e-05
2.46817e-05
3.34411e-05
-3.26097e-05
5.2491e-06
-6.08056e-06
1.38556e-05
4.60813e-06
-1.66092e-05
-1.85446e-06
3.48601e-06
-4.07025e-05
1.41608e-05
2.30557e-05
2.63482e-05
-5.37128e-06
4.45581e-06
5.21261e-05
-5.74635e-05
1.83539e-06
-3.24427e-05
2.50242e-06
3.34963e-05
-3.556e-06
-3.30241e-05
-2.13625e-05
3.58348e-05
-1.19012e-05
-1.19614e-05
-1.67731e-05
4.06357e-05
-1.44582e-06
4.57025e-06
4.00958e-05
-4.32202e-05
1.39182e-06
2.98617e-05
-5.11332e-05
1.98797e-05
-8.24309e-08
3.13119e-08
1.73765e-05
-1.73256e-05
-4.28182e-05
7.24468e-06
3.07779e-06
3.24956e-05
1.15985e-05
-1.1688e-05
3.95281e-06
-3.86317e-06
6.96734e-07
1.06735e-05
-1.3599e-05
2.22879e-06
-2.27778e-05
3.47557e-05
-4.61068e-06
-7.36721e-06
-3.6971e-05
2.73357e-05
1.69613e-06
7.93899e-06
-2.67913e-05
2.72135e-05
3.54707e-05
-3.58929e-05
3.63529e-05
-2.97302e-05
1.12815e-06
-7.75069e-06
-1.27822e-05
1.64376e-05
-9.81749e-06
6.16211e-06
-7.2205e-06
1.66045e-05
1.38178e-06
-1.07656e-05
-3.82739e-05
3.19704e-06
4.17544e-05
-6.67752e-06
-4.28906e-06
-2.40464e-05
4.01566e-07
2.79342e-05
2.27442e-06
-7.84929e-06
6.27167e-06
9.10906e-06
7.4078e-07
-8.7303e-06
-1.11956e-06
9.76876e-06
1.83289e-05
-2.13153e-05
-6.78231e-06
-1.08e-05
1.53391e-05
2.63035e-05
-3.08427e-05
8.4349e-07
4.1609e-06
-3.52102e-05
3.02059e-05
1.63572e-05
-2.48723e-05
8.36386e-06
1.51266e-07
-4.1804e-05
-6.68028e-06
1.15136e-05
-3.18146e-06
-8.4021e-07
-2.34835e-05
2.75051e-05
-3.07116e-06
4.4551e-08
3.02662e-06
-5.446e-06
-6.76603e-06
4.44421e-05
-3.22301e-05
4.97673e-06
-4.74138e-06
-2.35314e-07
2.5384e-07
1.90132e-07
-9.17622e-06
8.73237e-06
-2.13688e-05
2.11548e-05
3.66373e-05
5.78556e-06
3.25573e-05
-2.3326e-05
-1.50167e-05
4.28753e-06
-4.36409e-06
7.65135e-08
-4.36011e-06
4.80133e-05
-2.63084e-05
-1.73447e-05
-2.57953e-05
2.72898e-05
1.90955e-05
-1.95121e-06
2.61657e-05
1.06984e-05
-3.49129e-05
-3.72149e-05
-1.37333e-05
4.96992e-05
1.24894e-06
-4.48031e-06
4.06034e-06
4.19915e-07
3.65371e-05
-3.88963e-05
-5.17716e-07
2.877e-06
-2.42714e-05
-1.54659e-05
2.2141e-05
1.75963e-05
-4.23253e-06
1.97591e-06
-2.42455e-05
2.65021e-05
-2.83096e-05
-7.32779e-06
5.98019e-07
3.50395e-05
-1.80576e-05
-8.98162e-06
-6.66747e-06
1.52723e-05
-3.49686e-05
-2.99127e-06
2.26875e-05
8.58154e-06
-3.58446e-05
-1.08496e-05
3.81126e-05
7.09065e-06
-6.74658e-06
-3.44107e-07
-3.04225e-05
5.10349e-05
-7.17177e-06
-1.34406e-05
-6.41476e-06
-2.66476e-05
2.99899e-05
3.07246e-06
-5.14079e-05
5.28054e-05
-5.96759e-06
4.5701e-06
-2.92486e-05
-7.09103e-06
2.11355e-05
1.5204e-05
-2.60051e-05
-5.6246e-06
3.17967e-05
-1.66856e-07
-3.26354e-07
9.82755e-08
-1.20043e-05
1.22324e-05
3.26209e-06
1.64774e-07
-3.42693e-06
-5.93297e-06
5.99309e-06
-6.00882e-08
4.34257e-05
-3.7738e-05
-5.11185e-05
4.54306e-05
2.74835e-06
1.13203e-07
-2.86151e-06
-2.79022e-05
2.74575e-05
-3.3344e-07
7.78149e-07
-1.00991e-05
8.54785e-06
2.16039e-07
1.33533e-06
5.40634e-06
5.31498e-05
-2.87675e-05
-2.97887e-05
-3.07291e-05
-9.41151e-06
3.67807e-06
3.64622e-05
3.3671e-05
1.55936e-05
-1.53951e-05
-3.38695e-05
1.23815e-05
-4.61581e-06
1.49298e-06
-9.25864e-06
3.54974e-05
-3.53692e-06
-2.56185e-05
-6.34218e-06
-3.75683e-06
5.58164e-06
-6.23366e-06
4.40889e-06
-2.52911e-06
8.41574e-06
3.08599e-06
-8.97263e-06
-1.5002e-05
-7.9063e-06
4.24385e-05
-1.95301e-05
6.03775e-06
2.38106e-05
-2.3227e-05
-6.62143e-06
-2.25509e-05
2.32361e-05
1.49944e-05
-1.56796e-05
2.25184e-05
-2.03908e-05
-2.69101e-06
5.63516e-07
-4.83088e-08
-1.05371e-05
-4.94181e-08
1.0635e-05
-6.75686e-06
1.27763e-05
-1.43041e-06
-4.58902e-06
-3.19163e-05
-1.09399e-05
1.56644e-05
2.71917e-05
2.60079e-05
-2.18243e-05
-4.47244e-06
2.89013e-07
1.0446e-05
-3.52174e-05
-4.09762e-05
6.57477e-05
2.29534e-05
-3.00652e-05
-1.44398e-05
2.15519e-05
-6.35817e-06
-5.61606e-05
1.47932e-05
4.77255e-05
1.76743e-05
-1.56966e-05
2.4812e-06
-4.45889e-06
2.99789e-05
-1.05752e-05
-3.62346e-05
1.68308e-05
1.35764e-05
2.36734e-05
-5.39561e-05
1.6706e-05
-7.88903e-06
3.23015e-05
-2.85596e-05
4.1472e-06
-3.00108e-05
3.48208e-05
3.51548e-05
-3.99647e-05
-2.44758e-08
-1.35861e-05
1.17971e-05
1.81351e-06
3.92133e-06
-3.68804e-06
-2.33101e-07
3.85226e-05
-4.77997e-05
1.38805e-06
-3.88169e-06
5.16733e-06
2.75457e-06
-4.04013e-06
-2.78701e-06
1.38735e-07
-1.37375e-06
4.02213e-06
1.95421e-05
-2.54134e-06
1.77321e-05
-2.71279e-05
1.02281e-06
8.37288e-06
-9.16425e-06
-2.29756e-06
8.6198e-06
2.72383e-05
-3.54743e-05
2.00719e-05
-1.18358e-05
-2.90011e-05
-4.15689e-06
3.50183e-05
-1.8605e-06
-6.25071e-05
-9.68961e-06
5.56233e-05
1.65734e-05
-4.43497e-05
1.22598e-05
1.04284e-06
3.10472e-05
-3.90699e-06
3.04895e-07
8.18205e-07
2.78379e-06
-2.7082e-05
-3.27494e-05
2.45871e-05
3.52443e-05
2.1182e-05
1.83975e-05
-3.19536e-05
-7.62577e-06
1.0613e-07
1.36039e-05
-1.15262e-05
-2.18393e-06
-5.23472e-07
-2.11339e-05
4.19509e-05
-2.02935e-05
4.30439e-05
-3.0654e-05
-1.64889e-05
2.78448e-05
-3.12779e-05
6.19452e-06
-2.76166e-06
-3.96571e-06
-2.5452e-05
2.76919e-05
1.7259e-06
4.13222e-05
-2.87603e-06
-4.24118e-05
2.3136e-05
-2.60751e-05
6.54759e-06
-3.60855e-06
1.72111e-06
-1.14087e-05
-9.26948e-07
1.06146e-05
-2.40723e-06
2.31824e-06
-2.76104e-06
2.85002e-06
-1.72038e-06
4.2368e-06
1.39429e-06
-3.91091e-06
-6.88932e-06
-1.83695e-05
-1.47013e-06
2.67289e-05
1.09296e-05
8.75915e-06
-2.97812e-05
1.00924e-05
-1.87058e-05
5.98691e-07
6.69714e-06
1.141e-05
-1.58468e-06
-1.71996e-05
1.67005e-05
-2.21719e-05
2.63188e-05
8.37265e-06
-1.25193e-05
-3.29857e-05
3.84337e-05
-1.23159e-05
6.86793e-06
-6.16643e-06
-1.98516e-05
2.05156e-06
2.39665e-05
1.52514e-06
3.48372e-05
-4.09655e-05
4.60314e-06
1.72492e-05
-5.40476e-05
1.13907e-05
2.54076e-05
4.94248e-06
-3.84898e-05
2.09833e-05
1.25639e-05
1.60426e-06
2.12698e-05
-7.33688e-06
-1.55373e-05
-3.72919e-06
1.81276e-06
3.64828e-06
-1.73187e-06
-3.96723e-06
7.89592e-06
-2.9277e-05
2.53483e-05
-1.50112e-06
-1.04088e-05
2.6915e-07
1.16407e-05
1.6267e-07
1.06873e-05
-1.60983e-07
-1.06892e-05
1.7243e-07
2.37927e-07
1.09417e-05
-1.13518e-05
-9.65231e-06
-1.63142e-05
2.90795e-05
-3.11286e-06
3.13913e-06
-3.14673e-05
1.69876e-05
1.13408e-05
3.38639e-05
8.34892e-07
2.71933e-06
-3.74181e-05
2.49871e-06
-2.55933e-06
6.06342e-08
1.04884e-05
2.10354e-05
-2.65814e-05
-1.05378e-05
3.88518e-08
1.30154e-07
1.03688e-05
2.29045e-06
-2.89521e-05
1.04911e-05
1.61706e-05
8.18729e-07
6.88364e-06
-6.96578e-06
-7.36662e-07
-5.43117e-06
-1.14597e-05
2.19679e-05
-5.07702e-06
2.68917e-05
-2.99638e-05
2.58474e-05
-2.27753e-05
1.9096e-05
-8.79129e-06
-3.26602e-05
2.23555e-05
-1.80567e-06
-1.71884e-06
3.52451e-06
1.11152e-05
2.31476e-06
-3.21026e-06
-1.02196e-05
-2.42747e-05
3.63674e-05
2.6764e-06
2.26461e-06
-4.94099e-06
2.41252e-06
-3.11098e-05
-3.70039e-07
2.90673e-05
-1.40696e-07
5.36449e-07
2.06397e-05
-1.43533e-06
2.18471e-05
-4.39025e-05
2.34908e-05
-6.93583e-06
-1.97403e-05
-2.76374e-06
2.94399e-05
5.47691e-06
-8.84435e-06
9.19658e-06
-5.82922e-06
-7.34927e-06
-3.63065e-05
-4.5282e-06
4.81839e-05
1.97354e-05
3.74287e-06
-2.27419e-05
-7.36346e-07
7.31936e-06
3.43003e-05
-5.67593e-05
1.51397e-05
-2.44217e-06
-1.42249e-05
-8.31555e-06
2.49826e-05
-1.79798e-05
-5.7683e-06
9.55919e-06
1.4189e-05
-1.02906e-06
-1.16899e-06
-1.22145e-05
1.44124e-05
4.31554e-05
-1.7816e-05
-1.02992e-05
-1.50401e-05
-2.66753e-05
6.42473e-05
-3.48605e-05
-2.71125e-06
1.05342e-05
2.87993e-07
2.82399e-07
-1.11047e-05
2.90938e-05
-3.49913e-05
3.46168e-05
-2.87194e-05
-5.05874e-06
1.58934e-05
-1.28295e-05
1.99473e-06
1.62948e-05
-5.87755e-05
2.15054e-06
4.03302e-05
1.0665e-05
5.21662e-05
-4.44453e-05
-1.83859e-05
5.93374e-06
-5.79325e-06
-9.64507e-06
9.50474e-06
-2.19874e-05
-1.37302e-05
3.93987e-05
-3.68117e-06
3.54324e-05
-2.91763e-05
-4.16475e-05
3.53914e-05
1.83054e-05
1.47995e-05
-9.47845e-06
-2.36262e-05
1.24021e-07
-1.57482e-05
7.67493e-08
3.64231e-06
-3.71893e-06
-3.19355e-06
3.08253e-06
1.10957e-07
2.58663e-05
-2.4316e-05
-2.20606e-05
2.05103e-05
-7.85906e-06
1.01462e-05
-2.85486e-05
2.62612e-05
4.31007e-05
-3.36554e-05
-6.98106e-06
-2.46419e-06
-4.43121e-06
1.09998e-06
2.86086e-06
-9.14074e-06
3.22724e-05
-8.63528e-06
-1.44963e-05
-4.0392e-05
1.0364e-06
1.40305e-05
2.53247e-05
1.63127e-05
-7.3291e-06
-1.57861e-05
6.80237e-06
9.4628e-06
3.98371e-05
-3.77953e-05
-1.15045e-05
-2.4227e-05
-4.74536e-06
4.61384e-05
-1.71658e-05
2.29424e-06
2.56249e-05
5.82002e-06
-3.3739e-05
8.68996e-06
2.7811e-05
-3.42068e-05
1.79513e-05
-1.32119e-05
-6.9879e-06
2.24853e-06
2.50254e-05
-3.18496e-05
1.41435e-05
-1.24007e-05
7.84758e-06
7.41134e-06
-2.85824e-06
1.03398e-05
1.18633e-05
2.36072e-05
-4.58103e-05
4.17969e-06
-2.62268e-05
-4.03515e-06
2.60818e-05
3.20313e-07
2.82726e-05
2.5003e-06
-3.10932e-05
1.4072e-05
2.59917e-05
-4.36063e-05
3.54258e-06
-5.65949e-05
4.71872e-05
-7.40621e-07
2.72162e-07
3.91906e-05
-2.98643e-06
-3.64766e-05
-3.07352e-06
6.95756e-06
-9.51102e-06
5.62704e-06
-7.67035e-07
-3.30314e-06
2.20199e-07
3.85e-06
-3.15988e-06
3.04186e-06
1.18002e-07
-4.86236e-06
-8.35003e-06
3.81284e-05
-2.49159e-05
-3.39043e-05
5.11239e-06
-1.49462e-05
4.37381e-05
4.39634e-05
-1.04615e-05
-1.44636e-05
-1.90384e-05
3.31077e-06
-3.12177e-05
1.13628e-05
1.65442e-05
3.20435e-06
-2.8933e-06
-1.12927e-06
8.18071e-07
-3.70321e-06
3.57118e-06
1.32089e-07
1.81997e-06
2.60871e-05
-4.61237e-06
-2.32946e-05
-5.71449e-06
2.7265e-05
-3.52689e-05
1.37184e-05
1.30123e-05
2.14886e-05
-5.02698e-05
1.57689e-05
-1.97128e-06
2.59386e-05
1.93304e-05
-4.32977e-05
-4.07334e-05
2.20866e-05
2.35117e-05
-4.86495e-06
4.3576e-05
-4.4767e-05
9.07812e-06
-7.8869e-06
-3.11381e-05
-4.90436e-07
-9.10479e-06
2.22912e-07
4.94123e-06
-5.16414e-06
2.9133e-05
3.87116e-06
-2.41255e-05
-8.87887e-06
-1.77691e-06
-2.50588e-06
1.19764e-05
-7.69364e-06
3.03715e-06
5.32768e-07
9.97189e-06
-1.35418e-05
-3.46819e-05
1.56492e-05
1.66911e-05
2.34154e-06
1.29161e-05
-2.05301e-05
-2.95548e-06
1.05694e-05
-2.50252e-05
5.61137e-06
4.10302e-05
-2.16165e-05
-2.88292e-06
-1.81135e-07
3.0639e-06
-1.60818e-05
4.05768e-05
2.94864e-05
-5.39813e-05
3.70021e-05
9.66427e-07
-5.84201e-05
2.04516e-05
-2.39161e-06
3.75313e-05
-3.23435e-06
-3.19054e-05
1.76757e-05
-1.3702e-05
1.06597e-05
-1.46331e-05
-1.31249e-06
-2.49218e-05
2.78697e-05
-1.63532e-06
-2.36427e-05
-3.43257e-06
-1.55761e-05
4.26513e-05
-7.72945e-06
-8.28851e-06
-1.43368e-05
3.03547e-05
-1.32531e-06
3.96588e-05
-4.61898e-06
-3.37145e-05
2.28085e-05
-2.27913e-05
8.33049e-07
-8.50278e-07
3.94364e-05
1.09797e-07
-2.71704e-05
-1.23757e-05
-8.55493e-06
-4.53584e-06
-2.45136e-05
3.76044e-05
-2.79218e-07
-2.9325e-06
3.21165e-06
-3.5087e-05
5.18362e-05
-3.72225e-06
-1.3027e-05
2.75778e-06
1.84928e-05
5.94717e-06
-2.71978e-05
-4.12126e-06
9.5435e-06
3.31416e-06
-8.7365e-06
-1.51736e-05
-3.75548e-06
1.57042e-05
3.22487e-06
2.24002e-05
1.50741e-05
-5.54587e-05
1.79844e-05
1.20957e-05
-9.47563e-06
2.98518e-05
-3.24718e-05
-2.30151e-06
1.87812e-05
1.51231e-06
-1.79919e-05
2.81802e-06
-2.77678e-06
-4.1268e-08
2.88983e-06
3.40863e-05
1.52408e-06
-3.85002e-05
2.78532e-05
-4.33798e-06
-2.69413e-05
3.42618e-06
-5.63371e-06
6.72471e-06
-3.18185e-05
3.07278e-05
-2.79261e-05
-4.36205e-06
2.15501e-05
1.07381e-05
1.00691e-05
-9.54086e-06
-7.74804e-08
-4.50931e-07
-4.2403e-05
2.78445e-05
-1.64099e-06
1.61995e-05
-4.78805e-06
4.02605e-06
7.62009e-07
1.41171e-05
-1.20401e-05
1.89438e-05
-2.10209e-05
1.95606e-05
1.64083e-05
-8.55276e-06
1.51776e-05
-4.06868e-05
-1.89233e-05
4.44325e-05
1.49676e-07
-1.46155e-05
1.46586e-05
-1.92757e-07
8.52639e-06
-1.36996e-05
-1.58124e-05
2.09857e-05
1.34684e-05
5.89975e-06
-2.34177e-06
-1.70263e-05
-3.98672e-06
9.30144e-07
5.06154e-06
-2.00496e-06
-5.16389e-06
6.37814e-05
-2.1826e-05
-3.67914e-05
1.66821e-05
1.89998e-05
-1.09032e-06
-3.45916e-05
1.31408e-07
2.80374e-06
-2.93508e-06
-7.47095e-07
5.36736e-06
3.38414e-05
-3.84618e-05
4.66261e-05
5.9931e-06
-2.28427e-05
-2.97764e-05
-1.03395e-06
5.26424e-06
-4.1447e-06
-8.56208e-08
1.28096e-05
-1.14555e-06
-1.39888e-05
2.32482e-06
-3.89173e-06
-1.23031e-05
6.35657e-06
9.83845e-06
-6.44297e-06
2.87412e-05
4.41233e-06
-2.67107e-05
3.34839e-05
-4.36025e-06
-3.6528e-05
7.40433e-06
-2.9705e-06
5.75198e-06
-2.78148e-06
2.36242e-06
-1.04027e-05
9.29352e-06
-1.25334e-06
6.44722e-07
1.00657e-05
-1.06039e-05
-1.06588e-07
1.03973e-05
1.2277e-05
-1.454e-06
-2.12202e-05
2.34014e-05
3.22897e-05
-2.22073e-05
-1.28099e-07
3.76184e-06
-3.63379e-06
-4.11645e-05
2.00431e-05
3.88391e-05
-1.77177e-05
3.99047e-05
6.95735e-06
-4.21351e-05
-4.72686e-06
3.06674e-05
-2.05745e-05
-3.37356e-05
8.34103e-06
1.43275e-05
-3.62716e-05
-1.86388e-06
-7.92804e-06
4.60636e-05
-8.53687e-08
3.64371e-06
-3.55837e-06
3.96391e-05
-1.41344e-06
-4.54016e-06
-3.36855e-05
3.83904e-06
-3.83231e-06
-6.63774e-09
-1.22104e-05
2.99475e-06
-7.35259e-06
1.65683e-05
-2.1619e-05
-1.86244e-05
1.64982e-05
2.37452e-05
1.95363e-05
-1.48644e-05
-4.1787e-06
-4.92983e-07
-4.23691e-08
2.90931e-06
-2.86703e-06
-6.68863e-07
-3.82106e-06
2.08221e-08
4.46913e-06
7.17372e-06
2.89532e-06
-5.11976e-06
-4.94934e-06
-1.12742e-05
1.22379e-05
-1.63252e-06
-4.67648e-07
4.2476e-05
-1.16504e-06
-4.08433e-05
-6.99496e-06
-6.91622e-07
9.19394e-06
-1.50741e-06
3.39996e-06
-1.33603e-05
1.04656e-05
-5.05186e-07
1.07917e-05
-2.01811e-05
1.44473e-05
-5.05785e-06
9.26685e-06
2.1808e-05
3.54995e-06
-3.46248e-05
5.2838e-06
-5.42462e-06
1.40796e-07
1.54425e-05
-1.25635e-05
-3.13744e-05
2.84953e-05
1.11286e-06
1.18442e-06
1.59475e-05
-1.82448e-05
4.61793e-06
1.96895e-05
-2.5504e-05
1.19655e-06
1.13287e-05
-5.37134e-07
-1.73674e-06
-9.05479e-06
1.13256e-05
2.38103e-05
-3.49032e-05
-2.32799e-07
1.35601e-05
-1.00968e-07
-1.15972e-06
-1.22994e-05
-2.53654e-05
9.2391e-06
1.26969e-06
1.48563e-05
-1.31112e-05
-1.25559e-05
-1.71457e-06
9.39063e-06
-1.65869e-05
1.25354e-05
-5.33933e-06
-4.55888e-06
-1.93292e-05
-2.89285e-05
5.28165e-05
-6.09615e-06
7.53407e-06
-1.7403e-06
3.02401e-07
3.79333e-08
2.42377e-06
-2.46176e-06
-7.94624e-06
4.08198e-05
1.20518e-05
-4.49256e-05
3.35161e-05
1.42524e-05
-1.24136e-05
-3.53549e-05
2.75106e-05
-2.28154e-05
2.60323e-05
-3.07274e-05
3.44718e-05
-3.78632e-05
4.14605e-06
-7.54711e-07
-6.20342e-05
2.71069e-05
1.19946e-05
2.29327e-05
-1.11978e-05
-1.41265e-06
1.23758e-05
2.3468e-07
3.60936e-05
-4.80942e-05
1.69007e-05
-4.90005e-06
1.02554e-05
-1.12685e-05
3.56944e-06
-2.55636e-06
-1.83464e-05
1.6662e-05
-1.14268e-05
-1.38908e-05
4.76563e-05
5.17999e-06
-3.89452e-05
-5.16736e-06
1.38729e-07
5.02856e-06
-4.8162e-06
1.0952e-05
-4.02725e-05
-1.9183e-05
-3.17122e-07
1.86331e-07
1.93138e-05
4.36348e-06
1.30514e-07
-4.49383e-06
8.6174e-06
-5.79846e-07
-3.01892e-05
2.21517e-05
-5.94222e-08
-1.95105e-07
1.01825e-05
-9.92815e-06
8.16618e-06
1.82697e-05
-3.02278e-05
3.79196e-06
2.98927e-05
1.94308e-06
2.04691e-06
-3.38826e-05
-2.53741e-06
6.63118e-06
3.87066e-05
-4.28003e-05
-8.49059e-06
-1.03281e-06
-3.64068e-07
9.88754e-06
-1.00606e-05
8.55622e-06
-3.47964e-05
3.63008e-05
-1.28981e-06
2.41576e-05
-2.11445e-05
-1.72309e-06
4.22978e-05
1.301e-05
-1.92129e-05
-3.60947e-05
9.09208e-06
-4.91914e-05
3.19596e-05
-4.23134e-05
5.40423e-05
-2.2661e-06
2.343e-05
-9.40422e-06
1.94903e-05
-1.29833e-05
-3.16739e-06
6.25465e-06
9.89607e-06
-6.84389e-06
7.0044e-07
6.23301e-06
-8.95689e-08
-1.31538e-05
3.36119e-05
-2.37675e-05
3.3092e-06
-3.41218e-05
3.08032e-05
3.28197e-05
-2.95012e-05
-3.09903e-06
2.86148e-06
1.83137e-07
5.44945e-08
3.53723e-05
-5.12117e-05
-1.91576e-05
3.49966e-05
-4.87932e-05
-1.97479e-05
3.25544e-05
3.59866e-05
4.47041e-05
4.54015e-06
1.93804e-06
-5.1182e-05
3.8272e-05
-2.59832e-05
3.24153e-05
-3.7354e-05
-3.66319e-06
1.4355e-05
2.66622e-05
3.06902e-06
2.60052e-07
-3.32909e-06
4.15107e-05
-3.82459e-05
-1.3039e-05
9.77416e-06
-1.99461e-05
-7.02618e-06
5.78861e-06
2.11837e-05
1.56827e-05
2.78921e-05
-1.6197e-05
-2.73777e-05
6.74192e-06
2.12147e-05
-2.06363e-05
-7.32008e-06
4.33038e-07
-6.06321e-06
5.63018e-06
-1.97837e-05
-1.78915e-05
1.72776e-05
2.03976e-05
1.48101e-06
1.96904e-05
-4.50337e-06
-1.6668e-05
-3.40461e-05
3.40233e-05
-6.39206e-06
-3.05647e-06
4.35413e-05
-4.2454e-05
1.9693e-06
2.05362e-05
4.21502e-06
1.11044e-05
-3.58555e-05
-4.74862e-08
-2.11683e-06
2.16435e-06
-3.07622e-06
3.06782e-06
8.47282e-09
-2.84169e-05
-1.31803e-05
1.59827e-05
2.56144e-05
-3.49845e-05
-5.82643e-07
4.23198e-05
-6.75276e-06
-1.10537e-05
4.08006e-05
-4.19874e-05
1.22404e-05
-2.67116e-05
2.1989e-05
-1.0003e-05
1.47257e-05
3.38945e-07
2.02299e-05
-2.26157e-05
2.04674e-06
-3.63517e-05
7.97177e-06
2.39212e-05
4.45862e-06
2.59144e-06
5.12088e-05
-1.91501e-05
-3.46502e-05
2.10071e-06
-3.90637e-06
-2.58397e-05
-1.35758e-05
1.09985e-05
2.05061e-05
-1.28905e-06
3.36587e-06
-2.25829e-05
-1.88829e-06
-4.33945e-06
5.47743e-06
7.50309e-07
1.31159e-05
-3.97881e-06
-9.33337e-06
1.96321e-07
1.29851e-05
-4.40233e-05
4.21039e-05
-1.10656e-05
-1.66861e-05
2.93601e-05
4.46016e-06
-1.71341e-05
-3.53557e-06
4.32739e-06
2.77301e-05
-2.8522e-05
-3.69758e-05
2.79576e-06
3.50367e-07
3.38298e-05
-2.03878e-05
2.37895e-06
1.64691e-05
1.5398e-06
-2.89618e-05
1.80791e-05
4.14283e-05
-3.05454e-05
-1.38344e-05
-2.57046e-05
6.91746e-06
3.26217e-05
5.81006e-06
-4.44524e-05
-5.67595e-06
4.43183e-05
-3.40466e-05
4.43668e-06
-1.36912e-06
3.09791e-05
-3.68146e-05
-2.73804e-06
-2.29097e-06
4.18436e-05
7.53622e-06
-4.27153e-06
3.97473e-05
-4.3012e-05
6.6458e-06
-3.77607e-06
2.25421e-09
-2.87199e-06
5.06829e-06
-5.24628e-05
-8.33823e-06
5.5733e-05
-3.80488e-06
2.41382e-06
1.95424e-06
-5.63169e-07
-2.87894e-05
-7.55641e-06
1.58115e-05
2.05343e-05
-1.35188e-06
1.3289e-05
2.49316e-06
-1.44302e-05
-1.31011e-05
-1.41965e-05
9.3075e-06
-6.05554e-06
2.43505e-06
3.12807e-05
-2.76601e-05
2.47859e-05