/*--------------------------------*- C++ -*----------------------------------*\
| =========                 |                                                 |
| \\      /  F ield         | OpenFOAM: The Open Source CFD Toolbox           |
|  \\    /   O peration     | Version:  2406                                  |
|   \\  /    A nd           | Website:  www.openfoam.com                      |
|    \\/     M anipulation  |                                                 |
\*---------------------------------------------------------------------------*/
FoamFile
{
    version     2.0;
    format      ascii;
    arch        "LSB;label=32;scalar=64";
    class       volVectorField;
    location    "66";
    object      U;
}
// * * * * * * * * * * * * * * * * * * * * * * * * * * * * * * * * * * * * * //

dimensions      [0 1 -1 0 0 0 0];

internalField   nonuniform List<vector> 
59516
(
(0.103211 -0.00117348 -0.000541448)
(0.0942287 -9.47106e-05 -0.000393184)
(0.109935 -0.000539278 -0.000486488)
(0.126901 0.00123337 0.00178706)
(0.113662 0.000210749 -0.00456206)
(0.101091 -0.00483039 -0.0107983)
(0.126835 -0.00220954 -0.00232954)
(0.0982025 0.000612414 -0.000117284)
(0.109216 0.000869934 -3.98198e-05)
(0.0507715 -0.00101419 0.00196447)
(0.154055 -0.000350857 -0.00252773)
(0.059687 0.000190456 -0.00375399)
(0.115792 0.00117258 6.73676e-05)
(0.018947 -0.000122762 -0.000173906)
(0.0569175 0.00135756 0.00316945)
(0.0490729 0.00340052 -0.001503)
(0.170081 -0.00285865 -0.00135618)
(0.0700179 0.00401503 -0.00438782)
(0.114329 0.00612658 0.00060993)
(0.166443 -0.00193792 -0.000540089)
(0.0537134 0.000932759 -0.00129343)
(0.148065 -0.000977215 0.000239483)
(0.15449 -0.00122912 -0.00284051)
(0.0313414 -0.000959489 -0.000270235)
(0.161569 -0.000687338 0.000289878)
(0.0619569 0.00144487 0.000612418)
(0.0391128 0.000778063 -0.00275935)
(0.0442206 0.00378771 0.000189068)
(0.0652396 0.00276102 -0.000625925)
(0.0160697 -0.00250188 0.00060954)
(0.108361 -0.0210395 -0.00463904)
(0.045521 0.00367575 -0.000578934)
(0.131221 7.46666e-05 0.000800453)
(0.109579 -0.000982298 0.00194362)
(0.139504 0.00553416 0.00396858)
(0.146034 0.000290087 -0.000526045)
(0.015528 -0.00151013 -0.00215909)
(0.0699189 0.0026842 -0.00676771)
(0.0949558 -0.00389936 -0.000401931)
(0.161125 0.000281876 -0.000797741)
(0.0977948 -0.000539188 0.000228582)
(0.14405 -0.00858646 -0.00800251)
(0.148439 -0.00421893 -0.00352695)
(0.103268 -0.000660423 0.000291722)
(0.142537 -0.00561349 -0.000522719)
(0.0520374 -0.000711303 -0.0011989)
(0.132234 -0.00307374 -0.00461786)
(0.163713 -0.00533982 -0.00110763)
(0.111885 -0.00899397 0.0123835)
(0.151226 0.00694544 0.00539877)
(0.104055 0.0104762 -0.0145202)
(0.0409808 -0.00360562 0.00245984)
(0.116897 0.00106065 -0.00228007)
(0.124241 -0.00056754 0.000136057)
(0.0471446 0.00303358 -2.74475e-05)
(0.129508 0.00313217 -0.000979179)
(0.144978 0.00833972 0.00855081)
(0.0432439 0.00380338 -0.00265835)
(0.178664 9.82871e-06 -0.000381344)
(0.135279 0.00649293 0.00813179)
(0.149553 -0.000579503 -6.15933e-05)
(0.0176769 0.00223773 -0.000773212)
(0.171674 0.000309719 0.000863675)
(0.167405 0.00295384 0.00230821)
(0.118218 0.000319447 -0.000835847)
(0.147725 0.00398005 0.00568837)
(0.0238427 -0.00161858 0.00218133)
(0.0384701 0.0002498 -0.00023368)
(0.121534 -0.00505126 0.0222349)
(0.135473 0.00126581 -0.00365783)
(0.0340631 0.000926738 0.000280388)
(0.164537 0.00283418 -0.000428716)
(0.0212894 0.00133126 -0.00323528)
(0.142744 0.00181714 0.000772663)
(0.18896 -0.000457248 -0.000550337)
(0.15823 -0.0027546 -0.00343706)
(0.164445 -0.00287955 -0.00426585)
(0.148716 -0.000311496 0.000464386)
(0.0425714 -0.00139829 0.00134575)
(0.151902 0.00315664 0.00806245)
(0.0352204 0.00217383 0.00104679)
(0.147009 0.00425673 0.0063963)
(0.139805 0.0019215 0.00616567)
(0.0184414 -0.000692554 0.00258527)
(0.146817 0.00336187 0.00671316)
(0.178849 -0.00131272 0.000101457)
(0.0302486 -0.00111894 0.000487556)
(0.149626 -0.000634852 -0.000532965)
(0.0513869 0.000641907 0.00198249)
(0.107108 0.00848439 -0.00583115)
(0.131508 -0.000879446 -0.0115356)
(0.139335 0.00135998 -0.000377142)
(0.177468 0.000583639 -0.000476866)
(0.137054 0.000877188 -0.000327464)
(0.165199 -0.000121416 -4.51323e-06)
(0.109926 -0.0105268 0.00393305)
(0.139663 -0.000300564 0.000386228)
(0.0499714 -0.00188191 -0.00397911)
(0.0643146 0.00244441 -0.00106772)
(0.148391 -0.000743139 0.00184165)
(0.0351672 0.000525866 0.0013348)
(0.0224693 0.00117312 -0.00253719)
(0.0212457 0.000756254 0.00290626)
(0.0510031 -0.000760568 -0.00282702)
(0.133649 0.000811494 -0.000185512)
(0.148454 -0.000531383 -0.000504489)
(0.0368547 0.00325024 -0.00135159)
(0.1015 0.000265492 -0.000798233)
(0.0974281 -0.000671979 0.000251841)
(0.0621948 0.000382812 -0.00249129)
(0.124958 0.012937 -0.013575)
(0.0284822 0.00289603 -0.00048254)
(0.062927 0.000823366 -0.00397539)
(0.118045 0.0174347 -0.00875038)
(0.161631 -0.000178885 0.000209983)
(0.0963616 0.00108955 0.00119365)
(0.0508924 0.00058567 -0.0018837)
(0.131888 -0.000104555 0.000680956)
(0.0202538 -0.000297636 0.00097821)
(0.147074 0.00110463 0.00033992)
(0.194325 1.27915e-05 9.71439e-05)
(0.173388 -0.000251385 0.00065232)
(0.158992 -2.61253e-05 0.000808512)
(0.171899 -0.000250939 0.000342471)
(0.13241 -0.0178486 0.00273131)
(0.0897672 0.00131593 -0.00308042)
(0.0275943 -0.000537728 0.00180498)
(0.138369 -0.0138118 -0.00117177)
(0.0898413 -0.00275487 0.0131417)
(0.186074 0.000125826 -0.00027204)
(0.190636 0.000156883 -0.000183511)
(0.109656 0.00176377 0.00188659)
(0.0215002 0.00128935 -0.0014734)
(0.147508 -0.000536693 0.000283829)
(0.098684 0.00102406 0.000287611)
(0.112508 -0.000588743 -0.00221394)
(0.107484 0.012829 -0.00897497)
(0.127479 -0.00038355 0.000297232)
(0.0366308 0.00254203 0.00012706)
(0.0963872 0.000643473 -0.00132292)
(0.0409535 -0.000807283 -0.002111)
(0.191465 -0.000497595 0.000115708)
(0.0172294 0.000720911 0.0015005)
(0.123275 -0.000903397 -0.000677614)
(0.180095 0.000551795 0.00146918)
(0.141874 0.00241164 0.000639283)
(0.140266 -0.00564558 -0.00220694)
(0.116947 0.00197403 -0.00322819)
(0.0621281 -0.0010051 0.00173121)
(0.104441 -0.000479928 -0.00104174)
(0.101232 -0.000565876 -0.000866494)
(0.032116 -0.00123675 6.4706e-06)
(0.16931 -0.000925466 0.000952266)
(0.154672 5.35306e-05 -0.000116454)
(0.0865555 5.34015e-06 0.00222388)
(0.017129 -0.000312633 0.00183602)
(0.110322 -0.00053686 -0.000269017)
(0.111619 0.00182544 -3.99385e-05)
(0.0802781 0.00141091 0.000323367)
(0.017562 0.00208505 -0.00228637)
(0.0617268 0.00161598 -0.00305141)
(0.0636353 -0.00341361 -0.00206301)
(0.0321108 -0.00129579 0.00031318)
(0.0229638 -0.000197471 -0.00044358)
(0.0961012 0.00181475 0.00239585)
(0.178144 -0.000321897 0.000992192)
(0.0579838 -0.00081204 0.000427847)
(0.183346 0.00132651 -0.00017595)
(0.0184251 -0.00116507 0.0020815)
(0.136517 -0.000533308 -0.00031132)
(0.0809046 0.00147091 0.00117249)
(0.0487791 0.000809076 -0.00074351)
(0.0599286 0.00160856 0.000714675)
(0.135627 3.04642e-05 0.00054334)
(0.04648 -0.000665245 0.000192237)
(0.134852 -0.0017031 -0.00562346)
(0.173617 -0.000288814 -0.000840604)
(0.149529 -0.00593207 -0.00376601)
(0.0634657 -0.000752505 0.00293285)
(0.0374918 -0.000105971 -0.000512769)
(0.146011 0.00265713 0.000530345)
(0.0306782 -0.00273858 -0.00127219)
(0.0261322 -0.000307496 -0.00204231)
(0.0602663 -0.00144856 0.000167045)
(0.185157 0.000674841 0.000770573)
(0.0552649 0.000308829 0.000666711)
(0.0326181 -0.000489959 -0.00255539)
(0.0209298 1.5053e-05 0.000284502)
(0.11954 0.000419003 -4.23362e-05)
(0.0965736 -0.00165451 -0.00010579)
(0.135332 -0.000427485 0.00260345)
(0.0480532 0.00296262 -8.50463e-05)
(0.165783 -0.00159605 9.46459e-05)
(0.0527399 0.00185884 7.65611e-05)
(0.154646 -0.000263083 -0.000966319)
(0.0272829 -0.000232293 0.000748653)
(0.0527485 0.000751101 -3.12673e-05)
(0.037143 -0.00107543 0.000272596)
(0.105869 0.00296804 0.0034753)
(0.154958 0.000595972 -0.000647471)
(0.0771047 -0.00274087 0.000219284)
(0.193507 -0.00041161 9.67302e-05)
(0.098703 -0.000805197 0.000777767)
(0.0177149 0.00191209 -0.0013235)
(0.125292 -0.000756953 -0.000566624)
(0.145092 0.000564554 0.000329292)
(0.186928 0.000421449 -0.000457478)
(0.155933 -0.00151989 -0.000939688)
(0.021042 -0.000697514 0.000199185)
(0.110724 -0.00207732 -0.000150051)
(0.0467803 0.00330557 0.00298652)
(0.0235599 -0.00388598 -0.000644599)
(0.143001 8.80318e-05 -0.00153918)
(0.0515409 -0.00114301 0.000698428)
(0.112761 0.00156968 3.52478e-05)
(0.174482 0.000125569 -0.000418317)
(0.139804 0.00177702 0.000736372)
(0.158048 -0.00146686 0.000512132)
(0.0501037 0.00201613 -0.00270367)
(0.157637 -9.4846e-05 0.000796332)
(0.0510346 0.00192505 0.00186523)
(0.10229 0.000479276 0.000273324)
(0.167988 0.000862623 0.0010382)
(0.0357547 -0.000138521 0.000575002)
(0.173893 0.00015731 -0.000455893)
(0.176312 -0.000192972 -0.000403696)
(0.0259696 -0.000312365 0.00131421)
(0.043097 0.00138751 -0.00203628)
(0.174889 0.000502235 0.000795949)
(0.0505302 0.000267799 -0.00388975)
(0.176242 -0.000606938 -4.53931e-05)
(0.177078 0.000354496 -0.0004463)
(0.191167 0.000697141 0.000754988)
(0.0227592 -0.00176367 -0.00128339)
(0.0299499 0.000797546 -0.00141573)
(0.0312463 0.000876252 -0.00113318)
(0.0590149 0.000393415 -4.30464e-05)
(0.0926242 -0.00112515 0.000662797)
(0.158532 0.00111731 0.00139865)
(0.0531782 -0.00118291 0.00150172)
(0.192734 -0.000270186 0.000430172)
(0.0185955 0.00033088 0.00274594)
(0.0505564 2.59026e-05 0.00086515)
(0.0225145 0.000116007 0.00250048)
(0.18812 0.000396052 0.000584633)
(0.0882834 -0.000602796 -6.57744e-05)
(0.146302 0.000292902 0.00136967)
(0.06138 0.00105916 -0.00139742)
(0.172233 0.000222969 -0.000803197)
(0.101328 0.000499328 0.000557494)
(0.16803 0.00032756 0.000107347)
(0.140193 -0.000124379 0.000854937)
(0.194091 0.000404475 0.00071192)
(0.144977 0.00102835 -0.0010114)
(0.147495 0.00113774 0.00138503)
(0.159762 -0.000239652 0.00123557)
(0.0517171 9.35436e-06 -0.000249072)
(0.154927 0.00107581 0.00201804)
(0.0385157 -0.000419474 -0.00213752)
(0.0558279 0.000425549 0.00193267)
(0.128108 0.000878313 -0.00108197)
(0.164578 -0.000284794 0.000264616)
(0.111823 0.00330348 0.00162326)
(0.181866 0.000333137 0.000293779)
(0.0944463 0.000221063 0.0020518)
(0.0538094 0.00204322 -0.00151914)
(0.162123 -0.000243138 -0.00146686)
(0.0887646 0.00197405 0.000479285)
(0.0427197 -0.000734483 -0.000708659)
(0.0483428 0.000288667 -0.00140325)
(0.0955364 0.00111246 -0.0034111)
(0.177414 9.19742e-05 -0.000274893)
(0.0946821 -0.00249936 7.20452e-05)
(0.0886903 -0.00156787 0.000883038)
(0.167918 -0.00105544 -0.000662319)
(0.0883217 -0.000621885 0.0022369)
(0.0192838 0.00231986 -0.00130118)
(0.163741 0.000404798 0.00070934)
(0.0233904 0.00150034 -0.00202331)
(0.0374555 -0.00153755 0.00106988)
(0.189525 0.000675578 0.0010403)
(0.138268 0.000350855 -0.000379143)
(0.0233014 0.00248514 0.00248081)
(0.118078 0.000816973 0.000504222)
(0.121386 0.00251034 -0.000120875)
(0.16883 -0.00176907 0.00216873)
(0.188152 -0.000299554 0.000385065)
(0.0221873 0.00263608 0.000454472)
(0.188167 0.000666375 0.000369274)
(0.194821 9.52073e-05 -3.6145e-06)
(0.178885 0.00025171 0.000724551)
(0.134135 0.000948282 0.000798552)
(0.137259 0.000628098 0.000613698)
(0.0917889 0.000548666 -0.000179598)
(0.175143 0.000626554 0.000280141)
(0.0260511 -0.0009321 -0.00119638)
(0.163776 -0.000188802 0.000481846)
(0.138906 -0.0002237 -0.000656683)
(0.193346 0.000433471 0.000201803)
(0.174547 0.00104387 0.000713572)
(0.114634 -0.000420837 0.000630829)
(0.0555147 0.000903651 0.00123455)
(0.0212345 -0.00033 0.00146776)
(0.0262083 -0.000635785 0.000423246)
(0.165093 -0.00117836 -0.00109047)
(0.01876 -0.00109105 0.00269864)
(0.0603011 -0.000321687 -0.00108271)
(0.0490179 0.00274311 0.00106749)
(0.172154 0.0008314 0.000859779)
(0.179305 -0.00042926 -0.000379976)
(0.155543 -5.53782e-05 -0.0010112)
(0.0558024 0.000163708 -0.00130189)
(0.100014 0.00169707 -0.00244672)
(0.0373065 -0.00314684 0.00251709)
(0.0538467 0.00131469 0.00105351)
(0.160671 0.000830974 -5.01541e-06)
(0.0946173 0.000956451 -0.000909554)
(0.107732 0.0123425 0.00350156)
(0.0874058 -0.00196547 0.000897903)
(0.0400259 -0.000147158 -0.000374612)
(0.0606153 -0.000875213 0.00197079)
(0.105376 -0.000974638 -0.00163521)
(0.182147 -6.23145e-05 -0.000440825)
(0.19191 -0.000902134 0.000890012)
(0.193553 0.000410212 0.00118549)
(0.163702 -0.00152201 0.000388682)
(0.0969376 0.00386834 0.00462988)
(0.124978 0.00062908 0.000890894)
(0.170993 0.000642684 0.000938922)
(0.163337 -0.000790443 8.11846e-05)
(0.166381 -0.00100358 0.000833856)
(0.0543466 0.00109578 -0.00334392)
(0.0207845 -0.00140979 -0.0024267)
(0.15112 -0.00139484 0.000188327)
(0.0367579 -0.00182141 0.00202443)
(0.0293607 6.47822e-05 3.63901e-05)
(0.164259 0.000529249 0.00196586)
(0.144907 9.67448e-05 0.000353568)
(0.0595866 -0.00125532 -0.00304391)
(0.179293 -0.000613952 0.000304865)
(0.16949 -0.000575137 0.000411958)
(0.19151 -7.09125e-05 -0.000495208)
(0.179753 -0.00128142 -0.000481638)
(0.0304974 0.00147583 7.42535e-05)
(0.160898 -0.000427657 5.25567e-05)
(0.184621 -0.000618479 0.000459159)
(0.0543227 0.000154564 0.000837272)
(0.190277 2.97913e-05 0.000999769)
(0.18232 -2.27745e-05 0.000187563)
(0.129721 -8.92448e-05 -0.000927615)
(0.121143 0.000350003 -0.000992519)
(0.153491 -0.00110836 0.00177565)
(0.142933 -0.00109865 0.000179931)
(0.0665141 -0.000355557 -8.5941e-05)
(0.029657 0.00125212 -0.00095691)
(0.0326007 -0.00245742 -0.0001529)
(0.0912101 0.000436733 -0.000389429)
(0.0862565 -0.00679128 0.0106291)
(0.0746072 -0.00420223 -0.0060865)
(0.0793808 0.000408758 0.000432492)
(0.111945 0.000111213 0.0019867)
(0.130518 1.97394e-06 0.00124875)
(0.159647 -0.00166762 0.00420225)
(0.158 -0.00097203 0.000942208)
(0.13036 -0.000930827 -0.000577878)
(0.149446 -7.99195e-05 0.000522986)
(0.150232 0.000887049 0.000268403)
(0.0293517 -0.000930578 -0.000354011)
(0.113929 -0.0224671 0.00276229)
(0.0549882 0.00137557 0.000424455)
(0.0384401 -0.00168557 -0.000387605)
(0.0388499 0.000859214 0.000307706)
(0.164129 -0.00056373 -0.000543632)
(0.0907245 -0.000562229 -3.06407e-06)
(0.162542 0.000605758 -0.00122528)
(0.0183675 0.000979577 -0.00157489)
(0.124286 -0.000308334 0.000322879)
(0.041584 0.00097174 -0.000815627)
(0.168917 -0.000151484 -7.04792e-05)
(0.0448169 -0.000626488 -0.000492734)
(0.0592551 -0.00135671 0.00102036)
(0.102007 -0.00278349 0.00068165)
(0.151945 -0.0012437 0.00104372)
(0.0180862 0.00139993 -0.00196297)
(0.0514372 -0.000563132 0.00206321)
(0.13173 -0.000172554 0.00050504)
(0.0215199 -0.00133919 -0.00175353)
(0.130884 0.00132189 0.00955194)
(0.113132 -0.000827322 0.00260346)
(0.130157 -0.00068136 -0.00212026)
(0.0912668 0.00201586 -0.00293517)
(0.0846035 -0.00124073 0.00208297)
(0.164525 0.000449671 0.000336183)
(0.0771931 -0.00791659 -0.00718826)
(0.191827 0.00012549 -4.67374e-05)
(0.111394 0.00865678 0.00902672)
(0.0563372 -0.00262626 0.000337214)
(0.0594722 -0.000468627 -0.00134448)
(0.186916 -9.99836e-05 0.000334475)
(0.18566 0.0001165 0.000299804)
(0.0493738 -0.000500323 0.000598276)
(0.131087 0.000285251 -0.000608443)
(0.0937044 -0.000445203 -0.00218775)
(0.188371 0.000354528 0.000403108)
(0.187447 -0.000264059 0.000977266)
(0.0426058 0.00126259 -0.00327428)
(0.13066 -0.00111068 0.00022754)
(0.145422 -0.00180574 0.00174734)
(0.147988 0.000643063 -0.000775817)
(0.157911 0.00084623 0.000526895)
(0.0199949 -0.000686202 -0.00250361)
(0.0196408 0.000962589 -0.00245509)
(0.124919 0.00111852 -0.00161314)
(0.182333 -9.62418e-05 -0.000158513)
(0.190039 -0.00106268 -0.000770713)
(0.0321406 0.000343481 -0.00242443)
(0.174017 -0.00160413 0.000158122)
(0.103412 -0.00105143 -0.000923866)
(0.18305 7.18722e-05 -0.0003063)
(0.183187 -0.000437026 0.00127339)
(0.190011 -0.000383046 -0.000530704)
(0.178926 0.000752219 0.000697887)
(0.17726 0.00173884 0.00040097)
(0.0847845 0.0005382 0.000300304)
(0.187023 0.000668555 -0.000268287)
(0.0529163 -0.00097582 -0.00248102)
(0.17124 -1.18194e-05 -0.000621023)
(0.105546 -0.000333756 -0.00107112)
(0.154952 0.000428552 0.00105475)
(0.181925 7.65902e-05 -0.000335951)
(0.148901 -0.000434572 8.60876e-05)
(0.145446 0.000145956 -0.00148711)
(0.0375 0.00213787 0.0020336)
(0.0315027 0.000846099 0.000213071)
(0.0194896 0.00168756 -0.00191802)
(0.153361 0.00426474 0.0075826)
(0.196232 -0.000257766 -0.000223533)
(0.139438 -0.00061209 0.000652082)
(0.124017 0.000886605 6.22391e-05)
(0.0285806 -0.000113575 0.00109246)
(0.0218891 -0.00033939 0.00250779)
(0.110867 -0.000695808 0.00165499)
(0.154666 0.000151801 0.00142439)
(0.182481 -0.000195757 0.000655009)
(0.155259 0.00061211 0.000256557)
(0.133457 -0.00114498 -0.00061489)
(0.196291 -4.73531e-07 0.000182753)
(0.13272 0.000679955 0.0011133)
(0.0244689 -0.000471046 0.00228742)
(0.120128 -0.000211198 0.000925068)
(0.0536929 0.000489416 0.00281274)
(0.070482 -0.00704382 0.00151121)
(0.156101 0.000583157 0.0005593)
(0.0893416 0.000585219 -0.000177967)
(0.146837 -7.94232e-05 0.000244062)
(0.0188822 -0.00357663 -0.00128309)
(0.186665 0.000195919 -0.000674701)
(0.188507 -0.000298468 0.000151098)
(0.185236 -2.1692e-05 0.000783166)
(0.0876339 0.000870549 2.89325e-05)
(0.154714 -0.000976595 0.00179761)
(0.179386 0.000321493 0.000292896)
(0.118798 0.000483296 0.000358955)
(0.191144 0.00025052 0.000217365)
(0.0975939 0.00408906 -0.00345091)
(0.175726 4.20333e-05 -0.000401712)
(0.148805 -0.00287247 -0.000347214)
(0.0190229 -0.00120365 0.00137419)
(0.186374 0.000597052 0.000190951)
(0.114232 0.00238694 0.000105704)
(0.042983 -0.00125054 0.0035873)
(0.0874871 0.000857726 -0.0015445)
(0.17198 0.000503124 -9.60394e-05)
(0.126124 -0.000359712 0.0012565)
(0.0800911 0.000248795 -0.00223221)
(0.0187534 -0.00170477 -0.00184227)
(0.180185 0.000489015 -0.000289664)
(0.122229 0.00175436 -0.00185126)
(0.163398 -0.000407746 -0.000569626)
(0.121597 -1.5911e-05 0.000802945)
(0.0340938 0.00158123 0.00148155)
(0.140698 -2.31143e-05 -0.000165017)
(0.0257064 0.00207783 -0.00331998)
(0.166007 0.000230705 -0.000760863)
(0.102281 0.0113986 -0.00365043)
(0.173063 -0.00156771 -0.00069146)
(0.0479383 4.40085e-05 0.00171484)
(0.102311 -0.00114004 -0.00164205)
(0.0911252 2.31959e-05 -0.00116458)
(0.0321426 0.00178868 0.00167958)
(0.19435 0.000246828 -0.00023808)
(0.179223 -0.000372225 0.000362305)
(0.0200056 0.000678188 0.00195337)
(0.165862 0.00054706 0.000332701)
(0.19356 0.000344999 0.000581424)
(0.0342913 -8.38621e-05 -0.00211838)
(0.0577378 0.00255381 -0.00012472)
(0.0502216 0.00187179 0.00130261)
(0.155775 -0.000489863 0.000743893)
(0.187661 -0.000486799 0.000572575)
(0.0324144 -0.000870858 0.00148469)
(0.0497573 -0.00166389 -0.000515622)
(0.0527096 0.00103611 -8.60489e-05)
(0.111785 0.00159353 0.000509178)
(0.19005 -0.000174123 0.000728732)
(0.0215408 0.00118587 -0.00279426)
(0.16104 -0.000642845 0.000738768)
(0.151951 0.00408805 -0.000919358)
(0.187509 -0.000296384 0.000795045)
(0.0900999 0.00386721 -0.0037274)
(0.171913 -2.13211e-05 0.000342413)
(0.0208723 -0.000289664 -0.00227262)
(0.165957 -0.00150937 -0.000742246)
(0.0250293 -0.000354013 -4.74319e-05)
(0.0584624 -0.00156241 0.000872562)
(0.154987 -0.00118227 6.924e-05)
(0.0563676 -0.00169285 -0.000574713)
(0.018683 0.00217208 0.0019333)
(0.0338609 0.000686064 -0.00105476)
(0.0416415 -0.00228233 0.00159614)
(0.0547988 0.00112144 -0.00158667)
(0.145715 0.000121831 -0.00117056)
(0.0466226 -0.00109286 8.72735e-05)
(0.0553707 0.00180007 -0.000905979)
(0.128246 -0.00714047 -0.0138138)
(0.175716 0.000206168 0.000177108)
(0.0219826 0.00141216 0.000262947)
(0.103636 0.000352323 -0.00114774)
(0.0812666 0.00887432 -0.00350992)
(0.177002 0.000137404 -0.000414791)
(0.0553085 -5.66029e-05 -0.00141818)
(0.171057 0.000106724 0.000968167)
(0.0534611 -0.00217131 -0.00163421)
(0.120465 0.000887789 0.000571616)
(0.18393 -0.000338849 -0.00129957)
(0.0470421 0.00200884 -0.00422287)
(0.181168 0.000190099 -0.000259626)
(0.0474995 0.00225854 0.00240088)
(0.0174049 0.00264105 0.000990118)
(0.146372 0.000668732 -0.000487079)
(0.18789 -0.000375669 -0.000269869)
(0.127254 0.00107111 -0.000500949)
(0.12242 0.00165237 -0.000924386)
(0.186901 -0.000883834 -0.000154209)
(0.056658 0.00170911 -0.000280924)
(0.172155 -0.000771335 0.000284768)
(0.053447 -0.00177605 0.00220895)
(0.180716 0.000201085 -0.000122055)
(0.123577 -0.0012712 -0.00141056)
(0.0256577 0.000662633 -0.00354977)
(0.154858 0.000857872 -0.000996345)
(0.0482638 3.70426e-05 0.00152499)
(0.0238415 -0.00168092 -0.00180866)
(0.147654 -0.00156056 -0.000480703)
(0.0397825 -0.00115122 0.00101775)
(0.13683 -0.000229882 8.5041e-06)
(0.188823 -0.000445881 0.000745599)
(0.12969 0.000206923 6.23553e-05)
(0.0502386 -0.00226809 -0.00246059)
(0.186523 0.000573447 0.000481611)
(0.0855727 -0.00131704 0.00132035)
(0.194618 6.28183e-05 6.83781e-05)
(0.187398 -0.000150793 0.000456514)
(0.188769 -0.000552184 0.00113743)
(0.187076 -0.000664803 -0.000847208)
(0.0406709 -0.00229923 -0.00197147)
(0.047942 0.000331598 -0.000392328)
(0.184732 -0.000724678 -0.000505728)
(0.164248 1.54394e-05 0.00168896)
(0.028857 -0.00214678 -0.00094802)
(0.164625 -0.000243688 0.000678409)
(0.187865 0.000141632 0.000446803)
(0.182868 -0.000198501 -0.00035523)
(0.189682 -0.000494973 -0.000301081)
(0.112314 0.00025424 -0.00198198)
(0.019528 0.002002 0.00168551)
(0.183501 0.000487371 -0.000115489)
(0.0961 -0.000852199 -0.0010805)
(0.153243 0.0013932 0.000714869)
(0.0916727 0.000358012 -0.000209939)
(0.0265034 0.00187151 -7.19763e-05)
(0.190751 -0.000106739 0.000247205)
(0.0871448 0.00237804 0.00243902)
(0.130979 0.000252411 0.000207473)
(0.193557 -0.000152309 -7.82657e-05)
(0.140216 -0.00168045 3.1396e-05)
(0.0157285 0.00146966 -0.00183207)
(0.019987 -0.00125472 -0.00193996)
(0.183783 0.00072229 0.000195715)
(0.173521 -0.000946043 -0.00101484)
(0.194294 -0.000149023 0.0012261)
(0.15451 -0.000616143 0.00121724)
(0.0877311 -0.00139503 0.000603543)
(0.149408 -0.0010266 -0.000598683)
(0.182416 0.00029155 0.00103376)
(0.0183448 0.0016284 0.000401895)
(0.1868 0.000791204 0.000497456)
(0.135033 -0.0151618 -0.000461337)
(0.0339227 -0.000568236 0.00183754)
(0.0510171 -0.00324728 0.000813645)
(0.143286 9.45454e-05 -0.000976726)
(0.139531 -0.00139117 0.00100997)
(0.136225 0.000361066 -0.000310006)
(0.120532 -0.000562034 0.000655025)
(0.0999149 -0.00340952 0.00113311)
(0.193298 -0.000114631 0.000739786)
(0.0934568 0.000884857 -0.00299128)
(0.181536 0.000269968 -0.000217473)
(0.177017 0.000728241 0.000103747)
(0.193943 0.000144566 0.000215594)
(0.182265 2.17525e-05 0.00012844)
(0.0364343 -0.000270533 0.00181335)
(0.167322 0.000180603 -8.10555e-07)
(0.0294418 0.000940951 -0.00119677)
(0.0944326 -0.00919446 0.00542716)
(0.0554217 0.00187662 0.00149267)
(0.12724 -0.00252851 -0.0130797)
(0.127938 -0.000583308 -0.000813336)
(0.117478 -0.0190735 -0.00425077)
(0.176549 0.000418928 -0.000600303)
(0.18074 -0.000704901 -0.000156634)
(0.15523 0.00188507 -1.18412e-05)
(0.177137 -0.000302893 0.000153971)
(0.0302182 0.000275299 -0.000577355)
(0.100941 -0.00378549 -0.00254005)
(0.112495 -0.00209554 -0.0160119)
(0.184533 0.000159429 0.000192527)
(0.107695 -0.002161 -0.000663231)
(0.136956 -0.0135788 -0.00479571)
(0.157279 -0.00402527 0.00453741)
(0.106736 0.000833837 0.000964027)
(0.0318603 -0.000626916 0.00117683)
(0.0495249 -0.00243332 0.00133351)
(0.0219371 0.000104763 -0.000200091)
(0.0206708 0.000171477 -0.00157488)
(0.0311532 -5.77981e-05 0.000133993)
(0.133633 -0.00975399 0.00555839)
(0.137637 -0.000738424 0.000812238)
(0.0209866 -0.000757999 0.00290827)
(0.0199565 0.00142263 0.00219252)
(0.195907 -2.04638e-05 -0.000223881)
(0.0961459 -0.0126286 0.00858217)
(0.0335426 0.00144364 0.000497079)
(0.147353 0.000170316 -0.000709195)
(0.101016 -0.00118708 -0.00134261)
(0.131949 0.000293391 0.00126129)
(0.0376576 0.00195755 -0.00105565)
(0.0501894 0.00155253 -0.000597808)
(0.107035 -0.00124481 1.13477e-05)
(0.17509 -9.143e-05 -0.000937154)
(0.152911 -0.000260004 -0.000668633)
(0.0317289 0.00264378 -0.000891796)
(0.021423 -0.00166631 0.000993306)
(0.106235 -0.0151798 -0.0112671)
(0.0228859 -0.00297965 0.000181165)
(0.132536 -0.000615058 -0.00105513)
(0.0239062 0.00133827 -0.00294844)
(0.0996596 -0.000528528 0.00209091)
(0.183692 -0.0013682 0.000308466)
(0.181835 -0.000402623 0.00115097)
(0.0390975 0.000589867 -0.000703971)
(0.0935966 -0.00016067 -0.00103113)
(0.0317342 0.00116245 -0.00135598)
(0.0249203 0.00294873 -0.00105323)
(0.185014 -0.000712594 -0.000389222)
(0.0167952 -0.00142783 -0.00214431)
(0.170114 -0.000484029 -0.00046561)
(0.043014 0.00104567 -0.00203858)
(0.156397 -0.00136081 -0.000227137)
(0.140197 -0.000834716 -0.000139283)
(0.019326 -0.000504086 0.00306732)
(0.051897 -0.00261243 0.000302907)
(0.148631 0.000625539 0.000637993)
(0.030542 -0.00150614 3.84572e-05)
(0.163258 0.000638906 -0.000558561)
(0.048952 -0.00195943 0.00303971)
(0.10345 0.000139929 3.09057e-05)
(0.189379 -0.000109571 0.000195783)
(0.032452 0.000971457 0.000639007)
(0.0210095 0.000895276 -0.00269542)
(0.0452655 0.000926064 -0.000385875)
(0.110797 0.0173773 0.00373335)
(0.0993294 0.000380315 0.00049474)
(0.0507499 -0.00242361 0.0024465)
(0.079307 0.00037096 0.00102191)
(0.0269629 -0.00101006 0.000617558)
(0.191141 -0.000326438 -0.000100614)
(0.0209421 -0.000341428 -0.00163998)
(0.172247 -0.000412888 -0.00085707)
(0.143528 0.000356387 2.52101e-05)
(0.171355 0.000340266 -0.000567502)
(0.0171805 0.00168739 4.21239e-05)
(0.151424 0.000436558 0.000417936)
(0.078938 0.00106302 0.000377626)
(0.159262 -0.000104066 7.07938e-05)
(0.0493893 -0.00059658 -0.000216456)
(0.108168 -0.0130006 0.00668447)
(0.160476 -0.00116634 -0.000623085)
(0.0353625 0.000390585 -0.000437483)
(0.196261 -0.000227624 0.000516023)
(0.108871 0.00201382 -0.0204968)
(0.114898 0.000349052 -0.000753478)
(0.0293019 0.000760224 -0.00160664)
(0.0452755 -0.000444342 -0.00250794)
(0.188417 -0.000295234 -8.07293e-05)
(0.129863 0.0012765 0.000767626)
(0.0284511 0.00144516 0.000598375)
(0.106196 0.00147799 -0.00164119)
(0.0557083 -0.000422536 -0.00171458)
(0.0216734 -0.00186667 0.00129098)
(0.184318 1.06267e-05 -0.000403233)
(0.103344 -0.00127903 0.0100258)
(0.127991 0.00139148 -0.00186416)
(0.177238 -0.000609716 -2.62297e-05)
(0.182257 -0.000560498 0.000878072)
(0.173086 4.67926e-05 2.73027e-05)
(0.130145 0.000836816 -0.000330521)
(0.0389665 0.000989917 0.000334907)
(0.0357971 -0.00171288 -0.00172561)
(0.187379 -0.000458406 0.000764522)
(0.107584 -0.00937683 0.00871697)
(0.117546 -0.000943346 0.000422613)
(0.125023 -0.00163117 0.00105069)
(0.0762679 0.00190661 0.000829855)
(0.147963 -0.000308923 0.00164202)
(0.165465 -0.000719441 -0.000884808)
(0.0944154 -0.000242027 -0.00131816)
(0.0994392 0.00179217 0.000607677)
(0.0353428 0.000549642 -0.00229426)
(0.0665062 0.000451765 -0.000292175)
(0.0384156 -0.000979245 -0.00286452)
(0.151959 -0.000985908 0.000894623)
(0.179366 -0.000605089 -0.000347675)
(0.0892163 0.0019686 -0.00204451)
(0.094271 0.00078942 -0.000641439)
(0.0186893 0.00190964 -0.000383701)
(0.0738982 -0.000298948 -0.000690224)
(0.0528986 -0.00177591 -0.00225724)
(0.180334 0.000254377 -0.00103051)
(0.1835 -0.000623767 -0.000446416)
(0.104824 -0.00955918 0.00605027)
(0.165414 -0.000154516 0.00112531)
(0.0768658 -0.00223291 -0.00191205)
(0.101709 -0.00254846 0.00793837)
(0.130609 -0.00146046 0.00154992)
(0.0229002 -0.00174215 -0.00018556)
(0.183509 -0.000376887 0.000268233)
(0.0453429 0.00127563 -8.23658e-05)
(0.138444 -0.000178594 0.00134316)
(0.0250734 0.0035732 -0.000289665)
(0.178777 0.000131695 -0.000741468)
(0.101647 -0.00432461 0.002661)
(0.159279 -0.000772312 -0.000147554)
(0.111158 0.000382975 0.000581581)
(0.146222 -0.000237331 0.00115665)
(0.149607 0.0013754 0.000465656)
(0.191511 0.000336824 0.000294502)
(0.0309022 -0.0019325 -1.08507e-05)
(0.042778 0.000581091 -0.000908192)
(0.0257477 -0.000668357 -0.000206695)
(0.182369 -0.000520822 0.000875262)
(0.158813 0.000227618 -0.000302048)
(0.134705 0.00156019 6.6367e-05)
(0.160838 0.000476339 -0.00146416)
(0.0188334 0.00035135 0.000491124)
(0.0935018 -0.00028205 -0.000217377)
(0.0843207 0.00100803 -0.00188815)
(0.181303 -0.000388668 -0.000599331)
(0.124022 -0.000914019 -0.000181963)
(0.145306 -7.14196e-05 -0.00052865)
(0.101893 -0.000376926 0.00127046)
(0.18715 -0.000241715 -0.000246532)
(0.0185457 -0.00213546 -0.00224568)
(0.0805336 -0.00330282 0.000432932)
(0.153135 -0.000570282 0.000684918)
(0.0231527 -0.00213372 0.00180947)
(0.0406975 -0.000794404 -0.00192363)
(0.0569252 -0.000900994 0.000626243)
(0.0192118 0.00118021 -0.00202938)
(0.090089 0.000458839 -0.00127096)
(0.171999 0.000190192 -0.000451169)
(0.0561867 -0.0015881 -0.00163717)
(0.0170006 -0.00220454 -0.00164203)
(0.0994935 0.00033151 -0.000811016)
(0.0232191 0.000132422 0.00035201)
(0.0936712 0.00119465 -0.000609232)
(0.178708 0.000104547 0.000285337)
(0.195165 0.000121634 0.000123151)
(0.177835 -0.000197367 0.000143517)
(0.165965 0.000869811 -3.96275e-05)
(0.180336 -0.000144784 0.000322129)
(0.127613 0.000257811 0.00236672)
(0.0423795 0.000795986 -0.0011002)
(0.180975 0.000659584 -3.10256e-05)
(0.120518 -0.000350406 0.00100485)
(0.0834383 0.000559682 -0.00165562)
(0.0918683 -0.000953015 0.00130217)
(0.166296 -0.000215687 0.000531194)
(0.111447 -0.00125581 -0.000724265)
(0.0605068 1.69589e-05 0.0015856)
(0.155403 0.000801358 0.00138683)
(0.0300504 0.00113479 0.00051952)
(0.0823589 2.68219e-06 0.000591643)
(0.0915487 -0.00027708 0.000158126)
(0.0563383 0.000358218 0.000925678)
(0.162099 0.000155902 -0.000289951)
(0.106009 -0.0125961 0.0134321)
(0.127228 0.0081365 0.00527931)
(0.0292151 0.000575686 -0.00255351)
(0.0237933 -0.00149594 0.000759219)
(0.0518224 0.00196746 -0.00106527)
(0.0183505 -0.00117294 -0.00148257)
(0.124106 0.000455631 -0.000674717)
(0.155135 0.000684272 -0.00119903)
(0.125851 0.00171363 0.00045109)
(0.110211 0.0101163 -0.0115978)
(0.132314 -0.000193792 0.000192515)
(0.147077 0.000358997 -0.000918975)
(0.0227275 -0.00192886 0.00434766)
(0.15897 0.000820952 -0.000371867)
(0.127565 -0.00405562 0.0124983)
(0.0400965 0.000762167 -0.00104429)
(0.0197261 -0.00335264 0.000625423)
(0.111309 0.000431422 0.000384473)
(0.104167 -0.0014965 -0.000626139)
(0.0232442 -0.00161092 0.00259827)