/*--------------------------------*- C++ -*----------------------------------*\
| =========                 |                                                 |
| \\      /  F ield         | OpenFOAM: The Open Source CFD Toolbox           |
|  \\    /   O peration     | Version:  2406                                  |
|   \\  /    A nd           | Website:  www.openfoam.com                      |
|    \\/     M anipulation  |                                                 |
\*---------------------------------------------------------------------------*/
FoamFile
{
    version     2.0;
    format      ascii;
    arch        "LSB;label=32;scalar=64";
    class       volScalarField;
    location    "8";
    object      epsilon;
}
// * * * * * * * * * * * * * * * * * * * * * * * * * * * * * * * * * * * * * //

dimensions      [0 2 -3 0 0 0 0];

internalField   nonuniform List<scalar> 
59516
(
0.0368237
0.0366239
0.024327
0.0180772
0.00943185
0.350758
0.020218
0.0339338
0.0292594
0.0853054
0.00929683
0.0815742
0.0287867
0.268718
0.0705744
0.0894838
0.00985466
0.0767572
0.029804
0.0106938
0.0912613
0.0137201
0.0124974
0.12239
0.0119662
0.0672478
0.109562
0.107543
0.0651701
0.183664
0.0497292
0.105993
0.0175256
0.0272692
0.015381
0.0155872
0.169062
0.0798957
0.0457794
0.0125457
0.0369811
0.0114379
0.0138034
0.0344821
0.015142
0.0933749
0.0196756
0.00987115
0.0121199
0.0108405
0.0277023
0.0919708
0.0254982
0.0225891
0.0859123
0.0219564
0.0101103
0.107954
0.00995016
0.0161761
0.0129298
0.163395
0.0100666
0.0101979
0.0230763
0.0129211
0.187158
0.10465
0.019601
0.0168641
0.0937172
0.0105375
0.130417
0.0160729
0.00950596
0.0111341
0.00995124
0.0135223
0.0913963
0.0110335
0.115949
0.0122954
0.0154785
0.151649
0.0126761
0.00971823
0.11659
0.0138196
0.0857089
0.0429097
0.00969309
0.0153957
0.00972666
0.0149905
0.010505
0.0102365
0.0140751
0.0917497
0.0790801
0.0138057
0.0979602
0.128867
0.148033
0.0818943
0.0177045
0.0134688
0.117373
0.0300773
0.0364826
0.0669847
0.0199685
0.0884766
0.0690397
0.0331331
0.0117352
0.0406293
0.0780254
0.0165976
0.152785
0.0138514
0.00920489
0.0101536
0.0116011
0.0102328
0.0147389
0.0497533
0.129878
0.01496
0.0911554
0.00947106
0.00936448
0.0309467
0.13581
0.0140575
0.0382657
0.0250797
0.0460885
0.0198476
0.0996956
0.040106
0.0998745
0.00933296
0.182435
0.0195412
0.00950319
0.0150147
0.0159632
0.027055
0.234998
0.0301194
0.038457
0.105601
0.010334
0.0129529
0.0452698
0.193307
0.0250655
0.025429
0.0538154
0.171735
0.0597361
0.0590624
0.125594
0.189907
0.0402231
0.0101801
0.0750599
0.00944317
0.172896
0.0166008
0.0527899
0.0961473
0.0627679
0.0151726
0.0898834
0.0189155
0.0101433
0.012557
0.0645672
0.116
0.0139942
0.137853
0.164619
0.0772461
0.00944812
0.0844487
0.116108
0.159572
0.0225969
0.0414584
0.0174952
0.0874535
0.0112315
0.0830949
0.012494
0.134617
0.0884936
0.111359
0.0278807
0.0131465
0.0522131
0.00933266
0.0351538
0.177896
0.0199085
0.015443
0.00927064
0.0116198
0.163011
0.0275508
0.101177
0.153936
0.0146231
0.0850947
0.0264428
0.0100202
0.015487
0.0120201
0.0879975
0.0116446
0.0835232
0.0311523
0.0101304
0.0999751
0.00982545
0.00987669
0.100633
0.0950855
0.00995504
0.0849018
0.00979116
0.00988086
0.00931602
0.116727
0.126707
0.115979
0.0796952
0.035254
0.0114374
0.0973365
0.00932491
0.157166
0.0824875
0.142868
0.00945724
0.0484747
0.0137569
0.062089
0.0100644
0.0320928
0.0110546
0.0156319
0.00932954
0.0139022
0.0141003
0.0121
0.0937279
0.0120873
0.0930844
0.0739658
0.018807
0.0109272
0.0287476
0.0097193
0.0357959
0.0901968
0.0113051
0.0486273
0.0841491
0.0978233
0.041297
0.00986588
0.0408927
0.0442078
0.0103697
0.044625
0.141541
0.0110373
0.115131
0.0976433
0.00934822
0.0155197
0.123384
0.0244451
0.021507
0.0102445
0.00941127
0.142362
0.00936184
0.00936154
0.00961243
0.0181166
0.0148513
0.0415869
0.00999612
0.0921408
0.0110774
0.0149225
0.00923934
0.0100575
0.0256277
0.084434
0.142424
0.0943164
0.0112091
0.158651
0.0650773
0.0918115
0.0100646
0.00999392
0.0127583
0.0820155
0.0353696
0.103629
0.100058
0.0107364
0.0414697
0.0110705
0.0468206
0.103343
0.0684398
0.034819
0.00965621
0.00923646
0.00928604
0.0112049
0.0454542
0.0199574
0.0100322
0.0109986
0.0106295
0.0779364
0.144931
0.0126553
0.0912344
0.122491
0.0106135
0.0139362
0.0806058
0.0097305
0.0102696
0.00933684
0.00970629
0.111992
0.012067
0.00951341
0.0886369
0.00931293
0.00960772
0.0174961
0.020422
0.0122544
0.0139192
0.0755614
0.147756
0.1074
0.0402581
0.0716709
0.106703
0.0595018
0.0283612
0.0206651
0.00935703
0.0121623
0.0185783
0.0124856
0.0126806
0.117039
0.0369924
0.0879287
0.102734
0.105415
0.0108747
0.0411389
0.0112699
0.174054
0.0197237
0.104023
0.0101786
0.105236
0.0696791
0.033177
0.00931996
0.160572
0.0810022
0.0170842
0.116081
0.0198621
0.026511
0.0185137
0.04483
0.045983
0.0111415
0.0893009
0.00932343
0.0371571
0.0700185
0.0776369
0.00941229
0.00945769
0.0900157
0.0194113
0.0399768
0.00932514
0.00937156
0.0893645
0.0191546
0.0144981
0.0135086
0.0114218
0.134303
0.137528
0.0194998
0.00956654
0.00936018
0.116958
0.0100236
0.0346189
0.00955457
0.0096059
0.00931833
0.00967283
0.00979252
0.0441854
0.00940968
0.0728628
0.0103685
0.0337479
0.0118716
0.009622
0.0142554
0.0141131
0.100756
0.118673
0.154497
0.00984245
0.00917315
0.0156619
0.0203039
0.125147
0.152859
0.0262879
0.0125966
0.00944931
0.0122742
0.0172686
0.00916729
0.0175048
0.111035
0.0220489
0.0808176
0.120254
0.0118212
0.0437117
0.0148886
0.168213
0.00947837
0.00933417
0.00947053
0.0501064
0.0119107
0.00978703
0.0237707
0.00933726
0.0436428
0.00989521
0.0131995
0.149633
0.0094681
0.0247937
0.0873511
0.0442436
0.0102278
0.0197322
0.0560208
0.145204
0.00967737
0.0206032
0.0111689
0.021393
0.113141
0.0157317
0.148813
0.0108121
0.0173888
0.0101345
0.0821511
0.0313281
0.0401662
0.116744
0.00923029
0.00962309
0.166002
0.010718
0.00935482
0.105564
0.0694446
0.0838148
0.0118666
0.00943938
0.182116
0.0932629
0.0905172
0.0265431
0.00935738
0.126166
0.0117183
0.0121776
0.00945188
0.117236
0.010274
0.124079
0.0108432
0.146368
0.079591
0.0119644
0.0762889
0.155495
0.111792
0.0834809
0.0848837
0.0136621
0.0933988
0.0766514
0.0116267
0.00986583
0.11423
0.0341618
0.0903275
0.00978964
0.0859201
0.0100547
0.0887398
0.0215837
0.00960792
0.0905619
0.0096829
0.103599
0.174887
0.0134353
0.00945425
0.0176846
0.021186
0.00941954
0.0779328
0.0103085
0.0765653
0.00970749
0.0221637
0.116128
0.0125803
0.0820458
0.117293
0.0139189
0.104211
0.0167939
0.00939745
0.0200817
0.0914735
0.00950867
0.0529876
0.00922212
0.00945081
0.00939518
0.00949782
0.104669
0.0898474
0.00946446
0.0107544
0.132278
0.0108473
0.00932458
0.00959734
0.00935214
0.0278842
0.160524
0.00957815
0.0340999
0.0115553
0.0404671
0.100021
0.00936499
0.0457072
0.016843
0.00929283
0.0146067
0.193282
0.145346
0.0095743
0.010169
0.00931514
0.0123726
0.0521255
0.0130905
0.00970656
0.135495
0.00946504
0.0144874
0.102176
0.0737689
0.0159777
0.0148339
0.0173291
0.0226976
0.035648
0.00917421
0.0446954
0.00975
0.0100118
0.00927606
0.00961937
0.102188
0.0108932
0.132283
0.0959778
0.0736909
0.0101619
0.0173647
0.0339012
0.00982297
0.00982061
0.0127888
0.0098832
0.115271
0.0103306
0.0129966
0.00951523
0.0253434
0.014353
0.00959193
0.0293027
0.109791
0.0909216
0.103395
0.164106
0.099949
0.01807
0.0165022
0.172281
0.163285
0.00924603
0.0734751
0.114167
0.0132132
0.0309358
0.0168882
0.112324
0.0860482
0.0267028
0.00995438
0.013298
0.137122
0.127541
0.0613294
0.118497
0.0182463
0.123059
0.033544
0.0094532
0.00956094
0.102259
0.0396384
0.117671
0.124592
0.00957339
0.176748
0.0101684
0.0882437
0.0117065
0.0146496
0.138765
0.0832379
0.0130307
0.11514
0.0104484
0.0900914
0.0338406
0.00934154
0.117828
0.140356
0.0910408
0.0185267
0.0367535
0.094322
0.0591817
0.136124
0.00932206
0.117262
0.0103475
0.0147471
0.0101964
0.156395
0.0140777
0.0486251
0.0121223
0.0941637
0.0136831
0.0117246
0.109885
0.0092243
0.0298096
0.0241362
0.124568
0.0800885
0.00940628
0.0193178
0.137625
0.0287941
0.0801349
0.129257
0.00950363
0.0119432
0.0198319
0.00983467
0.0095974
0.00998567
0.0204137
0.0921769
0.0985823
0.00949055
0.012053
0.0256618
0.0194681
0.0627834
0.0142096
0.010682
0.0402629
0.037641
0.116883
0.0534924
0.115339
0.0121123
0.00977291
0.0496722
0.0391712
0.167442
0.0590304
0.0881796
0.00964616
0.00957353
0.0124169
0.0111097
0.0589843
0.0166107
0.0176403
0.153619
0.00954078
0.100089
0.0158861
0.126022
0.00997271
0.0105421
0.0117235
0.0285568
0.0129741
0.0132073
0.00932118
0.10992
0.0781976
0.147529
0.00967605
0.0122212
0.0165667
0.0117012
0.233808
0.0413078
0.0497135
0.00971428
0.0198112
0.0135856
0.0352151
0.00941283
0.141868
0.0489313
0.0115722
0.107389
0.0979989
0.0734213
0.1544
0.0451397
0.00983973
0.0695337
0.166883
0.0328954
0.1074
0.0385158
0.00977519
0.00922079
0.00983416
0.0109794
0.00962711
0.0226961
0.121373
0.00982853
0.0201064
0.0549457
0.0377092
0.010713
0.0286655
0.0700493
0.0126292
0.109606
0.0502422
0.0401897
0.0695814
0.0120656
0.0456264
0.0214739
0.127306
0.128679
0.0812463
0.159232
0.0198155
0.0114463
0.0197032
0.039996
0.016214
0.0122137
0.138744
0.0111062
0.0100483
0.0942519
0.150952
0.0250791
0.033235
0.12246
0.0110002
0.142356
0.00960418
0.0119073
0.0207456
0.0117257
0.0116205
0.038658
0.00937137
0.20633
0.120366
0.0360714
0.0362773
0.170525
0.013968
0.0121466
0.00955507
0.0100581
0.0615295
0.011766
0.00922265
0.0471554
0.087546
0.010235
0.0395565
0.10774
0.0107797
0.00964416
0.0114027
0.046069
0.0205331
0.0342674
0.0506211
0.0351342
0.0404856
0.018927
0.0831078
0.0109557
0.00946549
0.00954899
0.0159425
0.0309411
0.0219997
0.113304
0.0803443
0.022324
0.0157845
0.0180986
0.00931369
0.012701
0.00920584
0.00922978
0.234083
0.0271569
0.0094924
0.14533
0.0156534
0.0122175
0.142206
0.0123945
0.00957718
0.0363481
0.00961314
0.00933064
0.00968868
0.0739353
0.0103596
0.0957469
0.0329091
0.00987245
0.123125
0.0863842
0.0859841
0.0246407
0.102037
0.0123948
0.00975824
0.00979027
0.0117883
0.0496989
0.080249
0.0115777
0.0110278
0.0259985
0.0495331
0.0118917
0.00948525
0.00939947
0.122273
0.00943255
0.044153
0.0564884
0.118876
0.0827887
0.0490715
0.0096223
0.0971286
0.0102624
0.0100404
0.0102568
0.00938765
0.0100637
0.00940836
0.00957754
0.00929414
0.00970835
0.0176892
0.0237574
0.108451
0.0965164
0.0108705
0.0202482
0.125022
0.010479
0.0326689
0.00932035
0.00931143
0.00939414
0.0129678
0.0482389
0.00951368
0.123602
0.0402343
0.0093926
0.0793268
0.00955038
0.113776
0.059319
0.010487
0.0652579
0.102946
0.0104932
0.0112073
0.0130743
0.105979
0.00969794
0.113094
0.0445381
0.0694216
0.0769143
0.0427206
0.00926355
0.0769439
0.0120247
0.0103303
0.0305147
0.00928917
0.00923146
0.0270237
0.00916785
0.00965012
0.0686465
0.00928667
0.0841826
0.114044
0.0101019
0.0110755
0.0905316
0.0094835
0.0325068
0.0587803
0.00981428
0.168081
0.0103278
0.00966534
0.0277196
0.123142
0.0853988
0.041385
0.087
0.0174565
0.0197262
0.037692
0.159799
0.0327732
0.0101611
0.0110832
0.00938224
0.00948844
0.0480846
0.0112832
0.00945177
0.0312467
0.0149476
0.118028
0.0252271
0.011501
0.00931476
0.07494
0.0111618
0.0480257
0.0287104
0.139956
0.0240925
0.0519204
0.111676
0.0214396
0.100075
0.0108111
0.0343174
0.00939452
0.0941485
0.00924803
0.0409431
0.0900879
0.0432569
0.0150179
0.141141
0.0106829
0.0124561
0.0901034
0.176564
0.0874545
0.00920616
0.0134459
0.0097288
0.0378826
0.0988957
0.0134124
0.142733
0.0313842
0.00939189
0.013865
0.0906595
0.0150178
0.143611
0.0513721
0.0121582
0.00927583
0.120721
0.0118747
0.0226048
0.0876724
0.0106964
0.0111761
0.00917813
0.0137631
0.0397511
0.0900195
0.0103932
0.0133977
0.139676
0.107715
0.0854588
0.0101413
0.0436411
0.0105051
0.0930245
0.00977439
0.118171
0.0176297
0.0241401
0.0103259
0.00940846
0.0175915
0.0149442
0.144192
0.12464
0.0127663
0.0164441
0.140483
0.111201
0.0103554
0.0129799
0.0106377
0.0349922
0.0158873
0.010543
0.00989093
0.0764752
0.0479473
0.0734912
0.0145714
0.0547501
0.120967
0.111025
0.00960801
0.0320577
0.0425457
0.0108176
0.0107989
0.14489
0.0103672
0.00961541
0.101008
0.137765
0.009815
0.00932136
0.133781
0.167602
0.00945515
0.0376366
0.150904
0.0686387
0.00943216
0.00987582
0.00961628
0.0156092
0.0107235
0.130792
0.112248
0.00942151
0.00970408
0.0366727
0.0120164
0.0917625
0.0872501
0.0887322
0.0125069
0.17351
0.0123264
0.0155874
0.0437397
0.0803503
0.16299
0.00933145
0.00934704
0.0252917
0.00943866
0.0338687
0.0130271
0.103666
0.0815016
0.206802
0.0335187
0.0145518
0.0372379
0.0912382
0.0478249
0.0261873
0.0142093
0.042035
0.0120156
0.0100012
0.03484
0.0897318
0.123105
0.0103596
0.140959
0.0250527
0.0222574
0.0506379
0.13537
0.0141368
0.0769528
0.169802
0.146725
0.0174521
0.00940962
0.0195128
0.0185153
0.0542755
0.0326522
0.129986
0.114449
0.108038
0.00930884
0.0385467
0.0139534
0.0323576
0.0328117
0.0176718
0.148055
0.0239919
0.133975
0.0107026
0.0323259
0.129888
0.00936759
0.0418326
0.0189803
0.0492622
0.0910139
0.152758
0.0136527
0.0980235
0.0094332
0.00934926
0.0208952
0.0745255
0.136687
0.0106049
0.107836
0.0103486
0.0104108
0.00959931
0.0938937
0.0110073
0.0104601
0.011234
0.0106729
0.14578
0.0942081
0.0099193
0.0333145
0.0753905
0.0093063
0.0220907
0.0198329
0.0424054
0.109946
0.168543
0.0995944
0.0109866
0.0101927
0.0226742
0.142442
0.116359
0.0133183
0.0244816
0.0694684
0.00931328
0.0111366
0.0105975
0.0100974
0.00934314
0.011458
0.0155599
0.0295626
0.0259499
0.0278105
0.0662035
0.0787494
0.00926585
0.0174327
0.110061
0.0894319
0.00972527
0.102856
0.013391
0.0409087
0.0102717
0.0133944
0.0279521
0.00947101
0.00990626
0.0106137
0.0912437
0.103792
0.00966122
0.00921072
0.152035
0.0520996
0.0235796
0.0095884
0.0163929
0.16752
0.0334084
0.0161808
0.0554464
0.0095885
0.0274479
0.15312
0.0223615
0.128284
0.0458753
0.158747
0.011592
0.0127995
0.00959181
0.143339
0.0861442
0.0553751
0.0119132
0.092519
0.0922811
0.0470718
0.00947297
0.123313
0.00920247
0.0132175
0.0738989
0.0750991
0.104471
0.010649
0.0093513
0.0138805
0.0219854
0.0392564
0.0374219
0.0410931
0.128271
0.132611
0.108322
0.0449805
0.00933315
0.122885
0.192628
0.0877455
0.130481
0.0116058
0.127831
0.0102644
0.00934706
0.0152556
0.0722071
0.00961985
0.119101
0.0697993
0.00933092
0.0109804
0.024341
0.00984008
0.0102089
0.146363
0.0191739
0.0114614
0.00956068
0.0467431
0.0117625
0.00943762
0.0358033
0.113782
0.135755
0.0335909
0.00939636
0.124452
0.0529788
0.0107483
0.110071
0.123177
0.0387827
0.0843425
0.0681646
0.136148
0.101666
0.12381
0.152302
0.107034
0.160201
0.0339245
0.0585926
0.00937926
0.156399
0.00963002
0.0195364
0.01318
0.0301009
0.0109813
0.123642
0.0110817
0.0104731
0.0433058
0.00929591
0.0206003
0.184506
0.024171
0.0503587
0.115008
0.119175
0.0162387
0.043172
0.136175
0.0128439
0.0157576
0.00935416
0.0103565
0.0934746
0.0253989
0.0510992
0.0118344
0.0162544
0.0157351
0.00986145
0.0451518
0.0117762
0.0188756
0.0109832
0.0354908
0.0330931
0.0249285
0.0484157
0.00943322
0.0161046
0.0879966
0.015862
0.0913881
0.149076
0.0869726
0.0157622
0.0149053
0.00927601
0.0116206
0.0266181
0.061318
0.0292768
0.161227
0.146485
0.103183
0.0815553
0.0928303
0.0109843
0.0971129
0.0266928
0.141881
0.123541
0.00936452
0.0897922
0.0108173
0.021231
0.00992642
0.114405
0.0961747
0.0216752
0.0130783
0.159514
0.0185317
0.0824592
0.0335393
0.00952281
0.0129754
0.0094905
0.0395241
0.0412485
0.0474076
0.0759708
0.111751
0.0980558
0.148143
0.0326469
0.00992747
0.0600763
0.0828413
0.045281
0.0141562
0.0113565
0.0856922
0.0183984
0.136492
0.0700834
0.0129523
0.0962361
0.0551192
0.045534
0.0241487
0.0370987
0.0131624
0.0447879
0.0368494
0.0102874
0.0306767
0.010451
0.132902
0.155634
0.0224733
0.0385746
0.0131337
0.0341734
0.040285
0.159408
0.0177758
0.0216394
0.0137415
0.0486761
0.112496
0.0852559
0.0988867
0.0228435
0.0722513
0.0346335
0.149208
0.0248353
0.103849
0.0546927
0.00964054
0.0870302
0.0129985
0.0112746
0.109791
0.123016
0.0254624
0.157454
0.012293
0.0103135
0.0534226
0.0123678
0.0373653
0.0259254
0.123008
0.0325353
0.0242693
0.00925861
0.160283
0.0108061
0.0202622
0.0535793
0.0187355
0.122516
0.0101966
0.115458
0.012253
0.023725
0.0145831
0.0200987
0.10461
0.130891
0.00948066
0.00954786
0.103876
0.0318167
0.119798
0.023434
0.0799744
0.152674
0.0400193
0.0130111
0.0496075
0.00941612
0.0264811
0.0172148
0.128722
0.00931501
0.114724
0.0622349
0.00961396
0.00939854
0.0189684
0.131947
0.100372
0.0092954
0.00934435
0.0123006
0.0139067
0.0113761
0.206281
0.0178777
0.013444
0.0177593
0.0913367
0.0208208
0.00965125
0.0176488
0.0100096
0.00933297
0.0829868
0.0125882
0.105912
0.0116319
0.0420966
0.016046
0.0124484
0.0101172
0.00951397
0.112319
0.00927607
0.0840973
0.127778
0.020634
0.0908247
0.012024
0.153204
0.0851614
0.102742
0.0535322
0.0193968
0.120591
0.116858
0.0157526
0.040188
0.0095696
0.0376459
0.156282
0.0518358
0.111093
0.0298024
0.0115321
0.0857484
0.0118513
0.00963503
0.011221
0.0105131
0.00963055
0.0116032
0.00969741
0.0145176
0.0874347
0.15817
0.0155751
0.151774
0.0269747
0.0253178
0.0566219
0.00932942
0.0216392
0.105412
0.00917388
0.0985504
0.0418649
0.0731994
0.0187646
0.0093083
0.0626104
0.0347625
0.104021
0.0214852
0.0250905
0.0495798
0.0142835
0.176843
0.138906
0.00952035
0.0215976
0.0100202
0.0354684
0.212202
0.00931987
0.0720102
0.00920608
0.0109772
0.122352
0.0127085
0.0103353
0.121118
0.0897576
0.00927692
0.0385257
0.143088
0.0126445
0.0836776
0.130307
0.0418601
0.00951456
0.00938549
0.0133778
0.0100341
0.0145791
0.00946578
0.0302037
0.0348192
0.00966585
0.0137584
0.145381
0.110019
0.0224976
0.0101149
0.027368
0.147677
0.137297
0.0143951
0.101679
0.0134983
0.0102923
0.00929911
0.108377
0.0563103
0.00958947
0.0246702
0.0125499
0.0158481
0.0789968
0.121905
0.00984296
0.12476
0.0734042
0.129457
0.0970191
0.010386
0.00939391
0.0142552
0.0323645
0.0448374
0.0438703
0.0102207
0.0115732
0.0953764
0.00926896
0.0104887
0.0110686
0.13028
0.023806
0.149445
0.0453188
0.0988197
0.0113975
0.0152603
0.0116729
0.132951
0.0533218
0.0751096
0.150469
0.0124956
0.139947
0.0865411
0.00989024
0.0109741
0.00929944
0.110892
0.0355423
0.0911829
0.00938666
0.0112122
0.0103901
0.00974234
0.103125
0.0151552
0.0262771
0.00936293
0.0101283
0.0103445
0.0110539
0.00934529
0.159698
0.103295
0.0291924
0.0092383
0.0140191
0.10226
0.00967198
0.0801764
0.0239909
0.0167714
0.0521222
0.0638652
0.0827241
0.168319
0.0124593
0.0159863
0.0834691
0.0243335
0.163746
0.0118892
0.0093995
0.14128
0.0269695
0.0223823
0.0105432
0.0984014
0.178904
0.125328
0.0724868
0.0787852
0.137481
0.127326
0.178869
0.0517245
0.0104265
0.0147578
0.0110524
0.0215101
0.141378
0.0121182
0.0243241
0.181699
0.151657
0.116503
0.0440849
0.094961
0.0115468
0.0142674
0.00928123
0.0131586
0.1027
0.0544433
0.0122209
0.00952688
0.0140415
0.0112023
0.0098005
0.0922221
0.0328457
0.0132343
0.0106276
0.182026
0.02312
0.0342465
0.022347
0.028459
0.00953286
0.0858623
0.121735
0.157772
0.0412433
0.00925027
0.00929475
0.0116618
0.0793965
0.0348593
0.09363
0.039565
0.0102913
0.102822
0.081326
0.00967645
0.0130634
0.0118849
0.0107663
0.0474808
0.0710323
0.0138471
0.0372336
0.0234413
0.0155022
0.0175296
0.00966973
0.0561626
0.0159175
0.157754
0.121206
0.181723
0.0476636
0.0260128
0.0391481
0.103516
0.0144137
0.0949733
0.0819635
0.151573
0.0254721
0.00952209
0.0102971
0.155853
0.0871533
0.0924977
0.129349
0.0877393
0.00953795
0.00933064
0.130288
0.109404
0.0841703
0.00943635
0.00932478
0.0145212
0.0433336
0.0126221
0.0152468
0.0406414
0.115396
0.00918327
0.0158497
0.0152505
0.0238476
0.0138353
0.00992021
0.0595848
0.0232493
0.0678228
0.010008
0.0105752
0.00969519
0.168221
0.00974248
0.136282
0.0118972
0.0125591
0.0104579
0.0108269
0.092156
0.135419
0.0977986
0.00948623
0.00947409
0.0201907
0.0102846
0.13355
0.0442943
0.0108324
0.00964387
0.0310135
0.0985194
0.0203478
0.031706
0.0103856
0.00989339
0.0100482
0.009608
0.0134297
0.0146738
0.047668
0.0100562
0.00998311
0.0136182
0.0462892
0.111031
0.14199
0.0590846
0.0348454
0.00953345
0.0095513
0.12219
0.0296912
0.0168211
0.018154
0.0427217
0.011145
0.0146868
0.0178927
0.0092422
0.0365703
0.0181003
0.0928643
0.0285309
0.0150459
0.144554
0.0236986
0.0125819
0.0164755
0.0114584
0.00945809
0.141617
0.0103781
0.0526593
0.0098691
0.0612371
0.00999002
0.0230265
0.0447884
0.0246031
0.147695
0.0240102
0.0974696
0.114024
0.0150367
0.13981
0.0097102
0.0113064
0.0096043
0.102328
0.0388026
0.136033
0.0176454
0.120195
0.0448892
0.0116421
0.0109242
0.00969279
0.0132208
0.0118947
0.00944157
0.0116564
0.011015
0.0114295
0.100208
0.0386645
0.00929727
0.0093454
0.0771527
0.0135329
0.0103343
0.00986544
0.137103
0.0162802
0.1266
0.00938447
0.123107
0.107863
0.0274611
0.018418
0.0153864
0.0294573
0.135389
0.0102644
0.119026
0.12235
0.0131945
0.0868714
0.0503122
0.0196859
0.0114318
0.147885
0.0790496
0.120867
0.009717
0.0104597
0.0741794
0.0123878
0.0455179
0.0802617
0.00952283
0.109971
0.017267
0.011789
0.00981101
0.0121947
0.00964966
0.00965938
0.0231977
0.00918631
0.0136274
0.00963398
0.0328172
0.0384573
0.00936257
0.0534487
0.0119861
0.0138718
0.0111339
0.0131586
0.00946582
0.015373
0.0977936
0.0112637
0.0093443
0.0850146
0.0247664
0.00928439
0.17304
0.0111325
0.00987611
0.0440506
0.0219614
0.0890279
0.0315828
0.00978086
0.0122678
0.0431657
0.0825381
0.084721
0.021081
0.102002
0.108124
0.132407
0.0167562
0.00988888
0.00935483
0.0177231
0.0141609
0.014747
0.0766109
0.0318476
0.00955497
0.00938292
0.00925142
0.00936353
0.136345
0.175078
0.151895
0.0695401
0.0111267
0.00958253
0.00933726
0.0472132
0.0120114
0.0105087
0.166208
0.00931603
0.0108335
0.00971179
0.00944423
0.0634021
0.0831328
0.0257105
0.0925007
0.0117358
0.0142577
0.0380868
0.0123058
0.0457578
0.0768072
0.0381258
0.00928596
0.0483728
0.0214724
0.00975117
0.0232999
0.104303
0.0101553
0.00929208
0.0858374
0.107666
0.0465475
0.0898983
0.0095687
0.0228331
0.0938246
0.00943577
0.00936365
0.0103246
0.0214268
0.0104233
0.0115314
0.0107442
0.0157143
0.0491972
0.0136861
0.0660823
0.0626972
0.0848102
0.00967074
0.0280433
0.0103185
0.0167922
0.0446458
0.0365666
0.14761
0.0357011
0.157898
0.0459582
0.0145928
0.0135941
0.0101861
0.0125678
0.123652
0.10005
0.0104415
0.058621
0.0744937
0.0210897
0.0991657
0.00969486
0.0172531
0.0118139
0.0270113
0.0106806
0.0252223
0.0112132
0.116814
0.00976455
0.121472
0.120905
0.0718077
0.0184668
0.0244379
0.00927197
0.1125
0.0093687
0.0129631
0.0366886
0.0538401
0.0488105
0.111975
0.0839341
0.101754
0.0723497
0.0093116
0.0926936
0.0120275
0.0791634
0.16801
0.0434001
0.100336
0.161666
0.13962
0.0148279
0.0276496
0.00986682
0.0767705
0.00925032
0.128657
0.0297477
0.0810018
0.0123722
0.010791
0.148285
0.0177314
0.0110003
0.0111352
0.015969
0.0206149
0.0100086
0.0113675
0.0102673
0.0161751
0.106472
0.0496905
0.0904436
0.0125272
0.134537
0.0469711
0.0128048
0.0603601
0.0349586
0.153191
0.0263003
0.0332469
0.00955692
0.0190051
0.0106785
0.0160346
0.0104568
0.0200715
0.00923401
0.0852926
0.0851408
0.012492
0.0105784
0.0158263
0.0131393
0.0105185
0.0119784
0.0142663
0.113764
0.013312
0.00937226
0.132615
0.0231393
0.11961
0.0182419
0.0704182
0.110284
0.0123664
0.105216
0.110825
0.144022
0.130079
0.112123
0.0100015
0.021629
0.00939577
0.0196287
0.0767065
0.0106568
0.00931833
0.0106614
0.162804
0.0155179
0.0316216
0.0283964
0.0117999
0.135893
0.125779
0.0153841
0.105916
0.00943075
0.101312
0.0214692
0.0670978
0.00926207
0.00929534
0.0111668
0.105598
0.145737
0.117142
0.0122367
0.0781873
0.202574
0.0273369
0.046584
0.137201
0.0405949
0.0847868
0.0213439
0.0145488
0.00956495
0.011827
0.189506
0.0326229
0.157601
0.00932964
0.0124861
0.0243218
0.0111213
0.0438301
0.0317969
0.152684
0.0141213
0.037138
0.00940189
0.00934065
0.0842451
0.182859
0.0100206
0.0110506
0.00956119
0.0713486
0.0158168
0.152975
0.107978
0.0986273
0.00994779
0.127077
0.0301737
0.177308
0.0907959
0.0143051
0.0904057
0.117886
0.121841
0.0136277
0.0116125
0.00956004
0.090028
0.0170509
0.0105359
0.0281926
0.0250098
0.0120616
0.00958034
0.00970662
0.169861
0.0121194
0.025429
0.0712596
0.10446
0.0094908
0.00978971
0.039054
0.0126897
0.160442
0.0300968
0.0207744
0.161605
0.0117032
0.010634
0.0147384
0.0844632
0.0096519
0.0933191
0.00929691
0.0858497
0.14911
0.00967136
0.0107393
0.072819
0.0137607
0.0103828
0.0101581
0.00967655
0.0807096
0.119913
0.010071
0.01402
0.0155869
0.0109101
0.0860771
0.0168758
0.0815677
0.0738681
0.0114837
0.00937934
0.0371986
0.0119953
0.0228108
0.112964
0.0910854
0.00966718
0.0118577
0.0928479
0.122436
0.0518936
0.0144581
0.0146047
0.136065
0.0497587
0.0110531
0.00988727
0.0112339
0.0135437
0.0293949
0.00932229
0.0145302
0.0101724
0.0485706
0.124291
0.161101
0.0224246
0.0371151
0.0124908
0.0115544
0.00987731
0.010723
0.00953968
0.0107593
0.0126033
0.0098893
0.0358772
0.0111924
0.0111102
0.0409471
0.0105199
0.0440776
0.13199
0.0243059
0.016575
0.0188206
0.0240034
0.0200336
0.0439389
0.0966151
0.0153294
0.0113015
0.013665
0.0255764
0.12811
0.0105838
0.036428
0.144861
0.0158211
0.1211
0.0259613
0.0129839
0.0152315
0.0184661
0.0314729
0.104981
0.147395
0.112613
0.00929178
0.0987445
0.0117588
0.010698
0.107324
0.00920725
0.0419799
0.00937024
0.0243211
0.0234638
0.061967
0.00915519
0.00984576
0.155838
0.0109638
0.10423
0.163536
0.0152817
0.0755227
0.0103981
0.0104876
0.00952426
0.0368939
0.0533929
0.0147155
0.0108717
0.0152041
0.0877546
0.141763
0.022323
0.012662
0.0273805
0.00937415
0.0523322
0.0411517
0.0118378
0.0104692
0.0112312
0.0442778
0.0319576
0.0469802
0.0201718
0.0145295
0.0286901
0.036179
0.112294
0.0135975
0.0164733
0.0126365
0.00994638
0.0152695
0.0095454
0.101429
0.0245647
0.0638196
0.0893429
0.0125453
0.0584524
0.00934795
0.00990972
0.0164791
0.140851
0.0400238
0.0124111
0.0098875
0.0844507
0.010518
0.0544808
0.0210346
0.0557668
0.0315777
0.0132508
0.0113088
0.183793
0.016357
0.0107268
0.0108376
0.0424389
0.0134004
0.0115515
0.134485
0.00923989
0.103825
0.0154164
0.00987092
0.010634
0.0247624
0.0416111
0.0641723
0.0846781
0.108701
0.0100786
0.0102514
0.116865
0.101188
0.0150814
0.01605
0.0892647
0.0348331
0.0165246
0.0164639
0.0144617
0.146864
0.0125676
0.0379574
0.102314
0.0103809
0.0818045
0.0486543
0.145398
0.0981067
0.051307
0.0897659
0.0218671
0.0832931
0.0250382
0.114121
0.149701
0.0235287
0.123539
0.0802537
0.0152611
0.128366
0.0134873
0.0848135
0.0696423
0.082953
0.00968527
0.129253
0.125905
0.0175286
0.0122652
0.0203478
0.093044
0.0159
0.0504734
0.022486
0.0770946
0.0391072
0.0092485
0.0421631
0.00974119
0.0142197
0.0205114
0.0102624
0.164126
0.02107
0.0275744
0.0127696
0.132648
0.0276828
0.168547
0.0420472
0.0432513
0.0100397
0.0111019
0.0329507
0.0131087
0.0207383
0.00928527
0.0110328
0.0518732
0.00927516
0.0680556
0.0116984
0.0173308
0.0804608
0.0140957
0.0711303
0.0101706
0.0125756
0.0761114
0.0188803
0.0244703
0.167237
0.0112621
0.152954
0.0973555
0.0306588
0.0121564
0.0164168
0.0843841
0.0100425
0.0111428
0.0365102
0.0789137
0.047275
0.128916
0.0139435
0.047238
0.0175575
0.0444119
0.00941307
0.0143657
0.11039
0.0165914
0.00938702
0.0434421
0.172163
0.0722402
0.0145766
0.0867002
0.0471549
0.0790186
0.0149838
0.0468187
0.0934132
0.088224
0.00958265
0.133566
0.0121757
0.135724
0.0102776
0.0380279
0.0122692
0.116022
0.014444
0.00978501
0.0106076
0.00977375
0.0357975
0.156135
0.154176
0.0327544
0.171812
0.0114414
0.116788
0.00977609
0.0144459
0.0220809
0.0106138
0.143175
0.0770421
0.0827968
0.0134381
0.116934
0.0135036
0.0434868
0.0164491
0.0753282
0.110101
0.12972
0.0119927
0.0870994
0.0110249
0.0230891
0.0223376
0.0880448
0.0872657
0.028259
0.0346082
0.0982349
0.00957792
0.0111236
0.053839
0.0408529
0.0149359
0.0118784
0.010628
0.00973164
0.00981214
0.0361828
0.0539252
0.00984219
0.169991
0.126195
0.0196321
0.0125366
0.0093314
0.136124
0.0920927
0.00928954
0.0403856
0.00921296
0.109259
0.00931894
0.00971594
0.0112452
0.0810998
0.0506746
0.139476
0.151601
0.0264729
0.145024
0.0206623
0.0681625
0.0227621
0.0175119
0.0108051
0.127855
0.167602
0.010874
0.0198341
0.121554
0.0113602
0.0111063
0.117434
0.160268
0.153771
0.100777
0.0638654
0.143687
0.0463894
0.00938836
0.115187
0.145393
0.0265925
0.0124539
0.0100197
0.0134921
0.0384315
0.185758
0.00968911
0.108479
0.0103099
0.0956821
0.036457
0.0216512
0.0370046
0.0276562
0.126374
0.00995701
0.0104742
0.00944137
0.154832
0.026408
0.0873653
0.0365089
0.0652492
0.128502
0.0317677
0.0295218
0.0254599
0.0579387
0.0148843
0.0926248
0.123017
0.0935834
0.0212064
0.0306449
0.0219106
0.123573
0.0277836
0.145724
0.187356
0.0164278
0.0101296
0.0865188
0.110247
0.0451131
0.0100666
0.0254322
0.011572
0.0227347
0.0165707
0.0121097
0.0138327
0.0093896
0.0848335
0.162839
0.0212137
0.0093531
0.00972651
0.0406038
0.159334
0.0456647
0.0104511
0.0806726
0.0403175
0.028509
0.0368719
0.0100751
0.0129329
0.00933403
0.131103
0.0178924
0.010349
0.0122868
0.0102055
0.0242791
0.0939844
0.0100853
0.0386762
0.154954
0.00953403
0.00975639
0.0295712
0.0501852
0.0125893
0.010377
0.0155801
0.00934486
0.0255871
0.0441818
0.105809
0.0887262
0.0109139
0.0194316
0.00938687
0.0177955
0.100751
0.114026
0.110561
0.146605
0.0761047
0.138593
0.0110368
0.144568
0.0193284
0.052579
0.00956646
0.117214
0.0120979
0.0978786
0.011339
0.187844
0.0959224
0.0914328
0.00946047
0.00977319
0.0556056
0.0467756
0.172611
0.126918
0.00963516
0.019823
0.0208648
0.00967314
0.00961167
0.0133082
0.0128783
0.0107441
0.0408647
0.0255874
0.0710795
0.0835128
0.153209
0.00948372
0.0741753
0.146433
0.00976105
0.0817426
0.0110447
0.134603
0.0134418
0.00999644
0.0267237
0.0368299
0.0109269
0.0166971
0.146449
0.0120919
0.00978394
0.108679
0.101804
0.0143506
0.0234922
0.157028
0.0611507
0.0105915
0.00938945
0.0293436
0.0113975
0.0259782
0.0259137
0.00931369
0.00933079
0.0433568
0.0153726
0.0337492
0.0458264
0.0124703
0.0232268
0.166896
0.00930422
0.0243259
0.170272
0.012645
0.0670725
0.015564
0.169204
0.0129853
0.033935
0.0198367
0.0151935
0.0142264
0.0889169
0.0134905
0.0357952
0.0261398
0.141806
0.0133985
0.0449974
0.00965292
0.0204894
0.0960735
0.118212
0.0178065
0.115298
0.0743896
0.0287859
0.118206
0.153564
0.0428996
0.00972469
0.0182946
0.00987999
0.123715
0.126648
0.13193
0.0104138
0.102239
0.0278349
0.00929188
0.0468943
0.00942834
0.0111416
0.0102023
0.139886
0.0133619
0.022212
0.155757
0.0338384
0.215343
0.0128997
0.0196392
0.124531
0.172649
0.0122036
0.155613
0.00930926
0.044153
0.121206
0.0104317
0.0665339
0.0576097
0.0279504
0.015591
0.0276526
0.0106673