/*--------------------------------*- C++ -*----------------------------------*\
| =========                 |                                                 |
| \\      /  F ield         | OpenFOAM: The Open Source CFD Toolbox           |
|  \\    /   O peration     | Version:  2406                                  |
|   \\  /    A nd           | Website:  www.openfoam.com                      |
|    \\/     M anipulation  |                                                 |
\*---------------------------------------------------------------------------*/
FoamFile
{
    version     2.0;
    format      ascii;
    arch        "LSB;label=32;scalar=64";
    class       volScalarField;
    location    "8";
    object      k;
}
// * * * * * * * * * * * * * * * * * * * * * * * * * * * * * * * * * * * * * //

dimensions      [0 2 -2 0 0 0 0];

internalField   nonuniform List<scalar> 
59516
(
0.00837099
0.00868154
0.00861092
0.00912821
0.00955861
0.0173003
0.00879443
0.00826115
0.0085601
0.0102219
0.00946536
0.00881792
0.00815031
0.0195976
0.00894866
0.00904505
0.00941472
0.00892721
0.00835932
0.00915096
0.0107289
0.00905284
0.00906365
0.0114774
0.00920943
0.00860751
0.0108023
0.0116433
0.00904042
0.0156325
0.00893158
0.0115273
0.00897625
0.00874936
0.00917242
0.0087905
0.0141429
0.00857054
0.00811213
0.00918849
0.00799918
0.00921598
0.00906633
0.00876354
0.00904031
0.00926891
0.00863641
0.00939749
0.00952875
0.00938536
0.00962929
0.0105666
0.00833666
0.00853034
0.010683
0.0086659
0.00938516
0.0113391
0.00944212
0.00910692
0.00929613
0.0153977
0.00937919
0.00930443
0.00880806
0.0092411
0.0180268
0.0107773
0.00913108
0.00899844
0.0144054
0.00936487
0.0141383
0.00899077
0.00945163
0.00926859
0.00943733
0.00909148
0.0104362
0.00944911
0.0111556
0.00935791
0.00913547
0.0144252
0.00933008
0.00931674
0.0108871
0.00883626
0.0090633
0.00833043
0.00940851
0.00908973
0.00930955
0.00921846
0.00939329
0.00961337
0.0092904
0.00910202
0.00907657
0.00910216
0.0110635
0.0151604
0.015803
0.00903474
0.00900779
0.00926304
0.0118735
0.00869814
0.00832774
0.00905727
0.00891538
0.0133669
0.00909867
0.0085114
0.00925581
0.00824464
0.00873424
0.00915179
0.0152157
0.00916817
0.00940846
0.0095141
0.00933681
0.0094349
0.00915442
0.00820713
0.0159066
0.00912715
0.0117674
0.00943198
0.00949543
0.00826851
0.0144939
0.00895028
0.00799007
0.00852281
0.00855244
0.00845204
0.0107754
0.0085495
0.0106413
0.00944117
0.0158109
0.00900887
0.00942377
0.00893044
0.00896193
0.0086048
0.0196818
0.00825909
0.00812418
0.0105231
0.00923366
0.00916107
0.00819057
0.016928
0.00857834
0.00837797
0.00797581
0.0154031
0.00906419
0.00883587
0.011567
0.018003
0.00807989
0.00931154
0.00898748
0.00933468
0.0158426
0.00912708
0.00814059
0.0089483
0.0082364
0.00915722
0.00965717
0.0086582
0.0094179
0.00914626
0.00879875
0.0107514
0.00909027
0.0115617
0.0172335
0.00848675
0.00944159
0.00870393
0.0103825
0.0155211
0.00869399
0.00837903
0.00912667
0.00873131
0.00923281
0.008149
0.00901018
0.0110034
0.0088979
0.0104364
0.00882002
0.00899421
0.00866728
0.00948874
0.00812351
0.0159883
0.00899532
0.00897838
0.00932204
0.00940715
0.0151601
0.00859273
0.00970552
0.0159717
0.00907871
0.00937287
0.00853685
0.00940138
0.00888989
0.00921518
0.00918725
0.00924402
0.00913759
0.0085874
0.00949195
0.0114142
0.00944448
0.00935747
0.013309
0.0105132
0.00941673
0.00892698
0.00934735
0.00944597
0.00947035
0.0138915
0.0111798
0.0106507
0.00843448
0.00824187
0.00922086
0.00940627
0.00947761
0.0155302
0.00856384
0.0163983
0.00947663
0.00791344
0.00919432
0.00885813
0.00927936
0.00828399
0.00930408
0.00907709
0.00951206
0.00907663
0.00908902
0.00918436
0.00907906
0.00921397
0.0104186
0.00917458
0.00893559
0.00939608
0.00856989
0.00934703
0.00869819
0.00857288
0.00928139
0.00812585
0.0110674
0.00870672
0.00861078
0.00945874
0.00783289
0.00846085
0.00940201
0.00790954
0.014341
0.00927362
0.0142841
0.0105544
0.00942311
0.00902931
0.0147169
0.00860889
0.00869379
0.00947906
0.00946438
0.0159541
0.00945433
0.00952875
0.00942067
0.00892059
0.00919786
0.00809102
0.00929798
0.0135109
0.00927246
0.00907242
0.00944136
0.00936172
0.00840037
0.0086633
0.0146194
0.012948
0.00920069
0.014776
0.00942941
0.00955073
0.00931484
0.00922573
0.00899551
0.00879668
0.00826006
0.0113029
0.00941903
0.00939209
0.00823053
0.00956641
0.0083481
0.0101289
0.00934838
0.00844294
0.00950689
0.00941295
0.00947656
0.00932499
0.00847872
0.00880696
0.00936966
0.00936985
0.00933553
0.00877741
0.015613
0.00923611
0.0101803
0.0112086
0.00927526
0.00925558
0.00872383
0.00937753
0.00942094
0.00946001
0.00941648
0.0106191
0.00915022
0.00946445
0.00923274
0.0094397
0.00946242
0.00902014
0.00876211
0.00923243
0.00917228
0.00838264
0.0118144
0.010837
0.00804775
0.00906916
0.0128329
0.00827378
0.00861826
0.00858268
0.00951024
0.00907931
0.00872498
0.00926499
0.00931753
0.0116144
0.00894724
0.0093544
0.0101527
0.0110185
0.00943448
0.00822744
0.00927204
0.0158049
0.00890813
0.0108866
0.00946791
0.00885586
0.00893427
0.00807102
0.0095034
0.0160278
0.00901262
0.00903518
0.0135547
0.00892167
0.00876264
0.00884503
0.00860882
0.00871166
0.00928665
0.00931883
0.00948495
0.0084123
0.00877146
0.00910235
0.00940601
0.00934965
0.00880477
0.00861124
0.00850267
0.00939109
0.0093925
0.0105663
0.00892554
0.00896239
0.00910485
0.00925124
0.0145216
0.014206
0.00884533
0.00942364
0.00948394
0.0113462
0.00957476
0.00781157
0.0095201
0.00936748
0.0093752
0.00947786
0.00945693
0.00811792
0.0095062
0.00867737
0.00935076
0.008371
0.00930702
0.00943734
0.00900709
0.0090766
0.0102395
0.0113701
0.0151672
0.00947654
0.00937926
0.00897746
0.00891432
0.0105942
0.0158353
0.00871322
0.00918708
0.00942022
0.00916078
0.00883769
0.00936757
0.00874529
0.013922
0.00877549
0.00908412
0.0131362
0.00929772
0.00841764
0.00907605
0.0163882
0.00944273
0.00934854
0.00950576
0.00796106
0.00939267
0.00943243
0.00868687
0.00947698
0.00841012
0.00941467
0.00909959
0.0146667
0.00948156
0.00863652
0.0101903
0.00797452
0.00926683
0.00873004
0.00815789
0.0141188
0.00949428
0.00863788
0.00930684
0.00873696
0.0104622
0.00899039
0.0155862
0.00940547
0.00975573
0.00943968
0.0105773
0.0085882
0.00831947
0.0101096
0.00943547
0.00951002
0.0163936
0.00932527
0.00950554
0.011257
0.00857607
0.00892769
0.00926286
0.00945839
0.0180131
0.00900313
0.00873592
0.00860516
0.00945332
0.0139246
0.00913267
0.00925083
0.00944777
0.0137762
0.00924109
0.0138583
0.00922796
0.0158622
0.0084244
0.00936841
0.00876552
0.0157517
0.011426
0.0100779
0.00913669
0.00900501
0.00925186
0.00849748
0.00937693
0.00947088
0.0146805
0.00801196
0.00902411
0.009451
0.00899608
0.00950696
0.00961463
0.00887854
0.0095926
0.0100972
0.00944163
0.0114366
0.0156633
0.00907501
0.00951021
0.00899885
0.00891216
0.00935408
0.00954146
0.00928795
0.00887359
0.00959487
0.00868513
0.0148176
0.00902219
0.0103172
0.0145522
0.00905335
0.010296
0.00901544
0.00949111
0.00858562
0.00875947
0.00937489
0.00817015
0.00941992
0.00942808
0.00943845
0.00954851
0.0104931
0.00939121
0.00943335
0.00933018
0.0120331
0.00936807
0.00934827
0.00932138
0.00937562
0.00834608
0.0158573
0.00937549
0.00871551
0.00935217
0.00810467
0.0136763
0.00952554
0.00849528
0.0090031
0.00940146
0.00917959
0.0154332
0.0149749
0.00945254
0.00945031
0.00948384
0.0093814
0.00808519
0.00927265
0.00940813
0.0145672
0.00949265
0.009148
0.0110693
0.00842126
0.00894119
0.00922235
0.00892601
0.00883194
0.00836731
0.00933467
0.0084931
0.00935803
0.00939898
0.00942778
0.0094362
0.0111053
0.00921149
0.0115356
0.0111449
0.00881228
0.00944467
0.00900999
0.00833802
0.00948217
0.00935599
0.00904816
0.00939115
0.010855
0.00988168
0.00953145
0.00942792
0.00891687
0.00911872
0.00950257
0.00831587
0.0104275
0.00862747
0.0126961
0.0164482
0.014076
0.00880014
0.0090302
0.0164899
0.0155317
0.00947518
0.0100863
0.0111019
0.00921349
0.00847757
0.00898174
0.0115023
0.00877987
0.0086075
0.00939394
0.00907512
0.0118339
0.013987
0.0105024
0.0143594
0.00877004
0.0146109
0.00874504
0.00949066
0.0092785
0.010672
0.00811176
0.0106163
0.0149076
0.00943614
0.0150892
0.00937673
0.0109894
0.00923382
0.0090968
0.0143197
0.00872818
0.00922304
0.0109178
0.00938668
0.00918836
0.00831056
0.00943508
0.0111539
0.0144951
0.0102983
0.00938468
0.00835658
0.00900343
0.00716379
0.0114946
0.00943007
0.0139655
0.00924924
0.0090767
0.00946031
0.0144099
0.00890701
0.00786601
0.0090595
0.00987082
0.00959274
0.00920603
0.0106315
0.0094323
0.00938714
0.00861044
0.0111103
0.0102487
0.00945158
0.00886147
0.0118028
0.0083041
0.00881273
0.0144696
0.00941591
0.00970652
0.00860998
0.00939897
0.0094384
0.00931272
0.00871651
0.0105203
0.0104064
0.00941745
0.00965105
0.00870593
0.00879176
0.0080336
0.00899789
0.00939445
0.00841298
0.00803716
0.0124034
0.0088038
0.0116957
0.00923556
0.00933882
0.00803695
0.0079919
0.0157943
0.00817423
0.00944825
0.00945956
0.00941042
0.00968135
0.00928393
0.00813611
0.00978937
0.00888251
0.0165001
0.00941572
0.00903169
0.00910939
0.0159069
0.00945602
0.00983206
0.00929721
0.0084165
0.00932579
0.00916569
0.00945553
0.010754
0.010352
0.0110952
0.00949428
0.00918972
0.00916972
0.00913224
0.0178468
0.00840907
0.00864235
0.00945906
0.00888906
0.00925995
0.00869529
0.0095179
0.0143178
0.00841138
0.00943573
0.0144269
0.0101187
0.00879639
0.0153347
0.00855084
0.00945728
0.00857113
0.0149988
0.00842107
0.0132847
0.00785321
0.00936773
0.00942267
0.00940632
0.00931451
0.00940373
0.00832643
0.0107945
0.00943405
0.00882032
0.00801803
0.00834089
0.00928977
0.00823101
0.00858886
0.00916242
0.010597
0.00801024
0.00834792
0.0087885
0.00927235
0.00908738
0.0087136
0.0114299
0.0150294
0.008584
0.0154753
0.00878215
0.00940911
0.00897559
0.00837351
0.00918298
0.00940589
0.0147749
0.00942895
0.00939636
0.00960323
0.0151783
0.00876637
0.00815172
0.0145156
0.00930074
0.0147455
0.00943773
0.00922172
0.00896825
0.0092947
0.00923091
0.00824593
0.00946801
0.0158438
0.0109995
0.0083196
0.00869708
0.0150265
0.00921727
0.0091969
0.00930078
0.00943971
0.00837288
0.00926826
0.00942814
0.00844249
0.0104803
0.00936433
0.00811613
0.011639
0.00928909
0.00956319
0.0093478
0.00809679
0.00860809
0.00820077
0.00806905
0.00870962
0.00827158
0.00876436
0.00828899
0.00950447
0.00939926
0.00969989
0.00891911
0.0085139
0.00875157
0.0112753
0.00974291
0.00863541
0.00896489
0.00882288
0.00944784
0.00910824
0.00938753
0.00930721
0.0183868
0.0085952
0.00935908
0.0149488
0.00902562
0.00930351
0.0120516
0.00922845
0.00946725
0.00823048
0.00939486
0.00946829
0.00935589
0.00901667
0.00979627
0.0110167
0.00797389
0.00942835
0.0145442
0.00916117
0.00851649
0.00862173
0.0101495
0.00921435
0.00933613
0.00947891
0.00929853
0.00838186
0.0105245
0.00921774
0.00925483
0.0085777
0.00861748
0.00929782
0.00950211
0.0094233
0.0117113
0.00947156
0.00822421
0.0085226
0.0117825
0.00873934
0.00794105
0.00940835
0.0099114
0.00936839
0.00940515
0.00940797
0.00945528
0.00943551
0.00934804
0.00932179
0.00941057
0.00972386
0.0088408
0.00862276
0.0109865
0.00930801
0.00934234
0.00884432
0.0119034
0.00930262
0.00858307
0.00950619
0.00950717
0.00949001
0.00934831
0.00819978
0.00941852
0.0162641
0.00844469
0.00946414
0.00939402
0.00953196
0.0112072
0.00808396
0.00951357
0.00840812
0.0106644
0.00949875
0.0094716
0.00914916
0.0102035
0.00951968
0.0108774
0.00813424
0.0083999
0.00860073
0.0080042
0.00943643
0.00902275
0.00924352
0.00938317
0.00859125
0.0094188
0.00942035
0.00845109
0.00932166
0.00937745
0.00882406
0.00943149
0.00991845
0.0109101
0.00964238
0.00937334
0.0137249
0.00940614
0.00841396
0.00761428
0.0094645
0.0164603
0.00927464
0.00942226
0.00864509
0.015032
0.0110994
0.00866615
0.0101823
0.00888822
0.00878633
0.00818637
0.0142138
0.00811137
0.0094235
0.00940378
0.00953253
0.00946196
0.0083847
0.00929048
0.0093966
0.00832961
0.00911678
0.0114513
0.00875329
0.00935113
0.00947484
0.00832681
0.0093235
0.00787888
0.00847811
0.0147854
0.00899128
0.00842473
0.01111
0.00899703
0.0112481
0.00936376
0.00812284
0.00940491
0.0108982
0.00944874
0.00848157
0.00886884
0.00808487
0.00913077
0.0143751
0.00931186
0.00917746
0.00836104
0.0172189
0.0104991
0.00940615
0.00918772
0.00953342
0.00844456
0.00879561
0.0093302
0.011173
0.00876839
0.00943572
0.00908189
0.00900026
0.00896274
0.0155887
0.00825863
0.00927764
0.00940274
0.0113496
0.00921304
0.0084601
0.0123818
0.00930566
0.00933349
0.00934161
0.00932573
0.00834897
0.012855
0.00930715
0.00908238
0.0154625
0.0109472
0.0103343
0.00929426
0.00832143
0.00932402
0.00904787
0.00944874
0.0136944
0.00894731
0.00865633
0.00923601
0.00946565
0.00878498
0.00924146
0.0114992
0.011161
0.00935411
0.00906789
0.0146386
0.0148271
0.00935815
0.00907364
0.0093011
0.00836617
0.0090041
0.00915002
0.0094424
0.00906659
0.0087059
0.00857389
0.0089866
0.00801699
0.0110125
0.0144133
0.00939274
0.00838836
0.00817284
0.00939426
0.00930231
0.0106416
0.00926932
0.0094268
0.0112895
0.0163735
0.00944812
0.00935195
0.0120727
0.0149649
0.0094032
0.00845422
0.0167604
0.00793619
0.00941729
0.00932914
0.00942123
0.00889776
0.00926362
0.0145563
0.0102118
0.0094296
0.00942112
0.00851631
0.00940171
0.00880858
0.00903979
0.0103789
0.0091492
0.0173008
0.0091254
0.00881305
0.00808408
0.00960498
0.016345
0.00944612
0.00942363
0.00865869
0.00931443
0.00856053
0.0089985
0.0112568
0.00970856
0.0182182
0.00826768
0.00906351
0.00791456
0.00857121
0.0084254
0.00845851
0.00916031
0.00784853
0.00931361
0.00933755
0.00841445
0.00889275
0.0149356
0.00943537
0.0114587
0.00869221
0.00864698
0.00836545
0.0142946
0.00899289
0.00884198
0.0146542
0.0151965
0.0090288
0.00939368
0.00887423
0.00905236
0.0081976
0.00834634
0.0114299
0.0110228
0.0112703
0.00939173
0.00799793
0.00907004
0.00862669
0.00850253
0.0090354
0.0167223
0.00879845
0.0137183
0.00936554
0.00837792
0.0135088
0.00944647
0.00851695
0.00884774
0.00822474
0.00799095
0.0113987
0.00900166
0.0110932
0.00947853
0.00953078
0.0090212
0.00790174
0.0113369
0.00927513
0.0109141
0.00937571
0.0093465
0.00937224
0.00958763
0.00931357
0.00939273
0.00931825
0.00931086
0.0119032
0.0106894
0.00933805
0.00805542
0.00903543
0.00944895
0.00874219
0.00895566
0.00819208
0.0147668
0.0165558
0.00925857
0.00929115
0.00934426
0.00886192
0.0143168
0.0110526
0.0091547
0.00890636
0.00896509
0.00947343
0.0093028
0.0093147
0.00942482
0.00942632
0.00928431
0.00896802
0.00883829
0.00855595
0.00855524
0.00794254
0.00830015
0.00942814
0.00911185
0.0113105
0.0085893
0.00938996
0.00927392
0.00919156
0.00813512
0.00936606
0.00921231
0.00856002
0.0093569
0.00929784
0.00930124
0.0100574
0.0146979
0.00942989
0.00938289
0.0154511
0.00829814
0.00875665
0.00944351
0.00901237
0.0156096
0.00862656
0.00910566
0.00810486
0.00931842
0.00848333
0.0158756
0.00860102
0.0138552
0.00759681
0.0150007
0.00919308
0.00915337
0.00942033
0.0153783
0.0092414
0.00768547
0.0091501
0.00876132
0.00904519
0.00826263
0.00951365
0.0115763
0.00934855
0.00898964
0.00890408
0.00888621
0.0136062
0.00925343
0.00933857
0.00910169
0.0088222
0.00830547
0.00799184
0.0081605
0.0140432
0.0113288
0.0138554
0.00847172
0.00948485
0.0108869
0.0155496
0.00880986
0.0150879
0.00938302
0.0149552
0.00928931
0.00952419
0.00906521
0.00891134
0.00951301
0.0107688
0.00916737
0.00940614
0.00925188
0.00855391
0.00975419
0.00946885
0.0153359
0.00892163
0.00945444
0.00955467
0.00832259
0.00926341
0.00936828
0.00850583
0.00949277
0.0113497
0.00846195
0.00944925
0.0113994
0.00853899
0.00916849
0.011346
0.0148993
0.0083948
0.00896236
0.00912673
0.0139197
0.00882254
0.011607
0.0145932
0.0106346
0.0161426
0.00838863
0.00806148
0.00940291
0.0149469
0.00943826
0.00892568
0.00910711
0.00821703
0.00951084
0.0110545
0.00927935
0.00974867
0.00805707
0.00947117
0.00872695
0.0151383
0.00876072
0.00824094
0.0151803
0.0107514
0.00892483
0.00840893
0.0142571
0.00933046
0.00914027
0.00945832
0.00939647
0.0106551
0.00870607
0.0086152
0.00920501
0.00903687
0.00888948
0.00938923
0.00820272
0.00928276
0.00884806
0.00920901
0.0082156
0.00840362
0.00846901
0.00835777
0.00954181
0.00915168
0.0113364
0.00888944
0.0116538
0.0166115
0.00926133
0.00893393
0.00919252
0.00940935
0.00933556
0.00874121
0.00800286
0.00836114
0.0162682
0.0160385
0.0143045
0.00882262
0.0138537
0.00921028
0.0109945
0.00862619
0.011388
0.0140501
0.00953118
0.00876778
0.00943314
0.0084903
0.00934806
0.0110527
0.0110963
0.00869526
0.0093431
0.0161173
0.00867955
0.00896303
0.00855832
0.00942439
0.00911012
0.00944924
0.00831469
0.00824125
0.00849027
0.0100926
0.0101271
0.00949957
0.0116956
0.00825068
0.00957078
0.0090347
0.00902411
0.00784219
0.00901631
0.00936137
0.00851256
0.00884218
0.0142355
0.00948837
0.00916254
0.010992
0.0080518
0.0085357
0.00860295
0.00815328
0.00917285
0.00817236
0.00849676
0.00938147
0.00854012
0.00935417
0.014225
0.0142562
0.00884651
0.0080649
0.00909071
0.00876364
0.00824376
0.0145879
0.00906359
0.00860245
0.00917774
0.00788172
0.0115952
0.00902435
0.00972655
0.00880877
0.00855681
0.00835352
0.0149779
0.00866357
0.0111111
0.00822317
0.00943927
0.00917177
0.00909594
0.00927981
0.0108082
0.0134483
0.00868107
0.0162412
0.00920826
0.00937797
0.00818193
0.00944534
0.00831487
0.0084964
0.0144826
0.00838635
0.00848957
0.00944213
0.0143102
0.00939139
0.00871507
0.00827797
0.00871396
0.0108271
0.00947332
0.01358
0.00927735
0.00854519
0.00900536
0.00866232
0.0106296
0.0145005
0.0095172
0.00943334
0.0107845
0.00848337
0.0108322
0.00838765
0.00919354
0.0147399
0.00811681
0.0091922
0.00807818
0.00929384
0.00849885
0.00884109
0.0115425
0.00934256
0.0145925
0.00830821
0.00932037
0.00937347
0.00907167
0.0153182
0.0107997
0.00949351
0.00952358
0.00948444
0.00906053
0.00948609
0.0165878
0.00875895
0.00942819
0.00884522
0.0097003
0.00865272
0.00942716
0.00907041
0.00940156
0.00950916
0.00877065
0.00912884
0.011012
0.0093247
0.0084279
0.00931682
0.00927138
0.00931949
0.00933531
0.0111557
0.00946882
0.00887144
0.0145946
0.00891872
0.0107324
0.00919229
0.0147649
0.0104854
0.00909958
0.00887814
0.00903123
0.0103891
0.0134663
0.00906377
0.00849476
0.00941504
0.00833559
0.0158523
0.00835095
0.0114037
0.00856961
0.00937348
0.00888323
0.00940429
0.00945006
0.00935412
0.00937571
0.00948062
0.00932101
0.00944767
0.00892041
0.0131809
0.0158724
0.00895893
0.0158762
0.0081402
0.00841611
0.00805558
0.00942497
0.00868126
0.011239
0.00935065
0.00854532
0.0081708
0.00978902
0.00875333
0.00944033
0.00816324
0.00866022
0.0106246
0.00886772
0.00849488
0.00812288
0.0092434
0.0159324
0.0154987
0.00939927
0.00867348
0.00938729
0.00850542
0.0175757
0.00950712
0.00865919
0.00939395
0.00941127
0.0112289
0.00910931
0.00938006
0.0113861
0.0135597
0.00945025
0.00849941
0.0142446
0.00926606
0.0103538
0.0148583
0.00833178
0.00936619
0.00950213
0.00915271
0.00939909
0.00898463
0.00932169
0.00852046
0.00846711
0.00941941
0.00916719
0.0145565
0.0111012
0.0086454
0.0093525
0.00857501
0.0157147
0.0154885
0.00914511
0.0130939
0.00914902
0.00926313
0.00937325
0.0112519
0.00879873
0.00932372
0.00882718
0.00918665
0.0090904
0.0084846
0.015191
0.0094264
0.015429
0.00986055
0.0110424
0.0104598
0.00938704
0.00950548
0.00924319
0.00842372
0.00810299
0.00852033
0.00934794
0.00946205
0.0090875
0.00937778
0.00942388
0.00927523
0.0105626
0.00874755
0.0157934
0.00824116
0.010463
0.00933396
0.00909601
0.00979249
0.0141557
0.00791059
0.00931476
0.0144838
0.00919014
0.014543
0.00904661
0.00935266
0.00942178
0.00942975
0.0104162
0.00807183
0.00901193
0.00944126
0.00932477
0.0092155
0.00932939
0.0104115
0.00907562
0.00857695
0.00948657
0.00945242
0.0092533
0.00925218
0.009506
0.0149837
0.010118
0.00836811
0.00941063
0.00909461
0.0103011
0.00935226
0.00844176
0.00849883
0.0087888
0.00819743
0.00874099
0.00867674
0.0149693
0.00910863
0.00889079
0.00898212
0.00866983
0.0144486
0.00921846
0.00935355
0.0154702
0.00830751
0.0086241
0.00936451
0.0115055
0.0171066
0.0120548
0.0090927
0.00848206
0.0154913
0.0152486
0.016813
0.00814426
0.00939166
0.00923943
0.00933864
0.0089447
0.0152088
0.00915034
0.00877732
0.0158634
0.0142898
0.0143853
0.00876344
0.0134181
0.00923917
0.00915676
0.00944003
0.00915694
0.0103229
0.00793913
0.00917048
0.00953787
0.00908158
0.00928036
0.00943816
0.00912398
0.00831249
0.00906561
0.00929297
0.0142576
0.00852413
0.00836298
0.00855876
0.00830156
0.0093286
0.00858213
0.0107834
0.0158209
0.0079863
0.0094476
0.00942592
0.00928803
0.0101263
0.0080796
0.009107
0.00825336
0.00935886
0.00995717
0.0103752
0.00937016
0.00934828
0.00922237
0.00937462
0.00868191
0.00849642
0.00916177
0.0084294
0.00860117
0.00906088
0.00902691
0.00951436
0.00771352
0.00895917
0.0152808
0.0100113
0.0168331
0.00780801
0.00864389
0.00845621
0.00847009
0.00892803
0.00977586
0.0085371
0.0141887
0.00863298
0.00937205
0.0095087
0.0146305
0.00994146
0.00936142
0.0140147
0.0104681
0.00938709
0.00945637
0.014498
0.0110043
0.00883901
0.00948236
0.00942574
0.00908473
0.00810744
0.00915871
0.00887467
0.00838965
0.0107545
0.00937266
0.00899621
0.00915809
0.00857903
0.00925271
0.00944236
0.00877556
0.00868804
0.00927407
0.00928114
0.00920813
0.00944277
0.0155458
0.009417
0.0144896
0.00908285
0.00917029
0.00931702
0.0093488
0.00874141
0.0152294
0.00950256
0.00955087
0.00941306
0.00901166
0.00935471
0.0119011
0.00827146
0.00932855
0.00934776
0.00850837
0.0144208
0.0085991
0.00824674
0.00920764
0.00941856
0.0094619
0.00931334
0.00909624
0.00911977
0.00814611
0.00949053
0.0093979
0.00918729
0.00869352
0.0141699
0.0145219
0.00823368
0.00821873
0.009343
0.00940019
0.0144283
0.00865627
0.0089296
0.00889716
0.0083375
0.0092345
0.00913591
0.00907771
0.00937264
0.00831217
0.00886922
0.0100415
0.00863137
0.00908945
0.0151557
0.00869852
0.00915226
0.00896377
0.00923992
0.00942309
0.0114801
0.0093798
0.00844209
0.0093305
0.00778228
0.00934732
0.0084958
0.00826791
0.00853852
0.0148254
0.00835905
0.0103436
0.0113934
0.00899241
0.0147159
0.00943308
0.00924508
0.00936684
0.00873619
0.00854695
0.0140002
0.00887317
0.0105281
0.00817025
0.00920725
0.00919043
0.00937114
0.00920899
0.00924995
0.00943254
0.00936735
0.0093262
0.00935119
0.0110516
0.00847275
0.00943194
0.00935543
0.00899156
0.00918615
0.00933276
0.00941673
0.0142315
0.00920606
0.0147985
0.00944419
0.0144202
0.00999263
0.00845685
0.0089359
0.0091428
0.00841559
0.014056
0.00943367
0.014321
0.0141007
0.0091839
0.0089494
0.0079965
0.00886953
0.0092191
0.015126
0.00878798
0.0109126
0.00938544
0.00942523
0.00861512
0.0091493
0.008251
0.00886133
0.00940646
0.0144588
0.009018
0.00931085
0.00958181
0.00912679
0.00941608
0.00938771
0.00876686
0.00938343
0.00912689
0.00941326
0.00882619
0.00848114
0.00937871
0.00854673
0.00935962
0.00920045
0.00941791
0.00931826
0.00950467
0.00914506
0.010479
0.00941198
0.0094523
0.00834282
0.00865418
0.00942698
0.0168569
0.00936724
0.00941934
0.00819537
0.0086108
0.0104865
0.00827991
0.00929681
0.00941058
0.00848148
0.00862984
0.00906442
0.00873539
0.0105907
0.0106103
0.0166742
0.00895834
0.00933817
0.00945127
0.00895198
0.00916272
0.00922738
0.00971185
0.00825812
0.00939065
0.00943272
0.00943757
0.00954667
0.0115093
0.0157762
0.0147147
0.00829997
0.00939171
0.00951154
0.00937554
0.0082806
0.0093259
0.00954626
0.0161524
0.00949999
0.00939026
0.00931737
0.00944568
0.00893587
0.00939045
0.00854795
0.0104689
0.0091479
0.00914661
0.00846685
0.00924594
0.00808068
0.00833313
0.00831208
0.00942351
0.00818302
0.00862089
0.00936571
0.00876989
0.0108776
0.00938806
0.00943666
0.00894475
0.0113214
0.00805617
0.0106946
0.00945433
0.00902672
0.0103207
0.00952415
0.00940181
0.0093094
0.00892203
0.00951175
0.00930638
0.00934704
0.00906136
0.00831608
0.0092567
0.00879079
0.00790503
0.00906488
0.00944201
0.0085743
0.00946129
0.00896162
0.0081987
0.0085381
0.0148285
0.00862617
0.0153698
0.00844412
0.00915976
0.00901893
0.00939325
0.0093458
0.0109326
0.0115534
0.00925493
0.0075234
0.00956673
0.00876335
0.0106815
0.00933426
0.00867426
0.00928109
0.00854379
0.00928389
0.00854933
0.00936405
0.0106265
0.00944406
0.0114249
0.0109861
0.00881163
0.00885961
0.00892237
0.00943158
0.0111859
0.00947708
0.00909886
0.00866139
0.00826489
0.00811525
0.0105398
0.0099697
0.0108433
0.00866975
0.0093764
0.009147
0.00940477
0.00858851
0.0144386
0.00800033
0.0102646
0.0155618
0.0146997
0.00918272
0.00838279
0.00941488
0.00899596
0.00941593
0.0125139
0.00840846
0.00823825
0.00926501
0.00936965
0.0156159
0.008891
0.00940279
0.00941764
0.0091208
0.00877313
0.00939136
0.00930529
0.00933885
0.00895198
0.0151329
0.00825786
0.00879496
0.00917805
0.0116129
0.00836637
0.00913896
0.00823062
0.00791963
0.0136686
0.00889039
0.00858865
0.00937159
0.00915334
0.00914214
0.00898205
0.00916502
0.00870505
0.00937473
0.00886483
0.00870972
0.00911244
0.00939284
0.00909176
0.00923249
0.00936147
0.00931935
0.00894643
0.0108213
0.00902974
0.00952185
0.0123026
0.00853591
0.0122926
0.00906958
0.00845956
0.0107078
0.0092127
0.0102314
0.0143543
0.014289
0.011377
0.0106115
0.00938154
0.00864837
0.00938894
0.00869725
0.00904943
0.00939343
0.00941162
0.00924999
0.0159441
0.0088146
0.00800872
0.00832697
0.0092558
0.0149193
0.0108565
0.00883008
0.0143172
0.00944794
0.0111302
0.00886479
0.00808812
0.00946416
0.00946195
0.00935267
0.0108519
0.0143059
0.0112919
0.00897896
0.00854292
0.0158285
0.00882532
0.0083638
0.0151322
0.00831711
0.0131929
0.00867526
0.00898582
0.00947144
0.00929841
0.0168687
0.00863149
0.0110604
0.00935517
0.00919914
0.00870715
0.0093845
0.00820512
0.0084423
0.0123257
0.0092113
0.00829056
0.00950146
0.00938137
0.00886885
0.0157569
0.00934479
0.00931637
0.00941346
0.00852159
0.00907393
0.0166422
0.0149077
0.0104663
0.00946002
0.0116236
0.00839103
0.0159807
0.0107206
0.00932534
0.00881416
0.0108389
0.011562
0.00914203
0.00932455
0.00946675
0.00863322
0.00909154
0.00926932
0.0085309
0.00847773
0.00935018
0.00945637
0.00942567
0.0167124
0.00926921
0.00846715
0.00911555
0.0134809
0.00939618
0.00934588
0.00831863
0.00929642
0.0157121
0.00837407
0.00872348
0.0161896
0.00919088
0.00928218
0.0090745
0.010217
0.0093357
0.0102763
0.00936102
0.00882328
0.0145179
0.00923363
0.00937775
0.00874908
0.00915348
0.00932705
0.00932056
0.00939921
0.00912909
0.0142224
0.00931733
0.00908356
0.00894659
0.00935888
0.00882241
0.00890757
0.00923166
0.00859081
0.00918518
0.00955611
0.00817079
0.00933253
0.00895454
0.0110637
0.00912609
0.0091986
0.00920234
0.0102063
0.0115297
0.00828864
0.00908965
0.00916714
0.0143434
0.00802554
0.00940369
0.00936922
0.00913936
0.00913242
0.00858945
0.00946636
0.00895197
0.00935514
0.00822311
0.015121
0.01674
0.00871892
0.00816815
0.0092873
0.00935114
0.00939134
0.00929812
0.00943375
0.00933368
0.00928797
0.00940842
0.00873845
0.00929926
0.00926011
0.00846629
0.00943118
0.00781263
0.0141767
0.00867145
0.00910004
0.00896352
0.00846474
0.0087438
0.00834822
0.0109514
0.00897736
0.00926797
0.00915087
0.00837088
0.0106325
0.00940998
0.00817189
0.017051
0.00897715
0.0112536
0.00854007
0.00919501
0.00902784
0.00888621
0.00797588
0.0103593
0.0152319
0.0153261
0.00935293
0.010879
0.00917739
0.00930948
0.0109889
0.00939991
0.00816558
0.00925501
0.00868767
0.00885728
0.00797949
0.00937428
0.00931507
0.015361
0.00932362
0.0106322
0.0156328
0.00919329
0.00838509
0.0093182
0.00934475
0.00933672
0.00832787
0.0079704
0.00919142
0.00930983
0.0090074
0.00972788
0.0129815
0.0089157
0.0091337
0.00856136
0.00941199
0.00787405
0.00843665
0.00910696
0.0093302
0.00920816
0.00829318
0.00834371
0.00857334
0.00865125
0.00901165
0.00845374
0.00826572
0.011326
0.0090538
0.00887956
0.00902434
0.00940908
0.00889575
0.00927322
0.0105069
0.00854808
0.00886395
0.0097186
0.0092054
0.00762383
0.00944309
0.00944864
0.00880277
0.0144021
0.00800157
0.00935239
0.00939919
0.00836373
0.00938115
0.00831521
0.00848241
0.0082535
0.00844885
0.00895767
0.0092013
0.0162776
0.00897755
0.00918152
0.0093506
0.00838047
0.00920543
0.009232
0.012992
0.00944578
0.0106601
0.00882491
0.00935772
0.00928629
0.0088363
0.00824598
0.00835298
0.0106734
0.0139931
0.00937275
0.00930158
0.0120355
0.0105385
0.00894646
0.0090788
0.00948702
0.00814136
0.00875656
0.00883264
0.00906409
0.0143763
0.00919269
0.00821642
0.0110229
0.00926092
0.00857595
0.00803214
0.0151845
0.0113052
0.00795349
0.00890693
0.00875954
0.00916283
0.00890785
0.0111185
0.0120172
0.00867695
0.013445
0.00954322
0.00901554
0.0146723
0.00905855
0.00993352
0.00889513
0.009403
0.00945862
0.0115637
0.0116395
0.00887363
0.00919801
0.00875413
0.00906324
0.00920094
0.00779106
0.00881819
0.00874548
0.00837792
0.00941809
0.00815014
0.00944111
0.00927914
0.00862953
0.00933045
0.0171573
0.00876017
0.00849871
0.00929908
0.011763
0.00833798
0.0154747
0.00853007
0.00848141
0.00934086
0.00930976
0.00804261
0.0092267
0.00946625
0.00934604
0.00930919
0.00815667
0.00945566
0.00855627
0.00919692
0.0089703
0.00876346
0.00930476
0.0087241
0.00934071
0.00936528
0.00852245
0.00889269
0.00858746
0.0150583
0.00924366
0.0160973
0.0103543
0.00840151
0.00931914
0.00884625
0.0123673
0.00934244
0.00929907
0.0080102
0.00832842
0.00824204
0.011457
0.00912228
0.00811312
0.00899248
0.0082265
0.00947874
0.00913472
0.0141773
0.00901602
0.00952298
0.00813626
0.0146922
0.00967068
0.00919776
0.00889004
0.00783349
0.00866635
0.00917029
0.00807544
0.00938469
0.00997182
0.00947615
0.0151211
0.00927877
0.0123033
0.00934296
0.00816181
0.00916345
0.0105137
0.00916449
0.00933207
0.00927644
0.00944375
0.00864342
0.0156139
0.0146604
0.00884639
0.0145111
0.00920811
0.0111302
0.00932963
0.00885091
0.00877139
0.00950616
0.0120443
0.00923548
0.00910013
0.0090351
0.0107623
0.0093078
0.00769469
0.00895932
0.00830748
0.0104664
0.0117049
0.00914054
0.00927834
0.00922857
0.00857159
0.00894246
0.0105258
0.010552
0.00801013
0.0085282
0.00928889
0.00941481
0.00935945
0.00776359
0.00789111
0.00909707
0.00918699
0.00928319
0.00935037
0.00947399
0.0082816
0.00846914
0.00949145
0.014244
0.0111773
0.00891112
0.00921038
0.00944512
0.0108384
0.0103568
0.00943792
0.00827738
0.00938243
0.0108896
0.00942263
0.00937892
0.00949909
0.00879784
0.00794761
0.0113779
0.0144699
0.00849463
0.0143938
0.00901533
0.0120242
0.0087256
0.0090378
0.00933385
0.0162304
0.01555
0.00921291
0.00898241
0.0115878
0.00926733
0.00930494
0.0116526
0.0151263
0.0144083
0.0139746
0.00817306
0.0155765
0.0084297
0.00940252
0.0115468
0.0160045
0.00836848
0.00920327
0.00937798
0.00926408
0.00849183
0.0163501
0.00936793
0.0105969
0.00939575
0.0133549
0.0083299