/*--------------------------------*- C++ -*----------------------------------*\
| =========                 |                                                 |
| \\      /  F ield         | OpenFOAM: The Open Source CFD Toolbox           |
|  \\    /   O peration     | Version:  2406                                  |
|   \\  /    A nd           | Website:  www.openfoam.com                      |
|    \\/     M anipulation  |                                                 |
\*---------------------------------------------------------------------------*/
FoamFile
{
    version     2.0;
    format      ascii;
    arch        "LSB;label=32;scalar=64";
    class       volVectorField;
    location    "8";
    object      momentum:momentum;
}
// * * * * * * * * * * * * * * * * * * * * * * * * * * * * * * * * * * * * * //

dimensions      [1 1 -1 0 0 0 0];

internalField   nonuniform List<vector> 
59516
(
(3.15804e-07 -2.3779e-08 -9.2815e-09)
(2.20578e-07 -4.38775e-09 -1.62039e-08)
(2.40482e-07 4.0312e-09 1.51432e-09)
(1.83627e-07 6.50527e-09 2.32521e-09)
(2.05082e-07 6.20917e-09 -2.59226e-09)
(4.87814e-08 -1.29809e-09 -5.86145e-09)
(2.44932e-07 4.6531e-09 -3.13614e-09)
(2.79441e-07 1.29881e-08 9.66657e-09)
(1.83513e-07 4.94525e-09 -5.13124e-09)
(1.54343e-07 8.91449e-09 -7.40504e-09)
(1.73547e-07 4.7197e-09 -8.26832e-10)
(1.90824e-07 1.88891e-08 -1.43229e-08)
(4.56533e-07 -9.86906e-09 1.21783e-08)
(3.8343e-08 -3.72049e-09 -2.10071e-10)
(3.15412e-07 -2.55209e-08 -1.3201e-08)
(1.56732e-07 -2.0973e-08 -1.57062e-11)
(2.1436e-07 -1.95944e-10 -1.54769e-09)
(2.83304e-07 -2.21644e-09 -1.86064e-08)
(4.32104e-07 -3.8446e-08 7.21562e-09)
(3.19495e-07 -3.45474e-09 -8.4006e-10)
(2.03375e-07 -6.6279e-09 1.27445e-10)
(3.10619e-07 -3.42386e-10 9.42144e-09)
(3.32652e-07 4.07787e-09 3.86696e-10)
(7.80579e-08 2.7809e-09 -7.83594e-09)
(2.75316e-07 -5.9269e-09 2.06849e-09)
(3.54825e-07 1.40465e-08 -3.9491e-08)
(1.05025e-07 1.00866e-08 -1.23643e-08)
(1.47917e-07 -1.75543e-08 1.15381e-08)
(2.68904e-07 -7.59419e-09 -1.70642e-09)
(3.29882e-08 -4.96539e-10 2.31544e-09)
(2.04075e-07 -3.9791e-08 -1.90872e-09)
(1.67872e-07 -2.73841e-08 -2.06443e-08)
(1.73048e-07 -8.27434e-09 2.00854e-09)
(2.20284e-07 1.05316e-08 -6.41408e-09)
(1.27119e-07 -5.84863e-09 -3.6402e-09)
(4.16642e-07 -8.60397e-09 -3.26521e-09)
(2.76834e-08 -4.09432e-09 6.69452e-09)
(2.11933e-07 9.54006e-09 -7.47135e-09)
(4.22169e-07 1.33958e-08 1.15281e-08)
(2.56734e-07 -4.09109e-09 7.78197e-09)
(3.55876e-07 2.9905e-09 -8.79392e-09)
(4.0563e-07 7.11983e-09 -6.52859e-09)
(3.40048e-07 8.17047e-09 1.08495e-08)
(1.46923e-07 5.80879e-10 -9.92308e-09)
(2.76644e-07 3.04592e-09 -1.15879e-09)
(1.78034e-07 2.69902e-08 2.48781e-08)
(3.70335e-07 7.50249e-09 -2.18751e-08)
(2.15907e-07 1.6855e-09 -9.507e-10)
(2.54077e-07 -8.53661e-09 2.12586e-08)
(2.0812e-07 -1.99015e-09 1.44323e-09)
(1.58678e-07 1.96352e-08 -1.72726e-08)
(1.8121e-07 -2.21105e-09 -6.98016e-09)
(4.0333e-07 1.73092e-10 1.38621e-08)
(3.6542e-07 5.41881e-09 -6.35053e-09)
(1.61468e-07 -2.34587e-08 -1.04603e-08)
(2.96233e-07 -2.31026e-08 6.5197e-09)
(1.78784e-07 1.68474e-09 4.2095e-09)
(1.84026e-07 6.28149e-09 2.79076e-08)
(1.53568e-07 -4.99289e-09 4.09865e-09)
(1.44332e-07 -1.22245e-09 -1.94896e-09)
(1.96321e-07 9.09009e-10 -4.41787e-09)
(4.2974e-08 2.03259e-10 -3.04809e-09)
(1.99206e-07 -6.47784e-09 -5.00889e-09)
(2.73011e-07 -2.89588e-09 -6.35786e-09)
(3.68658e-07 -9.43946e-09 7.70305e-10)
(1.87036e-07 1.50003e-09 -1.53413e-09)
(4.29626e-08 -2.28467e-09 1.71224e-09)
(1.56581e-07 -1.35716e-08 -4.27037e-09)
(2.01243e-07 -2.9883e-11 2.22663e-08)
(1.73255e-07 2.81928e-09 1.00241e-09)
(1.25357e-07 -2.88864e-09 3.63734e-09)
(1.2534e-07 -6.57983e-10 1.20945e-09)
(4.79905e-08 -6.86709e-10 3.09782e-09)
(1.85032e-07 2.36018e-09 8.67968e-10)
(2.75259e-07 -5.60084e-10 5.92201e-09)
(3.21582e-07 -1.15709e-10 -7.26626e-10)
(1.78063e-07 1.18e-09 2.47969e-09)
(1.95417e-07 -2.52505e-09 -4.84448e-09)
(1.83473e-07 8.77077e-09 -2.45444e-08)
(1.57103e-07 5.73392e-10 1.18461e-09)
(1.15675e-07 -1.01166e-08 -1.65326e-08)
(1.46858e-07 -2.94484e-09 -2.31078e-09)
(1.76106e-07 -1.18288e-09 -1.78062e-09)
(3.81655e-08 7.66499e-10 -5.751e-09)
(1.88559e-07 -4.63487e-09 -1.81734e-09)
(2.87789e-07 -1.50301e-09 -6.09414e-10)
(6.08512e-08 1.01193e-08 2.36775e-09)
(5.03613e-07 -3.54506e-09 -5.58969e-09)
(2.02689e-07 -2.55128e-08 -2.10747e-08)
(2.29744e-07 4.61198e-09 -3.8657e-09)
(1.78445e-07 5.17812e-09 -5.05036e-09)
(1.72465e-07 1.21259e-11 5.39707e-09)
(2.06728e-07 -9.63313e-10 3.53315e-09)
(1.65282e-07 9.67133e-12 1.47018e-09)
(1.40738e-07 -3.73089e-09 1.95822e-09)
(1.83131e-07 -8.55527e-09 3.56072e-09)
(1.1522e-07 -1.10429e-09 1.92193e-09)
(1.79018e-07 1.7719e-08 4.63835e-09)
(2.01951e-07 -1.25038e-08 2.91534e-09)
(1.85113e-07 2.15653e-09 -1.05765e-09)
(1.33311e-07 -1.46447e-09 -6.69425e-09)
(6.35237e-08 -7.28255e-10 -2.66731e-09)
(6.0871e-08 -1.3702e-09 -1.57767e-09)
(1.68845e-07 1.35098e-09 -7.24518e-09)
(2.2987e-07 4.31614e-09 1.86397e-09)
(1.3417e-07 -6.60717e-10 2.10107e-09)
(1.2063e-07 -1.22453e-08 -6.84891e-09)
(1.62884e-07 -2.61642e-09 -2.22646e-09)
(2.40105e-07 -4.52756e-09 1.39071e-08)
(4.03793e-07 -1.19126e-08 1.00901e-08)
(3.01861e-07 1.14148e-08 -2.26912e-08)
(1.06707e-07 -8.9866e-09 1.3841e-09)
(3.59929e-07 -5.70733e-09 -2.81731e-08)
(2.65883e-07 1.60494e-08 -1.17117e-08)
(1.90743e-07 -2.26903e-09 1.05237e-09)
(1.85323e-07 4.69523e-09 1.41086e-08)
(2.15491e-07 -5.32955e-09 2.58524e-08)
(1.46857e-07 4.98699e-09 2.05731e-10)
(4.90555e-08 1.19721e-09 6.38374e-09)
(2.29632e-07 3.63272e-10 6.13671e-09)
(3.09795e-07 -4.81179e-10 5.61063e-09)
(1.36029e-07 1.75414e-09 3.87457e-10)
(1.33229e-07 7.84425e-10 -1.38453e-10)
(1.40957e-07 3.01003e-09 4.80282e-09)
(1.3884e-07 -2.97184e-09 3.61068e-09)
(2.07111e-07 -8.1605e-09 -9.72226e-09)
(8.90561e-08 -8.45894e-11 -8.83283e-09)
(2.17173e-07 2.25355e-09 6.6819e-09)
(1.89761e-07 -1.3461e-08 1.97759e-08)
(1.13089e-07 3.32943e-09 5.54493e-10)
(2.05146e-07 4.76967e-09 3.9486e-09)
(4.23857e-07 1.64281e-08 1.25647e-08)
(5.69409e-08 2.90506e-09 2.50714e-09)
(2.4787e-07 -1.275e-09 4.87224e-09)
(4.84481e-07 -5.16467e-09 3.69855e-09)
(2.38788e-07 -3.62318e-09 -6.43427e-09)
(1.99934e-07 3.73175e-09 -7.38942e-09)
(3.74873e-07 1.22531e-09 1.05407e-08)
(1.09296e-07 1.17448e-09 -3.83927e-09)
(2.25415e-07 1.69886e-09 1.37722e-08)
(1.68418e-07 6.62814e-09 4.45801e-09)
(2.29563e-07 4.13364e-09 3.79333e-10)
(3.80922e-08 4.28822e-09 2.53993e-09)
(1.49053e-07 -1.61293e-10 3.18167e-09)
(1.60206e-07 2.34808e-09 7.38522e-11)
(2.77425e-07 5.08942e-09 -3.75647e-09)
(2.14115e-07 4.84016e-09 2.82111e-09)
(2.58222e-07 -1.10217e-08 -8.44125e-11)
(6.40898e-08 3.64148e-09 -1.88404e-09)
(2.7642e-07 -5.33388e-09 9.17943e-09)
(4.80886e-07 7.44422e-10 -1.28535e-08)
(1.1727e-07 5.53382e-09 5.80353e-09)
(3.32321e-07 5.56712e-09 9.69157e-09)
(1.91919e-07 -5.68012e-10 -3.80008e-10)
(2.57765e-07 4.86064e-09 -2.62654e-09)
(3.95355e-08 -1.4271e-09 1.31811e-09)
(3.4671e-07 1.15049e-09 1.97543e-08)
(4.40337e-07 5.99693e-09 -2.29505e-09)
(2.23999e-07 3.89601e-09 -5.40704e-09)
(3.76708e-08 3.56501e-09 2.39613e-09)
(1.63531e-07 -3.88295e-09 -1.43134e-09)
(2.12416e-07 9.17243e-09 -2.50214e-09)
(8.76637e-08 1.34619e-08 4.71882e-09)
(5.38916e-08 9.75744e-10 1.34407e-09)
(2.48657e-07 8.32651e-09 7.67152e-09)
(2.6628e-07 1.43486e-09 4.55634e-09)
(2.93412e-07 2.48854e-08 -4.09712e-09)
(2.11551e-07 3.25807e-09 -7.48108e-10)
(4.67672e-08 -2.28513e-09 -2.44786e-09)
(2.02157e-07 2.38512e-09 -1.52377e-10)
(1.33204e-07 -5.51206e-09 9.68406e-09)
(1.33229e-07 8.073e-10 -2.67103e-09)
(2.00922e-07 -9.89623e-09 -5.98982e-09)
(1.40497e-07 9.83015e-11 4.22542e-09)
(1.73359e-07 -2.31145e-09 2.71923e-09)
(5.14021e-07 1.38658e-08 -1.81986e-08)
(1.95147e-07 5.28877e-09 4.02193e-09)
(3.0704e-07 7.68797e-09 1.36319e-08)
(2.92769e-07 2.28692e-08 1.9078e-08)
(1.48552e-07 -2.77604e-09 -1.20671e-08)
(3.03387e-07 -3.25885e-09 6.85542e-09)
(9.85712e-08 7.76969e-09 -6.47174e-09)
(6.35939e-08 8.48707e-09 -2.20696e-10)
(1.91329e-07 -7.09117e-09 1.34389e-08)
(1.53168e-07 6.33677e-11 2.495e-09)
(1.59685e-07 4.21018e-09 7.57779e-09)
(1.03387e-07 -2.02202e-09 -9.37048e-10)
(4.80077e-08 6.65921e-09 -4.15156e-09)
(2.19648e-07 -2.13374e-09 1.69627e-09)
(3.17298e-07 -2.39081e-08 -6.90337e-09)
(1.68164e-07 -3.85172e-09 3.90339e-09)
(2.39579e-07 2.3706e-09 -1.31461e-08)
(1.81312e-07 -2.62588e-09 2.46744e-09)
(1.80341e-07 2.48422e-09 4.00685e-09)
(3.19824e-07 1.63482e-09 1.00171e-08)
(6.34524e-08 -3.53134e-09 -5.18001e-09)
(1.80006e-07 1.92859e-09 6.90486e-09)
(1.14476e-07 -2.26242e-09 1.31226e-08)
(2.31497e-07 1.63384e-09 8.78085e-09)
(2.53071e-07 2.36445e-10 -9.61561e-10)
(1.28205e-07 -6.93899e-09 6.40092e-09)
(1.30513e-07 6.72046e-10 -2.38079e-09)
(4.74934e-07 5.44238e-09 1.27132e-08)
(4.41283e-08 -3.77239e-09 1.1546e-09)
(2.38043e-07 7.36674e-09 -8.17099e-10)
(2.27332e-07 -1.13828e-08 -3.39831e-10)
(2.65192e-07 -1.71902e-09 1.32981e-09)
(1.63456e-07 1.37347e-09 -1.28543e-09)
(3.84245e-08 -3.37796e-09 -4.35645e-10)
(4.02038e-07 -4.9705e-09 -1.73625e-08)
(1.05781e-07 -3.92791e-09 5.95146e-09)
(5.80393e-08 3.86563e-09 -4.9739e-09)
(2.36555e-07 1.36646e-09 -3.94918e-09)
(1.91989e-07 9.48167e-11 -6.37301e-09)
(3.92952e-07 2.96222e-09 1.96144e-08)
(2.22324e-07 1.67469e-09 2.79559e-09)
(2.83202e-07 1.62557e-09 -5.72742e-09)
(1.7872e-07 -1.98004e-10 -2.43882e-09)
(1.65363e-07 -3.28049e-09 -1.22248e-08)
(1.94087e-07 1.33944e-09 5.0539e-09)
(2.55171e-07 -1.09426e-08 -1.84973e-08)
(2.67005e-07 -4.50452e-09 -6.16496e-09)
(1.36856e-07 -2.02517e-10 1.20279e-09)
(2.02899e-07 1.27556e-08 5.00835e-09)
(2.29208e-07 -5.56558e-09 -4.0323e-09)
(2.32917e-07 1.42738e-09 9.7045e-10)
(7.47598e-08 4.84562e-09 8.50338e-09)
(1.41273e-07 -1.11268e-08 6.81864e-09)
(1.51518e-07 -2.75664e-09 3.72177e-09)
(2.48366e-07 -2.13986e-08 -3.36582e-11)
(1.97263e-07 -2.02535e-09 1.04932e-10)
(1.32167e-07 3.67309e-09 -2.25537e-09)
(2.35028e-07 6.82243e-09 -1.0247e-09)
(6.82758e-08 5.49271e-09 -5.60096e-10)
(6.02802e-08 -6.86228e-09 8.06618e-09)
(9.54938e-08 -8.89629e-09 1.21802e-09)
(2.07202e-07 -1.28753e-09 -2.49068e-09)
(2.42629e-07 8.57207e-09 -8.26724e-09)
(3.69441e-07 8.18281e-09 -8.54244e-10)
(1.34302e-07 1.09872e-08 -3.39611e-09)
(1.78416e-07 -1.95491e-09 3.81991e-09)
(4.5194e-08 -4.12688e-09 -3.14181e-09)
(2.20235e-07 8.52209e-09 1.75439e-08)
(7.15993e-08 -4.23622e-09 5.73372e-09)
(1.14567e-07 3.54137e-09 -5.0077e-10)
(2.4306e-07 8.12815e-09 3.76681e-09)
(1.85277e-07 -1.66824e-09 -1.54524e-10)
(3.8326e-07 7.86134e-09 1.73064e-08)
(2.28712e-07 -3.33865e-10 4.57106e-09)
(2.79609e-07 1.16316e-09 -7.15283e-09)
(3.38255e-07 -1.35334e-08 -3.45384e-10)
(2.07546e-07 1.09096e-09 -5.0798e-09)
(1.35031e-07 1.62181e-09 3.10797e-09)
(2.59941e-07 -1.68288e-09 -6.11088e-09)
(2.67107e-07 2.22962e-09 -2.36202e-09)
(2.64855e-07 -5.29869e-09 7.04128e-10)
(2.18369e-07 -3.80578e-09 1.36972e-08)
(2.53371e-07 4.9553e-09 -4.40135e-09)
(1.83832e-07 2.22165e-09 9.94798e-09)
(1.83807e-07 -2.0322e-08 3.21996e-09)
(2.35839e-07 1.0683e-08 -4.70753e-09)
(2.09967e-07 6.99791e-09 5.61712e-09)
(3.14042e-07 1.1327e-08 -9.10957e-10)
(2.17006e-07 -3.59753e-11 1.9287e-09)
(9.71771e-08 -4.63365e-09 5.38009e-09)
(2.02201e-07 1.15188e-08 9.89772e-09)
(2.57681e-07 -4.28572e-09 -1.06003e-08)
(3.02095e-07 3.57996e-08 -6.38057e-09)
(1.34344e-07 -6.11591e-09 1.47194e-08)
(1.45164e-07 2.76668e-09 -7.29987e-09)
(2.31234e-07 -1.72696e-08 3.14186e-09)
(1.41972e-07 -2.15948e-11 5.8305e-10)
(4.63219e-07 -1.36602e-08 -6.33204e-10)
(2.15814e-07 -8.76314e-09 -1.17757e-08)
(2.67236e-07 1.1486e-09 2.24901e-09)
(3.00083e-07 -1.29606e-09 1.85491e-08)
(4.91866e-08 -4.98029e-09 2.56526e-09)
(2.53747e-07 -1.0022e-09 3.72621e-09)
(7.32627e-08 -6.80325e-09 7.52446e-09)
(1.09132e-07 1.68872e-09 -6.09656e-09)
(2.61545e-07 2.51693e-09 3.94905e-10)
(2.43967e-07 4.46841e-09 -9.27685e-10)
(6.77085e-08 1.01837e-08 -1.15773e-09)
(3.76553e-07 1.4234e-08 2.735e-08)
(3.05435e-07 1.06296e-08 1.00783e-08)
(1.93783e-07 1.37983e-09 2.57707e-09)
(2.35548e-07 -4.71381e-09 -5.95376e-09)
(6.26335e-08 -3.8602e-10 1.33931e-10)
(1.94656e-07 -1.24673e-09 3.76151e-10)
(9.66927e-08 -8.84062e-10 1.04051e-09)
(1.17708e-07 2.83095e-11 1.19544e-09)
(2.67274e-07 -8.28506e-09 4.26502e-09)
(1.55313e-07 -6.6454e-10 3.94734e-09)
(2.50952e-07 8.1861e-09 -1.20008e-08)
(2.13774e-07 -3.36487e-09 1.03668e-10)
(1.00806e-07 -5.42317e-10 8.98144e-09)
(2.33441e-07 -4.88311e-09 1.73126e-09)
(1.93487e-07 4.5499e-09 -1.56376e-09)
(2.66458e-07 -4.56412e-09 -1.20335e-09)
(1.98217e-07 -2.97364e-09 2.23841e-09)
(3.84115e-07 -3.09503e-09 1.84467e-08)
(2.25489e-07 3.0234e-08 -6.6376e-10)
(4.83579e-08 -1.90144e-09 4.77674e-09)
(9.23391e-08 6.92628e-09 -4.53424e-09)
(4.82868e-07 -8.42927e-09 -1.90725e-10)
(3.94195e-08 2.05196e-09 -1.78463e-09)
(3.43624e-07 -4.88279e-10 2.78971e-08)
(1.41738e-07 -1.26541e-08 1.0166e-08)
(2.63605e-07 3.46622e-09 4.54635e-09)
(2.87194e-07 -4.11094e-09 -5.90576e-09)
(2.86015e-07 7.21595e-09 -2.22506e-10)
(2.35065e-07 -1.26748e-08 1.42933e-08)
(3.85699e-07 -4.38575e-09 3.85815e-09)
(1.60293e-07 2.3744e-09 1.57884e-08)
(1.66239e-07 -4.21676e-09 -2.13532e-08)
(1.56574e-07 -3.57568e-09 3.09801e-09)
(2.34035e-07 -4.08021e-09 3.58952e-09)
(2.66081e-07 2.13143e-08 2.73772e-09)
(2.70281e-07 -1.76293e-08 2.72077e-09)
(1.26978e-07 5.91958e-09 -2.53358e-09)
(1.87448e-07 7.72006e-09 2.08602e-10)
(2.88471e-07 -4.58744e-09 -7.65009e-09)
(1.55672e-07 5.03342e-10 -2.36074e-10)
(3.27459e-07 4.05901e-09 9.51103e-09)
(1.68404e-07 6.46937e-10 5.2236e-09)
(4.30345e-07 1.01213e-08 -6.5552e-09)
(2.25838e-07 -1.81391e-08 1.6319e-09)
(3.66547e-07 1.14006e-09 -2.07151e-09)
(2.1808e-07 5.12223e-09 -1.0274e-09)
(1.61808e-07 3.54073e-09 3.5191e-09)
(2.87084e-07 -2.59583e-09 5.4133e-09)
(2.02955e-07 -9.42188e-09 8.86694e-09)
(5.84232e-08 5.49243e-09 -5.72082e-09)
(2.66321e-07 5.16924e-09 7.47525e-09)
(1.30045e-07 -4.77227e-11 3.29548e-09)
(6.57972e-08 -6.24604e-09 8.48849e-09)
(3.32701e-07 7.40065e-09 -2.52238e-09)
(1.80315e-07 -6.50779e-09 -2.71026e-09)
(1.86366e-07 -2.15105e-08 -1.02307e-08)
(1.99543e-07 1.68172e-10 -4.60774e-10)
(2.61044e-07 4.30868e-09 4.55209e-09)
(3.0502e-07 -3.42632e-09 1.86394e-09)
(2.06424e-07 2.30778e-09 -1.22954e-09)
(6.77818e-08 -1.77467e-09 -5.98469e-09)
(2.76554e-07 -2.94901e-09 -5.04829e-09)
(1.58287e-07 3.70733e-09 5.34732e-10)
(1.98186e-07 4.23476e-09 1.92254e-09)
(2.10811e-07 -3.36852e-09 1.72645e-09)
(1.86829e-07 1.30513e-10 8.2998e-09)
(1.80476e-07 -1.28847e-09 -1.02558e-09)
(2.20974e-07 -7.60691e-09 -4.5764e-09)
(2.38398e-07 -7.40167e-09 -3.60257e-09)
(1.79657e-07 6.91697e-09 1.93654e-09)
(1.12045e-07 6.03439e-09 -1.28091e-09)
(4.56153e-08 6.60015e-09 -6.02165e-09)
(7.17751e-08 1.35054e-08 -3.30808e-09)
(3.35597e-07 -1.15912e-08 3.73001e-09)
(4.08874e-07 -3.09425e-08 1.77744e-08)
(1.58946e-07 -1.24084e-08 -2.24479e-08)
(1.66064e-07 7.24615e-09 1.062e-08)
(2.97201e-07 -6.50344e-09 -1.02652e-09)
(3.55161e-07 -1.22771e-08 9.05795e-09)
(1.78506e-07 1.51617e-09 -6.13023e-10)
(3.3724e-07 -1.14275e-08 3.28951e-09)
(3.80362e-07 -5.07435e-09 9.87036e-09)
(1.97934e-07 3.36712e-09 2.83884e-09)
(1.17091e-07 1.75326e-09 1.45764e-09)
(5.68186e-08 -2.88595e-09 -4.9347e-10)
(2.52474e-07 -5.3174e-08 5.6556e-10)
(1.70463e-07 1.23198e-08 -4.33621e-09)
(1.21966e-07 -6.54239e-09 1.55108e-08)
(1.52221e-07 -2.34995e-08 2.40109e-09)
(1.37071e-07 6.6642e-10 -2.85462e-10)
(2.66704e-07 -2.02365e-10 -1.45255e-09)
(2.07542e-07 1.17467e-09 -2.4948e-09)
(4.70421e-08 -2.63696e-09 5.90047e-09)
(1.84735e-07 -7.22245e-09 -3.55133e-10)
(1.32214e-07 -1.05069e-08 -1.4052e-08)
(1.45789e-07 -3.95801e-09 2.84947e-09)
(1.05321e-07 1.11497e-08 -9.01002e-10)
(2.8076e-07 7.67994e-09 -1.80221e-08)
(3.1178e-07 4.21305e-09 -2.82928e-09)
(1.57513e-07 3.12648e-09 -2.26735e-09)
(4.84473e-08 -2.81653e-10 -2.06242e-09)
(2.23199e-07 1.00809e-08 -5.37885e-09)
(2.40853e-07 -7.10059e-09 2.35536e-09)
(6.04114e-08 -1.35012e-09 -3.30607e-09)
(3.01229e-07 -6.54069e-09 7.31516e-09)
(2.09841e-07 -7.81684e-09 8.8777e-09)
(3.24601e-07 5.57654e-09 -1.06039e-08)
(2.89527e-07 1.79536e-09 -2.00826e-08)
(1.16269e-07 4.36671e-09 -3.4129e-09)
(3.44176e-07 -7.03397e-09 -7.99245e-09)
(2.12221e-07 -2.00318e-09 1.36264e-09)
(2.41299e-07 5.67883e-09 4.17265e-09)
(1.9492e-07 3.46716e-09 1.53399e-09)
(2.94748e-07 -4.74985e-08 -1.38076e-08)
(2.40396e-07 1.50772e-08 3.41705e-09)
(2.03623e-07 5.44483e-10 -1.92133e-09)
(4.27139e-07 -2.08427e-09 7.46906e-10)
(1.57218e-07 -4.16211e-09 1.45873e-08)
(3.85639e-07 -9.45417e-09 -4.76963e-09)
(1.61053e-07 -1.75449e-09 -4.56329e-09)
(3.34676e-07 -6.18021e-09 8.96191e-10)
(2.58156e-07 -1.49195e-09 -1.89432e-09)
(1.56231e-07 5.02789e-09 -1.49345e-08)
(2.30535e-07 -6.00424e-10 2.72341e-09)
(3.91903e-07 -1.12666e-08 5.5777e-09)
(2.18454e-07 -1.90522e-09 4.23139e-09)
(2.00314e-07 4.55697e-10 2.0454e-09)
(5.05569e-08 -5.30268e-09 6.74938e-09)
(4.40995e-08 8.41455e-10 2.91924e-09)
(3.20226e-07 4.76974e-10 -1.056e-08)
(2.09045e-07 4.57263e-10 -5.35899e-09)
(1.60098e-07 -2.89288e-09 2.78511e-10)
(8.05294e-08 -3.74787e-09 4.75394e-11)
(6.19217e-08 -7.1232e-10 3.75155e-10)
(4.477e-07 1.52296e-08 -1.64813e-08)
(1.15211e-07 3.23775e-09 4.56771e-10)
(2.41246e-07 3.51482e-09 -8.25597e-10)
(2.1223e-07 -4.36092e-09 -5.99025e-09)
(1.63877e-07 -4.65986e-10 2.14801e-09)
(1.78901e-07 1.32398e-09 3.82393e-09)
(1.82131e-07 8.67076e-10 1.34865e-08)
(1.56123e-07 4.3605e-09 9.54485e-10)
(1.70044e-07 -1.34239e-08 -7.11016e-09)
(2.27937e-07 1.4353e-09 -3.29593e-09)
(2.52275e-07 -6.1874e-09 -4.72627e-09)
(1.80302e-07 3.57097e-09 3.27409e-09)
(1.61499e-07 -1.03536e-09 -6.98168e-11)
(3.48052e-07 8.76906e-09 -3.66572e-09)
(2.57062e-07 9.75978e-10 3.85012e-09)
(1.63485e-07 -1.52129e-09 1.05406e-08)
(1.00094e-07 -2.08709e-09 -1.85548e-08)
(5.09178e-08 -5.63431e-09 -9.08867e-10)
(1.89132e-07 3.22132e-09 -7.94553e-10)
(2.11051e-07 -2.86157e-10 -4.93084e-09)
(2.66302e-07 5.02593e-09 1.20403e-08)
(2.06119e-07 2.86298e-09 9.78631e-09)
(5.36983e-08 -1.017e-08 -2.63798e-09)
(5.64887e-08 -9.05242e-09 8.66868e-09)
(2.19116e-07 -2.91182e-09 -1.5709e-09)
(2.04092e-07 7.90147e-09 4.48569e-09)
(2.37555e-07 1.16017e-09 2.38965e-09)
(3.06585e-07 5.71687e-09 -4.70847e-10)
(2.16648e-07 -8.38267e-10 -1.0963e-09)
(2.35617e-07 1.75871e-09 -3.6563e-09)
(4.12873e-07 -1.2198e-09 -4.23276e-10)
(7.84951e-08 -8.07171e-09 8.97814e-10)
(1.97823e-07 -7.36014e-09 -1.04756e-08)
(1.32398e-07 1.84699e-09 -2.07456e-09)
(1.28324e-07 -9.11243e-09 4.49168e-09)
(1.09799e-07 1.15622e-10 -3.25372e-10)
(2.10326e-07 1.93559e-08 -1.27842e-08)
(2.51057e-07 4.09484e-10 2.35553e-09)
(5.5487e-08 -2.51327e-09 8.66096e-09)
(2.85017e-07 6.9246e-09 -1.03475e-09)
(1.97953e-07 -4.1711e-09 3.68036e-09)
(1.55255e-07 3.40696e-09 3.61084e-09)
(2.90852e-07 -5.56862e-09 -1.23312e-08)
(1.41912e-07 3.18231e-10 3.16067e-09)
(1.92544e-07 4.22453e-09 2.35419e-09)
(2.62428e-07 2.5114e-09 -1.36611e-08)
(2.16763e-07 -3.27072e-09 -2.54821e-10)
(2.35439e-07 -1.88713e-08 -4.73619e-09)
(2.05608e-07 2.08415e-10 1.24518e-09)
(2.80339e-07 -7.59676e-10 -4.6757e-09)
(4.27962e-08 -5.85407e-09 8.4401e-09)
(2.27462e-07 4.88388e-09 1.95916e-10)
(2.22987e-07 6.97747e-09 2.49396e-09)
(1.31137e-07 -8.78448e-09 -3.00028e-09)
(2.5913e-07 -5.75115e-09 -1.56166e-08)
(2.82161e-07 4.38071e-09 -4.71601e-09)
(2.59753e-07 1.84506e-09 1.59882e-09)
(1.98297e-07 3.5455e-09 -5.79316e-09)
(3.76042e-08 -5.02552e-09 7.29327e-10)
(1.96516e-07 -1.37536e-09 -7.87137e-09)
(3.69941e-07 3.35337e-09 -9.64935e-09)
(1.97344e-07 -5.03905e-09 2.20384e-09)
(2.15234e-07 -1.79428e-08 -3.83801e-10)
(1.3855e-07 -5.78715e-09 -6.67195e-09)
(2.47661e-07 -1.10729e-08 2.6578e-10)
(5.94062e-08 -8.38048e-09 -7.72668e-09)
(1.39079e-07 3.1428e-10 1.35224e-09)
(2.06882e-07 2.22268e-08 -1.50187e-08)
(1.9642e-07 -2.56937e-09 5.59489e-09)
(1.93673e-07 2.86174e-10 1.24548e-08)
(2.16754e-07 -2.8754e-09 9.93105e-09)
(1.58578e-07 -1.08375e-08 1.50881e-09)
(1.02235e-07 1.97783e-09 -1.07957e-08)
(3.29712e-07 4.28024e-09 -4.5126e-09)
(1.53858e-07 1.87668e-09 -1.17428e-09)
(4.60729e-08 5.50598e-09 4.36105e-09)
(2.23762e-07 -8.32764e-09 1.1359e-10)
(1.87026e-07 -3.38896e-09 2.61136e-09)
(8.76631e-08 -3.09505e-09 -3.22588e-09)
(2.41301e-07 -1.51712e-08 3.90036e-09)
(2.0895e-07 9.31503e-09 -6.08201e-09)
(1.57019e-07 -3.6627e-09 3.02759e-09)
(1.82107e-07 -2.69267e-10 6.5862e-10)
(6.53862e-08 4.5743e-09 1.99645e-09)
(1.77511e-07 1.87851e-09 2.22289e-08)
(1.90089e-07 1.55656e-08 1.06271e-08)
(2.03885e-07 -5.09092e-09 4.75581e-09)
(2.33388e-07 -2.85907e-09 1.03143e-09)
(5.13387e-08 -1.32234e-09 2.58342e-09)
(3.28079e-07 5.63226e-10 -5.9311e-10)
(2.15438e-07 9.10974e-10 8.24084e-10)
(1.98818e-07 3.99978e-09 2.55658e-09)
(1.13099e-07 9.19987e-10 -3.76816e-09)
(2.83393e-07 2.18588e-09 2.84676e-09)
(5.5525e-08 5.00869e-09 5.25519e-09)
(2.47409e-07 -6.86377e-09 -1.99325e-11)
(6.57422e-08 4.20366e-10 -1.16061e-09)
(2.64739e-07 2.47847e-08 1.57039e-08)
(1.92913e-07 8.80124e-11 8.23376e-10)
(2.69893e-07 4.55862e-09 2.51574e-09)
(5.23412e-08 -2.79291e-09 1.20062e-09)
(1.17789e-07 -1.48176e-08 5.90174e-09)
(1.62282e-07 1.41082e-08 1.40072e-08)
(2.65276e-07 -3.28684e-08 -7.49922e-10)
(3.22816e-07 2.98764e-10 4.45964e-09)
(8.90339e-08 4.93968e-09 1.31723e-08)
(2.63636e-07 -9.12081e-09 -1.61589e-09)
(2.2092e-07 -3.9561e-09 -4.95382e-09)
(1.58003e-07 4.58943e-09 -1.72955e-09)
(8.74854e-08 -1.0936e-08 4.99722e-09)
(3.33786e-07 1.49067e-08 -1.08432e-08)
(2.16695e-07 1.02836e-08 -1.50433e-08)
(1.53468e-07 -1.92595e-09 2.4696e-09)
(1.89409e-07 -1.49918e-09 -1.29194e-09)
(1.31899e-07 2.66136e-09 1.1668e-09)
(2.17377e-07 2.07982e-08 -2.58971e-08)
(1.63521e-07 -5.87653e-09 -1.86089e-09)
(1.17431e-07 2.88858e-09 -3.58006e-09)
(1.64669e-07 -8.69749e-09 4.60138e-09)
(2.17794e-07 6.52584e-09 -2.09567e-09)
(1.46189e-07 -1.21745e-08 -1.99039e-09)
(3.59928e-08 2.48953e-09 -5.30015e-10)
(2.95636e-07 -9.18921e-09 4.5038e-10)
(1.36496e-07 5.35e-09 -4.58391e-09)
(3.17032e-07 5.29919e-09 -5.40237e-09)
(2.61262e-07 -1.25998e-08 1.86224e-09)
(3.52993e-07 -4.036e-09 3.24669e-09)
(2.79308e-07 1.14276e-09 1.95817e-08)
(3.38086e-07 -7.96338e-09 4.58087e-09)
(2.02533e-07 -1.27098e-08 -6.38192e-09)
(1.11189e-07 1.15746e-09 -3.50841e-09)
(3.51409e-07 -1.77955e-08 8.56758e-09)
(9.08759e-08 -7.98258e-09 5.88572e-09)
(3.02687e-07 -5.7143e-09 -1.08853e-09)
(2.26853e-07 -2.51515e-08 5.77009e-09)
(8.04959e-08 8.52145e-09 8.34219e-09)
(2.72823e-07 -2.38827e-09 5.70481e-09)
(1.37828e-07 5.7144e-10 -6.75824e-09)
(1.96021e-07 -8.85751e-10 1.02776e-09)
(1.62388e-07 1.84888e-09 1.65688e-09)
(4.30081e-07 -2.64093e-09 4.64621e-09)
(1.63441e-07 2.73355e-08 -2.18038e-08)
(2.24745e-07 6.81703e-10 9.85343e-10)
(2.22734e-07 -3.63423e-09 7.1163e-09)
(2.3539e-07 3.54863e-09 6.33417e-09)
(2.37185e-07 6.87808e-09 -3.71279e-09)
(2.12403e-07 -3.27594e-09 3.92337e-09)
(1.22482e-07 3.99992e-09 -2.32318e-09)
(1.08048e-07 3.30054e-09 9.33872e-09)
(1.37357e-07 4.72544e-10 8.19029e-09)
(1.2578e-07 5.37167e-09 -1.09812e-09)
(2.44383e-07 1.79092e-09 4.78768e-09)
(5.80607e-08 1.04765e-08 -1.31631e-09)
(2.00407e-07 2.86777e-09 1.514e-09)
(3.71414e-07 3.01878e-09 1.28212e-08)
(2.78961e-07 -2.17544e-09 -8.49658e-09)
(2.90287e-07 -1.19634e-09 -6.89354e-09)
(3.31438e-07 -1.74143e-08 6.69947e-09)
(5.70398e-08 2.37949e-09 2.79947e-09)
(1.78915e-07 5.13653e-09 2.93916e-09)
(2.06663e-07 8.21848e-09 -1.88245e-09)
(2.2608e-07 -2.21098e-09 5.87191e-10)
(2.3001e-07 -5.70864e-09 1.042e-08)
(9.02862e-08 5.75334e-09 -6.72891e-09)
(1.55551e-07 -4.03155e-10 -9.80289e-10)
(2.20061e-07 1.06946e-09 1.07409e-08)
(2.62129e-07 7.60285e-09 7.42364e-09)
(2.00865e-07 -1.38816e-09 5.45694e-11)
(1.78115e-07 -1.10434e-08 2.57711e-09)
(3.59152e-08 -1.7924e-09 1.91432e-09)
(4.8856e-08 2.07652e-09 1.27485e-10)
(1.34136e-07 2.01176e-10 3.91402e-09)
(2.3659e-07 4.74243e-10 1.16587e-09)
(1.69276e-07 -1.03102e-09 5.78478e-09)
(1.5683e-07 1.81803e-09 7.90976e-09)
(2.35789e-07 -1.59318e-08 -5.05574e-09)
(2.31226e-07 3.82183e-09 -2.29405e-09)
(2.28465e-07 5.64044e-10 5.48283e-09)
(5.78328e-08 5.3862e-10 4.61694e-11)
(1.03091e-07 -2.75545e-10 2.50349e-09)
(1.79222e-07 -5.18968e-10 5.01506e-09)
(1.12676e-07 7.81411e-09 1.61343e-09)
(1.66029e-07 4.41239e-09 7.06577e-10)
(3.35858e-07 -1.26847e-09 2.89115e-09)
(2.06339e-07 2.30167e-09 1.4896e-09)
(1.93576e-07 1.63306e-09 2.67559e-09)
(2.78345e-07 -5.71223e-09 1.21775e-09)
(1.93128e-07 -6.54425e-09 3.5192e-09)
(2.4679e-07 -4.14724e-09 2.26405e-09)
(2.58069e-07 8.61828e-09 -1.44794e-08)
(3.51123e-07 -2.54495e-09 -6.90539e-09)
(1.62336e-07 -3.90303e-09 -1.9131e-09)
(1.73135e-07 -3.8157e-09 3.86646e-09)
(2.36711e-07 -2.04385e-09 1.06914e-08)
(9.85903e-08 1.10435e-08 -5.10613e-09)
(4.62906e-07 -9.15407e-09 -1.23064e-09)
(7.48136e-08 2.41753e-09 5.82429e-09)
(1.69642e-07 -1.73545e-08 1.86117e-08)
(2.0996e-07 2.02492e-08 -1.68965e-08)
(1.59875e-07 2.14466e-09 -4.239e-09)
(2.30491e-07 9.77291e-09 5.09208e-09)
(3.46979e-07 -2.74628e-08 7.80512e-09)
(1.00764e-07 -2.36998e-09 5.72987e-10)
(2.50977e-07 4.79937e-09 -6.68704e-09)
(3.12646e-07 5.09762e-09 6.51506e-09)
(1.59319e-07 -9.26002e-10 2.27911e-09)
(8.20432e-08 -8.27728e-09 9.22196e-09)
(1.16136e-07 -3.98841e-09 -3.75126e-09)
(2.10686e-07 -6.91369e-09 -1.46194e-08)
(1.57072e-07 -8.95226e-10 -1.28491e-09)
(1.13724e-07 -2.30246e-09 2.72853e-09)
(2.30662e-07 5.09655e-09 -7.01618e-10)
(1.89817e-07 2.37505e-09 -1.32719e-09)
(4.07196e-07 3.66602e-08 1.32235e-08)
(1.00674e-07 7.11067e-09 -3.79527e-09)
(1.02748e-07 -9.94859e-09 -1.08852e-08)
(6.78278e-08 -3.33994e-09 1.01667e-08)
(4.97131e-08 -1.07707e-10 -5.61724e-09)
(9.43986e-08 -5.97061e-10 2.64471e-09)
(2.46917e-07 -1.57782e-09 3.1715e-09)
(1.76039e-07 4.53823e-09 7.97506e-10)
(4.62703e-08 -3.84671e-10 1.21374e-09)
(4.98836e-08 -5.81561e-09 1.85551e-09)
(2.63192e-07 -1.46717e-09 -4.95581e-09)
(1.99877e-07 -8.95974e-09 1.52235e-08)
(1.10364e-07 -5.48257e-09 -1.16695e-09)
(2.14794e-07 9.77495e-10 1.98796e-09)
(1.21963e-07 2.62133e-09 2.68021e-09)
(2.117e-07 1.61209e-09 -1.22352e-09)
(1.07554e-07 -6.87421e-09 7.16844e-09)
(1.84733e-07 1.70986e-08 -1.16021e-08)
(2.37412e-07 1.10386e-09 -3.26483e-09)
(2.11131e-07 -3.85378e-09 1.54983e-09)
(3.76992e-07 -5.37543e-09 3.63602e-09)
(8.23938e-08 -9.53821e-09 1.63643e-08)
(6.11385e-08 -2.59876e-09 1.81101e-10)
(2.05692e-07 -2.49294e-08 -3.63488e-08)
(6.53264e-08 3.18632e-09 8.20901e-09)
(3.5194e-07 -1.3326e-08 -6.12598e-09)
(6.86214e-08 -4.76806e-09 1.10933e-08)
(2.00212e-07 -5.15048e-09 4.89363e-09)
(2.25265e-07 -8.58454e-09 7.68627e-09)
(3.38153e-07 7.21538e-10 2.06676e-09)
(1.35276e-07 9.05089e-09 1.73076e-08)
(1.89468e-07 4.26715e-09 8.56389e-09)
(1.02686e-07 3.39706e-09 1.9248e-09)
(6.92878e-08 3.11918e-09 -3.04085e-09)
(1.94153e-07 1.77578e-09 3.28882e-10)
(3.42555e-08 -1.80223e-09 3.67922e-09)
(1.41407e-07 -5.48346e-10 1.54582e-09)
(1.37443e-07 1.33415e-08 2.53724e-09)
(2.83824e-07 5.07192e-09 -3.85635e-09)
(2.18966e-07 8.64128e-09 2.57251e-09)
(4.30759e-08 -2.18e-09 -1.48102e-09)
(2.97239e-07 -5.3001e-09 -2.47338e-08)
(2.1508e-07 9.95502e-09 3.2082e-09)
(6.50798e-08 8.60239e-09 9.89291e-09)
(2.32802e-07 -2.21454e-09 -2.21876e-09)
(1.63886e-07 9.45081e-09 -7.30189e-09)
(2.96786e-07 2.8509e-09 5.57709e-09)
(1.66319e-07 -1.57937e-09 -1.45185e-09)
(1.32009e-07 -1.04466e-08 -6.28134e-09)
(4.81421e-08 -1.54827e-09 6.25593e-09)
(2.08546e-07 1.06098e-08 -2.54673e-08)
(2.46821e-07 2.93594e-08 6.35788e-09)
(2.97403e-07 1.09049e-08 1.91788e-08)
(1.41323e-07 -4.97613e-09 -1.66471e-09)
(3.00515e-07 -1.74028e-09 9.61918e-09)
(5.77525e-08 2.12851e-09 1.63077e-09)
(1.47645e-07 -7.25474e-10 -1.36466e-09)
(6.1054e-08 -4.50949e-09 -6.31216e-09)
(2.72613e-07 1.56153e-09 -6.56468e-09)
(2.97785e-07 4.53257e-09 8.49935e-09)
(1.63646e-07 -2.46618e-09 1.76371e-09)
(3.03613e-08 8.75142e-10 -2.45705e-09)
(3.36465e-07 -8.5365e-09 1.87115e-09)
(2.72563e-07 3.85652e-09 3.63167e-09)
(3.32783e-07 -1.96715e-09 1.03531e-11)
(1.29429e-07 4.74668e-09 -4.56716e-10)
(2.26835e-07 -2.26358e-08 1.89596e-08)
(2.28997e-07 -5.97395e-09 -1.00371e-09)
(1.68802e-07 -7.89308e-09 2.17501e-08)
(1.85111e-07 -6.01494e-09 1.14767e-09)
(2.00937e-07 1.36395e-08 -3.35192e-08)
(2.08906e-07 -1.23135e-09 5.19174e-09)
(6.97573e-08 -2.11707e-09 1.01452e-08)
(2.06247e-07 1.83824e-09 5.31924e-09)
(1.41024e-07 -1.74932e-09 -1.3143e-09)
(2.30469e-07 -8.21777e-10 -4.87774e-09)
(7.5163e-08 -1.73047e-08 -2.25218e-09)
(2.86264e-07 2.28149e-09 -3.39034e-09)
(3.17473e-07 3.61203e-08 -9.9644e-09)
(6.47238e-08 2.48296e-09 -7.78156e-09)
(1.5344e-07 6.09144e-10 -2.15784e-09)
(1.56525e-07 1.63101e-09 5.90138e-09)
(3.88672e-07 -1.02979e-08 -1.15136e-08)
(1.53791e-07 1.09717e-10 -3.36303e-09)
(1.37598e-07 1.09447e-09 -1.21453e-10)
(2.45543e-07 -1.13322e-09 -3.88815e-09)
(2.70648e-07 6.03498e-09 -1.00395e-08)
(1.80032e-07 -9.85172e-09 -5.90151e-09)
(1.5336e-07 5.83192e-09 6.94974e-09)
(2.96923e-07 -1.74174e-09 -8.45471e-10)
(2.23641e-07 -1.84411e-08 1.32291e-08)
(2.37758e-07 -7.22596e-09 4.07907e-09)
(2.05375e-07 1.39821e-09 3.76783e-09)
(2.02963e-07 -2.67418e-09 1.03944e-08)
(3.02168e-07 1.63025e-09 -1.50031e-09)
(1.62381e-07 -7.35463e-11 7.26405e-10)
(2.56258e-07 1.00617e-08 1.10103e-08)
(3.31589e-07 2.1765e-09 -2.11737e-08)
(9.40312e-08 -1.89361e-09 1.08819e-08)
(3.14876e-07 -1.05798e-08 1.61564e-08)
(8.78159e-08 8.55073e-09 1.21365e-08)
(2.79251e-07 4.14776e-09 8.25094e-09)
(2.49546e-07 -2.74828e-09 4.06018e-09)
(2.64352e-07 7.77163e-09 -7.99766e-09)
(2.24332e-07 1.97741e-08 7.1442e-09)
(4.92736e-08 1.4177e-09 2.47988e-09)
(1.48696e-07 -6.56932e-09 -2.50072e-09)
(1.54215e-07 2.7213e-10 -7.05595e-09)
(1.93658e-07 6.75712e-10 -3.54222e-09)
(1.80624e-07 -3.04997e-09 3.29877e-09)
(2.15671e-07 -1.53677e-08 1.55743e-08)
(2.63078e-07 4.43874e-09 5.02338e-09)
(1.23574e-07 -1.1859e-09 -1.14788e-08)
(1.36721e-07 -6.4648e-09 1.02154e-08)
(2.72436e-07 -1.52281e-09 2.58809e-09)
(6.9743e-08 -6.15335e-10 5.71914e-09)
(1.84532e-07 1.38716e-10 3.89079e-11)
(1.01778e-07 3.53155e-12 -1.00231e-09)
(1.94631e-07 5.38457e-10 6.14276e-09)
(8.07595e-08 6.53145e-09 -1.11615e-08)
(2.76444e-07 6.9717e-09 -1.54084e-08)
(2.01706e-07 -6.47933e-09 6.05675e-09)