/*--------------------------------*- C++ -*----------------------------------*\
| =========                 |                                                 |
| \\      /  F ield         | OpenFOAM: The Open Source CFD Toolbox           |
|  \\    /   O peration     | Version:  2406                                  |
|   \\  /    A nd           | Website:  www.openfoam.com                      |
|    \\/     M anipulation  |                                                 |
\*---------------------------------------------------------------------------*/
FoamFile
{
    version     2.0;
    format      ascii;
    arch        "LSB;label=32;scalar=64";
    class       volVectorField;
    location    "8";
    object      momentum:angularMomentum;
}
// * * * * * * * * * * * * * * * * * * * * * * * * * * * * * * * * * * * * * //

dimensions      [1 1 -1 0 0 0 0];

internalField   nonuniform List<vector> 
59516
(
(-2.23429e-08 -1.23443e-08 3.15804e-07)
(1.39911e-08 -9.2773e-09 2.20578e-07)
(1.69453e-09 -3.95882e-09 2.40482e-07)
(-6.2865e-09 2.86444e-09 1.83627e-07)
(-3.26965e-09 -5.88073e-09 2.05082e-07)
(-5.75903e-09 1.69565e-09 4.87814e-08)
(3.64514e-09 -4.26611e-09 2.44932e-07)
(4.96551e-09 -1.54102e-08 2.79441e-07)
(-4.26694e-09 5.70775e-09 1.83513e-07)
(-7.16447e-09 -9.10895e-09 1.54343e-07)
(3.21287e-10 -4.78079e-09 1.73547e-07)
(-1.54731e-09 -2.36548e-08 1.90824e-07)
(1.52765e-08 -3.51224e-09 4.56533e-07)
(-2.26383e-09 -2.95994e-09 3.8343e-08)
(1.66915e-08 2.33876e-08 3.15412e-07)
(1.51859e-08 -1.44657e-08 1.56732e-07)
(-5.8437e-10 -1.44646e-09 2.1436e-07)
(-1.55697e-08 1.04257e-08 2.83304e-07)
(3.89606e-08 -3.49833e-09 4.32104e-07)
(-3.39085e-09 1.06917e-09 3.19495e-07)
(5.84558e-09 3.12641e-09 2.03375e-07)
(9.35779e-09 -1.14567e-09 3.10619e-07)
(2.73163e-09 -3.05233e-09 3.32652e-07)
(-5.11463e-09 6.5556e-09 7.80579e-08)
(-1.71594e-09 6.0384e-09 2.75316e-07)
(4.18749e-08 1.82768e-09 3.54825e-07)
(-8.6975e-09 1.3378e-08 1.05025e-07)
(2.04435e-08 -4.83183e-09 1.47917e-07)
(5.67199e-09 5.3303e-09 2.68904e-07)
(2.15094e-09 -9.9059e-10 3.29882e-08)
(-3.88327e-08 8.88747e-09 2.04075e-07)
(3.39237e-08 5.02566e-09 1.67872e-07)
(3.18156e-09 -7.89788e-09 1.73048e-07)
(5.53451e-09 1.10193e-08 2.20284e-07)
(6.87432e-09 -4.48624e-10 1.27119e-07)
(3.92964e-09 8.32153e-09 4.16642e-07)
(6.11394e-09 4.91932e-09 2.76834e-08)
(-8.1192e-09 -8.99514e-09 2.11933e-07)
(1.54433e-08 8.59344e-09 4.22169e-07)
(2.81605e-09 -8.32862e-09 2.56734e-07)
(7.5237e-09 5.44702e-09 3.55876e-07)
(7.92917e-10 -9.62734e-09 4.0563e-07)
(1.35672e-08 6.32832e-10 3.40048e-07)
(5.12365e-11 -9.93993e-09 1.46923e-07)
(2.72751e-09 -1.78356e-09 2.76644e-07)
(-3.67008e-08 6.60167e-10 1.78034e-07)
(-1.45158e-08 -1.80027e-08 3.70335e-07)
(1.29992e-09 -1.43352e-09 2.15907e-07)
(-2.16198e-08 7.57516e-09 2.54077e-07)
(5.93598e-10 -2.38563e-09 2.0812e-07)
(-2.56539e-08 -5.07597e-09 1.58678e-07)
(4.93107e-09 -5.41257e-09 1.8121e-07)
(3.87686e-09 1.33101e-08 4.0333e-07)
(-4.67681e-10 -8.33511e-09 3.6542e-07)
(2.53002e-08 4.43053e-09 1.61468e-07)
(2.37272e-08 -3.64054e-09 2.96233e-07)
(-4.20004e-09 -1.7082e-09 1.78784e-07)
(1.94516e-08 -2.09744e-08 1.84026e-07)
(6.15144e-09 1.97173e-09 1.53568e-07)
(2.27649e-09 3.32313e-10 1.44332e-07)
(-2.03464e-09 -4.02543e-09 1.96321e-07)
(1.57598e-09 2.61695e-09 4.2974e-08)
(7.52083e-09 -3.23859e-09 1.99206e-07)
(6.13607e-09 3.34023e-09 2.73011e-07)
(8.56848e-09 4.0346e-09 3.68658e-07)
(4.32766e-10 2.10151e-09 1.87036e-07)
(-6.26953e-10 2.78539e-09 4.29626e-08)
(1.40984e-08 -1.91338e-09 1.56581e-07)
(-2.16335e-08 5.27045e-09 2.01243e-07)
(6.60425e-10 -2.91839e-09 1.73255e-07)
(4.50804e-09 -1.11898e-09 1.25357e-07)
(1.09854e-09 -8.30014e-10 1.2534e-07)
(-2.69766e-09 1.67053e-09 4.79905e-08)
(-2.47984e-09 -4.17374e-10 1.85032e-07)
(7.70873e-10 5.89827e-09 2.75259e-07)
(-6.56057e-10 -3.33111e-10 3.21582e-07)
(2.72468e-09 3.42598e-10 1.78063e-07)
(-2.89375e-09 4.63369e-09 1.95417e-07)
(-2.60579e-08 -5.84203e-10 1.83473e-07)
(-1.29869e-09 2.13232e-10 1.57103e-07)
(1.62964e-08 1.04929e-08 1.15675e-07)
(3.48383e-09 -1.36921e-09 1.46858e-07)
(2.01294e-09 -7.19642e-10 1.76106e-07)
(4.68931e-09 -3.41641e-09 3.81655e-08)
(3.32918e-09 -3.70152e-09 1.88559e-07)
(-1.58089e-09 3.62238e-10 2.87789e-07)
(1.31472e-09 -1.03091e-08 6.08512e-08)
(-6.48836e-09 -1.30892e-09 5.03613e-07)
(3.29699e-08 -2.83441e-09 2.02689e-07)
(-5.95134e-09 -8.91937e-10 2.29744e-07)
(-4.62848e-09 -5.55844e-09 1.78445e-07)
(-3.25417e-09 -4.30568e-09 1.72465e-07)
(3.02135e-09 -2.06944e-09 2.06728e-07)
(-1.37477e-09 -5.21107e-10 1.65282e-07)
(7.46143e-10 -4.14698e-09 1.40738e-07)
(-9.26235e-09 2.83322e-10 1.83131e-07)
(-1.84454e-09 -1.22921e-09 1.1522e-07)
(-1.79697e-08 -3.545e-09 1.79018e-07)
(1.08784e-08 6.81941e-09 2.01951e-07)
(-6.93582e-10 -2.29961e-09 1.85113e-07)
(6.18087e-09 -2.95881e-09 1.33311e-07)
(2.703e-09 -5.81961e-10 6.35237e-08)
(-2.08919e-09 -4.23694e-11 6.0871e-08)
(-6.81066e-09 2.81649e-09 1.68845e-07)
(3.82164e-09 2.73834e-09 2.2987e-07)
(-2.14925e-09 4.81445e-10 1.3417e-07)
(-1.38631e-08 2.1613e-09 1.2063e-07)
(-2.47267e-09 2.3851e-09 1.62884e-07)
(8.64271e-09 1.17988e-08 2.40105e-07)
(1.49535e-08 -4.48461e-09 4.03793e-07)
(-2.43942e-08 7.07893e-09 3.01861e-07)
(-6.62193e-09 6.23095e-09 1.06707e-07)
(-7.38746e-09 2.77799e-08 3.59929e-07)
(-1.9606e-08 3.21723e-09 2.65883e-07)
(-2.4767e-09 3.49197e-10 1.90743e-07)
(1.36531e-08 -5.88993e-09 1.85323e-07)
(2.33758e-08 1.22607e-08 2.15491e-07)
(-4.12685e-09 2.8074e-09 1.46857e-07)
(-4.83313e-09 -4.33893e-09 4.90555e-08)
(-5.6209e-09 -2.48931e-09 2.29632e-07)
(4.84625e-09 -2.86783e-09 3.09795e-07)
(1.66394e-09 6.77068e-10 1.36029e-07)
(-1.25141e-11 -7.96452e-10 1.33229e-07)
(1.63732e-09 5.42646e-09 1.40957e-07)
(-3.27854e-09 3.33467e-09 1.3884e-07)
(-5.3536e-09 1.15089e-08 2.07111e-07)
(8.72633e-09 1.37015e-09 8.90561e-08)
(3.74007e-09 5.97814e-09 2.17173e-07)
(-2.36185e-08 -3.80172e-09 1.89761e-07)
(3.192e-09 -1.09713e-09 1.13089e-07)
(2.81054e-09 -5.51742e-09 2.05146e-07)
(1.60661e-08 1.30243e-08 4.23857e-07)
(3.71359e-09 -9.66659e-10 5.69409e-08)
(2.02477e-09 4.61137e-09 2.4787e-07)
(-5.35746e-09 3.41332e-09 4.84481e-07)
(-5.69045e-09 4.70596e-09 2.38788e-07)
(-6.91304e-09 4.55405e-09 1.99934e-07)
(1.00704e-08 3.34596e-09 3.74873e-07)
(3.71435e-09 1.52414e-09 1.09296e-07)
(5.09533e-09 -1.29072e-08 2.25415e-07)
(-1.34423e-09 -7.87396e-09 1.68418e-07)
(7.31782e-10 4.086e-09 2.29563e-07)
(-4.40268e-09 -2.3359e-09 3.80922e-08)
(3.18535e-09 5.08718e-11 1.49053e-07)
(-9.3144e-10 2.1567e-09 1.60206e-07)
(-2.42435e-09 5.84259e-09 2.77425e-07)
(5.58978e-09 -3.74484e-10 2.14115e-07)
(8.63034e-09 6.85585e-09 2.58222e-07)
(-3.57699e-09 2.00378e-09 6.40898e-08)
(1.04661e-08 -1.78115e-09 2.7642e-07)
(2.09893e-09 -1.27028e-08 4.80886e-07)
(5.16268e-09 -6.13603e-09 1.1727e-07)
(1.01955e-08 -4.57942e-09 3.32321e-07)
(-1.89489e-10 6.56611e-10 1.91919e-07)
(-3.1404e-09 4.54559e-09 2.57765e-07)
(-1.93167e-09 -2.06543e-10 3.95355e-08)
(-3.38463e-09 1.94961e-08 3.4671e-07)
(-4.49709e-09 4.5833e-09 4.40337e-07)
(-1.07773e-10 6.66359e-09 2.23999e-07)
(1.93406e-09 -3.83537e-09 3.76708e-08)
(2.48534e-09 -3.30894e-09 1.63531e-07)
(-2.10904e-09 9.27072e-09 2.12416e-07)
(1.20391e-08 -7.65169e-09 8.76637e-08)
(1.03757e-09 1.29694e-09 5.38916e-08)
(1.12071e-08 -1.60769e-09 2.48657e-07)
(-4.03367e-09 2.55902e-09 2.6628e-07)
(-2.44331e-08 -6.25231e-09 2.93412e-07)
(-3.28376e-09 -6.2578e-10 2.11551e-07)
(-3.31397e-09 4.81076e-10 4.67672e-08)
(4.09515e-10 2.35463e-09 2.02157e-07)
(5.33065e-09 -9.78509e-09 1.33204e-07)
(-1.20738e-09 2.51563e-09 1.33229e-07)
(-4.94471e-10 1.15572e-08 2.00922e-07)
(-8.70553e-10 -4.13593e-09 1.40497e-07)
(3.27382e-09 1.42094e-09 1.73359e-07)
(-1.16074e-08 -1.97159e-08 5.14021e-07)
(3.62783e-09 -5.5665e-09 1.95147e-07)
(1.43216e-08 6.3106e-09 3.0704e-07)
(-2.51727e-08 -1.59155e-08 2.92769e-07)
(1.01675e-08 7.06706e-09 1.48552e-07)
(6.89775e-09 -3.16826e-09 3.03387e-07)
(-9.96916e-09 -1.69336e-09 9.85712e-08)
(8.02465e-09 -2.77204e-09 6.35939e-08)
(1.47822e-08 3.51781e-09 1.91329e-07)
(8.20347e-10 -2.35713e-09 1.53168e-07)
(-3.53132e-09 7.91696e-09 1.59685e-07)
(-9.60249e-10 2.0111e-09 1.03387e-07)
(4.21146e-09 -6.6215e-09 4.80077e-08)
(2.08771e-09 -1.75261e-09 2.19648e-07)
(1.90687e-08 1.59888e-08 3.17298e-07)
(-4.32907e-09 -3.3662e-09 1.68164e-07)
(-1.32529e-08 1.67405e-09 2.39579e-07)
(-3.35806e-09 1.30647e-09 1.81312e-07)
(4.51609e-09 1.35319e-09 1.80341e-07)
(1.00471e-08 1.4386e-09 3.19824e-07)
(-6.20486e-09 -8.95896e-10 6.34524e-08)
(-1.00527e-09 7.09831e-09 1.80006e-07)
(-1.01985e-08 -8.5622e-09 1.14476e-07)
(-7.7542e-09 -4.43229e-09 2.31497e-07)
(-6.6406e-11 -9.87976e-10 2.53071e-07)
(-9.0202e-09 -2.78519e-09 1.28205e-07)
(2.44734e-09 -3.61043e-10 1.30513e-07)
(1.33247e-08 3.70128e-09 4.74934e-07)
(-3.33209e-09 2.11216e-09 4.41283e-08)
(-7.10101e-09 -2.12419e-09 2.38043e-07)
(1.11502e-08 2.31437e-09 2.27332e-07)
(1.78543e-09 1.23922e-09 2.65192e-07)
(3.87737e-10 1.84076e-09 1.63456e-07)
(2.24683e-09 -2.55972e-09 3.84245e-08)
(-3.39744e-09 1.77376e-08 4.02038e-07)
(-7.12698e-09 2.33457e-10 1.05781e-07)
(1.82983e-09 -6.02781e-09 5.80393e-08)
(-3.28694e-09 2.58057e-09 2.36555e-07)
(-4.37192e-09 -4.63795e-09 1.91989e-07)
(1.32964e-08 -1.4721e-08 3.92952e-07)
(-1.37196e-09 2.95595e-09 2.22324e-07)
(2.18634e-09 5.53767e-09 2.83202e-07)
(-9.82639e-10 -2.24086e-09 1.7872e-07)
(5.07607e-09 1.15949e-08 1.65363e-07)
(4.42526e-09 -2.78443e-09 1.94087e-07)
(1.04931e-09 2.14661e-08 2.55171e-07)
(7.60823e-09 -6.42085e-10 2.67005e-07)
(1.10299e-10 -1.21472e-09 1.36856e-07)
(-1.01518e-08 -9.20498e-09 2.02899e-07)
(-9.32939e-10 -6.80917e-09 2.29208e-07)
(-1.68121e-09 3.90801e-10 2.32917e-07)
(-9.75737e-09 -7.62381e-10 7.47598e-08)
(1.27929e-08 2.57709e-09 1.41273e-07)
(-4.06139e-09 2.22615e-09 1.51518e-07)
(1.89805e-08 9.88133e-09 2.48366e-07)
(3.79366e-10 1.99226e-09 1.97263e-07)
(-4.15869e-09 1.13295e-09 1.32167e-07)
(-5.94588e-09 3.49887e-09 2.35028e-07)
(5.24813e-09 1.71483e-09 6.82758e-08)
(6.40955e-09 8.43041e-09 6.02802e-08)
(6.25057e-09 6.44655e-09 9.54938e-08)
(-2.10801e-09 1.84865e-09 2.07202e-07)
(1.18662e-08 -1.01069e-09 2.42629e-07)
(-2.67697e-09 7.77958e-09 3.69441e-07)
(-1.04429e-08 -4.81624e-09 1.34302e-07)
(3.37291e-09 2.6527e-09 1.78416e-07)
(-5.10015e-09 9.43733e-10 4.5194e-08)
(1.89865e-08 4.46408e-09 2.20235e-07)
(2.29513e-09 6.74933e-09 7.15993e-08)
(3.44592e-09 -9.57943e-10 1.14567e-07)
(5.83825e-09 6.79489e-09 2.4306e-07)
(1.61511e-10 -1.66758e-09 1.85277e-07)
(-9.74747e-09 -1.63187e-08 3.8326e-07)
(4.33379e-09 1.4914e-09 2.28712e-07)
(2.30117e-09 6.87172e-09 2.79609e-07)
(1.34496e-08 1.54299e-09 3.38255e-07)
(5.18739e-09 2.92488e-10 2.07546e-07)
(3.34756e-09 1.04095e-09 1.35031e-07)
(6.01391e-09 2.00195e-09 2.59941e-07)
(2.6712e-09 1.84799e-09 2.67107e-07)
(-3.84044e-09 -3.71792e-09 2.64855e-07)
(1.40779e-08 -1.97773e-09 2.18369e-07)
(2.73428e-09 6.03743e-09 2.53371e-07)
(-5.7859e-09 -8.39174e-09 1.83832e-07)
(-2.01401e-08 -4.21074e-09 1.83807e-07)
(-1.1668e-08 3.83158e-10 2.35839e-07)
(8.09424e-09 3.87377e-09 2.09967e-07)
(1.07477e-08 -3.69015e-09 3.14042e-07)
(8.38707e-10 1.73717e-09 2.17006e-07)
(5.0164e-09 5.02513e-09 9.71771e-08)
(1.46251e-08 -4.09317e-09 2.02201e-07)
(-7.9364e-09 -8.23088e-09 2.57681e-07)
(3.39475e-08 -1.30342e-08 3.02095e-07)
(-9.7439e-09 1.26143e-08 1.34344e-07)
(-3.88256e-09 6.77262e-09 1.45164e-07)
(1.64777e-08 6.04942e-09 2.31234e-07)
(-1.49566e-10 5.63953e-10 1.41972e-07)
(-9.20897e-09 1.01092e-08 4.63219e-07)
(-1.36262e-08 -5.45771e-09 2.15814e-07)
(1.45942e-09 2.06092e-09 2.67236e-07)
(3.50047e-09 1.82619e-08 3.00083e-07)
(2.16979e-09 5.16487e-09 4.91866e-08)
(1.70511e-09 3.46146e-09 2.53747e-07)
(-8.56705e-09 5.43208e-09 7.32627e-08)
(-6.15101e-09 1.47812e-09 1.09132e-07)
(-2.07637e-09 1.47633e-09 2.61545e-07)
(-6.55585e-10 -4.51636e-09 2.43967e-07)
(-1.9496e-09 1.00621e-08 6.77085e-08)
(1.41411e-08 -2.73982e-08 3.76553e-07)
(3.14263e-09 -1.43068e-08 3.05435e-07)
(-8.78389e-10 2.78813e-09 1.93783e-07)
(7.31403e-09 2.04262e-09 2.35548e-07)
(-1.03649e-10 3.95229e-10 6.26335e-08)
(-1.16779e-09 -5.76283e-10 1.94656e-07)
(-1.32936e-09 -3.11479e-10 9.66927e-08)
(-5.05184e-10 -1.08382e-09 1.17708e-07)
(-7.55719e-10 -9.2877e-09 2.67274e-07)
(-3.423e-09 -2.07513e-09 1.55313e-07)
(-1.39586e-08 -4.02343e-09 2.50952e-07)
(4.0395e-10 3.34214e-09 2.13774e-07)
(5.94962e-09 -6.74999e-09 1.00806e-07)
(2.3053e-09 -4.63978e-09 2.33441e-07)
(-4.74662e-09 7.85226e-10 1.93487e-07)
(1.48807e-09 -4.47939e-09 2.66458e-07)
(-1.43801e-09 -3.43295e-09 1.98217e-07)
(2.02393e-09 -1.85947e-08 3.84115e-07)
(-8.47254e-09 -2.90302e-08 2.25489e-07)
(-1.41216e-09 -4.94354e-09 4.83579e-08)
(-6.96443e-09 -4.47542e-09 9.23391e-08)
(-5.24731e-09 6.5996e-09 4.82868e-07)
(2.7095e-09 2.32543e-10 3.94195e-08)
(1.30532e-08 2.46597e-08 3.43624e-07)
(-1.0872e-08 -1.20529e-08 1.41738e-07)
(-3.32548e-09 -4.65029e-09 2.63605e-07)
(-6.58194e-09 -2.9079e-09 2.87194e-07)
(-5.71156e-09 -4.41561e-09 2.86015e-07)
(-5.43733e-09 -1.83135e-08 2.35065e-07)
(-5.6301e-09 -1.55631e-09 3.85699e-07)
(1.38737e-08 7.90141e-09 1.60293e-07)
(-1.59745e-08 1.47836e-08 1.66239e-07)
(-1.81012e-09 -4.37111e-09 1.56574e-07)
(-1.6813e-09 5.16778e-09 2.34035e-07)
(-2.14803e-08 6.25495e-10 2.66081e-07)
(7.12142e-09 -1.63548e-08 2.70281e-07)
(8.99991e-10 -6.37578e-09 1.26978e-07)
(-3.54725e-09 -6.86002e-09 1.87448e-07)
(-3.37613e-09 -8.25652e-09 2.88471e-07)
(-6.21023e-11 -5.52474e-10 1.55672e-07)
(-7.59545e-09 -7.01744e-09 3.27459e-07)
(-3.36873e-09 4.04428e-09 1.68404e-07)
(-4.79596e-09 -1.10639e-08 4.30345e-07)
(1.17692e-08 -1.38988e-08 2.25838e-07)
(5.14308e-10 2.3079e-09 3.66547e-07)
(-1.25152e-09 5.07213e-09 2.1808e-07)
(-1.78924e-09 -4.66042e-09 1.61808e-07)
(5.93352e-09 -9.14012e-10 2.87084e-07)
(5.10503e-09 1.18884e-08 2.02955e-07)
(5.05593e-09 6.11001e-09 5.84232e-08)
(-2.9507e-09 -8.59615e-09 2.66321e-07)
(2.96025e-09 1.44892e-09 1.30045e-07)
(9.16561e-09 5.20184e-09 6.57972e-08)
(-2.80354e-11 7.81865e-09 3.32701e-07)
(-1.83873e-09 6.80558e-09 1.80315e-07)
(1.23141e-09 2.37877e-08 1.86366e-07)
(4.74161e-10 1.25562e-10 1.99543e-07)
(4.48781e-09 -4.3756e-09 2.61044e-07)
(-1.20746e-09 3.70891e-09 3.0502e-07)
(1.75031e-09 -1.94269e-09 2.06424e-07)
(-5.78561e-09 2.34365e-09 6.77818e-08)
(-4.41741e-09 -3.82992e-09 2.76554e-07)
(3.09041e-09 2.11651e-09 1.58287e-07)
(4.55796e-09 9.2432e-10 1.98186e-07)
(3.03745e-09 -2.25864e-09 2.10811e-07)
(-1.07478e-09 8.23095e-09 1.86829e-07)
(1.59371e-09 -4.14805e-10 1.80476e-07)
(8.44117e-09 -2.74869e-09 2.20974e-07)
(7.73229e-09 -2.824e-09 2.38398e-07)
(1.34234e-10 -7.18169e-09 1.79657e-07)
(2.88164e-09 -5.45443e-09 1.12045e-07)
(-2.65504e-09 8.53071e-09 4.56153e-08)
(-5.97249e-09 -1.25566e-08 7.17751e-08)
(-1.1714e-08 3.32444e-09 3.35597e-07)
(-3.15504e-08 -1.66714e-08 4.08874e-07)
(-2.56489e-08 1.01485e-10 1.58946e-07)
(1.05832e-08 -7.29984e-09 1.66064e-07)
(3.20891e-09 5.74903e-09 2.97201e-07)
(-1.41382e-08 -5.73456e-09 3.55161e-07)
(1.17099e-09 1.14164e-09 1.78506e-07)
(-2.67493e-09 1.15868e-08 3.3724e-07)
(-9.36179e-09 5.9607e-09 3.80362e-07)
(-3.44325e-09 -2.746e-09 1.97934e-07)
(-2.08021e-09 -9.33477e-10 1.17091e-07)
(-7.96746e-10 2.81734e-09 5.68186e-08)
(-5.30253e-08 -4.01457e-09 2.52474e-07)
(1.06376e-08 7.57781e-09 1.70463e-07)
(1.27595e-08 1.0981e-08 1.21966e-07)
(-2.3538e-08 1.98776e-09 1.52221e-07)
(-7.08065e-10 -1.55717e-10 1.37071e-07)
(-9.58216e-10 -1.11026e-09 2.66704e-07)
(-2.56701e-09 1.00716e-09 2.07542e-07)
(3.3712e-09 -5.51399e-09 4.70421e-08)
(7.22363e-09 -3.30336e-10 1.84735e-07)
(-8.40622e-09 -1.5401e-08 1.32214e-07)
(1.80101e-09 4.5323e-09 1.45789e-07)
(-4.3472e-10 -1.11775e-08 1.05321e-07)
(-1.95334e-08 1.4913e-09 2.8076e-07)
(-2.75195e-09 -4.26396e-09 3.1178e-07)
(3.60756e-09 1.37887e-09 1.57513e-07)
(1.36696e-09 -1.56982e-09 4.84473e-08)
(8.76924e-09 -7.32502e-09 2.23199e-07)
(6.31754e-09 -4.00683e-09 2.40853e-07)
(1.07349e-09 -3.40596e-09 6.04114e-08)
(-6.12814e-09 -7.66408e-09 3.01229e-07)
(6.86989e-09 -9.62918e-09 2.09841e-07)
(6.32837e-09 -1.01732e-08 3.24601e-07)
(3.39955e-09 -1.9874e-08 2.89527e-07)
(-4.24076e-09 -3.5682e-09 1.16269e-07)
(-9.6632e-09 -4.46972e-09 3.44176e-07)
(-1.25226e-09 2.07398e-09 2.12221e-07)
(-5.49423e-09 -4.41288e-09 2.41299e-07)
(-3.40104e-09 1.67548e-09 1.9492e-07)
(-4.83276e-08 1.05448e-08 2.94748e-07)
(-1.12155e-08 -1.064e-08 2.40396e-07)
(-1.86014e-09 7.26517e-10 2.03623e-07)
(3.69988e-10 2.18292e-09 4.27139e-07)
(6.39586e-09 -1.37551e-08 1.57218e-07)
(-7.89932e-09 7.05206e-09 3.85639e-07)
(-4.3443e-09 2.24254e-09 1.61053e-07)
(6.22697e-09 4.72197e-10 3.34676e-07)
(1.09619e-09 2.14773e-09 2.58156e-07)
(-5.19879e-09 -1.48759e-08 1.56231e-07)
(2.06511e-09 1.87424e-09 2.30535e-07)
(1.23494e-08 2.35379e-09 3.91903e-07)
(4.64052e-09 -1.11428e-11 2.18454e-07)
(1.80571e-09 -1.06336e-09 2.00314e-07)
(-7.74799e-09 -3.69339e-09 5.05569e-08)
(2.79523e-09 -1.19024e-09 4.40995e-08)
(-2.62696e-09 1.02392e-08 3.20226e-07)
(-2.93912e-09 -4.50438e-09 2.09045e-07)
(2.87185e-09 4.45858e-10 1.60098e-07)
(2.2577e-09 2.99191e-09 8.05294e-08)
(5.06885e-10 -6.25467e-10 6.19217e-08)
(5.32202e-09 -2.18002e-08 4.477e-07)
(-2.66575e-09 1.89352e-09 1.15211e-07)
(3.56329e-09 5.81846e-10 2.41246e-07)
(1.14955e-09 -7.31979e-09 2.1223e-07)
(1.90448e-09 -1.0973e-09 1.63877e-07)
(2.68097e-09 -3.03113e-09 1.78901e-07)
(1.34626e-08 -1.18141e-09 1.82131e-07)
(-4.43564e-09 5.00068e-10 1.56123e-07)
(3.18164e-10 1.51873e-08 1.70044e-07)
(-3.35574e-09 1.2893e-09 2.27937e-07)
(-7.78586e-09 -4.36723e-11 2.52275e-07)
(-4.8429e-09 1.33484e-10 1.80302e-07)
(3.29258e-10 9.84087e-10 1.61499e-07)
(2.94528e-09 -9.03655e-09 3.48052e-07)
(-1.79248e-09 3.54443e-09 2.57062e-07)
(-3.90168e-09 9.90932e-09 1.63485e-07)
(-7.63859e-09 -1.70379e-08 1.00094e-07)
(-1.3465e-09 5.54603e-09 5.09178e-08)
(-8.60486e-10 3.20434e-09 1.89132e-07)
(4.93812e-09 -1.00122e-10 2.11051e-07)
(-1.32404e-09 1.29798e-08 2.66302e-07)
(8.72727e-09 -5.27289e-09 2.06119e-07)
(-3.79911e-09 9.79569e-09 5.36983e-08)
(1.00562e-08 -7.48105e-09 5.64887e-08)
(3.27504e-09 -4.69616e-10 2.19116e-07)
(3.20811e-09 8.50074e-09 2.04092e-07)
(-2.64529e-09 -2.42695e-10 2.37555e-07)
(4.49457e-09 -3.56415e-09 3.06585e-07)
(-1.35256e-09 -2.74123e-10 2.16648e-07)
(1.87429e-09 3.59843e-09 2.35617e-07)
(-1.16187e-09 5.63145e-10 4.12873e-07)
(-8.0544e-09 -1.0417e-09 7.84951e-08)
(-1.15613e-08 -5.49966e-09 1.97823e-07)
(-2.56511e-09 -1.06555e-09 1.32398e-07)
(-1.00638e-08 1.39005e-09 1.28324e-07)
(3.37963e-10 7.08275e-11 1.09799e-07)
(1.12957e-08 -2.02607e-08 2.10326e-07)
(1.03259e-09 2.15638e-09 2.51057e-07)
(5.3127e-09 7.28725e-09 5.5487e-08)
(5.78921e-09 -3.93773e-09 2.85017e-07)
(2.33427e-09 5.04919e-09 1.97953e-07)
(-4.89567e-09 -8.23404e-10 1.55255e-07)
(-1.30657e-08 -3.51491e-09 2.90852e-07)
(-7.5399e-10 -3.08587e-09 1.41912e-07)
(-4.77636e-09 -7.58452e-10 1.92544e-07)
(1.38898e-08 7.65564e-11 2.62428e-07)
(2.78635e-09 -1.7317e-09 2.16763e-07)
(9.8286e-09 1.67916e-08 2.35439e-07)
(1.04829e-09 -7.0357e-10 2.05608e-07)
(-3.17398e-09 -3.5164e-09 2.80339e-07)
(6.88988e-09 -7.61807e-09 4.27962e-08)
(-4.17521e-09 -2.54132e-09 2.27462e-07)
(2.55361e-09 6.95586e-09 2.22987e-07)
(6.26237e-09 -6.85211e-09 1.31137e-07)
(3.93365e-09 1.61703e-08 2.5913e-07)
(-6.95136e-11 6.43635e-09 2.82161e-07)
(-2.32034e-09 -7.59301e-10 2.59753e-07)
(-3.66e-10 6.78214e-09 1.98297e-07)
(7.00169e-11 5.07768e-09 3.76042e-08)
(-7.13055e-09 3.60631e-09 1.96516e-07)
(6.11088e-09 8.1861e-09 3.69941e-07)
(-1.78175e-09 5.2033e-09 1.97344e-07)
(4.84984e-09 -1.72792e-08 2.15234e-07)
(8.68308e-09 -1.61556e-09 1.3855e-07)
(-1.92587e-09 -1.09073e-08 2.47661e-07)
(-1.18615e-09 1.1337e-08 5.94062e-08)
(-7.52972e-10 -1.16635e-09 1.39079e-07)
(-2.53381e-08 8.80742e-09 2.06882e-07)
(1.59214e-09 -5.94723e-09 1.9642e-07)
(-1.3652e-09 1.23831e-08 1.93673e-07)
(1.0326e-08 5.1733e-10 2.16754e-07)
(1.08283e-08 -1.57328e-09 1.58578e-07)
(-1.0495e-08 -3.21154e-09 1.02235e-07)
(2.43499e-09 -5.72318e-09 3.29712e-07)
(7.12409e-11 2.21264e-09 1.53858e-07)
(-6.89866e-09 1.32026e-09 4.60729e-08)
(5.07439e-09 -6.60402e-09 2.23762e-07)
(-2.49896e-09 -3.47267e-09 1.87026e-07)
(1.98344e-09 4.00644e-09 8.76631e-08)
(-1.13558e-08 -1.079e-08 2.41301e-07)
(6.06152e-09 9.32838e-09 2.0895e-07)
(-3.45771e-09 -3.25975e-09 1.57019e-07)
(2.52609e-10 -6.65187e-10 1.82107e-07)
(3.89467e-09 3.12116e-09 6.53862e-08)
(-1.64043e-08 -1.51178e-08 1.77511e-07)
(-1.42342e-08 1.23535e-08 1.90089e-07)
(-6.58269e-09 2.28108e-09 2.03885e-07)
(2.46358e-09 -1.78014e-09 2.33388e-07)
(2.25035e-09 1.83264e-09 5.13387e-08)
(-7.47302e-10 -3.32479e-10 3.28079e-07)
(-5.21364e-10 -1.11228e-09 2.15438e-07)
(-4.48898e-09 -1.54382e-09 1.98818e-07)
(-3.29884e-09 -2.04035e-09 1.13099e-07)
(1.84745e-09 3.07718e-09 2.83393e-07)
(1.16843e-09 7.16511e-09 5.5525e-08)
(-6.65755e-09 1.66995e-09 2.47409e-07)
(1.00169e-09 7.21351e-10 6.57422e-08)
(-2.22833e-08 1.9088e-08 2.64739e-07)
(8.28005e-10 1.00657e-11 1.92913e-07)
(3.70558e-09 -3.65768e-09 2.69893e-07)
(-2.97251e-10 -3.02547e-09 5.23412e-08)
(-1.24402e-08 9.98164e-09 1.17789e-07)
(1.86947e-08 -6.76386e-09 1.62282e-07)
(-3.22873e-08 6.19838e-09 2.65276e-07)
(4.46946e-09 3.95644e-11 3.22816e-07)
(1.33921e-08 -4.30835e-09 8.90339e-08)
(-8.65989e-09 3.28732e-09 2.63636e-07)
(-6.1626e-09 1.48774e-09 2.2092e-07)
(-2.67767e-09 4.10905e-09 1.58003e-07)
(-9.94349e-09 6.75983e-09 8.74854e-08)
(-8.75874e-09 1.62194e-08 3.33786e-07)
(-1.80786e-08 2.28446e-09 2.16695e-07)
(1.73829e-09 -2.6051e-09 1.53468e-07)
(-2.76381e-10 1.95966e-09 1.89409e-07)
(-2.61524e-09 1.26678e-09 1.31899e-07)
(-3.02447e-08 1.37288e-08 2.17377e-07)
(2.29721e-09 -5.72008e-09 1.63521e-07)
(-4.55431e-09 -6.47312e-10 1.17431e-07)
(-9.0892e-09 3.76901e-09 1.64669e-07)
(6.74295e-09 -1.22923e-09 2.17794e-07)
(1.13083e-08 -4.92969e-09 1.46189e-07)
(1.08308e-09 -2.30339e-09 3.59928e-08)
(7.90171e-09 -4.71247e-09 2.95636e-07)
(-4.89836e-09 -5.06367e-09 1.36496e-07)
(-4.57498e-09 6.02798e-09 3.17032e-07)
(-8.13518e-09 9.80007e-09 2.61262e-07)
(4.39574e-09 -2.74002e-09 3.52993e-07)
(4.74246e-10 1.96093e-08 2.79308e-07)
(8.41857e-09 -3.67797e-09 3.38086e-07)
(-1.17206e-08 8.05571e-09 2.02533e-07)
(-3.33328e-09 1.59307e-09 1.11189e-07)
(1.40452e-08 -1.38857e-08 3.51409e-07)
(2.24226e-09 9.66103e-09 9.08759e-08)
(3.81201e-09 4.39394e-09 3.02687e-07)
(2.22699e-08 1.30362e-08 2.26853e-07)
(-5.96426e-09 -1.03264e-08 8.04959e-08)
(1.9056e-09 5.88365e-09 2.72823e-07)
(4.66534e-09 -4.9229e-09 1.37828e-07)
(-1.11941e-09 -7.66664e-10 1.96021e-07)
(2.12448e-09 1.2846e-09 1.62388e-07)
(-5.22057e-09 -1.14343e-09 4.30081e-07)
(-3.49308e-08 -1.57298e-09 1.63441e-07)
(9.45282e-10 7.36247e-10 2.24745e-07)
(7.92115e-09 -1.05107e-09 2.22734e-07)
(-3.60392e-09 6.30287e-09 2.3539e-07)
(7.41401e-09 2.47492e-09 2.37185e-07)
(-3.71308e-09 3.5125e-09 2.12403e-07)
(-1.53638e-09 -4.36303e-09 1.22482e-07)
(-9.78935e-09 -1.50793e-09 1.08048e-07)
(-7.94956e-09 -2.02697e-09 1.37357e-07)
(-4.813e-09 2.62597e-09 1.2578e-07)
(2.40345e-11 -5.11162e-09 2.44383e-07)
(-7.29055e-09 -7.63786e-09 5.80607e-08)
(-3.11876e-10 -3.22785e-09 2.00407e-07)
(-6.15464e-11 1.31716e-08 3.71414e-07)
(-3.65224e-09 7.97406e-09 2.78961e-07)
(-3.49805e-09 6.05935e-09 2.90287e-07)
(1.32259e-08 1.31611e-08 3.31438e-07)
(-2.56874e-09 2.6269e-09 5.70398e-08)
(4.05639e-09 4.3091e-09 1.78915e-07)
(4.81758e-09 6.91939e-09 2.06663e-07)
(-8.49929e-10 -2.12387e-09 2.2608e-07)
(-2.747e-09 -1.15594e-08 2.3001e-07)
(-8.60067e-09 2.0994e-09 9.02862e-08)
(9.88452e-10 3.82704e-10 1.55551e-07)
(-1.05259e-08 2.39089e-09 2.20061e-07)
(-7.70648e-09 -7.31601e-09 2.62129e-07)
(9.38373e-10 1.02441e-09 2.00865e-07)
(-1.23278e-09 1.12729e-08 1.78115e-07)
(-1.39131e-09 -2.22297e-09 3.59152e-08)
(3.90202e-10 -2.04351e-09 4.8856e-08)
(-3.84029e-09 7.82413e-10 1.34136e-07)
(-1.25074e-09 -1.40733e-10 2.3659e-07)
(-5.78311e-09 1.04034e-09 1.69276e-07)
(-7.90796e-09 -1.82584e-09 1.5683e-07)
(-1.3366e-08 1.00366e-08 2.35789e-07)
(-2.70674e-09 -3.54156e-09 2.31226e-07)
(-6.82393e-10 5.46936e-09 2.28465e-07)
(2.84373e-10 4.59755e-10 5.78328e-08)
(-2.49889e-09 -3.14581e-10 1.03091e-07)
(-7.6436e-11 5.04126e-09 1.79222e-07)
(7.96044e-09 -5.42965e-10 1.12676e-07)
(2.20403e-09 -3.88725e-09 1.66029e-07)
(2.74493e-09 -1.55984e-09 3.35858e-07)
(-2.05141e-09 -1.81888e-09 2.06339e-07)
(3.10098e-09 4.57809e-10 1.93576e-07)
(5.82621e-09 -4.09563e-10 2.78345e-07)
(-5.15141e-09 5.3549e-09 1.93128e-07)
(2.45906e-09 4.03467e-09 2.4679e-07)
(7.39214e-09 -1.51422e-08 2.58069e-07)
(-5.02336e-09 -5.37839e-09 3.51123e-07)
(7.92426e-10 -4.27384e-09 1.62336e-07)
(3.57977e-09 -4.08587e-09 1.73135e-07)
(-4.57e-09 -9.87925e-09 2.36711e-07)
(2.03667e-10 -1.21651e-08 9.85903e-08)
(8.82955e-09 2.71118e-09 4.62906e-07)
(5.93763e-09 2.12398e-09 7.48136e-08)
(-2.51525e-08 3.86349e-09 1.69642e-07)
(-1.0581e-08 -2.41571e-08 2.0996e-07)
(-3.7382e-09 -2.93165e-09 1.59875e-07)
(-9.91497e-09 -4.80962e-09 2.30491e-07)
(-2.4783e-08 1.41749e-08 3.46979e-07)
(1.39574e-09 -1.99925e-09 1.00764e-07)
(2.98148e-09 -7.67211e-09 2.50977e-07)
(-5.68278e-09 -6.01147e-09 3.12646e-07)
(1.35037e-09 2.05629e-09 1.59319e-07)
(1.01533e-08 7.10406e-09 8.20432e-08)
(-5.42702e-09 -7.25836e-10 1.16136e-07)
(-1.50084e-08 6.02283e-09 2.10686e-07)
(8.20749e-10 1.33371e-09 1.57072e-07)
(2.56037e-09 2.48811e-09 1.13724e-07)
(4.41237e-09 -2.64539e-09 2.30662e-07)
(2.58455e-09 8.49948e-10 1.89817e-07)
(3.11502e-08 2.34199e-08 4.07196e-07)
(4.67617e-09 6.56499e-09 1.00674e-07)
(-1.09993e-08 9.82227e-09 1.02748e-07)
(9.88171e-09 4.10716e-09 6.78278e-08)
(4.55911e-09 3.28321e-09 4.97131e-08)
(-2.65192e-09 5.64184e-10 9.43986e-08)
(-2.89425e-09 2.04236e-09 2.46917e-07)
(-1.00276e-09 4.49733e-09 1.76039e-07)
(-7.92667e-10 -9.96397e-10 4.62703e-08)
(1.61802e-11 -6.10442e-09 4.98836e-08)
(3.01336e-09 -4.19908e-09 2.63192e-07)
(-1.39726e-08 1.08073e-08 1.99877e-07)
(5.46202e-09 -1.25967e-09 1.10364e-07)
(1.68873e-09 -1.43376e-09 2.14794e-07)
(2.98567e-09 -2.2673e-09 1.21963e-07)
(-1.42305e-09 -1.43901e-09 2.117e-07)
(-7.70314e-09 -6.2692e-09 1.07554e-07)
(-1.61163e-08 -1.29319e-08 1.84733e-07)
(-3.37421e-09 -7.01664e-10 2.37412e-07)
(-4.55494e-10 -4.12869e-09 2.11131e-07)
(2.56386e-09 -5.96175e-09 3.76992e-07)
(-1.53076e-09 -1.88792e-08 8.23938e-08)
(5.06516e-10 -2.55535e-09 6.11385e-08)
(-4.18311e-08 -1.38878e-08 2.05692e-07)
(7.20866e-09 5.05723e-09 6.53264e-08)
(5.52934e-09 1.35844e-08 3.5194e-07)
(1.15566e-08 3.49884e-09 6.86214e-08)
(-2.40456e-09 6.68529e-09 2.00212e-07)
(-9.77762e-09 6.09681e-09 2.25265e-07)
(1.96397e-09 -9.66913e-10 3.38153e-07)
(1.95074e-08 9.65139e-10 1.35276e-07)
(-7.11344e-09 6.39904e-09 1.89468e-07)
(-2.83154e-10 -3.89419e-09 1.02686e-07)
(-4.07549e-09 1.53832e-09 6.92878e-08)
(1.34371e-09 1.20665e-09 1.94153e-07)
(3.42523e-09 2.24777e-09 3.42555e-08)
(-2.09166e-10 -1.6268e-09 1.41407e-07)
(1.24263e-08 -5.47889e-09 1.37443e-07)
(-3.76901e-09 -5.13715e-09 2.83824e-07)
(3.45429e-09 -8.32811e-09 2.18966e-07)
(-1.918e-09 1.80751e-09 4.30759e-08)
(2.21685e-08 -1.21824e-08 2.97239e-07)
(6.46989e-09 8.218e-09 2.1508e-07)
(1.08139e-08 -7.41155e-09 6.50798e-08)
(2.26614e-09 -2.16604e-09 2.32802e-07)
(7.55385e-09 -9.25066e-09 1.63886e-07)
(-2.3731e-10 6.25902e-09 2.96786e-07)
(1.72847e-09 1.27071e-09 1.66319e-07)
(-1.21499e-08 9.82291e-10 1.32009e-07)
(6.39302e-09 8.14312e-10 4.81421e-08)
(-2.51156e-08 1.14175e-08 2.08546e-07)
(-3.00397e-08 1.12348e-10 2.46821e-07)
(-2.16584e-08 -4.20173e-09 2.97403e-07)
(-4.69964e-09 2.33377e-09 1.41323e-07)
(9.39217e-09 2.71005e-09 3.00515e-07)
(2.05159e-09 -1.72654e-09 5.77525e-08)
(1.2251e-09 9.42207e-10 1.47645e-07)
(6.74678e-09 3.82881e-09 6.1054e-08)
(-5.97881e-09 -3.12846e-09 2.72613e-07)
(7.43592e-09 -6.12292e-09 2.97785e-07)
(2.57263e-09 1.60446e-09 1.63646e-07)
(-1.06345e-09 2.3816e-09 3.03613e-08)
(6.43629e-09 5.91162e-09 3.36465e-07)
(-5.29595e-09 1.21313e-10 2.72563e-07)
(-1.42277e-09 -1.35849e-09 3.32783e-07)
(-3.33098e-09 -3.41236e-09 1.29429e-07)
(-2.86153e-08 7.28106e-09 2.26835e-07)
(-5.00673e-09 3.41e-09 2.28997e-07)
(-1.97963e-08 1.1978e-08 1.68802e-07)
(-3.22414e-09 -5.20592e-09 1.85111e-07)
(-3.56491e-08 -6.22165e-09 2.00937e-07)
(5.01581e-09 1.81992e-09 2.08906e-07)
(6.10461e-09 8.375e-09 6.97573e-08)
(1.75286e-09 -5.34798e-09 2.06247e-07)
(-1.69071e-09 1.38888e-09 1.41024e-07)
(-4.81151e-09 -1.14761e-09 2.30469e-07)
(7.46835e-09 -1.57718e-08 7.5163e-08)
(-8.58522e-10 -3.99532e-09 2.86264e-07)
(-2.36989e-08 2.90228e-08 3.17473e-07)
(3.39538e-10 -8.16104e-09 6.47238e-08)
(-2.18987e-09 -4.81464e-10 1.5344e-07)
(-5.52677e-09 2.63464e-09 1.56525e-07)
(-1.50642e-08 3.41735e-09 3.88672e-07)
(-3.34879e-09 -3.28002e-10 1.53791e-07)
(2.16084e-10 -1.07977e-09 1.37598e-07)
(4.03363e-09 3.6297e-10 2.45543e-07)
(5.05606e-09 -1.05664e-08 2.70648e-07)
(-9.81857e-09 -5.95651e-09 1.80032e-07)
(2.45296e-09 -8.73459e-09 1.5336e-07)
(-1.80528e-09 -6.99588e-10 2.96923e-07)
(-2.23696e-08 -3.83184e-09 2.23641e-07)
(2.12818e-09 8.02023e-09 2.37758e-07)
(-2.09362e-09 -3.4305e-09 2.05375e-07)
(6.2839e-09 8.70098e-09 2.02963e-07)
(1.86415e-09 -1.19733e-09 3.02168e-07)
(8.2961e-11 -7.2539e-10 1.62381e-07)
(1.43926e-08 3.91344e-09 2.56258e-07)
(1.51526e-08 1.49486e-08 3.31589e-07)
(5.95518e-09 -9.30249e-09 9.40312e-08)
(1.91077e-08 2.80245e-09 3.14876e-07)
(1.38269e-08 5.4061e-09 8.78159e-08)
(-4.04011e-09 -8.30418e-09 2.79251e-07)
(-2.85579e-09 -3.9853e-09 2.49546e-07)
(-3.58205e-09 1.05608e-08 2.64352e-07)
(1.80606e-08 -1.07642e-08 2.24332e-07)
(2.75874e-09 7.40967e-10 4.92736e-08)
(-3.25508e-09 -6.23009e-09 1.48696e-07)
(-2.90036e-09 -6.43804e-09 1.54215e-07)
(-3.45762e-09 1.02409e-09 1.93658e-07)
(2.34576e-09 -3.83165e-09 1.80624e-07)
(-2.1589e-08 3.55502e-09 2.15671e-07)
(-9.10762e-10 6.64133e-09 2.63078e-07)
(-1.10294e-08 3.39437e-09 1.23574e-07)
(-1.18286e-08 -2.49622e-09 1.36721e-07)
(3.11716e-10 -2.98663e-09 2.72436e-07)
(2.59909e-09 -5.13146e-09 6.9743e-08)
(-1.44064e-10 -1.23993e-12 1.84532e-07)
(9.83926e-10 1.91116e-10 1.01778e-07)
(-6.14554e-09 5.05738e-10 1.94631e-07)
(1.66443e-09 -1.28245e-08 8.07595e-08)
(1.66697e-08 -2.85386e-09 2.76444e-07)