/*--------------------------------*- C++ -*----------------------------------*\
| =========                 |                                                 |
| \\      /  F ield         | OpenFOAM: The Open Source CFD Toolbox           |
|  \\    /   O peration     | Version:  2406                                  |
|   \\  /    A nd           | Website:  www.openfoam.com                      |
|    \\/     M anipulation  |                                                 |
\*---------------------------------------------------------------------------*/
FoamFile
{
    version     2.0;
    format      ascii;
    arch        "LSB;label=32;scalar=64";
    class       volVectorField;
    location    "8";
    object      momentum:angularVelocity;
}
// * * * * * * * * * * * * * * * * * * * * * * * * * * * * * * * * * * * * * //

dimensions      [0 1 -1 0 0 0 0];

internalField   nonuniform List<vector> 
59516
(
(-0.0103497 -0.00571812 0.146287)
(0.00803788 -0.00532981 0.126722)
(0.000926144 -0.00216368 0.131435)
(-0.00464587 0.00211689 0.135705)
(-0.00185831 -0.00334232 0.116559)
(-0.0115594 0.00340345 0.0979127)
(0.00221065 -0.00258725 0.148543)
(0.00255012 -0.00791419 0.143512)
(-0.00301323 0.00403071 0.129593)
(-0.00477047 -0.0060652 0.102769)
(0.000237452 -0.00353332 0.128263)
(-0.000909585 -0.0139054 0.112175)
(0.00558152 -0.00128325 0.166801)
(-0.00278967 -0.00364748 0.0472493)
(0.00650948 0.00912091 0.123007)
(0.00909509 -0.0086637 0.093869)
(-0.0003677 -0.000910152 0.13488)
(-0.00682524 0.00457027 0.124191)
(0.0135092 -0.00121301 0.149828)
(-0.00150804 0.000475501 0.142092)
(0.00315998 0.00169006 0.10994)
(0.00436706 -0.000534657 0.144959)
(0.00120145 -0.00134251 0.14631)
(-0.0048059 0.00615989 0.0733461)
(-0.00088408 0.00311108 0.141847)
(0.0133724 0.000583655 0.113311)
(-0.0067748 0.0104206 0.0818081)
(0.0122119 -0.0028863 0.0883583)
(0.0025645 0.00241001 0.121581)
(0.0027055 -0.00124599 0.0414934)
(-0.0222099 0.00508308 0.116718)
(0.018456 0.00273417 0.0913297)
(0.00241157 -0.00598647 0.131167)
(0.00350895 0.00698637 0.139663)
(0.00717434 -0.000468204 0.132667)
(0.00143639 0.00304174 0.152294)
(0.00765728 0.00616109 0.0346715)
(-0.00431231 -0.00477754 0.112563)
(0.00550526 0.0030634 0.150496)
(0.00159521 -0.00471793 0.145433)
(0.00291963 0.00211376 0.138101)
(0.000280643 -0.00340747 0.143568)
(0.00586568 0.000273601 0.147018)
(4.89368e-05 -0.0094938 0.140328)
(0.00146887 -0.000960516 0.148983)
(-0.0193047 0.000347249 0.0936459)
(-0.0059185 -0.00734021 0.150996)
(0.00083439 -0.000920146 0.138586)
(-0.009604 0.00336505 0.112866)
(0.000371988 -0.001495 0.130422)
(-0.0162854 -0.00322229 0.100731)
(0.00275817 -0.0030275 0.101359)
(0.00145836 0.00500685 0.151721)
(-0.000196385 -0.00350001 0.153444)
(0.0145427 0.00254669 0.0928128)
(0.012492 -0.00191669 0.155962)
(-0.00299253 -0.00121709 0.127384)
(0.0114394 -0.012335 0.108225)
(0.00511184 0.00163851 0.127615)
(0.00211115 0.000308176 0.133849)
(-0.00145588 -0.00288039 0.140477)
(0.00190808 0.00316842 0.0520298)
(0.00470762 -0.00202718 0.124692)
(0.00297847 0.00162136 0.132521)
(0.00356129 0.00167689 0.153224)
(0.000296565 0.00144012 0.128172)
(-0.000866569 0.00384994 0.0593825)
(0.00848587 -0.00115167 0.0942469)
(-0.0132559 0.00322945 0.123311)
(0.000529756 -0.00234097 0.138975)
(0.00308226 -0.000765077 0.08571)
(0.00113828 -0.000860046 0.129875)
(-0.00258199 0.00159891 0.0459329)
(-0.00190062 -0.000319887 0.141813)
(0.000369441 0.00282675 0.131918)
(-0.000287776 -0.000146117 0.14106)
(0.00208155 0.000261732 0.136034)
(-0.00189601 0.00303603 0.128039)
(-0.0136357 -0.000305705 0.0960087)
(-0.00102019 0.000167505 0.123412)
(0.0118925 0.00765729 0.084415)
(0.00298427 -0.00117288 0.1258)
(0.00153822 -0.000549926 0.134574)
(0.00499177 -0.00363676 0.0406271)
(0.00226998 -0.00252386 0.128568)
(-0.000727681 0.000166738 0.132469)
(0.00131161 -0.0102847 0.0607072)
(-0.00193511 -0.000390375 0.150199)
(0.0158611 -0.00136358 0.0975098)
(-0.00382256 -0.000572894 0.147565)
(-0.00331951 -0.00398647 0.127979)
(-0.00239026 -0.00316262 0.12668)
(0.00201066 -0.00137718 0.137575)
(-0.00103348 -0.00039174 0.12425)
(0.000658308 -0.0036588 0.124171)
(-0.00555121 0.000169804 0.109756)
(-0.00207693 -0.00138408 0.129737)
(-0.0110035 -0.00217073 0.109619)
(0.00608198 0.00381265 0.112909)
(-0.000494994 -0.00164118 0.132111)
(0.00363146 -0.00173839 0.0783242)
(0.0024211 -0.000521266 0.0568986)
(-0.00200279 -4.06172e-05 0.0583536)
(-0.00423866 0.00175286 0.105082)
(0.00220251 0.00157817 0.13248)
(-0.00193394 0.000433216 0.120729)
(-0.00964985 0.00150445 0.0839687)
(-0.00186556 0.00179949 0.122892)
(0.00491362 0.00670793 0.136507)
(0.00510186 -0.00153007 0.137767)
(-0.0108739 0.00315551 0.134557)
(-0.00456576 0.00429619 0.0735737)
(-0.00256788 0.00965631 0.125112)
(-0.0105567 0.0017323 0.143163)
(-0.00179302 0.000252803 0.138089)
(0.00987536 -0.00426021 0.134045)
(0.00975294 0.00511546 0.0899081)
(-0.00381258 0.00259361 0.135673)
(-0.00558823 -0.00501683 0.0567198)
(-0.00314589 -0.00139321 0.12852)
(0.00215451 -0.00127496 0.137727)
(0.00158557 0.000645177 0.129622)
(-1.24061e-05 -0.00078958 0.132079)
(0.00149057 0.0049401 0.128323)
(-0.0032618 0.00331765 0.138132)
(-0.00334648 0.00719409 0.129463)
(0.0070176 0.00110186 0.0716178)
(0.00243768 0.00389639 0.141547)
(-0.013001 -0.00209268 0.104455)
(0.00355645 -0.00122239 0.126001)
(0.00178738 -0.00350883 0.130464)
(0.00554988 0.0044991 0.146417)
(0.00370164 -0.000963548 0.0567576)
(0.00117475 0.00267548 0.143813)
(-0.00171439 0.00109227 0.155034)
(-0.00332581 0.00275042 0.139561)
(-0.00489558 0.00322502 0.141586)
(0.00416365 0.00138341 0.154993)
(0.00273841 0.00112367 0.0805781)
(0.00313562 -0.00794299 0.138718)
(-0.000750403 -0.00439557 0.094018)
(0.000402062 0.00224497 0.126128)
(-0.00573416 -0.00304233 0.0496122)
(0.00264559 4.22515e-05 0.123796)
(-0.000751989 0.00174119 0.129341)
(-0.0012113 0.00291918 0.138612)
(0.00386774 -0.000259118 0.148153)
(0.00494196 0.00392583 0.147864)
(-0.00347057 0.00194417 0.062183)
(0.00536959 -0.000913811 0.141816)
(0.000677116 -0.00409794 0.155134)
(0.00333662 -0.00396569 0.0757914)
(0.00439493 -0.00197403 0.143252)
(-0.000133884 0.000463929 0.135601)
(-0.00175135 0.00253499 0.143751)
(-0.00238566 -0.000255085 0.0488273)
(-0.00137301 0.00790882 0.140647)
(-0.0015432 0.00157279 0.151104)
(-6.84956e-05 0.00423509 0.142364)
(0.00227664 -0.00451472 0.0443432)
(0.00177057 -0.00235731 0.116501)
(-0.00123276 0.00541885 0.12416)
(0.0101962 -0.00648041 0.0742446)
(0.00112145 0.00140179 0.0582484)
(0.00680192 -0.000975758 0.150918)
(-0.00211557 0.00134215 0.139658)
(-0.00939721 -0.00240469 0.112849)
(-0.00205295 -0.000391227 0.132258)
(-0.00366817 0.000532494 0.0517658)
(0.000259669 0.00149305 0.128186)
(0.00508378 -0.00933192 0.127035)
(-0.000907862 0.00189158 0.100179)
(-0.000290572 0.0067915 0.11807)
(-0.000785463 -0.00373168 0.126764)
(0.00186486 0.000809406 0.0987499)
(-0.00345719 -0.00587224 0.153097)
(0.00246657 -0.00378467 0.13268)
(0.0069066 0.00304328 0.14807)
(-0.0110704 -0.00699931 0.128754)
(0.00643337 0.00447162 0.0939952)
(0.0032705 -0.0015022 0.143848)
(-0.00750884 -0.00127545 0.0742446)
(0.00744355 -0.0025713 0.0589888)
(0.00882317 0.00209971 0.1142)
(0.000703836 -0.00202235 0.131415)
(-0.00207772 0.0046581 0.0939542)
(-0.000710563 0.00148817 0.0765044)
(0.00458828 -0.00721396 0.0523032)
(0.00132505 -0.00111236 0.139409)
(0.00837146 0.00701932 0.139299)
(-0.00368857 -0.00286816 0.143283)
(-0.00577833 0.000729897 0.104458)
(-0.00254926 0.000991802 0.137643)
(0.00263896 0.000790732 0.105382)
(0.00457247 0.00065471 0.145552)
(-0.0061388 -0.000886358 0.0627768)
(-0.000570483 0.00402822 0.102152)
(-0.00702876 -0.00590104 0.0788965)
(-0.00454241 -0.00259643 0.135611)
(-3.85913e-05 -0.000574155 0.14707)
(-0.00925926 -0.002859 0.131603)
(0.00228377 -0.000336912 0.12179)
(0.00433135 0.00120315 0.154383)
(-0.00389923 0.00247166 0.0516392)
(-0.00410429 -0.00122775 0.137586)
(0.00676996 0.00140519 0.138027)
(0.000911178 0.000632424 0.135338)
(0.000298281 0.00141607 0.125744)
(0.00272839 -0.00310833 0.0466599)
(-0.00127105 0.00663595 0.15041)
(-0.00573501 0.000187861 0.0851206)
(0.00172046 -0.00566752 0.0545703)
(-0.00203415 0.001597 0.146394)
(-0.00248167 -0.00263268 0.108981)
(0.00521531 -0.00577408 0.15413)
(-0.000805724 0.00173597 0.130567)
(0.00112014 0.00283715 0.145095)
(-0.000742348 -0.00169289 0.135017)
(0.00320721 0.00732597 0.104481)
(0.00316096 -0.00198892 0.138636)
(0.000471868 0.00965316 0.114749)
(0.00404706 -0.000341546 0.142029)
(0.000100203 -0.00110353 0.124329)
(-0.00520655 -0.00472097 0.104061)
(-0.000525991 -0.00383901 0.129228)
(-0.000917226 0.000213211 0.127074)
(-0.00831635 -0.000649789 0.0637188)
(0.00885186 0.00178317 0.0977514)
(-0.00343073 0.00188047 0.12799)
(0.00848474 0.00441719 0.111026)
(0.000267272 0.0014036 0.138976)
(-0.00393069 0.00107084 0.124921)
(-0.00330197 0.00194306 0.13052)
(0.00471587 0.00154091 0.0613513)
(0.00647435 0.00851565 0.0608897)
(0.0052577 0.00542255 0.0803252)
(-0.00118883 0.00104256 0.116853)
(0.00650073 -0.000553691 0.132921)
(-0.000994204 0.00288927 0.137207)
(-0.00669091 -0.00308582 0.0860486)
(0.00240587 0.00189215 0.127262)
(-0.00536455 0.000992658 0.0475369)
(0.00910621 0.00214104 0.105628)
(0.00203968 0.00599811 0.0636301)
(0.00370177 -0.00102907 0.123074)
(0.00349206 0.00406426 0.145383)
(0.000119315 -0.00123191 0.136872)
(-0.00332883 -0.00557296 0.130886)
(0.00261377 0.000899482 0.137939)
(0.00119466 0.00356748 0.14516)
(0.00579413 0.000664729 0.145722)
(0.00341816 0.000192731 0.13676)
(0.0031105 0.000967237 0.125469)
(0.0030843 0.00102672 0.133314)
(0.00138647 0.000959192 0.138641)
(-0.0020102 -0.00194607 0.138633)
(0.00680073 -0.0009554 0.10549)
(0.00147528 0.00325749 0.136706)
(-0.00291957 -0.00423448 0.0927617)
(-0.0120479 -0.00251889 0.109954)
(-0.0069401 0.000227902 0.140277)
(0.00497145 0.00237925 0.128961)
(0.00514527 -0.00176659 0.150342)
(0.000509649 0.00105561 0.131866)
(0.00659395 0.00660542 0.127737)
(0.0076873 -0.00215147 0.106282)
(-0.00414322 -0.00429696 0.134523)
(0.01449 -0.00556344 0.128945)
(-0.00715441 0.009262 0.0986413)
(-0.00263437 0.00459532 0.0984962)
(0.00963302 0.00353655 0.135182)
(-0.000135894 0.000512402 0.128994)
(-0.00291826 0.00320353 0.146791)
(-0.00840058 -0.0033647 0.13305)
(0.000714119 0.00100845 0.130763)
(0.0016898 0.00881565 0.144861)
(0.00229494 0.00546276 0.0520235)
(0.000921743 0.00187119 0.13717)
(-0.00740539 0.00469551 0.0633285)
(-0.00464326 0.0011158 0.0823814)
(-0.00103476 0.000735732 0.130342)
(-0.000365203 -0.00251591 0.135906)
(-0.00172355 0.00889542 0.0598578)
(0.00571701 -0.0110766 0.152234)
(0.00158472 -0.00721439 0.15402)
(-0.000585239 0.00185763 0.129111)
(0.00397169 0.00110919 0.127908)
(-0.000105278 0.000401439 0.0636177)
(-0.000732098 -0.000361277 0.122032)
(-0.0015951 -0.000373744 0.116021)
(-0.000539639 -0.00115774 0.125736)
(-0.000403745 -0.00496198 0.142792)
(-0.00275926 -0.00167275 0.125197)
(-0.00748139 -0.00215643 0.134503)
(0.000258636 0.00213987 0.136872)
(0.00424765 -0.00481907 0.0719687)
(0.00129772 -0.00261187 0.131411)
(-0.00347874 0.000575482 0.141805)
(0.000734294 -0.00221037 0.131485)
(-0.000896714 -0.00214072 0.123604)
(0.000764256 -0.00702154 0.145045)
(-0.00362844 -0.0124324 0.0965676)
(-0.0016116 -0.00564174 0.0551878)
(-0.00548926 -0.00352746 0.0727803)
(-0.00168135 0.00211465 0.154721)
(0.00299417 0.000256976 0.0435611)
(0.00473796 0.00895079 0.124726)
(-0.00761828 -0.00844576 0.0993193)
(-0.00176361 -0.00246619 0.139798)
(-0.00304951 -0.00134727 0.133062)
(-0.00280798 -0.00217085 0.140614)
(-0.00257971 -0.00868874 0.111525)
(-0.00196129 -0.000542155 0.134362)
(0.00810025 0.00461329 0.0935881)
(-0.00996607 0.00922312 0.103712)
(-0.00142313 -0.0034366 0.123099)
(-0.00105502 0.0032428 0.146858)
(-0.0085878 0.000250072 0.106379)
(0.00333512 -0.00765931 0.126578)
(0.000594477 -0.00421143 0.0838737)
(-0.00219085 -0.00423687 0.115771)
(-0.00176129 -0.00430733 0.150492)
(-5.02001e-05 -0.00044659 0.125837)
(-0.00324195 -0.00299524 0.139769)
(-0.00269789 0.00323891 0.134868)
(-0.00158612 -0.00365905 0.142324)
(0.00684872 -0.00808796 0.131419)
(0.000193604 0.000868775 0.137982)
(-0.000747724 0.00303035 0.130292)
(-0.00145829 -0.0037984 0.131879)
(0.00287019 -0.00044213 0.13887)
(0.00276228 0.00643266 0.109817)
(0.00480828 0.00581073 0.0555615)
(-0.00150937 -0.00439716 0.13623)
(0.00199216 0.00097508 0.0875166)
(0.0101803 0.00577772 0.0730814)
(-1.14506e-05 0.00319339 0.135886)
(-0.00134319 0.00497146 0.131719)
(0.000691356 0.0133552 0.104632)
(0.00032054 8.48818e-05 0.134894)
(0.00227449 -0.00221762 0.132301)
(-0.000511326 0.00157063 0.129168)
(0.00113093 -0.00125523 0.133377)
(-0.00600463 0.00243237 0.0703477)
(-0.00222755 -0.0019313 0.139456)
(0.00247082 0.00169217 0.126552)
(0.00264266 0.000535911 0.114906)
(0.00183486 -0.0013644 0.127347)
(-0.000740924 0.0056742 0.128795)
(0.00120842 -0.000314522 0.136844)
(0.00520191 -0.00169389 0.136176)
(0.00425187 -0.00155287 0.131092)
(9.56574e-05 -0.00511777 0.128026)
(0.00257628 -0.00487644 0.100172)
(-0.00415745 0.013358 0.0714277)
(-0.00526285 -0.0110647 0.0632469)
(-0.00505783 0.00143542 0.144903)
(-0.0101598 -0.00536847 0.131664)
(-0.0165262 6.53891e-05 0.102413)
(0.00790211 -0.00545054 0.123994)
(0.00148792 0.00266573 0.137807)
(-0.00603995 -0.00244985 0.151728)
(0.000804408 0.00078425 0.122624)
(-0.00117113 0.00507287 0.147649)
(-0.00366244 0.0023319 0.148802)
(-0.00229622 -0.00183124 0.131998)
(-0.00224603 -0.00100789 0.126425)
(-0.00103829 0.00367146 0.0740439)
(-0.0250571 -0.00189708 0.119306)
(0.00706804 0.00503501 0.113263)
(0.00818094 0.00704061 0.0782)
(-0.0143665 0.00121323 0.0929084)
(-0.00066026 -0.000145204 0.127817)
(-0.000518964 -0.000601311 0.144445)
(-0.00174806 0.00068585 0.14133)
(0.00392433 -0.00641871 0.0547606)
(0.0053975 -0.000246827 0.138034)
(-0.0057522 -0.0105386 0.0904714)
(0.00159068 0.00400299 0.128763)
(-0.000373129 -0.00959391 0.0903992)
(-0.00815433 0.000622552 0.117205)
(-0.00133647 -0.00207078 0.151415)
(0.0029551 0.00112948 0.129025)
(0.00140958 -0.00161877 0.049958)
(0.00421571 -0.00352141 0.1073)
(0.00353024 -0.00223901 0.134588)
(0.000985906 -0.00312808 0.0554827)
(-0.0027682 -0.00346201 0.136071)
(0.00438003 -0.00613927 0.133788)
(0.00275399 -0.00442718 0.141261)
(0.00160645 -0.0093914 0.136815)
(-0.0039916 -0.00335855 0.109438)
(-0.00396913 -0.00183593 0.141369)
(-0.000680684 0.00112734 0.115356)
(-0.00299841 -0.00240828 0.131686)
(-0.00243586 0.0012 0.139604)
(-0.0201552 0.00439772 0.122926)
(-0.00485836 -0.00460908 0.104135)
(-0.00121313 0.000473814 0.132797)
(0.000121531 0.00071703 0.140303)
(0.00415471 -0.00893525 0.102128)
(-0.00313202 0.00279609 0.152903)
(-0.00354718 0.00183106 0.131502)
(0.00253336 0.000192107 0.136158)
(0.000582818 0.0011419 0.137256)
(-0.00336499 -0.00962861 0.101123)
(0.00125876 0.00114242 0.14052)
(0.0047117 0.000898048 0.149524)
(0.00301597 -7.24193e-06 0.141978)
(0.00127598 -0.000751404 0.141549)
(-0.0069772 -0.00332596 0.0455273)
(0.00293177 -0.00124838 0.0462537)
(-0.00113372 0.00441894 0.138201)
(-0.00180132 -0.00276063 0.128119)
(0.00232183 0.000360466 0.129436)
(0.00215137 0.002851 0.0767366)
(0.000956115 -0.00117979 0.1168)
(0.00187583 -0.00768385 0.157799)
(-0.00274804 0.00195197 0.118767)
(0.00201373 0.00032882 0.136336)
(0.000721729 -0.00459561 0.133246)
(0.00149993 -0.000864211 0.129066)
(0.00197213 -0.00222971 0.1316)
(0.00976623 -0.000857037 0.132124)
(-0.00367281 0.000414067 0.129274)
(0.000200357 0.00956391 0.107082)
(-0.00193938 0.000745126 0.131731)
(-0.00446511 -2.50456e-05 0.144677)
(-0.00346031 9.53756e-05 0.128828)
(0.000258854 0.000773664 0.126967)
(0.00125636 -0.00385469 0.148467)
(-0.0009761 0.00193014 0.139984)
(-0.00228942 0.00581457 0.0959293)
(-0.00569508 -0.0127029 0.0746269)
(-0.00143823 0.00592385 0.0543866)
(-0.000567946 0.00211495 0.124832)
(0.00309658 -6.27844e-05 0.132345)
(-0.000678762 0.00665403 0.136518)
(0.00570881 -0.00344918 0.13483)
(-0.00385585 0.00994198 0.0545003)
(0.0103805 -0.00772237 0.0583109)
(0.00206139 -0.000295587 0.137917)
(0.00210574 0.00557971 0.133962)
(-0.00148349 -0.000136105 0.133222)
(0.00217183 -0.00172224 0.148145)
(-0.000920521 -0.000186562 0.147445)
(0.00100281 0.00192528 0.126064)
(-0.00041551 0.000201394 0.147653)
(-0.00659765 -0.000853298 0.0642982)
(-0.00772953 -0.0036769 0.132258)
(-0.00198798 -0.000825809 0.10261)
(-0.00726883 0.001004 0.0926856)
(0.000405163 8.49109e-05 0.131631)
(0.007343 -0.0131708 0.136726)
(0.000598571 0.00125 0.145532)
(0.00553207 0.00758815 0.0577781)
(0.00290241 -0.00197417 0.142892)
(0.00156231 0.00337939 0.132489)
(-0.00400418 -0.000673463 0.126984)
(-0.00586317 -0.0015773 0.130518)
(-0.000675362 -0.00276407 0.127113)
(-0.00314967 -0.000500146 0.126969)
(0.00680431 3.75033e-05 0.128558)
(0.00164693 -0.00102356 0.128123)
(0.00576515 0.00984942 0.138101)
(0.000667281 -0.000447853 0.130878)
(-0.00162761 -0.0018032 0.143757)
(0.00747612 -0.00826627 0.0464376)
(-0.00242537 -0.00147625 0.132133)
(0.00155027 0.00422283 0.135373)
(0.00436022 -0.00477083 0.0913051)
(0.00206127 0.0084734 0.135787)
(-3.38107e-05 0.00313057 0.13724)
(-0.00132872 -0.000434806 0.148745)
(-0.000256985 0.00476204 0.139233)
(7.64797e-05 0.00554637 0.0410753)
(-0.00483804 0.00244687 0.133335)
(0.00225622 0.00302242 0.136587)
(-0.00121466 0.00354721 0.134534)
(0.00318393 -0.0113439 0.141301)
(0.005416 -0.00100769 0.0864192)
(-0.00107844 -0.00610784 0.138684)
(-0.00115406 0.0110303 0.057799)
(-0.000704187 -0.00109078 0.130068)
(-0.0124199 0.00431711 0.101407)
(0.00104753 -0.00391294 0.129233)
(-0.000778463 0.00706105 0.110436)
(0.00593655 0.00029742 0.124615)
(0.00880402 -0.00127916 0.128933)
(-0.00746381 -0.00228399 0.0727077)
(0.000942925 -0.00221625 0.127678)
(5.75825e-05 0.00178843 0.12436)
(-0.00827167 0.00158302 0.0552426)
(0.00293011 -0.00381337 0.129207)
(-0.00159429 -0.0022155 0.119319)
(0.0018402 0.0037171 0.0813321)
(-0.00534096 -0.00507483 0.113491)
(0.00320077 0.00492582 0.110335)
(-0.0027961 -0.00263602 0.126974)
(0.000172474 -0.00045417 0.124337)
(0.00361013 0.00289313 0.0606092)
(-0.00943672 -0.00869664 0.102114)
(-0.00768434 0.00666908 0.10262)
(-0.004266 0.00147828 0.132131)
(0.00130949 -0.00094621 0.124055)
(0.00215906 0.00175829 0.0492559)
(-0.000326275 -0.000145162 0.143241)
(-0.000334148 -0.000712873 0.138077)
(-0.00291912 -0.00100392 0.129288)
(-0.00260279 -0.00160983 0.0892354)
(0.000936798 0.00156036 0.143702)
(0.00112129 0.00687605 0.053285)
(-0.00369328 0.000926406 0.13725)
(0.000952579 0.000685986 0.0625192)
(-0.00961013 0.00823207 0.114174)
(0.000564695 6.86473e-06 0.131566)
(0.00158747 -0.00156695 0.115622)
(-0.00030789 -0.00313375 0.0542144)
(-0.00873325 0.00700728 0.0826901)
(0.0108085 -0.00391057 0.0938246)
(-0.0139646 0.00268086 0.114735)
(0.00201064 1.77985e-05 0.145222)
(0.0113146 -0.00364 0.0752221)
(-0.00365615 0.00138789 0.111306)
(-0.00350036 0.00084504 0.125482)
(-0.00212089 0.00325464 0.125149)
(-0.00792135 0.00538512 0.0696941)
(-0.00409326 0.0075799 0.15599)
(-0.00997549 0.00126053 0.119569)
(0.00147413 -0.00220923 0.130147)
(-0.000156788 0.00111169 0.10745)
(-0.00245789 0.00119057 0.123963)
(-0.0158001 0.00717205 0.11356)
(0.0017408 -0.0043346 0.123914)
(-0.00498379 -0.000708355 0.128505)
(-0.00619849 0.00257032 0.112298)
(0.00398563 -0.000726576 0.128734)
(0.00756285 -0.00329691 0.0977694)
(0.0012868 -0.00273666 0.042763)
(0.00364214 -0.00217212 0.136267)
(-0.0045759 -0.00473033 0.12751)
(-0.00200898 0.00264702 0.139216)
(-0.00444677 0.00535682 0.142808)
(0.00167921 -0.00104671 0.134846)
(0.000203459 0.00841271 0.119828)
(0.00345007 -0.00150729 0.138553)
(-0.00662372 0.00455256 0.114458)
(-0.0038024 0.00181727 0.126838)
(0.00576044 -0.00569503 0.144125)
(0.00186857 0.00805095 0.0757308)
(0.00193798 0.00223383 0.153883)
(0.00986059 0.0057721 0.100445)
(-0.00501274 -0.00867897 0.0676538)
(0.00102162 0.00315429 0.146264)
(0.0031163 -0.00328835 0.0920646)
(-0.00075813 -0.000519231 0.132757)
(0.00169275 0.00102355 0.129388)
(-0.00182236 -0.000399139 0.150129)
(-0.0189561 -0.000853616 0.0886954)
(0.000580581 0.000452194 0.138036)
(0.00459683 -0.000609961 0.129258)
(-0.00207127 0.00362242 0.135285)
(0.00411484 0.0013736 0.131639)
(-0.00233835 0.00221204 0.133763)
(-0.00160796 -0.00456629 0.128188)
(-0.00858436 -0.00132231 0.0947485)
(-0.00568388 -0.00144927 0.098209)
(-0.00470455 0.0025668 0.122946)
(1.3504e-05 -0.00287201 0.137309)
(-0.00784949 -0.00822342 0.062512)
(-0.000202921 -0.0021002 0.130395)
(-2.30172e-05 0.00492595 0.138902)
(-0.00181139 0.00395488 0.138356)
(-0.0016458 0.00285086 0.136577)
(0.00611922 0.00608925 0.153346)
(-0.00262467 0.00268409 0.0582816)
(0.0031116 0.00330545 0.137243)
(0.00322266 0.00462864 0.138244)
(-0.000482202 -0.00120496 0.128265)
(-0.00161146 -0.00678103 0.13493)
(-0.00679947 0.00165973 0.0713779)
(0.000825644 0.000319669 0.12993)
(-0.00626865 0.00142388 0.131056)
(-0.00417368 -0.00396221 0.141964)
(0.000616668 0.000673211 0.132002)
(-0.000867542 0.00793308 0.125344)
(-0.00169085 -0.00270155 0.0436474)
(0.0004112 -0.00215348 0.0514851)
(-0.00352353 0.000717878 0.123072)
(-0.000673056 -7.57321e-05 0.127315)
(-0.00447908 0.000805754 0.131106)
(-0.00654932 -0.00151215 0.129886)
(-0.00752882 0.00565343 0.132815)
(-0.00157503 -0.00206081 0.134549)
(-0.000407204 0.00326373 0.136332)
(0.000283009 0.000457551 0.0575555)
(-0.00290591 -0.00036582 0.119883)
(-5.92546e-05 0.00390809 0.138936)
(0.00617159 -0.000420952 0.0873555)
(0.00137294 -0.00242146 0.103424)
(0.00128727 -0.000731506 0.157504)
(-0.00135717 -0.00120333 0.13651)
(0.00215447 0.000318073 0.134491)
(0.00303347 -0.000213242 0.144922)
(-0.003826 0.00397713 0.143438)
(0.00130771 0.0021456 0.131241)
(0.0039592 -0.00811007 0.138221)
(-0.00202719 -0.00217046 0.141696)
(0.000609482 -0.00328715 0.124858)
(0.00267557 -0.00305384 0.129403)
(-0.00246824 -0.00533574 0.127847)
(0.000164194 -0.00980735 0.0794824)
(0.00265335 0.000814731 0.139107)
(0.00550745 0.0019701 0.0693934)
(-0.0159471 0.00244951 0.107555)
(-0.00527991 -0.0120543 0.104769)
(-0.00294262 -0.00230772 0.12585)
(-0.00601229 -0.00291648 0.139766)
(-0.0100125 0.00572674 0.140182)
(0.00167726 -0.0024025 0.121088)
(0.00159873 -0.00411393 0.134578)
(-0.00257248 -0.00272127 0.141528)
(0.00105897 0.00161256 0.124939)
(0.00930088 0.00650761 0.0751549)
(-0.00462349 -0.000618367 0.0989404)
(-0.00802814 0.00322167 0.112698)
(0.000652201 0.00105982 0.124816)
(0.00282093 0.00274131 0.125297)
(0.00276897 -0.00166011 0.144752)
(0.00169955 0.000558909 0.12482)
(0.0110493 0.0083073 0.144437)
(0.0035496 0.00498336 0.0764195)
(-0.0105546 0.00942518 0.0985941)
(0.00840692 0.00349419 0.0577049)
(0.00509977 0.00367257 0.0556086)
(-0.00196676 0.000418419 0.0700095)
(-0.00174536 0.00123164 0.148902)
(-0.000756419 0.00339251 0.132793)
(-0.000945884 -0.00118899 0.055214)
(1.66121e-05 -0.00626739 0.0512153)
(0.00151147 -0.00210621 0.132014)
(-0.00808499 0.00625345 0.115655)
(0.00411671 -0.000949407 0.0831811)
(0.00109037 -0.000925747 0.138688)
(0.00288261 -0.00218904 0.117753)
(-0.000936593 -0.000947097 0.139332)
(-0.00688064 -0.00559981 0.0960695)
(-0.00896176 -0.00719098 0.102724)
(-0.00192336 -0.000399962 0.135329)
(-0.000281623 -0.00255269 0.130539)
(0.00096969 -0.00225482 0.142584)
(-0.00119953 -0.0147941 0.0645653)
(0.000465245 -0.00234713 0.0561569)
(-0.0220418 -0.00731779 0.108384)
(0.00621805 0.00436226 0.0563493)
(0.00237575 0.00583673 0.151216)
(0.0102034 0.00308917 0.0605866)
(-0.00166377 0.0046257 0.138531)
(-0.00546091 0.00340514 0.125813)
(0.00079244 -0.000390138 0.136441)
(0.0136228 0.000673993 0.0944687)
(-0.00490109 0.00440888 0.130541)
(-0.000241993 -0.00332811 0.0877589)
(-0.00369081 0.00139312 0.0627478)
(0.000882596 0.000792572 0.127527)
(0.00414826 0.00272226 0.0414864)
(-0.000188871 -0.00146895 0.127687)
(0.00913898 -0.00402946 0.101083)
(-0.00178424 -0.00243191 0.134361)
(0.00214281 -0.0051662 0.135831)
(-0.00203249 0.00191541 0.0456472)
(0.00885582 -0.00486661 0.118741)
(0.00385523 0.00489687 0.12816)
(0.0110313 -0.0075606 0.0663886)
(0.00123959 -0.00118484 0.127344)
(0.00485222 -0.00594216 0.105272)
(-0.000117621 0.00310224 0.1471)
(0.0013291 0.000977107 0.127891)
(-0.00745263 0.000602525 0.0809728)
(0.00661947 0.000843157 0.0498474)
(-0.0128804 0.0058554 0.106952)
(-0.0136606 5.10902e-05 0.112242)
(-0.0098144 -0.00190399 0.134767)
(-0.00321471 0.00159638 0.0966698)
(0.0042165 0.00121664 0.134912)
(0.00238916 -0.00201063 0.0672553)
(0.0010657 0.000819617 0.128435)
(0.00634282 0.00359956 0.0573984)
(-0.00299273 -0.00156597 0.136458)
(0.00356031 -0.00293165 0.142579)
(0.00193021 0.00120381 0.122781)
(-0.00133161 0.00298216 0.0380173)
(0.00282319 0.00259305 0.147586)
(-0.00272464 6.24127e-05 0.140228)
(-0.00062244 -0.00059432 0.145588)
(-0.00272399 -0.00279054 0.105844)
(-0.0139067 0.00353852 0.11024)
(-0.00303044 0.00206398 0.138606)
(-0.0111979 0.00677546 0.0954842)
(-0.00227427 -0.0036722 0.130575)
(-0.0184759 -0.00322449 0.10414)
(0.0032163 0.00116699 0.133957)
(0.00571427 0.00783949 0.0652969)
(0.000824168 -0.00251455 0.0969747)
(-0.00154414 0.00126848 0.128798)
(-0.00290114 -0.000691963 0.138963)
(0.00701406 -0.0148124 0.0705908)
(-0.000425291 -0.00197918 0.141808)
(-0.0086184 0.0105545 0.115453)
(0.000314505 -0.00755935 0.0599519)
(-0.00186329 -0.000409662 0.130557)
(-0.0036076 0.00171976 0.102172)
(-0.00602098 0.00136587 0.155347)
(-0.00281732 -0.000275946 0.129384)
(0.000203225 -0.00101551 0.129409)
(0.00216016 0.000194384 0.131498)
(0.00260731 -0.00544889 0.139568)
(-0.00568089 -0.00344636 0.104164)
(0.00127209 -0.00452971 0.0795316)
(-0.000841623 -0.000326148 0.138425)
(-0.0107059 -0.00183389 0.107033)
(0.00122605 0.00462048 0.136973)
(-0.00141714 -0.00232205 0.139015)
(0.00389783 0.00539712 0.125896)
(0.000852383 -0.000547482 0.138167)
(6.60349e-05 -0.000577393 0.129252)
(0.00771975 0.00209905 0.137448)
(0.0068745 0.00678196 0.150437)
(0.00490389 -0.00766028 0.0774314)
(0.00774122 0.00113537 0.127567)
(0.0142977 0.00559016 0.0908057)
(-0.00194816 -0.00400431 0.134656)
(-0.00150734 -0.00210352 0.131715)
(-0.00198414 0.00584973 0.146428)
(0.0108193 -0.00644839 0.134388)
(0.00305025 0.000819264 0.0544803)
(-0.0023818 -0.00455866 0.108803)
(-0.00212374 -0.00471414 0.112922)
(-0.00225617 0.000668237 0.126366)
(0.00171678 -0.00280424 0.132192)
(-0.01026 0.00168949 0.102496)
(-0.000467844 0.00341155 0.135139)
(-0.0106632 0.00328168 0.119472)
(-0.00880897 -0.00185898 0.101818)
(0.000168526 -0.00161469 0.14729)
(0.00232742 -0.0045951 0.0624532)
(-0.000102692 -8.83851e-07 0.131539)
(0.000862426 0.000167516 0.0892104)
(-0.0041319 0.000340028 0.130859)
(0.00138369 -0.0106614 0.0671377)
(0.0079488 -0.00136084 0.13182)
(-0.00437532 0.000628383 0.100523)
(0.000340897 0.000811419 0.131213)
(0.0038591 -0.00311965 0.145865)
(0.00133007 -0.00332384 0.125891)
(0.00173602 0.00102164 0.131645)
(0.00365634 -0.000419313 0.126851)
(-0.00137619 0.00299569 0.0618991)
(-0.00270263 0.00454644 0.0914153)
(0.00203607 -0.00429066 0.0552084)
(0.00244208 0.00420746 0.131945)
(0.000411529 0.000800937 0.130031)
(0.00436133 0.00310638 0.129589)
(0.00200667 -0.000100134 0.141008)
(0.0111455 -0.00395825 0.0468574)
(0.00474216 -0.00273985 0.145627)
(0.00496667 -0.00568862 0.123094)
(-0.000147628 -0.000654039 0.13142)
(-0.00365322 0.011063 0.136)
(-0.00121169 0.000807319 0.13112)
(0.00353955 0.00433812 0.138542)
(0.00203569 0.00361996 0.125743)
(0.00181316 -0.00141433 0.0441761)
(-0.0018007 -0.00164241 0.118875)
(0.00153144 0.00199396 0.126196)
(-0.00247708 0.00727575 0.071729)
(-0.00735034 0.00500653 0.0888301)
(0.0093932 0.00614712 0.113589)
(0.000372156 -0.00289754 0.0510506)
(-0.00665805 0.00208114 0.134137)
(-0.000801409 -5.01334e-05 0.123294)
(0.00233833 0.00794572 0.111814)
(-0.000373002 -0.00129832 0.0425383)
(0.00231461 0.00490368 0.138957)
(-0.00220647 -0.00137912 0.0659703)
(0.00140239 0.00328739 0.138589)
(-0.00431398 -0.000342343 0.130848)
(-0.00176371 0.00018879 0.132979)
(0.00212093 -0.00252746 0.127362)
(0.00400229 -0.00087799 0.136206)
(-0.00290823 0.00015724 0.129122)
(-0.00727363 0.00442612 0.152598)
(0.00592439 0.000500988 0.0916437)
(0.000849059 0.0018401 0.134656)
(0.00520149 -0.0028513 0.145873)
(-0.00654577 0.00366698 0.122805)
(0.00438032 -0.0098972 0.137692)
(-0.000587597 0.000358775 0.132767)
(0.00286994 -0.00187983 0.150049)
(0.0166183 0.00754251 0.126769)
(0.00301741 0.0030641 0.14353)
(-0.00384017 0.00054918 0.0694814)
(0.00338182 -0.00428113 0.139755)
(-0.00416483 0.00740411 0.130688)
(0.0044643 -0.000907389 0.109291)
(-0.000283227 0.000833421 0.132437)
(-0.0207579 -0.00366139 0.119431)
(0.00346455 -0.00130564 0.146041)
(-0.000124069 -0.00557275 0.0723058)
(0.0106602 0.00303185 0.055936)
(-0.0110285 -0.00561889 0.115267)
(-0.00657781 0.00174691 0.0497104)
(-0.00135882 0.000925644 0.14088)
(-0.000499044 0.00394394 0.124689)
(-0.00314086 -0.0030503 0.137179)
(-0.00656195 0.00851411 0.144127)
(-0.00259209 0.00221574 0.119655)
(-0.00283858 0.00255379 0.121057)
(-0.00291077 0.0103021 0.0479004)
(0.00328449 0.00105166 0.121678)
(-0.00474151 0.0065224 0.129389)
(0.00249023 0.00392413 0.0936579)
(-0.0048918 -0.00216516 0.0497617)
(0.000543006 -0.00645291 0.12961)
(0.00164932 -0.00578662 0.152486)
(-0.00283118 0.00323451 0.0638161)
(-0.00396955 0.00625318 0.143597)
(-0.00698745 -0.00678648 0.0481314)
(-0.00190311 -0.000115209 0.132055)
(0.00271709 0.000426106 0.139956)
(-0.00150033 -0.00361491 0.135856)
(0.00208317 -0.000593918 0.13603)
(0.0012168 -0.000252467 0.135948)
(-0.00861796 -0.00138718 0.141575)
(0.0013541 0.00172927 0.127074)
(0.00106483 -0.00361961 0.0381674)
(0.000904029 -0.00969708 0.0605964)
(0.00956019 -0.0028257 0.141373)
(-0.00717399 0.00500515 0.125639)
(8.92023e-05 -0.00690386 0.043513)
(0.000873527 -0.00194175 0.124865)
(-0.00244325 -0.00404727 0.144713)
(0.00102505 -0.000734085 0.135353)
(-0.00400014 0.00078688 0.126496)
(-0.00516721 -0.008079 0.127711)
(-0.00123888 0.00221421 0.131146)
(-0.00248694 -0.00282382 0.135574)
(0.00350965 -0.00553591 0.138318)
(-0.000124053 -0.00137731 0.086164)