/*--------------------------------*- C++ -*----------------------------------*\
| =========                 |                                                 |
| \\      /  F ield         | OpenFOAM: The Open Source CFD Toolbox           |
|  \\    /   O peration     | Version:  2406                                  |
|   \\  /    A nd           | Website:  www.openfoam.com                      |
|    \\/     M anipulation  |                                                 |
\*---------------------------------------------------------------------------*/
FoamFile
{
    version     2.0;
    format      ascii;
    arch        "LSB;label=32;scalar=64";
    class       volScalarField;
    location    "8";
    object      nut;
}
// * * * * * * * * * * * * * * * * * * * * * * * * * * * * * * * * * * * * * //

dimensions      [0 2 -1 0 0 0 0];

internalField   nonuniform List<scalar> 
59516
(
0.000384278
0.000397418
0.00062642
0.000937719
0.00152115
0.00018018
0.000843929
0.000417162
0.000551142
0.000234096
0.0017959
0.000183054
0.000510901
0.000248057
0.000222968
0.000184625
0.00205806
0.000206695
0.000536588
0.00142728
0.000255576
0.00125707
0.0013004
0.00021768
0.00128742
0.000220304
0.000225568
0.000259969
0.000249589
0.000217564
0.000347102
0.000247729
0.000953645
0.000592553
0.00105108
0.00109167
0.000208581
0.000184677
0.000271286
0.00116131
0.000360993
0.00159107
0.00115569
0.000454928
0.0011373
0.000180472
0.000805454
0.00140795
0.00130154
0.00155012
0.000706923
0.000243915
0.000585043
0.000704073
0.000280739
0.000683641
0.00185784
0.00025053
0.00172104
0.00110287
0.00126603
0.00021485
0.00144994
0.00160632
0.000634575
0.0013735
0.000290117
0.000221187
0.000746885
0.00103974
0.000306303
0.0019018
0.000254576
0.000883877
0.00145481
0.00151458
0.00158943
0.00113214
0.000238742
0.0013084
0.000223196
0.00128346
0.00103143
0.000236046
0.00128673
0.00159105
0.000224953
0.00130309
0.000188852
0.000337045
0.00176508
0.000963895
0.00188573
0.00127361
0.00155677
0.00151438
0.00129138
0.000180161
0.000197942
0.00123853
0.000251465
0.000266233
0.000258986
0.000185461
0.00094013
0.00107807
0.000227033
0.000495006
0.000414492
0.000252356
0.000841634
0.000271739
0.000236215
0.000471012
0.00131056
0.000381373
0.000192356
0.00106876
0.000225113
0.00118178
0.00186464
0.0014433
0.00136782
0.00187376
0.00107185
0.000240419
0.000275163
0.00100305
0.000300797
0.00169918
0.00187673
0.000508665
0.000229215
0.00114855
0.000338002
0.000626711
0.000334807
0.00072177
0.000243357
0.00036345
0.000235613
0.00185118
0.000205571
0.000924733
0.00194674
0.000972372
0.00111047
0.000561836
0.000256148
0.000525971
0.000339975
0.00021893
0.00144499
0.00121357
0.000318847
0.000240041
0.000635473
0.000648681
0.000246048
0.000232451
0.000300035
0.00028882
0.00021283
0.000280155
0.000359532
0.00139811
0.000232578
0.00193708
0.000214451
0.000926804
0.000252118
0.000166034
0.000235744
0.0010725
0.00020783
0.000839087
0.00163385
0.00123806
0.000246349
0.000194986
0.00131209
0.000192085
0.000299001
0.00019189
0.00195072
0.000175907
0.000194172
0.000225087
0.000649416
0.000351688
0.000948021
0.000177673
0.00148846
0.000162961
0.00131759
0.000177463
0.000184049
0.000202331
0.000587913
0.00121776
0.000305384
0.00184323
0.000383347
0.000206815
0.000822652
0.00101394
0.0019057
0.00139969
0.000229767
0.000539691
0.000188598
0.000262493
0.00120874
0.000201992
0.000611546
0.00156204
0.000954421
0.00148191
0.000197773
0.00155861
0.000193231
0.000526812
0.00135993
0.000257135
0.00165613
0.00177789
0.00025274
0.000234672
0.00179318
0.000180185
0.00185804
0.00142375
0.00199532
0.000246993
0.000197439
0.000189514
0.000178395
0.000383955
0.0014597
0.000188251
0.0017623
0.000236557
0.000185434
0.000260395
0.0020377
0.000272057
0.00101737
0.000251051
0.00175173
0.000507293
0.00132081
0.00104575
0.0017612
0.00112809
0.00104465
0.00127536
0.000177153
0.00140977
0.000222693
0.000252627
0.000907856
0.0015798
0.00056527
0.00191262
0.000403441
0.00016071
0.00153545
0.000279506
0.000318312
0.000158743
0.000370981
0.00171714
0.000316994
0.000342527
0.00154159
0.000270865
0.0002206
0.00160248
0.000242987
0.000246957
0.00183713
0.000996195
0.000267793
0.000652661
0.000760262
0.00158864
0.0018078
0.0002538
0.00212709
0.00205121
0.00215868
0.000955295
0.00123076
0.000309755
0.00179046
0.000280512
0.00144673
0.00107371
0.00200925
0.00175456
0.000506896
0.000173554
0.000223766
0.000237937
0.00155815
0.000236337
0.000273363
0.000202439
0.00164167
0.00179936
0.00139406
0.000186043
0.000384365
0.000234887
0.000179251
0.00174015
0.000324176
0.00136029
0.00027678
0.000207223
0.000260855
0.000438534
0.00201921
0.00169475
0.00178151
0.00143069
0.000348667
0.000800351
0.00191544
0.0015904
0.00162563
0.000199708
0.000261738
0.00137891
0.00023445
0.000212823
0.00166179
0.00108971
0.000195889
0.00185233
0.00152914
0.00186454
0.00177459
0.000211947
0.00143336
0.0019787
0.000187862
0.00153352
0.00192114
0.000989356
0.000751051
0.00149538
0.0012443
0.000175898
0.000205363
0.000220853
0.000330712
0.000242517
0.000314207
0.000235412
0.000576822
0.000722431
0.00202895
0.00147761
0.000864363
0.00139526
0.00127234
0.000250916
0.000500419
0.000196569
0.000207493
0.000244579
0.00167887
0.000316421
0.001342
0.000222747
0.000861433
0.000229952
0.00145075
0.000151346
0.000213552
0.000418192
0.00183616
0.000250266
0.000204154
0.000899442
0.000225537
0.000783684
0.000617248
0.000849065
0.00032277
0.000356258
0.00144522
0.000193837
0.0018981
0.000433079
0.000228709
0.000207823
0.00200241
0.00194857
0.00017663
0.000847719
0.000367954
0.00182586
0.00176375
0.000256141
0.000930399
0.00115366
0.00109959
0.00158426
0.000245873
0.000243371
0.000838843
0.00185273
0.0017783
0.000220291
0.00177054
0.000385773
0.00168366
0.00154255
0.0019197
0.00184948
0.00153205
0.000326924
0.00203579
0.000214592
0.00161689
0.000472203
0.00146195
0.00171396
0.00115632
0.00124702
0.000204032
0.000220906
0.000225251
0.00183021
0.00203325
0.00109339
0.000803988
0.000192174
0.000242562
0.000627231
0.00143193
0.00196824
0.00154988
0.000996091
0.00190018
0.000997904
0.0002449
0.000694716
0.0002175
0.000291654
0.00141451
0.000289231
0.000932068
0.000239935
0.00166382
0.00198038
0.00191573
0.000260452
0.00136079
0.00168736
0.000643798
0.00179789
0.000321606
0.00161557
0.00125612
0.000226312
0.00184143
0.000646122
0.000241821
0.000295425
0.00158475
0.000799907
0.000247634
0.000230939
0.00137503
0.00069252
0.00144908
0.000663096
0.000197249
0.0010596
0.0002592
0.00153524
0.000780617
0.00176227
0.000275949
0.000492839
0.000335548
0.000178026
0.00167429
0.00194821
0.000256109
0.00142296
0.00204799
0.000261117
0.00022228
0.000192373
0.00159782
0.00197918
0.000296577
0.000177965
0.000168814
0.000590481
0.00204186
0.000246527
0.00162859
0.00136896
0.00184131
0.000233387
0.00167501
0.000232856
0.00158936
0.000236422
0.000186684
0.00141801
0.000195172
0.00024845
0.000232882
0.000256744
0.000190244
0.00136354
0.000185248
0.000199599
0.00140455
0.00182057
0.000241104
0.00042324
0.000183722
0.00163961
0.000181377
0.00189361
0.000197108
0.000743196
0.00194708
0.000231892
0.00160477
0.000246724
0.000229536
0.0013049
0.00189883
0.00099485
0.000758209
0.0015251
0.000237071
0.00159792
0.000205674
0.00207594
0.000651349
0.000262189
0.00117634
0.000261341
0.000257493
0.0012939
0.00020991
0.000938523
0.00184469
0.000774981
0.000161205
0.00184513
0.000256581
0.00179698
0.0017064
0.00170558
0.00181876
0.000210588
0.000214039
0.00184052
0.00167191
0.000239766
0.00170452
0.00193426
0.00179681
0.00177112
0.000513159
0.000227359
0.00197904
0.00046462
0.00150932
0.000358177
0.000257498
0.00150532
0.000317138
0.000905564
0.00149419
0.00106513
0.000190252
0.000245858
0.00177055
0.00163804
0.00173437
0.00139514
0.000257467
0.00131026
0.00157768
0.000215521
0.00191119
0.00114134
0.000244386
0.000202339
0.000905758
0.00107296
0.000921444
0.000709361
0.000419534
0.00200705
0.000334844
0.00180634
0.00179209
0.00171498
0.001874
0.000248579
0.00140463
0.000203692
0.000235301
0.000220468
0.00175931
0.000795171
0.000402371
0.00197179
0.00181225
0.00113792
0.00171404
0.0002088
0.00173179
0.00103189
0.00216045
0.000683181
0.000976581
0.00163639
0.000549921
0.000196255
0.000178329
0.000241334
0.000256431
0.000281244
0.000821768
0.000947741
0.000252049
0.000244353
0.00202775
0.000309921
0.000207044
0.00136197
0.000443759
0.00102963
0.000255709
0.000174528
0.000640854
0.00169705
0.0012056
0.000200604
0.000231855
0.000414596
0.000278844
0.000889139
0.000268494
0.000429946
0.00201476
0.00179498
0.000230436
0.000353425
0.000187571
0.000269247
0.00181618
0.000222421
0.00183872
0.000294223
0.00154907
0.00107206
0.000235875
0.000184173
0.0013143
0.000218987
0.00152356
0.000182607
0.000435472
0.00202027
0.000208595
0.000245375
0.000238027
0.0007697
0.000414062
0.000176904
0.000180237
0.000197236
0.00187875
0.000231439
0.00171695
0.000949751
0.00169668
0.000225357
0.00114003
0.000262434
0.00135342
0.000210601
0.00099095
0.0013352
0.000202338
0.00201373
0.000584705
0.000674259
0.000198753
0.000274757
0.00198614
0.000894885
0.000201307
0.000524668
0.000203222
0.000240715
0.00195763
0.00146795
0.0008203
0.00179953
0.00181363
0.00187108
0.000666732
0.000236445
0.000217673
0.00186288
0.00124454
0.000574317
0.000848067
0.000196167
0.00106391
0.00160589
0.00034472
0.000361296
0.000295495
0.000309802
0.000250123
0.0014192
0.00176659
0.000260079
0.000348154
0.000216644
0.00022719
0.000200251
0.00178397
0.00194056
0.00140912
0.00139881
0.000231202
0.000837835
0.000909109
0.000273323
0.00184944
0.000171168
0.000962414
0.000276493
0.00140594
0.00157554
0.00133762
0.000535707
0.00108918
0.00124592
0.00196803
0.000232465
0.000278901
0.000172993
0.0017343
0.00150104
0.000982391
0.00153633
0.000222161
0.000342884
0.00031304
0.00175625
0.000782133
0.00112973
0.000458962
0.00175309
0.000240594
0.000299924
0.00135502
0.00025401
0.000221359
0.00021771
0.000242972
0.000332307
0.00168046
0.000217577
0.00023076
0.000463923
0.000231002
0.000353575
0.00180403
0.00179735
0.0019176
0.00160557
0.00199637
0.000636711
0.000197582
0.00155808
0.000735204
0.000241077
0.000372968
0.00160469
0.000514348
0.000217951
0.00137253
0.000211233
0.000267866
0.000380011
0.000241155
0.00132436
0.000381633
0.000741
0.000199959
0.000277816
0.000184722
0.000216476
0.000792318
0.00165745
0.00075465
0.000370345
0.000989566
0.00152513
0.000236481
0.00151251
0.00161877
0.00019074
0.000248421
0.00067667
0.000425809
0.000243007
0.00157276
0.000235645
0.00202162
0.0014126
0.000837164
0.00133111
0.00139082
0.000378937
0.00180237
0.000215586
0.0002174
0.000392983
0.000410817
0.000217184
0.00129782
0.00131535
0.00200629
0.00182226
0.000214148
0.00152196
0.00187178
0.000287959
0.000260604
0.00162364
0.000349769
0.000267202
0.00171275
0.00197707
0.0015858
0.000307785
0.000751734
0.000436482
0.000264361
0.000403375
0.000318249
0.000862637
0.000166991
0.00134961
0.0018669
0.00168213
0.000883978
0.000479012
0.000639643
0.000240089
0.000235524
0.000734781
0.00106025
0.000895565
0.00145681
0.00145046
0.00205098
0.00185346
0.000233703
0.000608978
0.00161333
0.00021745
0.00103514
0.00156567
0.000215375
0.00105757
0.00204377
0.000429434
0.00170922
0.00175093
0.00184993
0.000216271
0.00175094
0.000247285
0.000414319
0.00169225
0.000249065
0.00019578
0.000171107
0.000622729
0.000196505
0.00146827
0.00177882
0.00171006
0.00156227
0.000287943
0.000280492
0.0014897
0.00162756
0.000614331
0.000313078
0.00151317
0.00169429
0.00165101
0.000235757
0.00194134
0.000292411
0.000270097
0.000229932
0.000186319
0.000269936
0.002089
0.000208218
0.00176228
0.00190246
0.00167877
0.0019989
0.00181029
0.00160497
0.00184664
0.00179354
0.00154149
0.000889923
0.00069976
0.000218483
0.000177247
0.00150894
0.000662143
0.000222288
0.00157007
0.000489676
0.00188393
0.0019768
0.00194696
0.00138627
0.000302175
0.00174991
0.000293869
0.000308336
0.00193891
0.000250232
0.0016113
0.000216982
0.000215333
0.00128431
0.000224816
0.000228786
0.00158463
0.00151853
0.00119541
0.000199292
0.00150456
0.000211813
0.000288354
0.000217616
0.000199565
0.000332981
0.00195244
0.0002306
0.0013635
0.00141262
0.000518414
0.00192492
0.00196325
0.000568258
0.00193249
0.00206423
0.000233117
0.00203375
0.000241102
0.000210975
0.00180797
0.00151322
0.000298986
0.00168945
0.000457846
0.00020749
0.00182058
0.000246357
0.00165807
0.00180573
0.000556697
0.000267589
0.000287224
0.000387084
0.000242158
0.000890748
0.000753284
0.00038163
0.000217052
0.000421806
0.00158916
0.00166037
0.00204876
0.00186305
0.000315785
0.00159302
0.00165104
0.000496133
0.00110594
0.000223173
0.000627947
0.00149331
0.00196894
0.000206818
0.00155559
0.000256467
0.000482571
0.00023281
0.000627879
0.000292643
0.000242698
0.000780277
0.000251163
0.0014738
0.000416044
0.00179776
0.000241033
0.00164369
0.000357979
0.000170761
0.000296913
0.0010976
0.000231853
0.00139153
0.00143874
0.000155729
0.000282423
0.000254962
0.00194307
0.000995789
0.001733
0.000389983
0.000155746
0.00130148
0.000179685
0.000508402
0.0020817
0.00101395
0.000180765
0.000944481
0.000257102
0.000261007
0.00124402
0.00207223
0.000217452
0.00156668
0.000677771
0.000248054
0.00174521
0.00141505
0.00212941
0.0012512
0.000370252
0.000264343
0.00151092
0.00126681
0.000252196
0.000218796
0.000241244
0.00149791
0.000298197
0.00172582
0.000174245
0.00175289
0.000236237
0.000920368
0.000657808
0.00170075
0.00200754
0.000896409
0.00101747
0.000188976
0.000209983
0.00114435
0.00100897
0.000222759
0.000287064
0.00181097
0.00139085
0.00173361
0.000431808
0.00106498
0.00140466
0.00184695
0.000230353
0.000339625
0.000194656
0.000987025
0.000243176
0.00020011
0.000255376
0.00180452
0.000491685
0.000313911
0.00125339
0.00161099
0.000157632
0.00166321
0.00173055
0.000249533
0.000267895
0.00173076
0.00198735
0.000225946
0.000214106
0.00194386
0.000416009
0.00028301
0.000175812
0.00193099
0.00171706
0.00206007
0.00102714
0.0015945
0.00023587
0.000197597
0.00196291
0.00162259
0.000382663
0.00116257
0.000173682
0.000177357
0.000248884
0.0012982
0.000282074
0.00134767
0.000957092
0.000299758
0.000234772
0.000244543
0.00184459
0.0018427
0.000668783
0.00168929
0.000474149
0.00119002
0.000262079
0.000209389
0.000243964
0.000447738
0.00119016
0.000366007
0.000164555
0.000291446
0.000616904
0.00126633
0.000298429
0.00142469
0.00188511
0.000442113
0.000176044
0.000265125
0.00155288
0.000196958
0.000627349
0.00073638
0.000284956
0.000240462
0.00101368
0.000206622
0.000193191
0.000229143
0.000785304
0.00211911
0.000810725
0.000856792
0.000257051
0.000447918
0.000198289
0.000218836
0.000248135
0.00165737
0.000358603
0.00124316
0.000483114
0.000472427
0.00103877
0.00030855
0.000683828
0.000222077
0.00159383
0.000490807
0.000215343
0.00174172
0.00032813
0.000869477
0.000294571
0.000147068
0.000185726
0.00106228
0.000263306
0.00172238
0.00201428
0.000705899
0.000176476
0.00020309
0.00164713
0.000226048
0.00141759
0.00174668
0.00197394
0.000191019
0.00108471
0.00172527
0.00161604
0.00173356
0.000193749
0.000240707
0.00183731
0.000431175
0.000211141
0.00188894
0.000778554
0.000774483
0.000302796
0.000272092
0.000228851
0.000175016
0.00159958
0.00152731
0.000782738
0.000224221
0.000204532
0.00135414
0.000652929
0.000231286
0.00207725
0.00143775
0.0016841
0.00174668
0.00187395
0.00149948
0.000846942
0.000568047
0.000632372
0.000541226
0.000199349
0.000180998
0.00173766
0.00100698
0.000228196
0.000163958
0.00183064
0.000169652
0.00117494
0.000362408
0.00144881
0.0012577
0.000504535
0.00212791
0.00171269
0.00169236
0.000239641
0.0002855
0.00178688
0.00185788
0.000224878
0.000252119
0.000634581
0.00200892
0.000996513
0.000225355
0.000495747
0.000808275
0.000234581
0.00177098
0.000561149
0.000254265
0.000710468
0.000227805
0.000250461
0.000238393
0.00131605
0.00140235
0.00183878
0.000252371
0.000182529
0.000213868
0.00157656
0.00016524
0.000179059
0.000286177
0.00187906
0.000219357
0.00164268
0.00123699
0.000226442
0.000225949
0.000257786
0.001358
0.00200614
0.00113277
0.000655194
0.000364928
0.000385729
0.000333929
0.000220666
0.00019275
0.000261491
0.000328011
0.00188501
0.000194843
0.000187174
0.000182721
0.00026774
0.0014246
0.00025461
0.00164361
0.00176933
0.000943275
0.000222619
0.0018639
0.000208739
0.000247551
0.00202292
0.00156092
0.000652662
0.00196552
0.00170997
0.000249592
0.000817942
0.00169312
0.00165531
0.000307934
0.00125022
0.00179711
0.00041133
0.000152678
0.000197184
0.000470338
0.00184601
0.000223986
0.000268993
0.00152459
0.000228246
0.000275638
0.000400852
0.000199994
0.000258858
0.000242155
0.000158508
0.000233624
0.000210205
0.000214164
0.000246634
0.000431582
0.000225529
0.0019
0.000229183
0.00175117
0.000801472
0.00125023
0.000485492
0.00158334
0.000204203
0.00141553
0.00166834
0.00030686
0.00190865
0.000779436
0.000219669
0.000664743
0.000259038
0.000297053
0.000199086
0.000992071
0.000352615
0.000229336
0.00129481
0.000880239
0.00178314
0.001842
0.000232756
0.000565065
0.000294789
0.00136512
0.00102435
0.00105986
0.00164236
0.000290086
0.00142983
0.000782565
0.00149525
0.000423573
0.000437191
0.000588706
0.000297785
0.00164363
0.00113737
0.00029497
0.00109108
0.000311424
0.000251595
0.00019504
0.00101082
0.00116088
0.00209424
0.00142923
0.000532287
0.000199412
0.00049173
0.000257199
0.000266757
0.000274003
0.000187265
0.000288311
0.00152351
0.000256628
0.000574183
0.000185864
0.000232948
0.00155259
0.00017366
0.00148437
0.00071122
0.00195371
0.000213399
0.000267543
0.000785341
0.00102356
0.000259223
0.000798645
0.000198154
0.000495973
0.00174864
0.0013343
0.00173575
0.00034505
0.000360714
0.000326009
0.000290131
0.000196727
0.000191947
0.000182887
0.000407824
0.00162979
0.000280476
0.000201855
0.00027127
0.00112863
0.00166534
0.000173826
0.000815525
0.000225597
0.000259268
0.00139442
0.000257116
0.00023205
0.000318455
0.000653495
0.000378345
0.00125565
0.000287733
0.000366351
0.00155061
0.000478377
0.00167426
0.000246716
0.000202385
0.000666614
0.000319973
0.00145754
0.000457468
0.000383743
0.000216893
0.000925331
0.000685962
0.00131263
0.000266739
0.000249767
0.000195251
0.000190036
0.000673818
0.000227228
0.000440424
0.00024426
0.00064269
0.000232012
0.000255052
0.00174651
0.0001988
0.00137419
0.00163844
0.000212525
0.000251261
0.00066405
0.000259231
0.0012841
0.00162408
0.000270889
0.00154039
0.000411341
0.00062563
0.000255297
0.000488539
0.000606545
0.00200952
0.000215503
0.00173597
0.00081632
0.000257306
0.000787704
0.000206142
0.001717
0.000239742
0.00125662
0.000615377
0.00118358
0.000784174
0.000209795
0.000243931
0.00203908
0.00199256
0.000222565
0.000448489
0.000202701
0.000679831
0.000218862
0.000214905
0.000359478
0.00130546
0.000265542
0.00205268
0.000575827
0.00089053
0.000216782
0.00171998
0.000279724
0.000234775
0.00177506
0.00187413
0.000790896
0.000290973
0.000231853
0.00181733
0.00186161
0.00132047
0.00112824
0.00148355
0.00020424
0.000904974
0.00112204
0.000944555
0.000201221
0.000781172
0.00178642
0.0009884
0.00183946
0.00183665
0.000184867
0.00118505
0.000222009
0.00136113
0.000355645
0.00102534
0.00122283
0.00151195
0.00187912
0.000219634
0.00172691
0.000193417
0.000262096
0.000855102
0.000258408
0.0013849
0.000242293
0.000253336
0.000165459
0.000276854
0.00080051
0.000176072
0.00025577
0.00119315
0.000377559
0.00160588
0.000391671
0.000235588
0.00027095
0.000238842
0.000529712
0.00149351
0.000187406
0.00154897
0.00179483
0.00163696
0.0016837
0.00153153
0.00139082
0.00179518
0.00119415
0.000284679
0.000261204
0.00113315
0.000277662
0.000546708
0.000610579
0.000223474
0.00159327
0.000709658
0.000248327
0.00199335
0.000152027
0.000329547
0.000258485
0.000834483
0.00163396
0.00021152
0.000439844
0.0002286
0.000780543
0.000605007
0.00027229
0.00108903
0.000230479
0.000241107
0.0017251
0.000781329
0.00157056
0.000437469
0.000248026
0.00212504
0.000209903
0.00192379
0.00155164
0.000198369
0.00134989
0.0017045
0.00022745
0.000277718
0.00176248
0.00039161
0.000235051
0.00132402
0.000269049
0.000260861
0.000316398
0.00202434
0.0019586
0.00128085
0.0016663
0.000911312
0.00206548
0.000549393
0.000414248
0.00196114
0.00119649
0.000214728
0.000232579
0.000707515
0.00163499
0.000592061
0.00023516
0.000251362
0.00111872
0.000261416
0.00108115
0.00160303
0.00173063
0.000234607
0.000290213
0.00179957
0.000628802
0.00119126
0.00107441
0.000181585
0.000281907
0.00145808
0.000271952
0.000277155
0.000187373
0.000231843
0.00141279
0.0019096
0.00104469
0.000476339
0.000307088
0.000353306
0.00154478
0.00120013
0.000178612
0.00197375
0.00190795
0.00119684
0.000180428
0.000672132
0.000278552
0.000284229
0.000224718
0.00150259
0.00111781
0.00126726
0.000228119
0.00025009
0.000233337
0.000234982
0.00135607
0.000221668
0.000189818
0.00188748
0.00137468
0.00173354
0.000194885
0.000395694
0.000178404
0.00192459
0.00164661
0.00161278
0.00193113
0.000226992
0.00117961
0.000558306
0.00208191
0.00175981
0.00170453
0.00158421
0.00180324
0.000233921
0.000197915
0.000557518
0.00197798
0.00117699
0.000208915
0.00187814
0.000184959
0.000636349
0.000816698
0.000238055
0.000240295
0.000188532
0.000221786
0.00123674
0.000954753
0.000196336
0.000610817
0.000218859
0.00154142
0.00173715
0.000266926
0.000567288
0.000696571
0.00148993
0.000274635
0.000251079
0.000229847
0.000216507
0.000189791
0.000267451
0.0002516
0.000254634
0.000251211
0.0017444
0.00113376
0.00132755
0.000700137
0.00024083
0.00109501
0.000688173
0.000210136
0.000224639
0.000282948
0.000334233
0.000274682
0.00159984
0.000866975
0.00194446
0.00130513
0.000213279
0.000235547
0.00122977
0.0020169
0.00129243
0.00159415
0.00196565
0.000182106
0.000457193
0.00121377
0.00175904
0.000194445
0.000672921
0.000410528
0.000708646
0.000560713
0.00183248
0.000178396
0.000185858
0.000260806
0.000301892
0.00207303
0.00181265
0.00146244
0.000252293
0.000395647
0.000171453
0.000375407
0.00177907
0.000198391
0.000273496
0.00197404
0.0014381
0.00129737
0.00156892
0.000313809
0.00020126
0.00124584
0.000395183
0.000705831
0.000929613
0.000882043
0.00192687
0.000229822
0.00105309
0.000231261
0.000174196
0.000264675
0.000274193
0.000624558
0.000359279
0.000145583
0.000963915
0.000199844
0.000194085
0.000226299
0.000576553
0.00197022
0.00157839
0.000207023
0.000231532
0.000183096
0.000238518
0.000248866
0.00169045
0.00183499
0.000238836
0.00023582
0.000192428
0.00202018
0.00158152
0.00109017
0.000312458
0.00135631
0.0010809
0.000334173
0.000210934
0.00184069
0.00107195
0.00106252
0.000677705
0.00121719
0.00166335
0.000250464
0.000625094
0.000258248
0.00171125
0.00168832
0.00183936
0.00021512
0.00166817
0.000257452
0.00142375
0.00138744
0.00125457
0.00161058
0.000163485
0.000260672
0.000182159
0.00189253
0.00176325
0.00082649
0.00159544
0.000216873
0.00032725
0.00158314
0.00178767
0.000437743
0.000308016
0.00077718
0.000459069
0.00168247
0.00197135
0.00180652
0.00180277
0.00109654
0.0011112
0.00027221
0.00137126
0.00169346
0.00131452
0.000325122
0.000253624
0.00023867
0.000230679
0.000408723
0.00180604
0.00190135
0.000271156
0.000530938
0.000919046
0.000834273
0.000316837
0.00167466
0.00115134
0.000851489
0.00197195
0.00039415
0.000963597
0.000226023
0.000569214
0.00113672
0.000224574
0.00058781
0.00124551
0.0010201
0.00120978
0.0019181
0.00020775
0.00159045
0.000279263
0.00164158
0.000195876
0.00180945
0.000647697
0.000327382
0.00065845
0.000240023
0.000649608
0.000237999
0.000238713
0.0011363
0.000224914
0.00169944
0.00158322
0.00175325
0.000153825
0.00035851
0.000242465
0.00100356
0.000186718
0.000292364
0.00147165
0.00152635
0.00166551
0.00134463
0.00155221
0.00210979
0.00128305
0.00157912
0.00156279
0.000236159
0.000377813
0.00164945
0.00178059
0.000218066
0.00114872
0.00154366
0.00170479
0.000222387
0.000924506
0.000249192
0.00172657
0.000257362
0.000190838
0.000563642
0.000878124
0.000939449
0.000532373
0.000222681
0.00183113
0.000272969
0.000232538
0.00120217
0.00018666
0.000280125
0.000877228
0.0014631
0.000240579
0.00020098
0.000204213
0.00178496
0.00168836
0.000203832
0.00139883
0.000307279
0.00020448
0.00170409
0.000253887
0.000968624
0.00126806
0.00178331
0.00101378
0.00189368
0.00144387
0.00065945
0.00202379
0.00122006
0.00190991
0.000503387
0.00038794
0.00167517
0.000271288
0.00131303
0.00112967
0.0014217
0.001239
0.00160919
0.00097476
0.000230455
0.00147301
0.00159769
0.000172817
0.000600113
0.00204851
0.000250151
0.00153561
0.00168179
0.00031335
0.00069098
0.000254682
0.000478102
0.00174789
0.00145631
0.000320941
0.000188668
0.000194912
0.000781495
0.000229114
0.00021069
0.000291914
0.00102798
0.0016294
0.00194396
0.000887185
0.00099448
0.00113522
0.00026185
0.00048275
0.00170425
0.00187587
0.00187278
0.00185844
0.000198197
0.000242132
0.000235584
0.000207907
0.00157431
0.00202595
0.00186931
0.000292043
0.00137421
0.00142454
0.00023698
0.00199133
0.00163539
0.00187529
0.00179072
0.000252595
0.000212549
0.000616943
0.000242873
0.00150414
0.00116595
0.000407715
0.00121132
0.000288875
0.00019745
0.000370377
0.00204148
0.000296645
0.000766751
0.00183113
0.000753306
0.000241418
0.00183578
0.00203072
0.000192245
0.000248497
0.000275124
0.000257743
0.00185574
0.000710539
0.000224606
0.00160004
0.00185187
0.0017717
0.000735059
0.00142266
0.00144051
0.00160298
0.00106194
0.00030964
0.00142375
0.00024497
0.000208846
0.000189492
0.00149707
0.000550204
0.00174693
0.00101236
0.000287635
0.000426325
0.000234109
0.000408242
0.000226941
0.000321487
0.000978066
0.00109161
0.00142398
0.00104912
0.000196188
0.000274365
0.00184839
0.000197759
0.000244792
0.000768643
0.000235616
0.00180148
0.000836052
0.00120515
0.000589063
0.00145053
0.000681862
0.001511
0.000202435
0.0017687
0.000220964
0.00019656
0.000222875
0.000950926
0.000654671
0.00174604
0.00022356
0.00183774
0.00131938
0.000430012
0.000237571
0.000284904
0.000208549
0.000238912
0.000229176
0.000220312
0.00182306
0.0001758
0.00141818
0.000204052
0.000201564
0.000300501
0.00021876
0.00024658
0.000231083
0.00116805
0.000544305
0.00194315
0.000228063
0.00186917
0.000268088
0.000509719
0.000176384
0.0013177
0.0015779
0.00023951
0.00098463
0.00142157
0.00142444
0.00106779
0.000774511
0.00134695
0.00154989
0.00195399
0.00106711
0.000277461
0.000275113
0.000172223
0.00112152
0.000207833
0.000289691
0.00129531
0.000218865
0.000401927
0.000212444
0.000644164
0.000507709
0.00187201
0.000931225
0.001593
0.000985505
0.00149207
0.000703142
0.0019505
0.000187995
0.000183495
0.00108779
0.0017668
0.00114118
0.00106109
0.00146917
0.0014715
0.00125489
0.000213269
0.00128574
0.00190141
0.000246949
0.000713566
0.00027595
0.000866508
0.00020168
0.000213926
0.00138703
0.000203925
0.000246658
0.000207473
0.000201591
0.000213963
0.00180013
0.000644614
0.00183008
0.000794435
0.000219643
0.00158056
0.00199705
0.0014473
0.000236229
0.00116762
0.000451513
0.000527929
0.00160917
0.000224781
0.000191384
0.00107027
0.000284453
0.00167618
0.000238836
0.000710445
0.000210221
0.00167004
0.00154312
0.00156835
0.000221911
0.000215543
0.000217767
0.00139177
0.000196589
0.00019398
0.000568425
0.000293175
0.000231689
0.000323342
0.000264174
0.000660206
0.00107637
0.00185149
0.00134116
0.000260755
0.000444385
0.000158109
0.0018239
0.0013512
0.000672291
0.00116072
0.000321027
0.000464602
0.000201027
0.00123841
0.000395052
0.00158058
0.00204819
0.000190341
0.000223756
0.00164299
0.00139769
0.00176388
0.000204227
0.00110206
0.00028104
0.000291404
0.000216723
0.00168904
0.000220102
0.000450095
0.000240734
0.000251486
0.00123702
0.000173845
0.000209036
0.000218518
0.00131804
0.00136128
0.00165849
0.000162958
0.000920023
0.00164255
0.000523426
0.00063577
0.00153642
0.00163859
0.00181653
0.000268164
0.00144047
0.00065197
0.000238266
0.000253226
0.00189626
0.0018848
0.000369674
0.00142227
0.000256272
0.000507948
0.000743659
0.000228464
0.00144585
0.00169392
0.00111409
0.000265655
0.00196595
0.000226608
0.0018209
0.000200626
0.000231379
0.00185267
0.00175463
0.000208502
0.00119778
0.00169765
0.00164469
0.00197662
0.000194612
0.00024696
0.0014206
0.00128091
0.00100441
0.00162085
0.000182595
0.000923701
0.000195272
0.00020461
0.00145151
0.00198757
0.00036707
0.00141275
0.00075253
0.000215911
0.000195106
0.00174353
0.00131544
0.000224454
0.000220794
0.000268251
0.00120045
0.00113996
0.000251333
0.000250926
0.00135779
0.00180506
0.00138464
0.00125692
0.000485541
0.00205511
0.00106538
0.00180274
0.000264877
0.000266673
0.000262111
0.000743186
0.00039426
0.00141731
0.00144192
0.00199882
0.0017453
0.00200598
0.00181265
0.00111336
0.0017806
0.000390986
0.00169604
0.00157953
0.000324695
0.00153848
0.000274854
0.000218579
0.000610998
0.000977027
0.000832169
0.000670685
0.000797678
0.00031187
0.000246059
0.0010243
0.00157187
0.00132301
0.000590758
0.000179583
0.00131624
0.000377006
0.000276657
0.00104081
0.000214671
0.000601435
0.00117615
0.00101541
0.000840759
0.000419998
0.000216183
0.000258389
0.000303927
0.00181813
0.000247063
0.00137094
0.00143775
0.000242923
0.00197243
0.000345677
0.00191856
0.000679661
0.000618481
0.000225749
0.00204671
0.0015204
0.000218817
0.00142843
0.000217448
0.000229875
0.00114644
0.000201417
0.00184726
0.00149446
0.0016748
0.000393865
0.000245092
0.00111095
0.00156352
0.00105507
0.00021821
0.000244065
0.00065806
0.00109602
0.00059078
0.0018437
0.00023243
0.0003252
0.00125667
0.00166922
0.0014787
0.000316833
0.000433479
0.000299348
0.00067478
0.00125546
0.000552651
0.000395066
0.000238573
0.00132159
0.00096844
0.00115446
0.00156472
0.00106973
0.00177026
0.000232886
0.00060407
0.000254454
0.000214544
0.00117442
0.000206886
0.00184508
0.00174653
0.000997428
0.000233234
0.000349781
0.00130581
0.00158204
0.000171216
0.00184569
0.000263114
0.000673642
0.00025171
0.000444042
0.00117822
0.00165185
0.000237508
0.00105097
0.00167518
0.00141832
0.000342337
0.000908734
0.00151107
0.00025361
0.00192672
0.000219732
0.00101202
0.00185993
0.00145043
0.000669962
0.00032921
0.000214339
0.000270967
0.00026378
0.00164817
0.00173451
0.000245637
0.000215618
0.00106341
0.00109118
0.000208028
0.00040241
0.00106527
0.00106487
0.00114419
0.000241647
0.00124795
0.000400018
0.000251365
0.00169543
0.000182973
0.000268165
0.00025048
0.00026474
0.000242891
0.000167362
0.000770453
0.000201411
0.000649098
0.000224813
0.000200103
0.000721625
0.000254815
0.000229123
0.00114026
0.00023981