/*--------------------------------*- C++ -*----------------------------------*\
| =========                 |                                                 |
| \\      /  F ield         | OpenFOAM: The Open Source CFD Toolbox           |
|  \\    /   O peration     | Version:  2406                                  |
|   \\  /    A nd           | Website:  www.openfoam.com                      |
|    \\/     M anipulation  |                                                 |
\*---------------------------------------------------------------------------*/
FoamFile
{
    version     2.0;
    format      ascii;
    arch        "LSB;label=32;scalar=64";
    class       volScalarField;
    location    "8";
    object      p;
}
// * * * * * * * * * * * * * * * * * * * * * * * * * * * * * * * * * * * * * //

dimensions      [0 2 -2 0 0 0 0];

internalField   nonuniform List<scalar> 
59516
(
4.19217
0.197163
0.164762
0.0181954
4.31371
4.33357
4.18887
3.83753
1.343
0.0151912
4.25183
4.21662
3.14388
4.17855
3.98712
1.35874
4.20236
4.26072
4.24934
4.16949
4.25217
3.85068
4.19067
2.92637
1.1917
2.81427
1.6698
4.26987
4.24529
4.0161
4.3058
4.26959
2.1421
0.0130534
4.24019
3.68357
1.10419
4.26641
4.23906
0.1574
0.214653
4.25915
4.23476
0.00759506
4.22152
0.659064
4.23213
4.23215
4.31356
4.24665
4.31674
0.016597
2.2131
3.93007
4.23377
4.22751
4.26747
0.0267196
2.92567
4.252
0.0211974
3.59001
2.93842
4.19792
0.0409578
4.2191
0.0943566
3.71999
4.30464
4.22097
3.78084
4.17511
0.754639
4.18005
3.75486
4.219
4.22632
0.412547
3.18484
4.24041
0.0258972
4.23486
4.22973
1.89326
4.23633
4.16419
1.33469
4.17284
2.15796
4.26599
4.28307
3.80499
4.12214
3.76411
3.77835
4.32241
4.01147
3.84761
4.25467
3.10629
1.45173
2.63966
3.96524
0.106466
0.736441
0.0743525
0.0742259
1.26387
2.30945
3.2123
4.28649
1.59729
3.82566
4.28436
4.09995
3.49884
0.433807
3.92437
3.90689
0.469507
3.94458
3.89966
1.04554
3.92463
4.28176
4.24295
4.10988
4.26647
4.31046
4.11366
4.08219
0.203235
3.73348
4.11838
4.13168
3.71151
4.27902
4.05324
2.63149
4.15778
1.57851
2.00343
3.83679
1.56227
4.15995
4.14284
4.22861
4.19504
4.30729
4.13815
4.15429
0.0383076
4.09672
0.0391708
4.12424
0.0504703
0.0631062
4.1306
4.13806
4.02018
4.14625
4.14585
4.02053
0.0546858
3.48106
0.420715
1.32768
4.13456
4.15371
0.0485181
4.1286
4.12948
4.06488
4.08948
4.06872
4.2338
3.53161
4.24104
0.169673
3.48847
4.09659
2.37099
2.77356
4.0792
4.09691
1.50149
2.06995
1.13516
4.11747
4.07895
0.00495463
2.36331
4.14774
4.07953
4.14861
0.275122
2.6507
2.63412
0.0415608
4.06008
0.00599234
1.09698
3.88542
3.13428
3.6103
2.34652
4.14089
0.0425787
2.99061
3.97982
0.704388
4.26073
3.95768
3.6528
3.97025
1.69239
4.13709
0.262659
3.3889
3.97181
3.95958
4.13531
4.05886
0.0634272
4.0136
3.52039
2.96303
3.11324
4.06781
0.593152
4.00595
2.3224
4.05883
2.41426
2.56812
4.06927
4.05927
0.831777
4.04917
0.908598
4.09857
2.37814
2.28658
0.0550162
4.11429
4.10196
4.09515
0.153266
4.0587
4.11807
0.154028
4.08428
4.10729
2.748
4.10905
4.11156
1.35155
4.03843
3.25333
4.00658
3.04033
4.01735
4.03929
4.03751
3.65967
1.01276
3.38173
1.22012
4.00986
2.87755
4.21027
3.59365
1.28687
2.94731
4.02319
3.70271
2.86746
4.01396
4.0372
1.70746
4.05468
3.13474
2.92785
3.98554
3.9656
4.19159
4.10604
0.108703
4.04372
3.69637
4.02599
3.98972
3.77579
0.445566
3.82232
2.28973
3.7038
3.65914
3.9972
3.68453
3.69387
1.05045
1.76152
3.59851
3.74074
2.81442
0.252868
3.68586
3.71154
1.43821
1.17438
3.68117
2.7745
2.64119
4.22049
3.72422
3.88651
4.32174
3.71664
1.10558
2.31822
3.8841
2.4609
3.91636
3.14002
3.73779
4.25424
3.87813
2.98707
3.91079
0.312437
4.17414
2.97053
3.90967
3.29284
4.00169
4.0437
3.58298
4.24303
3.968
3.62878
3.58288
3.9252
0.841705
1.88497
3.96633
1.74228
4.02324
3.92834
3.27134
4.07897
4.07452
0.575141
2.21396
2.97333
0.869865
0.114968
4.28484
4.29712
3.50333
0.4988
4.13031
4.24744
3.83412
0.470635
3.90517
3.89706
4.1418
4.30706
3.95297
1.52045
1.51202
3.8957
3.07201
3.44899
3.87037
3.90321
3.83658
3.21762
3.76075
4.1507
0.0301004
4.25552
0.152553
0.267896
3.89855
0.0868066
4.24905
3.89558
0.180829
0.169033
0.985059
3.84997
4.28567
3.88102
4.27933
0.168338
1.35379
3.84252
3.85716
3.97275
3.8203
3.24374
3.99073
4.00766
1.07845
2.64229
4.0157
3.99003
3.98337
0.652638
0.284214
0.329445
2.41334
3.61515
0.108658
0.553441
1.25799
0.0587349
3.8385
3.81372
3.87834
3.87549
4.0246
3.87781
3.10108
3.80106
2.73338
3.88516
3.31727
3.93209
3.86759
3.69366
2.43737
3.98897
4.25382
0.320433
3.944
3.04576
1.49843
3.11585
3.37254
3.95288
3.92991
3.8873
3.86745
1.43499
3.87573
3.09391
0.430023
3.39376
4.29837
2.70078
1.16084
3.8952
3.27827
3.85858
2.56409
3.86133
1.13728
3.87626
0.0502893
0.0995852
3.82732
4.24148
3.79705
3.55129
0.624613
3.60106
3.57425
0.679743
3.70052
3.56342
3.49472
3.49134
1.81017
3.61468
3.51291
2.50836
3.47515
1.61132
3.44459
4.25327
3.45669
4.31383
3.47003
4.04835
1.55354
1.79909
3.06529
0.0491443
0.0339588
3.27661
3.66798
3.73679
2.98469
3.51787
0.846864
3.82128
3.79265
4.2571
2.63864
2.33221
3.1338
3.78937
0.262372
3.71262
4.19548
0.0560263
4.33318
3.81188
1.21108
4.15913
3.26916
4.2066
3.58623
3.18492
3.43583
3.82816
3.21454
3.82882
4.12599
1.36718
1.37522
4.28583
0.0353279
3.81231
3.68053
4.27668
3.66701
4.16554
0.0145287
3.72948
1.56138
0.00510881
2.92876
0.632752
4.27123
3.9381
1.27579
0.0352524
3.99316
2.39252
3.70138
3.99009
3.69292
4.13914
0.00844564
1.93299
1.23515
3.69357
0.560814
2.8327
3.82239
2.47943
3.79368
0.032916
3.85403
1.20594
3.81351
3.08534
2.17864
2.0122
3.83911
0.0288006
0.722966
3.65974
1.48983
3.0035
3.35688
2.30707
2.21955
3.67229
3.66503
4.08633
3.622
2.20104
3.65212
3.63156
2.09525
1.83608
0.00978256
3.65813
3.65749
3.68211
1.77962
3.55501
0.111101
3.68873
0.0727734
3.84152
0.00727837
0.351357
3.19186
2.33259
0.158123
3.6946
4.27244
0.0472769
0.236273
3.65264
3.60035
0.518324
3.62011
3.66662
2.57372
0.679409
3.84314
3.73034
0.182548
3.67273
3.68476
2.80616
3.62121
4.30766
3.67277
4.28891
3.2373
4.29425
3.2631
0.323163
4.15456
0.0702556
0.0713403
4.32998
4.3168
3.28707
3.66755
4.27047
4.24847
2.37198
1.91441
3.08045
1.12565
3.25273
2.20591
4.2517
3.27681
3.28342
3.54501
3.39477
4.29741
3.10965
3.44504
0.928876
3.4677
2.64652
0.254344
3.46855
3.44483
3.46071
2.67303
1.60571
4.31912
2.27327
2.33731
2.7445
4.01847
3.46656
1.1663
3.23777
2.74881
0.151476
1.16225
3.49499
3.93521
2.87287
2.68054
3.48662
3.48701
1.46954
4.10755
3.63738
2.50093
3.59559
3.00641
3.74527
3.55483
0.134737
0.346898
3.26301
4.31609
2.64082
2.49892
0.0484688
2.82656
3.54829
2.14134
3.71077
3.6381
1.62162
2.22471
3.68024
4.15092
3.84037
3.02774
4.32067
3.68556
0.500642
3.81201
4.31958
0.295579
2.25163
3.99591
3.48084
1.40214
3.38276
0.315138
0.237833
3.02188
3.48593
4.3247
3.87781
3.48067
3.47492
3.56402
1.64005
0.138076
1.15724
3.84553
4.32199
2.74792
3.52422
2.46913
1.01345
3.47048
1.07172
3.47683
4.21708
2.27263
0.00989777
3.91551
1.74892
3.57485
0.229828
1.40473
2.78254
3.98046
3.54461
3.57316
4.32377
3.95197
0.61803
4.31975
0.0528579
0.0232938
3.56279
0.672299
2.04296
2.79604
1.95369
4.32744
3.51109
3.91371
3.44072
0.762214
2.95894
0.876655
2.3229
3.8837
3.43439
3.4641
3.42777
1.30765
4.13015
3.25034
1.13441
3.45519
3.42834
3.40622
3.22665
3.45417
0.237444
0.143835
3.41264
0.049866
2.18275
2.49102
0.102815
2.60235
3.01292
4.17952
3.29876
3.79062
3.07343
2.30533
3.46486
3.49349
3.48932
1.9597
3.47844
4.12963
0.254502
0.0348585
2.40828
2.1086
0.0399177
3.46911
3.43805
3.45189
0.236465
0.456018
3.43747
3.98983
0.38823
0.620433
4.30326
4.26721
3.52203
0.650153
3.65263
3.30885
3.73907
3.0338
3.40243
4.27334
3.03129
3.02909
1.61077
3.04936
4.28799
0.485
3.36336
3.04686
1.8624
3.59417
3.73115
1.62776
3.6146
3.96113
3.64027
3.02501
4.21854
0.874366
3.02008
3.87322
0.182688
3.21393
1.26456
2.99106
1.66391
4.28315
3.08957
0.0391003
3.01853
2.9814
3.14827
3.01294
2.81589
0.0610998
0.680155
3.60237
3.18811
2.67179
3.65379
1.93104
3.97749
0.339571
3.16229
1.44771
2.90725
3.67117
0.20155
3.21799
3.16621
4.33275
0.340562
3.74474
4.04345
0.636368
3.1056
0.672319
2.59373
3.48897
3.72618
3.11478
3.10233
3.09254
4.30584
0.465288
3.71191
1.96442
0.254599
3.13126
3.7764
3.26919
3.26514
0.487251
3.30348
3.33071
1.81472
4.06188
4.33034
4.18668
2.57337
3.33505
0.0315035
4.25151
3.05776
3.28912
2.81314
3.31854
3.30811
3.38478
3.6474
3.41513
3.72302
3.31974
4.15135
4.18598
3.28868
3.59221
3.283
3.73289
3.73763
0.178145
2.27671
2.67626
0.161172
3.46953
3.32004
3.49893
1.93438
0.07963
1.99388
3.2804
3.55526
3.55828
2.21912
2.54705
3.5206
4.33143
3.35776
0.0931008
0.229228
3.82815
3.37088
2.12946
2.78995
3.33135
2.2895
3.22395
3.22852
3.22302
2.82223
3.58747
3.2161
4.30355
0.346664
3.21135
4.30101
3.22653
4.04252
0.652238
3.20508
2.07095
1.57258
3.22595
3.21237
2.05801
2.11355
3.20261
1.75694
3.15706
3.1617
3.27502
1.94121
3.15719
0.458931
3.19282
3.18318
2.21982
3.1629
3.16931
4.18826
3.09831
2.64564
3.13117
3.14506
2.23167
1.04296
1.91831
4.25007
3.1901
3.18682
2.7598
1.07463
4.25547
2.83327
2.83725
2.75155
2.76017
0.130859
0.0821272
0.830961
1.83372
3.18285
3.19297
0.0703348
3.86569
3.04665
1.38992
4.25468
2.68408
2.66204
4.26592
2.71202
3.75304
0.747186
2.66168
3.66878
3.40265
2.68131
2.00427
0.626258
2.68823
3.8573
3.50097
2.10567
0.945408
1.59876
2.8105
1.65052
3.84527
1.5707
2.76958
2.95151
4.28509
2.1801
0.129033
0.963455
1.62224
2.72101
3.83549
2.92844
2.91149
0.260071
2.33902
0.116197
2.97082
2.96596
1.63044
0.175042
3.45984
0.634106
4.08816
3.22144
3.1919
4.24039
1.63517
3.68268
3.8038
2.67466
0.228101
3.18902
4.23418
3.16367
3.12859
2.71537
1.40106
3.17501
0.226734
4.22973
3.85944
2.22761
3.17922
3.0635
3.83299
4.1698
3.69316
0.426848
1.42231
3.14472
3.26121
3.62858
2.13285
3.5728
4.26377
3.12665
3.59182
1.26626
3.2091
2.49809
1.52639
3.20704
3.22176
3.22268
3.63985
3.15377
0.655142
3.16324
1.4003
3.54688
0.274689
3.14232
3.57372
0.0617268
0.30197
3.09175
1.22138
0.745062
1.2614
1.02917
1.93837
0.600046
3.12298
3.11015
0.45459
3.08824
3.11226
3.57573
0.144563
3.13156
3.03035
0.00866359
0.333573
2.98171
1.75154
0.0457552
0.174579
2.99063
2.20374
3.06556
4.1954
0.212274
3.55811
2.80267
3.05815
3.00446
2.76779
3.40589
3.13934
3.12083
2.83872
4.23677
3.88855
3.07307
3.10982
4.02008
0.534353
3.86708
3.40652
2.16762
2.00769
3.10139
1.41876
0.267166
2.90251
2.96237
4.30891
2.54343
2.96641
2.96068
3.33381
1.39878
2.95862
2.96352
4.14864
2.96854
1.32857
2.99643
3.0071
2.48372
2.24008
2.68671
2.99804
2.96863
2.99893
2.122
2.59606
3.03829
2.73202
2.06882
2.20109
2.2053
2.21223
2.53672
2.98189
2.57162
4.25318
4.04507
0.664809
1.84564
1.94715
2.55462
2.53252
2.58038
3.22977
2.55297
2.53091
1.48942
1.92586
3.41785
1.51226
0.497743
2.57035
2.54636
2.6048
4.07483
0.175755
0.0887919
1.81368
2.74722
2.70371
3.85521
0.514412
2.58035
4.25659
0.659778
2.71171
2.72328
3.18194
0.0199657
2.69196
2.69853
2.69194
2.89737
0.0540786
0.105016
2.90536
2.8959
2.87838
2.87867
2.98157
2.81833
1.40726
0.191257
4.27843
3.5083
2.90953
2.88967
2.2349
4.19074
4.137
3.91274
0.0215214
3.93295
2.9277
2.93333
2.90444
2.91591
2.93203
2.91305
3.78442
2.48311
3.70746
2.59646
1.40126
0.165029
2.95038
2.23269
0.0569584
2.60999
3.02238
4.21814
3.04613
2.1188
2.04335
3.4485
2.31365
2.99239
3.08457
3.05125
2.53677
2.74022
4.19023
2.98343
3.6758
1.35435
1.08345
2.94592
1.13421
0.299296
3.03109
2.99086
2.30131
1.51947
1.75469
4.06208
3.00976
0.817206
0.0686882
2.71516
0.399278
2.20132
2.92411
3.47586
2.74684
0.35338
4.10394
0.184375
4.00137
2.40493
3.8637
2.81257
0.714786
2.9653
2.69577
1.69557
2.04745
2.96443
2.96768
4.10552
3.50816
3.70521
4.15518
3.60759
3.49898
3.49841
3.76118
2.92006
2.88325
2.32435
1.14614
1.30485
0.229088
3.87298
2.3278
2.85025
2.80861
2.82866
0.688329
2.77015
3.73879
0.0365063
2.77082
2.85872
3.19638
4.32978
3.74008
3.7466
2.80949
0.173918
3.8663
2.82531
3.32123
2.9587
3.3736
3.58716
2.62174
3.8272
2.87749
3.53349
2.93926
0.271023
3.74632
3.82174
2.36377
4.26557
1.30369
1.54309
1.31554
2.5741
3.69118
1.03159
3.31003
1.05916
2.90153
2.88612
2.53786
2.99453
2.74116
3.99801
3.41108
2.70123
3.4933
2.81863
4.32851
3.80875
2.81291
2.73842
3.38695
3.96364
2.76317
0.355923
3.29553
3.99638
2.74247
2.51151
2.7797
2.83405
2.85827
2.87873
0.0526256
1.30608
2.87677
4.27135
2.87919
2.38757
3.60826
2.3463
2.02884
3.98882
4.27087
3.76851
3.76667
3.78546
0.498006
2.70156
3.17371
4.26388
4.16101
4.27268
4.28669
4.16175
2.40915
2.36548
4.26569
0.988851
2.41835
3.49201
2.38564
3.77158
3.53586
4.26656
4.11881
3.76494
1.29998
2.42035
2.64316
2.57783
2.69701
3.79563
3.48516
2.66053
2.59803
2.63045
0.204171
3.96085
0.675468
2.70256
3.1009
2.77028
2.69525
2.63308
0.659953
2.73905
2.43759
2.72992
2.72798
3.8208
2.48436
1.40308
0.817282
3.66311
1.965
1.93985
3.55979
1.61745
0.819685
0.688376
0.494275
3.54279
1.20643
2.44873
3.04377
0.467679
3.91625
3.93274
1.74485
1.68511
4.13269
2.54279
0.188878
2.97587
0.480051
3.44142
0.45192
0.756923
0.239885
0.137996
1.44648
3.85791
0.747091
0.338213
0.3822
2.66259
0.414503
2.63358
3.92313
2.70716
2.66923
3.5214
0.757507
2.75277
2.73728
0.134598
1.31219
3.86556
2.74558
2.76344
3.55885
3.94319
3.79624
3.93042
0.901996
4.19054
4.25932
2.74474
2.77138
0.189742
4.03149
4.25407
2.72594
2.11502
2.72605
0.217905
3.81282
0.0697288
0.738295
2.57723
3.21499
2.58686
2.12344
3.891
1.91628
3.71021
2.58264
2.58734
1.27486
2.4631
2.27951
4.22891
3.89062
3.42549
2.58469
3.9511
1.41849
0.69225
1.1889
0.173158
2.58402
3.92066
2.5788
0.17412
0.136047
3.82789
2.60919
1.18687
4.05468
2.61138
2.62019
3.85525
0.250023
3.81936
2.62557
2.67838
2.69595
2.84056
2.7124
3.7944
3.71968
2.70838
4.1292
2.87806
3.71891
3.20835
2.67786
3.92646
2.60702
2.11192
4.145
2.94126
2.64752
0.137439
2.71802
2.70748
2.03836
2.60039
3.46633
0.988679
3.86743
2.49512
3.61807
3.78303
2.65967
2.8676
0.139986
1.24243
0.935197
2.63939
3.92427
0.227095
2.57032
4.14675
0.923704
3.56081
0.843508
2.56137
3.10904
2.57039
0.0155201
3.28863
3.90682
2.04159
0.53116
0.961286
1.97336
2.00141
2.14378
3.86451
0.140414
0.512481
2.24801
2.29214
3.71348
3.46802
2.24959
2.37651
2.18498
3.22578
4.15463
3.97483
2.86492
0.417776
3.69024
3.65947
1.71657
0.805159
3.38367
1.62639
2.24739
3.506
2.87282
2.9135
2.51884
2.18826
2.35875
2.34909
2.2978
3.58432
2.39996
3.11374
4.12279
3.90678
3.49224
3.81307
2.19737
1.58878
3.8796
2.40944
3.50782
2.80169
3.63468
4.20344
2.25607
0.0914974
2.43269
2.46703
2.57672
3.8632
2.41736
2.54513
2.91138
2.58351
2.91143
2.45516
0.0150627
2.88178
2.5389
2.52044
0.0578981
3.5117
4.18077
2.88285
2.96952
2.31734
2.5785
2.55351
0.975033
4.15735
2.58255
2.59633
2.60539
0.53613
3.85699
2.73815
2.33849
2.88012
1.49848
1.95054
3.69977
2.3995
2.34002
1.90632
2.35214
2.52189
1.59134
2.39164
3.85531
2.68736
1.35387
3.85068
3.85472
2.12129
2.10845
1.78536
2.39959
1.02807
2.46201
1.1353
4.32314
3.63012
3.09027
1.51965
0.247635
3.98974
0.265085
0.28765
2.39601
0.0242286
2.40003
0.444161
3.1104
1.63394
2.37655
3.4332
3.13116
2.39807
0.38125
0.293795
3.07544
2.35648
0.589151
2.39989
2.3779
2.70383
2.49082
4.20699
3.53525
3.97297
3.08243
3.44249
2.39128
3.54824
3.09368
2.39154
4.01164
4.24252
3.42438
3.34545
2.39094
3.77938
2.32777
3.9814
3.01152
3.49829
0.267596
0.622185
3.33703
0.128703
3.89795
4.29995
4.04299
0.16239
0.99679
0.228502
3.82055
3.97647
0.0828494
3.12674
2.2891
3.75485
3.20717
2.29711
2.43206
0.454311
3.38001
3.41413
0.979626
4.19688
3.99606
2.53769
2.30719
4.28347
2.28906
4.24569
3.41455
3.38703
2.3132
4.0974
2.04815
4.07865
3.8572
4.09928
0.0851568
2.34798
4.18266
1.2424
4.25131
2.35318
4.1276
1.78576
1.77223
1.88652
4.20284
3.66144
4.09959
3.64092
2.01852
4.18201
4.17925
1.78711
4.19391
2.12197
3.53074
1.97653
3.65907
2.52539
1.6945
2.41256
1.66957
2.41371
0.294575
2.12853
1.94861
3.99587
1.86732
3.42242
2.66683
3.09932
2.07344
0.549184
1.52012
3.44678
1.98149
3.96955
1.31823
2.18191
4.07851
3.5208
2.21668
3.75742
2.18036
1.97548
1.93772
2.47521
2.08947
0.0182414
0.564328
0.688272
1.98583
2.00393
3.46104
0.82379
0.413781
1.87936
1.23953
3.96805
3.69458
0.498353
2.22467
3.12283
2.07822
2.24484
1.79136
2.20099
3.66216
2.19464
3.00029
0.00913973
3.92671
2.96348
4.27394
2.25524
2.19084
0.291425
3.9922
1.64136
2.26085
3.5359
2.35022
2.2916
2.13289
2.13078
0.490911
2.33126
2.24227
2.26232
2.16101
2.47683
2.21656
3.92527
1.81273
2.29842
3.96644
4.26439
3.07284
1.8748
3.34322
2.25034
2.05332
1.94223
1.00991
1.84502
1.67245
4.16459
1.85417
2.47926
2.4865
0.545515
1.8289
3.92514
2.09637
2.14488
2.95801
2.77457
2.06552
3.17324
2.50829
2.10952
2.08292
2.3471
2.0791
3.91139
3.79848
1.8762
1.8074
1.99701
0.749494
2.1351
2.50687
3.47087
2.06552
2.149
1.98124
2.17634
3.92517
1.80053
3.83923
2.13406
2.04565
1.93437
2.06897
1.63089
2.02621
1.63666
1.42511
2.03175
4.13877
2.31964
4.12474
2.94832
1.37982
0.356117
1.79656
3.91948
2.09277
2.05775
1.51416
2.09418
1.49773
3.94165
3.93027
1.56348
1.57789
1.65531
1.66514
3.24553
2.62082
1.62366
1.63311
1.20479
2.04283
1.6624
1.67179
0.934631
0.85627
0.00886175
1.67399
3.2505
0.47936
2.62692
1.74335
1.78568
1.87019
2.38765
3.90289
2.15455
1.52429
0.146517
0.274638
2.67064
1.75261
1.66337
2.33535
0.472282
0.290752
1.78806
3.90886
1.99254
2.01564
0.909517
1.87309
4.22052
1.93267
1.88048
2.5986
1.92
1.98864
3.91966
2.00444
2.29127
0.265598
0.0559692
3.18916
0.594111
0.292716
2.06958
1.69356
3.91645
2.01611
4.03163
4.01853
1.96194
3.89604
0.0842493
1.89911
2.02833
0.54976
2.05668
4.03077
4.26881
0.876861
3.98102
2.01513
3.44707
3.74132
2.03513
2.13514
4.01048
1.99412
4.20721
2.04911
2.43615
2.20147
4.21749
4.00059
2.46272
2.08405
2.01669
3.57566
2.43316
3.59028
3.99588
3.93423
2.07984
0.168278
2.09315
1.93575
3.54933
1.59836
3.54381
0.691064
3.75595
0.00490069
3.93076
2.45235
1.74464
1.90818
3.97694
1.87462
3.92023
3.84222
3.96034
0.151368
0.048275
3.60986
0.0501605
1.87004
2.41589
3.18253
1.83412
3.86145
2.73522
3.89158
1.78839
3.86467
3.30702
3.55715
4.27111
2.53385
4.15912
1.78286
0.138989
2.76384
0.108396
4.25225
0.804156
2.67252
3.55515
1.97093
1.86803
0.187354
0.532382
1.90271
3.65711
3.95809
0.0874797
4.04585
2.46777
4.19956
1.09279
3.68365
1.90162
3.29305
3.9746
3.2689
3.09873
3.4294
3.69551
3.89194
3.04245
0.748869
3.50545
1.94619
1.94613
1.94379
1.10021
4.13882
4.161
3.52366
2.12274
3.85072
3.94268
2.13314
1.95281
1.93789
1.86757
4.1541
0.87031
1.84025
2.86262
1.87388
3.50962
3.26587
2.24302
1.06794
1.86264
1.85396
2.61958
4.2545
2.98644
1.85485
3.88166
1.30096
0.954172
4.11932
0.0742873
1.28692
0.191148
1.31947
1.29835
3.88135
1.8307
3.29344
3.86945
2.33418
1.96239
3.97309
1.38149
3.93873
1.75072
1.81209
1.80947
3.55304
3.06343
3.93657
3.64655
3.81258
1.53006
2.67273
3.98634
3.76069
1.93095
3.76495
1.34031
3.50855
0.802571
3.55802
1.85008
3.20612
1.64476
2.51958
3.7723
1.30973
3.78562
0.942542
1.99215
1.62449
0.497954
1.7013
1.5758
2.26258
3.9363
1.66321
0.671032
0.249909
3.54731
0.286195
3.80327
0.049067
1.7289
0.891406
1.72493
3.77538
3.83102
0.833589
4.14041
0.514267
0.0116611
3.54746
3.24139
1.71244
3.77485
1.25794
0.293002
2.20457
0.0481921
2.79651
3.39254
2.57409
1.74888
4.24357
1.76146
2.8309
3.55303
2.33871
3.82374
1.69787
2.56968
1.67489
2.62285
4.14234
1.81159
1.56014
2.64687
1.68079
2.95774
1.68062
1.05866
1.67824
4.14764
1.66706
1.59224
1.64749
4.07572
2.1581
3.94596
4.16755
4.1468
3.15198
0.837476
1.21971
3.26168
3.7718
0.307319
1.15357
1.64618
1.6209
3.80195
4.2516
0.0210751
0.505932
1.48743
3.94667
0.493225
2.36257
3.80936
1.60037
1.58923
1.60161
1.53475
1.59732
3.18306
1.96352
3.73668
0.33863
1.66943
1.61219
4.07849
2.52047
4.04101
4.16664
0.791559
1.6195
1.2054
4.07449
4.10539
4.03911
4.0136
2.21817
1.18542
3.97212
0.819231
1.61598
3.70521
1.82936
1.60311
1.25368
1.5545
3.67456
3.64893
1.59747
2.83128
1.81415
1.80609
4.2531
0.349048
0.923404
1.61318
1.62504
0.110958
1.62219
1.19573
1.71577
3.6073
1.66122
0.217522
1.76031
0.102792
4.10083
4.00504
2.26588
1.66834
1.72087
1.94369
1.45714
1.33052
2.00216
1.39467
1.3768
1.20347
1.40448
4.13375
3.74477
2.37291
3.55649
1.48096
3.66148
1.1845
3.56388
3.0613
3.43392
1.42722
2.68206
0.262371
3.65706
3.90331
1.66556
4.27434
1.48208
1.51714
2.53543
0.301932
1.98622
1.52535
3.6366
1.18519
1.63791
1.59582
1.07543
3.11349
1.07418
1.04894
1.09415
1.11079
1.09127
3.5668
3.62011
3.67804
3.55299
0.618315
1.09407
4.06374
1.22062
0.59755
1.20775
1.19417
0.652159
1.21332
1.22997
1.20321
1.52716
1.49189
2.73837
1.70965
1.92772
2.46816
2.11985
1.97525
0.626879
1.55169
1.51597
1.15038
1.24711
1.50968
2.95045
0.215202
3.41192
4.24139
2.73524
4.1356
1.51253
0.243029
0.260668
0.267245
2.08877
0.267412
1.46132
1.50721
3.94973
4.27694
2.56919
1.3561
4.00614
2.34941
2.83825
1.48437
2.89481
1.48585
2.96082
1.25141
0.532254
0.728393
1.40957
0.0130265
1.52988
3.98013
1.10529
3.37913
0.339349
1.36772
1.40423
3.7956
1.93542
2.97182
2.16405
2.96019
1.38032
0.190151
4.04146
1.68863
2.76779
3.97536
3.97338
1.45663
1.22329
1.45168
2.2248
1.42869
2.90339
3.77673
2.29354
1.45515
1.46745
2.35156
2.65367
3.20249
1.45823
1.49114
1.49228
3.99304
1.46902
1.4953
0.435751
1.31674
0.604905
0.185741
0.585437
0.328194
1.27838
1.32211
0.149625
0.999558
0.140366
3.95141
1.34921
0.697878
3.96576
3.1701
2.05656
1.1309
1.39721
0.155434
1.35871
3.04208
2.20962
1.34174
4.03067
0.54825
0.05526
1.35451
4.30666
2.16951
2.80297
0.169726
1.35999
1.34948
3.21232
0.161165
2.1305
2.73284
1.27715
1.3518
1.39599
4.27718
4.13794
4.03546
2.06941
0.61572
0.197789
0.162385
4.07313
0.160843
0.763883
1.40287
4.26681
1.67203
1.44522
3.74579
4.05295
3.04206
2.91324
1.45133
1.42964
3.97446
3.5055
3.66584
0.321507
3.42585
0.864698
1.9269
0.696116
1.37753
2.26222
4.13055
2.26166
2.24792
4.20992
1.30018
3.9938
0.954324
2.88236
3.31658
4.1192
2.24337
4.0143
1.23245
0.988304
0.52185
1.2715
4.02474
0.946644
0.831772
2.67113
0.99049
0.965689
1.07265
0.263038
2.02223
1.33292
1.58885
0.8867
1.20653
1.03491
0.622117
4.06091
3.00286
0.938962
1.35895
4.31544
2.58225
1.29449
2.75361
1.31413
2.46081
1.27708
4.04017
0.94658
4.29965
0.737068
0.655718
2.68342
0.949415
2.9214
2.58502
3.07638
0.319702
0.0216888
0.423999
0.364213
0.752001
0.208928
0.821051
0.7805
0.774695
4.16927
0.438277
4.09019
4.07648
0.570052
3.91766
1.37379
4.00309
3.78309
0.904529
3.92529
0.915658
0.0277544
3.04354
1.97764
3.82931
3.76581
2.20843
0.234406
0.495146
3.09178
3.31179
0.928775
0.900093
1.27824
3.34492
3.63698
2.82894
0.253668
0.17537
1.26653
3.12953
3.4071
3.70154
4.17869
1.30778
3.85192
3.59153
2.79938
4.29912
1.97847
2.55403
3.18059
1.22542
4.08925
0.172798
1.92786
3.5638
3.24656
3.75716
4.07154
0.292633
1.91296
1.27007
2.29756
1.2723
2.13886
2.37344
2.29223
1.66522
1.28034
1.27365
1.22249
1.68615
4.16071
1.82118
1.63353
1.72308
4.0158
3.62106
0.255724
4.08509
1.2831
1.22247
2.57528
1.05585
1.05204
1.53063
0.262209
1.03848
1.10527
0.196394
0.979775
0.954272
1.06309
1.42269
1.18835
1.20006
4.06169
0.722831
0.957393
0.625764
1.31351
0.627887
0.548462
1.24996
0.222284
0.215267
1.77045
0.6091
0.545566
4.07246
1.24492
0.884517
0.828937
0.229758
0.718704
1.24008
1.26594
1.10679
2.03929
2.74572
3.10337
2.41549
0.23525
1.08751
1.07523
1.11767
3.49867
1.75213
1.27402
4.24463
1.09951
1.74186
1.08842
1.12679
3.03178
3.10051
1.07693
1.86654
3.78865
3.74873
1.75593
1.09888
4.05563
1.09151
2.41318
1.1009
4.26927
1.11246
3.42718
1.07636
3.00738
3.56767
3.99618
3.71678
1.08928
3.58819
2.68828
3.00356
1.09873
0.381874
1.98275
2.76361
1.09908
1.09206
1.10779
1.98097
0.955226
4.20748
3.21715
0.347621
4.05584
1.00551
3.9656
0.321512
0.912451
0.984033
3.47417
1.06406
3.06569
4.16735
0.923963
1.01986
1.72175
4.11201
3.4903
3.47252
1.03404
3.64645
3.15056
1.02189
1.75044
1.47133
1.00459
0.991203
3.07714
3.68734
1.13431
1.80465
1.42721
4.03499
3.97521
4.02679
1.08617
4.04803
0.63686
3.30866
3.75833
2.23304
3.03541
1.08926
4.10019
0.437654
0.504254
0.558305
1.8938
0.561788
2.05733
2.0031
1.77073
2.20501
3.39941
1.81384
2.66472
0.122175
0.669022
1.53381
2.56105
1.02717
2.86025
3.8022
2.08208
3.33206
3.23734
0.144025
0.542396
2.99755
0.675561
0.0139942
4.09105
3.4924
3.95908
0.545706
4.08315
1.69097
3.94798
1.59762
4.00361
1.63402
4.03683
0.6226
3.6514
0.988334
3.16771
1.63245
3.25681
1.69519
4.32157
0.991723
1.40434
3.40204
3.18328
0.95692
2.18255
3.19307
0.998031
2.88614
0.315405
2.87828
0.882686
0.845034
1.40351
4.08217
0.999408
0.564708
0.994123
1.0307
1.91155
3.52047
1.15669
1.04126
1.91353
1.91617
0.0426274
3.99326
0.9967
1.36771
2.47292
3.27886
0.0307017
1.02256
4.06218
0.849417
0.764267
2.70763
0.415099
0.669891
3.75721
0.983515
4.02222
1.98442
0.581944
0.753006
2.24355
0.729318
0.997572
1.49223
0.918238
0.954486
0.908045
0.318414
2.61705
0.896668
1.3386
0.834028
1.20211
1.36621
0.865506
0.831781
4.00118
0.928184
0.747869
0.825456
4.06441
0.997024
0.79997
1.21275
3.16658
1.29031
0.889497
1.02833
0.85513
0.00910542
4.02906
1.28403
0.842162
0.62997
4.13212
1.75976
0.36011
0.815379
0.133831
1.9144
4.0508
0.806873
4.02
0.746979
0.44094
4.06419
4.0115
4.11376
0.586136
4.08703
0.179631
0.200841
0.832324
0.354222
0.302967
1.088
3.18548
4.06984
3.93832
4.15687
3.90138
2.56506
1.89682
0.589686
0.768501
0.935846
2.43415
2.76798
1.67907
3.50449
1.27334
0.857876
2.94059
1.13839
3.91386
3.93683
0.413387
3.93294
2.7464
3.64393
4.12917
0.792914
3.34735
2.78623
2.95347
2.7939
0.805945
2.19242
3.95377
4.14037
1.01028
3.88447
4.14296
4.01035
3.41802
0.642453
4.15491
0.689361
3.82385
3.80501
0.694005
0.790425
0.598385
2.50184
4.09058
1.82889
2.76239
0.620841
3.04291
4.09282
0.858127
3.48509
0.813084
3.52841
3.93498
4.15915
3.9077
1.49876
1.67122
2.00137
3.32552
0.863482
3.69406
3.73273
0.833487
3.55515
2.1511
0.832707
2.75553
3.62395
0.784497
3.95598
0.624933
3.66076
4.19911
0.735518
2.36423
0.74963
2.82422
0.796497
0.314992
4.09179
2.87842
1.4066
1.94222
2.44657
2.33446
0.278441
2.2124
2.20207
3.95219
2.90322
4.24691
3.81468
1.15151
4.00548
0.336223
0.345878
3.06414
2.64743
3.55516
3.56226
0.363889
0.308434
2.14079
4.04778
3.39747
3.81065
4.18903
0.377131
3.43004
2.89163
3.44107
3.5334
2.73059
4.08653
3.57774
3.6637
1.03181
1.12828
4.16537
0.372106
0.317938
0.726929
3.86607
4.0658
4.1193
0.686104
0.642563
3.1639
0.70947
0.699802
3.2465
4.14773
3.52946
1.24456
3.92192
2.13967
3.49996
3.52467
4.15712
0.653487
2.63539
2.663
0.701113
0.636089
0.61823
0.659196
2.84956
0.702054
4.15254
3.4461
3.19553
0.700575
0.610292
1.52709
3.35026
4.16691
2.10141
1.83929
4.14377
0.252626
0.505352
1.21226
1.92776
0.500185
0.688335
0.701765
1.48267
0.720843
4.13919
4.1556
1.63684
4.1347
2.60529
1.45926
0.652619
1.16391
1.06738
1.3086
0.67818
0.555724
0.758757
0.91163
0.594218
1.11158
1.20858
3.38067
0.597879
0.677863
1.36324
0.371676
0.694353
0.603649
0.524853
0.563022
0.619786
4.13648
0.639866
0.694882
2.49506
2.51603
4.04732
2.62044
4.12439
3.74074
3.83817
4.041
2.32126
0.569327
2.62655
4.1796
0.996047
0.254748
3.39544
0.560787
3.7708
0.55974
0.653348
1.61729
0.483172
1.46601
0.568685
0.460945
1.91489
3.45203
0.0597223
3.03745
4.27529
0.434321
3.30908
0.419631
4.01781
3.53133
0.398299
1.9139
3.44503
0.464074
4.04762
3.43591
1.7167
0.462405
0.615722
4.11196
2.11222
3.43329
1.27257
1.75953
3.75676
1.02341
0.617392
2.96383
1.56546
3.62374
1.57342
3.04967
0.562561
0.573314
0.853741
0.73958
4.15133
3.66392
0.328967
0.331619
4.3007
1.18937
4.07007
3.6813
0.542206
3.83631
0.492414
0.493599
0.485161
0.319426
0.472954
0.480343
4.3255
0.502678
2.09924
2.8967
0.167138
0.968769
2.99472
2.60962
2.98222
2.9875
0.185762
0.192119
0.200132
0.137495
0.121405
4.14693
0.141501
2.07088
0.11322
4.25104
1.3948
4.14552
2.85329
3.18324
0.442523
0.359868
0.0873072
2.61394
0.394063
3.59303
0.394367
0.440198
0.808257
0.515502
2.04831
3.21108
0.433892
3.32381
2.68065
0.328132
1.8214
4.07937
0.410172
1.98906
2.60302
0.372576
0.380657
0.515091
0.394023
2.64861
2.68378
1.63173
1.46018
0.368581
0.978694
0.934155
0.708511
4.16524
1.04483
1.82104
0.921228
3.65909
0.229002
2.23497
2.66953
0.0284911
0.602713
0.215099
0.246764
1.27748
3.48088
3.28883
3.30779
2.29889
1.97519
2.14427
0.254083
4.00856
4.18814
0.297011
3.23302
0.276525
2.24423
0.321655
3.88489
1.308
3.74557
3.33516
0.408297
0.334028
0.382228
4.07999
0.303639
3.32068
3.82863
1.76274
2.5406
4.1351
3.49833
4.0134
2.96957
3.01144
2.82641
0.0537432
0.332479
2.03664
0.329801
2.66845
2.3945
0.325698
2.61702
0.256806
0.251759
0.32008
1.73595
0.326131
2.27786
0.0381388
3.61932
0.645488
2.70581
0.257609
0.279169
2.97065
0.297373
1.29226
2.46159
0.308956
2.36152
2.10634
0.303577
0.318826
1.65578
0.275716
3.88241
2.24936
1.36987
0.266664
0.283991
1.38515
2.90483
0.037947
2.19574
0.0480893
2.39747
3.9223
1.42097
1.47436
1.44686
0.800241
2.57936
0.295495
3.05963
0.284979
1.31748
1.36145
2.5646
2.59039
1.0192
1.18952
2.59215
4.23656
0.283196
4.23407
1.2019
2.23576
0.0440925
0.530613
3.81679
0.124671
4.01942
3.8852
0.211958
3.66887
3.5777
0.186488
1.94121
0.28722
3.8693
2.27043
3.30513
1.48378
3.53786
3.94857
0.171766
2.84147
2.27746
2.26033
3.34273
3.37517
0.167375
0.0749175
0.284415
0.146095
3.53346
0.305807
0.535705
3.56289
4.03554
4.25078
3.27152
0.256222
4.01248
0.258223
0.199213
0.281918
3.58112
4.01657
4.15423
0.0966185
4.13032
4.00511
3.90555
3.9376
3.92789
4.10735
4.04101
3.81085
3.55252
3.5197
3.48753
3.55042
2.8368
0.10336
0.0683839
3.59331
2.45789
0.204108
0.268763
0.178405
0.622389
2.14715
0.19167
0.168262
2.68876
2.73032
3.60433
3.02808
2.84032
3.52925
2.85868
0.249591
3.87985
3.47344
0.230573
3.41281
3.83232
4.1692
0.238225
0.255745
0.24141
0.143193
3.78163
0.0582679
1.71725
0.164541
3.34224
3.78934
0.176859
0.131182
0.141119
0.176684
3.82276
0.106064
1.36191
0.161711
1.46405
0.153037
1.50893
1.53758
3.85402
0.64463
1.46414
1.71457
0.274684
0.124689
1.4899
0.0669273
3.11584
1.70453
1.22214
1.27841
1.98279
0.0602256
3.82251
1.61926
1.73687
3.81844
4.11798
3.84845
3.79741
3.11626
3.07266
0.0162983
2.58146
2.86692
0.0681891
3.02893
2.29416
4.00582
2.29584
0.0721365
3.49113
3.7221
3.99381
3.73191
3.83661
2.88504
1.04998
0.0747054
3.86421
0.0940748
1.70457
4.08
0.106655
3.9723
2.39359
0.131
3.5625
2.73715
2.76494
2.79026
3.78151
3.45503
0.614659
0.115113
3.04063
2.76861
1.14463
0.124355
0.0487894
3.81789
0.0859928
0.0716067
2.51181
0.125778
0.0863024
0.0649188
3.81786
2.69559
2.9075
3.78818
2.69315
0.0641163
2.19854
1.82617
2.23865
2.48095