/*--------------------------------*- C++ -*----------------------------------*\
| =========                 |                                                 |
| \\      /  F ield         | OpenFOAM: The Open Source CFD Toolbox           |
|  \\    /   O peration     | Version:  2406                                  |
|   \\  /    A nd           | Website:  www.openfoam.com                      |
|    \\/     M anipulation  |                                                 |
\*---------------------------------------------------------------------------*/
FoamFile
{
    version     2.0;
    format      ascii;
    arch        "LSB;label=32;scalar=64";
    class       surfaceScalarField;
    location    "8";
    object      phi;
}
// * * * * * * * * * * * * * * * * * * * * * * * * * * * * * * * * * * * * * //

dimensions      [0 3 -1 0 0 0 0];

oriented        oriented;

internalField   nonuniform List<scalar> 
113358
(
-1.89687e-05
3.79208e-05
-2.54331e-05
6.47927e-06
2.70941e-05
1.10706e-07
-7.87954e-06
-1.91935e-05
-2.70337e-05
2.18469e-05
-2.28194e-06
7.56523e-06
-2.16201e-05
-6.25559e-06
2.27424e-05
4.94619e-06
-1.62509e-05
1.18602e-06
2.84058e-05
-1.33169e-05
1.37964e-05
-1.42287e-05
-7.89829e-06
8.33699e-06
-8.41701e-06
3.67228e-05
-2.56012e-05
-2.46983e-06
-1.9163e-06
-3.91602e-05
2.2605e-05
1.85748e-05
9.52653e-06
7.83687e-07
1.85717e-05
-2.8875e-05
1.49202e-05
1.32723e-06
-1.60009e-05
-6.48576e-07
-4.40611e-06
1.73564e-05
-1.65922e-05
3.61879e-06
-2.19483e-05
9.00649e-07
-2.22271e-07
2.13443e-05
-5.09323e-05
6.62092e-06
1.24973e-05
3.17202e-05
2.93866e-06
-4.57489e-06
1.70537e-06
5.77284e-06
-2.93938e-06
3.08798e-05
-3.40892e-05
6.80294e-07
4.68454e-07
2.08688e-05
-2.22205e-05
6.94319e-06
2.5911e-05
-2.05375e-05
-1.22932e-05
-2.76343e-05
1.58118e-05
7.57168e-06
4.16036e-06
1.24663e-05
-4.17713e-05
4.17229e-05
-1.24312e-05
1.88945e-05
1.64287e-06
2.25817e-05
-4.32243e-05
2.57815e-05
1.88562e-06
-2.44683e-06
-2.52382e-05
-1.02125e-05
4.00667e-05
4.17651e-06
-3.42586e-05
-1.042e-06
-3.70343e-05
4.00664e-05
-1.91319e-06
-1.69311e-06
7.8968e-06
7.1432e-07
-6.80047e-06
-3.98327e-05
1.74568e-05
-3.71553e-06
2.59893e-05
-3.55556e-05
6.4252e-06
2.96799e-05
-1.00212e-06
-1.54945e-05
1.56928e-05
4.98224e-07
-6.48025e-07
-1.19461e-06
-9.30056e-06
7.46375e-06
2.97743e-06
2.64894e-05
5.84767e-07
-1.21041e-06
-4.13898e-06
4.26213e-06
-8.04017e-08
-4.86017e-06
-2.594e-05
2.80938e-05
2.6785e-06
9.96251e-06
-2.75808e-06
-1.0222e-05
2.98444e-06
1.87885e-05
-1.22832e-06
1.36177e-07
-1.77023e-05
-3.15742e-05
1.16649e-05
-1.71978e-06
2.11695e-05
1.58054e-05
9.16959e-09
-1.69042e-05
1.11318e-06
-3.11594e-05
6.90699e-06
-1.29665e-05
3.70059e-05
-4.56355e-08
-4.49785e-06
4.53438e-06
8.20755e-06
1.4228e-05
3.1244e-06
-2.57911e-05
1.00876e-05
-4.80243e-05
3.5631e-05
2.27249e-06
-2.67846e-06
4.11137e-06
2.93405e-05
-3.10465e-05
-2.21348e-05
1.82487e-05
-2.20065e-05
2.59756e-05
2.18456e-06
-2.10743e-05
-2.84087e-05
4.73594e-05
-7.6575e-07
3.79486e-05
-1.11303e-05
-2.61401e-05
7.05351e-06
-2.14276e-05
-7.78715e-06
-4.50969e-06
2.88813e-05
1.45344e-06
-2.58157e-05
-5.66006e-06
2.72525e-05
-1.79845e-05
-3.60006e-06
-2.90568e-05
-1.18867e-05
4.02284e-05
-8.0647e-06
2.73383e-05
6.3254e-07
-1.99256e-05
-3.35392e-05
2.43616e-06
-3.92397e-06
3.50344e-05
2.83694e-05
1.17117e-05
-3.74283e-05
-2.66241e-06
2.23518e-05
-1.55299e-05
2.32597e-06
-9.1425e-06
-1.89653e-05
5.81158e-06
1.9629e-05
-6.56782e-06
3.35452e-05
-8.46131e-06
1.87515e-05
-4.40191e-05
-9.06757e-06
-4.09533e-05
4.29656e-05
7.10708e-06
-3.08333e-06
1.47602e-05
-1.49712e-05
3.30355e-06
3.20118e-05
-1.17843e-05
2.12966e-05
-4.15208e-05
-1.65202e-05
2.90049e-06
2.97715e-05
-1.61216e-05
2.30922e-05
-1.12137e-05
1.03711e-05
-2.21116e-05
2.70625e-05
-6.66767e-06
-2.07924e-05
2.79691e-07
-1.05402e-05
-1.35395e-05
6.21333e-06
1.78732e-05
-2.4895e-05
-4.5103e-06
1.18492e-05
1.77111e-05
-7.26077e-06
6.34169e-06
8.8872e-07
2.6889e-05
-4.21754e-06
-2.50383e-05
2.39016e-06
-1.06424e-05
-3.14518e-05
1.14467e-05
3.06207e-05
-3.28064e-06
2.44842e-06
-3.75752e-05
3.84966e-05
2.1967e-06
1.71597e-05
1.44489e-06
-2.07769e-05
5.96347e-06
-5.27436e-06
-9.17124e-07
2.14005e-07
6.95117e-07
1.95996e-05
-2.06325e-05
4.30542e-06
-2.86163e-05
3.20544e-05
-7.79761e-06
9.22906e-06
-2.1584e-05
1.99685e-05
-7.6025e-06
1.2044e-05
-1.47853e-05
2.89653e-06
-1.45969e-05
-4.75675e-06
2.55253e-05
-6.20765e-06
-3.32086e-07
7.59773e-06
-7.27621e-06
6.05499e-06
-2.45537e-05
6.98297e-06
1.15286e-05
3.08899e-05
-2.96874e-06
-1.11179e-06
-2.66887e-05
-2.10467e-05
-2.79274e-05
2.82092e-05
2.0874e-05
2.52385e-06
-2.78481e-05
4.25042e-06
3.01938e-05
-2.32544e-05
-1.18116e-06
-5.7331e-06
-1.25705e-06
-2.62717e-07
-2.45776e-05
2.63827e-05
6.79023e-06
5.20603e-06
8.37636e-06
-2.03568e-05
1.42832e-05
-9.31985e-06
7.55882e-06
-1.32213e-05
-1.34776e-05
-8.40013e-06
2.30171e-05
-1.13476e-06
-1.79499e-05
2.37326e-05
-1.62128e-05
1.04294e-05
-6.72191e-06
3.55247e-08
6.6414e-06
-2.46371e-05
2.38743e-05
-2.35726e-05
1.86033e-05
-4.80941e-06
-1.44115e-06
-1.29194e-06
7.55578e-06
5.6968e-05
-5.43394e-05
2.04002e-06
-5.0169e-06
-2.01476e-05
4.84889e-06
1.97564e-05
-4.53153e-06
-5.76199e-06
2.62317e-05
-2.85831e-05
7.91655e-06
-1.51218e-05
-1.88155e-05
2.79838e-05
5.97585e-06
6.78605e-06
-1.1075e-05
1.70492e-05
-1.27111e-05
6.78466e-06
1.73364e-05
-3.73819e-05
1.3211e-05
-2.79717e-05
1.03881e-05
1.1388e-05
6.21904e-06
8.01305e-07
-2.19034e-05
1.71205e-05
3.96809e-06
-2.65531e-05
3.91599e-06
9.29392e-06
1.33315e-05
2.05975e-05
-1.76885e-05
6.55964e-06
-9.6094e-06
2.28393e-06
1.94636e-05
-2.26989e-05
7.37123e-07
2.2235e-05
-2.85007e-06
-2.68208e-06
-1.66497e-05
1.41293e-05
1.47699e-05
-1.24255e-05
-1.651e-05
3.90827e-06
-6.39615e-07
7.55985e-06
-1.0795e-05
8.48059e-06
3.26292e-07
-8.70654e-06
-4.00488e-07
6.41202e-06
-5.95303e-06
-1.68341e-06
5.4508e-06
-1.99986e-05
1.62398e-05
-1.77508e-05
3.84563e-05
5.03308e-07
-2.10471e-05
3.08068e-06
-1.67774e-05
1.34605e-05
7.39727e-08
-4.46118e-06
-8.4508e-06
1.12663e-06
1.1775e-05
-6.91087e-06
-1.50161e-05
4.08929e-06
1.77128e-05
-3.75181e-06
2.52219e-05
9.47213e-06
-3.11975e-05
6.23685e-06
3.23426e-06
-2.93876e-05
1.99599e-05
-4.37411e-06
2.78877e-05
-3.0399e-05
6.95173e-06
-1.48782e-05
1.48472e-05
-2.32498e-07
2.76803e-05
-3.35363e-05
5.33244e-06
2.82708e-07
1.99219e-05
8.03834e-06
-3.22977e-05
4.35399e-06
-2.18948e-05
-1.11192e-05
5.36378e-06
2.76574e-05
-8.90976e-07
-2.48798e-05
-4.33428e-07
2.61759e-05
2.1957e-05
-2.2627e-05
1.85316e-06
-1.20424e-06
1.48101e-05
-2.53951e-05
-4.86778e-06
1.55411e-05
-5.9618e-06
1.77357e-06
4.15256e-06
-2.99001e-06
-9.75375e-07
2.49625e-05
-2.10909e-05
-1.07574e-05
5.76544e-06
3.45587e-05
-2.96365e-05
-7.33887e-06
1.51929e-05
-2.36416e-05
1.58604e-05
1.24824e-06
-1.99528e-05
1.61569e-05
2.67778e-06
-2.36189e-06
-6.92484e-06
2.34833e-05
-1.4193e-05
2.14925e-05
-1.04068e-05
-7.77759e-06
-3.29931e-06
-2.52711e-06
-1.40202e-05
2.01807e-05
-3.43801e-06
1.17621e-05
-5.62051e-06
-6.10138e-06
-2.04752e-07
-2.61593e-05
-3.82432e-06
3.02273e-05
-1.44921e-05
2.05591e-05
5.23879e-06
-1.12536e-05
3.36661e-06
-9.53646e-06
1.60943e-05
-9.9099e-06
-3.11342e-05
6.54641e-06
-3.78653e-07
2.5071e-05
-2.31205e-06
-4.62871e-05
4.15686e-05
6.84651e-06
6.00534e-07
-6.91917e-06
6.50564e-06
1.9083e-05
-2.80062e-05
1.55171e-07
8.79626e-06
4.39679e-05
5.52919e-06
-4.70497e-05
-2.46587e-06
1.22228e-05
8.84631e-07
-2.85354e-05
1.55326e-05
-7.79469e-06
1.22626e-05
1.54357e-05
-2.70257e-05
-2.36276e-05
1.20694e-05
3.8435e-05
1.08136e-05
4.19864e-06
-6.36602e-06
8.86647e-06
-6.47671e-06
-3.14336e-05
2.90674e-05
9.35148e-06
2.59429e-05
-1.3144e-05
-2.20862e-05
-4.92259e-06
1.04943e-05
2.38336e-05
-2.94371e-05
1.41548e-07
4.53269e-06
-4.71024e-06
-2.09422e-05
3.33993e-06
1.21011e-05
5.57087e-06
2.37344e-05
-1.22934e-05
-1.61808e-05
4.74965e-06
2.78303e-05
-6.07882e-06
-3.38305e-06
-1.83705e-05
-2.81841e-05
4.70909e-07
-1.19436e-07
2.78824e-05
2.54284e-05
1.19224e-05
-3.6559e-05
-9.26154e-07
6.83994e-06
5.20427e-06
-1.20411e-05
1.62766e-06
-2.95281e-05
-4.70544e-07
2.81874e-05
4.75127e-05
-3.78924e-05
-3.14046e-06
-6.30645e-06
7.3329e-06
-1.51459e-06
-5.63937e-06
-2.98775e-07
-2.73484e-05
3.89114e-05
1.38459e-05
-2.5295e-05
1.55848e-05
-2.45321e-05
-1.44588e-06
1.03693e-05
-3.07463e-05
3.16648e-05
7.19371e-07
-1.40164e-06
-3.62864e-06
1.74943e-06
1.71627e-06
4.05192e-05
-4.28984e-06
1.28934e-05
-4.92139e-05
-2.8661e-05
3.74534e-05
-3.93811e-05
-1.51047e-06
2.86891e-06
2.55975e-05
-2.68462e-05
4.01433e-06
-3.97016e-06
-9.07437e-08
-1.7639e-05
-8.78833e-06
2.70637e-06
2.37915e-05
-1.18169e-05
3.16725e-05
-2.74277e-05
7.62624e-06
4.11074e-06
-8.74975e-06
6.0979e-06
-1.44524e-06
-2.75545e-06
-2.00372e-06
4.55672e-06
-3.20975e-05
2.8617e-05
3.09626e-05
-2.74969e-05
3.83576e-05
-9.09282e-06
-8.9884e-06
-2.02132e-05
2.34919e-05
-5.5343e-07
-6.46337e-07
-2.22239e-05
2.51445e-05
-3.09011e-05
4.10963e-06
1.62825e-06
4.76575e-06
1.62511e-07
-4.91139e-06
-3.80146e-06
2.30191e-05
-2.43731e-05
5.05611e-06
-1.79998e-05
1.68113e-05
-1.55358e-06
2.72377e-06
-1.76957e-05
1.5696e-05
1.58064e-06
3.61902e-07
1.72782e-06
-2.77896e-05
9.7288e-06
1.62111e-05
-9.39777e-06
-9.64279e-06
2.20698e-05
-3.0566e-06
-2.32783e-05
2.29052e-05
3.85025e-07
-4.55542e-09
-2.72053e-05
-3.63515e-05
3.4627e-05
-8.24346e-06
2.58725e-05
8.35752e-06
-2.59566e-05
4.53922e-06
2.95298e-05
4.75429e-06
-3.88694e-05
-2.09036e-05
8.4847e-06
3.21257e-05
-1.95963e-05
2.3533e-08
4.41547e-07
1.72377e-05
-1.75463e-05
3.29629e-06
3.29124e-05
-4.61629e-06
-3.15369e-05
-7.31755e-06
-5.43202e-06
6.98133e-06
5.83423e-06
7.56207e-06
-7.23149e-06
-3.02185e-07
-4.6941e-06
-1.96756e-05
1.11118e-06
-2.07359e-05
-1.32672e-07
-3.6943e-06
2.45647e-05
-2.43731e-05
2.06667e-05
1.60921e-06
2.04956e-06
-2.43886e-07
1.37565e-05
3.21689e-07
-1.39071e-05
-6.46718e-06
5.64569e-06
9.16776e-07
2.13613e-06
-3.81183e-07
2.00771e-05
-2.19581e-05
3.46158e-05
4.05822e-06
-2.90969e-05
-9.4944e-06
-3.90924e-06
-1.3315e-05
-8.7961e-06
2.43796e-05
-2.69994e-05
3.03578e-06
-5.73665e-07
6.06343e-06
-2.45801e-05
2.81888e-05
-9.66141e-06
1.64203e-05
4.35334e-06
-1.04286e-05
-1.00705e-05
-1.41603e-05
-3.35485e-05
7.14328e-06
4.03478e-05
9.06215e-07
4.7596e-06
-5.69189e-07
-4.60806e-06
1.63369e-05
-2.38158e-07
8.62834e-07
-1.67585e-05
-1.70442e-05
1.00569e-06
1.72763e-05
-1.0994e-06
2.11788e-05
6.73043e-06
-3.05747e-05
2.88111e-06
-2.65395e-05
-1.46657e-05
3.33594e-05
7.83265e-06
-7.43588e-06
3.93604e-06
-8.50012e-06
4.49962e-06
1.92717e-05
-2.43632e-05
5.41138e-07
-2.68589e-05
-2.84979e-05
1.2611e-05
4.30965e-05
-5.10092e-06
5.27655e-06
-2.27723e-07
1.84766e-05
1.20271e-05
-1.65942e-06
-2.86326e-05
-3.33473e-07
-3.78779e-06
-2.61257e-05
3.01803e-05
-1.52835e-05
4.0168e-06
3.77597e-05
-2.66111e-05
2.08285e-05
-1.63748e-05
-7.15558e-06
2.84927e-06
5.08807e-06
-6.73098e-07
-4.54402e-06
4.85099e-05
-2.22794e-05
4.13393e-06
-3.04542e-05
1.60973e-05
-1.57782e-05
2.02756e-06
-2.19417e-06
2.52696e-06
3.82882e-06
-6.34733e-06
-1.45291e-05
-1.96169e-05
4.59382e-06
2.94001e-05
-1.94336e-05
-5.14474e-07
1.94265e-05
7.19878e-07
2.24181e-05
-5.16343e-05
2.05832e-06
2.7145e-05
-1.59863e-05
-1.9359e-05
2.60606e-05
9.26538e-06
-1.28914e-05
1.42905e-05
2.64197e-05
4.12041e-06
2.26958e-05
-2.42399e-05
-2.56571e-06
2.60835e-06
1.58839e-06
-2.004e-05
1.5946e-05
-2.6182e-05
1.19085e-05
9.66346e-06
4.65992e-06
2.4563e-05
4.34204e-06
-1.36897e-06
-2.77969e-05
-3.82851e-06
-2.81201e-05
1.19631e-06
3.08074e-05
5.07551e-06
-1.87233e-06
1.93429e-05
-2.25453e-05
-2.75511e-06
-7.60193e-07
-9.03182e-06
1.19335e-05
7.82967e-07
6.65701e-06
-2.89474e-05
2.15206e-05
-1.00413e-05
-2.1001e-05
-6.61886e-07
3.16191e-05
8.40211e-07
8.93852e-06
-9.69609e-06
-5.12495e-07
1.60717e-06
1.7716e-05
-1.89336e-05
2.17579e-06
1.26622e-05
9.40961e-06
-2.42622e-05
4.59242e-07
-2.5978e-05
-1.98128e-07
2.56918e-05
4.2411e-06
-1.56192e-05
-1.22102e-05
2.3606e-05
1.09818e-05
1.38025e-05
-1.1246e-05
-1.35862e-05
2.1936e-05
1.33484e-05
-2.94021e-05
-5.91725e-06
-8.59252e-07
-6.97482e-06
7.84328e-06
5.77702e-06
2.00502e-06
-2.41251e-07
-7.59599e-06
3.67161e-06
2.23708e-06
-2.52376e-07
-5.77471e-06
2.42296e-06
-3.62447e-06
2.41308e-05
2.33836e-07
-3.39223e-05
1.1658e-05
2.21297e-05
4.64874e-05
4.99362e-06
-1.01387e-05
-4.15382e-05
-1.46115e-05
1.94524e-05
-3.55399e-06
-1.35338e-06
-1.13071e-05
1.06121e-05
-1.75949e-05
1.84081e-05
6.48884e-06
-1.83733e-07
-6.3784e-06
7.53462e-07
1.58309e-05
-2.90941e-05
1.25103e-05
6.87906e-06
-9.06812e-06
2.29452e-06
1.83621e-05
-1.0055e-05
-4.93394e-06
-2.13737e-05
1.01737e-05
-2.06819e-05
3.18683e-05
2.84441e-05
-2.65057e-05
3.95766e-06
-5.86915e-06
2.60505e-05
5.22201e-06
-2.96423e-05
-1.44591e-06
1.31903e-06
-2.97049e-05
1.03336e-05
1.80732e-05
3.45689e-05
-6.72262e-06
3.98119e-06
3.83654e-05
-4.4273e-05
3.08368e-06
-2.84369e-05
-2.59303e-07
3.04759e-05
-1.84227e-06
-1.96923e-05
-1.31657e-05
2.16189e-05
-1.02845e-05
-9.19895e-06
-1.3924e-05
3.3433e-05
1.39844e-07
2.45984e-06
3.29972e-05
-3.54648e-05
1.98553e-06
2.22667e-05
-4.06448e-05
1.63792e-05
-9.6536e-08
-3.08494e-08
2.82472e-05
-2.82703e-05
-3.45434e-05
4.90031e-06
4.0825e-06
2.53446e-05
2.11828e-05
-2.1564e-05
9.17798e-06
-8.5947e-06
1.54325e-06
1.82385e-05
-2.2294e-05
2.57659e-06
-2.44e-05
3.41786e-05
-3.20883e-06
-6.55255e-06
-2.64569e-05
2.01307e-05
5.60205e-07
5.64551e-06
-3.55224e-05
3.33243e-05
4.10168e-05
-3.87652e-05
2.37346e-05
-1.97738e-05
1.3958e-06
-5.37335e-06
-1.48128e-05
1.86627e-05
-1.22395e-05
8.42588e-06
-1.16872e-05
2.92607e-05
1.32386e-06
-1.86987e-05
-3.03645e-05
2.20082e-06
3.34749e-05
-5.31958e-06
-6.95088e-06
-3.28376e-05
-4.77501e-07
4.05986e-05
3.55058e-06
-1.40202e-05
1.20918e-05
1.55031e-05
1.49646e-06
-1.6351e-05
-5.34996e-07
1.13693e-05
2.3657e-05
-2.69812e-05
-8.01296e-06
-7.99404e-06
1.02836e-05
1.796e-05
-2.03197e-05
1.56901e-06
6.85687e-06
-4.56836e-05
3.7438e-05
2.33697e-05
-3.36488e-05
1.12981e-05
-8.0241e-07
-3.03379e-05
-4.64972e-06
8.62391e-06
-3.24834e-06
-9.34692e-07
-3.0944e-05
3.49902e-05
-4.48366e-06
-7.39134e-07
5.26393e-06
-3.82592e-06
-6.69431e-06
3.4885e-05
-2.43703e-05
1.04732e-05
-9.79799e-06
-4.16323e-07
6.53792e-07
-3.66482e-07
-1.60426e-05
1.58478e-05
-1.32997e-05
1.24929e-05
2.27181e-05
6.59414e-06
2.78834e-05
-2.12349e-05
-1.32159e-05
7.91747e-06
-9.24889e-06
1.23295e-06
-5.72936e-06
6.07792e-05
-3.57264e-05
-1.90882e-05
-2.90437e-05
3.20135e-05
1.94273e-05
-2.0405e-06
1.8502e-05
8.79502e-06
-2.5264e-05
-2.3439e-05
-8.82737e-06
3.09601e-05
1.3487e-06
-8.2723e-06
7.45528e-06
8.69739e-07
2.27184e-05
-2.38754e-05
6.09275e-08
1.20191e-06
-1.38557e-05
-8.55281e-06
1.22148e-05
1.02395e-05
-2.93957e-06
1.24631e-06
-1.56217e-05
1.7352e-05
-2.57756e-05
-6.59326e-06
2.63312e-07
3.2111e-05
-1.54864e-05
-6.63387e-06
-5.84083e-06
2.0562e-05
-4.34718e-05
-5.96831e-06
2.85094e-05
5.41287e-06
-2.60408e-05
-7.47003e-06
2.80043e-05
1.40052e-05
-1.29662e-05
-1.07095e-06
-2.27818e-05
3.71482e-05
-4.73031e-06
-9.49013e-06
-6.73617e-06
-2.54612e-05
2.908e-05
3.1157e-06
-3.3474e-05
3.35967e-05
-4.30824e-06
4.17595e-06
-1.86566e-05
-4.69258e-06
1.28448e-05
1.05112e-05
-3.06346e-05
-4.29676e-06
3.52224e-05
-2.6425e-08
-1.11717e-06
-4.14363e-07
-2.10681e-05
2.25576e-05
5.23906e-06
1.04437e-06
-6.30758e-06
-1.08667e-05
1.16776e-05
-9.07054e-07
3.84062e-05
-3.17309e-05
-4.24349e-05
3.53738e-05
4.9637e-06
5.2076e-07
-5.47797e-06
-4.51663e-05
4.32292e-05
-5.09307e-07
2.63658e-06
-1.55695e-05
1.5363e-05
-1.9942e-06
2.39958e-06
4.44779e-06
3.8875e-05
-2.26219e-05
-2.07182e-05
-2.13137e-05
-6.66741e-06
2.34127e-06
2.54558e-05
2.94411e-05
1.26822e-05
-1.24624e-05
-2.96947e-05
2.04928e-05
-7.1671e-06
3.08293e-06
-1.63941e-05
4.18372e-05
-2.61782e-06
-3.01587e-05
-9.24691e-06
-7.87382e-06
1.09294e-05
-1.10061e-05
7.86855e-06
-3.22685e-06
1.3257e-05
5.2352e-06
-1.50787e-05
-1.1055e-05
-5.80152e-06
3.14199e-05
-1.44665e-05
8.26487e-06
3.02684e-05
-2.93719e-05
-9.21872e-06
-2.2072e-05
2.25146e-05
1.39484e-05
-1.43873e-05
2.70332e-05
-2.57307e-05
-3.49452e-06
2.46377e-06
6.79029e-07
-1.78388e-05
-3.91715e-07
1.77505e-05
-9.99767e-06
2.22893e-05
-3.25058e-06
-9.05596e-06
-3.6089e-05
-1.80159e-05
2.2204e-05
3.17467e-05
1.69754e-05
-1.44825e-05
-2.9559e-06
5.11621e-07
7.35092e-06
-2.40438e-05
-2.63268e-05
4.31392e-05
1.41384e-05
-1.95817e-05
-8.77648e-06
1.43335e-05
-5.57501e-06
-4.37372e-05
1.20935e-05
3.71512e-05
1.95563e-05
-1.87986e-05
3.88935e-07
-1.16419e-06
3.27097e-05
-1.15082e-05
-3.50661e-05
1.36359e-05
1.01592e-05
1.6351e-05
-3.68966e-05
1.03003e-05
-7.03988e-06
2.40752e-05
-2.05418e-05
3.48076e-06
-2.46161e-05
2.64259e-05
2.78884e-05
-2.96655e-05
5.99661e-07
-2.23313e-05
2.0475e-05
1.324e-06
6.21302e-06
-6.74695e-06
8.35285e-07
3.2205e-05
-4.01607e-05
9.08587e-07
-4.47395e-06
8.87552e-06
3.07727e-06
-7.38367e-06
-4.64909e-06
-1.09553e-07
-2.16685e-06
7.00301e-06
1.4101e-05
-2.13932e-06
1.69666e-05
-2.42021e-05
5.84461e-07
6.66147e-06
-1.09386e-05
-4.13975e-06
1.2773e-05
1.82961e-05
-2.47261e-05
1.38597e-05
-7.39051e-06
-2.0015e-05
-3.48731e-06
2.53136e-05
-1.76682e-06
-4.04327e-05
-6.22975e-06
3.54413e-05
1.1038e-05
-3.10672e-05
8.07445e-06
6.72788e-07
2.23448e-05
-6.86222e-06
1.38644e-06
8.36013e-07
4.54797e-06
-2.18584e-05
-2.54284e-05
1.94664e-05
2.78876e-05
1.34182e-05
1.2065e-05
-2.03664e-05
-5.01827e-06
2.89899e-07
2.48064e-05
-2.21819e-05
-2.99118e-06
4.81508e-07
-1.34499e-05
2.60538e-05
-1.31016e-05
2.85096e-05
-1.98036e-05
-1.10775e-05
2.51409e-05
-2.89608e-05
5.81026e-06
-2.07725e-06
-2.76223e-06
-2.83415e-05
2.93123e-05
1.84224e-06
3.30316e-05
-2.27285e-06
-3.34161e-05
2.08807e-05
-2.38218e-05
5.72019e-06
-2.87568e-06
2.64512e-06
-1.62576e-05
-1.11732e-06
1.47666e-05
-4.48229e-06
3.84001e-06
-4.73423e-06
5.39711e-06
-2.95984e-06
8.20446e-06
2.59194e-06
-8.06281e-06
-1.02324e-05
-2.20998e-05
-1.88856e-06
3.4161e-05
1.47986e-05
6.7573e-06
-3.58215e-05
1.43819e-05
-1.98683e-05
2.11504e-06
6.02695e-06
1.16888e-05
-1.63702e-06
-2.21673e-05
2.30643e-05
-2.77169e-05
3.25989e-05
8.59259e-06
-1.32481e-05
-3.71227e-05
4.03482e-05
-1.08554e-05
7.71453e-06
-4.65962e-06
-1.39621e-05
2.57371e-06
1.60482e-05
1.13745e-06
2.92738e-05
-3.44524e-05
3.98862e-06
1.6424e-05
-5.61203e-05
1.35496e-05
2.60275e-05
5.3483e-06
-3.16281e-05
1.67296e-05
9.61935e-06
2.34769e-06
1.56375e-05
-5.75283e-06
-1.21865e-05
-5.00968e-06
2.59827e-06
5.55654e-06
-3.07187e-06
-2.44665e-06
6.41217e-06
-2.92172e-05
2.52422e-05
-1.84091e-06
-1.82974e-05
7.2293e-07
1.93956e-05
1.43546e-06
1.85968e-05
-7.58224e-07
-1.93966e-05
-9.09933e-08
-8.1009e-08
2.21011e-05
-2.15503e-05
-7.45158e-06
-1.24412e-05
2.17801e-05
-1.82281e-06
6.42653e-06
-4.29522e-05
2.0796e-05
1.58762e-05
2.779e-05
8.33611e-07
2.22539e-06
-3.08917e-05
4.53838e-06
-3.64337e-06
-8.2676e-07
1.07096e-05
2.08915e-05
-2.6219e-05
-1.76251e-05
-3.52829e-07
1.522e-07
1.8166e-05
1.38978e-06
-2.11721e-05
7.8521e-06
1.19458e-05
1.98377e-06
1.07181e-05
-1.23121e-05
-4.89571e-07
-9.07847e-06
-1.80357e-05
3.55647e-05
-8.32928e-06
3.18689e-05
-3.58797e-05
3.23628e-05
-2.8357e-05
1.49779e-05
-6.44164e-06
-2.47395e-05
1.61825e-05
-2.49044e-06
-3.44949e-06
6.24662e-06
1.94043e-05
2.15774e-06
-4.50302e-06
-1.68755e-05
-2.30234e-05
3.60387e-05
5.66787e-06
3.98385e-06
-9.7507e-06
4.8226e-07
-2.69097e-05
-4.42698e-07
2.68714e-05
2.03569e-07
-9.59588e-08
2.08064e-05
-6.17821e-07
2.58374e-05
-4.50882e-05
2.00561e-05
-8.22674e-06
-2.58687e-05
-5.07669e-06
3.92179e-05
6.22423e-06
-1.03752e-05
1.07045e-05
-6.63693e-06
-6.45341e-06
-2.85646e-05
-3.87367e-06
3.90178e-05
2.46519e-05
2.06398e-06
-2.48889e-05
-1.82503e-06
3.7633e-06
2.23499e-05
-3.62475e-05
1.00357e-05
-2.01181e-06
-1.52742e-05
-9.28115e-06
2.65012e-05
-2.86642e-05
-1.24802e-05
1.4957e-05
2.60695e-05
-1.22859e-06
-1.73702e-06
-2.24901e-05
2.54163e-05
2.88218e-05
-1.12917e-05
-6.90417e-06
-1.05853e-05
-1.90669e-05
4.51862e-05
-2.48526e-05
-1.29433e-06
1.74561e-05
3.02848e-07
-1.46773e-07
-1.78367e-05
3.12047e-05
-3.4853e-05
3.59954e-05
-3.24403e-05
-5.5254e-06
1.84135e-05
-1.56722e-05
2.77892e-06
1.11334e-05
-4.01574e-05
2.58759e-06
2.64772e-05
7.30531e-06
3.44669e-05
-2.99917e-05
-1.17577e-05
1.20365e-05
-1.29608e-05
-1.67138e-05
1.77684e-05
-2.26052e-05
-1.25383e-05
3.81602e-05
-3.09076e-06
3.31772e-05
-2.44938e-05
-4.33182e-05
3.45059e-05
1.3879e-05
1.50227e-05
-7.35027e-06
-2.13479e-05
9.8514e-08
-1.23795e-05
-8.69621e-08
8.82118e-06
-8.57784e-06
-5.35253e-06
5.00328e-06
2.37043e-07
2.35723e-05
-2.54823e-05
-2.18296e-05
2.35819e-05
-5.27561e-06
6.38585e-06
-1.86073e-05
1.7411e-05
2.7944e-05
-2.24607e-05
-4.35506e-06
-1.14271e-06
-8.1266e-06
1.95937e-06
4.65556e-06
-6.08917e-06
2.08771e-05
-5.65495e-06
-9.10399e-06
-5.35459e-05
2.04427e-06
1.64489e-05
3.4635e-05
9.76788e-06
-4.09351e-06
-1.0394e-05
4.73175e-06
5.86878e-06
2.81193e-05
-2.66198e-05
-7.27144e-06
-1.52959e-05
-3.23132e-06
2.99151e-05
-1.13826e-05
1.35902e-06
1.80623e-05
3.28233e-06
-2.26998e-05
5.60842e-06
2.00951e-05
-2.43723e-05
2.65317e-05
-1.77266e-05
-9.97843e-06
1.04991e-06
1.55034e-05
-2.07587e-05
9.00284e-06
-1.86958e-05
1.44871e-05
9.73075e-06
-5.53764e-06
7.20387e-06
9.85241e-06
1.70336e-05
-3.39809e-05
3.91322e-06
-3.05118e-05
-5.15955e-06
3.15379e-05
3.14524e-07
2.06008e-05
2.96698e-06
-2.38054e-05
8.8327e-06
1.68624e-05
-2.82456e-05
2.52924e-06
-5.00223e-05
4.28045e-05
-1.8879e-06
6.69408e-07
3.38814e-05
-3.43876e-06
-3.12308e-05
-6.45153e-06
1.35561e-05
-1.79157e-05
1.10668e-05
-2.08999e-06
-6.74938e-06
1.099e-06
7.86803e-06
-5.5231e-06
5.31139e-06
1.70697e-07
-4.51801e-06
-4.54003e-06
2.79509e-05
-1.88894e-05
-2.15691e-05
3.27146e-06
-9.22014e-06
2.74874e-05
3.87301e-05
-1.01975e-05
-1.18155e-05
-1.65096e-05
3.7793e-06
-3.15557e-05
1.08376e-05
1.70351e-05
6.18869e-06
-5.58596e-06
-2.17523e-06
1.44472e-06
-6.15198e-06
6.69211e-06
-4.47914e-07
1.90405e-06
2.91584e-05
-4.12915e-06
-2.68239e-05
-5.09054e-06
2.14807e-05
-2.77283e-05
1.14525e-05
8.83785e-06
1.49282e-05
-3.4587e-05
1.08469e-05
-3.3239e-06
2.29777e-05
1.81157e-05
-3.77971e-05
-4.1204e-05
2.04768e-05
2.52472e-05
-4.52895e-06
2.70056e-05
-2.69025e-05
5.01699e-06
-5.08738e-06
-2.99834e-05
-5.31787e-07
-1.06471e-05
7.25364e-08
9.65286e-06
-9.75137e-06
2.96129e-05
4.62107e-06
-2.52317e-05
-9.24989e-06
-3.41672e-06
-3.79063e-06
1.94672e-05
-1.226e-05
2.8082e-06
5.35893e-07
1.08525e-05
-1.40492e-05
-2.72404e-05
1.20238e-05
1.33164e-05
1.88895e-06
1.89922e-05
-2.69442e-05
-5.13838e-06
1.28631e-05
-2.12797e-05
5.98583e-06
3.43033e-05
-1.89994e-05
-6.80081e-06
9.77259e-07
5.54203e-06
-1.08375e-05
2.89436e-05
1.93058e-05
-3.74307e-05
2.43621e-05
1.53174e-07
-3.86934e-05
1.41862e-05
-2.1469e-06
2.3933e-05
-1.83228e-06
-1.9948e-05
2.47529e-05
-2.12423e-05
1.4968e-05
-1.82051e-05
-1.13407e-06
-1.84079e-05
2.07089e-05
-1.14962e-06
-1.46578e-05
-2.25544e-06
-1.05113e-05
2.75871e-05
-7.35188e-06
-7.91249e-06
-1.43076e-05
2.98741e-05
-7.86943e-07
2.49953e-05
-3.63331e-06
-2.05477e-05
2.79488e-05
-2.93552e-05
-1.17442e-07
1.58443e-06
2.89909e-05
-1.52893e-07
-1.95165e-05
-9.2717e-06
-7.75216e-06
-4.34968e-06
-2.04822e-05
3.25091e-05
-7.90895e-07
-5.51299e-06
6.19991e-06
-2.24567e-05
3.40818e-05
-3.04215e-06
-8.55353e-06
2.47919e-06
2.00552e-05
6.09331e-06
-2.88398e-05
-6.09729e-06
1.62813e-05
6.66417e-06
-1.70413e-05
-2.03288e-05
-4.00002e-06
2.10634e-05
3.59524e-06
1.46765e-05
1.24096e-05
-3.98433e-05
1.27714e-05
1.22673e-05
-8.80916e-06
3.21488e-05
-3.54751e-05
-4.2259e-06
2.60697e-05
2.31809e-06
-2.40739e-05
5.23672e-06
-5.33195e-06
8.865e-08
2.03867e-06
2.46606e-05
1.09582e-06
-2.78079e-05
3.05323e-05
-5.83469e-06
-2.67443e-05
2.13499e-06
-4.11361e-06
5.60438e-06
-2.47874e-05
2.34179e-05
-2.90361e-05
-5.52056e-06
2.47034e-05
1.01288e-05
1.76877e-05
-1.82851e-05
5.18982e-07
-4.27193e-08
-3.86139e-05
2.39105e-05
-1.26225e-06
1.60128e-05
-7.2877e-06
6.21968e-06
1.1303e-06
1.05888e-05
-9.99952e-06
1.35849e-05
-1.42737e-05
1.97609e-05
1.57379e-05
-8.01093e-06
1.14246e-05
-2.99122e-05
-1.23297e-05
3.0693e-05
1.85857e-07
-2.42782e-05
2.3311e-05
6.43199e-07
8.84463e-06
-1.75595e-05
-1.71364e-05
2.59924e-05
1.81466e-05
7.21171e-06
-3.85489e-06
-2.14535e-05
-6.34294e-06
2.0676e-06
7.93082e-06
-3.61821e-06
-3.45935e-06
3.85206e-05
-1.33293e-05
-2.19758e-05
9.29885e-06
1.2011e-05
1.02763e-06
-2.2285e-05
-9.75246e-07
5.17861e-06
-4.16777e-06
-2.99513e-07
4.20743e-06
2.4185e-05
-2.80221e-05
2.66108e-05
3.90248e-06
-1.24953e-05
-1.7976e-05
-1.05381e-06
8.37312e-06
-7.42688e-06
-2.65772e-09
2.1131e-05
5.30934e-07
-2.45262e-05
3.10204e-06
-8.42238e-06
-2.02547e-05
8.34235e-06
2.04919e-05
-4.77392e-06
2.21953e-05
3.09337e-06
-2.05618e-05
2.05263e-05
-2.15475e-06
-2.2921e-05
4.58768e-06
-3.99339e-06
6.64574e-06
-2.60844e-06
4.06451e-06
-2.15688e-05
1.91355e-05
-1.64474e-06
5.94798e-07
1.85983e-05
-1.78255e-05
-1.41397e-06
1.16318e-05
1.38257e-05
-9.89331e-07
-2.45182e-05
1.50114e-05
1.93633e-05
-1.38845e-05
4.73797e-08
6.93874e-06
-7.12808e-06
-3.34802e-05
1.62043e-05
3.12159e-05
-1.40675e-05
3.24391e-05
6.34292e-06
-3.46703e-05
-4.17678e-06
1.93614e-05
-1.24648e-05
-2.15905e-05
8.78557e-06
1.38937e-05
-2.70461e-05
-1.26564e-06
-6.35964e-06
3.47007e-05
9.64626e-07
6.48059e-06
-7.54741e-06
2.91252e-05
-1.64184e-07
-3.25256e-06
-2.57683e-05
6.74683e-06
-7.91778e-06
1.28204e-06
-2.19329e-05
4.95868e-06
-8.74908e-06
2.58398e-05
-1.8051e-05
-1.34661e-05
1.34618e-05
1.80915e-05
3.17601e-05
-2.42016e-05
-6.0058e-06
-1.48059e-06
7.20345e-08
4.54453e-06
-4.83311e-06
-4.77292e-07
-6.94052e-06
1.39573e-07
7.40403e-06
1.36703e-05
3.04644e-06
-7.82492e-06
-8.94815e-06
-2.03573e-05
2.2218e-05
-2.32829e-06
1.79855e-07
3.65363e-05
-1.9854e-06
-3.47395e-05
-1.23786e-05
-3.55197e-07
1.54684e-05
-2.84583e-06
3.61803e-06
-2.3866e-05
1.82927e-05
1.93523e-06
9.98449e-06
-1.93206e-05
1.18312e-05
-2.48771e-06
5.69533e-06
1.45371e-05
1.77007e-06
-2.20071e-05
1.22611e-05
-1.10668e-05
-1.23929e-06
2.04997e-05
-1.60761e-05
-4.19259e-05
3.72154e-05
9.70053e-07
3.3415e-07
1.82825e-05
-1.94162e-05
2.87908e-06
1.42369e-05
-1.74492e-05
3.27195e-07
1.69169e-05
-6.24639e-07
-1.57718e-06
-1.47552e-05
7.30776e-06
1.59788e-05
-2.34984e-05
2.95184e-07
2.3884e-05
-1.59751e-06
-7.42062e-07
-2.14915e-05
-2.46683e-05
9.12242e-06
8.2605e-07
1.46107e-05
-8.2951e-06
-7.23282e-06
-9.76062e-07
1.72021e-05
-2.85301e-05
2.28307e-05
-1.17625e-05
-2.99166e-06
-1.32903e-05
-2.02364e-05
3.64925e-05
-5.3875e-06
7.8942e-06
-1.08923e-06
-1.48677e-06
1.29355e-08
4.66221e-06
-4.76691e-06
-7.19428e-06
3.41211e-05
1.20416e-05
-3.91016e-05
2.19756e-05
9.27284e-06
-8.43759e-06
-2.26867e-05
2.51534e-05
-2.26422e-05
2.88516e-05
-3.12835e-05
3.69085e-05
-4.11917e-05
5.32909e-06
-1.0161e-06
-4.19162e-05
1.78108e-05
7.40687e-06
1.66498e-05
-2.27596e-05
-2.0857e-06
2.44566e-05
4.1727e-07
2.68326e-05
-3.51719e-05
1.19266e-05
-3.59612e-06
1.56586e-05
-2.02092e-05
6.39573e-06
-1.86773e-06
-1.2435e-05
1.06218e-05
-6.5409e-06
-1.71894e-05
4.95813e-05
6.06682e-06
-3.82192e-05
-8.8392e-06
-5.26907e-07
9.2638e-06
-4.06819e-06
8.50554e-06
-3.56928e-05
-3.27585e-05
-1.45088e-06
9.27812e-07
3.32149e-05
7.80871e-06
1.16625e-06
-8.79602e-06
7.97595e-06
-1.09602e-06
-2.78055e-05
2.10055e-05
-3.55727e-07
1.14678e-06
1.62098e-05
-1.7111e-05
8.35948e-06
1.47557e-05
-2.60236e-05
2.98333e-06
1.79461e-05
1.92718e-06
6.6087e-07
-2.06465e-05
-3.36686e-06
3.94355e-06
4.03582e-05
-4.08342e-05
-1.52593e-05
-3.17461e-06
5.42092e-07
1.79644e-05
-7.47514e-06
5.95402e-06
-2.27597e-05
2.41917e-05
-2.0508e-06
3.23433e-05
-2.85322e-05
-1.6722e-06
2.79136e-05
8.48639e-06
-1.28352e-05
-2.34912e-05
5.1209e-06
-3.27602e-05
2.27083e-05
-2.88343e-05
3.55223e-05
-8.24869e-07
1.40114e-05
-5.15006e-06
1.31916e-05
-2.41706e-05
-6.87435e-06
1.2477e-05
1.8554e-05
-1.13164e-05
9.64248e-07
1.01086e-05
1.91743e-07
-8.94845e-06
2.17704e-05
-1.52649e-05
2.37215e-06
-2.70718e-05
2.36748e-05
2.47135e-05
-2.13179e-05
-6.49794e-06
5.9642e-06
3.25126e-07
2.32869e-07
2.64473e-05
-3.8849e-05
-1.48091e-05
2.70976e-05
-3.38992e-05
-1.31848e-05
2.32139e-05
2.38541e-05
3.08137e-05
3.37932e-06
1.67762e-06
-3.59442e-05
2.63142e-05
-1.61924e-05
2.0666e-05
-4.34698e-05
-4.09154e-06
1.77369e-05
3.00311e-05
5.51867e-06
-4.08355e-07
-5.03653e-06
2.85457e-05
-2.64837e-05
-9.46463e-06
7.37942e-06
-2.44055e-05
-8.33825e-06
7.74763e-06
2.4748e-05
1.25162e-05
2.0024e-05
-1.14825e-05
-2.10867e-05
8.0616e-06
2.72935e-05
-2.71744e-05
-8.09978e-06
1.05056e-06
-1.2274e-05
1.12787e-05
-1.25242e-05
-9.9815e-06
1.04454e-05
1.19806e-05
2.57922e-06
2.35541e-05
-5.53603e-06
-2.07836e-05
-3.54311e-05
3.50884e-05
-6.56661e-06
-2.77838e-06
2.68085e-05
-2.54187e-05
1.41649e-06
1.7737e-05
3.59263e-06
1.04966e-05
-3.17516e-05
2.90396e-07
-4.21681e-06
4.01808e-06
-5.09724e-06
4.80032e-06
1.34547e-07
-1.72124e-05
-8.7452e-06
1.01801e-05
1.58143e-05
-2.09455e-05
-1.72507e-06
2.80229e-05
-5.42817e-06
-7.35427e-06
2.51988e-05
-2.6321e-05
8.4687e-06
-2.01376e-05
1.66157e-05
-7.07251e-06
1.06454e-05
-8.84956e-07
2.6195e-05
-2.73215e-05
1.91542e-06
-2.89942e-05
6.89245e-06
1.88174e-05
3.25972e-06
1.47614e-06
3.57521e-05
-1.38055e-05
-2.3514e-05
4.30829e-06
-6.77778e-06
-1.56948e-05
-7.7517e-06
6.22483e-06
1.64859e-05
-1.69244e-06
6.23268e-06
-2.10405e-05
-4.08862e-06
-8.79647e-06
1.01915e-05
2.30749e-06
1.91157e-05
-4.54323e-06
-1.48651e-05
1.88504e-07
1.07796e-05
-3.91455e-05
4.02677e-05
-1.18038e-05
-1.702e-05
2.8013e-05
3.4712e-06
-1.43806e-05
-4.04222e-06
3.33362e-06
2.6727e-05
-2.61036e-05
-4.1896e-05
3.09104e-06
9.33282e-07
3.81801e-05
-2.4897e-05
3.1999e-06
1.89411e-05
2.77406e-06
-1.87809e-05
1.13574e-05
2.6203e-05
-1.87334e-05
-1.77651e-05
-3.27349e-05
1.03519e-05
4.03123e-05
5.58362e-06
-3.20781e-05
-3.56853e-06
3.01378e-05
-2.23135e-05
3.71495e-06
-1.77208e-06
2.03554e-05
-2.30983e-05
-9.28453e-07
-1.37314e-06
2.53203e-05
4.50827e-06
-3.38846e-06
2.60163e-05
-2.70466e-05
1.23563e-05
-6.81989e-06
2.73813e-08
-5.51482e-06
4.35941e-06
-3.93147e-05
-7.70429e-06
4.25966e-05
-6.63949e-06
5.14531e-06
2.4647e-06
-1.0765e-06
-3.0057e-05
-7.91242e-06
1.62736e-05
2.17712e-05
-3.15517e-06
2.34787e-05
1.83549e-06
-2.21147e-05
-1.2024e-05
-1.23835e-05
9.28668e-06
-6.46485e-06
2.95977e-06
3.18888e-05
-2.83025e-05
2.68314e-05