/*--------------------------------*- C++ -*----------------------------------*\
| =========                 |                                                 |
| \\      /  F ield         | OpenFOAM: The Open Source CFD Toolbox           |
|  \\    /   O peration     | Version:  2406                                  |
|   \\  /    A nd           | Website:  www.openfoam.com                      |
|    \\/     M anipulation  |                                                 |
\*---------------------------------------------------------------------------*/
FoamFile
{
    version     2.0;
    format      ascii;
    arch        "LSB;label=32;scalar=64";
    class       volVectorField;
    location    "8";
    object      U;
}
// * * * * * * * * * * * * * * * * * * * * * * * * * * * * * * * * * * * * * //

dimensions      [0 1 -1 0 0 0 0];

internalField   nonuniform List<vector> 
59516
(
(0.146287 -0.0110149 -0.00429938)
(0.126722 -0.00252076 -0.00930914)
(0.131435 0.00220324 0.000827649)
(0.135705 0.00480754 0.00171839)
(0.116559 0.00352899 -0.00147332)
(0.0979127 -0.00260549 -0.0117649)
(0.148543 0.00282195 -0.00190196)
(0.143512 0.00667023 0.00496443)
(0.129593 0.00349225 -0.00362359)
(0.102769 0.00593572 -0.00493065)
(0.128263 0.00348817 -0.000611083)
(0.112175 0.0111039 -0.00841972)
(0.166801 -0.00360581 0.00444951)
(0.0472493 -0.00458469 -0.000258866)
(0.123007 -0.00995288 -0.00514826)
(0.093869 -0.0125611 -9.40669e-06)
(0.13488 -0.000123293 -0.000973847)
(0.124191 -0.000971613 -0.00815642)
(0.149828 -0.0133308 0.00250195)
(0.142092 -0.00153646 -0.000373606)
(0.10994 -0.00358288 6.88937e-05)
(0.144959 -0.000159783 0.00439676)
(0.14631 0.00179357 0.00017008)
(0.0733461 0.00261304 -0.00736294)
(0.141847 -0.00305363 0.00106572)
(0.113311 0.00448565 -0.0126111)
(0.0818081 0.00785685 -0.00963101)
(0.0883583 -0.0104861 0.0068923)
(0.121581 -0.00343359 -0.000771529)
(0.0414934 -0.000624559 0.00291241)
(0.116718 -0.022758 -0.00109167)
(0.0913297 -0.0148981 -0.0112314)
(0.131167 -0.00627181 0.00152244)
(0.139663 0.00667718 -0.00406661)
(0.132667 -0.00610389 -0.00379907)
(0.152294 -0.00314498 -0.00119352)
(0.0346715 -0.00512784 0.0083844)
(0.112563 0.00506696 -0.00396822)
(0.150496 0.00477534 0.00410956)
(0.145433 -0.00231749 0.00440827)
(0.138101 0.00116049 -0.00341255)
(0.143568 0.00251997 -0.00231071)
(0.147018 0.00353246 0.00469072)
(0.140328 0.000554807 -0.0094777)
(0.148983 0.00164034 -0.000624053)
(0.0936459 0.0141969 0.0130859)
(0.150996 0.00305897 -0.00891908)
(0.138586 0.00108189 -0.000610235)
(0.112866 -0.00379215 0.00944352)
(0.130422 -0.00124716 0.000904422)
(0.100731 0.0124647 -0.0109649)
(0.101359 -0.00123674 -0.00390433)
(0.151721 6.51119e-05 0.00521451)
(0.153444 0.00227542 -0.00266666)
(0.0928128 -0.0134842 -0.00601262)
(0.155962 -0.0121631 0.00343252)
(0.127384 0.00120038 0.00299927)
(0.108225 0.00369412 0.0164124)
(0.127615 -0.00414909 0.00340597)
(0.133849 -0.00113366 -0.00180741)
(0.140477 0.000650439 -0.00316119)
(0.0520298 0.000246092 -0.0036904)
(0.124692 -0.00405477 -0.00313529)
(0.132521 -0.00140567 -0.00308613)
(0.153224 -0.00392329 0.000320159)
(0.128172 0.00102794 -0.00105131)
(0.0593825 -0.00315785 0.00236664)
(0.0942469 -0.00816882 -0.00257035)
(0.123311 -1.83107e-05 0.0136436)
(0.138975 0.00226147 0.00080408)
(0.08571 -0.00197504 0.00248695)
(0.129875 -0.000681791 0.00125321)
(0.0459329 -0.000657266 0.002965)
(0.141813 0.00180891 0.000665236)
(0.131918 -0.00026842 0.00283812)
(0.14106 -5.07553e-05 -0.000318731)
(0.136034 0.000901474 0.00189439)
(0.128039 -0.00165444 -0.00317415)
(0.0960087 0.00458962 -0.0128438)
(0.123412 0.00045043 0.00093057)
(0.084415 -0.00738268 -0.0120649)
(0.1258 -0.00252257 -0.00197943)
(0.134574 -0.000903916 -0.00136069)
(0.0406271 0.000815937 -0.00612193)
(0.128568 -0.00316026 -0.00123914)
(0.132469 -0.000691834 -0.000280513)
(0.0607072 0.0100954 0.00236215)
(0.150199 -0.00105729 -0.00166708)
(0.0975098 -0.0122737 -0.0101386)
(0.147565 0.00296229 -0.00248295)
(0.127979 0.00371371 -0.00362208)
(0.12668 8.90677e-06 0.00396427)
(0.137575 -0.000641071 0.00235126)
(0.12425 7.27038e-06 0.00110521)
(0.124171 -0.00329169 0.0017277)
(0.109756 -0.00512744 0.00213405)
(0.129737 -0.00124342 0.00216408)
(0.109619 0.01085 0.00284022)
(0.112909 -0.00699072 0.00162993)
(0.132111 0.00153907 -0.000754822)
(0.0783242 -0.000860425 -0.00393309)
(0.0568986 -0.000652303 -0.00238913)
(0.0583536 -0.00131353 -0.00151243)
(0.105082 0.000840792 -0.00450909)
(0.13248 0.0024875 0.00107425)
(0.120729 -0.000594528 0.0018906)
(0.0839687 -0.00852378 -0.00476741)
(0.122892 -0.00197402 -0.0016798)
(0.136507 -0.00257404 0.0079066)
(0.137767 -0.00406434 0.00344255)
(0.134557 0.00508826 -0.0101148)
(0.0735737 -0.00619618 0.000954322)
(0.125112 -0.00198387 -0.00979298)
(0.143163 0.00864167 -0.0063061)
(0.138089 -0.00164268 0.000761867)
(0.134045 0.00339608 0.0102048)
(0.0899081 -0.00222362 0.0107863)
(0.135673 0.00460721 0.000190064)
(0.0567198 0.00138426 0.00738111)
(0.12852 0.000203315 0.00343457)
(0.137727 -0.000213919 0.00249433)
(0.129622 0.00167152 0.000369207)
(0.132079 0.000777657 -0.000137258)
(0.128323 0.00274024 0.00437235)
(0.138132 -0.00295667 0.00359225)
(0.129463 -0.00510104 -0.00607728)
(0.0716178 -6.80258e-05 -0.00710325)
(0.141547 0.0014688 0.00435508)
(0.104455 -0.00740971 0.0108858)
(0.126001 0.00370957 0.000617803)
(0.130464 0.00303329 0.00251113)
(0.146417 0.00567491 0.00434034)
(0.0567576 0.00289572 0.00249907)
(0.143813 -0.000739748 0.00282684)
(0.155034 -0.0016527 0.00118354)
(0.139561 -0.00211759 -0.00376054)
(0.141586 0.0026427 -0.00523294)
(0.154993 0.000506612 0.00435812)
(0.0805781 0.000865886 -0.0028305)
(0.138718 0.00104546 0.00847527)
(0.094018 0.00370011 0.00248865)
(0.126128 0.00227114 0.000208417)
(0.0496122 0.00558508 0.00330807)
(0.123796 -0.000133961 0.00264253)
(0.129341 0.0018957 5.96238e-05)
(0.138612 0.00254287 -0.00187688)
(0.148153 0.00334906 0.00195202)
(0.147864 -0.00631132 -4.83368e-05)
(0.062183 0.00353314 -0.00182799)
(0.141816 -0.00273652 0.00470946)
(0.155134 0.000240151 -0.00414655)
(0.0757914 0.00357649 0.0037508)
(0.143252 0.00239979 0.0041777)
(0.135601 -0.00040133 -0.000268495)
(0.143751 0.00271069 -0.00146477)
(0.0488273 -0.00176251 0.00162789)
(0.140647 0.000466707 0.00801354)
(0.151104 0.00205788 -0.000787562)
(0.142364 0.00247614 -0.00343648)
(0.0443432 0.00419646 0.00282055)
(0.116501 -0.00276624 -0.00101969)
(0.12416 0.0053614 -0.00146253)
(0.0742446 0.0114012 0.00399649)
(0.0582484 0.00105463 0.00145273)
(0.150918 0.00505362 0.00465609)
(0.139658 0.000752553 0.0023897)
(0.112849 0.00957116 -0.00157579)
(0.132258 0.00203689 -0.000467705)
(0.0517658 -0.00252937 -0.00270949)
(0.128186 0.00151238 -9.66206e-05)
(0.127035 -0.00525678 0.00923557)
(0.100179 0.000607033 -0.00200843)
(0.11807 -0.00581544 -0.00351987)
(0.126764 8.86933e-05 0.00381242)
(0.0987499 -0.00131666 0.00154894)
(0.153097 0.00412982 -0.00542033)
(0.13268 0.00359584 0.00273452)
(0.14807 0.00370752 0.00657397)
(0.128754 0.0100574 0.00839012)
(0.0939952 -0.00175652 -0.00763533)
(0.143848 -0.00154515 0.00325043)
(0.0742446 0.00585219 -0.00487456)
(0.0589888 0.00787249 -0.000204714)
(0.1142 -0.00423257 0.00802138)
(0.131415 5.43679e-05 0.00214064)
(0.0939542 0.00247714 0.00445854)
(0.0765044 -0.00149625 -0.000693395)
(0.0523032 0.00725505 -0.00452303)
(0.139409 -0.00135426 0.0010766)
(0.139299 -0.0104961 -0.00303069)
(0.143283 -0.00328184 0.00332587)
(0.104458 0.0010336 -0.0057318)
(0.137643 -0.00199342 0.00187315)
(0.105382 0.00145164 0.00234139)
(0.145552 0.000744009 0.00455879)
(0.0627768 -0.00349375 -0.00512486)
(0.102152 0.00109445 0.00391844)
(0.0788965 -0.00155925 0.00904403)
(0.135611 0.000957105 0.00514383)
(0.14707 0.000137408 -0.000558804)
(0.131603 -0.00712289 0.00657056)
(0.12179 0.000627129 -0.00222167)
(0.154383 0.00176911 0.0041326)
(0.0516392 -0.00441448 0.00135112)
(0.137586 0.00425788 -0.000472273)
(0.138027 -0.00691118 -0.000206332)
(0.135338 -0.000877286 0.000678656)
(0.125744 0.00105659 -0.00098886)
(0.0466599 -0.00410195 -0.000529016)
(0.15041 -0.00185956 -0.00649565)
(0.0851206 -0.00316075 0.00478908)
(0.0545703 0.00363458 -0.0046766)
(0.146394 0.000845646 -0.00244398)
(0.108981 5.38216e-05 -0.00361756)
(0.15413 0.00116188 0.00769347)
(0.130567 0.000983511 0.0016418)
(0.145095 0.000832838 -0.00293437)
(0.135017 -0.000149585 -0.00184244)
(0.104481 -0.00207271 -0.00772398)
(0.138636 0.000956763 0.00360999)
(0.114749 -0.00492084 -0.00831814)
(0.142029 -0.0023961 -0.00327934)
(0.124329 -0.00018398 0.00109269)
(0.104061 0.006542 0.00256864)
(0.129228 -0.00313788 -0.00227341)
(0.127074 0.000778743 0.000529454)
(0.0637188 0.00412999 0.00724756)
(0.0977514 -0.00769904 0.00471805)
(0.12799 -0.00232859 0.00314385)
(0.111026 -0.00956567 -1.5046e-05)
(0.138976 -0.0014269 7.39269e-05)
(0.124921 0.00347172 -0.00213172)
(0.13052 0.00378876 -0.000569058)
(0.0613513 0.00493564 -0.000503291)
(0.0608897 -0.00693166 0.00814774)
(0.0803252 -0.00748317 0.00102454)
(0.116853 -0.000726109 -0.00140464)
(0.132921 0.0046961 -0.0045291)
(0.137207 0.00303903 -0.000317259)
(0.0860486 0.0070396 -0.00217593)
(0.127262 -0.00139442 0.0027247)
(0.0475369 -0.00434083 -0.00330469)
(0.105628 0.00408732 0.00841433)
(0.0636301 -0.00376472 0.00509554)
(0.123074 0.0038043 -0.000537951)
(0.145383 0.00486173 0.00225306)
(0.136872 -0.0012324 -0.000114153)
(0.130886 0.00268471 0.00591028)
(0.137939 -0.000201359 0.00275687)
(0.14516 0.000603859 -0.00371342)
(0.145722 -0.00583024 -0.000148793)
(0.13676 0.000718876 -0.00334727)
(0.125469 0.00150696 0.00288788)
(0.133314 -0.000863082 -0.00313403)
(0.138641 0.00115728 -0.001226)
(0.138633 -0.00277349 0.000368561)
(0.10549 -0.00183849 0.00661684)
(0.136706 0.00267363 -0.00237475)
(0.0927617 0.00112105 0.00501975)
(0.109954 -0.0121567 0.0019262)
(0.140277 0.00635427 -0.00280004)
(0.128961 0.00429809 0.00345001)
(0.150342 0.00542258 -0.000436103)
(0.131866 -2.18607e-05 0.00117199)
(0.127737 -0.00609083 0.00707202)
(0.106282 0.00605456 0.00520248)
(0.134523 -0.00223738 -0.00553392)
(0.128945 0.0152805 -0.00272345)
(0.0986413 -0.00449057 0.0108076)
(0.0984962 0.00187723 -0.00495307)
(0.135182 -0.010096 0.00183677)
(0.128994 -1.96208e-05 0.000529753)
(0.146791 -0.00432881 -0.000200658)
(0.13305 -0.00540251 -0.00725974)
(0.130763 0.00056203 0.00110048)
(0.144861 -0.000625655 0.00895431)
(0.0520235 -0.00526754 0.00271322)
(0.13717 -0.000541767 0.00201431)
(0.0633285 -0.00588076 0.00650417)
(0.0823814 0.00127478 -0.00460216)
(0.130342 0.00125431 0.000196801)
(0.135906 0.0024892 -0.000516781)
(0.0598578 0.00900286 -0.00102349)
(0.152234 0.00575458 0.0110572)
(0.15402 0.00536013 0.0050821)
(0.129111 0.000919334 0.00171701)
(0.127908 -0.00255971 -0.00323303)
(0.0636177 -0.000392086 0.000136036)
(0.122032 -0.000781589 0.000235813)
(0.116021 -0.00106079 0.0012485)
(0.125736 3.02403e-05 0.00127697)
(0.142792 -0.00442632 0.0022786)
(0.125197 -0.000535683 0.00318193)
(0.134503 0.0043875 -0.00643204)
(0.136872 -0.00215442 6.63753e-05)
(0.0719687 -0.00038718 0.00641218)
(0.131411 -0.00274885 0.000974578)
(0.141805 0.00333457 -0.00114606)
(0.131485 -0.00225218 -0.000593795)
(0.123604 -0.0018543 0.00139583)
(0.145045 -0.00116871 0.00696565)
(0.0965676 0.012948 -0.000284261)
(0.0551878 -0.00217 0.00545139)
(0.0727803 0.0054592 -0.00357382)
(0.154721 -0.00270092 -6.11123e-05)
(0.0435611 0.00226755 -0.00197214)
(0.124726 -0.000177232 0.0101259)
(0.0993193 -0.00886703 0.00712353)
(0.139798 0.00183825 0.00241107)
(0.133062 -0.00190466 -0.00273623)
(0.140614 0.00354759 -0.000109391)
(0.111525 -0.0060135 0.00678136)
(0.134362 -0.00152781 0.00134402)
(0.0935881 0.00138631 0.00921817)
(0.103712 -0.00263073 -0.0133217)
(0.123099 -0.00281122 0.00243568)
(0.146858 -0.00256034 0.00225243)
(0.106379 0.00852144 0.00109454)
(0.126578 -0.00825618 0.0012742)
(0.0838737 0.0039101 -0.00167352)
(0.115771 0.00476805 0.000128837)
(0.150492 -0.00239321 -0.00399096)
(0.125837 0.000406874 -0.000190829)
(0.139769 0.0017325 0.00405957)
(0.134868 0.000518108 0.00418339)
(0.142324 0.00334731 -0.00216794)
(0.131419 -0.0105555 0.000949631)
(0.137982 0.000429158 -0.000779792)
(0.130292 0.00306029 -0.000613821)
(0.131879 0.00288582 0.00286819)
(0.13887 -0.00125567 0.00261854)
(0.109817 -0.00509807 0.00479781)
(0.0555615 0.0052234 -0.0054406)
(0.13623 0.00264421 0.0038238)
(0.0875166 -3.2116e-05 0.00221776)
(0.0730814 -0.00693753 0.00942823)
(0.135886 0.00302266 -0.00103022)
(0.131719 -0.00475392 -0.00197984)
(0.104632 -0.0120767 -0.00574387)
(0.134894 0.000113687 -0.00031149)
(0.132301 0.00218371 0.00230707)
(0.129168 -0.00145096 0.00078933)
(0.133377 0.00149113 -0.000794441)
(0.0703477 -0.00184185 -0.00621124)
(0.139456 -0.00148708 -0.00254568)
(0.126552 0.00296406 0.000427525)
(0.114906 0.00245527 0.00111467)
(0.127347 -0.00203486 0.00104291)
(0.128795 8.99724e-05 0.00572167)
(0.136844 -0.000976974 -0.000777638)
(0.136176 -0.0046878 -0.00282023)
(0.131092 -0.00407007 -0.001981)
(0.128026 0.00492913 0.00138)
(0.100172 0.00539495 -0.00114518)
(0.0714277 0.010335 -0.00942913)
(0.0632469 0.0119007 -0.00291502)
(0.144903 -0.00500482 0.00161053)
(0.131664 -0.00996399 0.00572365)
(0.102413 -0.00799503 -0.0144637)
(0.123994 0.00541045 0.00792962)
(0.137807 -0.00301554 -0.000475981)
(0.151728 -0.00524488 0.00386963)
(0.122624 0.00104153 -0.000421114)
(0.147649 -0.00500314 0.0014402)
(0.148802 -0.00198514 0.0038614)
(0.131998 0.00224545 0.00189315)
(0.126425 0.00189302 0.00157384)
(0.0740439 -0.00376086 -0.000643072)
(0.119306 -0.0251274 0.000267255)
(0.113263 0.0081858 -0.00288116)
(0.0782 -0.00419473 0.00994495)
(0.0929084 -0.0143429 0.00146551)
(0.127817 0.000621427 -0.000266189)
(0.144445 -0.0001096 -0.000786693)
(0.14133 0.000799921 -0.00169889)
(0.0547606 -0.00306963 0.0068686)
(0.138034 -0.00539662 -0.000265356)
(0.0904714 -0.00718966 -0.00961551)
(0.128763 -0.00349578 0.0025167)
(0.0903992 0.00956997 -0.000773348)
(0.117205 0.00320604 -0.00752343)
(0.151415 0.00204605 -0.00137403)
(0.129025 0.00256103 -0.00185728)
(0.049958 -0.000290436 -0.00212674)
(0.1073 0.00484625 -0.00258581)
(0.134588 -0.0039678 0.00131617)
(0.0554827 -0.00123997 -0.00303634)
(0.136071 -0.00295456 0.00330439)
(0.133788 -0.00498378 0.00566015)
(0.141261 0.00242681 -0.00461465)
(0.136815 0.000848392 -0.00948996)
(0.109438 0.00411016 -0.00321238)
(0.141369 -0.00288918 -0.00328288)
(0.115356 -0.00108886 0.000740685)
(0.131686 0.00309916 0.00227718)
(0.139604 0.00248322 0.00109866)
(0.122926 -0.0198094 -0.00575848)
(0.104135 0.00653118 0.00148021)
(0.132797 0.000355097 -0.00125304)
(0.140303 -0.000684625 0.000245338)
(0.102128 -0.00270368 0.00947578)
(0.152903 -0.0037485 -0.00189112)
(0.131502 -0.00143257 -0.00372599)
(0.136158 -0.00251433 0.000364603)
(0.137256 -0.000793239 -0.00100717)
(0.101123 0.00325438 -0.00966656)
(0.14052 -0.000365981 0.00166002)
(0.149524 -0.00429859 0.00212808)
(0.141978 -0.00123824 0.00275007)
(0.141549 0.000322011 0.00144535)
(0.0455273 -0.00477515 0.00607793)
(0.0462537 0.000882558 0.00306184)
(0.138201 0.000205849 -0.00455741)
(0.128119 0.000280245 -0.0032844)
(0.129436 -0.00233883 0.00022517)
(0.0767366 -0.00357135 4.53004e-05)
(0.1168 -0.00134362 0.000707638)
(0.157799 0.00536793 -0.0058091)
(0.118767 0.00333769 0.000470871)
(0.136336 0.00198634 -0.000466571)
(0.133246 -0.00273794 -0.00376088)
(0.129066 -0.000367002 0.00169173)
(0.1316 0.000973922 0.0028129)
(0.132124 0.000629007 0.00978356)
(0.129274 0.00361059 0.000790336)
(0.107082 -0.00845345 -0.00447747)
(0.131731 0.000829502 -0.00190482)
(0.144677 -0.00354841 -0.00271047)
(0.128828 0.0025515 0.00233937)
(0.126967 -0.000813971 -5.48882e-05)
(0.148467 0.00374058 -0.00156367)
(0.139984 0.000531472 0.0020966)
(0.0959293 -0.000892656 0.00618497)
(0.0746269 -0.00155607 -0.0138338)
(0.0543866 -0.00601815 -0.000970784)
(0.124832 0.00212616 -0.000524428)
(0.132345 -0.000179442 -0.00309201)
(0.136518 0.00257652 0.00617239)
(0.13483 0.00187277 0.00640157)
(0.0545003 -0.0103219 -0.00267738)
(0.0583109 -0.00934442 0.00894831)
(0.137917 -0.00183277 -0.00098876)
(0.133962 0.00518636 0.00294431)
(0.133222 0.000650632 0.00134013)
(0.148145 0.00276246 -0.000227519)
(0.147445 -0.000570504 -0.000746116)
(0.126064 0.000940974 -0.00195625)
(0.147653 -0.000436227 -0.000151373)
(0.0642982 -0.00661183 0.000735432)
(0.132258 -0.00492076 -0.00700367)
(0.10261 0.00143143 -0.0016078)
(0.0926856 -0.00658171 0.00324424)
(0.131631 0.000138612 -0.000390069)
(0.136726 0.0125827 -0.00831063)
(0.145532 0.000237368 0.00136545)
(0.0577781 -0.00261705 0.00901858)
(0.142892 0.00347163 -0.000518767)
(0.132489 -0.00279169 0.00246324)
(0.126984 0.00278656 0.00295331)
(0.130518 -0.00249889 -0.00553355)
(0.127113 0.000285045 0.00283107)
(0.126969 0.00278578 0.00155242)
(0.128558 0.00123028 -0.00669227)
(0.128123 -0.00193323 -0.000150617)
(0.138101 -0.0110693 -0.0027781)
(0.130878 0.000132665 0.000792614)
(0.143757 -0.000389559 -0.00239768)
(0.0464376 -0.00635218 0.00915825)
(0.132133 0.00283704 0.000113807)
(0.135373 0.00423595 0.00151406)
(0.0913051 -0.00611625 -0.00208896)
(0.135787 -0.00301366 -0.00818323)
(0.13724 0.00213073 -0.00229382)
(0.148745 0.00105656 0.00091555)
(0.139233 0.00248946 -0.00406764)
(0.0410753 -0.00548939 0.000796647)
(0.133335 -0.000933178 -0.00534069)
(0.136587 0.00123811 -0.00356267)
(0.134534 -0.00343523 0.00150241)
(0.141301 -0.0117795 -0.000251966)
(0.0864192 -0.00360968 -0.00416157)
(0.138684 -0.00620053 0.00014883)
(0.057799 -0.00815375 -0.00751764)
(0.130068 0.000293918 0.00126463)
(0.101407 0.0108948 -0.00736167)
(0.129233 -0.0016905 0.00368111)
(0.110436 0.000163182 0.00710196)
(0.124615 -0.00165311 0.0057095)
(0.128933 -0.00881148 0.00122674)
(0.0727077 0.00140659 -0.00767767)
(0.127678 0.00165748 -0.00174746)
(0.12436 0.00151688 -0.000949147)
(0.0552426 0.00660181 0.00522901)
(0.129207 -0.00480865 6.55905e-05)
(0.119319 -0.00216209 0.001666)
(0.0813321 -0.00287152 -0.00299291)
(0.113491 -0.00713545 0.00183445)
(0.110335 0.00491877 -0.00321158)
(0.126974 -0.00296187 0.00244828)
(0.124337 -0.000183848 0.000449686)
(0.0606092 0.00424011 0.0018506)
(0.102114 0.00108063 0.0127873)
(0.10262 0.0084031 0.00573704)
(0.132131 -0.00329923 0.00308206)
(0.124055 -0.00151971 0.000548244)
(0.0492559 -0.0012687 0.00247861)
(0.143241 0.000245907 -0.000258954)
(0.138077 0.000583854 0.000528165)
(0.129288 0.002601 0.00166251)
(0.0892354 0.00072587 -0.00297308)
(0.143702 0.00110841 0.00144352)
(0.053285 0.00480662 0.00504318)
(0.13725 -0.00380768 -1.10576e-05)
(0.0625192 0.000399758 -0.00110371)
(0.114174 0.0106889 0.00677262)
(0.131566 6.0024e-05 0.000561538)
(0.115622 0.00195291 0.00107774)
(0.0542144 -0.00289287 0.00124359)
(0.0826901 -0.0104022 0.00414312)
(0.0938246 0.00815673 0.00809835)
(0.114735 -0.0142159 -0.000324349)
(0.145222 0.000134403 0.00200622)
(0.0752221 0.00417339 0.0111289)
(0.111306 -0.00385075 -0.000682219)
(0.125482 -0.00224707 -0.00281377)
(0.125149 0.00363513 -0.00136992)
(0.0696941 -0.00871201 0.00398097)
(0.15599 0.00696641 -0.00506742)
(0.119569 0.00567435 -0.00830066)
(0.130147 -0.00163328 0.00209431)
(0.10745 -0.000850467 -0.000732902)
(0.123963 0.00250123 0.0010966)
(0.11356 0.0108651 -0.0135289)
(0.123914 -0.00445315 -0.00141016)
(0.128505 0.00316099 -0.00391767)
(0.112298 -0.00593136 0.00313796)
(0.128734 0.0038573 -0.00123871)
(0.0977694 -0.00814214 -0.00133114)
(0.042763 0.0029578 -0.00062971)
(0.136267 -0.00423558 0.000207594)
(0.12751 0.00499781 -0.00428215)
(0.139216 0.002327 -0.00237231)
(0.142808 -0.00688718 0.00101792)
(0.134846 -0.00154178 0.00124026)
(0.119828 0.000490265 0.00840088)
(0.138553 -0.00326353 0.00187732)
(0.114458 -0.00718273 -0.00360664)
(0.126838 0.00132036 -0.00400217)
(0.144125 -0.00729855 0.00351386)
(0.0757308 -0.00665223 0.00490482)
(0.153883 -0.00290508 -0.000553395)
(0.100445 -0.0111365 0.00255486)
(0.0676538 0.00716196 0.0070113)
(0.146264 -0.00128038 0.00305842)
(0.0920646 0.000381705 -0.0045143)
(0.132757 -0.000599884 0.000696061)
(0.129388 0.00147316 0.00132017)
(0.150129 -0.000921875 0.00162186)
(0.0886954 0.0148343 -0.0118324)
(0.138036 0.000418693 0.000605186)
(0.129258 -0.00210902 0.00412976)
(0.135285 0.00203948 0.00364041)
(0.131639 0.00381739 -0.00206063)
(0.133763 -0.00206306 0.00247079)
(0.128188 0.00418626 -0.00243141)
(0.0947485 0.00289427 0.0081892)
(0.098209 0.000337865 0.005856)
(0.122946 0.00525063 -0.00107338)
(0.137309 0.00100624 0.00269)
(0.062512 0.0112797 -0.00141722)
(0.130395 0.00186591 0.000985078)
(0.138902 0.00112897 0.00479489)
(0.138356 -0.00107895 -0.00421404)
(0.136577 -0.000562863 -0.00324333)
(0.153346 -0.00805705 0.00309964)
(0.0582816 0.00243129 0.00286042)
(0.137243 0.00394016 0.00225459)
(0.138244 0.00549765 -0.00125924)
(0.128265 -0.00125438 0.000333139)
(0.13493 -0.00334884 0.00611265)
(0.0713779 0.00454844 -0.0053197)
(0.12993 -0.000336751 -0.000818826)
(0.131056 0.00063691 0.0063967)
(0.141964 0.00411756 0.00402051)
(0.132002 -0.000912253 3.58612e-05)
(0.125344 -0.00777157 0.00181358)
(0.0436474 -0.00217829 0.00232645)
(0.0514851 0.00218827 0.000134346)
(0.123072 0.000184583 0.00359118)
(0.127315 0.000255202 0.000627385)
(0.131106 -0.000798536 0.00448038)
(0.129886 0.00150568 0.00655081)
(0.132815 -0.0089741 -0.0028478)
(0.134549 0.0022239 -0.00133489)
(0.136332 0.000336582 0.00327177)
(0.0575555 0.000536037 4.59481e-05)
(0.119883 -0.000320426 0.00291127)
(0.138936 -0.000402314 0.00388778)
(0.0873555 0.00605814 0.00125087)
(0.103424 0.00274859 0.000440144)
(0.157504 -0.000594863 0.00135584)
(0.13651 0.00152274 0.000985491)
(0.134491 0.0011346 0.00185892)
(0.144922 -0.00297412 0.000634032)
(0.143438 -0.00486048 0.00261374)
(0.131241 -0.00220547 0.001204)
(0.138221 0.00461591 -0.00775512)
(0.141696 -0.00102702 -0.00278668)
(0.124858 -0.00300195 -0.00147143)
(0.129403 -0.00285191 0.00288985)
(0.127847 -0.00110388 0.00577441)
(0.0794824 0.00890312 -0.00411651)
(0.139107 -0.00275087 -0.000369818)
(0.0693934 0.00224238 0.00540232)
(0.107555 -0.011003 0.0118001)
(0.104769 0.0101043 -0.00843129)
(0.12585 0.00168823 -0.00333684)
(0.139766 0.00592615 0.00308776)
(0.140182 -0.0110951 0.00315332)
(0.121088 -0.002848 0.000688558)
(0.134578 0.00257351 -0.00358571)
(0.141528 0.00230759 0.00294923)
(0.124939 -0.000726176 0.00178729)
(0.0751549 -0.00758233 0.0084477)
(0.0989404 -0.00339788 -0.00319584)
(0.112698 -0.0036982 -0.00782007)
(0.124816 -0.000711384 -0.00102104)
(0.125297 -0.00253677 0.0030062)
(0.144752 0.00319833 -0.000440299)
(0.12482 0.00156179 -0.000872733)
(0.144437 0.0130038 0.00469052)
(0.0764195 0.00539758 -0.00288092)
(0.0985941 -0.00954639 -0.0104451)
(0.0577049 -0.00284148 0.00864937)
(0.0556086 -0.00012048 -0.00628339)
(0.0700095 -0.000442803 0.00196141)
(0.148902 -0.000951495 0.00191256)
(0.132793 0.00342336 0.000601589)
(0.055214 -0.000459025 0.00144834)
(0.0512153 -0.00597086 0.00190505)
(0.132014 -0.000735916 -0.00248577)
(0.115655 -0.00518439 0.00880879)
(0.0831811 -0.0041322 -0.00087953)
(0.138688 0.000631145 0.00128358)
(0.117753 0.00253084 0.00258769)
(0.139332 0.00106101 -0.000805268)
(0.0960695 -0.00614022 0.00640303)
(0.102724 0.00950795 -0.00645152)
(0.135329 0.00062922 -0.00186102)
(0.130539 -0.00238272 0.00095823)
(0.142584 -0.00203306 0.00137519)
(0.0645653 -0.00747431 0.0128233)
(0.0561569 -0.00238701 0.000166344)
(0.108384 -0.0131359 -0.019153)
(0.0563493 0.00274845 0.00708092)
(0.151216 -0.0057257 -0.00263211)
(0.0605866 -0.00420977 0.0097944)
(0.138531 -0.00356373 0.00338601)
(0.125813 -0.00479456 0.00429286)
(0.136441 0.000291132 0.000833914)
(0.0944687 0.00632059 0.0120866)
(0.130541 0.00294003 0.00590044)
(0.0877589 0.00290325 0.001645)
(0.0627478 0.00282476 -0.00275382)
(0.127527 0.0011664 0.000216022)
(0.0414864 -0.00218267 0.00445586)
(0.127687 -0.000495141 0.00139583)
(0.101083 0.00981201 0.00186602)
(0.134361 0.00240103 -0.00182558)
(0.135831 0.00536047 0.00159581)
(0.0456472 -0.00231013 -0.00156943)
(0.118741 -0.00211727 -0.00988061)
(0.12816 0.00593192 0.00191168)
(0.0663886 0.00877538 0.0100919)
(0.127344 -0.00121137 -0.00121368)
(0.105272 0.00607073 -0.00469037)
(0.1471 0.00141303 0.00276425)
(0.127891 -0.00121446 -0.0011164)
(0.0809728 -0.0064078 -0.0038529)
(0.0498474 -0.00160312 0.00647753)
(0.106952 0.00544116 -0.0130608)
(0.112242 0.0133512 0.00289126)
(0.134767 0.00494148 0.00869077)
(0.0966698 -0.00340384 -0.00113872)
(0.134912 -0.000781279 0.00431842)
(0.0672553 0.00247874 0.00189911)
(0.128435 -0.000631083 -0.00118711)
(0.0573984 -0.00423948 -0.00593422)
(0.136458 0.000781633 -0.00328599)
(0.142579 0.00217019 0.00406948)
(0.122781 -0.00185034 0.00132329)
(0.0380173 0.00109582 -0.00307663)
(0.147586 -0.00374442 0.000820753)
(0.140228 0.00198409 0.00186841)
(0.145588 -0.000860597 4.52933e-06)
(0.105844 0.00388172 -0.00037349)
(0.11024 -0.0110008 0.00921417)
(0.138606 -0.00361587 -0.000607517)
(0.0954842 -0.00446478 0.0123031)
(0.130575 -0.00424288 0.000809554)
(0.10414 0.00706893 -0.017372)
(0.133957 -0.000789581 0.00332912)
(0.0652969 -0.0019817 0.0094965)
(0.0969747 0.000864316 0.00250103)
(0.128798 -0.00159766 -0.00120036)
(0.138963 -0.000495498 -0.00294108)
(0.0705908 -0.0162521 -0.00211518)
(0.141808 0.0011302 -0.00167949)
(0.115453 0.0131356 -0.00362367)
(0.0599519 0.0022999 -0.00720785)
(0.130557 0.000518301 -0.00183604)
(0.102172 0.00106464 0.00385213)
(0.155347 -0.00411593 -0.00460183)
(0.129384 9.23048e-05 -0.0028293)
(0.129409 0.00102933 -0.000114226)
(0.131498 -0.00060688 -0.00208225)
(0.139568 0.00311212 -0.00517718)
(0.104164 -0.00570008 -0.00341453)
(0.0795316 0.0030244 0.00360409)
(0.138425 -0.000811998 -0.000394159)
(0.107033 -0.00882576 0.00633135)
(0.136973 -0.0041629 0.00234997)
(0.139015 0.000946427 0.00255039)
(0.125896 -0.00165876 0.00644752)
(0.138167 0.000745435 -0.000686018)
(0.129252 -5.85411e-05 0.000578201)
(0.137448 0.00539676 0.00590556)
(0.150437 0.000987445 -0.00960618)
(0.0774314 -0.00155932 0.00896083)
(0.127567 -0.00428624 0.00654551)
(0.0908057 0.00884185 0.0125497)
(0.134656 0.00200007 0.00397864)
(0.131715 -0.0014506 0.00214305)
(0.146428 0.00430479 -0.00442999)
(0.134388 0.0118458 0.00427979)
(0.0544803 0.0015675 0.00274193)
(0.108803 -0.00480689 -0.00182982)
(0.112922 0.000199262 -0.00516659)
(0.126366 0.000440915 -0.00231137)
(0.132192 -0.00223215 0.00241425)
(0.102496 -0.00730336 0.00740156)
(0.135139 0.00228011 0.00258043)
(0.119472 -0.00114653 -0.0110977)
(0.101818 -0.00481444 0.00760755)
(0.14729 -0.000823291 0.00139922)
(0.0624532 -0.000551018 0.00512135)
(0.131539 9.88796e-05 2.77344e-05)
(0.0892104 3.09546e-06 -0.000878539)
(0.130859 0.000362027 0.00413003)
(0.0671377 0.00542979 -0.00927886)
(0.13182 0.0033244 -0.00734735)
(0.100523 -0.00322908 0.00301849)
(0.131213 0.000163723 0.000864758)
(0.145865 0.0027535 0.00412833)
(0.125891 -0.00038086 -0.00355977)
(0.131645 0.00166891 -0.00112794)
(0.126851 -0.00359963 -0.000766339)
(0.0618991 -0.00282799 -0.00169426)
(0.0914153 -0.00486458 0.00207611)
(0.0552084 0.00450903 0.00149132)
(0.131945 0.00137995 0.004665)
(0.130031 0.000887118 0.000154526)
(0.129589 0.00534275 0.000354584)
(0.141008 0.00195321 -0.000470846)
(0.0468574 -0.00293056 0.0114587)
(0.145627 -0.00258914 0.0048261)
(0.123094 0.00278352 -0.00701999)
(0.13142 0.000289959 -0.000604554)
(0.136 -0.00557081 0.0102324)
(0.13112 -0.000989601 0.00106801)
(0.138542 0.00557523 -0.000514352)
(0.125743 0.000915517 0.00405092)
(0.0441761 0.00164006 0.00161186)
(0.118875 0.00158761 -0.0018492)
(0.126196 0.00208331 0.00140749)
(0.071729 -0.00696119 0.00325795)
(0.0888301 0.00614843 -0.00642571)
(0.113589 0.0102384 -0.00460366)
(0.0510506 0.00283444 0.00070725)
(0.134137 -0.000355358 0.00696667)
(0.123294 0.00079114 0.000137358)
(0.111814 -0.00808524 -0.00179753)
(0.0425383 0.000479131 0.00126302)
(0.138957 -0.00210385 0.00499773)
(0.0659703 -0.000151175 -0.00259762)
(0.138589 0.00227929 -0.0027529)
(0.130848 -0.0012886 0.00413124)
(0.132979 0.00118881 0.00131646)
(0.127362 -0.00329938 2.12098e-05)
(0.136206 0.00152328 -0.00380379)
(0.129122 0.000216077 0.00290445)
(0.152598 -0.0038862 0.00757586)
(0.0916437 0.00594553 8.18245e-06)
(0.134656 -0.000885463 0.00182287)
(0.145873 -0.00574062 0.00149356)
(0.122805 -0.00714266 -0.002297)
(0.137692 -0.00832566 -0.00691558)
(0.132767 0.000242531 0.000644335)
(0.150049 0.00315174 0.00135529)
(0.126769 0.0101158 0.0151898)
(0.14353 -0.00187986 -0.00386776)
(0.0694814 -0.000105277 -0.00387782)
(0.139755 0.00545101 0.000226341)
(0.130688 0.00422639 -0.00736914)
(0.109291 0.000810459 -0.00448291)
(0.132437 -0.000853168 0.000216592)
(0.119431 -0.0165226 0.0130882)
(0.146041 -0.00358372 -0.000929886)
(0.0723058 8.20975e-05 0.00557353)
(0.055936 -0.0110747 0.000429168)
(0.115267 0.00100762 0.0123363)
(0.0497104 0.00445723 0.00514319)
(0.14088 0.00124636 -0.00107228)
(0.124689 0.0037942 -0.0011865)
(0.137179 -0.00114347 0.00422632)
(0.144127 -0.00127423 -0.0106736)
(0.119655 0.00292202 0.0017579)
(0.121057 0.00322888 0.00203808)
(0.0479004 -0.0106809 -0.000723395)
(0.121678 -0.00058756 -0.00339832)
(0.129389 0.00492137 0.00638778)
(0.0936579 -0.00454426 0.000974565)
(0.0497617 0.00466075 -0.00262584)
(0.12961 -0.00149859 0.00629994)
(0.152486 0.00249544 -0.00547522)
(0.0638161 0.00340823 0.00261946)
(0.143597 -0.00380367 -0.00635545)
(0.0481314 0.00695542 0.00681931)
(0.132055 -0.0016336 -0.000983084)
(0.139956 0.00144564 -0.00233972)
(0.135856 -0.00373952 0.00115523)
(0.13603 -0.00173809 0.00129282)
(0.135948 -0.000942662 0.000809774)
(0.141575 0.00697752 -0.00524479)
(0.127074 0.000742407 -0.00206707)
(0.0381674 0.00198874 0.0032063)
(0.0605964 0.00973676 -0.0002149)
(0.141373 0.0082721 0.00556365)
(0.125639 -0.00316312 -0.00815551)
(0.043513 -0.000421292 0.00689157)
(0.124865 -0.00212376 0.000151911)
(0.144713 -0.000787038 -0.00466159)
(0.135353 0.000970156 0.000805236)
(0.126496 -0.00367421 0.0017665)
(0.127711 -0.00813403 -0.00508015)
(0.131146 0.00253147 0.000170979)
(0.135574 0.000837387 0.00366846)
(0.138318 0.00321085 -0.0057144)
(0.086164 0.000923283 0.00102952)
(0.126019 -0.00200501 7.62007e-06)
(0.120858 0.00341834 0.000356178)