/*--------------------------------*- C++ -*----------------------------------*\
| =========                 |                                                 |
| \\      /  F ield         | OpenFOAM: The Open Source CFD Toolbox           |
|  \\    /   O peration     | Version:  2406                                  |
|   \\  /    A nd           | Website:  www.openfoam.com                      |
|    \\/     M anipulation  |                                                 |
\*---------------------------------------------------------------------------*/
FoamFile
{
    version     2.0;
    format      ascii;
    arch        "LSB;label=32;scalar=64";
    class       volScalarField;
    location    "30";
    object      epsilon;
}
// * * * * * * * * * * * * * * * * * * * * * * * * * * * * * * * * * * * * * //

dimensions      [0 2 -3 0 0 0 0];

internalField   nonuniform List<scalar> 
59516
(
0.0173094
0.0167287
0.0137115
0.0128312
0.00951811
0.345417
0.0121492
0.0160493
0.0146995
0.0342243
0.008821
0.0326489
0.0138791
0.10432
0.0292023
0.0340195
0.00865946
0.0414376
0.0168064
0.00852597
0.0401532
0.0100645
0.00934195
0.0469963
0.00899878
0.0262046
0.04635
0.0496478
0.0289291
0.0806295
0.0460791
0.044871
0.0116444
0.0149124
0.0120764
0.0098188
0.0770185
0.0471151
0.0207853
0.00906743
0.0162773
0.0109271
0.0101884
0.0183448
0.0105307
0.0346706
0.0123056
0.0087434
0.0128042
0.0104212
0.0271597
0.0383453
0.012969
0.0126884
0.0342347
0.0130479
0.0108366
0.0405784
0.00872089
0.013536
0.0100221
0.0619995
0.00914111
0.0089152
0.0126942
0.0108883
0.078357
0.0384735
0.0202879
0.011872
0.0376873
0.00936556
0.0607297
0.010894
0.00812095
0.00918047
0.00880473
0.0101406
0.0356682
0.0105603
0.0446297
0.0111505
0.0121134
0.067512
0.0112437
0.00828432
0.047282
0.00944342
0.0320477
0.0277073
0.0105955
0.0115263
0.00825378
0.011836
0.00961541
0.0108431
0.0114036
0.0353082
0.0358384
0.0102801
0.0382116
0.0593527
0.058967
0.0316326
0.0117025
0.0108309
0.0445906
0.0161884
0.0170352
0.0256277
0.0204132
0.0334087
0.0278693
0.0307159
0.00890064
0.0189624
0.030007
0.0122892
0.0568302
0.0102509
0.00813613
0.00935653
0.00930682
0.00930498
0.0161407
0.0231198
0.0563396
0.013984
0.082298
0.00812
0.00815907
0.0147705
0.0574043
0.00941545
0.0165261
0.0135207
0.0377212
0.0110246
0.0405929
0.0186782
0.0366635
0.00806954
0.0768344
0.0131962
0.00854055
0.0102753
0.0110425
0.014991
0.253652
0.0150209
0.0176388
0.0439523
0.008392
0.00933679
0.0200352
0.0870738
0.0139552
0.0135197
0.0228971
0.0747974
0.0265144
0.0250564
0.0479011
0.0886706
0.0176383
0.0083301
0.0270739
0.00815128
0.0675471
0.0119771
0.0220324
0.0372237
0.0241966
0.0112721
0.035557
0.0122894
0.00920853
0.0100312
0.0246907
0.0462539
0.00991087
0.0554504
0.0757408
0.0301526
0.00823981
0.0322088
0.0482269
0.0699482
0.0129366
0.0179206
0.0119181
0.0348592
0.00862448
0.0308333
0.00901609
0.0538549
0.0342568
0.0434047
0.0158603
0.00904917
0.0241454
0.00827964
0.0161445
0.0734843
0.0122113
0.0102669
0.00797805
0.0103364
0.0739932
0.0146579
0.0386045
0.0695941
0.0106418
0.0329775
0.0143521
0.00863557
0.0104951
0.00899212
0.0339065
0.00954581
0.0341976
0.0160645
0.00949043
0.0401075
0.00896805
0.00874253
0.0392115
0.0353096
0.00858382
0.0318385
0.00843208
0.00865116
0.00829252
0.0480114
0.0488945
0.044973
0.0312245
0.0165935
0.0096005
0.0364561
0.00808292
0.0689015
0.0334826
0.0612972
0.00817179
0.0196581
0.0103353
0.0246548
0.00830188
0.0160747
0.00861466
0.0107563
0.0080973
0.0103381
0.0101349
0.00894597
0.0355044
0.00981153
0.0357224
0.0292889
0.0119971
0.00910388
0.0144475
0.00814294
0.0183284
0.0329964
0.00921303
0.019738
0.0318882
0.0363175
0.0193666
0.00888105
0.0163701
0.0195849
0.00880613
0.0193257
0.0564555
0.00881622
0.0446919
0.0386118
0.00834658
0.0110994
0.0528407
0.013764
0.0127928
0.00872269
0.00824975
0.0553555
0.00833386
0.00828495
0.00879892
0.0119203
0.0117549
0.0185553
0.00836435
0.0341526
0.00926487
0.0101239
0.00822896
0.00881481
0.0133033
0.0302998
0.0578136
0.0341605
0.00848626
0.071756
0.0236496
0.0363262
0.00850148
0.00782052
0.00891378
0.0305366
0.0165874
0.0411484
0.0382739
0.00973431
0.0179836
0.0118315
0.0206489
0.0415908
0.0271487
0.0164563
0.00856454
0.00819763
0.00827446
0.00900936
0.0233286
0.0123794
0.00927466
0.00953544
0.00893886
0.0304833
0.0590828
0.0101655
0.0355133
0.0485412
0.0091875
0.0108717
0.0347768
0.00883094
0.0087142
0.0083714
0.00868007
0.0447534
0.00917734
0.00886743
0.0336469
0.00830369
0.00883846
0.012163
0.012706
0.0100104
0.0101982
0.0284826
0.0544162
0.0402322
0.0180363
0.0537295
0.0979046
0.0249916
0.0150822
0.011221
0.00880166
0.00895818
0.0114647
0.0102131
0.0105178
0.046773
0.0362608
0.0335992
0.0399339
0.0416006
0.00971415
0.0181994
0.00925506
0.0647162
0.0125303
0.0410264
0.0092248
0.0401892
0.0282651
0.0153287
0.00888394
0.0689534
0.0310993
0.0117358
0.0532402
0.0148863
0.0149888
0.0111935
0.0194944
0.0196853
0.00891296
0.0688407
0.0083386
0.0293551
0.0264053
0.0270742
0.00837958
0.0081515
0.0365296
0.0113242
0.0188273
0.00826294
0.00830836
0.0321205
0.0124627
0.0101193
0.010087
0.00947456
0.0573082
0.0593609
0.0118602
0.00841834
0.00823511
0.0446813
0.00927083
0.0146099
0.00873465
0.00825081
0.00804016
0.00871737
0.00873414
0.0200422
0.00859307
0.0276602
0.00903319
0.016103
0.0100978
0.0086283
0.010113
0.0107172
0.0392269
0.0482378
0.0625722
0.00993472
0.007798
0.0113667
0.0122629
0.04845
0.0636319
0.0147248
0.0103093
0.00859056
0.00931967
0.0106113
0.00786967
0.0106845
0.0446983
0.0128361
0.0328057
0.116033
0.00975433
0.0180442
0.0105579
0.0667918
0.00823232
0.00822299
0.00873122
0.0203462
0.0103257
0.00869336
0.013408
0.00851446
0.0209116
0.00864979
0.0100291
0.0600425
0.00839086
0.0142012
0.0335339
0.0190459
0.00872477
0.0121377
0.0235991
0.0630187
0.00843088
0.0119432
0.00902301
0.0123375
0.0430008
0.0106387
0.0669518
0.00928908
0.0170111
0.00897709
0.0311878
0.0162613
0.0181399
0.0430734
0.00810126
0.00901641
0.0708879
0.00899726
0.00827577
0.0422824
0.0277063
0.0298489
0.00969746
0.00855374
0.0948733
0.0348695
0.0326934
0.0151457
0.00842882
0.0541517
0.00900577
0.00988812
0.00836769
0.114249
0.00826872
0.0500276
0.00870264
0.061374
0.0297715
0.0102711
0.0301386
0.065148
0.0449267
0.0314007
0.0328682
0.00973444
0.0371022
0.0274213
0.0130694
0.00904931
0.0411557
0.0150264
0.0693746
0.00844346
0.035207
0.00954286
0.0341394
0.0132306
0.00862407
0.0329763
0.00869277
0.0578572
0.0782862
0.00991861
0.00830354
0.0124705
0.0128247
0.0080439
0.0303123
0.00844905
0.0297308
0.00881816
0.0125209
0.0434244
0.00910719
0.0319921
0.0430751
0.00977816
0.0407335
0.0112891
0.00840522
0.0117186
0.0309581
0.00801848
0.0214826
0.00794213
0.00806046
0.00816356
0.00838552
0.0380509
0.0349064
0.00837088
0.0092742
0.0525259
0.00927933
0.00781274
0.00800417
0.00795881
0.0139313
0.0673084
0.00815447
0.0171572
0.0102222
0.0174246
0.0393458
0.00847753
0.0206848
0.0107675
0.00795094
0.0108516
0.0782004
0.0606275
0.00860509
0.00928143
0.00825024
0.0105325
0.0206286
0.0107213
0.00850771
0.0532441
0.00853466
0.0148122
0.0433933
0.0279173
0.0099102
0.0107985
0.0113858
0.0130266
0.0170709
0.00812906
0.0196222
0.00820927
0.00867202
0.00794371
0.00844137
0.0397167
0.00868117
0.0521628
0.0953243
0.0294511
0.0114683
0.0112077
0.0303995
0.00899303
0.00803461
0.00934458
0.00859753
0.0467802
0.0104502
0.0144899
0.00844016
0.0150371
0.013756
0.00909993
0.0146027
0.0410577
0.0352154
0.0391351
0.068017
0.0432681
0.0134889
0.0111236
0.0751196
0.0648201
0.00819527
0.0663884
0.0455669
0.0106035
0.015452
0.0118281
0.0449512
0.0337439
0.0150566
0.00872028
0.00983175
0.048856
0.050398
0.0596886
0.051305
0.0109722
0.0492532
0.0172576
0.00862703
0.0079707
0.0389494
0.0173961
0.0472955
0.0537379
0.00860429
0.0740269
0.00915374
0.0328091
0.00968851
0.0109349
0.0643542
0.0326013
0.0103653
0.0434123
0.00968791
0.0360109
0.015933
0.00840703
0.0438652
0.0591786
0.0337121
0.0191643
0.0170596
0.035507
0.0235332
0.0569998
0.00838342
0.0437242
0.00828623
0.0100725
0.00910465
0.0755465
0.00942898
0.0210673
0.00920758
0.0376193
0.0141915
0.00880861
0.0427718
0.00805834
0.029597
0.0129081
0.0503037
0.0314069
0.00845354
0.0116186
0.0475319
0.013994
0.0294486
0.0529703
0.00853114
0.0121761
0.0114816
0.00881456
0.00864662
0.00891
0.0113444
0.0346715
0.0383766
0.00818564
0.0126707
0.0143021
0.0121525
0.0250854
0.00987784
0.00931565
0.0172804
0.0167669
0.046275
0.021221
0.0470252
0.00998823
0.00825614
0.0201174
0.0173304
0.0667602
0.024864
0.0348238
0.00883557
0.00853162
0.0128299
0.00960387
0.0242787
0.0160283
0.0114844
0.0640321
0.00856207
0.0382261
0.0112377
0.0550465
0.00844429
0.0106616
0.00963717
0.014541
0.0107983
0.0100709
0.0084086
0.0412278
0.030855
0.0584326
0.00883837
0.00956479
0.0119933
0.00886372
0.091898
0.0174681
0.0205853
0.00871014
0.0125974
0.0110323
0.0172857
0.00854513
0.0630186
0.0226723
0.0105334
0.0419122
0.036795
0.0280809
0.0646606
0.0204705
0.00926527
0.0287305
0.0711898
0.0160518
0.0373198
0.0167752
0.00860912
0.00819004
0.00881028
0.0088278
0.00866394
0.0114997
0.0484396
0.00842048
0.0122275
0.0217404
0.0176596
0.00905297
0.0139687
0.0263644
0.00921602
0.0444126
0.0205592
0.0197988
0.0286375
0.00956361
0.0427015
0.0170504
0.0486457
0.0560449
0.0306862
0.0649149
0.0123899
0.0104387
0.0125463
0.0314274
0.0123636
0.0110358
0.0613839
0.0100913
0.0108919
0.0393531
0.0631456
0.0147334
0.0148574
0.050288
0.00904108
0.0607421
0.00857884
0.00995449
0.0134192
0.00963401
0.00948012
0.0168478
0.0085917
0.0884168
0.047823
0.0178587
0.0178032
0.0734105
0.0110126
0.0134366
0.00828072
0.00917886
0.0253444
0.0102338
0.00813811
0.0208183
0.033961
0.00887804
0.0179253
0.0414586
0.00938195
0.00895231
0.00934954
0.0187403
0.0117557
0.0156369
0.0222658
0.0172382
0.0179888
0.0110684
0.0306424
0.00996496
0.0085193
0.00941345
0.00999602
0.0154174
0.0131337
0.0443205
0.0305288
0.0128652
0.0106892
0.0113515
0.00815668
0.0096875
0.00814226
0.0079115
0.229523
0.0144598
0.00818305
0.0576935
0.0103513
0.0103863
0.0568223
0.00939659
0.00854954
0.0170548
0.00844077
0.00832034
0.00833823
0.0290406
0.0106744
0.0381871
0.0146055
0.00883628
0.0512059
0.0395259
0.0320054
0.0133835
0.0391348
0.0102043
0.00869751
0.00888708
0.00902457
0.0216275
0.0295997
0.00972323
0.00874815
0.0142333
0.0222417
0.00980952
0.00851122
0.00804288
0.0468712
0.00830668
0.0190417
0.0244104
0.046097
0.0326022
0.0205525
0.00865125
0.0362299
0.00896342
0.00872234
0.0090803
0.00849239
0.00899482
0.00786772
0.00847705
0.00838915
0.00974109
0.0111139
0.0135805
0.0447892
0.0374596
0.00953446
0.0120469
0.0466441
0.00893756
0.0167466
0.00834441
0.00827668
0.00842109
0.010692
0.0208636
0.00840252
0.123438
0.0182954
0.00843212
0.0707591
0.00884656
0.0443708
0.0219608
0.00972096
0.0244499
0.0411645
0.00956472
0.0101241
0.00975227
0.0436365
0.00901442
0.0441024
0.0200835
0.0279834
0.0311814
0.0173614
0.00824081
0.0290056
0.00977709
0.00907188
0.0152105
0.00828651
0.0081567
0.0143664
0.00792549
0.00899047
0.0257319
0.0082631
0.0320691
0.0463209
0.00955298
0.0101794
0.0340751
0.00843681
0.0158449
0.0230847
0.00950199
0.0705521
0.00847768
0.00877582
0.0148159
0.0521336
0.034734
0.0178748
0.0334078
0.0112802
0.0118375
0.0169585
0.0689089
0.014439
0.00871667
0.0107355
0.00843827
0.00859953
0.030266
0.00950469
0.00824463
0.0144301
0.0106391
0.0468904
0.0146528
0.00975414
0.00801923
0.0275586
0.00933
0.0198672
0.0154166
0.0587483
0.0143438
0.0220166
0.0415731
0.013815
0.0400452
0.00953892
0.0158044
0.00846296
0.0681613
0.00791691
0.0194283
0.0343438
0.0177509
0.0112229
0.057265
0.00944306
0.0100754
0.0357075
0.0820818
0.0362586
0.00810848
0.0102151
0.00886026
0.0172293
0.0374801
0.0105804
0.0549893
0.016496
0.00850671
0.0109644
0.0347984
0.00994625
0.0595661
0.0219393
0.00953123
0.00824608
0.049477
0.00979199
0.0127763
0.0335439
0.00867913
0.00964311
0.00774673
0.0114046
0.01887
0.0330866
0.00879444
0.00978496
0.0590174
0.0414972
0.0320867
0.00831982
0.018897
0.00913574
0.0372809
0.0084493
0.0447232
0.0113879
0.0179084
0.00866735
0.00863087
0.0103301
0.0115417
0.0552574
0.0490559
0.0107034
0.0117094
0.057202
0.0470881
0.00910201
0.00924773
0.00931936
0.0168158
0.0114811
0.00809064
0.0089469
0.0305451
0.0225042
0.0277655
0.0102202
0.021438
0.0476601
0.0452161
0.00829742
0.0152952
0.0189109
0.00940446
0.009196
0.0546897
0.00875001
0.0085898
0.0407356
0.0583873
0.00883386
0.00789039
0.057726
0.0778173
0.00845268
0.0172406
0.0618802
0.027108
0.00836762
0.00813142
0.00870052
0.0106275
0.00893658
0.0552438
0.0468906
0.00853369
0.00897161
0.0178383
0.00990873
0.0367103
0.0336668
0.0362338
0.00999229
0.0748664
0.00946388
0.0103696
0.0189396
0.0322221
0.0640117
0.00824381
0.00804404
0.0136487
0.00824398
0.0162826
0.00904632
0.0378477
0.0324847
0.211884
0.0155842
0.011004
0.0170263
0.0344206
0.020428
0.0141462
0.0105849
0.0184788
0.00979114
0.00841974
0.0166942
0.0340119
0.0521304
0.00935418
0.055689
0.0141696
0.0132201
0.0214038
0.0578605
0.0104195
0.029346
0.0753866
0.062482
0.0119416
0.00823841
0.0123391
0.0120159
0.0224122
0.0155261
0.0605552
0.0446116
0.03971
0.00814925
0.0169861
0.0104379
0.0159845
0.0164599
0.0120644
0.0610164
0.0135938
0.0600979
0.00919583
0.0153819
0.0543637
0.00829067
0.0195659
0.0118881
0.0210365
0.0340378
0.06145
0.0092885
0.0374839
0.00861701
0.00833842
0.0134174
0.0273962
0.0550747
0.0102961
0.0408873
0.00917335
0.00917228
0.00869257
0.036549
0.00919539
0.00931536
0.00954602
0.00935359
0.0638116
0.0379513
0.00895074
0.0155313
0.0286722
0.00832797
0.0131371
0.0127304
0.0174331
0.0450546
0.1353
0.0389087
0.00969104
0.008713
0.0132861
0.0567139
0.0443026
0.0100106
0.014197
0.0271907
0.00834724
0.00944062
0.00908604
0.00875849
0.00822897
0.00909968
0.0106436
0.0151072
0.0143012
0.0151215
0.0245419
0.028775
0.00823165
0.0124219
0.0474404
0.0332957
0.008318
0.0421868
0.010063
0.0183192
0.00879051
0.0103072
0.0147846
0.00813217
0.00848191
0.0086273
0.0332933
0.0386654
0.00873124
0.00812588
0.0605759
0.021808
0.0131575
0.0088352
0.0112056
0.0758252
0.0172049
0.0118438
0.0229124
0.00822261
0.0136661
0.0657686
0.0127711
0.0553481
0.0194749
0.0740552
0.00931272
0.00956989
0.00839865
0.0643364
0.0338635
0.0213576
0.00931462
0.0375421
0.036508
0.0193502
0.00870929
0.0462096
0.0079271
0.0093824
0.0282727
0.0293663
0.0377364
0.00869213
0.00810428
0.010254
0.01369
0.0179949
0.0169255
0.0182262
0.0525819
0.0516128
0.0425464
0.0200394
0.00832324
0.0473288
0.0775098
0.0361486
0.0568217
0.0100835
0.0546829
0.00847056
0.0085128
0.0101832
0.0278933
0.0089861
0.0461272
0.0303646
0.00815034
0.00866304
0.0137029
0.00993317
0.00885501
0.0616183
0.0118215
0.00995077
0.0089188
0.0194145
0.00960409
0.00812067
0.0166933
0.0431304
0.0553344
0.0170657
0.00835287
0.0508845
0.0226457
0.00833773
0.0428921
0.0467997
0.0177744
0.0485736
0.0263823
0.0638885
0.0363126
0.0464399
0.0673372
0.0434893
0.0700661
0.0161794
0.0231599
0.00844587
0.0669742
0.00839216
0.0123526
0.00996801
0.0139867
0.0103158
0.0479616
0.00907029
0.0107681
0.0194062
0.00827052
0.0119106
0.0796037
0.0145153
0.0216243
0.0479416
0.0505424
0.0109344
0.0198518
0.0549231
0.0106562
0.0114134
0.00844507
0.00910575
0.0379763
0.0140543
0.0218906
0.0123059
0.0110143
0.0106131
0.00889756
0.0195886
0.00962873
0.0118274
0.0115448
0.0163716
0.0159403
0.0134896
0.0207987
0.00849555
0.0121516
0.0479816
0.0107585
0.0520416
0.122375
0.0340247
0.0108065
0.011409
0.00917276
0.00972697
0.0145227
0.0241817
0.0149386
0.0706849
0.0594639
0.0595827
0.0332981
0.0353578
0.00864247
0.0373563
0.0145629
0.0538124
0.0506765
0.0081578
0.0335862
0.00986255
0.0123929
0.00915262
0.0438563
0.0381669
0.0129332
0.0102419
0.0676411
0.0107476
0.031579
0.0164895
0.00849869
0.00952274
0.00856232
0.0175988
0.0181914
0.0218038
0.0276147
0.0442952
0.0378131
0.0523459
0.0156183
0.00883873
0.0249672
0.0312308
0.0171151
0.00956834
0.0101649
0.0332992
0.0113905
0.0548989
0.0285224
0.0103665
0.0368057
0.0226528
0.0188797
0.0136428
0.0162151
0.0103056
0.0193921
0.0173608
0.00916203
0.0154491
0.00927667
0.060377
0.0611869
0.0128232
0.016515
0.0100333
0.0158474
0.0181473
0.066601
0.0119061
0.0120208
0.0107112
0.0198514
0.0417248
0.0325478
0.0396427
0.0131258
0.0291259
0.016498
0.0613791
0.0140438
0.03989
0.0233902
0.00877807
0.0334844
0.00968709
0.00955285
0.0434776
0.0537654
0.0138102
0.0792961
0.00985044
0.00919038
0.0215285
0.0107879
0.021343
0.0138516
0.0491594
0.0159758
0.0129749
0.0080399
0.0761279
0.00943668
0.0125885
0.0232112
0.0113638
0.0457773
0.00950512
0.0493818
0.0103115
0.0129475
0.0107155
0.0113244
0.0404819
0.0602469
0.00892336
0.00833455
0.0414103
0.0162325
0.0491971
0.0120732
0.0314657
0.0672395
0.0187227
0.0104289
0.020943
0.00825948
0.0145243
0.0104543
0.0502181
0.00833124
0.0463951
0.023881
0.00850116
0.00843804
0.0131924
0.061899
0.0372611
0.00843852
0.0084045
0.0112963
0.00994551
0.0103589
0.0858014
0.010704
0.0114278
0.0120257
0.035569
0.0119275
0.00864897
0.0125497
0.0087522
0.00849279
0.0319533
0.00940677
0.0386515
0.0101933
0.0194753
0.0124667
0.00987314
0.00851982
0.00862617
0.0452894
0.00810724
0.0334979
0.0537604
0.0127885
0.035569
0.00976371
0.0650024
0.0349623
0.0355551
0.0231443
0.0133704
0.0490328
0.0490983
0.0109175
0.019328
0.00852447
0.0174248
0.0599277
0.0210702
0.0414987
0.0153028
0.0102711
0.0344536
0.0103574
0.0085251
0.00936564
0.00914875
0.00844793
0.00939146
0.0084501
0.00987029
0.0330491
0.0703688
0.010405
0.071269
0.0129059
0.013213
0.0220372
0.00827333
0.0123589
0.0428685
0.00804784
0.0395485
0.018138
0.0295262
0.0114195
0.00811141
0.0228552
0.0164444
0.0403852
0.0131564
0.0132581
0.0207722
0.0111563
0.0772521
0.0539927
0.00814998
0.0126713
0.00874903
0.0172287
0.0880263
0.00828887
0.0289307
0.00791501
0.00966864
0.0472912
0.00946818
0.00874524
0.0465134
0.0331884
0.00820821
0.0181362
0.0591085
0.00932485
0.0329226
0.0583788
0.0192616
0.00846541
0.00837641
0.0108037
0.00895595
0.0102912
0.00836074
0.0147638
0.0165659
0.00849136
0.0104438
0.0697837
0.044051
0.0131264
0.00887721
0.0138274
0.0612632
0.054143
0.0103198
0.0391335
0.00985074
0.00895717
0.00819923
0.0389068
0.023425
0.00858037
0.0153179
0.0103413
0.0109276
0.0319286
0.0486341
0.00860604
0.053969
0.0265958
0.047261
0.0392138
0.00881554
0.00841733
0.0104462
0.0161903
0.0192765
0.0201537
0.00880292
0.010383
0.0346197
0.00789198
0.00960226
0.00923896
0.055541
0.0131257
0.0569172
0.0199904
0.0380026
0.00940173
0.0106174
0.011764
0.0493865
0.0219272
0.0295133
0.0735959
0.00987132
0.0580007
0.0327963
0.00870333
0.00883463
0.00824815
0.0429547
0.0157755
0.0361654
0.00838524
0.00942166
0.00860365
0.00853797
0.040132
0.0103235
0.0140924
0.00835823
0.0088863
0.0087767
0.00904553
0.00833887
0.0663304
0.0404038
0.0142764
0.0081821
0.0103612
0.0413877
0.00849681
0.03126
0.0129083
0.010598
0.021663
0.0280247
0.0316217
0.074331
0.00942715
0.0100675
0.0330114
0.0137242
0.06906
0.00991482
0.0079047
0.0620852
0.0132607
0.0119942
0.0089697
0.0925215
0.0722913
0.0505694
0.0275622
0.0300522
0.0582332
0.050097
0.0707414
0.0219918
0.00900541
0.0117793
0.00954604
0.0128429
0.0626483
0.00902259
0.014618
0.0762164
0.0746651
0.048587
0.0209382
0.0395003
0.00951555
0.015559
0.00818399
0.0108346
0.0398524
0.0210916
0.00961288
0.00836061
0.0101395
0.00887421
0.00898837
0.0359871
0.0160329
0.00971808
0.00912024
0.0824177
0.0155939
0.0161042
0.0122937
0.0139155
0.00822083
0.0321246
0.0477179
0.0649596
0.0176772
0.00814676
0.00792907
0.00964368
0.0292447
0.0154191
0.036486
0.01793
0.00910159
0.0392811
0.030824
0.00854355
0.0106287
0.00962719
0.00917981
0.0208825
0.0269592
0.0103465
0.0172243
0.0132696
0.0107841
0.0121445
0.00904456
0.0225326
0.0106823
0.0678537
0.0511979
0.0746729
0.0189571
0.0140694
0.0173428
0.0384186
0.00943877
0.0386107
0.0317501
0.0658866
0.0137538
0.00804105
0.00879608
0.0654784
0.0312388
0.0386474
0.0563433
0.0323764
0.00815343
0.00803565
0.0501725
0.0432311
0.0326252
0.00861173
0.00800088
0.0107213
0.0189849
0.00953887
0.0101805
0.0183453
0.0442749
0.00784266
0.0106412
0.0106175
0.013188
0.0102914
0.00865978
0.0254095
0.0134103
0.0271206
0.0106212
0.00848053
0.00849632
0.0767418
0.00887814
0.0577898
0.00887121
0.00978541
0.0087639
0.00908968
0.0342436
0.0604357
0.0344802
0.00868563
0.00826565
0.0126747
0.00864249
0.0542533
0.0199163
0.00909166
0.00826853
0.015289
0.0410462
0.0162928
0.015005
0.00837634
0.00898811
0.00913034
0.00801843
0.00965855
0.0101922
0.0209302
0.00885342
0.00859061
0.0103627
0.0208586
0.0457073
0.0620328
0.0249501
0.0161527
0.00836283
0.00848994
0.0526153
0.0154668
0.0111445
0.0113734
0.0187737
0.00903444
0.0105149
0.012265
0.00787877
0.0172639
0.0113782
0.0356065
0.0153637
0.0106221
0.0582389
0.0126057
0.00969155
0.0114826
0.00911159
0.0084315
0.0590588
0.00893129
0.0222328
0.00805179
0.0245301
0.00879757
0.0119639
0.0197296
0.0130729
0.0603011
0.0123203
0.0384364
0.0432134
0.0103398
0.0546253
0.00863609
0.00908237
0.00825204
0.0366096
0.0173428
0.0608311
0.0116725
0.0442338
0.0184613
0.00948209
0.00853023
0.00834549
0.0102807
0.00976791
0.00859974
0.0103362
0.00965293
0.00999749
0.038526
0.0181735
0.00809534
0.00804014
0.0316209
0.0101899
0.00905819
0.00849789
0.0587002
0.0116744
0.0605321
0.00815271
0.0514477
0.0430085
0.0142605
0.0115166
0.011188
0.0140975
0.0469444
0.00929732
0.0476173
0.0471163
0.0097863
0.035337
0.0218788
0.0119088
0.00931935
0.0640702
0.0308614
0.0471601
0.00864318
0.00946603
0.0286375
0.00923601
0.019628
0.0295513
0.00856374
0.0428243
0.0114988
0.0101251
0.00893355
0.00862024
0.00852739
0.00810361
0.0132735
0.0077978
0.00959238
0.00873296
0.0163992
0.0184565
0.00798713
0.0241999
0.00996665
0.0103607
0.00973962
0.0110406
0.00818091
0.0113431
0.0432262
0.00953199
0.00815708
0.0308435
0.0133174
0.00812655
0.111619
0.0098493
0.0091104
0.019023
0.0123143
0.0350728
0.014508
0.00816801
0.0101442
0.0188918
0.0313847
0.0303763
0.0124342
0.0403874
0.0427309
0.0521239
0.0107583
0.00827012
0.00803567
0.0118313
0.0100102
0.0113677
0.0301522
0.0155797
0.00821759
0.00807263
0.00804187
0.00821041
0.0545859
0.0795824
0.0686289
0.0266772
0.0101945
0.00862317
0.00815573
0.0207502
0.00983063
0.0090475
0.0640079
0.00834408
0.00938815
0.00814532
0.00872287
0.0257434
0.0352028
0.0133647
0.0365518
0.00903874
0.0105049
0.0181428
0.00992672
0.0187751
0.0287928
0.0171531
0.00815761
0.0212635
0.0124059
0.00864037
0.0205025
0.0409134
0.008674
0.00824353
0.0331999
0.0429399
0.0198154
0.0435214
0.00832441
0.0147979
0.0346634
0.00831305
0.00819023
0.00854852
0.0126909
0.00937607
0.00961492
0.00966751
0.0105827
0.0214975
0.0106009
0.0262902
0.0233589
0.0346172
0.00845378
0.014403
0.0097074
0.0110515
0.0192946
0.0169882
0.0638103
0.0170674
0.0642419
0.0193371
0.0108008
0.00915915
0.00848591
0.00943072
0.0464908
0.0368007
0.00884883
0.0230903
0.027684
0.0121976
0.0389544
0.00829671
0.00991917
0.00890046
0.014332
0.00865723
0.0133936
0.00979915
0.0434551
0.00885627
0.0467177
0.0489061
0.0283982
0.0113138
0.0138911
0.00818337
0.0476872
0.0089186
0.00977195
0.0174471
0.0228538
0.0204717
0.0413619
0.0307587
0.0415412
0.0283719
0.0079169
0.0347382
0.0100585
0.0306467
0.0686643
0.0187785
0.039612
0.0809604
0.0626667
0.0113986
0.0143192
0.00900317
0.0285165
0.00798912
0.0457212
0.0149759
0.0302177
0.0100957
0.00907812
0.0662142
0.0118713
0.00946988
0.00995601
0.0119021
0.0120235
0.0089255
0.00951704
0.00914175
0.010611
0.04483
0.0203198
0.0367078
0.00953222
0.0553259
0.0205088
0.00961255
0.0253029
0.0153762
0.0664307
0.0152788
0.0172409
0.00815421
0.0133466
0.00839854
0.0111553
0.00848298
0.011137
0.0079008
0.0339371
0.0340192
0.00914352
0.00933303
0.0113119
0.00980569
0.00897879
0.0105053
0.0097437
0.046574
0.00929558
0.00836853
0.049089
0.012552
0.0477156
0.0121011
0.0273303
0.0379722
0.00909966
0.0411859
0.0475657
0.0624005
0.0518224
0.0447056
0.00832567
0.0135261
0.00800551
0.0113134
0.0309239
0.00918795
0.00823155
0.00883072
0.0625244
0.0100239
0.0149018
0.0139782
0.00950481
0.0522689
0.0490092
0.0100226
0.0442324
0.00848737
0.0372511
0.0133197
0.0265709
0.00807879
0.00819199
0.00950083
0.0404861
0.0610244
0.0446633
0.00897174
0.0307569
0.0795732
0.0142435
0.0188674
0.0510899
0.0180298
0.0321872
0.0120448
0.00994034
0.00859252
0.0101966
0.107192
0.0157148
0.059633
0.00808948
0.009832
0.0131657
0.009419
0.0195948
0.0152178
0.0613275
0.0105049
0.017481
0.00844363
0.00834882
0.0322074
0.0741003
0.00831662
0.00915446
0.0088199
0.0278377
0.0110482
0.0607142
0.0424568
0.0380632
0.00895804
0.0505402
0.0148931
0.0708736
0.0360372
0.0107745
0.0351206
0.0449459
0.047398
0.00990666
0.0101833
0.00867381
0.033764
0.0125526
0.00841599
0.01325
0.0135135
0.0104486
0.00889834
0.00855598
0.0612015
0.00973202
0.0159786
0.0267699
0.0376402
0.00857656
0.00872754
0.0181653
0.0108368
0.0731976
0.0143985
0.0125228
0.0670346
0.00905709
0.00880311
0.010281
0.0318201
0.00832899
0.0348433
0.00802668
0.0310774
0.0634333
0.00810171
0.00886724
0.0285012
0.0101535
0.00877164
0.00848805
0.0082679
0.0322134
0.0491003
0.00868883
0.0102959
0.010151
0.00947779
0.0354156
0.0114615
0.0326458
0.0281385
0.00877284
0.00845013
0.0171882
0.0102674
0.0139725
0.0433521
0.0672768
0.00800431
0.00933229
0.0353334
0.0511082
0.0212485
0.0101481
0.0106658
0.0638788
0.0194429
0.00965895
0.00868552
0.00899546
0.00990275
0.0147297
0.00829264
0.00928295
0.00896863
0.0206159
0.0489079
0.0623713
0.0136449
0.015743
0.010318
0.00933956
0.00881851
0.00890493
0.00858301
0.00930601
0.00944131
0.00890906
0.0175496
0.00951791
0.0096244
0.0189206
0.00937237
0.017995
0.049404
0.013029
0.0116863
0.0117053
0.0123647
0.0115735
0.019943
0.0349953
0.010115
0.00974389
0.0107439
0.0136105
0.0550054
0.010041
0.0166387
0.0584608
0.010951
0.0477027
0.0132587
0.00976217
0.0105336
0.0112497
0.0146138
0.0424164
0.0568504
0.0703294
0.00830535
0.0354133
0.00934275
0.00905235
0.0391267
0.00806362
0.0182945
0.00797292
0.0139258
0.0134229
0.0243453
0.00794742
0.00802871
0.074421
0.00919917
0.0436264
0.0750381
0.0115329
0.0276811
0.00854868
0.00880066
0.00833039
0.0169318
0.0218464
0.0106111
0.00900288
0.0102446
0.0328389
0.0553773
0.0137462
0.00939025
0.0150381
0.00846846
0.0213624
0.0181833
0.00876852
0.00846543
0.00870303
0.0196115
0.0155699
0.0209673
0.0114606
0.0101283
0.0148611
0.016482
0.0444659
0.00970021
0.0102539
0.0090919
0.00913929
0.010017
0.00811877
0.041464
0.0125982
0.0235352
0.0327668
0.00930245
0.0223804
0.00828864
0.00877205
0.0099884
0.0608672
0.017214
0.0105457
0.0084542
0.0297046
0.0093913
0.022908
0.0113841
0.0217848
0.0148248
0.00926879
0.00861743
0.0759064
0.0109267
0.00847288
0.00953418
0.0191848
0.0095139
0.00919368
0.132777
0.00797593
0.0387175
0.00995443
0.00844039
0.00877924
0.0142977
0.0186578
0.0243259
0.0309181
0.044473
0.00853651
0.00829746
0.0909201
0.0407766
0.0101335
0.0110615
0.0334051
0.0161091
0.0103055
0.0108223
0.0103928
0.0645628
0.0090188
0.0229215
0.0385407
0.00857612
0.0326924
0.0211018
0.05657
0.0377247
0.0213417
0.0333363
0.0131958
0.032012
0.0148471
0.0450473
0.0588807
0.0125195
0.0497038
0.0302254
0.0102551
0.051636
0.00993115
0.0316419
0.0261971
0.03297
0.00844636
0.0510772
0.0467177
0.0117688
0.0101571
0.012537
0.035991
0.0121016
0.0205122
0.0127377
0.0278521
0.0174604
0.00799991
0.0178398
0.00837314
0.0117344
0.0112465
0.00867458
0.0766193
0.0124291
0.013817
0.00955152
0.053345
0.0132809
0.0770905
0.0176917
0.0184597
0.00891435
0.00963316
0.0141421
0.0100267
0.0207443
0.00833617
0.00926496
0.0222882
0.00803845
0.0275344
0.00935186
0.0119857
0.029397
0.0152861
0.0274429
0.00853408
0.0107259
0.0287604
0.0117071
0.0131702
0.0669855
0.00901154
0.0629195
0.0369966
0.014654
0.0100543
0.0108945
0.0333662
0.00858141
0.00914435
0.0166486
0.0311154
0.0208482
0.0474695
0.0105322
0.0196869
0.0117225
0.0195082
0.00841157
0.0109418
0.0441083
0.0117508
0.00838515
0.0192344
0.0771701
0.0273453
0.0103965
0.0324393
0.0199284
0.0309695
0.010897
0.0200314
0.035869
0.0351002
0.00854991
0.0598807
0.00975501
0.0522614
0.00866592
0.0174052
0.00961598
0.0452372
0.0105831
0.00801432
0.00908847
0.00874419
0.0181014
0.0687506
0.0676018
0.0316374
0.0766293
0.00980248
0.0443523
0.00830967
0.00941114
0.0126714
0.00958469
0.0575572
0.030686
0.0331527
0.00967424
0.0488279
0.01045
0.0174092
0.0108531
0.0289996
0.0437362
0.0515028
0.00938112
0.0335465
0.00865145
0.0125302
0.0128154
0.0335473
0.0330246
0.0126057
0.0175622
0.0380761
0.00872778
0.00976331
0.0219372
0.0175878
0.0105502
0.00903508
0.00942232
0.00845922
0.00901952
0.0170114
0.021049
0.00913246
0.0784143
0.049596
0.0122572
0.00968816
0.00827232
0.051592
0.0372622
0.00812105
0.01752
0.0079618
0.0419525
0.00816981
0.00831601
0.0102159
0.0305416
0.0212525
0.0542238
0.0600949
0.013481
0.0652685
0.0124102
0.0237241
0.0124536
0.011737
0.00904187
0.0560127
0.0847807
0.00860709
0.0123248
0.0460154
0.00894782
0.00952936
0.046309
0.0640301
0.0687244
0.0391557
0.0235758
0.0617243
0.0207197
0.00823735
0.0447183
0.0595578
0.012481
0.00962042
0.00895421
0.0106104
0.0182854
0.0807744
0.00846305
0.0426452
0.0088957
0.0370125
0.0164606
0.0126481
0.0158472
0.0145156
0.0489238
0.00879201
0.0115434
0.00839158
0.0597165
0.0133355
0.0335424
0.0171273
0.027107
0.0547967
0.0151157
0.0156585
0.0135182
0.0235064
0.00980169
0.0347601
0.0451613
0.0363104
0.0115186
0.0144089
0.0117496
0.0456003
0.0147215
0.0555059
0.0829547
0.0103922
0.00808181
0.0343532
0.0433473
0.0188502
0.00899597
0.0134393
0.0093783
0.0127657
0.0111348
0.00885325
0.0109134
0.0081534
0.0328035
0.0635336
0.012348
0.00835492
0.00848742
0.0196861
0.0753671
0.0178793
0.00873158
0.031824
0.0166161
0.0131115
0.0173863
0.00823621
0.00937066
0.00819753
0.049261
0.0125634
0.00940098
0.0107685
0.00829598
0.01456
0.0329354
0.00871213
0.0185749
0.0653333
0.00818768
0.00803281
0.0147255
0.0201069
0.00998427
0.00866854
0.0105275
0.00808624
0.0139205
0.0190806
0.0426588
0.0345488
0.00902944
0.012845
0.00851614
0.0108695
0.0396172
0.0445574
0.0373728
0.0596092
0.0290202
0.0551759
0.0092954
0.0577229
0.0124887
0.0222372
0.00851365
0.0465277
0.00939318
0.0430762
0.00886454
0.0755756
0.0375592
0.0358042
0.00834087
0.00840075
0.0234067
0.0199945
0.0710214
0.0557154
0.00870915
0.0121142
0.0135954
0.00833661
0.00871931
0.0104164
0.0104392
0.00864695
0.0389504
0.0137821
0.0275158
0.0330031
0.0628288
0.0083758
0.028793
0.0612241