/*--------------------------------*- C++ -*----------------------------------*\
| =========                 |                                                 |
| \\      /  F ield         | OpenFOAM: The Open Source CFD Toolbox           |
|  \\    /   O peration     | Version:  2406                                  |
|   \\  /    A nd           | Website:  www.openfoam.com                      |
|    \\/     M anipulation  |                                                 |
\*---------------------------------------------------------------------------*/
FoamFile
{
    version     2.0;
    format      ascii;
    arch        "LSB;label=32;scalar=64";
    class       volScalarField;
    location    "30";
    object      k;
}
// * * * * * * * * * * * * * * * * * * * * * * * * * * * * * * * * * * * * * //

dimensions      [0 2 -2 0 0 0 0];

internalField   nonuniform List<scalar> 
59516
(
0.00164404
0.00225559
0.00162142
0.00246072
0.00783545
0.01738
0.00193684
0.00174473
0.0015412
0.00428574
0.00545751
0.00348126
0.00159246
0.00902958
0.0036215
0.00365833
0.00424189
0.00451475
0.00180446
0.00347864
0.00531926
0.00244703
0.00278648
0.00553809
0.00265693
0.00332215
0.00540713
0.00619368
0.0037147
0.00771016
0.00706325
0.00584313
0.00214968
0.0021302
0.00270389
0.00214829
0.0074567
0.00452075
0.00201004
0.00301005
0.00168839
0.00371799
0.00256077
0.00218397
0.00227558
0.00377093
0.00183645
0.00414837
0.00769499
0.00354415
0.00902699
0.00494561
0.00147111
0.00173907
0.00506835
0.00191814
0.00450773
0.00536777
0.0045023
0.00241616
0.00287708
0.00728457
0.00424313
0.00408697
0.00201364
0.0030234
0.00903538
0.00488582
0.00625706
0.00186074
0.00699607
0.00389064
0.00759025
0.00266453
0.00475305
0.00326425
0.00410894
0.0026962
0.00475097
0.00369379
0.0053343
0.00318724
0.0025685
0.00757043
0.00309274
0.0044712
0.0053015
0.00237932
0.00359524
0.0027655
0.00597837
0.00294033
0.00392526
0.00259647
0.00387894
0.00793279
0.00273885
0.00370429
0.00392709
0.00285292
0.00532294
0.0076099
0.00745405
0.00357987
0.00211658
0.00346145
0.00560648
0.00153448
0.00191089
0.00338849
0.00487388
0.00634744
0.00371284
0.00469111
0.00313528
0.00179561
0.00349809
0.00240205
0.0071312
0.00273293
0.00534154
0.0042886
0.00310223
0.00419256
0.00436991
0.00209914
0.00799566
0.0031752
0.0105639
0.00461727
0.00519821
0.0016319
0.00713068
0.00222798
0.00192236
0.00148666
0.00463324
0.00147313
0.00517439
0.00227554
0.00484765
0.0048984
0.0075103
0.0021699
0.00481569
0.00236598
0.0020813
0.00184394
0.0198691
0.00166147
0.00207293
0.00514147
0.00326629
0.0027769
0.00187168
0.00808959
0.00195225
0.00149052
0.00209265
0.007655
0.00355667
0.0033761
0.00552596
0.00905681
0.00175498
0.00398243
0.00335159
0.00446178
0.00735884
0.00299784
0.00200328
0.00369851
0.00275527
0.00220579
0.00436704
0.00191101
0.00433309
0.00268782
0.00331012
0.00499191
0.00238792
0.00589583
0.00900743
0.00305721
0.00468062
0.00349929
0.00495026
0.00766302
0.00158917
0.00188846
0.00264709
0.00371157
0.0035028
0.00291741
0.00250755
0.00539607
0.00353023
0.00485069
0.0022766
0.00249303
0.00277912
0.00540162
0.00162092
0.00755084
0.00184986
0.00241129
0.00466157
0.00368137
0.00786613
0.00198344
0.00423187
0.00826485
0.00252468
0.00380954
0.00177493
0.00390593
0.00229012
0.00268419
0.00387406
0.00309846
0.00392967
0.00226731
0.0041383
0.00538937
0.00418567
0.00431441
0.00652072
0.00465315
0.00412152
0.00370623
0.00402538
0.00433385
0.00535474
0.00676601
0.0054556
0.00490461
0.00317396
0.00159938
0.00338768
0.00411581
0.00517218
0.00777244
0.0034661
0.00793182
0.00488593
0.00173046
0.00290006
0.00342098
0.00368028
0.00158146
0.00341893
0.00260357
0.00536187
0.00278833
0.00255984
0.00305712
0.00385161
0.00315401
0.00479846
0.0036061
0.0018647
0.00356625
0.0017709
0.00416722
0.00164812
0.00336658
0.00350236
0.0019135
0.00498693
0.00355309
0.00222259
0.00445045
0.0015391
0.0020885
0.00365804
0.00176868
0.00677609
0.0032596
0.00670686
0.00490245
0.00517242
0.00238248
0.00724661
0.00186273
0.00178242
0.00430069
0.00487442
0.00766067
0.00507747
0.00559536
0.00460134
0.0022829
0.00258797
0.00194206
0.00375692
0.00635899
0.00361024
0.00205238
0.00539513
0.00432616
0.00144556
0.00325906
0.00723536
0.00591861
0.00286831
0.00768925
0.00374178
0.00415279
0.00372747
0.00354451
0.00247685
0.00336833
0.00199719
0.00546772
0.00380064
0.00372332
0.0018528
0.00829148
0.00229799
0.00483639
0.00367042
0.00196242
0.00461607
0.005138
0.0053543
0.00308746
0.00244096
0.0021308
0.00421984
0.00350957
0.00321643
0.00338927
0.00733973
0.00297501
0.00453507
0.00536794
0.00364498
0.00262104
0.00359287
0.00451835
0.00345217
0.00516859
0.00443165
0.00497137
0.00320096
0.00507435
0.00363397
0.00516464
0.00474896
0.00222338
0.0021544
0.00322874
0.00234804
0.00246771
0.00571885
0.0051862
0.00205489
0.00615077
0.0111946
0.0022901
0.00197115
0.0020516
0.00531482
0.00265873
0.0019507
0.00300603
0.00317381
0.00544913
0.00686527
0.00390727
0.00483451
0.00518104
0.00374451
0.00205038
0.00340858
0.00714277
0.00210714
0.00513152
0.00398824
0.00358637
0.00336855
0.00148764
0.0056876
0.00780936
0.0035618
0.00235272
0.00710829
0.00233549
0.00199423
0.00189632
0.00222589
0.00213424
0.00332855
0.00660888
0.00520519
0.00374502
0.00342277
0.00344116
0.00482733
0.00446681
0.00352413
0.00165623
0.00177395
0.00490893
0.00480079
0.00462334
0.0022502
0.00249123
0.00262469
0.003077
0.00740144
0.00710903
0.00174871
0.00450961
0.00512897
0.00534373
0.00448433
0.00142926
0.00501295
0.00453995
0.00486986
0.0045876
0.00442474
0.0017419
0.00511276
0.00331006
0.00397166
0.00187918
0.00333935
0.00471086
0.00238009
0.0027572
0.00470103
0.0055408
0.00721891
0.00447592
0.00483465
0.00267339
0.00171701
0.00520717
0.00764602
0.00193431
0.00336215
0.00472676
0.00294792
0.00198061
0.00509241
0.00196617
0.0068607
0.00187397
0.00353337
0.0118841
0.00332875
0.00190821
0.00266621
0.00766471
0.0047677
0.00474456
0.00508718
0.00173639
0.0034181
0.00451595
0.00241123
0.00536019
0.00213358
0.00418002
0.00265012
0.00711896
0.00482394
0.00197089
0.00460456
0.00157349
0.00394553
0.00194087
0.00220522
0.00714516
0.00432897
0.00173847
0.00321766
0.0019186
0.00487531
0.00244889
0.00799667
0.00377935
0.00951995
0.0041852
0.00466399
0.00182401
0.00169097
0.00454186
0.00540541
0.00488468
0.00803021
0.00372598
0.00546872
0.0054426
0.003386
0.00331681
0.00322496
0.00513643
0.0104533
0.00356796
0.00341492
0.00179639
0.00522017
0.0070242
0.00287589
0.00307915
0.00488041
0.0136578
0.00346582
0.00668663
0.00354686
0.00762786
0.00314236
0.00314745
0.00339954
0.0074235
0.0055185
0.00436735
0.00370297
0.00210028
0.00378926
0.00311005
0.00528321
0.00453467
0.00662799
0.00153517
0.00637208
0.00413009
0.0037496
0.00436882
0.00396509
0.00233348
0.00493784
0.00410545
0.0043468
0.00656925
0.0078032
0.00257545
0.00503818
0.00215216
0.00201094
0.00457567
0.00393438
0.00356557
0.00332309
0.00474828
0.00199525
0.00666218
0.00256366
0.00474608
0.00670481
0.00227967
0.00470163
0.00238856
0.00508882
0.00215925
0.00338096
0.00443638
0.00203592
0.0048617
0.00451385
0.00492788
0.00504136
0.00471166
0.00384378
0.0045948
0.0033798
0.0058852
0.00357297
0.0041191
0.0040521
0.00458277
0.00144582
0.00750131
0.00394391
0.00214735
0.00335815
0.00167937
0.00653018
0.00527343
0.00213678
0.00180079
0.00492522
0.00243976
0.00726776
0.00720041
0.00488572
0.00431469
0.00548145
0.0034936
0.00189821
0.00284234
0.00460736
0.0067449
0.00516843
0.00367963
0.0054681
0.00318772
0.00206982
0.00248271
0.00223298
0.00170362
0.00163669
0.00511966
0.00221328
0.0042053
0.0041892
0.00491938
0.00453461
0.00525505
0.00343232
0.00563726
0.0102069
0.00325457
0.00598528
0.00213255
0.00470953
0.00453771
0.00380385
0.00283481
0.0043468
0.00527671
0.00961051
0.00740139
0.00486568
0.00157478
0.00355758
0.00484671
0.00173716
0.00486751
0.00326056
0.00613652
0.00804788
0.00710714
0.00227094
0.00258238
0.00817519
0.00740011
0.00559629
0.0081462
0.00545018
0.00260711
0.00152943
0.00217397
0.00556225
0.00365347
0.00169091
0.00424781
0.00283031
0.00555552
0.00675675
0.0100913
0.00729099
0.00206433
0.00700689
0.00194648
0.00495482
0.00386806
0.00476207
0.00196006
0.00509975
0.0073652
0.00477366
0.00742727
0.0040747
0.004812
0.00324783
0.00253822
0.0073903
0.00358011
0.00273982
0.00505439
0.00395434
0.00393854
0.00148192
0.00521041
0.00517711
0.00714353
0.00462892
0.00786627
0.00171217
0.00370125
0.00178912
0.00567149
0.00528986
0.00663704
0.00339769
0.00199166
0.00417811
0.00753571
0.00228579
0.0020564
0.00310662
0.00409409
0.00840687
0.00281776
0.00485063
0.00539522
0.00803641
0.00158005
0.00547053
0.00467586
0.00510097
0.00174249
0.00535306
0.00150787
0.00336047
0.00709491
0.0048004
0.00910363
0.00170328
0.00435505
0.00467054
0.00415548
0.00194789
0.00461261
0.00496428
0.00469975
0.00854387
0.00156429
0.00198297
0.00228898
0.0024795
0.00377356
0.00192231
0.00155293
0.006005
0.00312558
0.00580372
0.00302556
0.00401921
0.00188169
0.00165938
0.00735936
0.00228708
0.00395923
0.00475716
0.00472477
0.00889317
0.00375823
0.00196954
0.00955523
0.00232507
0.00821914
0.0047679
0.00381719
0.0023745
0.00782198
0.00416984
0.00950996
0.00325708
0.0016084
0.00293249
0.0025718
0.00526535
0.00511103
0.00478358
0.00546201
0.0048603
0.00331391
0.00251887
0.00290107
0.00828161
0.00224217
0.00218831
0.00466425
0.00200284
0.00301646
0.00223601
0.00524922
0.00721693
0.0019458
0.00355438
0.00673044
0.00442758
0.00329439
0.00733644
0.00251374
0.00415198
0.0033176
0.00743632
0.00161538
0.0061252
0.00156491
0.00449888
0.00551294
0.00442599
0.00331671
0.00468221
0.00183704
0.00515167
0.00440004
0.00190641
0.00194084
0.00239744
0.00379787
0.00158495
0.00296145
0.00282016
0.00526998
0.00194628
0.00203506
0.00345152
0.00319844
0.00732486
0.00250434
0.00543847
0.00762353
0.00333585
0.00748585
0.00181839
0.00345616
0.00202673
0.00374319
0.0026503
0.00325379
0.00776039
0.00363485
0.00611437
0.00463048
0.00757021
0.00173419
0.00155422
0.00694125
0.00329482
0.00741435
0.00452385
0.00336993
0.00219801
0.0029167
0.00305066
0.00198771
0.0050404
0.0081403
0.00535029
0.00185791
0.00178739
0.00757878
0.00266301
0.00474329
0.00432647
0.00422739
0.0023574
0.00341281
0.00531579
0.00219227
0.00482371
0.00416264
0.00165614
0.00546197
0.00352465
0.00494915
0.00279433
0.00187864
0.00180377
0.001574
0.00216187
0.00170879
0.00206505
0.00168384
0.00314752
0.00390706
0.00457293
0.00890424
0.00188402
0.0018733
0.00214426
0.00549314
0.0041701
0.00197364
0.0022624
0.00203864
0.00530086
0.0025988
0.00514486
0.00468357
0.0173764
0.00199172
0.00451187
0.00731982
0.00216039
0.00310983
0.00581256
0.00311576
0.00484002
0.00185148
0.00465379
0.00544896
0.00432546
0.00337968
0.00925236
0.00519995
0.0015108
0.00456698
0.00714931
0.00413593
0.0034437
0.00198313
0.00458702
0.00315155
0.00433632
0.00427883
0.00288754
0.0022046
0.00457751
0.00329529
0.00346413
0.0018972
0.00229845
0.00316259
0.00515852
0.0047478
0.00566473
0.00473129
0.00195336
0.00250123
0.00574797
0.00353128
0.0017754
0.00463284
0.0042771
0.0041615
0.00395761
0.00406764
0.00510455
0.00421909
0.00412756
0.00422139
0.00527751
0.00876233
0.00206133
0.00207781
0.00553655
0.00387616
0.00373647
0.00164364
0.00568419
0.00389044
0.00175681
0.00567581
0.00564392
0.00513266
0.00286678
0.00194229
0.00482953
0.0151625
0.00178783
0.0050451
0.00747501
0.00512532
0.00521172
0.00196405
0.00406932
0.00298492
0.00507866
0.00430293
0.00366131
0.00253536
0.00499301
0.00480668
0.00509732
0.0020395
0.00309461
0.00312968
0.00187947
0.00530096
0.00344415
0.00308107
0.00387617
0.00172208
0.00512647
0.0052665
0.0016104
0.00495203
0.00461276
0.00336075
0.00518321
0.00439712
0.00544752
0.00475226
0.00364414
0.00652189
0.00474271
0.00167615
0.00184061
0.00466487
0.00814925
0.00386437
0.00488916
0.00159858
0.00750674
0.00530695
0.00192848
0.00456449
0.00217531
0.00208719
0.00191917
0.00733606
0.00148334
0.0038401
0.00385768
0.00561718
0.00503034
0.00307421
0.00353439
0.00485105
0.00161421
0.00261932
0.00542618
0.00201309
0.0033796
0.005078
0.00304451
0.00344407
0.00201363
0.00187788
0.00715727
0.00208868
0.00206572
0.00511125
0.00196735
0.0052996
0.00360636
0.00175303
0.00483301
0.00790078
0.00490303
0.00216486
0.00340154
0.00191948
0.0025994
0.00703321
0.00377546
0.00305441
0.00347077
0.00879376
0.00509521
0.00527668
0.00277099
0.00477042
0.00222648
0.00345969
0.00304051
0.00536851
0.00185534
0.00496896
0.00255485
0.00375875
0.00213464
0.007726
0.00213941
0.00279841
0.00510205
0.00568134
0.00303867
0.0017314
0.00594654
0.00352138
0.00351175
0.00464716
0.002904
0.00200278
0.00602165
0.00372783
0.00230609
0.00768111
0.00495117
0.00450055
0.00397422
0.00204863
0.00356806
0.00365619
0.00410105
0.0063958
0.00209038
0.0022504
0.00343884
0.00517195
0.00189486
0.00258184
0.00559056
0.00552281
0.00294391
0.00227335
0.00725873
0.00728784
0.00387009
0.00233585
0.0035682
0.0016524
0.00242026
0.00294361
0.00428139
0.00364761
0.00271822
0.00318515
0.00260841
0.00201017
0.00549422
0.00709109
0.00430225
0.00163595
0.00160167
0.00382104
0.00360235
0.00535058
0.0038846
0.00467732
0.00546511
0.00778472
0.00445942
0.00448801
0.00614261
0.00764827
0.0046419
0.00189811
0.00784605
0.00236249
0.00463275
0.00352587
0.00462842
0.00239887
0.00351384
0.00705562
0.00490388
0.0048843
0.00424763
0.00156525
0.00337539
0.00359717
0.0036707
0.00473041
0.00267225
0.00837876
0.00250856
0.00199034
0.00179699
0.0038686
0.00765174
0.00518275
0.00450893
0.00162943
0.00457845
0.00168097
0.00248035
0.0051556
0.00412512
0.0173744
0.00160588
0.00271563
0.00156634
0.00338268
0.00218792
0.00165945
0.00246862
0.00194561
0.00291574
0.00385386
0.00208174
0.00372254
0.00743376
0.00378859
0.00572034
0.00200054
0.00210829
0.00225516
0.00702829
0.00277608
0.00328247
0.00743577
0.0072869
0.00229982
0.00449239
0.0021267
0.00223608
0.00221969
0.00176089
0.00621919
0.00512535
0.00533699
0.00513215
0.00160873
0.00253719
0.00180942
0.00171405
0.00217664
0.00825534
0.00188415
0.00706158
0.00381195
0.00179588
0.00683372
0.00511187
0.00179696
0.00198104
0.00192587
0.0030087
0.00559616
0.00271639
0.00512651
0.00539941
0.00561122
0.00233084
0.00261595
0.0056173
0.00392585
0.00522319
0.00404458
0.00396144
0.00436152
0.0041741
0.00359131
0.00387275
0.00335901
0.00372938
0.00592424
0.00512969
0.00419003
0.00166779
0.00352939
0.00544601
0.0020412
0.00223204
0.001758
0.00726954
0.0125271
0.00388421
0.0034705
0.00419948
0.00222501
0.00689035
0.00504936
0.00254152
0.00204376
0.00354003
0.00541055
0.00358653
0.00391691
0.00446538
0.00499479
0.00360274
0.00272629
0.00224733
0.00201807
0.0017491
0.00199118
0.00300616
0.00522446
0.00226141
0.00561492
0.00348153
0.00384275
0.00387106
0.00223384
0.00179203
0.00381186
0.00286167
0.00172152
0.00431472
0.00386817
0.00329476
0.00436689
0.00670355
0.00463219
0.0051185
0.0073696
0.00201411
0.00224188
0.00470434
0.00247618
0.00782683
0.00178746
0.00275367
0.00215674
0.00415413
0.00164319
0.0078665
0.00185423
0.00725964
0.00163045
0.00780073
0.00311952
0.0022312
0.00446169
0.007584
0.00394994
0.00172657
0.00239588
0.00355863
0.00383242
0.00178427
0.00508448
0.00555457
0.00490723
0.00228595
0.00340559
0.0033747
0.00628934
0.00326669
0.00464264
0.00209101
0.00212496
0.0016331
0.00183656
0.00167789
0.00687674
0.00542091
0.00658566
0.00213815
0.00560782
0.00512624
0.00733402
0.00353415
0.00755649
0.00359947
0.00759388
0.00408846
0.00567318
0.00251801
0.00342998
0.00511445
0.00513128
0.00377321
0.00505433
0.00374971
0.0019015
0.00928375
0.00386423
0.0073906
0.00199981
0.00328993
0.00507041
0.00205393
0.00319159
0.00442321
0.00227734
0.00419465
0.00563335
0.00205411
0.00528421
0.00561472
0.0020926
0.00299748
0.00525793
0.0070467
0.00175501
0.0044877
0.00349443
0.00759139
0.00343348
0.00542788
0.00722259
0.00524984
0.0080243
0.00171527
0.00196594
0.00502155
0.007362
0.00422133
0.00175224
0.00246983
0.00174474
0.00353358
0.00528723
0.00341486
0.00914244
0.00217178
0.00555313
0.00190655
0.00754323
0.00230557
0.00188759
0.00743466
0.00532184
0.00205918
0.00180474
0.00673964
0.00309102
0.00261937
0.00512528
0.00376315
0.0049399
0.00147282
0.00221422
0.00385578
0.00227923
0.00228857
0.00438349
0.00182524
0.00301645
0.00205128
0.00442513
0.00161399
0.00180049
0.00184251
0.0021753
0.00530051
0.0023161
0.00677602
0.00199967
0.00723452
0.0129251
0.00386996
0.00232475
0.00240961
0.00568479
0.003257
0.00197408
0.00224266
0.00155772
0.00801994
0.0077949
0.00914652
0.00370824
0.00670176
0.00303216
0.0050999
0.00209324
0.00555763
0.00688743
0.00537374
0.00342218
0.00403966
0.00197446
0.00443373
0.00533859
0.00519762
0.00176658
0.0029193
0.00791916
0.00203377
0.00346132
0.00239936
0.00468394
0.00295097
0.00481422
0.00167278
0.00181057
0.002322
0.00425763
0.00478198
0.00412408
0.00543718
0.00163089
0.0044822
0.00349071
0.00357765
0.00152407
0.00243333
0.00312303
0.00343643
0.00184722
0.0067798
0.00392395
0.00285373
0.00507675
0.00198572
0.00197416
0.00180409
0.00195448
0.00289326
0.00182069
0.00217338
0.003975
0.00172342
0.00383141
0.00731766
0.00671312
0.00219901
0.00151451
0.00284805
0.00230672
0.00169133
0.00715347
0.00244761
0.00182893
0.00293015
0.00191147
0.00539197
0.00352317
0.00438798
0.00183242
0.0032313
0.00186942
0.00733916
0.00146217
0.00517313
0.00211504
0.00486331
0.00371748
0.00257535
0.00338848
0.00516222
0.00703488
0.0018128
0.0091597
0.0033995
0.00409872
0.00213517
0.00291116
0.0018907
0.0018718
0.00682867
0.00182925
0.00155675
0.00521428
0.00750215
0.0035909
0.00186487
0.00206034
0.00222085
0.00524389
0.00407398
0.00673473
0.00326428
0.0018528
0.00257686
0.00155924
0.00498766
0.00741312
0.00499556
0.00450837
0.00503706
0.0016816
0.00517012
0.00171444
0.0037535
0.00746469
0.00163806
0.00285421
0.00215219
0.00450244
0.00161178
0.00214845
0.00562068
0.00504262
0.00691867
0.00292966
0.00457301
0.00501479
0.00228387
0.0081658
0.00479104
0.00590428
0.00569137
0.00310253
0.00242626
0.00331229
0.00801519
0.00160761
0.00285134
0.00224184
0.00404098
0.00176891
0.00451915
0.00250283
0.00409373
0.00582877
0.0033624
0.00293351
0.00486777
0.00370972
0.00211368
0.00232332
0.00306419
0.00366153
0.00460082
0.00524412
0.00537297
0.00369728
0.00721067
0.00200296
0.00496291
0.00317652
0.0073645
0.00492023
0.00362031
0.00261533
0.00220737
0.00492102
0.00692483
0.00262902
0.00239913
0.00439333
0.00184424
0.00703638
0.00208649
0.00525318
0.0016401
0.00332568
0.00338637
0.00333852
0.00443924
0.00338324
0.0037738
0.00445777
0.00319265
0.00438985
0.00217705
0.0062777
0.007875
0.00221292
0.00832015
0.00138972
0.00168696
0.00201246
0.0052401
0.00173153
0.00533571
0.0051893
0.00362266
0.0019289
0.00447976
0.00162853
0.00505572
0.00227487
0.00174096
0.00497316
0.00207537
0.00153708
0.00197267
0.00252361
0.00768083
0.00718193
0.00404351
0.00193075
0.00428035
0.00192391
0.00867358
0.00562416
0.00309651
0.00498686
0.00373552
0.00539111
0.0024735
0.00336338
0.00548389
0.00629251
0.00538926
0.00227251
0.00741186
0.00253205
0.00462578
0.00767964
0.00234801
0.0045729
0.0052137
0.00276106
0.00429462
0.00265004
0.00437839
0.00169333
0.00163166
0.00440955
0.00274686
0.00749537
0.00526772
0.00162034
0.00385035
0.00185282
0.00741272
0.00730879
0.0024387
0.00646931
0.00280929
0.00371428
0.00482959
0.00498441
0.0032952
0.0043544
0.00192743
0.00304812
0.00211792
0.00339444
0.00720801
0.00429763
0.00760824
0.00433702
0.00520113
0.00481039
0.0037043
0.00545663
0.00278142
0.00170287
0.00175637
0.00187185
0.00392026
0.00369465
0.00362687
0.00459739
0.00399184
0.00367117
0.00530512
0.00218468
0.00763797
0.00211298
0.00497231
0.00327602
0.00224758
0.00946185
0.00675329
0.00178427
0.00376913
0.00753217
0.0026733
0.00708645
0.00355575
0.00420734
0.00358888
0.00526449
0.00494847
0.00174688
0.00354642
0.00509985
0.00353066
0.00358632
0.00436777
0.00491516
0.00212733
0.00163508
0.00539537
0.00382301
0.00388892
0.00352307
0.00538717
0.00737203
0.00480344
0.00170416
0.00525092
0.0023596
0.00465206
0.00446522
0.003288
0.00154254
0.00222425
0.00197966
0.00342324
0.00332089
0.00744253
0.00312323
0.00178461
0.00348736
0.00182891
0.007248
0.00315889
0.00438839
0.00783415
0.00178159
0.001979
0.0034978
0.0100221
0.00823607
0.00598658
0.00351905
0.00318492
0.00767072
0.00714881
0.00838205
0.00201853
0.00381759
0.002769
0.0035726
0.00218356
0.00741167
0.00306047
0.0017919
0.00749277
0.00761819
0.00716529
0.00238454
0.00674681
0.00325255
0.00488926
0.00526185
0.00251278
0.00462351
0.00181579
0.00313885
0.00505151
0.00237643
0.00321033
0.00445434
0.0037453
0.00169647
0.00285996
0.00361733
0.00742397
0.0021307
0.00170092
0.00144278
0.00162312
0.00435263
0.0033263
0.00513417
0.00789562
0.00162369
0.00536267
0.00488072
0.00346152
0.00437633
0.0014836
0.0037694
0.00152443
0.00395222
0.00461475
0.00455321
0.00427581
0.0028584
0.00335436
0.0035755
0.00240503
0.00293544
0.00246814
0.00181767
0.00176302
0.00269569
0.00205341
0.00484007
0.00185268
0.00211824
0.00741739
0.00490705
0.00835172
0.00162528
0.00184637
0.00196261
0.00352531
0.00249999
0.00440958
0.0032786
0.00716768
0.00155321
0.0044222
0.00410702
0.0071748
0.00434776
0.00412015
0.00718922
0.00473407
0.00433986
0.00490105
0.00680873
0.00524546
0.00338508
0.00531547
0.00473851
0.0025058
0.00176801
0.00313949
0.0019319
0.00188169
0.00511781
0.00489759
0.00227564
0.00207867
0.00185285
0.00220178
0.00385925
0.00269857
0.00191899
0.00372312
0.00490588
0.00325353
0.00402592
0.00768358
0.00439063
0.00725854
0.00260181
0.00285301
0.00371275
0.00356349
0.00355178
0.00775588
0.00369756
0.00538858
0.00445365
0.00226883
0.00356395
0.00583028
0.00229671
0.00339623
0.00413761
0.00172962
0.00722516
0.00294209
0.00154
0.00387728
0.00456406
0.00397996
0.00406212
0.00274935
0.00247885
0.00170639
0.00409257
0.00441587
0.00258355
0.0022488
0.00687551
0.00716786
0.00217039
0.00157702
0.00431115
0.00436473
0.00718332
0.00189162
0.00202707
0.0023278
0.00201203
0.00345391
0.00211021
0.00226981
0.00482364
0.0015449
0.00181737
0.00458943
0.00171767
0.00228961
0.00729307
0.00161121
0.00270398
0.00224252
0.00292568
0.004421
0.00582319
0.0036999
0.00224804
0.00389641
0.00211819
0.00394076
0.0015521
0.00213082
0.00157443
0.00734301
0.00154315
0.00487069
0.00533313
0.00229568
0.00691998
0.00452075
0.00329529
0.00418028
0.00349018
0.00192054
0.00726742
0.00196429
0.00496866
0.00184009
0.0028631
0.00303521
0.0041918
0.0028158
0.00316249
0.00507209
0.00343584
0.00334462
0.0032027
0.00515441
0.00238412
0.00518466
0.00473879
0.00355257
0.00237498
0.00362346
0.00402797
0.00709849
0.00239727
0.00762958
0.00479399
0.00703248
0.00482909
0.00209895
0.00188272
0.00237189
0.00176354
0.00628381
0.00387801
0.0070149
0.00647057
0.00274912
0.00387376
0.00194364
0.0018138
0.003097
0.00741425
0.00344546
0.00528052
0.00428422
0.00382992
0.00319018
0.00267586
0.00202603
0.00339224
0.00463211
0.0067142
0.00250293
0.00352955
0.00476416
0.00288631
0.00444643
0.00418401
0.00159361
0.00494113
0.00261058
0.00456282
0.00196833
0.00221652
0.00452753
0.00226139
0.00344483
0.00268506
0.00329
0.00299559
0.00485211
0.00269301
0.00534681
0.00371472
0.00490992
0.00321514
0.0016274
0.00510075
0.0107021
0.00342822
0.00436982
0.0019723
0.00190354
0.00479024
0.00150409
0.00380059
0.00322465
0.00201065
0.00345558
0.00356221
0.00182131
0.00496295
0.00505863
0.00776961
0.0020499
0.00377295
0.00480821
0.00225949
0.00237451
0.00248423
0.00408876
0.00180623
0.00446134
0.00473157
0.005266
0.00551768
0.00575889
0.00805098
0.00763014
0.00304617
0.00344902
0.00474682
0.00474585
0.00211706
0.0029906
0.00414525
0.00747191
0.00574249
0.00398254
0.00414789
0.0051316
0.00350597
0.00406813
0.00144538
0.00477925
0.00344578
0.00244828
0.00194083
0.00294549
0.00188714
0.00301926
0.00177975
0.00496236
0.001794
0.0021517
0.00445446
0.00305385
0.00507632
0.00422586
0.00502691
0.00360213
0.00547608
0.00191508
0.00575963
0.00438324
0.00226672
0.00459305
0.00510262
0.00519948
0.0036713
0.00193885
0.00419654
0.00301487
0.00385132
0.00274565
0.00218881
0.00292267
0.00316392
0.00236238
0.00355059
0.00481194
0.00195914
0.00426847
0.00238432
0.00195328
0.00208648
0.00721681
0.0022108
0.00719054
0.00209352
0.00267391
0.00253172
0.00410086
0.0029422
0.00531035
0.00526327
0.00385767
0.00192144
0.00395056
0.00192899
0.00495536
0.00393566
0.00191225
0.00310236
0.00176717
0.00377611
0.00180794
0.00348043
0.00493076
0.00456742
0.00558858
0.00532873
0.00332462
0.00184423
0.00194804
0.00544272
0.00552461
0.00530256
0.0029845
0.00196729
0.00195985
0.0020497
0.00501785
0.00420346
0.0051857
0.00330105
0.00463246
0.00373119
0.00315284
0.00317422
0.00683043
0.00192056
0.00466834
0.00838565
0.00751688
0.00289008
0.0015569
0.00443032
0.00332086
0.0051527
0.00581885
0.00172311
0.00302847
0.00337252
0.00329683
0.00774346
0.00200544
0.00362355
0.00358063
0.0025355
0.00182081
0.00424106
0.00314059
0.00403501
0.00226416
0.00735065
0.0019983
0.00364927
0.00288121
0.00578336
0.00219373
0.00232072
0.00257524
0.00163849
0.00706966
0.00186013
0.00179356
0.00429522
0.00226547
0.003089
0.00254141
0.00341791
0.00202356
0.00479916
0.00364404
0.00359556
0.00251893
0.00393604
0.00219618
0.00271542
0.00342903
0.0031732
0.00250642
0.00533955
0.00251652
0.00531774
0.00606307
0.00179354
0.00607209
0.00200144
0.00309731
0.00486954
0.00279203
0.00475191
0.00703964
0.00720981
0.00559623
0.00504463
0.00387201
0.00185812
0.0044701
0.00175714
0.00363635
0.00363406
0.00503266
0.00344043
0.00743778
0.00205599
0.00165266
0.00142849
0.00310511
0.00688064
0.00521774
0.00212687
0.00712549
0.00466219
0.00510119
0.00184875
0.00289679
0.00526816
0.00543104
0.00346573
0.00510621
0.00700535
0.00529167
0.00262328
0.00325321
0.00712669
0.00174107
0.00197345
0.0069164
0.001959
0.00620829
0.0016933
0.00246155
0.00490502
0.00360977
0.00996597
0.00164079
0.00548781
0.0046582
0.00302593
0.00199695
0.00355933
0.00205828
0.00168074
0.0061062
0.00261729
0.0018077
0.00540022
0.00478672
0.00351001
0.00746299
0.00351156
0.00326827
0.00449514
0.00297613
0.00237162
0.00791279
0.00710784
0.00492749
0.00444456
0.00569646
0.00155453
0.0076647
0.00491401
0.00286146
0.00350466
0.00516584
0.0053836
0.00228518
0.00331774
0.00489056
0.00349895
0.00226303
0.00332694
0.00170811
0.00186764
0.00317929
0.00458714
0.00457975
0.00772591
0.00290273
0.00208647
0.00328765
0.00616522
0.00452892
0.00410396
0.00175046
0.00304906
0.00808052
0.0016159
0.00193706
0.0077146
0.00292333
0.00341336
0.00274331
0.00442824
0.00419942
0.00455539
0.00476779
0.00327177
0.00717677
0.00410405
0.00353205
0.00319783
0.00223672
0.00359713
0.00371624
0.00424254
0.00372146
0.0069784
0.00402514
0.00268187
0.00223707
0.00345363
0.00368425
0.00211604
0.00383458
0.00318392
0.0025947
0.00578382
0.00149315
0.00315104
0.00212989
0.00516793
0.00608183
0.00408662
0.00335493
0.00450224
0.0057785
0.00196876
0.00274624
0.0026674
0.0075951
0.00197162
0.00367146
0.00397473
0.00303377
0.00241926
0.00162461
0.00525158
0.00220804
0.00371771
0.00208043
0.00712377
0.00780978
0.00194153
0.00185814
0.00285102
0.00310203
0.00419762
0.0033815
0.0046395
0.00361867
0.00302654
0.00422939
0.00183018
0.00340561
0.00366959
0.00184064
0.00358092
0.0017924
0.00661511
0.00163032
0.0023842
0.00204632
0.0017814
0.00203089
0.00188491
0.00508522
0.00235248
0.00347066
0.00272189
0.00159727
0.00510955
0.0036709
0.00156825
0.00794509
0.00263073
0.00544854
0.0017875
0.00266677
0.00212676
0.00198196
0.00132635
0.00497209
0.00738988
0.0101942
0.00498314
0.00497132
0.00303347
0.00368504
0.00484433
0.00533656
0.00156966
0.00444759
0.00189582
0.00171174
0.00239585
0.00508641
0.00347515
0.00777264
0.00381827
0.00516533
0.00784264
0.00275841
0.00303054
0.00352368
0.00325587
0.00437701
0.00199845
0.00210217
0.00263852
0.00315548
0.0023862
0.00413877
0.00618579
0.0019382
0.00305664
0.00202423
0.0049911
0.00189457
0.00184457
0.00285966
0.00312159
0.00324284
0.00211204
0.0018358
0.00238787
0.00169326
0.00229686
0.00183822
0.00189108
0.00544786
0.00238521
0.00214049
0.00276924
0.00429188
0.00213946
0.00421296
0.00512622
0.00162883
0.00319465
0.00424553
0.00287574
0.00190989
0.00490955
0.0040614
0.00226075
0.00713557
0.00188146
0.00301422
0.00390692
0.00320654
0.00373854
0.00222039
0.00172425
0.0023728
0.00170565
0.00234627
0.00285653
0.00789135
0.00208318
0.00291262
0.00355303
0.00182961
0.00257642
0.00291826
0.0124243
0.00497255
0.00484418
0.00214203
0.00388768
0.0033113
0.00227269
0.00189777
0.0022107
0.00457073
0.00693589
0.0036061
0.00319252
0.00905128
0.00486969
0.00229706
0.00251501
0.00397077
0.0014872
0.00192343
0.00181214
0.00233273
0.00751373
0.00245166
0.00229397
0.00511716
0.00321564
0.00332571
0.00183026
0.00700829
0.00536958
0.00184596
0.00354867
0.00186719
0.00395134
0.00197489
0.00532298
0.00593082
0.0016914
0.00686469
0.00392894
0.00211055
0.00692894
0.00263304
0.00424333
0.00326694
0.00388318
0.00438619
0.00561695
0.00555354
0.00208759
0.00325552
0.00203079
0.00378934
0.00260277
0.00190244
0.0018242
0.00329081
0.00187632
0.00515936
0.00174685
0.00415345
0.00278966
0.00177416
0.00369221
0.00884707
0.00181222
0.0017974
0.00302326
0.00588294
0.00146678
0.0082246
0.00206879
0.00216759
0.00418622
0.00365785
0.00151494
0.00280765
0.00841326
0.00499185
0.00340349
0.00203826
0.00504267
0.00326276
0.00297568
0.00215642
0.00338747
0.00657331
0.00313346
0.00369163
0.00334073
0.0031723
0.00195457
0.0018343
0.00749298
0.00305408
0.00783451
0.00489502
0.00171427
0.00287151
0.0021204
0.006133
0.00376848
0.00314617
0.00188648
0.00330666
0.00208405
0.00536558
0.00274078
0.00202878
0.00184573
0.00185662
0.00516463
0.00247493
0.00700662
0.00216486
0.00518302
0.00199131
0.00733763
0.00415692
0.00252206
0.0035268
0.00177577
0.00310822
0.0027552
0.00181074
0.00378379
0.00462518
0.00453899
0.00776078
0.00306619
0.00597525
0.00352497
0.00173363
0.00274807
0.00495215
0.00254969
0.00397635
0.00363635
0.00418816
0.00209856
0.00769002
0.00738644
0.00589682
0.00728924
0.00311714
0.00523503
0.00412231
0.0022111
0.0018801
0.00398889
0.00592574
0.00376965
0.00372632
0.00224933
0.00540562
0.00319349
0.00165247
0.00217364
0.00320748
0.0049283
0.00567763
0.00291715
0.00373503
0.00314539
0.00183823
0.00177875
0.00470623
0.00463005
0.00131654
0.00198537
0.00378426
0.00469787
0.0035813
0.00197125
0.00155334
0.00211053
0.00258485
0.00374572
0.00435505
0.00450046
0.00168979
0.0027218
0.00450562
0.00754077