/*--------------------------------*- C++ -*----------------------------------*\
| =========                 |                                                 |
| \\      /  F ield         | OpenFOAM: The Open Source CFD Toolbox           |
|  \\    /   O peration     | Version:  2406                                  |
|   \\  /    A nd           | Website:  www.openfoam.com                      |
|    \\/     M anipulation  |                                                 |
\*---------------------------------------------------------------------------*/
FoamFile
{
    version     2.0;
    format      ascii;
    arch        "LSB;label=32;scalar=64";
    class       volVectorField;
    location    "30";
    object      momentum:momentum;
}
// * * * * * * * * * * * * * * * * * * * * * * * * * * * * * * * * * * * * * //

dimensions      [1 1 -1 0 0 0 0];

internalField   nonuniform List<vector> 
59516
(
(2.37009e-07 9.82811e-10 -1.0828e-09)
(1.77044e-07 -1.02069e-10 -4.91345e-10)
(2.13603e-07 -2.74915e-09 -2.95668e-10)
(1.75842e-07 2.86105e-09 2.28442e-09)
(2.0047e-07 5.12023e-10 -7.82134e-09)
(5.0364e-08 -2.41105e-09 -5.3759e-09)
(2.16621e-07 2.39709e-10 -2.51799e-09)
(2.08135e-07 1.79128e-09 3.61762e-10)
(1.64391e-07 1.13175e-09 4.81338e-10)
(8.84028e-08 -1.50394e-09 3.60152e-09)
(2.02055e-07 5.15103e-10 -1.69169e-09)
(1.08045e-07 1.22418e-09 -5.61137e-09)
(3.36866e-07 2.80109e-09 -7.33989e-10)
(1.76488e-08 -6.11818e-11 -1.96623e-10)
(1.67413e-07 4.16681e-09 8.13864e-09)
(9.25833e-08 6.47476e-09 -3.32641e-09)
(2.5184e-07 9.4073e-10 -1.84399e-10)
(1.6135e-07 8.77291e-09 -8.98151e-09)
(3.35059e-07 1.25625e-08 3.00383e-09)
(3.51835e-07 -1.17512e-09 1.0028e-09)
(1.04072e-07 9.14987e-10 -1.61073e-09)
(3.15363e-07 1.01126e-10 1.0314e-09)
(3.45705e-07 1.58462e-09 -3.90373e-10)
(3.87739e-08 -1.24468e-09 -1.68941e-10)
(3.02962e-07 -1.28847e-09 2.54591e-09)
(2.18485e-07 4.33941e-09 3.294e-09)
(5.81573e-08 1.09435e-09 -3.51335e-09)
(7.624e-08 5.92365e-09 7.61576e-10)
(1.5096e-07 4.37953e-09 7.45923e-12)
(1.53429e-08 -2.40316e-09 6.18565e-10)
(1.8938e-07 -3.6616e-08 -8.01511e-09)
(8.59956e-08 6.18419e-09 -1.12642e-09)
(1.76836e-07 1.94523e-11 1.20143e-09)
(1.81515e-07 -1.00315e-09 4.07809e-09)
(1.32197e-07 2.56464e-09 2.33387e-09)
(3.96628e-07 -9.86298e-10 9.71968e-11)
(1.48359e-08 -1.403e-09 -2.1467e-09)
(1.32905e-07 5.08141e-09 -1.22751e-08)
(2.76697e-07 -7.66052e-09 -1.78191e-10)
(2.69438e-07 -3.68147e-09 5.73531e-10)
(2.73066e-07 -2.06336e-09 2.92343e-10)
(4.04214e-07 -1.87845e-08 -1.75373e-08)
(3.40451e-07 -2.6741e-09 -1.57913e-09)
(1.17538e-07 -1.02552e-09 5.90326e-10)
(2.66839e-07 -3.10453e-09 7.48387e-10)
(1.1208e-07 -1.94639e-09 -2.93084e-09)
(3.28001e-07 -2.96321e-09 -5.52456e-09)
(2.43842e-07 -2.16375e-09 -1.83635e-10)
(2.51698e-07 -2.02131e-08 2.80466e-08)
(2.34837e-07 6.67351e-09 5.9488e-09)
(1.63879e-07 1.65138e-08 -2.28955e-08)
(8.46295e-08 -6.61321e-09 4.41829e-09)
(3.28628e-07 2.27718e-09 -5.25647e-09)
(3.09698e-07 -6.24203e-10 -6.1183e-10)
(8.68899e-08 4.66012e-09 3.95578e-11)
(2.48928e-07 1.15728e-09 -6.49244e-10)
(2.00001e-07 9.85811e-09 1.05465e-08)
(8.77582e-08 6.98967e-09 -5.09456e-09)
(1.89968e-07 -8.72325e-10 1.32173e-10)
(1.44803e-07 5.3407e-09 6.76205e-09)
(2.04581e-07 -9.99437e-11 7.39406e-10)
(1.71343e-08 2.09914e-09 -6.9494e-10)
(2.44311e-07 -2.6045e-10 -9.50253e-10)
(3.18764e-07 1.32062e-09 -3.62967e-10)
(3.07105e-07 1.43235e-09 -1.29656e-09)
(2.10282e-07 2.90585e-09 3.4806e-09)
(2.08568e-08 -1.37232e-09 1.89378e-09)
(7.30873e-08 4.2657e-10 -2.79438e-10)
(1.97903e-07 -8.08402e-09 3.60794e-08)
(1.7062e-07 1.58314e-09 -2.09124e-10)
(5.85863e-08 1.72721e-09 4.83625e-10)
(1.48435e-07 4.83122e-10 -1.78209e-10)
(2.6273e-08 1.65143e-09 -4.13711e-09)
(1.84646e-07 -7.03563e-10 -1.87786e-10)
(3.35918e-07 -1.68067e-09 5.36387e-10)
(3.50892e-07 1.62418e-10 -3.10535e-10)
(2.05348e-07 -1.92529e-11 -7.80578e-10)
(2.21674e-07 3.24593e-10 -8.2852e-10)
(9.41207e-08 -3.3569e-09 3.00834e-09)
(1.87284e-07 2.96463e-09 5.95993e-09)
(5.71152e-08 3.53287e-09 1.54806e-09)
(1.6748e-07 3.04008e-09 3.86219e-09)
(1.8097e-07 1.82203e-09 4.20527e-09)
(2.0688e-08 -8.09257e-10 2.94983e-09)
(2.1065e-07 3.28464e-09 5.16494e-09)
(3.45041e-07 -1.16145e-09 4.82383e-10)
(3.53728e-08 -1.35713e-09 5.54027e-10)
(4.97421e-07 4.09677e-10 2.2367e-09)
(1.20473e-07 1.76462e-09 5.90545e-09)
(1.67786e-07 1.24987e-08 -8.09585e-09)
(1.82815e-07 -8.88021e-10 -1.46791e-08)
(1.8514e-07 2.35093e-09 -3.44706e-11)
(2.3728e-07 -2.12682e-10 2.2991e-10)
(1.80014e-07 1.1635e-09 -3.36591e-10)
(1.69587e-07 -1.91884e-11 1.28351e-10)
(1.83492e-07 -1.75736e-08 6.80553e-09)
(1.23599e-07 -8.19917e-10 1.02575e-09)
(9.27485e-08 -2.86555e-09 -7.06323e-09)
(1.18964e-07 3.70866e-09 -1.03824e-09)
(2.0366e-07 -9.1487e-10 1.93186e-09)
(6.87608e-08 1.27472e-09 2.60119e-09)
(2.99187e-08 1.42289e-09 -3.4533e-09)
(2.64209e-08 9.15005e-10 3.71637e-09)
(9.41053e-08 -1.38754e-09 -4.64288e-09)
(2.36444e-07 8.85083e-10 -5.64711e-10)
(1.57522e-07 2.63256e-10 7.66444e-10)
(6.24903e-08 5.45666e-09 -2.22068e-09)
(1.46121e-07 4.25866e-10 -8.04267e-10)
(1.85889e-07 -1.28909e-09 -4.23029e-10)
(2.0578e-07 1.31802e-09 -8.61593e-09)
(2.79868e-07 2.81751e-08 -2.93131e-08)
(4.8766e-08 5.04212e-09 -5.86064e-10)
(2.03704e-07 2.5192e-09 -1.16056e-08)
(2.19161e-07 3.1556e-08 -1.57833e-08)
(2.11341e-07 -2.8006e-10 1.05508e-10)
(1.46114e-07 1.53749e-09 1.10898e-09)
(1.38644e-07 1.34276e-09 -5.73325e-09)
(1.45195e-07 4.48748e-10 9.0272e-10)
(2.0575e-08 -2.84939e-10 9.5195e-10)
(2.57876e-07 2.98881e-09 6.38421e-10)
(3.61674e-07 -4.12056e-10 3.06388e-10)
(1.63028e-07 5.77766e-10 2.32343e-10)
(1.54638e-07 -2.48566e-10 2.24445e-10)
(1.69092e-07 -1.43791e-11 4.39655e-10)
(1.32665e-07 -1.67344e-08 2.85837e-09)
(1.47359e-07 1.5809e-09 -3.38378e-09)
(4.03718e-08 -6.12789e-10 2.66905e-09)
(2.11489e-07 -1.81179e-08 -8.6048e-10)
(1.63255e-07 -4.96364e-09 2.37582e-08)
(1.4281e-07 4.82996e-10 3.38274e-10)
(2.50258e-07 7.4649e-10 1.74864e-09)
(3.40436e-07 4.14022e-09 5.3248e-09)
(2.5449e-08 1.46976e-09 -1.77862e-09)
(2.53414e-07 -1.25461e-10 1.1234e-09)
(3.34841e-07 2.74357e-09 1.03148e-09)
(2.06626e-07 -1.81663e-09 -2.744e-09)
(1.5212e-07 1.7551e-08 -1.23286e-08)
(3.22371e-07 -8.68095e-10 1.57161e-09)
(5.80791e-08 3.86325e-09 1.62649e-10)
(1.68743e-07 1.01315e-09 -2.23547e-09)
(8.48766e-08 -1.69034e-09 -4.29975e-09)
(2.92283e-07 -1.12949e-12 -4.46944e-11)
(1.55043e-08 6.95932e-10 1.37012e-09)
(1.54909e-07 -1.4664e-09 -6.28967e-10)
(1.94768e-07 4.4689e-10 9.74849e-11)
(2.81256e-07 2.77023e-09 -1.56977e-10)
(2.04114e-07 -3.30492e-09 -4.63961e-10)
(2.12929e-07 9.13502e-10 -3.49988e-09)
(6.40496e-08 -1.05202e-09 1.78777e-09)
(2.17381e-07 -1.37418e-09 -1.64551e-09)
(3.38352e-07 -4.96619e-10 -2.41243e-09)
(5.92719e-08 -2.18082e-09 -2.35548e-11)
(3.64105e-07 -1.60399e-09 2.62208e-09)
(2.12537e-07 -5.76424e-10 1.30378e-09)
(1.70555e-07 -9.63861e-10 3.27336e-09)
(1.66119e-08 -3.79989e-10 1.84114e-09)
(2.91459e-07 6.01127e-10 -6.51191e-10)
(3.46014e-07 3.01631e-09 -5.09495e-10)
(1.38637e-07 1.95051e-09 1.47795e-10)
(1.80125e-08 2.19708e-09 -2.39363e-09)
(9.68905e-08 2.01378e-09 -4.70318e-09)
(1.21692e-07 -6.0158e-09 -4.06922e-09)
(4.46722e-08 -1.90303e-09 4.23723e-10)
(2.55674e-08 -2.53988e-10 -5.15575e-10)
(1.72893e-07 2.58984e-09 3.79668e-09)
(3.03558e-07 5.12808e-10 1.94123e-09)
(1.68987e-07 -1.71002e-09 8.50702e-10)
(2.53402e-07 7.73807e-10 -2.40406e-11)
(1.94583e-08 -1.18737e-09 2.24197e-09)
(2.11008e-07 -5.47153e-10 6.32909e-10)
(9.33514e-08 1.42676e-09 1.26485e-09)
(7.39283e-08 1.03382e-09 -1.10117e-09)
(1.15985e-07 2.84262e-09 1.64177e-09)
(1.52128e-07 -8.59157e-10 8.40821e-10)
(9.39353e-08 -1.61635e-09 5.7453e-10)
(4.56042e-07 -7.12054e-10 -9.68296e-09)
(2.29093e-07 1.32992e-10 -1.48109e-09)
(3.07791e-07 -5.39694e-09 -2.78422e-09)
(1.61909e-07 -2.58468e-09 7.70184e-09)
(6.91819e-08 -2.3878e-10 -8.7406e-10)
(3.03756e-07 3.37608e-09 2.09145e-09)
(4.75591e-08 -4.1014e-09 -1.68426e-09)
(3.35637e-08 -5.08977e-10 -2.68481e-09)
(1.14346e-07 -3.13061e-09 1.10764e-10)
(1.8447e-07 -2.21625e-10 9.6502e-10)
(1.05479e-07 5.08932e-10 1.17267e-09)
(5.08762e-08 -9.70497e-10 -3.93672e-09)
(2.28149e-08 -6.34032e-11 3.41134e-10)
(1.97318e-07 2.43764e-10 4.35551e-10)
(2.39344e-07 -3.57886e-09 -3.85151e-10)
(1.57564e-07 -9.51965e-10 3.16049e-09)
(1.26405e-07 7.35904e-09 5.05167e-10)
(2.03807e-07 -6.4051e-10 -1.08413e-10)
(1.03788e-07 4.45365e-09 -4.84754e-11)
(3.31692e-07 -1.28842e-09 -3.06547e-10)
(3.16068e-08 -2.05104e-10 9.09676e-10)
(1.06398e-07 1.28118e-09 -6.286e-10)
(6.3067e-08 -1.60074e-09 3.45989e-10)
(1.94736e-07 4.7034e-09 6.14159e-09)
(2.57219e-07 6.07786e-10 4.76581e-11)
(8.27453e-08 -2.59259e-09 3.86309e-10)
(1.70866e-07 -1.89507e-10 -7.64808e-11)
(3.31084e-07 -1.67796e-09 2.77627e-09)
(1.78612e-08 1.99727e-09 -1.27559e-09)
(2.275e-07 -2.81356e-09 -9.24758e-10)
(2.36465e-07 -1.11508e-10 1.05771e-10)
(3.13033e-07 -4.63486e-10 4.29252e-11)
(1.88917e-07 -2.59753e-10 2.13712e-10)
(2.01394e-08 -5.18684e-10 1.6525e-10)
(3.15218e-07 -4.6602e-09 -4.03506e-10)
(6.64858e-08 4.7157e-09 3.73492e-09)
(2.62375e-08 -4.18023e-09 -6.48054e-10)
(2.31951e-07 7.87828e-10 -2.31066e-09)
(1.0402e-07 -1.86856e-09 1.3692e-09)
(3.06485e-07 2.766e-09 9.63454e-11)
(2.68848e-07 -1.20209e-09 8.85441e-10)
(2.71808e-07 1.62073e-09 3.88194e-10)
(2.02278e-07 -1.19689e-09 6.44097e-10)
(9.08875e-08 3.83165e-09 -4.39253e-09)
(2.13014e-07 -7.33607e-10 7.60319e-10)
(1.31199e-07 5.32538e-09 3.72488e-09)
(2.03192e-07 1.25737e-09 -2.40103e-10)
(1.68131e-07 8.57718e-10 1.25733e-09)
(8.38583e-08 -3.18169e-10 1.63741e-09)
(2.73749e-07 -2.42873e-09 9.47274e-10)
(2.861e-07 3.47695e-10 -1.37653e-09)
(3.49974e-08 -3.64687e-10 1.73764e-09)
(7.21746e-08 2.41542e-09 -3.37676e-09)
(1.84404e-07 -2.89164e-10 1.26745e-09)
(1.28984e-07 4.85474e-10 -9.05264e-09)
(2.25395e-07 -1.2224e-09 5.66413e-10)
(1.65918e-07 5.64114e-10 -5.54813e-10)
(2.83204e-07 6.69163e-10 2.07304e-09)
(2.97469e-08 -2.46109e-09 -1.67845e-09)
(3.46018e-08 9.39367e-10 -1.74649e-09)
(4.36629e-08 1.03138e-09 -1.51565e-09)
(1.18955e-07 6.0645e-10 1.24496e-09)
(1.85176e-07 -3.06773e-09 1.24135e-09)
(4.01304e-07 1.54617e-09 3.4644e-09)
(9.43804e-08 -1.98416e-09 2.2695e-09)
(2.22811e-07 4.93026e-11 1.36935e-09)
(2.10039e-08 4.297e-10 3.13644e-09)
(1.19253e-07 -8.38887e-11 1.61848e-09)
(3.02945e-08 3.16774e-10 3.26007e-09)
(1.47437e-07 6.19991e-10 4.23888e-10)
(1.64099e-07 -7.41063e-10 -9.36716e-10)
(1.93217e-07 -1.09223e-11 9.1061e-10)
(2.02339e-07 9.91101e-10 -4.33759e-09)
(2.6151e-07 -4.96252e-10 1.01879e-09)
(2.10207e-07 4.99865e-10 6.27063e-10)
(3.62929e-07 -4.27369e-09 2.09325e-09)
(2.11928e-07 2.17135e-10 1.16207e-09)
(1.70695e-07 2.67917e-10 1.0598e-09)
(2.77494e-07 6.51527e-10 -4.04759e-10)
(2.77852e-07 2.27836e-09 1.13893e-09)
(2.88798e-07 6.52324e-10 9.17777e-10)
(1.21433e-07 4.65133e-10 -4.76958e-10)
(2.74415e-07 5.61889e-10 2.25735e-09)
(8.89191e-08 -7.03749e-10 -4.97113e-09)
(1.05963e-07 7.43598e-10 3.65299e-09)
(2.22813e-07 1.49412e-09 -1.13438e-09)
(2.4866e-07 -1.40924e-09 1.67438e-09)
(2.48643e-07 4.58e-09 3.13792e-09)
(2.60676e-07 -1.08078e-09 1.54489e-09)
(7.88809e-08 -2.35968e-10 1.70473e-09)
(1.16557e-07 4.88924e-09 -2.88566e-09)
(2.91712e-07 5.68715e-10 -1.1686e-09)
(2.29297e-07 3.36485e-09 1.58054e-09)
(6.74949e-08 -1.0842e-09 -9.06102e-10)
(8.11101e-08 -1.11358e-10 -2.10969e-09)
(1.72982e-07 5.18036e-10 -4.31821e-09)
(1.71173e-07 -8.85129e-10 -3.68976e-10)
(3.27048e-07 -6.7399e-09 5.85776e-10)
(1.59453e-07 -1.71012e-09 1.43603e-09)
(3.15518e-07 -3.00855e-09 7.97267e-10)
(2.02329e-07 -1.27102e-09 5.79807e-09)
(2.18036e-08 2.63394e-09 -1.51784e-09)
(2.85279e-07 -9.63766e-10 2.23767e-09)
(3.20465e-08 2.03573e-09 -2.67363e-09)
(5.7506e-08 -2.36537e-09 1.57271e-09)
(3.14491e-07 -1.29139e-10 2.21264e-09)
(2.50757e-07 -1.27058e-09 -1.19724e-10)
(3.05314e-08 3.28816e-09 3.3752e-09)
(3.08589e-07 2.33509e-09 1.13386e-10)
(2.55567e-07 4.24954e-09 1.58547e-11)
(2.34112e-07 1.15572e-09 4.97422e-11)
(2.90639e-07 -8.97098e-10 3.22862e-10)
(2.60526e-08 3.12025e-09 6.53991e-10)
(2.50192e-07 -9.05221e-10 1.50972e-09)
(1.30791e-07 -1.33505e-09 5.45659e-12)
(1.45536e-07 -1.79021e-10 1.05464e-09)
(2.53659e-07 -6.44204e-10 1.8893e-09)
(1.67975e-07 1.67413e-09 1.43725e-09)
(1.86664e-07 6.65057e-10 -7.85833e-10)
(2.49139e-07 1.57648e-09 3.09411e-10)
(4.24984e-08 -1.51264e-09 -2.04463e-09)
(2.66416e-07 -3.21706e-09 7.47827e-10)
(1.9182e-07 -1.62518e-09 -8.04852e-10)
(3.20875e-07 -2.54395e-09 1.44556e-09)
(2.44705e-07 -2.10089e-09 5.48771e-10)
(3.1889e-07 -2.17217e-09 9.50728e-10)
(1.48566e-07 1.66086e-09 3.15724e-09)
(2.17992e-08 -2.97008e-10 1.5187e-09)
(3.91996e-08 -9.9179e-10 7.02795e-10)
(4.91771e-07 -4.98987e-09 -7.77861e-10)
(2.03705e-08 -1.21662e-09 3.02811e-09)
(1.85652e-07 -7.16534e-10 -3.2389e-09)
(7.88405e-08 4.33483e-09 1.71591e-09)
(2.93879e-07 -1.62813e-09 1.16245e-09)
(3.4579e-07 4.41275e-10 -1.22234e-09)
(3.08109e-07 -1.13736e-09 -2.96361e-10)
(1.31708e-07 -6.72914e-10 -2.84947e-09)
(3.06987e-07 3.67653e-09 -5.39676e-09)
(7.39946e-08 -6.08963e-09 4.89956e-09)
(9.2146e-08 1.63771e-09 2.5792e-09)
(1.88355e-07 -8.22903e-10 -3.38822e-12)
(1.64673e-07 2.26927e-09 -1.42129e-09)
(2.69457e-07 3.11169e-08 8.93905e-09)
(2.00622e-07 -4.02987e-09 2.19954e-09)
(7.04295e-08 -4.43122e-10 -8.38583e-10)
(1.10496e-07 -1.60907e-09 3.0939e-09)
(2.1481e-07 -1.07482e-09 -2.92149e-09)
(1.96275e-07 -3.61834e-11 -5.55314e-11)
(3.75855e-07 1.09359e-09 9.04358e-10)
(1.99359e-07 -1.55862e-10 1.4699e-09)
(4.6811e-07 -4.89152e-09 9.75539e-10)
(1.68775e-07 4.91153e-09 7.1768e-09)
(3.41286e-07 3.38263e-09 1.25081e-09)
(2.55585e-07 2.93998e-09 3.68249e-10)
(1.8765e-07 1.312e-11 1.24072e-10)
(3.19983e-07 -7.16304e-10 1.9007e-09)
(1.11998e-07 2.45674e-09 -5.90649e-09)
(2.54925e-08 -1.58781e-09 -3.05419e-09)
(2.86831e-07 -7.1306e-10 8.15442e-10)
(6.37506e-08 -2.86501e-09 3.38008e-09)
(3.12856e-08 2.26163e-10 3.42869e-11)
(3.71085e-07 4.93782e-10 3.45938e-09)
(1.97759e-07 -8.38413e-10 7.31737e-10)
(1.09801e-07 -2.8918e-09 -4.49856e-09)
(2.31511e-07 -1.40628e-09 9.71189e-10)
(3.08653e-07 -2.93045e-09 4.10699e-10)
(3.75819e-07 -1.38449e-09 -1.78335e-09)
(2.44901e-07 -4.1594e-11 -6.73558e-10)
(3.39089e-08 1.45972e-09 1.05627e-10)
(3.0562e-07 7.73082e-10 -7.14708e-10)
(1.96014e-07 -1.35947e-09 9.89162e-10)
(1.06435e-07 -1.8567e-10 1.36907e-09)
(2.61242e-07 -5.84373e-10 2.29854e-09)
(2.27451e-07 -3.043e-11 4.84983e-10)
(1.7566e-07 7.19653e-11 -1.35861e-09)
(2.03049e-07 5.47971e-11 -1.05314e-09)
(2.65732e-07 -8.93171e-10 1.81213e-09)
(2.00043e-07 -1.95474e-09 6.93677e-10)
(8.31833e-08 -5.58825e-10 -2.54311e-10)
(2.18276e-08 8.43017e-10 -6.79516e-10)
(4.2775e-08 -3.21344e-09 -2.00697e-10)
(2.32417e-07 1.1259e-09 9.78579e-10)
(2.68375e-07 -2.03566e-08 3.25146e-08)
(1.15933e-07 -6.48733e-09 -9.35011e-09)
(1.18432e-07 3.89905e-10 2.22597e-10)
(2.56301e-07 3.09058e-10 3.93317e-09)
(3.12068e-07 4.41677e-10 9.50201e-10)
(2.21151e-07 -1.85293e-10 3.76941e-09)
(3.5035e-07 1.14976e-09 1.38203e-09)
(3.43284e-07 -1.32238e-09 -3.26233e-10)
(2.18116e-07 8.71866e-10 6.76472e-10)
(1.34284e-07 1.19059e-09 3.5704e-10)
(2.63159e-08 -7.68056e-10 -2.89461e-10)
(2.40888e-07 -4.72025e-08 5.93466e-09)
(9.38038e-08 2.62829e-09 1.00675e-09)
(6.98259e-08 -3.23003e-09 -9.56447e-10)
(7.37933e-08 1.56248e-09 4.86438e-10)
(1.64393e-07 2.75314e-10 8.04039e-11)
(1.82579e-07 -4.81758e-10 1.5548e-10)
(2.25991e-07 7.59546e-10 -7.47749e-10)
(1.86797e-08 1.08541e-09 -1.58588e-09)
(1.72605e-07 -4.13378e-10 9.47216e-11)
(7.07362e-08 1.72341e-09 -1.33244e-09)
(1.75027e-07 -9.36258e-10 -1.22968e-10)
(6.01898e-08 -8.50629e-10 -5.38989e-10)
(1.58241e-07 -3.29583e-09 3.01429e-09)
(2.30483e-07 -4.9743e-09 1.71676e-09)
(1.80264e-07 -1.72163e-10 1.58113e-09)
(2.10796e-08 1.80624e-09 -2.25613e-09)
(1.21265e-07 -1.13034e-09 5.69041e-09)
(2.39806e-07 3.73006e-10 1.01224e-09)
(2.78012e-08 -1.73886e-09 -2.04043e-09)
(2.88796e-07 2.68159e-09 1.6304e-08)
(1.87512e-07 -8.32639e-10 3.61645e-09)
(3.07147e-07 5.17415e-10 -3.89832e-09)
(2.1066e-07 4.67981e-09 -5.02361e-09)
(9.91795e-08 -1.11872e-09 2.03299e-09)
(3.77967e-07 3.40007e-09 -5.86192e-10)
(1.42413e-07 -1.41628e-08 -1.30452e-08)
(2.93172e-07 2.83167e-09 7.58453e-10)
(1.55434e-07 1.14514e-08 1.22811e-08)
(1.53154e-07 -5.8944e-09 8.7379e-10)
(1.54353e-07 -8.91814e-10 -3.5903e-09)
(2.45661e-07 1.61246e-09 3.83062e-10)
(4.92549e-07 4.57642e-09 1.1754e-09)
(8.68158e-08 -8.11567e-10 7.59428e-10)
(3.4475e-07 1.87873e-09 -1.29714e-09)
(1.26404e-07 -8.0778e-10 -2.74375e-09)
(3.9118e-07 -1.56971e-09 1.65892e-09)
(2.98487e-07 -8.29881e-10 1.89496e-09)
(7.6339e-08 2.09296e-09 -5.42389e-09)
(2.19957e-07 -1.27129e-09 -3.16233e-10)
(3.77806e-07 -3.71654e-09 3.04315e-09)
(2.25339e-07 5.33236e-10 -1.35319e-10)
(2.15359e-07 3.21428e-10 4.31716e-10)
(2.61933e-08 -8.12119e-10 -3.42556e-09)
(2.17813e-08 1.14007e-09 -2.79025e-09)
(2.97872e-07 1.78734e-09 -3.35161e-09)
(2.58465e-07 2.73718e-10 -1.1407e-10)
(1.97172e-07 -1.48035e-09 -1.03236e-09)
(3.97615e-08 4.43338e-10 -2.72811e-09)
(8.19468e-08 -4.6412e-10 2.67468e-10)
(3.18402e-07 -3.33489e-09 1.50731e-10)
(1.50124e-07 4.79772e-10 8.94246e-10)
(2.83159e-07 2.4603e-09 2.5714e-10)
(2.55169e-07 1.11724e-09 -2.85229e-10)
(2.00881e-07 1.667e-09 9.37721e-10)
(2.1548e-07 2.38056e-09 1.06868e-09)
(1.30418e-07 6.96103e-10 3.44153e-10)
(1.91236e-07 2.00561e-09 2.06888e-10)
(9.55139e-08 -1.87461e-09 -4.88105e-09)
(2.68576e-07 -4.92438e-10 -4.31493e-10)
(1.9859e-07 -2.38323e-10 -2.18016e-09)
(2.05943e-07 1.76513e-09 6.71261e-10)
(2.00231e-07 4.86395e-10 -3.03963e-10)
(3.45537e-07 -1.04861e-10 -3.70572e-10)
(2.6184e-07 1.85801e-09 -8.35209e-10)
(7.43953e-08 4.25885e-09 3.78091e-09)
(4.92773e-08 1.14003e-09 6.10636e-10)
(2.18774e-08 1.90322e-09 -2.20615e-09)
(2.24591e-07 4.77804e-09 8.07925e-09)
(2.60762e-07 1.17908e-10 1.3341e-10)
(2.68284e-07 -1.3926e-09 9.78224e-10)
(1.97821e-07 2.48404e-09 8.34168e-10)
(3.30574e-08 4.76791e-11 1.16776e-09)
(2.49948e-08 -3.99258e-10 2.85861e-09)
(1.8826e-07 -2.97284e-10 2.91777e-09)
(2.22564e-07 -3.962e-10 1.96101e-09)
(2.81619e-07 9.55626e-11 1.2091e-09)
(3.12537e-07 1.80467e-09 -3.67427e-10)
(2.01946e-07 -8.35739e-10 -1.7713e-09)
(3.01313e-07 2.00316e-09 -2.47323e-10)
(3.80261e-07 2.85114e-09 9.97098e-10)
(3.51002e-08 -7.40553e-10 3.32897e-09)
(1.88315e-07 -8.39925e-10 5.35287e-10)
(7.97569e-08 7.82579e-10 3.93747e-09)
(9.76667e-08 -9.66979e-09 2.07687e-09)
(1.23081e-07 1.7295e-10 -3.14833e-10)
(1.52897e-07 -9.91006e-11 5.7493e-10)
(2.48569e-07 6.24435e-10 -3.25329e-10)
(2.1702e-08 -4.02613e-09 -1.56482e-09)
(3.21781e-07 3.7131e-09 7.94683e-11)
(2.39079e-07 2.351e-11 -7.78658e-11)
(1.92654e-07 1.83514e-09 4.73002e-10)
(2.16483e-07 2.23564e-09 5.07822e-10)
(1.64462e-07 2.70962e-10 9.64474e-10)
(2.36651e-07 1.06258e-09 1.33853e-09)
(2.51872e-07 6.41374e-10 3.07133e-10)
(2.67067e-07 1.68898e-09 4.69451e-10)
(1.71419e-07 5.67851e-09 -4.00667e-09)
(2.47575e-07 3.24987e-10 -1.45794e-10)
(2.85439e-07 -3.89546e-09 -1.50139e-09)
(2.06174e-08 -1.33596e-09 1.36475e-09)
(2.74051e-07 -7.76502e-10 -1.43892e-09)
(1.96176e-07 2.94753e-09 -1.3317e-10)
(7.12094e-08 -1.94081e-09 5.7433e-09)
(1.83648e-07 1.14521e-09 -2.8413e-09)
(3.19261e-07 -7.6075e-12 -1.42302e-09)
(2.2956e-07 -3.73322e-10 8.90428e-10)
(1.27784e-07 3.63864e-10 -3.57927e-09)
(2.03043e-08 -1.80231e-09 -2.12149e-09)
(2.33941e-07 -1.12323e-09 -9.87391e-10)
(3.43884e-07 5.12676e-09 -4.02393e-09)
(2.25355e-07 -5.00343e-10 7.50031e-12)
(1.93113e-07 3.16276e-10 1.00362e-09)
(6.34926e-08 2.94963e-09 3.04602e-09)
(2.49276e-07 5.07786e-11 -1.15601e-09)
(2.76591e-08 2.26218e-09 -3.38947e-09)
(1.63668e-07 2.23945e-10 -3.29624e-10)
(2.08654e-07 2.3264e-08 -7.43802e-09)
(2.36072e-07 -2.19835e-10 -5.4994e-10)
(9.7386e-08 -2.31418e-10 3.27936e-09)
(1.9329e-07 -1.94512e-09 -3.09663e-09)
(1.22922e-07 6.99459e-10 -1.85363e-09)
(5.26406e-08 3.25236e-09 2.62467e-09)
(4.05799e-07 1.36291e-09 1.11344e-09)
(1.89736e-07 1.10389e-09 6.79877e-10)
(1.997e-08 6.85998e-10 1.91466e-09)
(2.6156e-07 -2.55239e-09 1.32528e-10)
(2.46612e-07 -2.20183e-09 9.81678e-10)
(4.29482e-08 -5.95007e-11 -2.33344e-09)
(1.38456e-07 6.10334e-09 1.28718e-10)
(1.07936e-07 3.73095e-09 2.96933e-09)
(1.8306e-07 1.35517e-09 8.03564e-10)
(2.29971e-07 -7.24053e-10 3.64789e-10)
(3.59306e-08 -8.43501e-10 1.63259e-09)
(1.00258e-07 -3.25664e-09 -1.45456e-09)
(1.11573e-07 2.14537e-09 -1.36122e-10)
(1.82381e-07 2.20282e-09 2.73365e-10)
(2.95963e-07 -1.11157e-09 6.97255e-10)
(2.59705e-08 1.34476e-09 -3.542e-09)
(3.51781e-07 -2.68525e-09 1.97005e-09)
(2.31743e-07 1.99762e-09 2.56246e-10)
(2.42539e-07 7.81939e-10 1.47454e-09)
(1.14194e-07 4.89888e-09 -4.71978e-09)
(3.12846e-07 2.14176e-09 4.84643e-10)
(2.56022e-08 -2.57337e-10 -2.85203e-09)
(2.80247e-07 -1.55691e-09 -2.99656e-10)
(3.0749e-08 -5.54138e-10 -8.8383e-11)
(1.43942e-07 -4.72555e-09 3.11933e-10)
(2.19675e-07 -9.2006e-10 1.92427e-10)
(1.49274e-07 -4.3527e-09 -1.42341e-09)
(2.15563e-08 2.52509e-09 2.2465e-09)
(5.65368e-08 1.06879e-09 -1.77264e-09)
(8.39218e-08 -4.28244e-09 2.44096e-09)
(1.44073e-07 2.85087e-09 -3.91629e-09)
(3.23248e-07 -8.91814e-10 -1.41992e-09)
(6.29558e-08 -1.46702e-09 -1.59701e-10)
(1.48677e-07 4.89133e-09 -2.84513e-09)
(2.25162e-07 -1.16354e-08 -2.30852e-08)
(1.94327e-07 1.07224e-09 7.232e-10)
(3.23881e-08 2.13777e-09 2.95004e-10)
(2.36301e-07 1.13446e-12 -2.20362e-09)
(1.4769e-07 1.57603e-08 -5.99765e-09)
(1.84921e-07 -1.96083e-09 -3.10719e-10)
(1.09035e-07 -3.13963e-10 -2.48756e-09)
(1.61785e-07 1.21466e-09 6.96247e-10)
(1.16411e-07 -4.90879e-09 -2.91715e-09)
(1.64571e-07 5.53481e-10 1.01429e-09)
(1.44318e-07 9.00779e-10 -3.62156e-10)
(7.97614e-08 3.90202e-09 -7.08806e-09)
(2.70021e-07 4.34058e-11 2.70464e-10)
(7.19902e-08 2.93773e-09 3.59979e-09)
(1.75325e-08 2.69942e-09 9.86739e-10)
(3.10322e-07 1.15139e-09 6.78145e-10)
(1.68289e-07 1.02996e-09 1.98125e-10)
(2.98671e-07 1.95625e-09 -6.56991e-10)
(2.32905e-07 3.28273e-09 -1.07548e-09)
(4.15673e-07 -4.38228e-09 9.85938e-10)
(1.49099e-07 3.5748e-09 -4.52143e-10)
(3.80418e-07 -4.16777e-09 7.88955e-10)
(1.06693e-07 -3.3113e-09 4.58265e-09)
(1.38189e-07 8.77669e-10 -1.15811e-10)
(3.12909e-07 -3.51412e-09 -2.85993e-09)
(3.61422e-08 9.18888e-10 -5.18316e-09)
(2.95892e-07 -1.97661e-10 -1.31052e-09)
(1.25604e-07 6.1996e-10 4.17228e-09)
(3.35286e-08 -2.52489e-09 -2.28577e-09)
(2.76772e-07 -5.41652e-10 -2.50828e-10)
(6.85151e-08 -1.80948e-09 1.67445e-09)
(2.02361e-07 8.71495e-10 4.10291e-10)
(1.95772e-07 4.87058e-10 8.14489e-10)
(3.76391e-07 2.83633e-09 2.31525e-09)
(1.04908e-07 -4.97584e-09 -4.81932e-09)
(2.62768e-07 2.30733e-09 2.90181e-10)
(1.62347e-07 -2.04434e-09 1.76172e-09)
(2.84115e-07 3.1791e-10 1.31505e-09)
(2.89857e-07 7.04817e-10 -2.92697e-10)
(2.55815e-07 1.7663e-09 8.30842e-10)
(1.50274e-07 8.23556e-10 1.51767e-10)
(5.34327e-08 -2.86611e-09 -2.41275e-09)
(7.59118e-08 1.75505e-10 -9.46093e-10)
(1.63006e-07 7.76713e-10 -1.62325e-10)
(2.74039e-07 2.12916e-09 1.81375e-09)
(3.16454e-08 -2.18262e-09 -1.06586e-09)
(2.3391e-07 4.88727e-10 -6.78502e-11)
(4.35092e-07 3.10463e-10 1.60025e-09)
(3.22449e-07 -3.05238e-09 -8.09448e-10)
(3.41053e-07 -3.4176e-09 -7.98753e-10)
(2.5931e-07 -9.21112e-10 -2.39492e-09)
(2.24982e-08 2.23023e-09 1.96096e-09)
(2.10895e-07 7.01903e-10 3.53106e-10)
(1.54494e-07 -1.33486e-09 -2.42711e-09)
(2.55187e-07 -6.15122e-10 7.19368e-10)
(1.69605e-07 3.52416e-11 3.18073e-11)
(3.97228e-08 2.87951e-09 -2.47322e-10)
(1.87687e-07 1.2701e-09 2.31485e-10)
(1.59669e-07 3.68149e-09 3.27565e-09)
(2.49266e-07 -1.08892e-09 7.65577e-11)
(2.43374e-07 -2.58773e-09 -3.1541e-10)
(1.98819e-07 -1.86494e-09 -7.67485e-10)
(1.5261e-08 1.3302e-09 -1.82463e-09)
(2.26039e-08 -1.37466e-09 -2.24417e-09)
(1.69113e-07 -1.53735e-09 -5.45682e-11)
(2.83519e-07 -5.4579e-10 3.95907e-10)
(2.06142e-07 1.82292e-09 1.03924e-09)
(1.75228e-07 5.29066e-10 8.41743e-10)
(1.69585e-07 -2.34326e-09 1.2339e-09)
(2.51222e-07 -2.1403e-09 -6.74586e-10)
(2.6516e-07 3.42929e-10 8.43003e-11)
(2.17978e-08 1.85124e-09 4.07852e-10)
(1.33718e-07 -1.24066e-09 1.35152e-10)
(1.7369e-07 -1.73641e-08 -6.31083e-11)
(5.16152e-08 -1.0552e-09 2.65123e-09)
(9.18376e-08 -5.92103e-09 1.45346e-09)
(3.07005e-07 -1.48263e-09 -2.03663e-09)
(2.13063e-07 -2.41989e-09 7.6761e-10)
(1.98583e-07 1.07663e-09 -6.20218e-10)
(2.44359e-07 -1.16917e-09 8.63616e-10)
(1.46669e-07 -4.83681e-09 1.37909e-09)
(3.00582e-07 5.04014e-10 -4.21155e-10)
(1.89684e-07 2.30966e-09 -4.90686e-09)
(3.98946e-07 3.81713e-09 5.41323e-12)
(2.02439e-07 -3.54753e-10 -3.26309e-10)
(2.16571e-07 -2.22419e-09 1.09417e-09)
(2.88929e-07 -2.85564e-09 4.93561e-11)
(5.27561e-08 -6.48874e-10 2.51719e-09)
(5.15542e-07 -3.84668e-09 1.06124e-09)
(3.72293e-08 9.56287e-10 -1.59552e-09)
(1.4895e-07 -1.44331e-08 8.52612e-09)
(1.26336e-07 3.53778e-09 3.01039e-09)
(1.61285e-07 -2.92024e-09 -1.56315e-08)
(2.18144e-07 -1.57417e-09 -3.58207e-10)
(2.90742e-07 -4.62974e-08 -1.00792e-08)
(1.28839e-07 -2.00329e-11 -2.39636e-10)
(3.01308e-07 1.37321e-10 2.94219e-10)
(3.28898e-07 8.22047e-10 -4.07152e-10)
(1.9807e-07 -5.609e-11 1.47911e-09)
(3.93165e-08 1.94405e-10 -7.09754e-10)
(1.18484e-07 -4.50996e-09 -3.0174e-09)
(2.10177e-07 -3.83774e-09 -2.98851e-08)
(1.97258e-07 2.97391e-10 9.4007e-11)
(1.05348e-07 -2.34799e-09 -4.21578e-10)
(2.17412e-07 -1.90637e-08 -6.4108e-09)
(2.30181e-07 -2.28593e-09 4.57199e-09)
(3.23606e-07 2.49564e-09 1.43721e-09)
(4.90329e-08 -1.10352e-09 1.73384e-09)
(5.8918e-08 -2.74074e-09 1.82053e-09)
(3.02963e-08 1.87738e-10 -4.38453e-10)
(2.22073e-08 1.5136e-10 -1.70236e-09)
(4.91047e-08 -1.95701e-10 2.51495e-10)
(2.22254e-07 -1.17077e-08 7.80661e-09)
(1.82699e-07 1.36007e-10 8.10094e-10)
(2.10895e-08 -7.22331e-10 2.92649e-09)
(2.31461e-08 1.69111e-09 2.61616e-09)
(3.16837e-07 1.49772e-09 2.97458e-11)
(1.66229e-07 -2.15847e-08 1.46818e-08)
(5.16941e-08 2.29402e-09 9.73523e-10)
(2.25321e-07 3.57779e-10 -6.43911e-11)
(1.13728e-07 -1.02381e-09 -1.70493e-09)
(2.05528e-07 6.41888e-11 1.74836e-09)
(4.90889e-08 2.56573e-09 -1.51385e-09)
(1.01205e-07 2.81483e-09 -1.05556e-09)
(2.01434e-07 -1.84961e-09 3.32089e-10)
(2.51425e-07 5.28778e-10 -4.32337e-10)
(3.90617e-07 1.31841e-09 -1.63508e-09)
(4.8333e-08 4.04687e-09 -1.57123e-09)
(2.73159e-08 -2.10354e-09 1.39675e-09)
(2.01618e-07 -2.88195e-08 -2.13323e-08)
(3.11963e-08 -4.15455e-09 -5.34767e-11)
(3.14561e-07 -2.29436e-09 -2.73873e-09)
(3.25007e-08 1.87436e-09 -4.26337e-09)
(1.5687e-07 -7.61397e-10 3.38546e-09)
(2.80887e-07 -7.79293e-10 -3.21865e-10)
(4.03403e-07 -2.08423e-09 2.28084e-09)
(6.56078e-08 9.40969e-10 -1.63728e-09)
(1.47826e-07 -7.05865e-10 -1.49099e-09)
(4.30035e-08 1.57628e-09 -1.60821e-09)
(3.23595e-08 3.84806e-09 -1.43032e-09)
(2.39191e-07 -8.88131e-11 -1.25791e-09)
(1.6657e-08 -1.41137e-09 -2.20338e-09)
(1.69244e-07 -1.81433e-09 -2.41061e-10)
(6.77779e-08 1.07507e-09 -3.20817e-09)
(3.15956e-07 -1.621e-09 -2.59241e-10)
(2.26673e-07 -4.63211e-10 -1.52123e-10)
(2.16198e-08 -5.76254e-10 3.47125e-09)
(1.47807e-07 -7.05546e-09 4.03677e-10)
(2.43332e-07 5.22339e-10 4.5128e-10)
(3.47474e-08 -1.74288e-09 -1.90059e-11)
(2.73041e-07 -1.39526e-09 -6.5518e-10)
(8.74338e-08 -3.42792e-09 5.45942e-09)
(2.26604e-07 5.39978e-10 -3.59292e-10)
(2.06172e-07 -4.44193e-10 -1.28369e-09)
(6.19013e-08 1.94582e-09 1.54213e-09)
(2.36977e-08 1.03641e-09 -3.20364e-09)
(1.02347e-07 1.64038e-09 -6.34037e-10)
(2.4352e-07 3.83015e-08 8.28012e-09)
(2.4063e-07 9.10659e-10 4.3722e-10)
(8.50694e-08 -3.43608e-09 4.20209e-09)
(1.98885e-07 5.08396e-10 3.23042e-09)
(2.73991e-08 -1.0727e-09 6.85731e-10)
(1.82279e-07 -2.66055e-10 -1.2232e-09)
(2.56463e-08 -3.54121e-10 -1.63418e-09)
(3.16684e-07 -3.27556e-09 1.54336e-10)
(3.01981e-07 -1.5461e-09 7.65862e-10)
(2.07438e-07 -5.51987e-10 3.47764e-10)
(1.61788e-08 1.69449e-09 9.97972e-11)
(3.37402e-07 -2.52683e-09 1.14148e-09)
(1.67737e-07 8.395e-10 -4.06433e-10)
(3.46418e-07 1.48302e-09 7.85389e-10)
(6.88831e-08 -4.19318e-10 -2.29236e-10)
(2.2245e-07 -2.6855e-08 1.38523e-08)
(2.5453e-07 -2.64455e-09 3.98806e-11)
(7.38954e-08 1.16235e-09 -9.43584e-10)
(2.26798e-07 6.57689e-10 1.65432e-10)
(2.10018e-07 3.8861e-09 -3.95195e-08)
(1.87894e-07 4.55371e-10 -7.93102e-10)
(3.63826e-08 8.92613e-10 -2.0579e-09)
(1.1273e-07 -1.0585e-09 -5.52806e-09)
(1.7293e-07 -7.96654e-11 1.13493e-10)
(2.22178e-07 2.28255e-09 -2.79745e-10)
(3.56982e-08 1.75312e-09 5.97617e-10)
(2.28455e-07 2.32547e-09 -2.46266e-09)
(1.72194e-07 -2.80535e-09 -5.31032e-09)
(2.78836e-08 -2.52032e-09 1.5921e-09)
(1.85688e-07 1.26437e-10 -1.31387e-10)
(1.58277e-07 -2.00665e-09 1.55422e-08)
(3.33881e-07 4.019e-09 -5.0066e-09)
(1.86195e-07 -1.74572e-10 1.71871e-10)
(1.673e-07 2.58318e-11 6.06241e-10)
(2.886e-07 -5.44292e-10 -9.26964e-10)
(2.61412e-07 1.25444e-09 1.4472e-09)
(7.83857e-08 2.27325e-09 7.88779e-10)
(8.00982e-08 -4.28726e-09 -3.96526e-09)
(3.45746e-07 3.31847e-09 4.65307e-10)
(2.24705e-07 -1.96976e-08 1.84229e-08)
(2.16619e-07 -1.93594e-09 8.98989e-10)
(1.94024e-07 -1.7281e-09 4.53369e-10)
(1.36715e-07 2.92285e-09 1.35852e-09)
(3.18699e-07 4.97953e-11 9.48476e-10)
(1.92583e-07 4.67432e-10 -7.4792e-10)
(1.92351e-07 -1.2895e-09 -2.8153e-09)
(2.38145e-07 4.59116e-09 3.05068e-10)
(4.74323e-08 1.84146e-10 -2.97647e-09)
(1.83923e-07 1.94085e-09 -1.59435e-09)
(4.42598e-08 -1.29913e-09 -3.50772e-09)
(3.05011e-07 -2.86667e-11 1.81812e-09)
(2.99999e-07 -7.22608e-10 5.5952e-10)
(1.77344e-07 2.42404e-09 -4.46159e-09)
(1.70256e-07 1.22789e-09 -8.88682e-10)
(1.97658e-08 2.12893e-09 -4.16535e-10)
(1.13185e-07 -5.54689e-10 -7.76091e-10)
(8.2733e-08 -3.0278e-09 -3.62013e-09)
(2.41496e-07 -1.28123e-10 -1.5634e-09)
(2.15896e-07 -1.15919e-09 -1.04209e-09)
(2.20517e-07 -2.02355e-08 1.28433e-08)
(2.94478e-07 -1.04842e-09 2.33928e-09)
(8.85189e-08 -2.64739e-09 -1.87617e-09)
(1.3656e-07 -3.43252e-09 1.06994e-08)
(2.48673e-07 -1.0823e-09 3.85774e-09)
(3.12352e-08 -2.50589e-09 -1.44478e-10)
(2.21539e-07 -7.00792e-10 -1.01056e-09)
(5.92699e-08 1.83453e-09 -1.30656e-11)
(2.0548e-07 -6.06911e-10 1.50141e-09)
(3.59307e-08 5.11764e-09 -1.95952e-10)
(3.32121e-07 2.39609e-09 -1.91149e-09)
(2.0395e-07 -8.79332e-09 5.44408e-09)
(2.51838e-07 1.52095e-10 -7.06437e-10)