/*--------------------------------*- C++ -*----------------------------------*\
| =========                 |                                                 |
| \\      /  F ield         | OpenFOAM: The Open Source CFD Toolbox           |
|  \\    /   O peration     | Version:  2406                                  |
|   \\  /    A nd           | Website:  www.openfoam.com                      |
|    \\/     M anipulation  |                                                 |
\*---------------------------------------------------------------------------*/
FoamFile
{
    version     2.0;
    format      ascii;
    arch        "LSB;label=32;scalar=64";
    class       volVectorField;
    location    "30";
    object      momentum:angularMomentum;
}
// * * * * * * * * * * * * * * * * * * * * * * * * * * * * * * * * * * * * * //

dimensions      [1 1 -1 0 0 0 0];

internalField   nonuniform List<vector> 
59516
(
(1.11736e-09 -9.43339e-10 2.37009e-07)
(4.34023e-10 -2.51916e-10 1.77044e-07)
(-4.19318e-10 2.73302e-09 2.13603e-07)
(-3.64395e-09 3.54674e-10 1.75842e-07)
(-7.82959e-09 3.64888e-10 2.0047e-07)
(-5.19856e-09 2.77282e-09 5.0364e-08)
(-4.4228e-10 -2.4904e-09 2.16621e-07)
(-2.34776e-10 -1.8123e-09 2.08135e-07)
(-1.18293e-09 -3.36483e-10 1.64391e-07)
(3.5601e-09 1.59953e-09 8.84028e-08)
(-1.52029e-09 -9.03265e-10 2.02055e-07)
(-4.00865e-09 -4.11301e-09 1.08045e-07)
(-2.65855e-09 -1.14759e-09 3.36866e-07)
(1.0935e-10 -1.7449e-10 1.76488e-08)
(3.61583e-12 -9.14329e-09 1.67413e-07)
(-2.38872e-09 6.87615e-09 9.25833e-08)
(8.62538e-10 -4.18333e-10 2.5184e-07)
(-1.19863e-08 -3.73637e-09 1.6135e-07)
(-1.22168e-08 -4.19381e-09 3.35059e-07)
(-4.86508e-10 1.46623e-09 3.51835e-07)
(-1.58521e-09 9.58528e-10 1.04072e-07)
(1.00261e-09 -2.62299e-10 3.15363e-07)
(6.26381e-10 -1.50701e-09 3.45705e-07)
(1.12751e-09 5.53615e-10 3.87739e-08)
(1.34194e-09 2.51813e-09 3.02962e-07)
(-1.87413e-09 5.11551e-09 2.18485e-07)
(-7.09916e-10 3.61071e-09 5.81573e-08)
(-5.30506e-09 -2.74335e-09 7.624e-08)
(-3.76752e-09 -2.23297e-09 1.5096e-07)
(1.93571e-09 1.55269e-09 1.53429e-08)
(-3.74212e-08 2.15129e-09 1.8938e-07)
(-4.89143e-09 3.94803e-09 8.59956e-08)
(-9.88383e-10 -6.83318e-10 1.76836e-07)
(-3.98278e-09 -1.33214e-09 1.81515e-07)
(-3.44413e-09 -4.02808e-10 1.32197e-07)
(7.77642e-10 6.14412e-10 3.96628e-07)
(-2.30895e-09 1.11601e-09 1.48359e-08)
(-1.25999e-08 -4.21198e-09 1.32905e-07)
(-7.53939e-09 1.36855e-09 2.76697e-07)
(3.54542e-09 -1.14549e-09 2.69438e-07)
(3.28098e-10 -2.05798e-09 2.73066e-07)
(-2.56983e-08 -1.17189e-10 4.04214e-07)
(-2.92224e-09 1.05115e-09 3.40451e-07)
(-9.92604e-10 6.44139e-10 1.17538e-07)
(-2.87256e-09 1.3952e-09 2.66839e-07)
(3.43202e-09 7.74249e-10 1.1208e-07)
(-6.25395e-09 -4.3536e-10 3.28001e-07)
(-2.11133e-09 5.07753e-10 2.43842e-07)
(-3.44175e-08 3.25809e-09 2.51698e-07)
(-8.93637e-09 -2.55198e-10 2.34837e-07)
(-2.82176e-08 8.221e-10 1.63879e-07)
(-7.13841e-09 -3.50697e-09 8.46295e-08)
(7.87254e-10 -5.67418e-09 3.28628e-07)
(-8.73978e-10 -1.13092e-11 3.09698e-07)
(-4.52937e-09 1.09686e-09 8.68899e-08)
(-1.2281e-09 5.02587e-10 2.48928e-07)
(-1.44348e-08 -2.20932e-10 2.00001e-07)
(-8.15616e-09 -2.87872e-09 8.77582e-08)
(5.84168e-10 6.61186e-10 1.89968e-07)
(-8.61096e-09 -3.15838e-10 1.44803e-07)
(3.81413e-10 6.41275e-10 2.04581e-07)
(-1.32487e-09 1.77033e-09 1.71343e-08)
(9.57419e-10 2.32731e-10 2.44311e-07)
(-8.37206e-10 1.08391e-09 3.18764e-07)
(-1.88787e-09 4.10653e-10 3.07105e-07)
(-4.51054e-09 4.62134e-10 2.10282e-07)
(1.84978e-10 2.33141e-09 2.08568e-08)
(-2.6703e-10 4.34445e-10 7.30873e-08)
(-3.69666e-08 7.35338e-10 1.97903e-07)
(-3.95699e-10 -1.54709e-09 1.7062e-07)
(-1.07325e-09 -1.4371e-09 5.85863e-08)
(-5.13604e-10 -3.70985e-11 1.48435e-07)
(4.11527e-09 -1.70513e-09 2.6273e-08)
(7.26137e-10 5.4684e-11 1.84646e-07)
(-1.5193e-09 8.96703e-10 3.35918e-07)
(-1.55942e-10 -3.13838e-10 3.50892e-07)
(-6.67868e-10 -4.04506e-10 2.05348e-07)
(-8.78656e-10 1.40606e-10 2.21674e-07)
(3.91335e-09 2.23709e-09 9.41207e-08)
(-6.55659e-09 1.14931e-09 1.87284e-07)
(-3.85457e-09 1.41194e-10 5.71152e-08)
(-4.86985e-09 6.65735e-10 1.6748e-07)
(-4.52015e-09 7.5655e-10 1.8097e-07)
(-2.69257e-09 1.45137e-09 2.0688e-08)
(-5.98944e-09 1.26174e-09 2.1065e-07)
(-6.75154e-10 1.06105e-09 3.45041e-07)
(6.90632e-10 1.29297e-09 3.53728e-08)
(1.89816e-09 1.25206e-09 4.97421e-07)
(-5.39634e-09 -2.97788e-09 1.20473e-07)
(-1.43458e-08 -3.99474e-09 1.67786e-07)
(-1.47035e-08 -2.66543e-10 1.82815e-07)
(-1.85798e-09 1.44082e-09 1.8514e-07)
(3.10936e-10 -3.75663e-11 2.3728e-07)
(-1.05593e-10 1.20659e-09 1.80014e-07)
(-8.95033e-11 -9.39747e-11 1.69587e-07)
(-1.8845e-08 1.06652e-10 1.83492e-07)
(-9.69169e-10 -8.86084e-10 1.23599e-07)
(3.29255e-09 6.87458e-09 9.27485e-08)
(-3.34972e-09 -1.90039e-09 1.18964e-07)
(1.75774e-09 1.21631e-09 2.0366e-07)
(-2.24008e-09 1.83661e-09 6.87608e-08)
(3.37071e-09 1.60878e-09 2.99187e-08)
(3.36976e-09 1.81475e-09 2.64209e-08)
(-3.13623e-09 3.694e-09 9.41053e-08)
(9.84847e-10 -3.63795e-10 2.36444e-07)
(-5.31248e-10 6.11976e-10 1.57522e-07)
(2.92559e-09 -5.11346e-09 6.24903e-08)
(-7.58552e-10 -5.02798e-10 1.46121e-07)
(-1.09639e-09 7.99158e-10 1.85889e-07)
(-4.6534e-09 7.37002e-09 2.0578e-07)
(-4.06523e-08 -6.94719e-10 2.79868e-07)
(3.82328e-09 -3.339e-09 4.8766e-08)
(-7.40767e-09 9.28244e-09 2.03704e-07)
(-3.52827e-08 -1.40254e-10 2.19161e-07)
(-2.98622e-10 1.97654e-11 2.11341e-07)
(9.72796e-10 -1.62707e-09 1.46114e-07)
(-5.1396e-09 -2.87361e-09 1.38644e-07)
(-8.98398e-10 -4.5734e-10 1.45195e-07)
(-3.52841e-10 -9.28925e-10 2.0575e-08)
(-1.93708e-09 2.36395e-09 2.57876e-07)
(4.88765e-10 1.57394e-10 3.61674e-07)
(5.30437e-10 3.2624e-10 1.63028e-07)
(1.8226e-10 2.80966e-10 1.54638e-07)
(-1.29781e-10 4.2031e-10 1.69092e-07)
(-1.69213e-08 1.37217e-09 1.32665e-07)
(-3.73487e-09 1.82731e-13 1.47359e-07)
(-2.53182e-09 -1.04367e-09 4.03718e-08)
(-1.78244e-08 3.35981e-09 2.11489e-07)
(-2.36204e-08 5.58251e-09 1.63255e-07)
(5.85786e-10 6.75938e-11 1.4281e-07)
(1.54319e-09 -1.11066e-09 2.50258e-07)
(3.98796e-09 5.43977e-09 3.40436e-07)
(-6.28889e-10 -2.21995e-09 2.5449e-08)
(5.98975e-10 9.58644e-10 2.53414e-07)
(2.68366e-09 1.17859e-09 3.34841e-07)
(-2.37869e-09 2.2741e-09 2.06626e-07)
(-2.13582e-08 1.96468e-09 1.5212e-07)
(1.05723e-09 1.45114e-09 3.22371e-07)
(-5.18848e-10 3.8317e-09 5.80791e-08)
(-1.95898e-09 1.47859e-09 1.68743e-07)
(-1.94716e-09 4.18971e-09 8.48766e-08)
(4.27904e-11 -1.29555e-11 2.92283e-07)
(-7.59462e-10 -1.33595e-09 1.55043e-08)
(-5.77742e-10 1.48732e-09 1.54909e-07)
(-2.54867e-10 3.79812e-10 1.94768e-07)
(-2.29279e-09 1.56267e-09 2.81256e-07)
(-2.99759e-09 1.46705e-09 2.04114e-07)
(-2.87553e-09 2.19431e-09 2.12929e-07)
(9.92143e-10 -1.82168e-09 6.40496e-08)
(-3.83942e-10 2.10919e-09 2.17381e-07)
(-2.38832e-10 -2.45141e-09 3.38352e-07)
(2.15384e-10 2.17029e-09 5.92719e-08)
(2.45024e-09 1.85591e-09 3.64105e-07)
(1.41727e-09 1.531e-10 2.12537e-07)
(-6.25824e-10 -3.35444e-09 1.70555e-07)
(-1.63607e-09 9.25993e-10 1.66119e-08)
(7.33787e-10 -4.96951e-10 2.91459e-07)
(-2.53039e-09 1.71896e-09 3.46014e-07)
(-1.68518e-09 9.9323e-10 1.38637e-07)
(-2.64833e-09 -1.88227e-09 1.80125e-08)
(3.92755e-09 3.27866e-09 9.68905e-08)
(6.42159e-09 -3.39287e-09 1.21692e-07)
(-8.45213e-10 1.75689e-09 4.46722e-08)
(-2.77837e-10 -5.03125e-10 2.55674e-08)
(4.5792e-09 3.91107e-10 1.72893e-07)
(-1.7439e-09 9.95073e-10 3.03558e-07)
(1.90774e-09 -9.15197e-11 1.68987e-07)
(-7.18101e-10 -2.89284e-10 2.53402e-07)
(1.16448e-09 2.25395e-09 1.94583e-08)
(-6.88388e-10 -4.75471e-10 2.11008e-07)
(-1.45008e-09 -1.23805e-09 9.33514e-08)
(-1.19046e-09 9.29601e-10 7.39283e-08)
(7.29688e-11 -3.28185e-09 1.15985e-07)
(6.90621e-10 -9.83958e-10 1.52128e-07)
(1.01968e-09 1.37947e-09 9.39353e-08)
(-9.23374e-09 -3.0008e-09 4.56042e-07)
(-1.48684e-09 -2.52412e-11 2.29093e-07)
(-5.98934e-09 1.00332e-09 3.07791e-07)
(1.55274e-09 -7.9742e-09 1.61909e-07)
(7.64375e-10 4.86547e-10 6.91819e-08)
(-1.24813e-09 -3.77018e-09 3.03756e-07)
(1.38787e-09 4.21094e-09 4.75591e-08)
(-1.29559e-09 -2.40598e-09 3.35637e-08)
(8.87556e-10 3.0042e-09 1.14346e-07)
(5.47625e-10 -8.24918e-10 1.8447e-07)
(-6.321e-10 1.11113e-09 1.05479e-07)
(-3.94762e-09 9.25143e-10 5.08762e-08)
(9.02305e-11 3.35039e-10 2.28149e-08)
(-2.55301e-10 -4.28891e-10 1.97318e-07)
(3.11679e-09 1.80062e-09 2.39344e-07)
(-3.25047e-09 -5.73874e-10 1.57564e-07)
(-1.72128e-09 -7.17272e-09 1.26405e-07)
(-5.53498e-10 -3.40067e-10 2.03807e-07)
(3.30236e-09 -2.9886e-09 1.03788e-07)
(-6.78161e-10 1.13759e-09 3.31692e-07)
(5.32128e-10 7.65778e-10 3.16068e-08)
(1.42575e-09 -6.14592e-11 1.06398e-07)
(5.07082e-10 -1.55722e-09 6.3067e-08)
(-7.72616e-09 -3.84188e-10 1.94736e-07)
(5.93601e-10 -1.38971e-10 2.57219e-07)
(-1.63623e-09 -2.0478e-09 8.27453e-08)
(-7.76418e-12 -2.04211e-10 1.70866e-07)
(1.11759e-09 3.04536e-09 3.31084e-07)
(1.58828e-09 -1.75886e-09 1.78612e-08)
(2.22914e-09 1.94994e-09 2.275e-07)
(1.28205e-10 -8.4765e-11 2.36465e-07)
(1.80398e-10 4.2909e-10 3.13033e-07)
(-4.81927e-11 -3.32899e-10 1.88917e-07)
(1.52379e-10 -5.2261e-10 2.01394e-08)
(3.97691e-09 2.46261e-09 3.15218e-07)
(-3.23144e-10 6.00691e-09 6.64858e-08)
(-4.13533e-09 8.90695e-10 2.62375e-08)
(-1.91336e-09 1.51621e-09 2.31951e-07)
(-3.8658e-10 2.28403e-09 1.0402e-07)
(-1.67825e-09 -2.2008e-09 3.06485e-07)
(-1.40782e-09 -4.97052e-10 2.68848e-07)
(-1.52343e-09 6.75731e-10 2.71808e-07)
(-9.21353e-10 9.9926e-10 2.02278e-07)
(-3.12985e-09 4.9173e-09 9.08875e-08)
(9.44366e-10 4.73747e-10 2.13014e-07)
(-2.97257e-09 -5.77912e-09 1.31199e-07)
(-4.48702e-10 1.19887e-09 2.03192e-07)
(-9.5101e-10 -1.18833e-09 1.68131e-07)
(8.7797e-10 -1.41828e-09 8.38583e-08)
(-2.3633e-09 -1.1004e-09 2.73749e-07)
(7.75782e-10 1.18907e-09 2.861e-07)
(-1.23343e-09 -1.27712e-09 3.49974e-08)
(-4.06789e-09 8.30111e-10 7.21746e-08)
(-7.93146e-10 1.03003e-09 1.84404e-07)
(-4.59861e-09 7.81273e-09 1.28984e-07)
(7.27376e-10 1.13402e-09 2.25395e-07)
(-6.97233e-10 3.74042e-10 1.65918e-07)
(-1.39506e-09 -1.67304e-09 2.83204e-07)
(-1.56929e-09 -2.53209e-09 2.97469e-08)
(-1.50482e-09 -1.29158e-09 3.46018e-08)
(-1.83207e-09 6.66934e-11 4.36629e-08)
(1.06261e-09 -8.88015e-10 1.18955e-07)
(-3.16368e-09 -9.71096e-10 1.85176e-07)
(-3.7933e-09 -5.93835e-11 4.01304e-07)
(2.9927e-09 -3.62287e-10 9.43804e-08)
(1.3533e-09 2.14826e-10 2.22811e-07)
(2.61106e-09 1.79006e-09 2.10039e-08)
(1.20236e-09 1.08667e-09 1.19253e-07)
(2.85887e-09 1.59851e-09 3.02945e-08)
(6.69939e-10 3.39489e-10 1.47437e-07)
(-2.86574e-10 -1.15952e-09 1.64099e-07)
(-9.10556e-10 -1.4737e-11 1.93217e-07)
(-4.99796e-10 4.42122e-09 2.02339e-07)
(8.58061e-10 7.40222e-10 2.6151e-07)
(-7.34348e-10 -3.2219e-10 2.10207e-07)
(4.44234e-09 -1.7064e-09 3.62929e-07)
(-1.11452e-09 3.94185e-10 2.11928e-07)
(9.40492e-10 5.57155e-10 1.70695e-07)
(-2.62131e-11 7.6657e-10 2.77494e-07)
(-7.82386e-10 2.42403e-09 2.77852e-07)
(-3.14837e-10 1.08107e-09 2.88798e-07)
(-6.22973e-10 -2.36099e-10 1.21433e-07)
(-2.32244e-09 -1.32646e-10 2.74415e-07)
(2.51443e-09 4.34569e-09 8.89191e-08)
(-6.02865e-10 3.67884e-09 1.05963e-07)
(-1.80941e-09 4.95223e-10 2.22813e-07)
(-9.90398e-10 1.95157e-09 2.4866e-07)
(5.21487e-09 1.90475e-09 2.48643e-07)
(-2.66832e-10 1.86643e-09 2.60676e-07)
(1.68215e-09 3.63499e-10 7.88809e-08)
(3.11351e-10 -5.66876e-09 1.16557e-07)
(9.08293e-11 -1.29646e-09 2.91712e-07)
(3.603e-09 9.15835e-10 2.29297e-07)
(-8.10294e-10 -1.15756e-09 6.74949e-08)
(-2.2252e-10 2.10087e-09 8.11101e-08)
(-2.63624e-09 3.45913e-09 1.72982e-07)
(-7.82043e-10 -5.54983e-10 1.71173e-07)
(-3.8524e-09 5.56133e-09 3.27048e-07)
(-7.07175e-10 2.11816e-09 1.59453e-07)
(-2.86302e-09 1.22071e-09 3.15518e-07)
(2.57189e-10 5.93017e-09 2.02329e-07)
(-1.30819e-09 -2.7441e-09 2.18036e-08)
(7.51964e-10 2.31745e-09 2.85279e-07)
(2.67634e-09 -2.03217e-09 3.20465e-08)
(2.52216e-09 1.30657e-09 5.7506e-08)
(-1.4538e-09 -1.67299e-09 3.14491e-07)
(-1.96392e-10 1.26101e-09 2.50757e-07)
(-4.20595e-09 2.1246e-09 3.05314e-08)
(-1.25358e-09 -1.97333e-09 3.08589e-07)
(-2.18056e-09 -3.64747e-09 2.55567e-07)
(7.72286e-10 8.61245e-10 2.34112e-07)
(5.35631e-10 -7.88748e-10 2.90639e-07)
(2.28038e-09 -2.2279e-09 2.60526e-08)
(-1.69213e-09 4.85169e-10 2.50192e-07)
(-6.14397e-10 -1.18529e-09 1.30791e-07)
(-2.58797e-10 -1.03795e-09 1.45536e-07)
(-1.49696e-09 -1.32044e-09 2.53659e-07)
(-1.95386e-09 1.02511e-09 1.67975e-07)
(-9.54375e-10 -3.86009e-10 1.86664e-07)
(1.67293e-10 -1.59783e-09 2.49139e-07)
(-6.40871e-11 2.54254e-09 4.24984e-08)
(1.79188e-09 -2.77451e-09 2.66416e-07)
(1.46868e-09 1.06395e-09 1.9182e-07)
(-1.28266e-09 -2.62985e-09 3.20875e-07)
(-1.50255e-11 -2.17133e-09 2.44705e-07)
(2.1136e-09 -1.07466e-09 3.1889e-07)
(2.61928e-09 -2.42199e-09 1.48566e-07)
(-6.92471e-10 -1.38389e-09 2.17992e-08)
(1.04613e-09 6.1902e-10 3.91996e-08)
(-3.63597e-09 3.5048e-09 4.91771e-07)
(-3.02166e-09 1.23258e-09 2.03705e-08)
(-2.19245e-09 -2.48939e-09 1.85652e-07)
(-1.46556e-09 4.42575e-09 7.88405e-08)
(1.66294e-09 -1.11208e-09 2.93879e-07)
(-2.58487e-10 -1.27359e-09 3.4579e-07)
(6.8954e-10 9.51813e-10 3.08109e-07)
(2.77474e-09 9.34392e-10 1.31708e-07)
(6.52897e-09 1.2022e-10 3.06987e-07)
(8.24093e-11 7.81553e-09 7.39946e-08)
(1.33806e-09 -2.74662e-09 9.2146e-08)
(2.63114e-10 -7.79712e-10 1.88355e-07)
(1.22815e-09 -2.37934e-09 1.64673e-07)
(-3.21313e-08 -3.9684e-09 2.69457e-07)
(2.94449e-10 -4.58161e-09 2.00622e-07)
(-9.46837e-10 -5.54699e-11 7.04295e-08)
(3.48625e-09 -8.59842e-11 1.10496e-07)
(-6.20043e-10 -3.05056e-09 2.1481e-07)
(-6.42047e-11 1.6454e-11 1.96275e-07)
(-1.3679e-09 -3.77697e-10 3.75855e-07)
(-1.17903e-09 8.91507e-10 1.99359e-07)
(1.55342e-10 4.98543e-09 4.6811e-07)
(-8.53641e-09 -1.66113e-09 1.68775e-07)
(-3.36477e-09 1.29809e-09 3.41286e-07)
(-1.58508e-09 2.50331e-09 2.55585e-07)
(3.88365e-11 -1.18566e-10 1.8765e-07)
(1.97318e-09 -4.81977e-10 3.19983e-07)
(-4.70831e-09 -4.33058e-09 1.11998e-07)
(3.21558e-09 -1.22851e-09 2.54925e-08)
(9.07314e-10 -5.91762e-10 2.86831e-07)
(1.835e-09 4.03312e-09 6.37506e-08)
(7.38686e-12 -2.28628e-10 3.12856e-08)
(-3.43136e-09 -6.60954e-10 3.71085e-07)
(8.34794e-10 7.35863e-10 1.97759e-07)
(-2.58175e-09 4.68339e-09 1.09801e-07)
(-1.09508e-09 -1.31211e-09 2.31511e-07)
(4.54033e-10 2.92405e-09 3.08653e-07)
(-2.23137e-09 -3.43672e-10 3.75819e-07)
(-2.68747e-10 -6.1902e-10 2.44901e-07)
(-3.56632e-11 -1.4631e-09 3.39089e-08)
(5.0179e-10 -9.25564e-10 3.0562e-07)
(-1.65651e-09 2.8737e-10 1.96014e-07)
(1.25956e-10 1.37585e-09 1.06435e-07)
(1.97064e-10 -2.36346e-09 2.61242e-07)
(-1.00456e-10 4.7544e-10 2.27451e-07)
(1.04337e-09 8.73148e-10 1.7566e-07)
(7.5974e-10 7.31374e-10 2.03049e-07)
(-6.83636e-10 -1.9011e-09 2.65732e-07)
(1.1631e-09 1.71738e-09 2.00043e-07)
(-5.53242e-10 2.66238e-10 8.31833e-08)
(-3.84381e-10 1.01226e-09 2.18276e-08)
(4.53699e-10 3.18758e-09 4.2775e-08)
(1.09117e-09 1.01716e-09 2.32417e-07)
(-3.8361e-08 1.49723e-10 2.68375e-07)
(-1.13169e-08 1.1991e-09 1.15933e-07)
(2.2062e-10 -3.91028e-10 1.18432e-07)
(2.90266e-09 -2.67207e-09 2.56301e-07)
(-5.79364e-10 8.73096e-10 3.12068e-07)
(-3.5257e-09 1.3462e-09 2.21151e-07)
(1.76651e-09 -3.33777e-10 3.5035e-07)
(-9.77028e-10 -9.4897e-10 3.43284e-07)
(-8.89983e-10 -6.52453e-10 2.18116e-07)
(-1.24273e-09 -2.43238e-11 1.34284e-07)
(-3.69282e-10 7.33027e-10 2.63159e-08)
(-4.75382e-08 1.84871e-09 2.40888e-07)
(6.89746e-10 2.72868e-09 9.38038e-08)
(-1.90029e-09 2.7815e-09 6.98259e-08)
(1.55369e-09 5.1382e-10 7.37933e-08)
(-1.77089e-10 -2.25615e-10 1.64393e-07)
(-3.20282e-10 3.92026e-10 1.82579e-07)
(-1.06562e-09 2.20872e-11 2.25991e-07)
(-1.27965e-09 1.43374e-09 1.86797e-08)
(4.02552e-10 -1.33438e-10 1.72605e-07)
(1.89507e-09 -1.07436e-09 7.07362e-08)
(-3.47035e-10 8.78218e-10 1.75027e-07)
(-5.74033e-10 8.27385e-10 6.01898e-08)
(4.19413e-09 1.5355e-09 1.58241e-07)
(1.62573e-09 5.00479e-09 2.30483e-07)
(-1.41816e-09 7.2004e-10 1.80264e-07)
(2.88735e-09 -1.25791e-10 2.10796e-08)
(5.6119e-11 5.80132e-09 1.21265e-07)
(-6.07324e-10 -8.91583e-10 2.39806e-07)
(-3.41542e-11 -2.68064e-09 2.78012e-08)
(-1.65229e-08 -6.15774e-11 2.88796e-07)
(4.59166e-10 -3.68255e-09 1.87512e-07)
(7.97818e-10 -3.85073e-09 3.07147e-07)
(5.06747e-09 -4.63228e-09 2.1066e-07)
(2.22014e-09 6.74988e-10 9.91795e-08)
(2.87347e-09 -1.90977e-09 3.77967e-07)
(-1.83131e-08 -5.94904e-09 1.42413e-07)
(-2.79645e-09 -8.79463e-10 2.93172e-07)
(-1.67672e-08 9.05408e-10 1.55434e-07)
(-4.76207e-09 3.58192e-09 1.53154e-07)
(-1.06754e-09 3.54203e-09 1.54353e-07)
(-6.68615e-10 -1.51648e-09 2.45661e-07)
(1.95941e-09 -4.29952e-09 4.92549e-07)
(9.20514e-10 -6.22917e-10 8.68158e-08)
(-5.19397e-10 -2.22315e-09 3.4475e-07)
(-2.63907e-09 1.1027e-09 1.26404e-07)
(1.89351e-09 -1.27697e-09 3.9118e-07)
(1.18168e-09 -1.69801e-09 2.98487e-07)
(-1.67737e-09 -5.56646e-09 7.6339e-08)
(-9.06098e-10 9.46127e-10 2.19957e-07)
(4.8e-09 -1.82853e-10 3.77806e-07)
(-3.43347e-10 -4.29843e-10 2.25339e-07)
(3.1177e-10 -4.38741e-10 2.15359e-07)
(3.16406e-09 -1.5436e-09 2.61933e-08)
(-2.90819e-09 -7.92264e-10 2.17813e-08)
(-2.43512e-09 2.91514e-09 2.97872e-07)
(1.45457e-10 -2.5841e-10 2.58465e-07)
(1.17892e-09 1.36651e-09 1.97172e-07)
(-2.46087e-09 1.25827e-09 3.97615e-08)
(3.21192e-10 -4.28698e-10 8.19468e-08)
(-2.84306e-09 1.74964e-09 3.18402e-07)
(-9.6311e-10 -3.19809e-10 1.50124e-07)
(2.17477e-09 1.1788e-09 2.83159e-07)
(9.91897e-10 5.87971e-10 2.55169e-07)
(-4.24739e-10 -1.86489e-09 2.00881e-07)
(-2.38045e-10 -2.59856e-09 2.1548e-07)
(3.27823e-10 -7.03941e-10 1.30418e-07)
(-1.96544e-09 4.49776e-10 1.91236e-07)
(-3.35264e-09 4.01231e-09 9.55139e-08)
(3.79535e-11 6.53637e-10 2.68576e-07)
(-1.50387e-09 -1.59633e-09 1.9859e-07)
(-1.73479e-09 7.46189e-10 2.05943e-07)
(-4.66128e-10 -3.34212e-10 2.00231e-07)
(-3.49214e-10 -1.62387e-10 3.45537e-07)
(1.94968e-09 5.90355e-10 2.6184e-07)
(3.27654e-09 4.65804e-09 7.43953e-08)
(1.27184e-09 2.34449e-10 4.92773e-08)
(-2.05064e-09 -2.06984e-09 2.18774e-08)
(-9.38218e-09 2.80547e-10 2.24591e-07)
(-1.37759e-10 1.12797e-10 2.60762e-07)
(-1.69054e-09 1.95738e-10 2.68284e-07)
(1.70451e-10 -2.61481e-09 1.97821e-07)
(1.16541e-09 8.80089e-11 3.30574e-08)
(7.50152e-10 -2.78717e-09 2.49948e-08)
(-1.49687e-09 -2.52213e-09 1.8826e-07)
(-1.55834e-09 1.25463e-09 2.22564e-07)
(-1.08431e-09 -5.43444e-10 2.81619e-07)
(1.2974e-09 -1.30712e-09 3.12537e-07)
(-1.79474e-09 -7.84126e-10 2.01946e-07)
(-1.00186e-09 1.75217e-09 3.01313e-07)
(2.72121e-09 -1.31082e-09 3.80261e-07)
(-1.50878e-09 3.05843e-09 3.51002e-08)
(-4.67937e-10 8.79228e-10 1.88315e-07)
(3.4639e-09 -2.02916e-09 7.97569e-08)
(-9.83146e-09 -1.07734e-09 9.76667e-08)
(3.35227e-10 1.29052e-10 1.23081e-07)
(1.76749e-10 5.5599e-10 1.52897e-07)
(5.12885e-10 -4.82397e-10 2.48569e-07)
(-3.70116e-09 2.22705e-09 2.1702e-08)
(3.3796e-09 -1.54003e-09 3.21781e-07)
(-6.78945e-11 -4.47898e-11 2.39079e-07)
(-1.74878e-09 7.30227e-10 1.92654e-07)
(1.81047e-09 -1.40647e-09 2.16483e-07)
(-4.0225e-10 -9.17511e-10 1.64462e-07)
(-1.45796e-09 -8.91676e-10 2.36651e-07)
(-1.89887e-10 6.85299e-10 2.51872e-07)
(-1.63895e-09 6.22001e-10 2.67067e-07)
(-6.83636e-09 -1.25019e-09 1.71419e-07)
(-2.66886e-10 -2.3589e-10 2.47575e-07)
(-4.08708e-09 8.51157e-10 2.85439e-07)
(1.50022e-09 -1.1818e-09 2.06174e-08)
(-1.93248e-11 1.63495e-09 2.74051e-07)
(1.9901e-09 2.17834e-09 1.96176e-07)
(-4.48822e-09 -4.0753e-09 7.12094e-08)
(-1.46161e-09 2.69225e-09 1.83648e-07)
(9.62791e-10 1.04789e-09 3.19261e-07)
(-7.37615e-13 -9.65521e-10 2.2956e-07)
(1.38105e-09 3.32208e-09 1.27784e-07)
(-2.33773e-09 1.51131e-09 2.03043e-08)
(-6.17819e-10 1.36194e-09 2.33941e-07)
(4.5832e-10 6.5012e-09 3.43884e-07)
(-3.32659e-10 3.73814e-10 2.25355e-07)
(-1.05079e-09 5.57842e-11 1.93113e-07)
(-4.11981e-09 1.00285e-09 6.34926e-08)
(1.15052e-09 -1.23426e-10 2.49276e-07)
(-4.06952e-09 2.12059e-10 2.76591e-08)
(-9.93085e-11 3.85929e-10 1.63668e-07)
(-2.43939e-08 1.2146e-09 2.08654e-07)
(3.09166e-10 5.05151e-10 2.36072e-07)
(-6.63526e-10 3.21986e-09 9.7386e-08)
(-2.56703e-09 2.60441e-09 1.9329e-07)
(-6.88414e-10 1.85776e-09 1.22922e-07)
(2.98276e-09 -2.92743e-09 5.26406e-08)
(1.66593e-09 5.67421e-10 4.05799e-07)
(-1.14278e-09 6.12248e-10 1.89736e-07)
(-1.89783e-09 -7.3127e-10 1.997e-08)
(1.47862e-09 -2.0847e-09 2.6156e-07)
(-9.09035e-10 -2.2328e-09 2.46612e-07)
(-6.43987e-10 2.2436e-09 4.29482e-08)
(3.1293e-09 5.24164e-09 1.38456e-07)
(-2.97753e-09 3.72441e-09 1.07936e-07)
(-6.29626e-10 1.44422e-09 1.8306e-07)
(7.14644e-10 -3.82893e-10 2.29971e-07)
(-1.24037e-09 1.35584e-09 3.59306e-08)
(3.3836e-09 -1.12813e-09 1.00258e-07)
(-4.13601e-10 2.10952e-09 1.11573e-07)
(1.90243e-09 1.14365e-09 1.82381e-07)
(8.76079e-10 -9.76845e-10 2.95963e-07)
(-3.18313e-09 -2.05472e-09 2.59705e-08)
(2.75455e-09 1.87193e-09 3.51781e-07)
(-1.74307e-09 -1.0089e-09 2.31743e-07)
(-1.1069e-09 -1.24919e-09 2.42539e-07)
(-2.97316e-09 -6.11847e-09 1.14194e-07)
(2.07263e-09 7.25406e-10 3.12846e-07)
(1.39733e-09 -2.49955e-09 2.56022e-08)
(-1.58277e-09 9.27394e-11 2.80247e-07)
(2.36359e-10 -5.08935e-10 3.0749e-08)
(1.08796e-09 -4.60917e-09 1.43942e-07)
(8.21706e-11 9.36368e-10 2.19675e-07)
(-2.59971e-09 3.7701e-09 1.49274e-07)
(-2.90638e-09 1.72505e-09 2.15563e-08)
(5.02932e-10 -2.00789e-09 5.65368e-08)
(3.75378e-10 4.91495e-09 8.39218e-08)
(1.96087e-09 -4.42942e-09 1.44073e-07)
(-1.48333e-09 7.81809e-10 3.23248e-07)
(-2.29211e-10 1.45778e-09 6.29558e-08)
(2.74173e-09 -4.95003e-09 1.48677e-07)
(-2.58402e-08 7.71737e-10 2.25162e-07)
(-1.29232e-09 5.10397e-11 1.94327e-07)
(2.15697e-09 -6.755e-11 3.23881e-08)
(9.51054e-10 1.98782e-09 2.36301e-07)
(-1.49431e-08 -7.81439e-09 1.4769e-07)
(1.97842e-09 1.65044e-10 1.84921e-07)
(-1.92297e-09 1.60895e-09 1.09035e-07)
(-1.31814e-09 4.7189e-10 1.61785e-07)
(3.06478e-09 4.81799e-09 1.16411e-07)
(-1.05302e-09 4.75698e-10 1.64571e-07)
(-7.72408e-10 -5.88171e-10 1.44318e-07)
(4.54692e-09 -6.69267e-09 7.97614e-08)
(7.86526e-12 2.73812e-10 2.70021e-07)
(-4.42037e-09 -1.43145e-09 7.19902e-08)
(2.41809e-09 -1.5535e-09 1.75325e-08)
(-1.33499e-09 -5.80978e-11 3.10322e-07)
(1.35621e-10 -1.04003e-09 1.68289e-07)
(-1.85769e-09 8.98635e-10 2.98671e-07)
(1.72534e-09 -2.99269e-09 2.32905e-07)
(4.46881e-09 -4.54073e-10 4.15673e-07)
(3.58814e-09 -3.29958e-10 1.49099e-07)
(4.22923e-09 -3.26148e-10 3.80418e-07)
(2.41733e-09 5.11095e-09 1.06693e-07)
(-6.91087e-10 -5.53275e-10 1.38189e-07)
(4.2528e-09 1.56267e-09 3.12909e-07)
(-4.3952e-09 -2.89685e-09 3.61422e-08)
(-6.56538e-10 1.1513e-09 2.95892e-07)
(2.40808e-09 -3.46315e-09 1.25604e-07)
(1.81722e-09 2.88054e-09 3.35286e-08)
(-5.74317e-10 1.62672e-10 2.76772e-07)
(-2.45889e-09 1.78509e-10 6.85151e-08)
(-3.11401e-10 9.11522e-10 2.02361e-07)
(6.29878e-10 7.09839e-10 1.95772e-07)
(-1.36942e-09 3.39556e-09 3.76391e-07)
(5.74816e-10 6.90321e-09 1.04908e-07)
(2.28846e-09 -4.13447e-10 2.62768e-07)
(2.61114e-09 6.81861e-10 1.62347e-07)
(-9.63806e-10 9.49473e-10 2.84115e-07)
(6.95738e-10 3.13668e-10 2.89857e-07)
(1.65679e-09 1.03208e-09 2.55815e-07)
(3.02707e-10 -7.80798e-10 1.50274e-07)
(3.48126e-09 -1.38445e-09 5.34327e-08)
(8.48688e-10 4.53456e-10 7.59118e-08)
(-6.94894e-10 3.83087e-10 1.63006e-07)
(-1.34723e-09 -2.45112e-09 2.74039e-07)
(4.4172e-10 2.38846e-09 3.16454e-08)
(-3.25355e-10 -3.70947e-10 2.3391e-07)
(-7.21638e-11 1.62849e-09 4.35092e-07)
(1.86408e-09 2.549e-09 3.22449e-07)
(2.11229e-09 2.80289e-09 3.41053e-07)
(-1.8101e-09 1.81869e-09 2.5931e-07)
(-1.74751e-09 2.40114e-09 2.24982e-08)
(5.68452e-10 5.42415e-10 2.10895e-07)
(1.75234e-09 -2.14523e-09 1.54494e-07)
(-7.88395e-10 -5.23736e-10 2.55187e-07)
(-4.74729e-11 1.3559e-14 1.69605e-07)
(-2.4814e-09 -1.4817e-09 3.97228e-08)
(-1.04246e-09 7.61576e-10 1.87687e-07)
(-2.79471e-09 4.05868e-09 1.59669e-07)
(1.08773e-09 -9.18608e-11 2.49266e-07)
(1.43083e-09 2.17911e-09 2.43374e-07)
(-1.34275e-09 1.50468e-09 1.98819e-07)
(1.42301e-09 1.75321e-09 1.5261e-08)
(-2.40059e-09 1.07848e-09 2.26039e-08)
(-1.75223e-10 -1.5283e-09 1.69113e-07)
(-8.68602e-11 -6.68643e-10 2.83519e-07)
(-3.4212e-10 2.07027e-09 2.06142e-07)
(-9.88379e-10 1.07468e-10 1.75228e-07)
(-3.55779e-10 2.62427e-09 1.69585e-07)
(-4.31201e-10 2.20228e-09 2.51222e-07)
(3.15217e-10 1.59202e-10 2.6516e-07)
(7.77454e-10 1.72887e-09 2.17978e-08)
(-1.15774e-10 -1.24262e-09 1.33718e-07)
(-1.73025e-08 1.46241e-09 1.7369e-07)
(-3.04929e-10 2.83716e-09 5.16152e-08)
(-7.07412e-10 6.05563e-09 9.18376e-08)
(-2.85351e-11 2.51898e-09 3.07005e-07)
(2.50782e-09 -3.94864e-10 2.13063e-07)
(2.12578e-10 -1.22418e-09 1.98583e-07)
(1.27815e-09 -6.92199e-10 2.44359e-07)
(-4.18173e-09 2.79461e-09 1.46669e-07)
(-4.44689e-10 -4.83377e-10 3.00582e-07)
(1.89623e-09 -5.08096e-09 1.89684e-07)
(3.52061e-09 -1.47507e-09 3.98946e-07)
(2.18828e-10 -4.29467e-10 2.02439e-07)
(2.15541e-09 -1.22411e-09 2.16571e-07)
(2.29179e-09 -1.70435e-09 2.88929e-07)
(1.98464e-09 1.67883e-09 5.27561e-08)
(3.96844e-09 -4.17844e-10 5.15542e-07)
(-5.3883e-10 -1.7804e-09 3.72293e-08)
(-1.66123e-08 -2.24541e-09 1.4895e-07)
(3.87736e-09 -2.55821e-09 1.26336e-07)
(-1.59008e-08 -1.90559e-10 1.61285e-07)
(1.58379e-09 3.12899e-10 2.18144e-07)
(-4.73629e-08 1.3398e-09 2.90742e-07)
(1.73757e-10 1.66238e-10 1.28839e-07)
(2.0631e-10 2.50715e-10 3.01308e-07)
(-7.80511e-10 4.82013e-10 3.28898e-07)
(1.18573e-09 8.85973e-10 1.9807e-07)
(-7.28026e-10 -1.07344e-10 3.93165e-08)
(-5.42346e-09 1.74464e-10 1.18484e-07)
(-3.00617e-08 2.03522e-09 2.10177e-07)
(-2.91567e-10 -1.10758e-10 1.97258e-07)
(-5.85174e-10 2.31265e-09 1.05348e-07)
(-2.00502e-08 1.58468e-09 2.17412e-07)
(-4.91273e-09 1.41196e-09 2.30181e-07)
(1.96262e-09 2.10759e-09 3.23606e-07)
(-1.86109e-09 -8.71953e-10 4.90329e-08)
(1.78877e-09 2.76157e-09 5.8918e-08)
(-4.22823e-10 -2.20697e-10 3.02963e-08)
(1.27131e-09 1.14223e-09 2.22073e-08)
(-3.10303e-10 -7.25307e-11 4.91047e-08)
(-1.40104e-08 1.31313e-09 2.22254e-07)
(-8.15434e-10 9.90811e-11 1.82699e-07)
(-2.0257e-09 -2.23219e-09 2.10895e-08)
(-3.00856e-09 8.07906e-10 2.31461e-08)
(8.95393e-10 1.20097e-09 3.16837e-07)
(-2.54935e-08 5.61576e-09 1.66229e-07)
(-2.49051e-09 8.7296e-11 5.16941e-08)
(-1.4989e-10 -3.31187e-10 2.25321e-07)
(-1.81911e-09 8.0361e-10 1.13728e-07)
(1.72511e-09 -2.91345e-10 2.05528e-07)
(1.71726e-09 2.43428e-09 4.90889e-08)
(-1.83647e-09 -2.38009e-09 1.01205e-07)
(5.5294e-10 1.79599e-09 2.01434e-07)
(2.74077e-10 6.25622e-10 2.51425e-07)
(-2.2777e-10 2.08802e-09 3.90617e-07)
(-2.42184e-09 3.60286e-09 4.8333e-08)
(-7.96439e-10 -2.39614e-09 2.73159e-08)
(-3.58532e-08 4.26258e-10 2.01618e-07)
(-3.48469e-09 2.26275e-09 3.11963e-08)
(-2.00009e-10 3.56717e-09 3.14561e-07)
(-4.44609e-09 -1.38631e-09 3.25007e-08)
(8.39896e-10 3.36684e-09 1.5687e-07)
(-7.12394e-10 -4.50987e-10 2.80887e-07)
(2.51682e-09 1.79217e-09 4.03403e-07)
(-9.34882e-10 -1.64076e-09 6.56078e-08)
(1.24836e-09 -1.07838e-09 1.47826e-07)
(-2.21251e-09 -4.19283e-10 4.30035e-08)
(-4.09888e-09 -2.29314e-10 3.23595e-08)
(5.80187e-10 -1.11964e-09 2.39191e-07)
(-2.36244e-09 1.12504e-09 1.6657e-08)
(1.72752e-09 -6.0461e-10 1.69244e-07)
(-9.34593e-10 -3.25187e-09 6.77779e-08)
(-2.86937e-10 1.61632e-09 3.15956e-07)
(-1.99314e-10 4.44949e-10 2.26673e-07)
(3.26407e-09 1.31436e-09 2.16198e-08)
(-2.41362e-09 -6.64206e-09 1.47807e-07)
(1.81562e-10 6.65978e-10 2.43332e-07)
(-2.18685e-10 1.72921e-09 3.47474e-08)
(6.85202e-10 -1.38077e-09 2.73041e-07)
(-2.10394e-09 6.09338e-09 8.74338e-08)
(6.46683e-10 -4.96742e-11 2.26604e-07)
(5.8171e-10 1.22751e-09 2.06172e-07)
(2.47994e-09 1.19471e-10 6.19013e-08)
(-3.30202e-09 -6.58912e-10 2.36977e-08)
(-1.63283e-09 -6.53233e-10 1.02347e-07)
(-3.9186e-08 1.60438e-10 2.4352e-07)
(-9.2461e-10 4.06888e-10 2.4063e-07)
(5.32734e-10 5.40189e-09 8.50694e-08)
(3.26539e-09 -1.77046e-10 1.98885e-07)
(4.38148e-10 1.19538e-09 2.73991e-08)
(7.48317e-10 1.00351e-09 1.82279e-07)
(1.00885e-09 1.33348e-09 2.56463e-08)
(-6.56197e-10 3.21287e-09 3.16684e-07)
(1.05632e-09 1.36425e-09 3.01981e-07)
(5.32389e-10 3.77084e-10 2.07438e-07)
(-1.68161e-09 -2.31187e-10 1.61788e-08)
(2.3861e-09 1.41223e-09 3.37402e-07)
(-3.12487e-10 8.78806e-10 1.67737e-07)
(5.21843e-10 1.59495e-09 3.46418e-07)
(8.41973e-11 4.70412e-10 6.88831e-08)
(-3.02052e-08 8.501e-10 2.2245e-07)
(-1.88127e-09 1.85904e-09 2.5453e-07)
(1.49713e-09 -5.00622e-12 7.38954e-08)
(8.08801e-11 6.73336e-10 2.26798e-07)
(-3.94448e-08 4.58228e-09 2.10018e-07)
(-7.35506e-10 -5.4351e-10 1.87894e-07)
(-9.27619e-10 -2.04236e-09 3.63826e-08)
(-2.50013e-09 5.04273e-09 1.1273e-07)
(9.14337e-11 1.04245e-10 1.7293e-07)
(6.33519e-10 -2.21064e-09 2.22178e-07)
(-1.10813e-09 1.48412e-09 3.56982e-08)
(-1.59953e-10 -3.38333e-09 2.28455e-07)
(5.36023e-09 2.70876e-09 1.72194e-07)
(-2.01032e-09 2.20123e-09 2.78836e-08)
(-1.3858e-10 -1.18509e-10 1.85688e-07)
(-1.56541e-08 7.33018e-10 1.58277e-07)
(-2.42746e-09 -5.94355e-09 3.33881e-07)
(1.60165e-10 1.85371e-10 1.86195e-07)
(5.85539e-10 1.59185e-10 1.673e-07)
(1.06163e-09 -1.68707e-10 2.886e-07)
(1.38598e-09 1.32176e-09 2.61412e-07)
(2.26881e-09 8.01478e-10 7.83857e-08)
(-8.58532e-10 5.7764e-09 8.00982e-08)
(3.34547e-09 1.9123e-10 3.45746e-07)
(-2.69488e-08 -1.07767e-09 2.24705e-07)
(3.82563e-10 2.09992e-09 2.16619e-07)
(1.60935e-09 -7.75791e-10 1.94024e-07)
(2.91312e-09 -1.37927e-09 1.36715e-07)
(-1.14193e-10 9.42893e-10 3.18699e-07)
(-4.77092e-10 7.41795e-10 1.92583e-07)
(-2.59629e-09 -1.68762e-09 1.92351e-07)
(-3.11121e-09 3.39002e-09 2.38145e-07)
(-1.32107e-09 2.67358e-09 4.74323e-08)
(-2.26282e-09 -1.09017e-09 1.83923e-07)
(-3.01856e-09 -2.20911e-09 4.42598e-08)
(5.23073e-11 -1.8176e-09 3.05011e-07)
(-2.74345e-10 -8.71756e-10 2.99999e-07)
(-2.72214e-10 5.07028e-09 1.77344e-07)
(9.10889e-11 -1.513e-09 1.70256e-07)
(1.20424e-09 -1.80434e-09 1.97658e-08)
(1.00038e-10 -9.48678e-10 1.13185e-07)
(-4.32367e-09 -1.89177e-09 8.2733e-08)
(-1.33052e-09 8.30865e-10 2.41496e-07)
(1.34064e-09 7.95203e-10 2.15896e-07)
(-2.39191e-08 -1.51689e-09 2.20517e-07)
(-2.45681e-09 7.31762e-10 2.94478e-07)
(-1.32583e-09 2.96157e-09 8.85189e-08)
(-1.12248e-08 5.1449e-10 1.3656e-07)
(-6.15881e-10 -3.95906e-09 2.48673e-07)
(2.29267e-09 1.02177e-09 3.12352e-08)
(9.40887e-10 7.91876e-10 2.21539e-07)
(-3.30616e-10 1.80454e-09 5.92699e-08)
(-1.49815e-09 -6.14898e-10 2.0548e-07)
(4.63651e-09 -2.17518e-09 3.59307e-08)
(2.92553e-09 9.14496e-10 3.32121e-07)