/*--------------------------------*- C++ -*----------------------------------*\
| =========                 |                                                 |
| \\      /  F ield         | OpenFOAM: The Open Source CFD Toolbox           |
|  \\    /   O peration     | Version:  2406                                  |
|   \\  /    A nd           | Website:  www.openfoam.com                      |
|    \\/     M anipulation  |                                                 |
\*---------------------------------------------------------------------------*/
FoamFile
{
    version     2.0;
    format      ascii;
    arch        "LSB;label=32;scalar=64";
    class       volScalarField;
    location    "30";
    object      momentum:cyl_z;
}
// * * * * * * * * * * * * * * * * * * * * * * * * * * * * * * * * * * * * * //

dimensions      [0 1 0 0 0 0 0];

internalField   nonuniform List<scalar> 
59516
(
0.153395
2.83844
2.85178
2.98644
0.0331805
0.00693669
0.159983
0.490876
2.16425
2.98523
0.0896793
0.126761
1.00791
0.16098
0.361158
2.14304
0.146718
0.07252
0.105284
0.180654
0.106156
0.480235
0.154133
1.16922
2.25657
1.24847
1.96597
0.0897258
0.112259
0.337456
0.0283799
0.0920359
1.67586
2.99109
0.108206
0.616609
2.30277
0.0674825
0.116519
2.86232
2.83415
0.0806989
0.115531
2.99588
0.130921
2.53181
0.115882
0.116379
0.0255976
0.101841
0.0100962
2.9859
1.64532
0.416454
0.124599
0.125396
0.0756142
2.98617
1.17277
0.0932389
2.98517
0.678227
1.16373
0.145521
2.96772
0.123267
2.91308
0.581791
0.0346655
0.126117
0.535963
0.174003
2.48877
0.165836
0.56026
0.129328
0.122764
2.68048
0.970107
0.104025
2.98642
0.108704
0.112374
1.83294
0.106828
0.185968
2.16598
0.176106
1.6683
0.071522
0.0551689
0.514765
0.237208
0.547758
0.540469
0.0265086
0.347326
0.477203
0.0980497
1.03335
2.09302
1.35013
0.388574
2.89172
2.50103
2.93286
2.92856
2.21212
1.58614
0.956577
0.0454872
2.00843
0.496185
0.0458832
0.268898
0.749262
2.6681
0.413363
0.429886
2.64348
0.398748
0.437573
2.33269
0.42045
0.0563825
0.101726
0.275073
0.074284
0.0278141
0.247723
0.276345
2.82748
0.581432
0.241844
0.234901
0.594205
0.0515318
0.307814
1.35632
0.205192
2.01736
1.76432
0.48524
2.02395
0.189797
0.21566
0.124236
0.162718
0.0220015
0.227966
0.195118
2.9666
0.262589
2.96889
0.249218
2.955
2.94955
0.242193
0.2227
0.342961
0.209074
0.209545
0.347222
2.96039
0.758801
2.67014
2.17034
0.218808
0.198435
2.95632
0.246089
0.244825
0.297784
0.281682
0.293199
0.110982
0.722126
0.109712
2.84303
0.751941
0.267013
1.53315
1.2806
0.285481
0.267809
2.06586
1.73197
2.29055
0.255216
0.288622
2.99594
1.54238
0.216585
0.283343
0.207155
2.7722
1.34884
1.35687
2.9666
0.304637
2.99456
2.30464
0.4545
1.00881
0.667493
1.55598
0.209932
2.96244
1.11682
0.364191
2.50984
0.0952229
0.38435
0.644831
0.375159
1.95315
0.22455
2.78078
0.83659
0.374797
0.383064
0.226132
0.297949
2.94676
0.340812
0.728179
1.13702
1.03864
0.300082
2.57741
0.344994
1.56941
0.296285
1.50102
1.41674
0.297683
0.29974
2.44872
0.313761
2.39704
0.262061
1.52738
1.60446
2.9511
0.250186
0.269097
0.278901
2.85859
0.298088
0.257229
2.86295
0.290231
0.258285
1.28463
0.265416
0.262339
2.15501
0.326387
0.921755
0.344055
1.0901
0.341702
0.32759
0.322369
0.63251
2.34953
0.827838
2.24139
0.344698
1.20308
0.14866
0.675856
2.19427
1.15798
0.334309
0.60765
1.21147
0.34378
0.318069
1.94434
0.302051
1.01201
1.17122
0.360368
0.380565
0.15629
0.264827
2.90224
0.316752
0.606748
0.328451
0.364221
0.53995
2.66171
0.507435
1.59606
0.59256
0.634353
0.351436
0.609593
0.602579
2.32495
1.91017
0.674889
0.573173
1.25161
2.78914
0.600418
0.592001
2.10199
2.2604
0.60588
1.27038
1.3645
0.127996
0.576359
0.451562
0.0193928
0.579748
2.30022
1.5741
0.451949
1.47593
0.423783
1.01497
0.571292
0.0931
0.456152
1.12542
0.432735
2.74488
0.181139
1.14005
0.43294
0.89414
0.356932
0.320477
0.687801
0.100993
0.379194
0.657768
0.685513
0.421351
2.43551
1.83627
0.379182
1.91975
0.327504
0.416396
0.912372
0.294969
0.292556
2.58788
1.6483
1.12788
2.41691
2.90302
0.0505651
0.0339292
0.745469
2.62643
0.229871
0.101257
0.497578
2.6382
0.434663
0.439785
0.22501
0.0277562
0.393129
2.05338
2.05694
0.444235
1.06625
0.78514
0.4603
0.433789
0.488609
0.948901
0.558093
0.207724
2.97479
0.0878574
2.87191
2.77453
0.437033
2.91974
0.0905186
0.440714
2.84866
2.85444
2.3625
0.480793
0.049947
0.457028
0.0555047
2.85108
2.1556
0.4865
0.475232
0.371484
0.508183
0.932236
0.356907
0.340606
2.31411
1.36008
0.335749
0.359661
0.365153
2.53748
2.76332
2.73295
1.50371
0.666428
2.89196
2.59342
2.21637
2.94762
0.493692
0.518057
0.456379
0.460184
0.334823
0.460127
1.04333
0.523839
1.30389
0.451546
0.872806
0.413008
0.461507
0.612039
1.48434
0.370988
0.0923886
2.73967
0.402531
1.09102
2.06342
1.03866
0.843875
0.393951
0.411893
0.45105
0.471231
2.10055
0.463235
1.04021
2.66892
0.822895
0.0333866
1.31633
2.27525
0.442685
0.91265
0.474016
1.41357
0.472125
2.28579
0.458731
2.95419
2.91518
0.505152
0.115353
0.529029
0.712605
2.55842
0.676364
0.69051
2.52716
0.599509
0.700088
0.746454
0.746926
1.88145
0.668725
0.732688
1.44928
0.760123
2.00105
0.780726
0.0997526
0.779546
0.00558097
0.767233
0.311572
2.02994
1.89125
1.06202
2.95533
2.96839
0.904396
0.623101
0.575296
1.12904
0.729971
2.43314
0.509682
0.531546
0.0815695
1.35616
1.55259
1.01387
0.536221
2.78164
0.592095
0.156571
2.94922
0.00419335
0.519853
2.23935
0.192685
0.913561
0.132037
0.684493
0.97632
0.792061
0.493727
0.957501
0.493653
0.234305
2.14634
2.14034
0.0519877
2.96849
0.508924
0.609552
0.0481219
0.628766
0.194731
2.98712
0.569976
2.02611
2.9954
1.17186
2.55175
0.07086
0.408601
2.20082
2.97102
0.357952
1.51553
0.601328
0.368969
0.609401
0.222536
2.99227
1.80385
2.23111
0.607325
2.59523
1.2343
0.50673
1.46191
0.528024
2.97272
0.480235
2.23652
0.518744
1.05513
1.66242
1.75924
0.494475
2.9769
2.50223
0.619606
2.07069
1.11401
0.842704
1.58328
1.63865
0.62713
0.632582
0.277453
0.65333
1.65173
0.633437
0.649644
1.70422
1.86748
2.99096
0.62562
0.636175
0.618518
1.8991
0.70198
2.90098
0.609861
2.93651
0.491637
2.9923
2.71786
0.968457
1.55259
2.8675
0.605425
0.065568
2.96684
2.79904
0.640006
0.673326
2.61976
0.660887
0.637751
1.40374
2.52945
0.489928
0.57765
2.84378
0.62091
0.613233
1.25244
0.666196
0.0240871
0.621979
0.0497648
0.940599
0.0433976
0.920722
2.73848
0.201671
2.93795
2.93806
0.00448854
0.0258775
0.900516
0.628874
0.0702893
0.098748
1.5276
1.81841
1.05158
2.29108
0.926342
1.63028
0.0908109
0.908651
0.899695
0.713316
0.822051
0.0350364
1.03395
0.788148
2.39376
0.769666
1.34449
2.77947
0.770075
0.785708
0.773006
1.33517
2.00192
0.00993965
1.61171
1.56381
1.30357
0.346239
0.76954
2.26839
0.943143
1.28351
2.85461
2.26117
0.748218
0.421926
1.20602
1.338
0.754024
0.75355
2.07834
0.275037
0.650902
1.45684
0.673928
1.1212
0.566548
0.706312
2.87925
2.72337
0.912052
0.0190374
1.35384
1.44957
2.95728
1.24509
0.711117
1.67815
0.598608
0.650665
1.99594
1.63096
0.619691
0.201824
0.48986
1.09209
0.0171464
0.624659
2.61825
0.520255
0.0160706
2.7545
1.62659
0.351908
0.759468
2.1197
0.828862
2.74195
2.80411
1.11069
0.755541
0.00972424
0.460964
0.75967
0.763597
0.698395
1.98737
2.87795
2.26459
0.487075
0.0157496
1.29763
0.729028
1.46897
2.35197
0.767523
2.31728
0.759438
0.145395
1.60765
2.99572
0.424918
1.9212
0.688316
2.80346
2.11937
1.26753
0.378701
0.712485
0.694145
0.0113445
0.394642
2.56031
0.005207
2.95572
2.98663
0.701952
2.52999
1.74185
1.25858
1.79225
0.00565743
0.740972
0.433703
0.781644
2.48218
1.1511
2.41586
1.57335
0.455545
0.788615
0.768289
0.787536
2.18032
0.249254
0.922951
2.28388
0.776541
0.787698
0.800493
0.95059
0.778328
2.80151
2.86446
0.795775
2.95893
1.65561
1.4503
2.9024
1.37481
1.10403
0.181122
0.888858
0.532825
1.05984
1.57267
0.7674
0.747625
0.748118
1.7865
0.755127
0.239493
2.78904
2.97224
1.51028
1.70242
2.96747
0.76347
0.791178
0.77977
2.80174
2.65374
0.793017
0.356736
2.69389
2.56068
0.0271173
0.0763305
0.729868
2.54426
0.629182
0.877498
0.568867
1.09112
0.82014
0.0569681
1.09096
1.09317
1.99792
1.08193
0.051367
2.63564
0.837227
1.08564
1.85149
0.674622
0.575477
1.99074
0.664724
0.384797
0.641627
1.1
0.135658
2.41626
1.10083
0.463452
2.83468
0.959037
2.20943
1.12507
1.9662
0.0571582
1.05043
2.96607
1.1069
1.12967
1.00729
1.114
1.25103
2.94888
2.52461
0.668913
0.975778
1.33568
0.641572
1.80443
0.377433
2.72589
0.996303
2.09116
1.17332
0.624049
2.82511
0.952767
0.992968
0.0169501
2.72274
0.564594
0.324415
2.55282
1.03719
2.52922
1.39518
0.753588
0.582114
1.03345
1.04543
1.05402
0.026837
2.64844
0.590956
1.7864
2.7847
1.02218
0.53432
0.91087
0.914639
2.6339
0.883864
0.86481
1.8775
0.30036
0.00892425
0.167064
1.40443
0.864898
2.97354
0.0924102
1.07204
0.897303
1.2467
0.873937
0.884935
0.83167
0.644316
0.815067
0.57884
0.875524
0.207966
0.172401
0.895315
0.678637
0.900588
0.578833
0.573606
2.85192
1.60941
1.34144
2.86159
0.772234
0.87293
0.742258
1.8101
2.93347
1.7672
0.899399
0.705482
0.705
1.63948
1.42151
0.728462
0.0177705
0.846023
2.91748
2.79411
0.496064
0.830686
1.69222
1.26486
0.862283
1.59517
0.943498
0.940491
0.94347
1.24505
0.679974
0.949024
0.0278263
2.72072
0.951259
0.035755
0.942898
0.318889
2.53945
0.960657
1.72209
2.02251
0.946588
0.956716
1.73101
1.69896
0.960794
1.91422
0.99378
0.989961
0.907047
1.80108
1.00031
2.64479
0.968649
0.973979
1.63961
0.995488
0.990698
0.16186
1.04801
1.35432
1.01438
1.00888
1.61589
2.33453
1.81284
0.0966291
0.976475
0.975814
1.2897
2.3164
0.0902437
1.23828
1.2351
1.28016
1.28923
2.89174
2.93064
2.44225
1.86775
0.976975
0.970996
2.94208
0.467277
1.08259
2.13087
0.0901975
1.33222
1.34432
0.0705864
1.30959
0.561469
2.48904
1.33724
0.623992
0.802613
1.32763
1.76898
2.5618
1.32467
0.478148
0.74571
1.69968
2.38824
2.007
1.24955
1.97785
0.48532
2.01913
1.27407
1.15822
0.0527393
1.66242
2.89206
2.37052
1.99489
1.30532
0.487615
1.16955
1.17723
2.78118
1.54978
2.90625
1.1445
1.14134
1.98849
2.85594
0.773298
2.55464
0.275976
0.94999
0.970295
0.102995
1.98629
0.613883
0.514793
1.33441
2.81789
0.970512
0.123144
0.988502
1.01643
1.31044
2.12373
0.979133
2.81135
0.113457
0.472739
1.63482
0.978297
1.07576
0.489935
0.171568
0.606379
2.66526
2.10865
1.00968
0.918926
0.658299
1.69153
0.694804
0.0833665
1.02282
0.676934
2.2085
0.95594
1.45718
2.04871
0.958949
0.948044
0.950744
0.658317
1.00147
2.53899
0.99117
2.12199
0.710216
2.77517
1.00998
0.689141
2.94982
2.74807
1.04597
2.23805
2.48864
2.21013
2.33886
1.80037
2.57143
1.02011
1.03386
2.65241
1.0495
1.03307
0.686765
2.88358
1.01905
1.09861
2.99567
2.72983
1.1336
1.91575
2.97323
2.8547
1.12784
1.65255
1.06784
0.150522
2.81037
0.711714
1.25859
1.07467
1.11116
1.28544
0.815448
1.00875
1.01788
1.2312
0.113697
0.450526
1.06888
1.03602
0.34104
2.60879
0.467343
0.814583
1.67042
1.75741
1.04109
2.10962
2.7828
1.19111
1.14757
0.0270378
1.42356
1.13643
1.15335
0.872199
2.12395
1.15322
1.14811
0.205398
1.14345
2.16361
1.11274
1.10817
1.46533
1.62145
1.33813
1.11481
1.13277
1.11399
1.6981
1.39091
1.08832
1.29897
1.71953
1.64564
1.6436
1.64121
1.43508
1.12356
1.39286
0.0879664
0.317843
2.53966
1.85863
1.80091
1.41189
1.41909
1.3895
0.945093
1.42563
1.42046
2.07084
1.81203
0.800706
2.05784
2.62399
1.39604
1.41087
1.37572
0.290071
2.85483
2.92577
1.87973
1.28606
1.31966
0.474123
2.61072
1.39746
0.085361
2.53376
1.31049
1.30328
0.981648
2.99076
1.32686
1.31993
1.32625
1.18933
2.94845
2.91083
1.18321
1.19076
1.20591
1.20306
1.12846
1.24106
2.11788
2.8238
0.048109
0.742978
1.1794
1.19745
1.62729
0.171756
0.237668
0.43126
2.98559
0.412694
1.17106
1.1645
1.18515
1.18029
1.17192
1.18374
0.532135
1.46826
0.585682
1.38648
2.13108
2.86171
1.15876
1.62796
2.95838
1.38692
1.10611
0.116819
1.09059
1.69327
1.74008
0.777864
1.58076
1.12921
1.05512
1.08399
1.43263
1.29918
0.155608
1.13464
0.609092
2.14745
2.30485
1.15659
2.281
2.74875
1.09571
1.11754
1.5925
2.05209
1.91011
0.298812
1.11572
2.44692
2.93741
1.32354
2.688
1.65526
1.17605
0.767168
1.29576
2.7157
0.256814
2.83429
0.350871
1.51131
0.469207
1.25704
2.50859
1.15305
1.33063
1.95103
1.73333
1.15218
1.14739
0.256075
0.739682
0.599557
0.193021
0.671044
0.747978
0.746951
0.557473
1.17863
1.20015
1.57719
2.27865
2.18612
2.81091
0.460756
1.57012
1.22516
1.24943
1.24279
2.5236
1.26805
0.572377
2.97072
1.27528
1.22009
0.968207
0.00967564
0.56581
0.568169
1.25273
2.8596
0.467347
1.24348
0.872978
1.15291
0.825746
0.686092
1.3771
0.492389
1.20416
0.726233
1.16837
2.77822
0.566856
0.498859
1.54534
0.0720708
2.18192
2.04018
2.17135
1.39299
0.608555
2.34065
0.87988
2.32536
1.18772
1.19841
1.42788
1.12736
1.30241
0.3541
0.808113
1.32458
0.754132
1.24624
0.0100685
0.513297
1.24773
1.30183
0.830433
0.386134
1.28899
2.70922
0.887047
0.357612
1.30274
1.44964
1.26885
1.23854
1.21726
1.20765
2.95425
2.18644
1.2055
0.0723677
1.20565
1.52507
0.664594
1.55087
1.74652
0.360911
0.0668483
0.552815
0.55267
0.535226
2.628
1.32062
0.989184
0.0738472
0.193191
0.0698914
0.0448083
0.195172
1.5062
1.53789
0.0759322
2.36293
1.50392
0.751299
1.52548
0.547411
0.721468
0.0684415
0.256603
0.544531
2.18654
1.49479
1.35855
1.39992
1.31875
0.534003
0.75947
1.3431
1.38961
1.36266
2.8284
0.394225
2.52554
1.31949
1.04177
1.27399
1.32077
1.36479
2.53354
1.29502
1.49039
1.29937
1.30237
0.500517
1.45393
2.11832
2.45485
0.628905
1.785
1.8025
0.701048
2.00053
2.45073
2.522
2.63015
0.725354
2.2408
1.48066
1.09022
2.6449
0.429023
0.414435
1.91996
1.95616
0.223281
1.41577
2.83301
1.14694
2.63719
0.795877
2.65573
2.48171
2.80029
2.88926
2.09564
0.471777
2.48695
2.72538
2.69868
1.34498
2.67716
1.36088
0.422946
1.31304
1.3356
0.733682
2.48103
1.2903
1.30107
2.88007
2.18086
0.464882
1.28968
1.279
0.705632
0.404649
0.52817
0.407736
2.40265
0.158968
0.0920746
1.28954
1.27434
2.85163
0.328932
0.0874036
1.30752
1.70058
1.30856
2.81176
0.519696
2.94222
2.49052
1.39948
0.953134
1.39907
1.68863
0.446695
1.82161
0.584368
1.40242
1.39443
2.20388
1.47614
1.59872
0.116504
0.447671
0.808645
1.39483
0.402093
2.11428
2.52231
2.25226
2.84302
1.39415
0.423585
1.40251
2.84224
2.88116
0.494462
1.37993
2.24744
0.308449
1.3776
1.37146
0.474783
2.78254
0.501614
1.36427
1.33439
1.32656
1.23384
1.31801
0.52765
0.590057
1.32219
0.232211
1.20156
0.588135
0.955625
1.33381
0.420568
1.37611
1.70606
0.213453
1.16257
1.35128
2.88416
1.31644
1.32158
1.74179
1.38615
0.776336
2.36062
0.468029
1.44751
0.666479
0.53837
1.34807
1.21028
2.88882
2.21946
2.39316
1.36307
0.429914
2.80368
1.39526
0.207857
2.39168
0.702584
2.43476
1.39925
1.03282
1.40289
2.9866
0.898532
0.43288
1.74115
2.60099
2.37564
1.78155
1.76324
1.67873
0.472598
2.88841
2.61153
1.61465
1.60001
0.59834
0.765186
1.60779
1.53265
1.65294
0.947924
0.19575
0.368983
1.21543
2.67219
0.614396
0.634889
1.93854
2.45787
0.828155
1.99345
1.61493
0.740831
1.21284
1.19237
1.42889
1.66017
1.54303
1.54563
1.57247
0.681265
1.51668
1.03156
0.240736
0.433113
0.754132
0.515313
1.64996
2.01243
0.46093
1.50878
0.73825
1.25403
0.65459
0.136472
1.62171
2.92092
1.49447
1.46979
1.39589
0.471053
1.49866
1.42161
1.18132
1.39072
1.18331
1.47461
2.99145
1.1975
1.41546
1.43473
2.95013
0.73927
0.161006
1.20304
1.13362
1.57607
1.40441
1.41993
2.36043
0.186476
1.40043
1.39482
1.38309
2.60939
0.477313
1.30188
1.55797
1.19912
2.0676
1.78757
0.613199
1.51641
1.55597
1.82148
1.55121
1.42932
2.00992
1.51575
0.475603
1.32455
2.15057
0.483359
0.474434
1.69873
1.69844
1.89256
1.50917
2.34113
1.47414
2.28182
0.00580188
0.653701
1.04719
2.05328
2.78943
0.363393
2.77232
2.75931
1.51826
2.98252
1.51674
2.65328
1.0302
1.98819
1.53106
0.789526
1.01786
1.51614
2.69994
2.75686
1.058
1.54325
2.57411
1.51262
1.52745
1.32071
1.46345
0.13796
0.723576
0.372311
1.05578
0.791383
1.51944
0.720394
1.04762
1.51827
0.347746
0.12079
0.802286
0.862118
1.51829
0.544937
1.56749
0.367604
1.11368
0.745449
2.78136
2.56264
0.865003
2.88904
0.441823
0.0339177
0.318229
2.86134
2.35237
2.80798
0.504043
0.37512
2.92055
1.01679
1.59173
0.553576
0.960096
1.58964
1.48834
2.64878
0.834427
0.810751
2.36864
0.146768
0.366363
1.42078
1.58243
0.0509225
1.58974
0.10309
0.809287
0.826172
1.57403
0.270843
1.73701
0.29001
0.477512
0.264931
2.92182
1.54677
0.163699
2.21662
0.0879513
1.53991
0.236006
1.89781
1.90676
1.83235
0.139284
0.633927
0.266169
0.648325
1.75984
0.168519
0.162544
1.89318
0.148222
1.70021
0.723336
1.77947
0.634437
1.43253
1.94981
1.50754
1.9678
1.49719
2.75485
1.69224
1.79708
0.354984
1.84036
0.803272
1.33984
1.04034
1.72156
2.5926
2.0514
0.794392
1.77572
0.374336
2.1731
1.66081
0.286384
0.733157
1.64633
0.561623
1.66619
1.78221
1.80458
1.46092
1.71134
2.99033
2.58151
2.52416
1.77556
1.76818
0.771335
2.45612
2.6801
1.83655
2.22635
0.37904
0.608334
2.62062
1.63221
1.01893
1.71271
1.61859
1.89388
1.64107
0.623676
1.64704
1.12286
2.99509
0.41271
1.14545
0.0687377
1.60851
1.65203
2.75925
0.358326
1.98292
1.60257
0.721386
1.55112
1.5893
1.6911
1.67804
2.63944
1.5586
1.62199
1.61134
1.6735
1.45686
1.64124
0.41975
1.87936
1.59331
0.373089
0.073311
1.06491
1.84045
0.853294
1.61676
1.73746
1.80281
2.35093
1.86109
1.96671
0.18647
1.853
1.45487
1.44923
2.59957
1.87207
0.424639
1.7081
1.67805
1.15864
1.27702
1.72534
0.99297
1.43945
1.69559
1.72477
1.54507
1.72153
0.436835
0.527682
1.84041
1.88392
1.76736
2.4874
1.69065
1.44088
0.768325
1.72733
1.67838
1.78461
1.66065
0.41694
1.88537
0.495626
1.68409
1.74076
1.80517
1.72491
1.98821
1.7516
1.98575
2.10507
1.75028
0.23104
1.5646
0.24154
1.16157
2.14212
2.71413
1.88798
0.420374
1.71176
1.73163
2.05451
1.71256
2.06785
0.398444
0.412101
2.0235
2.01844
1.97286
1.9669
0.926877
1.36521
1.99367
1.98846
2.24402
1.74377
1.96923
1.96983
2.38922
2.4334
2.9957
1.96708
0.922931
2.63934
1.36151
1.92288
1.89968
1.84529
1.52423
0.439427
1.67873
2.05317
2.85961
2.77709
1.33887
1.91806
1.96891
1.56082
2.64416
2.75757
1.89685
0.430821
1.7773
1.75659
2.40852
1.84247
0.127089
1.7985
1.8328
1.37958
1.81492
1.77331
0.425956
1.76841
1.58725
2.7789
2.95285
0.973418
2.56996
2.75965
1.72774
1.95075
0.427329
1.75547
0.328359
0.334131
1.78725
0.44386
2.92286
1.82521
1.74894
2.60038
1.73725
0.324217
0.0627414
2.41447
0.367259
1.75778
0.784449
0.561657
1.74521
1.68875
0.346187
1.76565
0.138233
1.7393
1.48764
1.64435
0.130128
0.358364
1.47598
1.72196
1.76252
0.691067
1.4922
0.681861
0.360174
0.410587
1.71843
2.85656
1.71039
1.80528
0.705783
2.00931
0.711591
2.52049
0.554146
2.99587
0.413353
1.47492
1.92379
1.8203
0.367802
1.83955
0.423451
0.490617
0.384334
2.86381
2.96577
0.670427
2.9539
1.84259
1.49788
0.985233
1.86378
0.478417
1.29307
0.449539
1.8944
0.47286
0.879147
0.705964
0.0643951
1.428
0.192958
1.89864
2.87526
1.27701
2.89241
0.0885402
2.45979
1.34035
0.70046
1.78685
1.84483
2.83519
2.60086
1.82378
0.638945
0.391067
2.9281
0.313715
1.4765
0.160268
2.30052
0.626661
1.82501
0.893494
0.374361
0.906642
1.03897
0.801405
0.611958
0.442196
1.0794
2.48979
0.744659
1.80085
1.8005
1.80181
2.29453
0.204645
0.191018
0.725292
1.69483
0.480599
0.408758
1.68883
1.7955
1.80585
1.84472
0.205782
2.42847
1.86488
1.21218
1.84065
0.741107
0.91625
1.6273
2.32104
1.84997
1.85255
1.37236
0.0915423
1.13364
1.85294
0.457502
2.17957
2.38299
0.242591
2.93763
2.18841
2.83743
2.16745
2.18831
0.458562
1.8694
0.892819
0.467534
1.55879
1.79321
0.373817
2.1295
0.404799
1.91742
1.88066
1.87734
0.712082
1.06669
0.407868
0.648038
0.510162
2.04469
1.33372
0.365631
0.549351
1.80102
0.550562
2.15939
0.738278
2.45442
0.699774
1.85723
0.95988
1.98247
1.43585
0.548976
2.18284
0.534138
2.37716
1.77244
1.99146
2.62811
1.94972
2.01561
1.60306
0.408047
1.96841
2.53193
2.79027
0.709607
2.77207
0.522899
2.95879
1.93136
2.41475
1.93202
0.540662
0.498463
2.449
0.219674
2.61834
2.99573
0.714407
0.93584
1.93742
0.548097
2.21239
2.7666
1.6395
2.95902
1.25923
0.805593
1.40258
1.92218
0.110077
1.90914
1.24139
0.703728
1.54826
0.506909
1.94777
1.4112
1.96387
1.37459
0.220489
1.87849
2.02785
1.35257
1.95776
1.1593
1.95939
2.32187
1.96027
0.218519
1.96896
2.00919
1.98166
0.290858
1.67964
0.403054
0.184442
0.213799
1.00116
2.43804
2.23826
0.912065
0.543943
2.74407
2.27708
1.98139
1.9955
0.519679
0.0809437
2.98374
2.62677
2.07165
0.394444
2.62707
1.53717
0.512596
2.00641
2.01532
2.00635
2.04265
2.00419
0.979659
1.78677
0.575293
2.73219
1.96838
1.99846
0.285864
1.43834
0.332004
0.175639
2.46
1.99708
2.24394
0.287221
0.27488
0.324328
0.346682
1.63229
2.25572
0.384116
2.45047
1.99722
0.594914
1.86635
2.0049
2.21696
2.03255
0.613104
0.636436
2.00694
1.23802
1.87173
1.88222
0.0930329
2.71665
2.38931
1.99774
1.99217
2.90012
1.9931
2.25046
1.93798
0.668638
1.96988
2.81057
1.91385
2.91422
0.26652
0.344267
1.60068
1.9656
1.93541
1.79296
2.08867
2.17153
1.76549
2.12522
2.13678
2.24444
2.12203
0.233772
0.559882
1.53305
0.706433
2.07444
0.633815
2.25794
0.701091
1.07471
0.793979
2.10692
1.33295
2.78629
0.632481
0.434174
1.96711
0.0496041
2.07319
2.05071
1.42038
2.75992
1.76811
2.04666
0.644933
2.25869
1.98667
2.0064
2.31355
1.03265
2.31406
2.32607
2.30492
2.29461
2.30419
0.69514
0.659795
0.623177
0.705553
2.56519
2.30186
0.308089
2.23218
2.57351
2.24036
2.24772
2.54382
2.23633
2.2314
2.24136
2.04419
2.06843
1.30498
1.94222
1.81299
1.4721
1.6896
1.78072
2.55968
2.03101
2.05341
2.27678
2.21829
2.05651
1.14917
2.81191
0.810669
0.107084
1.29595
0.221249
2.05538
2.79572
2.77817
2.77517
1.71401
2.77455
2.08559
2.05826
0.39667
0.0614037
1.40468
2.15277
0.344423
1.55143
1.22704
2.07368
1.19388
2.07156
1.14378
2.21688
2.60053
2.50005
2.11576
2.99139
2.04452
0.36676
2.29926
0.838186
2.72815
2.14396
2.11948
0.531783
1.80193
1.12843
1.66215
1.14992
2.13379
2.83325
0.323757
1.95556
1.27424
0.374717
0.374159
2.09484
2.23472
2.09506
1.63274
2.10908
1.18006
0.538233
1.58973
2.09155
2.08357
1.54999
1.34185
0.95698
2.09
2.06877
2.06811
0.357986
2.08328
2.0677
2.66826
2.18089
2.5604
2.84141
2.58092
2.73429
2.20017
2.17364
2.86982
2.36148
2.87941
0.394867
2.15955
2.51946
0.383419
0.986335
1.73247
2.28064
2.12593
2.86292
2.14732
1.09189
1.64567
2.16124
0.323715
2.60152
2.95516
2.14773
0.0233132
1.66864
1.25552
2.84852
2.14519
2.15174
0.959689
2.85485
1.69143
1.30654
2.19751
2.14989
2.12432
0.0514427
0.233301
0.318062
1.72412
2.56645
2.82623
2.8549
0.286414
2.85252
2.48171
2.12111
0.0803598
1.96397
2.09739
0.569313
0.308422
1.09277
1.18217
2.09591
2.11025
0.379353
0.740112
0.628832
2.74319
0.801752
2.42154
1.80735
2.5224
2.14203
1.61963
0.240938
1.61914
1.62637
0.151086
2.18889
0.364778
2.38191
1.19844
0.873504
0.258006
1.63132
0.338088
2.22877
2.35938
2.6219
2.19851
0.326539
2.38484
2.44359
1.34077
2.36398
2.37136
2.32003
2.77939
1.7514
2.16924
2.01421
2.41465
2.24981
2.33522
2.5511
0.30061
1.11624
2.38976
2.14902
0.0151374
1.39782
2.18795
1.28548
2.1782
1.47832
2.20125
0.320892
2.38447
0.0341846
2.49454
2.53928
1.33046
2.3831
1.1796
1.3956
1.05537
2.74069
2.98619
2.67456
2.71024
2.48118
2.81629
2.44196
2.46859
2.47216
0.177437
2.66473
0.289795
0.282893
2.58728
0.424531
2.13763
0.358086
0.539683
2.40125
0.411662
2.39611
2.97838
1.08181
1.78346
0.490872
0.550437
1.64727
2.80111
2.62958
1.05063
0.878413
2.38977
2.4033
2.20007
0.840087
0.643677
1.24356
2.78358
2.83931
2.20569
1.01363
0.814799
0.609341
0.169973
2.1814
0.475826
0.678146
1.25908
0.0349581
1.78357
1.41147
0.98658
2.23146
0.270526
2.8554
1.80671
0.702366
0.928978
0.548707
0.287762
2.75804
1.81498
2.20721
1.58215
2.20494
1.67703
1.53271
1.58742
1.96705
2.19903
2.20603
2.2377
1.95497
0.182799
1.87543
1.98653
1.93674
0.340284
0.656213
2.78291
0.278083
2.19689
2.23718
1.39552
2.32557
2.32493
2.04395
2.78161
2.33197
2.30277
2.83355
2.36953
2.37666
2.32084
2.10605
2.25214
2.24706
0.303182
2.50255
2.38047
2.554
2.18026
2.555
2.60566
2.2111
2.81331
2.81942
1.89962
2.57231
2.60328
0.291111
2.22091
2.40994
2.44649
2.7945
2.50079
2.22353
2.20922
2.29476
1.74822
1.28704
1.03566
1.50906
2.79539
2.30593
2.30918
2.285
0.74525
1.91287
2.20481
0.119125
2.30057
1.92072
2.30643
2.28503
1.09539
1.04003
2.31368
1.84747
0.535138
0.562703
1.90964
2.29831
0.308737
2.30211
1.50061
2.30028
0.0715894
2.29578
0.792863
2.31552
1.11407
0.705211
0.356309
0.588736
2.30832
0.679752
1.32236
1.11587
2.30562
2.69808
1.77887
1.28185
2.30454
2.30778
2.29992
1.77876
2.37415
0.145454
0.961424
2.72309
0.302019
2.3469
0.377338
2.7424
2.39963
2.35902
0.759226
2.31919
1.07139
0.183667
2.39077
2.34553
1.93464
0.251443
0.7496
0.765363
2.33864
0.639963
1.00218
2.34674
1.91353
2.08349
2.35528
2.36286
1.05763
0.614514
2.28575
1.8855
2.10744
0.32715
0.3729
0.332091
2.309
0.320148
2.54674
0.88247
0.548931
1.61191
1.09563
2.30714
0.268411
2.6596
2.625
2.5951
1.82809
2.59283
1.73181
1.7644
1.90586
1.64926
0.814846
1.87924
1.34355
2.89609
2.52924
2.04702
1.41221
2.33437
1.21684
0.508411
1.71778
0.847596
0.938689
2.87155
2.59709
1.12553
2.5248
2.99158
0.268122
0.752681
0.395663
2.5958
0.276826
1.95484
0.403752
2.00699
0.35205
1.98813
0.317148
2.55639
0.63193
2.36086
0.990254
1.98843
0.924488
1.95463
0.00953696
2.35151
2.11945
0.827569
0.976422
2.37568
1.65435
0.968956
2.3544
1.20404
2.74186
1.21058
2.41032
2.4307
2.11922
0.284619
2.35172
2.59404
2.35173
2.34172
1.81709
0.726152
2.26792
2.33486
1.82003
1.80793
2.9697
0.357816
2.35901
2.14699
1.47084
0.900131
2.97524
2.34083
0.296362
2.44143
2.47714
1.32292
2.68078
2.53061
0.551554
2.35988
0.326809
1.77041
2.58112
2.48413
1.62758
2.49547
2.34862
2.06854
2.39313
2.37753
2.39964
2.73819
1.37492
2.40938
2.16041
2.43631
2.25364
2.14351
2.41805
2.44206
0.360901
2.39512
2.48759
2.44031
0.300819
2.35816
2.45461
2.24518
0.989956
2.1952
2.41413
2.3378
2.42848
2.99567
0.326156
2.1886
2.43332
2.5591
0.234459
1.91386
2.7098
2.44923
2.89123
1.81842
0.31134
2.45325
0.345662
2.49016
2.66136
0.299565
0.340176
0.246918
2.58585
0.27951
2.83755
2.82284
2.43899
2.7179
2.74978
2.30756
0.978952
0.294588
0.40985
0.198822
0.440915
1.40277
1.82724
2.57069
2.47742
2.39225
1.49518
1.27654
1.96062
0.745765
2.20023
2.43
1.1634
2.27434
0.431168
0.410214
2.67852
0.414727
1.28814
0.646441
0.231168
2.46469
0.85418
1.27139
1.15905
1.26394
2.45645
1.65722
0.390661
0.220869
2.35088
0.455545
0.21896
0.340596
0.798134
2.54426
0.205566
2.52161
0.508492
0.520573
2.51932
2.46122
2.56809
1.44879
0.274915
1.87106
1.27937
2.5561
1.08764
0.271863
2.42918
0.75528
2.4517
0.726676
0.409101
0.195778
0.434922
2.06608
1.96348
1.76187
0.86053
2.42761
0.600224
0.577808
2.44245
0.707582
1.67453
2.44265
1.28047
0.665491
2.46644
0.392417
2.54995
0.626481
0.143303
2.4911
1.5284
2.48441
1.2392
2.46035
2.74292
0.275521
1.20553
2.11807
1.80207
1.4825
1.54837
2.78108
1.65195
1.65135
0.39499
1.17425
0.114734
0.517316
2.27782
0.344606
2.72596
2.71796
1.0722
1.35428
0.708838
0.701209
2.70594
2.74481
1.68131
0.312681
0.822109
0.519807
0.155779
2.69593
0.796211
1.19256
0.786156
0.722079
1.30656
0.284119
0.691673
0.620081
2.34127
2.27942
0.1778
2.69925
2.73593
2.50104
0.468766
0.298214
0.257529
2.52227
2.54485
0.988843
2.50872
2.51023
0.936714
0.208846
0.73204
2.22949
0.422248
1.67638
0.744886
0.729447
0.204195
2.53926
1.36313
1.34359
2.5144
2.55175
2.56508
2.54268
1.2279
2.51646
0.205229
0.79047
0.97153
2.51615
2.5704
2.04703
0.851726
0.183725
1.70588
1.86261
0.222366
2.78889
2.62277
2.24301
1.80602
2.62688
2.52071
2.51288
2.07498
2.50231
0.229909
0.205522
1.98728
0.225592
1.37943
2.08593
2.53757
2.26765
2.32068
2.18267
2.52382
2.59462
2.48207
2.39612
2.57322
2.29307
2.24147
0.831253
2.57069
2.52563
2.15322
2.7049
2.52076
2.56539
2.60461
2.58935
2.56081
0.225808
2.54931
2.51585
1.44887
1.43901
0.318082
1.36554
0.242863
0.568994
0.500977
0.31805
1.55931
2.58506
1.36914
0.167264
2.35717
2.78022
0.823872
2.58874
0.550354
2.59108
2.53948
1.99601
2.634
2.08335
2.58415
2.64772
1.81692
0.779274
2.95618
1.09174
0.0514409
2.66647
0.881078
2.67622
0.344277
0.727279
2.68772
1.82014
0.787711
2.64714
0.319519
0.787242
1.94007
2.64727
2.57165
0.261722
1.69927
0.800249
2.19919
1.9086
0.560213
2.34003
2.56136
1.14546
2.02938
0.666228
2.0171
1.08191
2.59074
2.58342
2.42949
2.4958
0.204839
0.638008
2.72873
2.7291
0.0300902
2.25686
0.29683
0.628856
2.60523
0.493071
2.63286
2.63686
2.64145
2.73905
2.64717
2.64258
0.00866369
2.61924
1.70706
1.19265
2.86022
2.36713
1.12587
1.38118
1.13529
1.13316
2.83246
2.83186
2.83472
2.87762
2.89643
0.216629
2.88148
1.71836
2.90439
0.114641
2.12673
0.214165
1.22237
0.979977
2.65669
2.71024
2.90998
1.38337
2.68882
0.680783
2.69065
2.65828
2.45402
2.61908
1.7389
0.95777
2.66183
0.87395
1.338
2.73387
1.87193
0.285096
2.67827
1.78117
1.37695
2.7063
2.69709
2.62189
2.68916
1.3571
1.33998
1.98932
2.09228
2.7074
2.35681
2.39205
2.50768
0.18561
2.32971
1.87269
2.39104
0.64455
2.79631
1.62673
1.34347
2.97686
2.56741
2.82009
2.78124
2.20177
0.760277
0.893295
0.88121
1.57062
1.77903
1.67443
2.77782
0.342308
0.17135
2.75435
0.943788
2.77384
1.61486
2.74076
0.454455
2.17745
0.564525
0.855171
2.67911
2.72733
2.6985
0.277602
2.74749
0.878028
0.497447
1.91013
1.43346
0.235668
0.744839
0.339235
1.1382
1.104
1.24091
2.95961
2.72757
1.74933
2.73174
1.33745
1.52073
2.73332
1.37443
2.77771
2.78181
2.73997
1.92473
2.73412
1.59035
2.97372
0.660637
2.5431
1.31619
2.78332
2.77963
1.14442
2.75935
2.18818
1.47976
2.74998
1.53319
1.70369
2.75314
2.73844
1.97481
2.77459
0.453466
1.61973
2.13928
2.77992
2.77436
2.12809
1.18271
2.97333
1.63929
2.95967
1.50588
0.418023
2.11717
2.07998
2.10472
2.45654
1.39694
2.75402
1.0678
2.76217
2.17955
2.14642
1.41476
1.39736
2.33486
2.25292
1.39506
0.113766
2.76526
0.101469
2.25059
1.62922
2.96483
2.61021
0.513693
2.89589
0.338679
0.452179
2.81922
0.623904
0.692324
2.83297
1.80506
2.75947
0.459942
1.59874
0.882599
2.07084
0.71859
0.395412
2.85184
1.23377
1.59369
1.60487
0.863817
0.842558
2.84062
2.92581
2.77345
2.86433
0.720777
2.74771
2.59642
0.711818
0.319426
0.105563
0.913575
2.78697
0.336194
2.78004
2.83079
2.76445
0.698642
0.33812
0.201783
2.9169
0.228982
0.347329
0.433761
0.409644
0.413919
0.25849
0.319121
0.516047
0.709676
0.732933
0.752931
0.712154
1.23447
2.90384
2.93611
0.680655
1.48033
2.83542
2.78693
2.85076
2.5652
1.68231
2.84478
2.86062
1.33433
1.30376
0.671594
1.10301
1.22704
0.731048
1.22376
2.79835
0.461269
0.76667
2.8033
0.806499
0.49923
0.197283
2.7959
2.7897
2.80192
2.88088
0.539838
2.95016
1.94047
2.85681
0.867495
0.532647
2.85217
2.88837
2.87758
2.84277
0.509312
2.91441
2.14272
2.85528
2.08631
2.87192
2.05984
2.04238
0.480712
2.54779
2.08683
1.93949
2.76468
2.87619
2.06759