/*--------------------------------*- C++ -*----------------------------------*\
| =========                 |                                                 |
| \\      /  F ield         | OpenFOAM: The Open Source CFD Toolbox           |
|  \\    /   O peration     | Version:  2406                                  |
|   \\  /    A nd           | Website:  www.openfoam.com                      |
|    \\/     M anipulation  |                                                 |
\*---------------------------------------------------------------------------*/
FoamFile
{
    version     2.0;
    format      ascii;
    arch        "LSB;label=32;scalar=64";
    class       volScalarField;
    location    "30";
    object      nut;
}
// * * * * * * * * * * * * * * * * * * * * * * * * * * * * * * * * * * * * * //

dimensions      [0 2 -1 0 0 0 0];

internalField   nonuniform List<scalar> 
59516
(
3.45254e-05
5.66182e-05
4.25246e-05
0.000102254
0.00113397
0.000186206
6.89353e-05
4.04982e-05
3.55761e-05
9.67319e-05
0.000721858
7.53173e-05
4.02749e-05
0.000162576
9.02452e-05
7.79962e-05
0.000480186
9.77012e-05
4.40963e-05
0.000329744
0.000147693
0.000127884
0.000177619
0.000141949
0.000167794
8.29319e-05
0.000135678
0.000164958
9.13896e-05
0.000143066
0.000243262
0.000157497
8.44217e-05
6.58542e-05
0.000122943
9.90876e-05
0.000139471
8.91809e-05
4.03177e-05
0.000206586
3.84781e-05
0.000278542
0.000140942
5.79777e-05
0.000104269
7.88882e-05
5.86727e-05
0.000452532
0.000878514
0.000260092
0.000624455
0.000132099
3.64011e-05
4.88051e-05
0.000157675
6.44086e-05
0.000394668
0.000150419
0.000552069
9.60747e-05
0.000176264
0.000154579
0.000410892
0.00041797
6.91347e-05
0.000184625
0.000200845
0.000130903
0.000432519
6.38252e-05
0.000220624
0.000359424
0.000177262
0.000131589
0.000674858
0.000256426
0.000442087
0.00015453
0.00012825
0.000281381
0.000132057
0.000199687
0.000120473
0.00016247
0.000189503
0.000575386
0.000129294
0.000125268
8.05892e-05
6.01279e-05
0.000620786
0.000140187
0.000445064
0.000120437
0.000336434
0.00110813
0.000145267
7.95175e-05
8.51141e-05
0.00016952
0.000151186
0.000178552
0.000175282
7.86832e-05
8.54423e-05
0.000217175
0.00014317
3.21339e-05
4.72596e-05
8.84261e-05
0.000261118
0.000194086
9.39657e-05
0.000161475
0.000240739
3.97391e-05
8.05279e-05
9.58927e-05
0.000163778
0.000146457
0.000848533
0.000423367
0.000233317
0.000424266
0.000268518
3.84378e-05
0.000196408
0.000161472
0.000281442
0.000642213
0.000801233
3.97448e-05
0.000156099
0.000114819
4.56877e-05
3.52406e-05
0.000118049
4.39752e-05
0.00014059
5.67853e-05
0.000134088
0.00072274
0.00013899
7.15581e-05
0.000642567
0.00011642
8.58887e-05
5.01366e-05
0.000251262
3.95941e-05
4.9051e-05
0.000127238
0.000282632
0.000174862
3.71656e-05
0.000151969
5.98897e-05
3.63191e-05
4.04915e-05
0.000154886
9.84438e-05
9.63144e-05
0.000135405
0.00018385
3.96545e-05
0.00042829
8.07612e-05
0.000566792
0.00014644
0.000153493
3.97336e-05
7.43979e-05
6.6091e-05
9.46821e-05
0.000114175
6.5492e-05
0.00045467
0.000164752
8.88696e-05
0.000114315
0.000123966
0.000129853
0.000206681
6.52205e-05
0.000631105
7.61482e-05
0.000110647
0.000150831
4.1071e-05
4.26738e-05
0.000124718
7.79596e-05
0.000325118
5.72003e-05
0.000155676
0.000110622
7.62882e-05
0.000115002
7.18962e-05
0.000146747
6.48395e-05
0.000828404
3.48893e-05
0.000142913
6.16509e-05
0.000118713
0.000664856
0.000282781
0.000156822
5.7475e-05
8.91495e-05
0.000185343
0.00013028
8.5307e-05
4.8698e-05
0.000401776
0.000101105
0.000170433
8.7318e-05
0.000216171
8.95811e-05
6.17037e-05
0.000410736
0.00015364
0.000468534
0.000486296
0.000187499
0.000130348
0.000474469
8.29849e-05
0.000448743
0.000510281
0.000854864
0.000170118
0.000128168
0.000112326
6.65631e-05
3.51533e-05
0.000255892
9.5617e-05
0.000794081
0.000165588
7.38897e-05
0.000184142
0.000706541
3.315e-05
0.000165783
8.86769e-05
0.000383562
3.44238e-05
0.000301515
0.000126577
0.000851928
0.000159849
0.000135883
0.000238595
8.86431e-05
0.000218232
0.000129894
8.84297e-05
6.27005e-05
0.000297703
4.87503e-05
0.000506088
3.38033e-05
6.9063e-05
0.000279703
3.85381e-05
0.000164808
7.16875e-05
5.08694e-05
0.000506828
3.12217e-05
4.37449e-05
0.000356692
3.5154e-05
0.000150113
0.00026091
0.000169312
0.00013003
0.000770436
0.000103403
0.000187632
5.34834e-05
5.54242e-05
0.000487041
0.00069064
0.000190732
0.000735292
0.000915537
0.000544183
9.34381e-05
0.000119231
4.14048e-05
0.000394493
0.000202132
0.00030709
8.93635e-05
0.00085282
0.000476222
3.40865e-05
6.96729e-05
0.000162943
0.000174165
0.000223313
0.000162181
0.000122658
9.20259e-05
0.000357947
0.000348224
0.000154701
7.47605e-05
5.01012e-05
0.000145018
7.73505e-05
0.000302354
4.01881e-05
0.00109181
5.23033e-05
0.000121553
9.59829e-05
5.28942e-05
0.000599272
0.000755657
0.000847331
0.000228259
5.25889e-05
7.83853e-05
0.000420882
0.000282768
0.000251689
7.55031e-05
0.000171508
0.000182031
0.000124049
0.000131377
0.000330524
0.000131331
7.65818e-05
0.00052037
0.000303804
0.000770482
0.000526966
0.000117811
0.000235845
0.000675477
7.76588e-05
0.000754386
0.000581022
8.67847e-05
7.58677e-05
0.000211901
0.000119138
4.27016e-05
0.000136232
0.00013978
4.83157e-05
0.000145588
0.000264539
4.28853e-05
5.64083e-05
7.88994e-05
0.00071077
0.000170864
6.97961e-05
0.000186773
0.000192739
0.000138159
0.000289855
9.05451e-05
0.000123202
0.000134998
0.0003125
4.63558e-05
0.000289123
0.000149364
7.74889e-05
0.000135754
0.00038289
6.67087e-05
7.58469e-05
3.25474e-05
0.000745828
0.00017245
8.00912e-05
0.000102825
0.000163698
8.36143e-05
5.41014e-05
7.08072e-05
5.16307e-05
4.83658e-05
0.000262676
0.000129973
0.000776933
0.000105994
8.77064e-05
8.65061e-05
0.000656103
0.000595221
7.02018e-05
5.47505e-05
3.77756e-05
0.000690699
0.000644827
0.00014222
8.60218e-05
0.000136861
0.000140199
0.000219262
0.000175272
0.00016431
5.59067e-05
0.000586314
0.000762134
0.000133599
0.000496368
3.14074e-05
0.000662591
0.000590071
0.000714656
0.000569319
0.000518483
3.40436e-05
0.000722629
8.11925e-05
0.000392945
4.93235e-05
0.000223173
0.000615939
0.000122246
0.000140823
0.000118089
0.000133461
0.00015382
0.000452081
0.000726913
0.000130127
5.12926e-05
0.000119102
0.00016461
5.56331e-05
0.000230855
0.000602486
0.000204726
8.30563e-05
0.000785341
8.02106e-05
0.000184241
5.7453e-05
7.74551e-05
0.000255242
0.000245548
4.04039e-05
0.0001383
0.000164597
0.000662226
0.000659452
0.000698281
3.21733e-05
0.000237094
0.000536783
9.45702e-05
0.000776706
4.45577e-05
0.000466784
0.000152511
0.000154862
0.000664803
5.81975e-05
0.000134865
2.90582e-05
0.000407368
7.06126e-05
4.48479e-05
0.00015918
0.000534662
5.55846e-05
0.000238452
6.66119e-05
0.000117601
0.000121847
0.000182856
0.00034473
0.000792449
0.000455793
0.000146248
4.44464e-05
3.51631e-05
9.91883e-05
0.000880221
0.000621024
0.000180115
0.0003486
0.000874722
0.000151454
8.55818e-05
7.45745e-05
0.000223527
0.000720142
0.000219451
7.47543e-05
7.18667e-05
4.56107e-05
0.000765892
0.000172722
0.000200067
0.000218102
0.000677387
0.000233272
0.00033187
0.000158652
0.000338206
0.000161202
6.76248e-05
0.000208619
7.53478e-05
0.000164244
0.000145699
0.000130674
8.30783e-05
9.8417e-05
7.81961e-05
7.1825e-05
0.000452571
0.000522779
0.000180678
3.6064e-05
0.000121692
0.000471765
7.98346e-05
0.000459369
8.76672e-05
8.64837e-05
0.00067854
0.000106648
0.000489349
0.000155086
0.00015023
0.000137731
0.000746004
8.07848e-05
6.57434e-05
0.000621049
9.84234e-05
0.0003453
7.33955e-05
0.000608469
6.99757e-05
0.000179689
0.000157429
0.000142956
0.000179655
0.000113193
0.000118305
0.000104235
0.000743862
8.39896e-05
7.19188e-05
0.000590034
4.19135e-05
0.000726049
0.000607378
0.000713027
0.000740904
0.000126051
8.6499e-05
0.000596777
0.000277033
0.00014053
0.000314629
0.000522681
0.000492662
0.000644394
3.39851e-05
0.000154809
0.000431443
5.51136e-05
0.00024402
3.63984e-05
0.00018551
0.000765802
4.72636e-05
6.94316e-05
0.000741319
0.000112128
0.000126311
0.000164254
0.000655692
0.000437101
0.000869491
0.000241105
3.87696e-05
0.00016372
0.000590031
0.000151148
0.000751608
0.000200934
0.000145294
7.47928e-05
9.10789e-05
0.000115293
9.39332e-05
4.8386e-05
3.55337e-05
0.000786432
5.27389e-05
0.000496
0.000451454
0.000743266
0.000579832
0.000151186
0.000299795
0.000130908
0.000207903
7.31631e-05
0.000615172
8.67513e-05
0.000165315
0.000530286
0.000410637
0.000185293
0.000506026
0.000130186
0.00148032
0.00071478
0.000669337
3.54651e-05
0.00020647
0.000581526
4.69217e-05
0.000120189
6.40167e-05
0.000170356
0.0001791
0.000197404
8.43671e-05
0.000124911
0.00017267
0.000165939
0.000939904
0.000210789
0.00013292
0.000137698
3.47578e-05
7.99976e-05
0.000150477
7.76529e-05
4.13628e-05
0.000463672
0.00016973
0.000132337
0.000160954
0.00039134
0.000192333
8.44566e-05
0.00018219
4.73865e-05
0.000685802
0.000452749
0.000124395
4.80893e-05
0.000116491
0.00018916
0.000616478
0.000147353
0.000408438
0.000148734
0.000229242
0.000126966
0.000158426
7.85283e-05
0.000154986
0.00013006
0.000354057
8.42668e-05
3.13126e-05
0.000787685
0.000126466
0.000163694
0.00013285
0.00067077
3.84349e-05
7.97269e-05
2.95858e-05
0.000119085
0.000816465
0.000170964
0.000304809
8.33537e-05
0.000430368
0.000151563
0.000114078
4.21593e-05
0.000231367
8.85914e-05
0.000887279
0.000199982
0.000113058
0.00087417
0.000488595
4.33621e-05
0.000126047
0.000149996
0.000737213
5.60756e-05
0.000128913
3.641e-05
7.79022e-05
0.000172347
0.000649879
0.00124493
5.59862e-05
0.000496967
0.000608101
0.00043261
7.33482e-05
0.000127518
0.000132313
0.000646838
0.000989047
3.67768e-05
7.39672e-05
4.18212e-05
0.000126277
0.000337092
4.43303e-05
3.2385e-05
0.000166147
9.10182e-05
0.000154787
0.000197334
0.000447575
3.81061e-05
3.5432e-05
0.000145952
4.43958e-05
8.78409e-05
0.000607111
0.000622725
0.00118309
0.00033934
3.60966e-05
0.000838856
0.000102048
0.000186683
0.000638587
7.74131e-05
0.000100506
0.000191857
0.000471798
0.0013457
0.00024469
3.95284e-05
0.00017712
0.000134626
0.000777426
0.000140781
0.000153823
0.000111144
0.000622636
0.000252817
0.000108016
0.000213101
0.000140986
5.80061e-05
4.87888e-05
0.000604954
6.83289e-05
0.000169876
5.7166e-05
0.000785629
0.00016123
3.6169e-05
0.000258647
0.00018524
0.000111984
7.91137e-05
0.000161675
6.22778e-05
0.000410382
7.75501e-05
0.000150627
3.64499e-05
0.000169557
3.36682e-05
0.000532808
0.00091001
0.000518263
0.000277309
0.000570864
6.25691e-05
0.000118869
0.000547825
6.81032e-05
3.66252e-05
6.6163e-05
0.000362661
3.91541e-05
6.91764e-05
0.000174163
0.000134631
3.77271e-05
4.43944e-05
8.67963e-05
0.000214158
0.000265892
8.30479e-05
0.000127959
0.000193131
7.44265e-05
0.000155176
5.65438e-05
0.000244532
6.86654e-05
9.45896e-05
0.000109641
0.000203584
0.000170834
0.000269504
0.000659052
0.000114209
0.000169528
4.43324e-05
3.67687e-05
0.000170293
0.00027317
0.000164363
0.000558896
0.000250079
7.55647e-05
0.00017711
0.000220096
4.80072e-05
0.000690091
0.000148633
0.000133553
4.17029e-05
3.89381e-05
0.000147437
0.000139676
0.000360655
0.00051814
0.000430616
4.70571e-05
0.000246784
0.000843089
4.7943e-05
0.000146293
0.000450158
3.41733e-05
0.000150348
0.000299219
0.000637133
0.000181264
4.03283e-05
6.0152e-05
3.53187e-05
4.40493e-05
3.73477e-05
4.84332e-05
5.66634e-05
6.72838e-05
0.000325444
0.000562258
0.00157239
7.71661e-05
5.06515e-05
7.32625e-05
0.00014882
0.000121214
6.4872e-05
0.000103337
8.09071e-05
0.000816173
0.000146877
0.000777819
0.000666873
0.000224949
6.1615e-05
0.000577565
0.000162352
9.42982e-05
0.000199543
0.000127462
0.000216566
0.000647396
4.36653e-05
0.000631246
0.000884245
0.000518829
7.95204e-05
0.00143909
0.00014514
3.49208e-05
0.000551312
0.000178052
8.68276e-05
7.4796e-05
6.18295e-05
0.000113431
0.000215097
0.000500297
0.000491757
0.000194994
4.49716e-05
0.000152423
0.000233829
0.000315876
5.50358e-05
4.90539e-05
0.000212506
0.00076249
0.000683549
0.00015077
0.000635545
4.15553e-05
5.49134e-05
0.00015091
7.75396e-05
3.38673e-05
0.000591853
0.000102412
0.00044806
0.000409575
0.000392066
0.000747726
0.000465237
0.000520922
0.000481423
0.000812376
0.00141567
8.31876e-05
7.05305e-05
0.000142157
8.06297e-05
0.000333473
5.01512e-05
0.000141834
0.000400104
3.99615e-05
0.000928431
0.000926534
0.000745461
0.000166041
4.05318e-05
0.000656035
0.000295138
3.63492e-05
0.000724023
0.000167452
0.000667568
0.000127178
3.6891e-05
0.000375742
7.38534e-05
0.000133765
0.000386887
0.000293299
0.000143073
0.000120583
0.000583881
0.000122806
4.2517e-05
7.15005e-05
6.63273e-05
4.28853e-05
0.000832496
8.12218e-05
0.00020822
0.000380576
4.41303e-05
0.000768535
0.000838679
3.99565e-05
0.000746419
0.000566868
8.36418e-05
0.000794227
0.000129574
0.000131257
0.000514776
0.000296559
0.000208177
0.000616802
4.05189e-05
3.21441e-05
0.000501637
0.000173303
0.000408994
0.000611166
3.839e-05
0.000186271
0.000167889
4.58658e-05
0.000129132
9.34923e-05
7.37071e-05
4.50165e-05
0.000148599
3.49332e-05
0.000383658
0.000325965
0.000906567
0.000715217
6.65682e-05
0.000291634
0.000677281
4.04577e-05
0.000135751
0.000130088
5.76107e-05
0.000253607
0.000784791
6.97606e-05
0.000282033
4.24324e-05
5.02413e-05
0.000157458
6.45296e-05
4.10987e-05
0.000132013
5.90776e-05
0.000145764
0.000291806
4.20378e-05
0.00064878
0.000187668
0.000724111
5.07275e-05
6.80057e-05
4.25905e-05
0.000123198
0.000159829
0.000325282
0.000202263
6.87511e-05
0.000187352
0.000150647
0.000824031
0.000152513
0.000586532
5.7038e-05
6.55129e-05
0.000175376
0.000110712
4.75311e-05
0.000687761
0.000131929
8.09755e-05
9.65774e-05
0.000182099
4.30519e-05
0.000164676
0.000759423
0.000137658
0.000196377
5.20629e-05
0.00018065
0.000314775
0.000262903
0.000680757
0.000161506
4.51814e-05
0.000185785
0.000358001
0.000111118
0.000180778
0.000123093
0.00012906
0.000422289
4.44443e-05
0.000307951
7.34207e-05
0.000474358
0.000166713
8.47342e-05
6.56036e-05
0.000309731
0.000733137
7.3983e-05
0.000117555
0.000124232
0.000130587
0.000184907
8.77914e-05
0.000164024
0.000197674
0.000356154
0.000126382
0.000302398
3.64939e-05
0.000113458
0.000236004
0.000481638
8.84754e-05
6.53187e-05
7.05582e-05
0.000142516
3.87375e-05
0.000130155
0.000185525
0.000519186
3.90392e-05
3.07169e-05
0.000353264
0.000309762
0.000107257
0.000394606
0.000613577
0.000152582
0.000182077
0.000521846
0.000604352
0.00014114
0.000140806
0.000577368
4.57707e-05
0.000189109
4.22125e-05
0.000613101
0.000341478
0.000577243
0.000115354
0.00029621
0.000162979
0.000109021
0.00065382
0.000457815
3.05269e-05
0.000245707
7.31566e-05
7.87714e-05
0.000131301
0.000161068
0.000186246
0.000143544
8.56713e-05
3.59288e-05
9.09751e-05
0.000163246
0.0007962
0.000611981
4.27139e-05
0.00059035
3.89584e-05
0.000153256
0.000148339
9.93633e-05
0.000241293
3.71722e-05
0.00013958
3.27087e-05
6.91254e-05
4.59948e-05
4.13572e-05
0.000124948
4.31797e-05
0.000192192
0.000398229
5.60103e-05
8.19241e-05
0.000192007
0.000326011
0.000128773
6.2235e-05
7.0031e-05
5.10591e-05
0.000156521
0.000154886
7.38588e-05
0.0001347
0.000153813
8.82341e-05
0.000564299
8.17396e-05
8.55294e-05
4.76311e-05
4.48074e-05
0.000132386
0.000128103
0.000148343
0.00078501
3.37333e-05
0.000128108
4.60589e-05
3.81251e-05
8.30073e-05
0.000212555
5.4814e-05
0.000152241
0.000360943
4.69131e-05
0.000157977
0.00076867
3.541e-05
6.95675e-05
3.65189e-05
5.82547e-05
0.00011127
0.000163312
0.000149424
0.000829423
0.00091556
8.52904e-05
5.39905e-05
0.00012542
0.000332929
0.000140291
0.000404232
0.000384174
0.000501632
9.49344e-05
0.000317808
0.000348514
0.000261998
0.000325216
0.000117271
0.000143951
0.000432655
4.07054e-05
8.43656e-05
0.00086954
6.9529e-05
8.66603e-05
3.79051e-05
0.000193467
0.000202524
7.77277e-05
0.000275267
0.000472106
8.02795e-05
0.000153247
0.000119093
0.00014567
6.29203e-05
8.93952e-05
0.000834961
0.000308538
0.000380123
0.000529799
0.000722439
0.000318061
0.000143328
6.90422e-05
6.08184e-05
4.3972e-05
3.44782e-05
6.40664e-05
0.000758966
8.15335e-05
0.000139543
7.43583e-05
0.000406721
7.31671e-05
0.00010746
3.89695e-05
0.000359915
0.000173989
4.31637e-05
0.00054263
0.000392849
0.00027948
0.000122078
0.000197064
0.000572763
0.000749846
0.000159658
3.97968e-05
8.49001e-05
0.00058953
0.000114348
0.000149569
4.05593e-05
0.000128903
4.09913e-05
0.000498008
4.42766e-05
0.000173442
5.83692e-05
0.000165561
2.98681e-05
0.000159376
0.000230398
0.000114792
0.000562066
0.000169677
8.75527e-05
2.97825e-05
0.00013157
6.73109e-05
8.26429e-05
3.55854e-05
0.000705054
0.000141649
0.000730321
0.000129739
8.40154e-05
8.09064e-05
0.000185495
0.000267693
0.000643639
9.58997e-05
6.78054e-05
3.33287e-05
4.55151e-05
3.28188e-05
0.000155587
0.000121185
0.000182785
4.65758e-05
0.000923883
0.000119609
0.000126963
7.12893e-05
0.000183067
0.000268316
0.000183727
0.000458336
0.000918247
0.000130256
8.34726e-05
0.000659921
0.000123686
9.21498e-05
0.000769349
0.00037152
5.60254e-05
0.00171531
0.00038995
0.000164642
7.40845e-05
0.000242177
0.000635219
4.59379e-05
0.000237968
0.000579009
6.14928e-05
7.82271e-05
0.000124695
5.3639e-05
0.000819378
0.000132938
4.0764e-05
0.000231311
0.000132792
0.000199335
3.96613e-05
8.63542e-05
9.2698e-05
0.000169346
6.51566e-05
0.000139476
0.000143438
0.000134756
0.000166724
4.13882e-05
3.48017e-05
0.000720036
0.000153546
0.000481177
5.82629e-05
0.000139856
4.60301e-05
0.000265521
0.00012723
0.000280736
0.00140785
4.89558e-05
0.000917141
6.58908e-05
0.000144182
7.37849e-05
3.37346e-05
0.000206401
0.000121258
8.05956e-05
3.55724e-05
0.000151554
0.00019031
0.00011971
0.000751164
0.000353151
0.000133689
3.39875e-05
4.78664e-05
0.000266832
9.97781e-05
0.000101734
0.000490775
3.72922e-05
0.000208825
7.88509e-05
0.000363793
3.55048e-05
4.63312e-05
5.27004e-05
4.84913e-05
0.000798182
9.59069e-05
0.000199824
8.23007e-05
0.000210387
0.000229377
8.71766e-05
0.000101917
0.000112533
0.000696309
0.000235877
5.878e-05
4.11003e-05
3.67053e-05
0.000173373
0.000183783
0.000225612
8.2726e-05
0.000208711
0.000243092
0.00014897
6.57757e-05
0.000122152
0.000161513
0.000846887
7.37962e-05
0.000372903
6.88226e-05
0.000507142
0.000139306
0.000149286
5.10737e-05
0.000165783
0.000177867
8.3631e-05
7.73002e-05
6.81879e-05
0.000586751
0.000202025
0.00063792
3.61203e-05
3.98961e-05
5.1967e-05
0.000141181
0.000111283
8.82837e-05
0.000118824
3.78175e-05
0.000515942
9.81947e-05
8.09951e-05
3.06267e-05
0.000131624
0.000203284
7.35379e-05
6.64653e-05
0.000154966
0.000103923
0.000170531
0.000146396
3.74096e-05
4.41034e-05
4.98273e-05
4.8416e-05
0.000165336
3.52798e-05
5.19364e-05
0.000376885
4.26521e-05
0.000365493
0.000170771
0.000134302
7.96227e-05
2.92894e-05
0.000181129
6.52123e-05
3.44911e-05
0.000146677
0.000106804
6.14927e-05
0.000175213
4.00142e-05
0.000147649
7.56259e-05
0.000101782
5.59611e-05
7.36086e-05
4.57618e-05
0.00016987
3.3426e-05
0.000136332
4.21204e-05
0.000627974
8.65149e-05
0.000152249
0.000261853
0.000129628
0.000176095
5.33042e-05
0.000195559
0.000252592
0.00042508
4.37869e-05
0.000171255
3.80469e-05
5.51262e-05
0.000172795
4.76608e-05
3.90699e-05
0.000820611
0.000144948
0.000309403
6.02786e-05
4.00391e-05
9.22314e-05
0.000124875
0.000399431
0.000163741
0.000234666
5.98221e-05
0.000131394
4.71334e-05
0.000128121
0.000164639
0.000634098
0.000576063
0.000129779
3.82399e-05
0.000118711
5.37811e-05
9.01341e-05
0.000148154
3.20694e-05
0.000170772
4.57747e-05
0.000590826
3.8744e-05
9.30057e-05
0.000137453
0.000748825
0.0001942
7.28151e-05
0.000582153
0.000716847
8.52793e-05
0.000205617
0.000128316
0.000985317
0.000941495
0.000178265
0.000127026
0.000229216
0.000138879
5.37731e-05
0.0001392
8.70172e-05
9.16233e-05
5.75298e-05
0.000563385
0.000107359
0.000438702
0.000960156
7.16466e-05
0.00018733
0.000122739
0.000284675
4.92602e-05
9.26237e-05
0.000196675
0.000355091
0.000585041
0.000128605
0.000863167
8.29812e-05
0.000177491
6.68434e-05
0.000147339
0.00022464
0.000166143
0.000142637
7.21051e-05
5.96494e-05
7.75088e-05
0.000102695
0.000184664
0.000127395
5.57625e-05
0.000518972
4.44257e-05
0.000155687
4.34877e-05
0.000141752
4.00191e-05
0.00023823
6.8367e-05
0.000220982
0.000544579
0.000263922
0.000350397
0.000545679
0.000234199
0.000510504
0.00010333
0.000198437
0.000172577
9.19807e-05
0.000189122
3.31716e-05
4.67781e-05
3.80205e-05
0.000809355
5.26511e-05
0.000138825
0.000816528
6.83359e-05
4.36845e-05
0.000140374
5.03972e-05
0.000743256
4.81416e-05
3.96216e-05
0.000132887
6.63916e-05
3.85907e-05
3.89263e-05
0.00012765
0.000147854
0.00016526
0.000469023
6.16088e-05
0.000474123
4.64692e-05
0.000167694
0.000922597
6.90878e-05
0.000772072
0.00029739
0.000128277
0.000140334
0.000285096
0.00013916
0.000205307
0.000863922
5.70444e-05
0.000168638
0.000155239
0.000141113
0.000183443
5.74831e-05
0.00059006
0.000779824
0.000151114
0.000442919
0.000141801
0.000540519
4.29486e-05
3.74337e-05
0.000535739
0.000152679
0.000147129
0.000133083
4.32066e-05
0.000369563
5.37674e-05
0.000160998
0.000175728
0.000128606
0.000191043
0.000168544
0.000358355
0.000679375
0.000132354
9.43039e-05
0.000514622
4.95021e-05
0.000201541
9.03497e-05
7.39724e-05
0.00019772
0.000516009
0.000190527
0.000148846
0.000122203
0.00012758
0.000355845
0.000854137
0.000153832
4.08836e-05
3.46052e-05
3.96464e-05
0.000403696
0.00027054
7.69323e-05
0.000642927
0.000351556
0.000309141
0.000109533
7.44837e-05
0.000190783
4.62843e-05
0.000137107
0.000245659
9.90451e-05
0.00116619
0.000157372
3.14504e-05
9.13725e-05
0.000153657
0.000161363
0.000156313
7.72423e-05
0.000472442
0.000321747
0.00082301
0.00012108
4.29932e-05
7.04449e-05
0.000757568
0.000293277
0.000337529
0.000529913
0.000130013
9.29241e-05
4.11247e-05
0.000860776
0.000358594
0.000392865
0.000306893
0.00084779
0.000161437
0.000118469
4.49353e-05
0.000827373
0.000121193
0.000110287
0.0005644
7.08996e-05
4.19408e-05
0.000104502
3.7654e-05
8.40604e-05
7.17576e-05
0.000144496
0.000206466
6.88845e-05
7.47702e-05
5.53051e-05
0.00014807
0.000219266
0.000578891
0.000186991
5.3829e-05
7.19113e-05
0.000298895
0.000224815
0.000174632
0.000148541
8.40639e-05
7.01506e-05
0.00018703
0.000177102
0.000181506
3.91086e-05
0.000354862
0.000129024
0.000277864
7.4124e-05
0.000161897
0.000231684
4.65273e-05
0.000138679
0.000148987
0.0001972
5.26489e-05
0.000203444
0.000240098
0.000336777
0.000800216
0.000132101
0.000113805
3.33644e-05
0.000211639
0.000735315
0.000118073
0.000264703
0.000503463
8.04812e-05
3.93012e-05
0.000186221
0.000328275
0.000132273
6.70351e-05
4.13991e-05
3.66529e-05
4.21844e-05
0.000541383
7.0142e-05
0.00011582
0.00018082
3.1533e-05
0.000837115
0.000731469
0.000279435
0.000131602
3.27362e-05
7.81359e-05
2.93519e-05
0.000399969
0.000115495
0.000142794
0.000493072
0.000164208
0.000240565
0.000294958
5.55416e-05
6.42961e-05
0.000121494
4.1829e-05
4.95306e-05
0.000136739
7.34463e-05
0.000616196
3.36144e-05
8.87072e-05
0.000153128
0.000101435
0.000183994
3.14795e-05
5.4473e-05
4.57238e-05
6.72663e-05
0.000135835
0.000105439
7.09428e-05
0.000153433
3.61453e-05
0.000574536
0.000430459
0.000144576
0.000128685
8.52773e-05
0.000168411
0.00014575
0.000534375
0.000729645
0.000165186
0.000136897
7.22767e-05
0.000777628
0.000681083
0.000123879
3.46128e-05
0.000229697
7.91406e-05
4.02673e-05
0.000128883
0.000731843
0.000102049
8.82978e-05
5.70841e-05
0.000104391
0.00039527
5.8801e-05
6.12069e-05
9.80773e-05
0.00046561
0.000280524
0.000423387
0.000140894
0.000494303
0.00017258
0.000175942
0.000184545
0.000350244
0.000308505
7.49442e-05
0.000184033
8.00637e-05
0.000821115
0.000565589
8.65482e-05
0.000325342
0.00013777
5.34403e-05
0.000269602
0.000492249
4.29562e-05
0.000221433
0.000117978
3.45632e-05
0.000428497
0.00051769
0.000377627
0.00048286
0.000164606
0.000125207
3.04952e-05
0.00043195
0.000530338
0.000141641
4.85132e-05
0.000176278
0.000154548
3.95577e-05
3.45044e-05
0.000535266
0.000535984
0.000180059
5.36892e-05
7.67024e-05
0.000101346
4.36576e-05
0.00027945
8.73007e-05
8.66892e-05
0.000722375
3.09963e-05
6.10015e-05
0.000125057
4.24884e-05
0.000100749
0.000160059
4.42798e-05
0.000160894
9.25743e-05
0.00019739
0.000545026
0.000126105
0.000348369
4.78287e-05
0.000441887
3.88936e-05
0.000399242
4.44798e-05
4.56482e-05
4.06346e-05
0.000162466
4.22246e-05
0.000132573
0.000137924
0.000102591
0.000155375
0.000568737
0.000272312
0.000504357
6.66614e-05
4.28708e-05
0.000162922
7.43312e-05
0.000117011
3.91724e-05
0.000182132
0.000237091
0.000490431
0.000161941
0.000212911
0.000715626
0.000233694
0.000243294
0.000217564
0.000144278
6.24381e-05
0.000805088
0.000689396
8.21025e-05
0.000120549
0.000334154
0.000446051
0.000152259
0.000105928
0.000172949
0.000682303
0.000180383
0.000115077
6.60244e-05
6.52848e-05
0.000110803
4.99115e-05
0.000156926
0.000365312
0.000186788
0.000160677
0.000163525
8.66029e-05
3.85121e-05
6.02975e-05
0.000219674
0.000159961
7.81231e-05
0.000128973
0.000492441
0.000351078
7.19278e-05
0.000160724
4.30421e-05
7.90839e-05
0.000594453
0.000177741
0.000115419
0.00027338
0.000606846
0.000206863
0.000535169
0.00051061
4.22005e-05
0.00076292
0.000150386
0.000549229
4.95001e-05
5.33851e-05
0.000613415
4.39981e-05
0.000259764
0.000145624
0.000229259
0.000174925
0.000685172
0.000133736
0.000139264
0.000315976
0.000715374
7.04883e-05
4.26313e-05
0.000772845
0.000192427
0.00025501
0.000491895
4.44028e-05
6.27773e-05
0.000141666
3.55065e-05
0.000404768
0.000214926
4.40836e-05
7.73463e-05
8.22083e-05
5.67527e-05
0.000131396
0.000127011
0.000207215
8.59958e-05
0.000399099
0.000698696
9.58617e-05
0.00012975
0.00011894
0.000109567
4.64843e-05
0.000563315
0.000672459
0.000843251
0.000910655
0.000129439
0.000156937
0.000165605
7.34037e-05
0.000252425
0.000623144
0.000664406
4.49951e-05
0.000181178
0.000438066
0.000165643
0.000949415
0.000351548
0.000512468
0.000687469
9.49861e-05
9.33081e-05
3.43061e-05
0.000129239
0.000282413
0.00012191
4.64775e-05
0.000190604
3.99935e-05
6.69844e-05
3.90834e-05
0.000738714
3.37988e-05
7.84313e-05
0.000533668
9.92105e-05
0.00013233
0.000461849
0.000735905
7.98217e-05
0.000148106
3.98331e-05
0.00015855
0.000543229
7.25182e-05
0.000127341
0.00075839
0.000795796
0.000358863
6.31293e-05
0.000404115
0.000221832
0.000346557
0.00013909
4.71571e-05
0.000165329
7.80027e-05
5.00295e-05
7.32691e-05
0.000646316
5.58055e-05
0.000415708
0.000113064
4.23158e-05
5.33376e-05
0.000155906
5.91195e-05
0.000151662
4.71572e-05
0.000132227
0.000149642
0.000462498
0.000199487
0.000127422
0.000158803
0.000368855
3.50565e-05
0.000116629
6.21257e-05
0.000132337
0.000422216
7.90154e-05
0.000244731
4.73941e-05
0.000384815
5.37234e-05
0.000251689
0.000118956
0.000529071
0.000137945
0.000124968
7.90734e-05
6.30544e-05
5.57385e-05
0.000873103
0.000136082
0.000664886
0.000182981
4.79464e-05
3.32861e-05
4.28726e-05
0.000130069
0.000120093
0.000137273
7.78567e-05
0.000652234
7.78286e-05
0.000213732
6.84896e-05
0.000132728
4.18637e-05
0.000116618
0.000163702
0.000160832
0.000145299
3.5884e-05
0.000489275
8.25634e-05
0.000787975
0.000167926
4.37245e-05
6.42945e-05
0.000228893
0.000275464
0.000163674
7.18635e-05
0.000303912
0.000265795
0.000117524
6.03633e-05
0.000467817
0.000230603
0.000398697
0.00010071
0.000199625
4.05081e-05
7.47902e-05
0.000197336
0.000126998
4.6618e-05
0.00012306
5.31005e-05
3.92703e-05
0.000146912
4.94318e-05
4.21189e-05
0.0005359
7.86113e-05
0.000257867
0.000128004
0.000317071
8.09638e-05
0.000697392
8.06274e-05
7.73885e-05
0.000144368
0.000367701
9.0711e-05
0.00015712
0.000290652
0.000213003
0.000132065
0.000131712
0.000153078
0.000823737
0.000163731
5.52581e-05
0.000171209
7.49168e-05
7.24424e-05
0.000132137
0.000186833
0.000115585
0.000177375
0.000145603
0.000132042
0.000125394
0.000400991
5.44958e-05
0.000605884
5.95047e-05
8.31894e-05
0.000322139
0.000722592
0.000291711
0.000165864
9.03123e-05
4.1148e-05
3.32338e-05
0.000226869
0.000160366
0.000117946
9.88931e-05
0.000199535
0.000589733
0.000149999
5.75605e-05
6.58214e-05
0.000823144
0.000863289
0.000265108
0.000132936
0.000146414
0.000133876
0.000175077
7.1791e-05
0.000123619
4.4465e-05
4.28768e-05
0.000164582
4.59748e-05
0.000185967
5.09617e-05
0.000123244
0.000667507
0.000273455
0.000185936
3.84746e-05
0.000108509
0.000652761
0.000197526
6.47175e-05
0.000291503
4.54084e-05
4.13999e-05
0.000126749
0.000132651
4.05321e-05
0.000832114
0.000648851
7.6548e-05
0.000145718
0.000342252
0.000252905
0.000535817
6.5368e-05
9.98036e-05
0.00019104
0.0002186
0.000130532
0.000504788
0.000136627
3.64806e-05
0.000165193
0.000141429
0.000145175
7.07588e-05
0.000123322
0.000126295
0.000116563
0.000228875
0.000658554
7.2569e-05
8.71156e-05
0.000301712
4.84034e-05
5.64103e-05
0.000214758
0.000555167
0.000579406
0.000181867
0.000187413
5.84674e-05
8.10544e-05
0.000177552
0.000554276
0.000436805
3.71111e-05
0.000186443
0.000177387
3.99376e-05
6.20062e-05
0.000157264
0.000217069
0.000291521
0.000159244
0.000132065
0.000491264
0.000123256
0.000699351
7.17814e-05
0.000157375
0.000472801
0.000314241
7.07716e-05
0.000110209
0.000319956
0.000365594
0.000513838
8.36608e-05
0.000176308
0.000439525
0.000141774
0.000104903
0.000262492
7.71699e-05
8.53751e-05
8.61393e-05
7.14967e-05
0.000169023
0.00095445
2.88596e-05
0.000216286
7.15165e-05
0.000127716
0.000116421
0.000465791
0.000260363
0.000122437
0.000140057
3.84579e-05
0.000157671
0.000143249
0.000168966
4.27958e-05
0.000322269
0.000422934
0.000214686
0.000120828
3.87291e-05
0.000783796
0.000109746
0.000332625
4.31772e-05
0.000182587
0.000180488
5.53147e-05
4.57601e-05
0.000172525
0.000230389
0.000441745
0.000271063
0.000578769
0.000310348
0.000202748
0.000445426
4.07801e-05
0.000260843
0.000311378
3.79743e-05
0.000292406
3.72822e-05
0.000155263
4.23983e-05
0.000100413
7.68169e-05
5.81575e-05
7.5396e-05
3.87281e-05
0.000153474
0.000115472
0.000267451
0.000145615
4.10426e-05
0.000101949
0.000309295
3.36235e-05
0.000191989
0.000132453
0.000133753
5.24641e-05
0.000145222
8.8447e-05
7.56165e-05
2.70457e-05
0.000123419
0.000180557
0.000257348
0.000716432
0.000148836
0.000214027
0.000316227
0.000129406
0.000850622
3.06137e-05
0.000595285
5.5643e-05
4.60631e-05
5.07952e-05
0.00079175
0.000337663
0.000149266
0.000364487
0.000130646
0.000151401
0.000127436
6.88719e-05
0.000336934
0.000249013
0.00054213
4.72796e-05
4.40114e-05
0.000131293
0.000252159
0.000112052
0.000111777
0.000148296
6.23789e-05
0.000205909
6.16522e-05
0.000679647
3.46056e-05