/*--------------------------------*- C++ -*----------------------------------*\
| =========                 |                                                 |
| \\      /  F ield         | OpenFOAM: The Open Source CFD Toolbox           |
|  \\    /   O peration     | Version:  2406                                  |
|   \\  /    A nd           | Website:  www.openfoam.com                      |
|    \\/     M anipulation  |                                                 |
\*---------------------------------------------------------------------------*/
FoamFile
{
    version     2.0;
    format      ascii;
    arch        "LSB;label=32;scalar=64";
    class       volScalarField;
    location    "30";
    object      p;
}
// * * * * * * * * * * * * * * * * * * * * * * * * * * * * * * * * * * * * * //

dimensions      [0 2 -2 0 0 0 0];

internalField   nonuniform List<scalar> 
59516
(
0.271753
0.0153025
0.0150836
0.00197898
0.286001
0.306639
0.272619
0.23846
0.073973
-0.000717423
0.280654
0.274341
0.182238
0.271011
0.252697
0.0750183
0.273344
0.28173
0.277653
0.269737
0.276788
0.237954
0.272622
0.166514
0.0659026
0.160146
0.0927511
0.280238
0.275415
0.251695
0.289449
0.280357
0.118769
0.00162026
0.277938
0.223169
0.0642145
0.284597
0.276089
0.0134761
0.0156658
0.280808
0.27703
0.00148975
0.275421
0.0414662
0.276412
0.276983
0.28773
0.278524
0.293827
0.0013154
0.120716
0.243916
0.276141
0.275117
0.282122
0.00166361
0.166214
0.279204
0.00163677
0.21775
0.167248
0.273664
0.00329006
0.275826
0.00850051
0.227849
0.288076
0.275386
0.232391
0.269976
0.0454844
0.271201
0.229096
0.274919
0.276324
0.0297935
0.186053
0.278311
0.00143167
0.278149
0.277156
0.105962
0.27816
0.268948
0.0741572
0.269858
0.119924
0.28168
0.284279
0.234029
0.263887
0.230651
0.231563
0.287423
0.251707
0.239416
0.277898
0.179632
0.0804304
0.147326
0.246406
0.0094697
0.0454173
0.00668796
0.00646884
0.0697278
0.126056
0.187663
0.286432
0.0866215
0.234829
0.286979
0.260468
0.210769
0.032751
0.244522
0.24465
0.0331284
0.246505
0.242249
0.0603049
0.244151
0.284888
0.278128
0.260667
0.282385
0.293509
0.262727
0.259877
0.0159679
0.228789
0.263389
0.264002
0.225534
0.285285
0.255947
0.148554
0.267533
0.0879387
0.110555
0.238822
0.0873249
0.268564
0.265837
0.275865
0.270838
0.292611
0.264496
0.268374
0.0031025
0.260952
0.00316714
0.262648
0.00547828
0.0040686
0.263611
0.264516
0.253555
0.268484
0.268212
0.252704
0.00440151
0.208868
0.0310684
0.0739091
0.265627
0.266586
0.00428159
0.26279
0.262815
0.257487
0.25853
0.257897
0.277
0.21225
0.277769
0.0147423
0.209429
0.260675
0.129946
0.155591
0.259755
0.260659
0.0819149
0.113542
0.0631432
0.261816
0.258809
0.000445871
0.1287
0.265643
0.258735
0.26703
0.0212076
0.149087
0.14859
0.00403773
0.256693
-0.000557662
0.0623112
0.2404
0.181041
0.21748
0.129668
0.266516
0.0034226
0.171864
0.249323
0.0428999
0.279987
0.248074
0.218625
0.249382
0.0932823
0.264937
0.0211151
0.199033
0.249574
0.249534
0.265714
0.25734
0.00452341
0.252939
0.21169
0.171163
0.180768
0.256969
0.0377031
0.252444
0.127765
0.257591
0.135299
0.142223
0.257651
0.256077
0.0514251
0.255753
0.0549225
0.261318
0.130268
0.125732
0.00329928
0.262407
0.261635
0.258978
0.0131389
0.257627
0.261349
0.0135233
0.258707
0.261708
0.154995
0.26049
0.261167
0.075468
0.254843
0.191973
0.251212
0.173711
0.253113
0.254792
0.254903
0.222748
0.0576938
0.200736
0.0682049
0.252011
0.163479
0.273266
0.217098
0.0726895
0.166821
0.253487
0.223188
0.163684
0.252043
0.253157
0.0937349
0.257045
0.181745
0.167823
0.250354
0.248514
0.27251
0.261019
0.00778163
0.255252
0.224231
0.254366
0.250642
0.231136
0.0303256
0.234881
0.125342
0.225637
0.220551
0.251821
0.22419
0.223929
0.0607846
0.0982818
0.216937
0.228075
0.159578
0.0210675
0.22391
0.225458
0.0802643
0.0660035
0.225115
0.155783
0.145895
0.275638
0.227273
0.241106
0.288132
0.226537
0.0633036
0.127915
0.239921
0.136616
0.243659
0.181811
0.227845
0.279925
0.241174
0.170958
0.242881
0.0239768
0.268608
0.167816
0.242835
0.194562
0.250826
0.255208
0.216276
0.27936
0.24879
0.218845
0.216278
0.244184
0.0514524
0.103911
0.248521
0.0965365
0.254401
0.244491
0.192513
0.256738
0.258443
0.038693
0.120248
0.171145
0.0523384
0.0080654
0.28621
0.290817
0.210612
0.0346578
0.264015
0.279121
0.23538
0.0345931
0.242915
0.242285
0.264584
0.289895
0.247083
0.085314
0.0836013
0.241681
0.176164
0.205547
0.241264
0.243295
0.236814
0.188753
0.22963
0.265189
0.00131394
0.27987
0.0106119
0.0203807
0.243169
0.00778398
0.279405
0.242379
0.0149971
0.0143985
0.0573984
0.2372
0.28479
0.240367
0.285254
0.0120702
0.0748723
0.237102
0.238204
0.250947
0.234439
0.19033
0.251409
0.252965
0.060831
0.147385
0.25308
0.251111
0.250016
0.0412964
0.0238906
0.0259597
0.134199
0.218128
0.0112983
0.0378541
0.0697165
0.00496775
0.236286
0.233643
0.240676
0.240278
0.253721
0.240091
0.179143
0.233164
0.153216
0.240914
0.196638
0.244838
0.239113
0.223049
0.135772
0.251204
0.279952
0.0246287
0.245597
0.175131
0.082849
0.178477
0.199734
0.247482
0.245212
0.241235
0.239293
0.0800701
0.23906
0.180934
0.030211
0.202437
0.290978
0.153043
0.064629
0.241714
0.194174
0.238299
0.142681
0.238542
0.0637766
0.239835
0.00422389
0.00799934
0.234988
0.277025
0.232363
0.213151
0.0396014
0.217016
0.214931
0.044397
0.225192
0.2149
0.209345
0.20867
0.101038
0.217749
0.211367
0.139299
0.208985
0.0889406
0.206327
0.280406
0.206272
0.293087
0.207585
0.256206
0.0867116
0.0998232
0.177741
0.00434999
0.00314477
0.194438
0.222889
0.22777
0.170393
0.212233
0.0521241
0.234558
0.232081
0.281645
0.149132
0.130021
0.18169
0.231686
0.0225075
0.225624
0.272152
0.00492061
0.312683
0.233285
0.0670051
0.268187
0.192606
0.274416
0.215983
0.184536
0.206367
0.236092
0.188196
0.236363
0.264133
0.0769285
0.0772567
0.285487
0.00322146
0.234581
0.22431
0.285124
0.222073
0.26811
0.0010771
0.226611
0.0872943
0.00051554
0.165336
0.0415223
0.282872
0.243532
0.0714702
0.00289199
0.251493
0.132766
0.224955
0.250108
0.224077
0.264895
0.000850697
0.10755
0.0705118
0.224181
0.0380625
0.15919
0.234579
0.138761
0.232752
0.00268673
0.237977
0.0667746
0.233572
0.17854
0.119501
0.111167
0.236057
0.0023765
0.0454965
0.223072
0.0827746
0.171725
0.199404
0.126586
0.121659
0.22233
0.221675
0.25934
0.22074
0.120493
0.22257
0.220102
0.115674
0.103035
0.00100837
0.221875
0.221091
0.223065
0.0982784
0.212983
0.0114759
0.224176
0.00600178
0.236394
0.000802411
0.0263438
0.18644
0.129432
0.0116106
0.224717
0.283264
0.00356352
0.0186969
0.220686
0.216825
0.0356991
0.219197
0.220191
0.143395
0.0424306
0.236598
0.227817
0.0151065
0.222812
0.222895
0.15836
0.218312
0.292081
0.22346
0.285283
0.188872
0.287715
0.191772
0.0248898
0.26734
0.00585723
0.00657716
0.289385
0.288064
0.193888
0.22269
0.282641
0.279396
0.132502
0.10586
0.176956
0.0646387
0.189573
0.122904
0.279762
0.192985
0.195501
0.214683
0.20173
0.289953
0.180231
0.205885
0.0559585
0.206693
0.149684
0.0196599
0.206568
0.205628
0.206892
0.15082
0.0900722
0.29819
0.125394
0.128951
0.154434
0.250885
0.207501
0.0653139
0.18985
0.154791
0.0148119
0.0684973
0.209903
0.245429
0.162725
0.15095
0.209092
0.208988
0.0805698
0.258189
0.22007
0.139065
0.216967
0.170023
0.228794
0.214072
0.0110533
0.0277455
0.192717
0.290578
0.148288
0.137638
0.00348297
0.158706
0.213608
0.118144
0.225184
0.219754
0.0894901
0.123559
0.223033
0.267883
0.236655
0.17388
0.289933
0.222809
0.0364873
0.23337
0.292737
0.0233705
0.122264
0.251567
0.208366
0.0778384
0.201583
0.0250305
0.0188022
0.173311
0.208911
0.289962
0.23889
0.208291
0.207785
0.214775
0.0907381
0.0115644
0.0663735
0.236869
0.289344
0.152948
0.211497
0.137191
0.0587842
0.207568
0.0626488
0.208562
0.27341
0.124011
0.00243106
0.243207
0.0960522
0.215547
0.0190411
0.0771974
0.156317
0.246725
0.213258
0.215278
0.290641
0.247091
0.0405903
0.292633
0.00358588
-0.000857201
0.214584
0.0434403
0.112561
0.155995
0.108022
0.29015
0.2106
0.242612
0.206121
0.0468356
0.168631
0.0534911
0.126751
0.240657
0.20538
0.20772
0.205317
0.0730953
0.261852
0.191393
0.0651862
0.206601
0.204841
0.204152
0.188448
0.206482
0.0206893
0.0130211
0.205296
0.00365631
0.120014
0.138567
0.011445
0.146164
0.172659
0.270442
0.193907
0.23261
0.17737
0.127905
0.207617
0.209676
0.209819
0.108718
0.208878
0.262544
0.0177436
0.00279244
0.135109
0.114772
0.00316893
0.208387
0.205033
0.206649
0.0195369
0.0318256
0.204224
0.250609
0.0308996
0.0401237
0.290164
0.281484
0.211178
0.0412375
0.222654
0.193711
0.228385
0.174153
0.201455
0.28413
0.174337
0.173708
0.0867977
0.175633
0.285105
0.0343292
0.199083
0.174241
0.102711
0.219657
0.227413
0.0881767
0.218234
0.247643
0.221643
0.173925
0.274815
0.0531201
0.173487
0.241263
0.0161218
0.187922
0.0700819
0.170456
0.092152
0.284175
0.178187
0.00324634
0.171524
0.170532
0.182672
0.172582
0.15804
0.00484226
0.0436892
0.218739
0.185654
0.150662
0.221192
0.108156
0.248533
0.0251808
0.184764
0.0801053
0.166025
0.222086
0.016421
0.188112
0.184045
0.286311
0.0264086
0.228627
0.2536
0.0419878
0.180382
0.0436861
0.143907
0.208865
0.227002
0.17994
0.178651
0.177965
0.290068
0.0327257
0.225836
0.106798
0.020088
0.18101
0.232122
0.193075
0.192177
0.0340843
0.195544
0.197404
0.100107
0.25655
0.288603
0.270754
0.143417
0.197349
0.00417992
0.278673
0.176142
0.194452
0.158772
0.196801
0.195155
0.200668
0.220762
0.20073
0.227345
0.195772
0.267234
0.26922
0.194842
0.216592
0.19378
0.227223
0.228055
0.0140652
0.124626
0.149739
0.0137641
0.208291
0.197743
0.210451
0.105115
0.00651054
0.110219
0.193784
0.214105
0.21428
0.121551
0.141694
0.211485
0.28693
0.199324
0.0086217
0.0203003
0.237431
0.200978
0.115702
0.156858
0.198021
0.125559
0.188938
0.189473
0.189199
0.158893
0.216871
0.188678
0.291188
0.025452
0.188395
0.291415
0.189102
0.255424
0.0429475
0.187006
0.115635
0.0877919
0.189105
0.188226
0.113533
0.115599
0.187151
0.0968771
0.185073
0.186019
0.193883
0.107671
0.183402
0.0325348
0.186567
0.186015
0.121852
0.183955
0.184583
0.271917
0.178425
0.14837
0.180274
0.182401
0.124139
0.0594511
0.106284
0.279492
0.184932
0.186053
0.154022
0.0609585
0.280043
0.156955
0.160143
0.155822
0.154267
0.0119299
0.00622831
0.0512386
0.101369
0.18599
0.185494
0.0060294
0.23754
0.174219
0.0774376
0.280013
0.150462
0.149595
0.282431
0.152911
0.229001
0.0470059
0.15061
0.222354
0.20453
0.151095
0.110121
0.0410373
0.15174
0.237533
0.209949
0.115333
0.0552565
0.0882411
0.158953
0.091502
0.237131
0.0875116
0.156357
0.167796
0.286295
0.119488
0.0109965
0.0587988
0.0891174
0.153049
0.235415
0.166466
0.166275
0.0217846
0.130054
0.00853584
0.169012
0.168953
0.0902264
0.0132644
0.206233
0.0405202
0.260806
0.190074
0.186341
0.278423
0.088363
0.223423
0.234008
0.150483
0.0165201
0.186456
0.275771
0.184346
0.181736
0.15309
0.0780462
0.185712
0.0180337
0.277271
0.239058
0.121122
0.185508
0.176144
0.236694
0.270325
0.225014
0.0313062
0.0790221
0.182493
0.191841
0.218989
0.118174
0.214814
0.281384
0.181107
0.217253
0.0706638
0.188493
0.138466
0.0848952
0.188073
0.188491
0.18729
0.217208
0.1835
0.0426727
0.184552
0.0778676
0.21305
0.0213728
0.182486
0.216738
0.0040009
0.0243186
0.178734
0.0662561
0.0465396
0.0703213
0.0595625
0.107201
0.0400398
0.181506
0.179681
0.0324144
0.178534
0.179946
0.215502
0.0102237
0.181412
0.173481
0.00235673
0.0257644
0.170156
0.0966989
0.00370796
0.0133072
0.170801
0.12006
0.176541
0.273684
0.0178964
0.215355
0.157274
0.175711
0.172351
0.154492
0.202514
0.184387
0.178212
0.161391
0.27696
0.240656
0.176256
0.179524
0.253174
0.0365485
0.238029
0.202595
0.118646
0.112073
0.179073
0.0797592
0.0207697
0.164223
0.169589
0.292106
0.141277
0.170007
0.167499
0.198002
0.0790323
0.167693
0.168765
0.266391
0.169285
0.0747305
0.172833
0.172726
0.136083
0.122977
0.149967
0.172435
0.169617
0.172408
0.113941
0.144727
0.176433
0.152183
0.113233
0.120402
0.121116
0.121435
0.141536
0.170687
0.145443
0.280114
0.254995
0.0439814
0.101656
0.106239
0.143145
0.141191
0.145676
0.190176
0.141418
0.14144
0.0842395
0.106058
0.204045
0.0833478
0.0354085
0.144838
0.143613
0.146431
0.259098
0.0145151
0.00715899
0.099394
0.155233
0.152076
0.238245
0.036347
0.143623
0.280328
0.0419266
0.153332
0.153528
0.185352
0.00187835
0.151162
0.151982
0.150982
0.164469
0.00519587
0.00782492
0.165074
0.164875
0.161447
0.163252
0.169836
0.159869
0.0786922
0.0171812
0.285251
0.209472
0.165608
0.163977
0.121866
0.272025
0.263837
0.243178
0.00136356
0.243657
0.16638
0.166762
0.164767
0.165588
0.166416
0.164829
0.232439
0.136708
0.226012
0.144947
0.0779102
0.0146735
0.167589
0.122402
0.0044661
0.146722
0.172806
0.276753
0.174263
0.116498
0.112549
0.206699
0.127277
0.170534
0.177806
0.175271
0.140153
0.151989
0.272417
0.170065
0.223804
0.0750496
0.062282
0.167806
0.0643613
0.0239006
0.173076
0.172359
0.125167
0.0844058
0.0968327
0.255714
0.171881
0.0511898
0.00611114
0.15292
0.0292027
0.119425
0.165996
0.209239
0.152357
0.0268523
0.261526
0.0160714
0.253167
0.133075
0.239082
0.157345
0.0453771
0.167727
0.150019
0.0938223
0.113431
0.168324
0.16868
0.262208
0.211204
0.225361
0.268007
0.21776
0.209078
0.20952
0.23072
0.164531
0.163379
0.127008
0.0631754
0.0725195
0.0186736
0.240343
0.127698
0.160759
0.158922
0.159663
0.0455969
0.156778
0.227156
0.00519185
0.156232
0.161214
0.186767
0.287673
0.228256
0.226883
0.157288
0.0130916
0.239491
0.159485
0.196594
0.168104
0.201118
0.214398
0.145879
0.236275
0.162979
0.211164
0.167582
0.0211338
0.228892
0.236927
0.130319
0.283297
0.0728287
0.0835872
0.0730599
0.1447
0.2223
0.0591936
0.195942
0.0606533
0.163873
0.163884
0.139372
0.170533
0.153334
0.251337
0.202735
0.151326
0.208561
0.15892
0.288726
0.234211
0.158751
0.153877
0.202142
0.24665
0.155611
0.0277188
0.195277
0.25105
0.152403
0.138061
0.157029
0.160052
0.161889
0.162755
0.00387295
0.0730147
0.164069
0.282707
0.162716
0.131735
0.218439
0.129172
0.111988
0.251855
0.282865
0.229619
0.229767
0.231753
0.036307
0.151936
0.184582
0.281239
0.268493
0.283309
0.287037
0.268166
0.134195
0.130762
0.281836
0.0577233
0.135111
0.208234
0.13185
0.229206
0.214212
0.281511
0.260477
0.228936
0.0726052
0.134359
0.149071
0.142928
0.150867
0.232125
0.209314
0.149803
0.145062
0.147389
0.0166957
0.246772
0.0429361
0.15153
0.181079
0.157375
0.153177
0.147186
0.0432972
0.154773
0.135289
0.153974
0.152986
0.237043
0.138785
0.0783556
0.0478054
0.221091
0.108067
0.107338
0.215155
0.0892518
0.0507231
0.044138
0.0339786
0.211533
0.0673814
0.138048
0.174426
0.0333953
0.243216
0.244294
0.0953625
0.0925602
0.265109
0.143065
0.0163991
0.168392
0.0339616
0.205933
0.0323164
0.0495614
0.0204274
0.0104747
0.0803188
0.238621
0.0476431
0.025843
0.0268683
0.150076
0.0309502
0.147949
0.245006
0.152159
0.149434
0.210993
0.0472913
0.155129
0.153727
0.0129528
0.0730614
0.239606
0.155117
0.155683
0.213338
0.245786
0.232579
0.244727
0.055926
0.272908
0.281645
0.155243
0.156193
0.013341
0.254051
0.280538
0.153202
0.114804
0.15253
0.0186861
0.23345
0.00707719
0.0469556
0.143413
0.188493
0.145031
0.117553
0.241354
0.107699
0.227631
0.1437
0.144801
0.0705709
0.13624
0.122957
0.276859
0.241233
0.203432
0.144013
0.246889
0.0785788
0.0460733
0.065013
0.0146284
0.144546
0.243498
0.143557
0.0148048
0.0121995
0.23682
0.145724
0.0686756
0.255262
0.146091
0.146622
0.237631
0.0212335
0.235381
0.147278
0.150488
0.151226
0.159648
0.15158
0.230896
0.226667
0.151481
0.263838
0.162944
0.226604
0.188056
0.149459
0.244499
0.146227
0.116134
0.266481
0.166552
0.148608
0.0122862
0.152271
0.151098
0.112549
0.145098
0.206842
0.0578008
0.241413
0.13831
0.218075
0.230667
0.148753
0.163704
0.0107778
0.0683931
0.0559387
0.14696
0.242027
0.0204346
0.144495
0.26687
0.0552481
0.215726
0.0526664
0.14535
0.180033
0.143272
0.00147453
0.194735
0.242378
0.112671
0.0373863
0.0562114
0.109038
0.110777
0.118035
0.239057
0.0113133
0.0378763
0.123775
0.12466
0.225445
0.207312
0.125886
0.131336
0.119871
0.188116
0.268078
0.249304
0.162159
0.0312406
0.222749
0.221484
0.0950908
0.0502216
0.201491
0.0900298
0.123649
0.211041
0.16214
0.166298
0.140892
0.119615
0.130485
0.130192
0.128479
0.215626
0.133052
0.182819
0.263583
0.242287
0.208457
0.23343
0.120739
0.0877545
0.240267
0.133985
0.211582
0.160177
0.219204
0.274878
0.125189
0.00724995
0.135224
0.137409
0.144748
0.238554
0.134692
0.141755
0.165537
0.144544
0.165271
0.137487
0.00181472
0.164062
0.14225
0.14119
0.00528995
0.209735
0.270391
0.163431
0.17176
0.127054
0.143277
0.142049
0.0584167
0.268167
0.14384
0.14339
0.145463
0.0364489
0.239024
0.155317
0.128876
0.163758
0.0833855
0.109649
0.224429
0.133013
0.129096
0.104419
0.129478
0.141432
0.087301
0.133182
0.238687
0.152117
0.0759262
0.237624
0.238779
0.115459
0.116888
0.0980806
0.133428
0.0583638
0.136929
0.0642853
0.290793
0.220343
0.178835
0.0832185
0.0223002
0.249882
0.0200422
0.0230511
0.13258
0.00200106
0.133056
0.032201
0.180246
0.0923974
0.13164
0.205157
0.181361
0.132765
0.0277398
0.0227838
0.176105
0.130554
0.0401003
0.133813
0.132168
0.151793
0.138956
0.273824
0.212076
0.249602
0.177639
0.206124
0.132818
0.21121
0.179319
0.133123
0.251459
0.277692
0.204946
0.199391
0.133158
0.231177
0.129554
0.25024
0.17379
0.209406
0.0205036
0.042271
0.197042
0.0110701
0.241532
0.290449
0.253434
0.0128248
0.0566443
0.0199426
0.236864
0.248056
0.0067748
0.181449
0.125291
0.230748
0.18676
0.124697
0.134089
0.0329308
0.200787
0.205006
0.0547033
0.273614
0.249111
0.143703
0.126822
0.285442
0.12586
0.279045
0.203199
0.200991
0.127183
0.260192
0.112992
0.257923
0.238211
0.262653
0.00738383
0.130425
0.271501
0.0682696
0.280961
0.131221
0.264552
0.0982576
0.0973474
0.103901
0.274823
0.221327
0.261463
0.219989
0.110916
0.271173
0.271852
0.0988946
0.273286
0.115131
0.212188
0.109022
0.221132
0.141273
0.0945948
0.134058
0.0918414
0.135092
0.021741
0.116795
0.106866
0.250875
0.103699
0.203977
0.149966
0.180068
0.114419
0.0405713
0.0850889
0.205626
0.10911
0.250322
0.073395
0.11884
0.258357
0.210263
0.120859
0.230443
0.119135
0.108885
0.106654
0.140054
0.114052
0.00217195
0.0404075
0.0435988
0.109624
0.110163
0.208543
0.0493901
0.0295815
0.103744
0.069031
0.248438
0.223773
0.0359545
0.121983
0.182945
0.115746
0.123299
0.0987446
0.121115
0.223211
0.120615
0.171027
0.000612246
0.244903
0.167859
0.282679
0.124647
0.120591
0.0230985
0.25121
0.0920271
0.125315
0.212172
0.129545
0.125729
0.118089
0.11649
0.0331708
0.128691
0.123144
0.123999
0.118519
0.139761
0.120695
0.244664
0.0999527
0.12592
0.247771
0.282366
0.176326
0.103635
0.198571
0.123523
0.11288
0.107326
0.0583466
0.100433
0.0920608
0.268977
0.102082
0.140157
0.137815
0.035489
0.100549
0.24409
0.115312
0.118179
0.166153
0.156176
0.113103
0.183979
0.140365
0.116546
0.113617
0.129968
0.114266
0.242542
0.232748
0.103477
0.0997255
0.110304
0.045918
0.116616
0.140201
0.207693
0.113715
0.117902
0.107433
0.119693
0.245502
0.0993118
0.236865
0.117631
0.11358
0.104984
0.114109
0.0882847
0.110529
0.0903255
0.0789881
0.112277
0.26558
0.128447
0.263182
0.167355
0.0754737
0.0261315
0.0977067
0.2446
0.1149
0.113573
0.0835776
0.115192
0.0831284
0.246919
0.245138
0.0870761
0.0875926
0.0915127
0.0919573
0.19145
0.147848
0.089744
0.0902494
0.0680901
0.111704
0.091707
0.0919539
0.0535472
0.0520157
0.00262344
0.0921956
0.193635
0.0333002
0.14804
0.0955599
0.0981802
0.102994
0.132245
0.241966
0.116868
0.0842498
0.0133037
0.0209835
0.149921
0.0966922
0.0918552
0.126808
0.034761
0.0231665
0.097975
0.243602
0.109196
0.111293
0.0525158
0.103267
0.275762
0.105954
0.103944
0.146403
0.105765
0.109564
0.243665
0.110077
0.124817
0.0209116
0.00450284
0.185958
0.0402699
0.0234062
0.113652
0.0935779
0.243949
0.11178
0.253989
0.254336
0.10851
0.242378
0.00795578
0.104763
0.111746
0.037587
0.112728
0.254635
0.282783
0.0533178
0.249866
0.11135
0.206536
0.229902
0.111834
0.116687
0.252438
0.109763
0.274201
0.111101
0.135802
0.120949
0.27501
0.249504
0.136987
0.11406
0.110608
0.215895
0.135341
0.216245
0.249681
0.245444
0.114563
0.0137905
0.114996
0.106875
0.214595
0.0866755
0.215362
0.0456596
0.229446
0.000409203
0.244982
0.136503
0.0960237
0.105668
0.248278
0.103301
0.244295
0.236653
0.247808
0.0153381
0.00368895
0.217899
0.00396294
0.103219
0.134239
0.184477
0.100965
0.237194
0.155755
0.241864
0.0985283
0.239646
0.195218
0.214157
0.283941
0.14068
0.268122
0.0980757
0.0112891
0.155544
0.0113453
0.281169
0.0494929
0.149856
0.214604
0.108297
0.102935
0.015721
0.037345
0.104937
0.220895
0.247422
0.00724903
0.254971
0.136333
0.273439
0.0624296
0.223298
0.10479
0.195677
0.249392
0.19276
0.17952
0.204752
0.225461
0.242056
0.177123
0.0461999
0.20997
0.107039
0.107108
0.10679
0.0646342
0.267118
0.268391
0.212201
0.116914
0.237229
0.245172
0.116781
0.107799
0.106675
0.102827
0.267161
0.0518979
0.100578
0.161596
0.10309
0.20982
0.192407
0.123854
0.0611927
0.104166
0.102249
0.146464
0.27978
0.170749
0.102394
0.238954
0.072918
0.0559809
0.262408
0.0053408
0.0725622
0.0156969
0.0725907
0.0727173
0.24015
0.100929
0.194498
0.238476
0.126379
0.107572
0.249211
0.0766982
0.245852
0.0965084
0.099754
0.10005
0.214018
0.177352
0.245266
0.219651
0.234504
0.0857244
0.150956
0.249818
0.231256
0.107858
0.230222
0.0747355
0.210537
0.0501972
0.213178
0.102921
0.188917
0.0909503
0.140396
0.23084
0.0724752
0.23176
0.0567298
0.111531
0.0890873
0.0336113
0.0936881
0.0878943
0.124796
0.245322
0.0918431
0.0435422
0.0198905
0.215201
0.0218286
0.233441
0.00429615
0.0960464
0.0529632
0.0950537
0.231301
0.23557
0.0492391
0.265852
0.0356985
0.00249246
0.213455
0.190794
0.0938204
0.231603
0.0709525
0.0216015
0.121393
0.00272627
0.15591
0.204332
0.144395
0.0960868
0.278014
0.0973477
0.159731
0.213651
0.130009
0.234803
0.0937106
0.141801
0.0929096
0.147064
0.265405
0.0998873
0.0861151
0.147861
0.0935008
0.165906
0.0924826
0.0612485
0.0921838
0.26521
0.0919089
0.0882195
0.0910163
0.257704
0.116185
0.246794
0.26962
0.267497
0.183886
0.0513377
0.0669337
0.193397
0.232016
0.0246199
0.064475
0.0909607
0.0894974
0.23358
0.281348
0.00322714
0.0346355
0.0827372
0.247105
0.0352786
0.131312
0.234207
0.0886366
0.0872587
0.0883403
0.0856983
0.0886246
0.185382
0.109817
0.229535
0.0252802
0.0918998
0.0888895
0.259617
0.140397
0.254568
0.271672
0.0497914
0.0891601
0.0667383
0.257846
0.260576
0.254299
0.252629
0.12396
0.0658741
0.247832
0.0498501
0.089047
0.225441
0.0993689
0.088202
0.0699649
0.0864455
0.223354
0.221564
0.0888181
0.159577
0.0999171
0.099342
0.278567
0.0270808
0.0560316
0.0891289
0.0897826
0.0086972
0.089605
0.0684384
0.0949104
0.21779
0.0897009
0.0181704
0.0965424
0.0083542
0.260644
0.252504
0.125154
0.092123
0.0947344
0.10987
0.081157
0.0736412
0.111723
0.0780648
0.0768934
0.0674398
0.0782246
0.26244
0.230754
0.131532
0.214109
0.0824094
0.221775
0.0655981
0.214041
0.174039
0.204
0.0798078
0.150448
0.0195938
0.222109
0.242269
0.0912713
0.286536
0.0825133
0.0844942
0.143154
0.0229834
0.110332
0.0852973
0.220968
0.0645656
0.0910608
0.0885687
0.0619668
0.179818
0.0621059
0.0612071
0.0625521
0.0634897
0.0621925
0.216579
0.217327
0.224506
0.213526
0.040613
0.062721
0.256051
0.0685633
0.0395853
0.0679547
0.0673757
0.0419944
0.0683186
0.0666771
0.0676496
0.0854231
0.082119
0.15299
0.0938688
0.106102
0.137811
0.118425
0.109159
0.0417572
0.0859939
0.0852515
0.0646718
0.0696366
0.0835434
0.16836
0.018402
0.202802
0.278227
0.155692
0.266564
0.0841612
0.0200295
0.0216221
0.0215781
0.114561
0.0227032
0.0810595
0.0833105
0.248032
0.285968
0.143501
0.0751852
0.25254
0.12918
0.161213
0.0826529
0.163912
0.0827072
0.169426
0.0694519
0.0389802
0.0461591
0.0787412
0.00151972
0.0849995
0.250625
0.062998
0.199867
0.0265855
0.0760834
0.0783324
0.23222
0.106864
0.169962
0.120021
0.168526
0.0772277
0.0159704
0.253693
0.0929458
0.156472
0.249236
0.249306
0.0790652
0.0674597
0.080316
0.122404
0.0795238
0.165278
0.231653
0.12538
0.0807997
0.0814438
0.130067
0.149795
0.18781
0.0807704
0.082505
0.0830039
0.250817
0.0818059
0.083238
0.0313848
0.072941
0.0402789
0.0156733
0.0394047
0.024974
0.0714054
0.0733424
0.0127562
0.0586177
0.0121784
0.247333
0.0748961
0.0435758
0.247914
0.184206
0.112484
0.0651602
0.0781301
0.0131535
0.0761578
0.1756
0.120509
0.0748393
0.254891
0.0384384
0.00398344
0.0757323
0.293599
0.118935
0.158629
0.0145035
0.076181
0.0753888
0.187442
0.0145321
0.117704
0.152878
0.069881
0.0758038
0.0781239
0.285666
0.263099
0.255564
0.114242
0.0398154
0.0162595
0.0145214
0.257576
0.014657
0.0492175
0.0790743
0.281715
0.0926964
0.0805063
0.228238
0.256566
0.175827
0.166226
0.0794798
0.077089
0.248063
0.208613
0.222478
0.0245382
0.203571
0.052758
0.10828
0.0436431
0.0767123
0.121979
0.262617
0.122814
0.12082
0.272424
0.0721741
0.249831
0.0547986
0.164159
0.19613
0.262058
0.122817
0.253799
0.068328
0.0578358
0.0356784
0.0726537
0.2546
0.0554861
0.0508742
0.149263
0.0569229
0.0572926
0.0612151
0.0210506
0.11235
0.0737603
0.0873732
0.0523976
0.0670376
0.0602133
0.0423936
0.257026
0.171272
0.0553573
0.0757509
0.290729
0.143982
0.0725197
0.155612
0.0732296
0.137347
0.0713674
0.25526
0.0536809
0.287562
0.0479342
0.0427585
0.150742
0.0565574
0.166065
0.144149
0.176513
0.0241072
-0.00129488
0.0328373
0.0273281
0.0477985
0.0177808
0.0526973
0.0488981
0.0482689
0.270543
0.0329473
0.257669
0.257973
0.0384272
0.243774
0.0766761
0.25116
0.231124
0.0543224
0.246443
0.0545318
0.0020789
0.175871
0.110625
0.23703
0.230271
0.120855
0.0196681
0.0351187
0.178345
0.196212
0.0559619
0.0542905
0.0714688
0.200639
0.220594
0.157692
0.0204869
0.015107
0.0709685
0.182055
0.202389
0.22394
0.270977
0.0728219
0.237873
0.215322
0.156335
0.288436
0.110456
0.143313
0.184755
0.068601
0.260205
0.0127059
0.106386
0.214768
0.191584
0.229556
0.258586
0.0231217
0.106154
0.071011
0.127037
0.0719986
0.117753
0.130547
0.125925
0.0908208
0.0714687
0.070562
0.0684581
0.0925979
0.269356
0.100349
0.0899126
0.0960965
0.252947
0.219027
0.0219507
0.259778
0.0711809
0.0683065
0.144335
0.0604308
0.0611303
0.084085
0.0223642
0.0599908
0.0644735
0.0156825
0.0568025
0.0558705
0.0610096
0.0796912
0.0666992
0.0673278
0.25722
0.0458653
0.0544398
0.0414687
0.0730148
0.0407958
0.0384511
0.0694216
0.0172794
0.0186413
0.0986307
0.0419367
0.0373187
0.258877
0.0698439
0.0548472
0.0503277
0.0201507
0.0457286
0.0690549
0.0712374
0.063859
0.11145
0.154911
0.180295
0.132125
0.0190093
0.0639283
0.0621898
0.0640957
0.209245
0.0967509
0.0706956
0.277212
0.0627516
0.0961548
0.0622956
0.0643758
0.172474
0.179416
0.0619658
0.102968
0.23186
0.230519
0.0971177
0.0626735
0.256305
0.0626945
0.134919
0.0631395
0.282479
0.0635285
0.206211
0.0621463
0.172191
0.21339
0.250654
0.225184
0.0607084
0.216911
0.152591
0.171743
0.0624741
0.0271151
0.109689
0.155281
0.0624573
0.0618897
0.0627567
0.109674
0.0568967
0.271929
0.188959
0.0253067
0.257195
0.0596733
0.249273
0.0252087
0.054772
0.058145
0.208717
0.0625885
0.176875
0.269568
0.055599
0.0588097
0.0941673
0.264086
0.20885
0.207752
0.059719
0.220459
0.18479
0.0582831
0.0968943
0.0818862
0.0573868
0.0575138
0.17669
0.223488
0.0633467
0.0993471
0.0804865
0.254288
0.248754
0.253591
0.0623747
0.255854
0.0438305
0.195548
0.229826
0.126294
0.173786
0.0623715
0.261323
0.0319235
0.0353788
0.0379286
0.104451
0.0381574
0.112353
0.110232
0.0975149
0.121597
0.202708
0.0996827
0.149754
0.00938169
0.0435205
0.0846202
0.142287
0.0600561
0.160391
0.233791
0.11487
0.198263
0.189557
0.0119176
0.0379476
0.170299
0.0442023
0.00034788
0.260085
0.210143
0.247529
0.0360638
0.25971
0.0932322
0.245233
0.0890651
0.249578
0.0878988
0.255773
0.0410383
0.221253
0.0575967
0.18443
0.0902191
0.191057
0.0930723
0.296797
0.0585188
0.0777725
0.203009
0.185099
0.0563041
0.121598
0.185251
0.0582899
0.164441
0.0244032
0.163933
0.0540727
0.0523249
0.0786215
0.259387
0.0584258
0.0383465
0.0576884
0.0591104
0.105659
0.212033
0.0663095
0.0595719
0.105056
0.105462
0.00472059
0.251374
0.0576693
0.0751588
0.137288
0.193262
0.00170935
0.059449
0.257359
0.0494547
0.0483573
0.150497
0.0293175
0.0431523
0.229794
0.0601723
0.254486
0.109981
0.0391039
0.0478046
0.12317
0.0456106
0.0577096
0.0835734
0.0550393
0.0563352
0.0554985
0.024479
0.144832
0.0538924
0.0748
0.0521327
0.0684106
0.0762718
0.053695
0.0505348
0.250749
0.0544696
0.0480457
0.050789
0.256993
0.0581656
0.049718
0.0668598
0.183402
0.0719112
0.053267
0.0592161
0.0519973
0.00304887
0.254674
0.0729251
0.052365
0.0390584
0.263763
0.0967157
0.0275777
0.0506425
0.0107652
0.105433
0.253236
0.0500644
0.251508
0.0466878
0.0315456
0.25655
0.252744
0.262376
0.0378361
0.25826
0.0158784
0.0189539
0.051229
0.027639
0.0238
0.0617454
0.185684
0.257653
0.245776
0.267794
0.242905
0.14387
0.103904
0.0401112
0.0479949
0.0554224
0.136183
0.153984
0.093282
0.210376
0.0717173
0.0521486
0.16708
0.0651395
0.244028
0.243893
0.0301013
0.245778
0.154842
0.220169
0.263921
0.0489174
0.198601
0.156894
0.167391
0.156351
0.0495778
0.11803
0.247437
0.265765
0.0586337
0.240723
0.263589
0.252767
0.20531
0.0424465
0.267438
0.0448278
0.233296
0.233864
0.0444567
0.0492085
0.040003
0.137399
0.259342
0.0994915
0.155757
0.0408986
0.174099
0.25967
0.0523618
0.207272
0.0507324
0.211662
0.244134
0.267937
0.242705
0.0831733
0.0918754
0.10954
0.199923
0.0524433
0.226363
0.227055
0.0508789
0.213853
0.118542
0.0507252
0.156031
0.217648
0.0498555
0.2475
0.042376
0.223056
0.272177
0.0469415
0.130326
0.0475897
0.160062
0.049678
0.024366
0.259754
0.162622
0.0784452
0.10647
0.136021
0.128807
0.0206006
0.121732
0.119574
0.246621
0.167035
0.275529
0.233767
0.0648557
0.25244
0.0258744
0.0267491
0.176323
0.148397
0.214052
0.213353
0.0283089
0.0245834
0.117894
0.255897
0.201626
0.23345
0.272715
0.027755
0.204358
0.163955
0.205219
0.212272
0.152373
0.260767
0.217079
0.222023
0.0602942
0.0649798
0.271404
0.0278568
0.0247088
0.0455661
0.237008
0.256783
0.260514
0.0443108
0.0423919
0.183816
0.0434231
0.0451885
0.18982
0.266274
0.211765
0.0672079
0.24514
0.118292
0.208884
0.211011
0.267615
0.0428797
0.149515
0.150186
0.0447899
0.0423903
0.0408536
0.0432422
0.160308
0.0445575
0.266976
0.20532
0.187389
0.0444556
0.0397745
0.0853987
0.198674
0.268881
0.114983
0.103513
0.265364
0.0200481
0.0353232
0.0680742
0.106929
0.0348875
0.0442248
0.0455644
0.0825133
0.0459086
0.265139
0.266786
0.090833
0.265253
0.146694
0.0819776
0.0412405
0.0653765
0.0612793
0.0728414
0.0440652
0.0378602
0.0477217
0.0544115
0.0401176
0.0638013
0.0678573
0.199835
0.0404863
0.0437379
0.073601
0.0266678