/*--------------------------------*- C++ -*----------------------------------*\
| =========                 |                                                 |
| \\      /  F ield         | OpenFOAM: The Open Source CFD Toolbox           |
|  \\    /   O peration     | Version:  2406                                  |
|   \\  /    A nd           | Website:  www.openfoam.com                      |
|    \\/     M anipulation  |                                                 |
\*---------------------------------------------------------------------------*/
FoamFile
{
    version     2.0;
    format      ascii;
    arch        "LSB;label=32;scalar=64";
    class       surfaceScalarField;
    location    "30";
    object      phi;
}
// * * * * * * * * * * * * * * * * * * * * * * * * * * * * * * * * * * * * * //

dimensions      [0 3 -1 0 0 0 0];

oriented        oriented;

internalField   nonuniform List<scalar> 
113358
(
-1.54251e-05
3.23938e-05
-2.24282e-05
5.4599e-06
2.3233e-05
3.36505e-07
-6.31575e-06
-1.72562e-05
-2.66892e-05
2.04972e-05
-3.31576e-06
9.50792e-06
-2.40678e-05
-6.601e-06
2.40487e-05
6.61957e-06
-1.73004e-05
9.52699e-07
3.01785e-05
-1.38318e-05
1.36167e-05
-1.41965e-05
-7.96057e-06
8.54023e-06
-7.37213e-06
3.54165e-05
-2.55257e-05
-2.52397e-06
-8.55796e-07
-3.34763e-05
1.83057e-05
1.60213e-05
8.8053e-06
5.65069e-07
1.86296e-05
-2.79988e-05
8.10565e-06
4.06407e-06
-1.18503e-05
-3.21458e-07
-6.08615e-06
2.2599e-05
-2.08872e-05
4.37467e-06
-1.55345e-05
-1.0775e-07
-2.94015e-07
1.59348e-05
-4.66875e-05
3.66201e-06
1.28152e-05
3.02144e-05
1.34033e-06
-2.88091e-06
1.53935e-06
2.15966e-06
-1.50779e-06
2.12488e-05
-2.18907e-05
1.16236e-06
3.36216e-07
1.27178e-05
-1.42131e-05
1.00252e-05
3.26366e-05
-2.72949e-05
-1.53679e-05
-1.96179e-05
1.09253e-05
6.88799e-06
1.80565e-06
1.47536e-05
-3.84845e-05
3.28418e-05
-9.11122e-06
2.39199e-05
3.28743e-06
2.69358e-05
-5.41399e-05
1.96145e-05
4.4686e-07
-4.73344e-07
-1.95883e-05
-1.14863e-05
4.58186e-05
4.24707e-06
-3.85659e-05
-4.10937e-07
-4.44579e-05
4.7571e-05
-2.70543e-06
-1.00762e-06
4.86864e-06
3.44348e-07
-4.20769e-06
-4.6262e-05
2.03122e-05
-3.78811e-06
2.97405e-05
-2.39577e-05
5.58991e-06
1.97981e-05
-1.41601e-06
-1.03406e-05
1.00469e-05
-1.86176e-07
4.79081e-07
-2.04386e-06
-7.64807e-06
5.57002e-06
4.12172e-06
1.98494e-05
-3.08745e-07
7.30359e-08
-2.52836e-06
2.52092e-06
6.62895e-09
-5.41726e-06
-2.58643e-05
2.74288e-05
3.85254e-06
5.28667e-06
-3.18871e-07
-8.28072e-06
3.31201e-06
2.0618e-05
-1.15061e-06
1.10015e-06
-2.05672e-05
-2.85456e-05
1.28421e-05
-2.98731e-06
1.86931e-05
1.75935e-05
2.01175e-06
-1.98977e-05
2.91616e-07
-3.37752e-05
8.2365e-06
-1.17853e-05
3.73355e-05
-3.67784e-08
-2.43883e-06
2.47641e-06
9.30552e-06
1.09424e-05
1.83344e-06
-2.20791e-05
7.25441e-06
-3.82479e-05
3.13806e-05
-3.87799e-07
-3.37598e-06
4.71192e-06
3.52235e-05
-3.65578e-05
-2.00851e-05
1.67292e-05
-2.08257e-05
2.41793e-05
8.61306e-07
-2.36123e-05
-3.11151e-05
5.38645e-05
-5.97262e-07
4.30098e-05
-1.18543e-05
-3.05569e-05
5.48177e-06
-1.92686e-05
-7.82794e-06
-5.52651e-06
3.26351e-05
-5.02407e-07
-2.66072e-05
-2.46061e-06
1.70883e-05
-1.14559e-05
-3.17153e-06
-3.05737e-05
-1.15156e-05
4.14904e-05
-1.02048e-05
3.42387e-05
1.0075e-06
-2.50413e-05
-3.40823e-05
4.27142e-06
-5.53751e-06
3.53478e-05
3.45495e-05
1.5014e-05
-4.58818e-05
-3.68116e-06
2.32186e-05
-1.61782e-05
1.5555e-06
-8.59589e-06
-1.15097e-05
3.44138e-06
1.1505e-05
-3.43956e-06
3.04868e-05
-7.84286e-06
1.71901e-05
-3.98304e-05
-1.04088e-05
-3.90499e-05
4.20866e-05
7.36778e-06
-2.16425e-06
8.10206e-06
-9.25801e-06
3.31947e-06
2.87969e-05
-1.2618e-05
2.04055e-05
-3.65859e-05
-2.0895e-05
4.65602e-06
3.67567e-05
-2.05197e-05
1.31639e-05
-6.49151e-06
5.24297e-06
-1.19182e-05
3.52456e-05
-8.97008e-06
-2.72734e-05
1.00242e-06
-1.26617e-05
-1.47372e-05
7.81556e-06
1.95832e-05
-3.0451e-05
-4.82856e-06
1.4536e-05
2.07432e-05
-3.17544e-06
3.64183e-06
-4.66416e-07
3.29865e-05
-5.50715e-06
-3.22745e-05
4.79358e-06
-1.46232e-05
-4.04807e-05
1.53336e-05
3.97698e-05
-4.3086e-06
4.58081e-06
-3.63551e-05
3.60786e-05
2.02665e-06
2.1491e-05
2.11877e-06
-2.56368e-05
4.01391e-06
-3.32068e-06
-6.92817e-07
-4.38309e-09
4.88732e-08
1.26704e-05
-1.27077e-05
6.20483e-06
-3.01179e-05
3.25898e-05
-8.67585e-06
1.03972e-05
-2.4387e-05
2.29253e-05
-8.93649e-06
8.23734e-06
-8.48822e-06
2.4441e-07
-1.83548e-05
-6.13916e-06
3.19412e-05
-7.44706e-06
-2.65558e-07
4.54026e-06
-4.27467e-06
7.04751e-06
-2.91953e-05
9.50697e-06
1.26397e-05
4.22276e-05
-3.30875e-06
-2.89475e-06
-3.60296e-05
-2.69809e-05
-3.16292e-05
3.45909e-05
2.40152e-05
3.09709e-06
-3.58246e-05
5.74721e-06
3.53889e-05
-2.81738e-05
-9.20033e-07
-6.29547e-06
1.27929e-07
2.03024e-07
-1.67056e-05
1.63643e-05
7.03117e-06
7.47119e-06
1.23221e-05
-2.68257e-05
8.75208e-06
-4.59989e-06
3.6086e-06
-7.7594e-06
-1.58353e-05
-1.06512e-05
2.71441e-05
-6.5796e-07
-2.12312e-05
2.60551e-05
-1.84229e-05
1.35988e-05
-3.44324e-06
6.70966e-09
3.43792e-06
-3.00352e-05
3.07642e-05
-3.1256e-05
2.4411e-05
-3.20561e-06
-1.0668e-06
-6.83572e-07
4.95621e-06
6.27827e-05
-6.07371e-05
1.86741e-06
-3.90521e-06
-1.26946e-05
3.9675e-06
1.23399e-05
-3.60953e-06
-4.55615e-06
2.57662e-05
-2.84555e-05
7.24807e-06
-1.7781e-05
-2.12099e-05
3.13776e-05
7.61254e-06
8.89719e-06
-1.26045e-05
1.82419e-05
-1.45369e-05
7.19544e-06
2.27403e-05
-4.75461e-05
1.76118e-05
-3.33484e-05
1.18854e-05
1.43675e-05
7.09282e-06
8.09983e-07
-2.79716e-05
2.27242e-05
4.43934e-06
-2.71133e-05
2.51927e-06
9.65376e-06
1.49401e-05
2.33794e-05
-2.01187e-05
7.02363e-06
-1.02761e-05
1.4729e-06
1.3007e-05
-1.42274e-05
-2.44807e-07
1.77831e-05
-2.41383e-06
-2.78946e-06
-1.25801e-05
1.56639e-05
1.79467e-05
-1.53162e-05
-1.82935e-05
2.61752e-06
-8.42608e-07
4.7564e-06
-6.52969e-06
5.23079e-06
-3.23955e-07
-4.90954e-06
4.86813e-08
4.34828e-06
-4.39676e-06
-5.12862e-07
3.22977e-06
-1.43208e-05
1.16022e-05
-2.02564e-05
4.17488e-05
4.26233e-07
-2.19207e-05
4.70925e-06
-2.11959e-05
1.63793e-05
1.05034e-07
-3.40214e-06
-4.56376e-06
1.27186e-06
6.69274e-06
-6.08553e-06
-1.47997e-05
3.8074e-06
1.70803e-05
-3.13872e-06
2.07328e-05
8.8793e-06
-2.64682e-05
4.46121e-06
4.07145e-06
-1.95544e-05
1.10235e-05
-2.76719e-06
2.82235e-05
-3.22244e-05
6.76713e-06
-8.26612e-06
8.50683e-06
-2.39495e-07
1.97675e-05
-2.44321e-05
3.82393e-06
8.47485e-07
1.85286e-05
1.07147e-05
-3.2419e-05
3.17522e-06
-2.58815e-05
-1.42693e-05
7.16869e-06
3.29804e-05
-2.41674e-06
-2.21744e-05
9.39943e-07
2.36519e-05
1.39122e-05
-1.44383e-05
9.46824e-08
4.31796e-07
1.64082e-05
-2.84582e-05
-5.5886e-06
1.76333e-05
-3.84697e-06
2.88225e-07
3.55968e-06
-4.23675e-06
-1.43694e-06
2.89893e-05
-2.33142e-05
-1.3365e-05
8.37894e-06
4.27073e-05
-3.77173e-05
-9.94861e-06
2.00507e-05
-2.99178e-05
1.98108e-05
1.60022e-06
-2.48511e-05
1.98346e-05
3.41256e-06
-3.62598e-06
-8.58303e-06
3.06214e-05
-1.84135e-05
2.31285e-05
-9.98673e-06
-1.01131e-05
-3.02864e-06
-2.65337e-06
-1.27461e-05
1.82899e-05
-2.89216e-06
6.75512e-06
-3.30342e-06
-3.45255e-06
-1.07368e-06
-2.53188e-05
-6.28111e-06
3.26728e-05
-1.47598e-05
2.0632e-05
5.88373e-06
-1.17561e-05
5.11106e-06
-1.27153e-05
2.18124e-05
-1.42081e-05
-4.17018e-05
9.74205e-06
-6.91708e-07
3.26485e-05
-2.62973e-06
-4.39293e-05
3.96142e-05
6.94428e-06
4.48733e-08
-4.40533e-06
4.35511e-06
2.11691e-05
-3.24239e-05
5.91639e-07
1.0663e-05
3.74267e-05
4.25681e-06
-4.01925e-05
-1.49474e-06
1.16331e-05
1.15468e-06
-2.71219e-05
1.43283e-05
-9.36888e-06
1.29567e-05
1.4941e-05
-2.71688e-05
-2.25824e-05
1.30523e-05
3.67048e-05
6.40497e-06
3.33369e-06
-4.51169e-06
7.19739e-06
-5.51463e-06
-2.75341e-05
2.58512e-05
5.03497e-06
1.56262e-05
-7.11713e-06
-1.35453e-05
-6.7899e-06
1.47081e-05
3.0555e-05
-3.8472e-05
1.9149e-07
2.69023e-06
-2.88036e-06
-2.29844e-05
3.65371e-06
1.40715e-05
5.25779e-06
3.14857e-05
-1.68406e-05
-2.13102e-05
6.66457e-06
3.26551e-05
-8.07332e-06
-3.63216e-06
-2.09487e-05
-2.91121e-05
-4.71326e-07
-9.39263e-07
3.05203e-05
2.59527e-05
1.21938e-05
-3.63716e-05
-1.77351e-06
6.92536e-06
4.83504e-06
-1.17606e-05
1.82026e-06
-2.64865e-05
-1.74046e-07
2.48452e-05
4.22064e-05
-3.24667e-05
-3.10512e-06
-6.63828e-06
5.0668e-06
-6.99202e-07
-4.06235e-06
-3.0491e-07
-3.1451e-05
4.44961e-05
1.83112e-05
-3.13607e-05
1.8103e-05
-2.88755e-05
-2.87225e-06
1.36438e-05
-2.54225e-05
2.75764e-05
-8.95227e-07
-1.26268e-06
-3.4194e-06
1.69235e-06
1.7277e-06
3.67269e-05
-4.01087e-06
1.00991e-05
-4.28159e-05
-2.70298e-05
3.63506e-05
-3.47483e-05
1.03931e-07
2.65719e-06
1.99996e-05
-2.27636e-05
3.03921e-06
-2.93102e-06
-1.07314e-07
-1.22513e-05
-6.74957e-06
1.16291e-06
1.78369e-05
-9.16086e-06
2.31474e-05
-1.77757e-05
3.78705e-06
1.73472e-06
-5.4369e-06
3.39185e-06
3.08186e-07
-2.15867e-06
-2.02053e-06
4.18062e-06
-2.41686e-05
2.39472e-05
2.39641e-05
-2.37402e-05
4.86017e-05
-1.24088e-05
-1.0532e-05
-2.56628e-05
1.42425e-05
6.68886e-07
-4.95341e-07
-1.44179e-05
3.24797e-05
-3.96675e-05
5.47072e-06
1.71773e-06
3.48593e-06
-5.29093e-08
-3.43304e-06
-5.79111e-06
2.81355e-05
-2.70985e-05
4.74932e-06
-1.49989e-05
1.56528e-05
-1.74155e-06
1.08666e-06
-1.15661e-05
1.01389e-05
6.98468e-07
7.29444e-07
2.77941e-06
-2.16997e-05
7.72054e-06
1.12015e-05
-1.13452e-05
-1.08094e-05
2.62693e-05
-4.11462e-06
-1.62946e-05
1.59606e-05
3.00175e-07
3.27099e-08
-3.10992e-05
-3.54128e-05
3.59365e-05
-1.08796e-05
3.40862e-05
1.07525e-05
-3.3961e-05
5.74682e-06
3.09968e-05
6.21428e-06
-4.29567e-05
-1.46603e-05
6.37613e-06
1.99479e-05
-1.16636e-05
-1.50626e-08
6.84574e-08
1.18603e-05
-1.19187e-05
1.53488e-06
3.78934e-05
-5.6229e-06
-3.38071e-05
-4.35797e-06
-2.84984e-06
4.75805e-06
2.44828e-06
4.8081e-06
-4.53614e-06
-2.72328e-07
-3.95074e-06
-1.34138e-05
1.06894e-06
-2.70586e-05
3.66449e-07
-5.30827e-06
3.20003e-05
-1.63803e-05
1.47245e-05
4.42691e-07
1.21599e-06
-4.98703e-07
9.1804e-06
-1.45988e-07
-8.53459e-06
-3.26e-06
3.19612e-06
6.39239e-08
3.32039e-06
-8.31063e-07
2.16543e-05
-2.41408e-05
3.0279e-05
3.32623e-06
-2.6218e-05
-7.39155e-06
-3.35324e-06
-1.54991e-05
-1.02356e-05
1.52579e-05
-1.67695e-05
1.087e-06
4.29024e-07
7.15322e-06
-3.0296e-05
3.57898e-05
-1.26483e-05
1.22117e-05
2.56875e-06
-6.47122e-06
-8.31606e-06
-1.61573e-05
-3.79889e-05
9.39748e-06
4.47549e-05
4.10016e-08
2.92611e-06
-2.19971e-07
-2.75209e-06
1.08444e-05
-7.01635e-07
1.74656e-06
-1.18951e-05
-1.10561e-05
2.18764e-07
1.09271e-05
-9.32389e-08
2.32768e-05
3.97618e-06
-2.93911e-05
2.13502e-06
-3.02229e-05
-1.74906e-05
3.89193e-05
8.79506e-06
-7.48658e-06
3.16068e-06
-6.99614e-06
6.27484e-06
2.62623e-05
-3.3714e-05
1.17777e-06
-2.37876e-05
-2.41805e-05
9.906e-06
3.80478e-05
-3.10738e-06
3.39048e-06
-2.81704e-07
1.84381e-05
1.05824e-05
-2.22189e-06
-2.68118e-05
-7.39975e-07
-4.37813e-06
-2.8895e-05
3.40168e-05
-2.02007e-05
5.11263e-06
4.92335e-05
-3.41423e-05
2.63634e-05
-1.96948e-05
-1.01505e-05
3.48111e-06
2.92798e-06
-8.53411e-08
-2.8398e-06
4.45451e-05
-2.1814e-05
3.06265e-06
-2.57904e-05
1.04283e-05
-1.11926e-05
1.36843e-06
-6.07249e-07
2.54656e-06
2.41641e-06
-4.96376e-06
-1.64055e-05
-2.14378e-05
4.2998e-06
3.35518e-05
-1.2616e-05
2.58358e-07
1.30561e-05
-7.06468e-07
2.18266e-05
-4.52522e-05
5.55645e-07
2.28711e-05
-2.01548e-05
-2.52459e-05
3.32761e-05
1.21257e-05
-1.31649e-05
1.73991e-05
2.84213e-05
5.33837e-06
2.78234e-05
-2.91841e-05
-3.97776e-06
2.08756e-06
1.56393e-06
-1.4027e-05
1.03727e-05
-3.27956e-05
1.4567e-05
1.16447e-05
6.58122e-06
1.49165e-05
3.93545e-06
-1.70439e-06
-1.7137e-05
-3.50368e-06
-2.68499e-05
2.79261e-06
2.7558e-05
6.49136e-06
-2.4983e-06
2.55025e-05
-2.94965e-05
-2.36166e-06
-3.91025e-08
-5.85196e-06
8.25605e-06
7.13196e-07
1.01917e-05
-3.78546e-05
2.69496e-05
-1.33615e-05
-2.69583e-05
-1.12001e-06
4.14453e-05
3.81401e-07
5.60415e-06
-5.98777e-06
9.57244e-08
-2.25508e-07
1.22397e-05
-1.21058e-05
2.5205e-06
1.57504e-05
1.3623e-05
-3.18945e-05
3.17889e-07
-1.60744e-05
1.26454e-07
1.56315e-05
4.0365e-06
-1.97559e-05
-1.50173e-05
3.07359e-05
1.44863e-05
1.78127e-05
-1.5446e-05
-1.68515e-05
2.99968e-05
1.79204e-05
-4.03583e-05
-7.55846e-06
1.47203e-07
-4.93852e-06
4.79013e-06
3.06595e-06
1.49209e-06
-2.73667e-09
-4.55317e-06
2.24009e-06
2.83323e-06
3.74585e-07
-5.44635e-06
2.87723e-06
-3.33402e-06
1.64163e-05
1.75037e-07
-3.03564e-05
1.13451e-05
1.88343e-05
5.56265e-05
5.98874e-06
-1.15866e-05
-5.00208e-05
-8.94713e-06
1.19753e-05
-2.85483e-06
-1.7415e-07
-1.53144e-05
1.46046e-05
-2.46219e-05
2.53282e-05
3.5336e-06
6.86514e-08
-3.60027e-06
1.24664e-06
9.3289e-06
-1.78229e-05
7.24831e-06
3.53451e-06
-5.34286e-06
1.80753e-06
2.56877e-05
-1.37203e-05
-6.85693e-06
-1.75637e-05
6.40716e-06
-1.62629e-05
2.74188e-05
3.24858e-05
-3.15421e-05
4.98119e-06
-5.92754e-06
1.57892e-05
5.39146e-06
-1.88651e-05
-2.31561e-06
3.00122e-06
-3.73491e-05
1.26469e-05
2.16998e-05
2.85419e-05
-5.79515e-06
4.82595e-06
4.73198e-05
-5.3091e-05
2.39539e-06
-3.20594e-05
2.4963e-06
3.31779e-05
-3.61358e-06
-2.70959e-05
-1.74742e-05
2.9254e-05
-1.20175e-05
-1.16437e-05
-1.62051e-05
3.98645e-05
-1.27885e-06
4.57789e-06
3.85311e-05
-4.18353e-05
1.46202e-06
2.76043e-05
-4.83916e-05
1.93252e-05
-1.29641e-07
9.37509e-08
1.96039e-05
-1.95644e-05
-4.05063e-05
6.768e-06
3.25505e-06
3.04926e-05
1.34005e-05
-1.34551e-05
4.64214e-06
-4.59304e-06
8.21947e-07
1.2248e-05
-1.56047e-05
2.53608e-06
-2.37467e-05
3.59214e-05
-4.52946e-06
-7.64752e-06
-3.43653e-05
2.5389e-05
1.62185e-06
7.3608e-06
-2.9329e-05
2.88293e-05
3.79412e-05
-3.7445e-05
3.14199e-05
-2.55434e-05
1.2559e-06
-7.13038e-06
-1.39709e-05
1.8077e-05
-1.09521e-05
6.84503e-06
-8.13874e-06
1.88869e-05
1.64768e-06
-1.2398e-05
-3.60785e-05
2.84849e-06
3.94726e-05
-6.24076e-06
-4.91251e-06
-2.63014e-05
3.93603e-07
3.08161e-05
2.6381e-06
-9.21893e-06
7.40315e-06
1.04946e-05
8.7125e-07
-9.981e-06
-1.38582e-06
1.0247e-05
1.94999e-05
-2.27663e-05
-6.98281e-06
-9.824e-06
1.34493e-05
2.30071e-05
-2.66292e-05
1.00161e-06
4.51315e-06
-3.83398e-05
3.28212e-05
1.81472e-05
-2.74931e-05
9.01814e-06
3.21707e-07
-3.86442e-05
-6.26928e-06
1.05459e-05
-3.4622e-06
-9.12267e-07
-2.59525e-05
3.03312e-05
-3.68851e-06
5.40207e-08
3.63268e-06
-4.96431e-06
-6.54971e-06
4.17194e-05
-3.02059e-05
5.90047e-06
-5.60935e-06
-2.98312e-07
2.7143e-07
2.29025e-07
-1.04878e-05
9.9841e-06
-1.8007e-05
1.72505e-05
3.07539e-05
5.9758e-06
3.27258e-05
-2.35899e-05
-1.51124e-05
4.96534e-06
-5.02093e-06
5.7807e-08
-4.56598e-06
5.11455e-05
-2.85733e-05
-1.80159e-05
-2.73301e-05
2.95243e-05
1.96343e-05
-2.21141e-06
2.38685e-05
1.11015e-05
-3.27591e-05
-3.12012e-05
-1.16124e-05
4.16629e-05
1.14907e-06
-5.32682e-06
4.83458e-06
4.91844e-07
3.0484e-05
-3.25341e-05
-2.42469e-07
2.28723e-06
-1.97563e-05
-1.23057e-05
1.77046e-05
1.43557e-05
-3.69148e-06
1.66123e-06
-2.09096e-05
2.29376e-05
-2.84663e-05
-7.74446e-06
8.13705e-07
3.53967e-05
-1.76746e-05
-8.77642e-06
-6.89777e-06
1.66277e-05
-3.80442e-05
-3.30781e-06
2.47291e-05
7.85396e-06
-3.29561e-05
-9.99384e-06
3.50998e-05
8.2321e-06
-7.84321e-06
-3.87666e-07
-2.78538e-05
4.67977e-05
-6.66101e-06
-1.22925e-05
-6.3492e-06
-2.69713e-05
3.05358e-05
2.78416e-06
-4.23584e-05
4.33833e-05
-5.09026e-06
4.06619e-06
-2.5297e-05
-6.36771e-06
1.79129e-05
1.37485e-05
-2.73295e-05
-5.8708e-06
3.32084e-05
-2.12345e-08
-4.11711e-07
1.24951e-07
-1.38528e-05
1.41387e-05
3.83573e-06
1.73277e-07
-4.00884e-06
-7.03392e-06
7.09824e-06
-6.03689e-08
4.25013e-05
-3.57276e-05
-4.90877e-05
4.23369e-05
3.28722e-06
1.23288e-07
-3.41067e-06
-3.11121e-05
3.06267e-05
-4.07459e-07
8.92978e-07
-1.14962e-05
9.71754e-06
2.53401e-07
1.51765e-06
4.46703e-06
4.79931e-05
-2.57989e-05
-2.66602e-05
-2.7126e-05
-8.53485e-06
3.49523e-06
3.21705e-05
3.33168e-05
1.47229e-05
-1.48551e-05
-3.31847e-05
1.401e-05
-5.21763e-06
1.81358e-06
-1.06054e-05
3.8033e-05
-3.52435e-06
-2.73821e-05
-7.12024e-06
-4.40851e-06
6.57259e-06
-7.21878e-06
5.0582e-06
-2.90761e-06
9.01893e-06
3.36748e-06
-9.48018e-06
-1.38741e-05
-7.02124e-06
3.91317e-05
-1.82427e-05
6.79101e-06
2.5849e-05
-2.54087e-05
-7.23041e-06
-2.25357e-05
2.32446e-05
1.49968e-05
-1.57056e-05
2.41897e-05
-2.18994e-05
-2.96033e-06
6.58507e-07
-8.49806e-08
-1.2138e-05
-4.92206e-08
1.22694e-05
-7.75822e-06
1.45361e-05
-1.50332e-06
-5.27473e-06
-3.38856e-05
-1.17255e-05
1.70308e-05
2.8586e-05
2.2671e-05
-1.91992e-05
-3.84881e-06
3.75178e-07
8.70782e-06
-2.99591e-05
-3.38629e-05
5.51091e-05
1.89594e-05
-2.47348e-05
-1.20822e-05
1.7854e-05
-6.25349e-06
-5.2859e-05
1.46206e-05
4.44966e-05
1.81067e-05
-1.61693e-05
2.29138e-06
-4.22897e-06
3.12423e-05
-1.1318e-05
-3.67148e-05
1.68034e-05
1.25664e-05
2.07848e-05
-4.84608e-05
1.51134e-05
-7.68646e-06
3.00849e-05
-2.63611e-05
3.9643e-06
-2.86706e-05
3.22539e-05
3.29093e-05
-3.64925e-05
-1.76153e-07
-1.51862e-05
1.32774e-05
2.08293e-06
4.56257e-06
-4.27922e-06
-2.88969e-07
3.74126e-05
-4.64343e-05
1.33497e-06
-4.501e-06
6.14779e-06
3.16651e-06
-4.81716e-06
-3.335e-06
1.38393e-07
-1.60394e-06
4.79823e-06
1.75417e-05
-2.4226e-06
1.80932e-05
-2.74038e-05
1.15731e-06
8.1528e-06
-9.44755e-06
-2.27784e-06
9.07066e-06
2.37337e-05
-3.12282e-05
1.78217e-05
-1.03294e-05
-2.67163e-05
-3.89102e-06
3.20894e-05
-1.48405e-06
-5.19626e-05
-8.06282e-06
4.59934e-05
1.40413e-05
-3.9228e-05
1.05917e-05
9.03019e-07
2.7732e-05
-4.56287e-06
3.70743e-07
9.24796e-07
3.2669e-06
-2.59893e-05
-3.11244e-05
2.40911e-05
3.30214e-05
1.79504e-05
1.56591e-05
-2.68778e-05
-6.73547e-06
2.00756e-07
1.55801e-05
-1.32113e-05
-2.56745e-06
-2.65158e-07
-1.78325e-05
3.49584e-05
-1.68605e-05
3.70263e-05
-2.65416e-05
-1.41104e-05
2.83272e-05
-3.20045e-05
6.5041e-06
-2.82165e-06
-3.93943e-06
-2.6542e-05
2.87041e-05
1.77284e-06
3.92341e-05
-2.64338e-06
-4.05356e-05
2.33944e-05
-2.60682e-05
6.28698e-06
-3.61158e-06
1.91591e-06
-1.26362e-05
-1.05753e-06
1.17774e-05
-2.76252e-06
2.65837e-06
-3.2244e-06
3.32815e-06
-1.95311e-06
4.90244e-06
1.60005e-06
-4.55043e-06
-7.68163e-06
-2.00955e-05
-1.42927e-06
2.92051e-05
1.0998e-05
8.62858e-06
-2.9803e-05
1.01761e-05
-1.87213e-05
5.85461e-07
6.69266e-06
1.14435e-05
-1.87585e-06
-1.91086e-05
1.85623e-05
-2.39577e-05
2.8131e-05
8.82941e-06
-1.30061e-05
-3.41462e-05
3.92913e-05
-1.22474e-05
7.10046e-06
-5.59409e-06
-1.92531e-05
2.42649e-06
2.24199e-05
1.4219e-06
3.42012e-05
-3.98802e-05
4.26443e-06
1.74083e-05
-5.56291e-05
1.21078e-05
2.61142e-05
4.92057e-06
-3.74298e-05
2.04787e-05
1.20258e-05
1.48608e-06
2.03315e-05
-6.94418e-06
-1.48759e-05
-4.37067e-06
2.07052e-06
4.28654e-06
-1.98815e-06
-3.91517e-06
7.8784e-06
-2.92642e-05
2.53008e-05
-1.63089e-06
-1.20198e-05
3.3263e-07
1.33199e-05
1.64852e-07
1.23467e-05
-2.06258e-07
-1.23044e-05
1.73094e-07
2.72665e-07
1.25634e-05
-1.30168e-05
-9.05513e-06
-1.55145e-05
2.73129e-05
-2.74822e-06
3.54883e-06
-3.42382e-05
1.84374e-05
1.22491e-05
3.23263e-05
8.45489e-07
2.45913e-06
-3.5627e-05
2.97251e-06
-3.05085e-06
7.79559e-08
1.08294e-05
2.19935e-05
-2.79045e-05
-1.21752e-05
5.39983e-08
1.37858e-07
1.19743e-05
2.04873e-06
-2.62901e-05
9.50499e-06
1.47348e-05
9.6188e-07
8.00708e-06
-8.09225e-06
-8.73211e-07
-6.06444e-06
-1.29152e-05
2.45798e-05
-5.604e-06
2.97499e-05
-3.22672e-05
2.77429e-05
-2.5228e-05
1.88404e-05
-8.57435e-06
-3.18741e-05
2.16082e-05
-2.16234e-06
-2.05309e-06
4.21234e-06
1.25759e-05
2.75936e-06
-3.65428e-06
-1.16819e-05
-2.49875e-05
3.73055e-05
3.18601e-06
2.68097e-06
-5.86711e-06
1.71944e-06
-3.06232e-05
-2.00807e-07
2.91056e-05
-2.98637e-07
6.76339e-07
2.16142e-05
-1.17016e-06
2.30372e-05
-4.50874e-05
2.32186e-05
-7.45521e-06
-2.14949e-05
-3.09343e-06
3.20406e-05
5.91277e-06
-9.88693e-06
1.01424e-05
-6.16617e-06
-7.0549e-06
-3.41272e-05
-4.26689e-06
4.54418e-05
1.98335e-05
3.65767e-06
-2.2779e-05
-7.11666e-07
5.98109e-06
2.8726e-05
-4.76062e-05
1.29028e-05
-2.36452e-06
-1.43109e-05
-8.28481e-06
2.49617e-05
-2.04087e-05
-6.48785e-06
1.05811e-05
1.63131e-05
-1.17156e-06
-1.18701e-06
-1.39411e-05
1.63e-05
3.67749e-05
-1.53912e-05
-8.94175e-06
-1.24433e-05
-2.28352e-05
5.57656e-05
-3.10514e-05
-1.87762e-06
1.21145e-05
3.12476e-07
3.35585e-07
-1.27556e-05
3.02742e-05
-3.59653e-05
3.61483e-05
-3.04519e-05
-5.52785e-06
1.73438e-05
-1.40611e-05
2.24467e-06
1.35166e-05
-4.96199e-05
2.07087e-06
3.4031e-05
9.30259e-06
4.39034e-05
-3.76949e-05
-1.55126e-05
6.98201e-06
-6.77847e-06
-1.10881e-05
1.08824e-05
-2.28687e-05
-1.36437e-05
4.03815e-05
-3.86601e-06
3.52564e-05
-2.80692e-05
-4.25168e-05
3.53369e-05
1.77893e-05
1.51137e-05
-9.32474e-06
-2.35874e-05
2.00048e-07
-1.52071e-05
9.99188e-08
4.25061e-06
-4.35149e-06
-3.6899e-06
3.57918e-06
1.11595e-07
2.62098e-05
-2.47866e-05
-2.29577e-05
2.15385e-05
-6.86937e-06
8.64684e-06
-2.47776e-05
2.30036e-05
3.63798e-05
-2.84562e-05
-5.93795e-06
-1.98528e-06
-5.23444e-06
1.28436e-06
3.43575e-06
-8.14864e-06
2.86666e-05
-7.83305e-06
-1.26855e-05
-4.41072e-05
1.14236e-06
1.50827e-05
2.7889e-05
1.39246e-05
-5.89522e-06
-1.37528e-05
5.72154e-06
7.71039e-06
3.55496e-05
-3.31983e-05
-1.00675e-05
-2.03397e-05
-4.13393e-06
3.88605e-05
-1.43886e-05
2.18028e-06
2.27623e-05
4.95163e-06
-2.98932e-05
7.79624e-06
2.50517e-05
-3.06664e-05
2.01491e-05
-1.492e-05
-7.75112e-06
2.52582e-06
2.12336e-05
-2.73006e-05
1.2048e-05
-1.41051e-05
9.05745e-06
8.31579e-06
-3.26668e-06
9.09123e-06
1.0966e-05
2.16299e-05
-4.16942e-05
4.62296e-06
-2.80974e-05
-4.37902e-06
2.78611e-05
5.42078e-07
2.65296e-05
2.42055e-06
-2.94972e-05
1.19668e-05
2.28366e-05
-3.79386e-05
3.13672e-06
-5.57223e-05
4.6111e-05
-7.95057e-07
6.1786e-08
3.83305e-05
-3.01875e-06
-3.53652e-05
-3.64998e-06
7.98155e-06
-1.09737e-05
6.63569e-06
-8.90622e-07
-3.90828e-06
2.76938e-07
4.51836e-06
-3.78656e-06
3.65162e-06
1.36145e-07
-5.09254e-06
-7.72102e-06
3.67494e-05
-2.39356e-05
-2.83342e-05
4.22505e-06
-1.23973e-05
3.65072e-05
4.32687e-05
-1.06072e-05
-1.39334e-05
-1.87393e-05
3.55726e-06
-3.24235e-05
1.15732e-05
1.72895e-05
3.77309e-06
-3.42386e-06
-1.29953e-06
9.5133e-07
-4.38712e-06
4.21308e-06
1.71546e-07
1.98356e-06
2.80268e-05
-5.08615e-06
-2.49282e-05
-5.2514e-06
2.55885e-05
-3.34903e-05
1.31473e-05
1.12701e-05
1.88748e-05
-4.36168e-05
1.34707e-05
-2.14019e-06
2.57318e-05
1.88486e-05
-4.24383e-05
-4.20709e-05
2.22305e-05
2.46879e-05
-4.84592e-06
3.60236e-05
-3.66884e-05
7.24398e-06
-6.57981e-06
-3.16499e-05
-7.02997e-07
-9.71967e-06
2.45765e-07
5.82118e-06
-6.06615e-06
3.05576e-05
4.14426e-06
-2.5161e-05
-9.53632e-06
-1.97766e-06
-2.95265e-06
1.3897e-05
-8.96685e-06
3.02094e-06
5.3451e-07
9.99515e-06
-1.35515e-05
-3.28981e-05
1.45213e-05
1.6026e-05
2.35146e-06
1.43427e-05
-2.26855e-05
-3.27221e-06
1.16176e-05
-2.44154e-05
5.72286e-06
4.00074e-05
-2.13162e-05
-3.45272e-06
-2.15924e-07
3.67785e-06
-1.40744e-05
3.59444e-05
2.49745e-05
-4.6844e-05
3.12281e-05
8.68577e-07
-4.97913e-05
1.76942e-05
-2.2354e-06
3.20289e-05
-2.84215e-06
-2.69521e-05
1.96307e-05
-1.53383e-05
1.17536e-05
-1.60513e-05
-1.29253e-06
-2.34281e-05
2.6433e-05
-1.71276e-06
-2.00827e-05
-3.14918e-06
-1.40094e-05
3.72382e-05
-8.09315e-06
-8.44771e-06
-1.4996e-05
3.15351e-05
-1.2162e-06
3.29253e-05
-3.55305e-06
-2.81566e-05
2.3659e-05
-2.33511e-05
3.5052e-07
-6.58379e-07
3.58125e-05
6.66506e-08
-2.47692e-05
-1.11137e-05
-8.58612e-06
-4.19152e-06
-2.45094e-05
3.72908e-05
-3.2361e-07
-3.44269e-06
3.76783e-06
-2.95385e-05
4.42556e-05
-3.43521e-06
-1.12836e-05
2.73928e-06
1.92932e-05
6.26118e-06
-2.82836e-05
-4.70549e-06
1.09075e-05
3.90323e-06
-1.01018e-05
-1.68607e-05
-4.2205e-06
1.75425e-05
3.52621e-06
1.97216e-05
1.4211e-05
-5.01296e-05
1.61971e-05
1.24316e-05
-9.51351e-06
3.14454e-05
-3.43669e-05
-2.56913e-06
2.09364e-05
1.76555e-06
-2.01344e-05
3.30939e-06
-3.25357e-06
-5.60991e-08
2.44857e-06
3.04179e-05
1.37504e-06
-3.424e-05
2.90388e-05
-4.63234e-06
-2.78304e-05
3.419e-06
-5.26309e-06
6.54499e-06
-2.98792e-05
2.85909e-05
-2.91479e-05
-4.47273e-06
2.27444e-05
1.08612e-05
1.15718e-05
-1.0946e-05
-1.10978e-07
-5.12778e-07
-4.20785e-05
2.71231e-05
-1.67398e-06
1.66258e-05
-4.99448e-06
4.22947e-06
7.6459e-07
1.32021e-05
-1.13544e-05
1.72602e-05
-1.9103e-05
1.95593e-05
1.64085e-05
-8.55165e-06
1.37293e-05
-3.72509e-05
-1.63985e-05
3.99266e-05
1.40702e-07
-1.67879e-05
1.6884e-05
-2.33422e-07
9.0619e-06
-1.49267e-05
-1.71782e-05
2.30409e-05
1.48033e-05
6.36897e-06
-2.39058e-06
-1.87823e-05
-4.65093e-06
1.11171e-06
5.92504e-06
-2.38557e-06
-4.06009e-06
5.15143e-05
-1.75248e-05
-2.99284e-05
1.41741e-05
1.64752e-05
-6.90555e-07
-2.99607e-05
1.65277e-07
3.3469e-06
-3.51317e-06
-1.15136e-06
5.402e-06
3.12145e-05
-3.54702e-05
3.78137e-05
4.99208e-06
-1.82473e-05
-2.45598e-05
-1.15058e-06
6.18741e-06
-4.87263e-06
-1.59659e-07
1.46885e-05
-1.36857e-06
-1.58943e-05
2.56491e-06
-4.38851e-06
-1.39928e-05
7.11567e-06
1.12641e-05
-5.82e-06
2.69191e-05
4.47206e-06
-2.5568e-05
2.79136e-05
-3.63913e-06
-3.04922e-05
6.21628e-06
-3.06115e-06
5.93293e-06
-2.87198e-06
2.78867e-06
-1.21681e-05
1.08476e-05
-1.46797e-06
7.38154e-07
1.15788e-05
-1.22511e-05
-6.52693e-08
1.12221e-05
1.30338e-05
-1.47887e-06
-2.27761e-05
1.97584e-05
2.65419e-05
-1.83853e-05
-1.48578e-07
4.32931e-06
-4.17915e-06
-3.93714e-05
1.97317e-05
3.64265e-05
-1.67761e-05
3.92934e-05
6.84475e-06
-4.10576e-05
-5.07871e-06
2.58147e-05
-1.71653e-05
-2.87336e-05
8.33982e-06
1.43286e-05
-3.33286e-05
-1.89451e-06
-7.23497e-06
4.2458e-05
-1.13396e-07
4.28379e-06
-4.168e-06
3.73897e-05
-1.44179e-06
-4.20962e-06
-3.17379e-05
4.53244e-06
-4.52158e-06
-1.45145e-08
-1.28748e-05
3.28279e-06
-8.06066e-06
1.76513e-05
-2.13641e-05
-1.76679e-05
1.61313e-05
2.28985e-05
2.22105e-05
-1.70798e-05
-4.5929e-06
-5.40553e-07
-3.90277e-08
3.48462e-06
-3.43992e-06
-7.76157e-07
-4.55636e-06
8.19866e-09
5.31987e-06
8.43098e-06
3.32808e-06
-5.85395e-06
-5.90283e-06
-1.30383e-05
1.40744e-05
-1.81363e-06
-1.89608e-07
4.15246e-05
-1.251e-06
-4.00847e-05
-8.00165e-06
-8.03826e-07
1.04876e-05
-1.67975e-06
3.79145e-06
-1.51825e-05
1.20313e-05
-6.38593e-07
1.07906e-05
-2.02731e-05
1.42564e-05
-4.77477e-06
8.22882e-06
1.90219e-05
3.11216e-06
-3.03647e-05
6.19098e-06
-6.35684e-06
1.6778e-07
1.62195e-05
-1.32259e-05
-3.37262e-05
3.07481e-05
1.02393e-06
1.21547e-06
1.60276e-05
-1.82681e-05
3.93193e-06
1.79268e-05
-2.27069e-05
8.48924e-07
1.27783e-05
-5.75769e-07
-1.99955e-06
-1.02037e-05
1.00827e-05
2.09704e-05
-3.10128e-05
-4.16918e-08
1.55348e-05
-8.02134e-08
-1.36182e-06
-1.40937e-05
-2.6351e-05
9.58813e-06
1.30928e-06
1.54552e-05
-1.1507e-05
-1.07004e-05
-1.37484e-06
1.10188e-05
-1.91436e-05
1.43668e-05
-6.23524e-06
-4.14305e-06
-1.68888e-05
-2.54875e-05
4.65195e-05
-6.16286e-06
7.69093e-06
-1.7737e-06
2.45965e-07
5.48271e-08
2.89299e-06
-2.94585e-06
-7.54565e-06
3.94713e-05
1.21671e-05
-4.40895e-05
2.82688e-05
1.1818e-05
-1.05422e-05
-2.95457e-05
2.76882e-05
-2.35967e-05
2.74448e-05
-3.15359e-05
3.58682e-05
-3.96619e-05
4.50089e-06
-7.08096e-07
-5.28576e-05
2.29095e-05
9.64148e-06
2.03084e-05
-1.29307e-05
-1.61726e-06
1.41585e-05
3.90584e-07
3.24889e-05
-4.34951e-05
1.5275e-05
-4.26862e-06
1.16638e-05
-1.28125e-05
4.05281e-06
-2.90501e-06
-1.62819e-05
1.4704e-05
-9.92931e-06
-1.49555e-05
4.95132e-05
5.49934e-06
-4.00637e-05
-6.06236e-06
1.67037e-07
5.89711e-06
-4.79976e-06
1.0606e-05
-3.95752e-05
-2.18129e-05
-3.85487e-07
2.1583e-07
2.19834e-05
5.236e-06
9.51565e-08
-5.33585e-06
8.32164e-06
-4.92857e-07
-3.06276e-05
2.27962e-05
-5.5093e-08
-2.25311e-07
1.16848e-05
-1.14012e-05
8.47651e-06
1.79655e-05
-3.02959e-05
3.84962e-06
2.46421e-05
1.72463e-06
1.65891e-06
-2.80257e-05
-2.91996e-06
6.13333e-06
3.98164e-05
-4.30329e-05
-9.67716e-06
-1.18539e-06
-3.74271e-07
1.12351e-05
-8.81943e-06
7.55627e-06
-2.99776e-05
3.12457e-05
-1.55528e-06
2.66677e-05
-2.31587e-05
-1.95722e-06
3.5567e-05
1.08614e-05
-1.63185e-05
-3.01115e-05
7.74637e-06
-4.23979e-05
2.78624e-05
-3.5834e-05
4.57729e-05
-2.22839e-06
1.98015e-05
-7.69819e-06
1.61649e-05
-1.48564e-05
-3.71491e-06
7.25548e-06
1.13166e-05
-7.83277e-06
8.58704e-07
7.15826e-06
-1.78923e-07
-1.16898e-05
2.89324e-05
-2.02399e-05
2.99947e-06
-3.29324e-05
2.90106e-05
3.08188e-05
-2.68968e-05
-3.74206e-06
3.42761e-06
1.79581e-07
1.33791e-07
3.2225e-05
-4.75313e-05
-1.76309e-05
3.29414e-05
-4.27999e-05
-1.68759e-05
2.87474e-05
3.09277e-05
3.83399e-05
4.0748e-06
2.10566e-06
-4.45166e-05
3.28079e-05
-2.18478e-05
2.73806e-05
-3.97743e-05
-3.7423e-06
1.57878e-05
2.77213e-05
3.63294e-06
3.09962e-07
-3.94587e-06
3.66164e-05
-3.39016e-05
-1.15193e-05
8.80451e-06
-2.14411e-05
-7.57466e-06
6.3381e-06
2.2687e-05
1.53408e-05
2.59243e-05
-1.47482e-05
-2.65142e-05
7.30558e-06
2.31879e-05
-2.25059e-05
-7.99288e-06
5.2584e-07
-7.16219e-06
6.63446e-06
-1.6631e-05
-1.4423e-05
1.42322e-05
1.68219e-05
1.81165e-06
2.12515e-05
-5.06275e-06
-1.79946e-05
-3.53463e-05
3.55595e-05
-6.55488e-06
-2.9061e-06
3.58963e-05
-3.49986e-05
2.00696e-06
2.02324e-05
4.19146e-06
1.12051e-05
-3.56304e-05
-7.42103e-08
-2.51037e-06
2.5819e-06
-3.66806e-06
3.6434e-06
2.6818e-08
-2.36597e-05
-1.15906e-05
1.38987e-05
2.1348e-05
-3.05708e-05
-7.98561e-07
3.71211e-05
-5.75312e-06
-9.10545e-06
3.3339e-05
-3.45778e-05
1.03446e-05
-2.54867e-05
2.07277e-05
-9.21206e-06
1.39699e-05
3.77292e-07
2.19468e-05
-2.46397e-05
2.31576e-06
-3.55591e-05
8.10861e-06
2.30199e-05
4.4319e-06
2.04996e-06
4.48433e-05
-1.69812e-05
-2.99091e-05
2.46741e-06
-4.63034e-06
-2.1658e-05
-1.10113e-05
9.00986e-06
2.01972e-05
-1.35843e-06
3.70318e-06
-2.25417e-05
-2.18606e-06
-5.20257e-06
6.53483e-06
8.55782e-07
1.47898e-05
-4.49886e-06
-1.04987e-05
2.07817e-07
1.3048e-05
-4.38769e-05
4.20682e-05
-1.1247e-05
-1.71969e-05
3.01134e-05
4.30649e-06
-1.72273e-05
-3.66441e-06
4.14759e-06
2.84727e-05
-2.89542e-05
-3.91777e-05
2.90671e-06
3.515e-07
3.59048e-05
-2.22305e-05
2.73147e-06
1.77611e-05
1.7353e-06
-2.43144e-05
1.50329e-05
3.42844e-05
-2.5005e-05
-1.50746e-05
-2.77831e-05
7.76165e-06
3.50954e-05
4.88112e-06
-3.94719e-05
-4.51442e-06
3.91016e-05
-2.97388e-05
4.0746e-06
-1.52255e-06
2.71893e-05
-3.0667e-05
-2.06862e-06
-2.22444e-06
3.4961e-05
7.01018e-06
-3.68289e-06
3.33552e-05
-3.6686e-05
7.80399e-06
-4.49218e-06
-3.0277e-08
-3.28443e-06
4.59131e-06
-4.79535e-05
-7.32282e-06
5.06862e-05
-4.54065e-06
2.86927e-06
2.32171e-06
-6.47004e-07
-2.87948e-05
-7.55445e-06
1.58161e-05
2.05328e-05
-1.57259e-06
1.52236e-05
2.90029e-06
-1.65532e-05
-1.31053e-05
-1.41471e-05
9.47103e-06
-6.19373e-06
2.47278e-06
3.22413e-05
-2.85246e-05