/*--------------------------------*- C++ -*----------------------------------*\
| =========                 |                                                 |
| \\      /  F ield         | OpenFOAM: The Open Source CFD Toolbox           |
|  \\    /   O peration     | Version:  2406                                  |
|   \\  /    A nd           | Website:  www.openfoam.com                      |
|    \\/     M anipulation  |                                                 |
\*---------------------------------------------------------------------------*/
FoamFile
{
    version     2.0;
    format      ascii;
    arch        "LSB;label=32;scalar=64";
    class       volVectorField;
    location    "30";
    object      U;
}
// * * * * * * * * * * * * * * * * * * * * * * * * * * * * * * * * * * * * * //

dimensions      [0 1 -1 0 0 0 0];

internalField   nonuniform List<vector> 
59516
(
(0.109788 0.000455258 -0.000501577)
(0.101712 -5.86388e-05 -0.000282277)
(0.116744 -0.00150254 -0.000161597)
(0.129951 0.00211438 0.00168824)
(0.113938 0.000291009 -0.00444527)
(0.101089 -0.00483939 -0.0107904)
(0.131374 0.000145376 -0.00152707)
(0.106891 0.000919944 0.000185789)
(0.11609 0.000799222 0.000339912)
(0.0588631 -0.0010014 0.00239808)
(0.149332 0.000380695 -0.00125027)
(0.0635142 0.000719635 -0.00329864)
(0.123079 0.00102342 -0.000268174)
(0.0217483 -7.5393e-05 -0.000242295)
(0.0652893 0.00162501 0.00317398)
(0.0554495 0.00387783 -0.00199223)
(0.158464 0.000591931 -0.000116029)
(0.0707305 0.00384576 -0.0039372)
(0.116178 0.00435592 0.00104155)
(0.156474 -0.00052262 0.000445983)
(0.0562591 0.00049462 -0.000870723)
(0.147172 4.71929e-05 0.000481332)
(0.152051 0.000696964 -0.000171698)
(0.0364334 -0.00116955 -0.000158743)
(0.156091 -0.000663838 0.00131169)
(0.0697715 0.00138575 0.00105191)
(0.0453008 0.000852432 -0.00273667)
(0.0455421 0.0035385 0.000454928)
(0.068254 0.00198013 3.37257e-06)
(0.0192987 -0.00302276 0.000778046)
(0.108314 -0.0209421 -0.00458414)
(0.0467853 0.00336446 -0.000612822)
(0.134038 1.47445e-05 0.000910668)
(0.115083 -0.000636009 0.00258556)
(0.137967 0.00267657 0.00243573)
(0.144978 -0.000360518 3.5528e-05)
(0.0185809 -0.00175716 -0.00268859)
(0.0705892 0.00269886 -0.00651962)
(0.0986374 -0.00273083 -6.35217e-05)
(0.152629 -0.00208545 0.000324889)
(0.105966 -0.000800704 0.000113446)
(0.143066 -0.00664853 -0.00620712)
(0.147192 -0.00115613 -0.000682726)
(0.112263 -0.000979492 0.00056383)
(0.143703 -0.00167191 0.000403035)
(0.0589543 -0.0010238 -0.00154162)
(0.133735 -0.00120818 -0.00225251)
(0.156517 -0.00138887 -0.000117872)
(0.11181 -0.00897912 0.0124589)
(0.147164 0.00418206 0.00372791)
(0.104032 0.0104831 -0.0145343)
(0.0473371 -0.00369907 0.00247135)
(0.12362 0.000856607 -0.00197733)
(0.130046 -0.00026211 -0.000256915)
(0.0499447 0.00267866 2.2738e-05)
(0.131057 0.00060929 -0.000341817)
(0.142501 0.00702391 0.00751441)
(0.0516103 0.0041106 -0.00299609)
(0.157863 -0.000724901 0.000109836)
(0.134286 0.00495279 0.00627091)
(0.146387 -7.15144e-05 0.00052908)
(0.0207449 0.00254149 -0.000841382)
(0.152925 -0.000163027 -0.000594806)
(0.154729 0.000641032 -0.000176185)
(0.127641 0.000595324 -0.000538884)
(0.144102 0.00199132 0.00238518)
(0.0288281 -0.00189681 0.00261757)
(0.0439915 0.000256754 -0.000168195)
(0.121265 -0.00495346 0.0221075)
(0.136862 0.00126991 -0.000167748)
(0.040057 0.00118094 0.000330667)
(0.153806 0.000500603 -0.000184657)
(0.0251466 0.00158062 -0.00395973)
(0.141518 -0.000539231 -0.000143924)
(0.160989 -0.00080546 0.000257064)
(0.153917 7.1244e-05 -0.000136215)
(0.156879 -1.47085e-05 -0.000596334)
(0.145243 0.000212676 -0.000542854)
(0.0492521 -0.00175662 0.00157422)
(0.147121 0.00232887 0.00468184)
(0.0416805 0.00257815 0.00112972)
(0.143464 0.00260415 0.00330838)
(0.138291 0.00139233 0.00321353)
(0.0220223 -0.000861453 0.00314009)
(0.14363 0.00223961 0.00352168)
(0.158822 -0.000534613 0.000222041)
(0.0352891 -0.00135392 0.000552716)
(0.148352 0.000122183 0.00066708)
(0.0579573 0.000848922 0.002841)
(0.10777 0.00802797 -0.00519999)
(0.131113 -0.000636881 -0.0105277)
(0.135989 0.00172681 -2.53194e-05)
(0.157906 -0.000141537 0.000153002)
(0.135325 0.000874655 -0.000253031)
(0.149623 -1.69295e-05 0.000113241)
(0.109973 -0.0105324 0.00407876)
(0.139172 -0.000923218 0.00115499)
(0.0567931 -0.00175468 -0.00432506)
(0.0665116 0.00207347 -0.000580465)
(0.145348 -0.000652922 0.00137873)
(0.0403992 0.000748936 0.00152828)
(0.0267984 0.00127449 -0.00309314)
(0.0253283 0.000877164 0.00356267)
(0.0585671 -0.000863547 -0.00288953)
(0.136269 0.000510096 -0.000325457)
(0.141742 0.000236884 0.000689664)
(0.0434984 0.00379829 -0.00154578)
(0.110244 0.000321304 -0.000606798)
(0.105683 -0.000732887 -0.000240504)
(0.0702084 0.000449683 -0.0029396)
(0.124754 0.0125593 -0.0130666)
(0.0336237 0.0034765 -0.000404086)
(0.0708075 0.000875674 -0.00403413)
(0.118005 0.0169911 -0.00849842)
(0.153001 -0.000202751 7.63832e-05)
(0.105685 0.00111207 0.000802129)
(0.0578455 0.00056023 -0.00239205)
(0.134138 0.000414574 0.000833975)
(0.0237896 -0.000329457 0.00110068)
(0.144327 0.00167276 0.000357309)
(0.16079 -0.000183189 0.000136211)
(0.155349 0.000550552 0.000221399)
(0.153303 -0.000246422 0.000222508)
(0.153936 -1.30903e-05 0.000400249)
(0.131987 -0.016649 0.00284378)
(0.0921128 0.000988202 -0.00211516)
(0.0324665 -0.000492797 0.00214642)
(0.137843 -0.0118087 -0.000560837)
(0.0898649 -0.00273227 0.0130779)
(0.159116 0.000538143 0.000376897)
(0.159152 0.000474733 0.00111206)
(0.1176 0.0014302 0.0018394)
(0.0253671 0.00146503 -0.00177289)
(0.147029 -7.27914e-05 0.000651789)
(0.10715 0.000877945 0.000330073)
(0.120763 -0.00106174 -0.00160375)
(0.107726 0.012429 -0.00873071)
(0.133286 -0.000358919 0.00064979)
(0.0428188 0.00284818 0.000119913)
(0.103843 0.000623484 -0.00137569)
(0.0473817 -0.000943621 -0.0024003)
(0.160589 -6.20575e-07 -2.45564e-05)
(0.0201932 0.000906399 0.00178448)
(0.128659 -0.00121791 -0.000522388)
(0.157244 0.000360793 7.87034e-05)
(0.140526 0.00138411 -7.84318e-05)
(0.141233 -0.00228678 -0.000321029)
(0.121929 0.000523095 -0.00200412)
(0.062144 -0.00102072 0.00173458)
(0.111526 -0.000705016 -0.000844222)
(0.109153 -0.00016021 -0.000778251)
(0.0383072 -0.00140946 -1.52234e-05)
(0.156953 -0.000691425 0.00113029)
(0.150168 -0.000407273 0.000921187)
(0.0951153 -0.000537528 0.0018255)
(0.020516 -0.000469295 0.00227386)
(0.118234 0.000243854 -0.000264163)
(0.118737 0.00103506 -0.000174836)
(0.0881113 0.00123966 9.3932e-05)
(0.0212029 0.00258623 -0.0028176)
(0.0690253 0.00143463 -0.00335057)
(0.0711307 -0.00351631 -0.00237851)
(0.037834 -0.00161172 0.000358861)
(0.0276344 -0.000274522 -0.000557256)
(0.104934 0.00157185 0.00230432)
(0.159209 0.000268956 0.00101813)
(0.064994 -0.00065769 0.000327188)
(0.158422 0.000483771 -1.50297e-05)
(0.021538 -0.00131428 0.0024816)
(0.133798 -0.000346944 0.000401321)
(0.0890281 0.00136068 0.00120627)
(0.0555889 0.000777359 -0.000828005)
(0.0681576 0.00167044 0.000964771)
(0.137259 -0.000775181 0.000758638)
(0.053508 -0.000920716 0.000327267)
(0.135829 -0.00021208 -0.00288399)
(0.155761 9.04212e-05 -0.00100699)
(0.148432 -0.00260267 -0.00134269)
(0.0712043 -0.00113669 0.00338711)
(0.0437743 -0.000151086 -0.000553054)
(0.144023 0.00160074 0.000991641)
(0.0358219 -0.00308921 -0.0012686)
(0.0311332 -0.00047212 -0.00249039)
(0.0682508 -0.0018686 6.61127e-05)
(0.15827 -0.000190148 0.000827963)
(0.0620606 0.00029944 0.000689961)
(0.0376472 -0.000718146 -0.00291308)
(0.0248562 -6.90763e-05 0.000371658)
(0.125235 0.000154715 0.00027644)
(0.105076 -0.00157118 -0.000169087)
(0.134252 -0.000811118 0.00269288)
(0.0551132 0.00320859 0.000220256)
(0.154719 -0.000486241 -8.23016e-05)
(0.0606482 0.00260247 -2.83264e-05)
(0.150953 -0.000586363 -0.00013951)
(0.0312703 -0.00020292 0.00089999)
(0.0603799 0.000727055 -0.000356724)
(0.0434656 -0.00110323 0.000238455)
(0.114076 0.00275525 0.00359775)
(0.149481 0.000353211 2.76962e-05)
(0.0849383 -0.0026613 0.000396547)
(0.159446 -0.000176841 -7.13691e-05)
(0.107623 -0.000545442 0.00090246)
(0.0209013 0.00233722 -0.00149271)
(0.131492 -0.0016262 -0.000534498)
(0.143572 -6.77034e-05 6.42197e-05)
(0.159753 -0.000236536 2.19065e-05)
(0.145331 -0.000199824 0.000164406)
(0.0244558 -0.000629853 0.000200667)
(0.117929 -0.00174347 -0.000150959)
(0.0535005 0.00379468 0.00300546)
(0.0246693 -0.00393037 -0.000609319)
(0.143544 0.000487553 -0.00142997)
(0.0590456 -0.00106067 0.000777213)
(0.120214 0.00108492 3.779e-05)
(0.157889 -0.000705964 0.000520002)
(0.139257 0.000830358 0.000198886)
(0.152814 -0.000904209 0.000486592)
(0.0574253 0.00242094 -0.00277532)
(0.152156 -0.000524015 0.000543095)
(0.0589994 0.00239479 0.00167506)
(0.108084 0.000668833 -0.000127719)
(0.152742 0.00077921 0.00114224)
(0.0430085 -0.00016318 0.00083978)
(0.15434 -0.00136932 0.000534073)
(0.156089 0.000189694 -0.000751001)
(0.0298288 -0.000310828 0.00148102)
(0.04994 0.00167131 -0.0023365)
(0.15577 -0.000244262 0.00107064)
(0.0576589 0.000217019 -0.00404675)
(0.158796 -0.000861209 0.000399051)
(0.156822 0.000533187 -0.000524395)
(0.157274 0.000371612 0.00115124)
(0.02673 -0.00221148 -0.00150822)
(0.0349516 0.000948864 -0.00176415)
(0.0367273 0.000867549 -0.00127489)
(0.0670851 0.000342011 0.000702102)
(0.101446 -0.00168062 0.000680058)
(0.149041 0.000574235 0.00128665)
(0.0604706 -0.00127127 0.00145409)
(0.158929 3.51671e-05 0.000976747)
(0.0220928 0.000451977 0.00329904)
(0.0571955 -4.02342e-05 0.000776245)
(0.0269227 0.000281517 0.00289722)
(0.158383 0.000666023 0.00045536)
(0.0981532 -0.000443255 -0.000560282)
(0.142738 -8.06875e-06 0.000672707)
(0.0691002 0.000338468 -0.00148132)
(0.157721 -0.000299296 0.000614445)
(0.10913 0.000259507 0.000325543)
(0.156351 -0.00184113 0.000901782)
(0.139647 0.000143079 0.000765729)
(0.158607 0.000248945 0.000984746)
(0.142316 0.000334142 -0.000207585)
(0.144218 0.00118257 0.000591158)
(0.151165 0.000341446 0.000480391)
(0.0586615 0.000224696 -0.000230408)
(0.14806 0.000303167 0.00121795)
(0.0448686 -0.000355112 -0.00250843)
(0.0633874 0.000444824 0.00218524)
(0.132529 0.000888705 -0.000674727)
(0.152726 -0.000865551 0.0010284)
(0.119033 0.00219259 0.00150222)
(0.158402 -0.000656745 0.000938767)
(0.103687 -0.000310174 0.00224083)
(0.0612649 0.0025699 -0.00151677)
(0.152289 0.0002969 -0.000610073)
(0.0978721 0.00143624 0.000674629)
(0.0495578 -0.000796071 -0.000665301)
(0.0550344 -7.55579e-05 -0.00143146)
(0.101127 0.000302849 -0.00252447)
(0.155526 -0.00080422 -0.000335248)
(0.103639 -0.00213583 0.000185628)
(0.0983033 -0.00105429 0.000885317)
(0.154389 -0.00147214 0.000390117)
(0.0976713 -0.000613567 0.00279893)
(0.0230612 0.00278586 -0.00160538)
(0.154215 -0.000520991 0.00120964)
(0.0277011 0.00175969 -0.00231109)
(0.04341 -0.00178557 0.0011872)
(0.156727 -6.43565e-05 0.00110267)
(0.139688 -0.000707795 -6.66942e-05)
(0.0269913 0.0029069 0.00298385)
(0.124757 0.000944039 4.584e-05)
(0.128873 0.00214289 7.99495e-06)
(0.155981 0.000770017 3.31414e-05)
(0.157824 -0.000487145 0.000175321)
(0.026462 0.00316928 0.000664268)
(0.156848 -0.000567492 0.000946458)
(0.156936 -0.00160193 6.54736e-06)
(0.155462 -0.000191231 0.00112657)
(0.135518 -0.000344168 0.00100937)
(0.135404 0.00134951 0.00115856)
(0.100046 0.000356451 -0.000421183)
(0.159516 0.00100937 0.000198106)
(0.0303411 -0.00107993 -0.00145974)
(0.149973 -0.00181098 0.000420974)
(0.140582 -0.00119107 -0.000589866)
(0.158337 -0.00125532 0.000713314)
(0.152593 -0.00131007 0.000342202)
(0.120416 -0.000820232 0.000359004)
(0.0636248 0.00071128 0.00135212)
(0.024878 -0.000338956 0.00173319)
(0.0308965 -0.000781715 0.000553933)
(0.157574 -0.00159886 -0.000249243)
(0.0225108 -0.00134445 0.00334626)
(0.0673866 -0.000260082 -0.00117563)
(0.0552453 0.00303752 0.00120238)
(0.155853 -0.000863448 0.000616483)
(0.16021 0.00020445 -0.000566331)
(0.151476 -0.000559161 -0.000145701)
(0.0624881 -0.00031926 -0.00135191)
(0.106942 0.00128075 -0.00188001)
(0.0432023 -0.00355547 0.00286064)
(0.0574876 0.00102173 0.0016091)
(0.148086 -0.000646972 -2.66384e-06)
(0.103333 0.00142397 -0.000891861)
(0.107729 0.0124405 0.00357382)
(0.0939555 -0.00188728 0.00103009)
(0.0465212 -0.000292698 -0.000553915)
(0.0682442 -0.000993793 0.00191085)
(0.112064 -0.000560722 -0.00152411)
(0.158658 -2.92487e-05 -4.48886e-05)
(0.160425 0.000466775 0.000386005)
(0.159659 -0.000124824 0.00117719)
(0.154813 -0.00161772 0.00032263)
(0.098213 0.00285811 0.00417631)
(0.128472 0.00127334 0.000470849)
(0.1527 0.00175649 0.000220011)
(0.152941 1.06932e-05 0.000101123)
(0.154784 -0.000346494 0.000919414)
(0.0606011 0.00132932 -0.00319594)
(0.0242438 -0.00151003 -0.00290458)
(0.146722 -0.00036475 0.000417121)
(0.0429023 -0.00192807 0.0022747)
(0.0347492 0.000251201 3.80827e-05)
(0.151563 0.000201676 0.00141292)
(0.144462 -0.000612458 0.000534532)
(0.0616458 -0.00162355 -0.00252564)
(0.156505 -0.00095067 0.000656539)
(0.15643 -0.0014852 0.000208148)
(0.159149 -0.000586294 -0.000755202)
(0.158238 -2.68752e-05 -0.000435206)
(0.0351925 0.00151497 0.000109626)
(0.154113 0.000389838 -0.000360402)
(0.156715 -0.00108692 0.000790847)
(0.0617097 -0.00010765 0.000793774)
(0.157811 -0.000353008 0.0013885)
(0.156799 -2.09777e-05 0.000334335)
(0.133193 5.4567e-05 -0.00103015)
(0.12513 3.3769e-05 -0.000649005)
(0.146122 -0.000491142 0.000996462)
(0.142553 -0.00139298 0.000494324)
(0.0743687 -0.000499608 -0.000227363)
(0.0341792 0.00132006 -0.00106403)
(0.0376926 -0.00283163 -0.000176851)
(0.100352 0.000486137 0.000422528)
(0.0864213 -0.00655514 0.0104702)
(0.0746984 -0.00417995 -0.00602451)
(0.0884293 0.000291129 0.000166206)
(0.118842 0.000143305 0.00182375)
(0.133318 0.000188688 0.000405933)
(0.151919 -0.000127286 0.00258938)
(0.153389 0.000503384 0.000605077)
(0.134297 -0.000517332 -0.000127626)
(0.145457 0.000581427 0.000451123)
(0.144989 0.0012855 0.000385501)
(0.034294 -0.0010009 -0.000377215)
(0.113831 -0.0223055 0.00280442)
(0.062327 0.00174634 0.000668924)
(0.0447697 -0.00207097 -0.000613238)
(0.0450399 0.000953661 0.000296898)
(0.153294 0.000256727 7.49755e-05)
(0.0988838 -0.000260917 8.42069e-05)
(0.153894 0.00051723 -0.000509197)
(0.0217446 0.0012635 -0.00184608)
(0.128971 -0.000308876 7.07761e-05)
(0.0484033 0.00117929 -0.000911761)
(0.154586 -0.000826917 -0.000108607)
(0.0516621 -0.000730112 -0.000462625)
(0.0660587 -0.00137587 0.00125833)
(0.111933 -0.00241575 0.000833736)
(0.147661 -0.000141026 0.00129517)
(0.021737 0.00186256 -0.00232648)
(0.0582964 -0.000543399 0.0027356)
(0.134004 0.000208435 0.000565638)
(0.025533 -0.00159699 -0.00187396)
(0.130454 0.00121132 0.00736482)
(0.119552 -0.000530865 0.00230574)
(0.133665 0.00022517 -0.00169648)
(0.0995467 0.00221143 -0.00237389)
(0.0933523 -0.001053 0.00191355)
(0.155249 0.00139657 -0.000240777)
(0.0774108 -0.0076984 -0.00709093)
(0.159995 0.00154535 0.000413917)
(0.111323 0.00820166 0.00879584)
(0.0638734 -0.00245828 0.000364417)
(0.066863 -0.000386318 -0.00155526)
(0.160214 0.0010516 0.000249822)
(0.161789 0.00150323 0.000386087)
(0.056395 -0.000527189 0.000493319)
(0.136691 0.0007449 -0.000514305)
(0.10321 -0.000659564 -0.00224031)
(0.159146 -0.000638615 0.000674911)
(0.158699 -0.00044123 0.00100751)
(0.0494115 0.0013547 -0.00351069)
(0.134072 -0.000774897 -0.000192756)
(0.144146 -0.00141798 0.00116106)
(0.146452 0.000346561 -8.79464e-05)
(0.15218 0.000227132 0.000305065)
(0.0235875 -0.000731327 -0.00308477)
(0.0228453 0.00119576 -0.00292655)
(0.128553 0.000771366 -0.00144646)
(0.158407 0.000167755 -6.9911e-05)
(0.159409 -0.00119683 -0.000834641)
(0.0378888 0.000422457 -0.00259962)
(0.154573 -0.000875449 0.000504512)
(0.112226 -0.00117544 5.31276e-05)
(0.154758 0.000494583 0.000921851)
(0.160022 0.0013904 0.000145318)
(0.160204 0.000701438 -0.000179076)
(0.15821 0.0013129 0.00073853)
(0.158508 0.00175115 0.000786125)
(0.0946095 0.000504977 0.000249661)
(0.158347 0.00166069 0.000171308)
(0.0601479 -0.00118049 -0.00307374)
(0.155218 -0.000284595 -0.000249372)
(0.113889 -0.000136676 -0.0012503)
(0.147149 0.00126121 0.000479623)
(0.157416 0.000382391 -0.000238968)
(0.147395 -4.47301e-05 -0.000158074)
(0.142586 0.00101179 -0.000454816)
(0.0436535 0.00249899 0.00221855)
(0.0367395 0.000849969 0.00045527)
(0.0233678 0.00203287 -0.00235645)
(0.148236 0.00315364 0.00533253)
(0.163518 7.39375e-05 8.36581e-05)
(0.137534 -0.000713908 0.000501481)
(0.129401 0.0016249 0.000545658)
(0.0335511 4.83911e-05 0.00118519)
(0.025801 -0.000412137 0.00295082)
(0.118495 -0.000187117 0.00183651)
(0.146086 -0.000260058 0.00128716)
(0.157933 5.3592e-05 0.000678071)
(0.151022 0.000872036 -0.000177545)
(0.137439 -0.000568783 -0.0012055)
(0.161213 0.00107176 -0.000132327)
(0.13599 0.00101963 0.000356585)
(0.0287518 -0.000606614 0.00272688)
(0.125901 -0.000561547 0.000357876)
(0.0618123 0.000606506 0.00305157)
(0.0705425 -0.00698428 0.00150008)
(0.147555 0.000207339 -0.000377435)
(0.0993938 -6.44222e-05 0.000373744)
(0.144089 0.000361971 -0.000188586)
(0.0225981 -0.00419237 -0.00162943)
(0.161324 0.00186155 3.98412e-05)
(0.160014 1.57351e-05 -5.21151e-05)
(0.157572 0.00150096 0.000386869)
(0.0971455 0.00100323 0.000227882)
(0.147311 0.000242706 0.000863897)
(0.156054 0.000700694 0.000882667)
(0.123387 0.000314195 0.000150458)
(0.157856 0.000998308 0.00027748)
(0.100549 0.00333084 -0.00235019)
(0.157592 0.000206869 -9.28044e-05)
(0.146372 -0.00199758 -0.000769906)
(0.0223717 -0.00144963 0.00148087)
(0.159196 -0.000451069 -0.000835866)
(0.119096 0.00178941 -8.08463e-05)
(0.04958 -0.0013513 0.00399881)
(0.0962332 0.000600103 -0.00148887)
(0.155285 -3.70021e-06 -0.00069214)
(0.131455 -0.000213779 0.000509894)
(0.0897232 0.000255485 -0.00251316)
(0.0221785 -0.00196867 -0.00231731)
(0.158728 -0.000762106 -0.00066994)
(0.126967 0.00189287 -0.00148569)
(0.15363 -0.000341095 5.11313e-06)
(0.126779 0.000207636 0.000658876)
(0.039603 0.00183981 0.00189993)
(0.139588 2.84348e-05 -0.000647336)
(0.0269108 0.00220098 -0.00329777)
(0.153064 0.000209435 -0.000308268)
(0.102276 0.0114033 -0.00364587)
(0.155322 -0.000144639 -0.000361829)
(0.0555313 -0.000131959 0.00186995)
(0.111125 -0.00111828 -0.0017803)
(0.0999423 0.000568697 -0.0015071)
(0.037437 0.00231301 0.00186661)
(0.157142 0.000527774 0.00043117)
(0.153359 0.000892248 0.000549529)
(0.0239446 0.000822529 0.00229573)
(0.151033 -0.00147383 7.6526e-05)
(0.157334 -0.00140473 0.000626292)
(0.0398465 -5.52036e-05 -0.00216492)
(0.06512 0.00287058 6.05397e-05)
(0.0569952 0.00197011 0.00156795)
(0.148033 0.00109587 0.000649809)
(0.157017 -0.000494362 0.000249067)
(0.0333056 -0.000781876 0.00151331)
(0.0576742 -0.0018734 -0.000836745)
(0.0602327 0.00115818 -7.34858e-05)
(0.118194 0.00142757 0.000177158)
(0.157316 -0.000590839 0.000370618)
(0.0249169 0.00129021 -0.00339831)
(0.153589 -0.00117239 0.000860132)
(0.148527 0.0012803 0.000164231)
(0.15772 0.000508483 0.000958873)
(0.0900995 0.00386522 -0.00372391)
(0.158637 0.00108603 0.000245751)
(0.0245693 -0.000246955 -0.00273697)
(0.155467 -0.000863699 -0.000166234)
(0.0292415 -0.000526971 -8.405e-05)
(0.0620779 -0.00203799 0.000134527)
(0.149817 -0.000627476 0.000131234)
(0.0639486 -0.00186469 -0.000609786)
(0.0223278 0.00261546 0.0023269)
(0.0396898 0.000750311 -0.00124442)
(0.0485199 -0.00247592 0.00141126)
(0.0623133 0.00123303 -0.00169384)
(0.145417 -0.000401193 -0.000638765)
(0.0531895 -0.00123944 -0.000134927)
(0.0627705 0.00206509 -0.0012012)
(0.127892 -0.00660892 -0.0131124)
(0.15392 0.000849283 0.000572823)
(0.0258015 0.00170303 0.000235011)
(0.110432 5.30173e-07 -0.00102983)
(0.0814934 0.00869633 -0.00330942)
(0.15682 -0.00166286 -0.000263501)
(0.0618543 -0.000178108 -0.00141117)
(0.152051 0.00114158 0.000654356)
(0.0608142 -0.0025644 -0.00152395)
(0.12471 0.00041942 0.000768619)
(0.157928 0.000985724 -0.000396308)
(0.0543943 0.00266103 -0.00483378)
(0.159605 2.56564e-05 0.000159866)
(0.0481461 0.00196471 0.00240749)
(0.0208303 0.00320718 0.00117234)
(0.143037 0.000530709 0.000312577)
(0.157211 0.000962155 0.000185083)
(0.131153 0.000859035 -0.0002885)
(0.127308 0.00179437 -0.000587871)
(0.15879 -0.00167406 0.000376636)
(0.063966 0.00153365 -0.000193977)
(0.155902 -0.00170802 0.000323327)
(0.0602962 -0.00187133 0.00258981)
(0.157637 0.00100119 -0.000132109)
(0.128335 -0.00144126 -0.00117296)
(0.0301189 0.000765749 -0.00431935)
(0.150428 -0.000100488 -0.000666255)
(0.0556144 0.000274503 0.00184738)
(0.0281795 -0.00212208 -0.0019211)
(0.148381 -0.000290386 -0.000134472)
(0.045766 -0.00120868 0.00111848)
(0.137051 0.000590229 0.000277874)
(0.155987 0.000388079 0.00064897)
(0.131388 0.000990085 0.00080819)
(0.0569309 -0.00270027 -0.00261533)
(0.161389 0.00141714 0.000178225)
(0.0942135 -0.00118638 0.00102237)
(0.163288 0.000182711 0.000755792)
(0.160873 0.000391179 -0.000162449)
(0.161102 0.00111235 0.000523232)
(0.157274 0.000861923 0.000158837)
(0.0468556 -0.00251331 -0.00211576)
(0.0542764 0.000125485 -0.00067645)
(0.159334 0.000759212 -0.000158668)
(0.153971 0.00119629 0.00101907)
(0.0340716 -0.00234995 -0.00114757)
(0.152193 0.000317989 -4.41465e-05)
(0.162717 0.000116108 0.000598464)
(0.159924 -0.00151388 -0.00040146)
(0.160462 -0.00160794 -0.000375805)
(0.119975 -0.00042617 -0.00110806)
(0.022988 0.00227879 0.00200365)
(0.161774 0.00053842 0.000270862)
(0.103347 -0.000892938 -0.00162358)
(0.144779 -0.000348985 0.000408129)
(0.0994945 2.06736e-05 1.8659e-05)
(0.0314038 0.00227647 -0.000195527)
(0.156773 0.0010609 0.000193357)
(0.0950898 0.00219249 0.0019508)
(0.134998 -0.000589738 4.14622e-05)
(0.159937 -0.00170057 -0.000207277)
(0.139914 -0.00131241 -0.000540101)
(0.0185466 0.00161657 -0.00221745)
(0.0238203 -0.00144863 -0.00236493)
(0.155165 -0.00141054 -5.00673e-05)
(0.152568 -0.000293703 0.000213047)
(0.159659 0.00141187 0.000804902)
(0.145123 0.00043817 0.000697127)
(0.095524 -0.00131991 0.000695035)
(0.146184 -0.00124543 -0.000392537)
(0.158229 0.000204636 5.03045e-05)
(0.0216933 0.00184237 0.000405897)
(0.155498 -0.00144274 0.000157166)
(0.134648 -0.013461 -4.89228e-05)
(0.0400164 -0.000818076 0.00205545)
(0.0572079 -0.00368835 0.000905396)
(0.143973 -0.000695296 -0.000955101)
(0.140958 -0.00160095 0.000507835)
(0.13797 0.000748014 -0.00043091)
(0.127228 -0.00060874 0.000449649)
(0.108933 -0.00359235 0.00102427)
(0.159847 0.000268031 -0.000223967)
(0.101594 0.00123704 -0.00262809)
(0.160995 0.00154041 2.18452e-06)
(0.155702 -0.000272853 -0.000250975)
(0.161868 -0.00166239 0.000817801)
(0.15605 -0.00154232 2.66571e-05)
(0.0425314 -0.000523115 0.00202933)
(0.154924 -0.00115596 0.000318911)
(0.034532 0.000887005 -0.00147993)
(0.0944367 -0.00915083 0.00540568)
(0.0630411 0.00176534 0.00150218)
(0.126959 -0.00229874 -0.0123047)
(0.132279 -0.000954551 -0.000217211)
(0.117462 -0.0187045 -0.00407206)
(0.154826 -2.40736e-05 -0.00028797)
(0.161567 7.36339e-05 0.000157766)
(0.148885 0.000372124 -0.000184309)
(0.155328 -4.39861e-05 0.00115993)
(0.0360155 0.000178083 -0.000650164)
(0.100941 -0.00384221 -0.00257064)
(0.112426 -0.00205285 -0.0159858)
(0.156749 0.000236319 7.47019e-05)
(0.116069 -0.00258694 -0.00046448)
(0.136436 -0.0119634 -0.00402308)
(0.151363 -0.00150318 0.00300645)
(0.114787 0.000885232 0.000509795)
(0.03722 -0.00083766 0.00131613)
(0.0565361 -0.00262994 0.00174693)
(0.0257747 0.000159719 -0.000373016)
(0.0248408 0.00016931 -0.00190424)
(0.0364178 -0.000145139 0.000186518)
(0.134029 -0.00706029 0.00470773)
(0.137817 0.000102595 0.000611084)
(0.025166 -0.000861953 0.00349217)
(0.023764 0.00173625 0.002686)
(0.158922 0.000751241 1.49202e-05)
(0.0961852 -0.0124896 0.00849535)
(0.0389617 0.001729 0.000733742)
(0.145485 0.000231009 -4.15758e-05)
(0.109802 -0.000988466 -0.00164608)
(0.13527 4.22463e-05 0.0011507)
(0.0438474 0.00229177 -0.00135221)
(0.0562769 0.00156523 -0.000586961)
(0.114821 -0.00105431 0.000189297)
(0.155451 0.000326934 -0.000267306)
(0.147737 0.000498642 -0.000618411)
(0.0378746 0.0031712 -0.00123124)
(0.0250902 -0.00193214 0.00128294)
(0.106237 -0.0151857 -0.0112405)
(0.0269093 -0.00358363 -4.6128e-05)
(0.135155 -0.000985804 -0.00117673)
(0.0286952 0.00165489 -0.00376418)
(0.108542 -0.000526827 0.00234247)
(0.156879 -0.000435244 -0.000179765)
(0.162768 -0.000840963 0.000920294)
(0.0458164 0.000657115 -0.00114337)
(0.101851 -0.000486335 -0.00102728)
(0.0367523 0.00134715 -0.00137443)
(0.0293052 0.00348485 -0.00129531)
(0.15711 -5.83358e-05 -0.000826241)
(0.0201731 -0.0017093 -0.00266848)
(0.152822 -0.00163828 -0.000217671)
(0.0498474 0.000790662 -0.00235946)
(0.149572 -0.000767374 -0.000122724)
(0.140612 -0.000287344 -9.43669e-05)
(0.0229103 -0.000610652 0.00367846)
(0.0590455 -0.0028185 0.00016126)
(0.144995 0.000311247 0.000268905)
(0.0354461 -0.00177793 -1.93881e-05)
(0.149355 -0.000763218 -0.000358388)
(0.0561631 -0.00220192 0.00350686)
(0.112315 0.000267637 -0.000178081)
(0.158536 -0.000341561 -0.000987091)
(0.0379695 0.00119354 0.000945923)
(0.0245371 0.00107312 -0.00331713)
(0.0524882 0.000841262 -0.000325163)
(0.110741 0.0174177 0.0037654)
(0.10904 0.00041266 0.000198124)
(0.0581903 -0.00235039 0.00287437)
(0.0892873 0.000228238 0.00145026)
(0.0319074 -0.00124921 0.000798563)
(0.158563 -0.000231439 -0.00106405)
(0.0241107 -0.000332918 -0.00153633)
(0.158518 -0.0016396 7.72536e-05)
(0.144588 -0.000740272 0.000366694)
(0.155638 -0.000414148 0.000260923)
(0.0202585 0.00212178 0.000124962)
(0.147997 -0.00110836 0.000500694)
(0.0862968 0.000431903 -0.0002091)
(0.151553 0.000648801 0.000343596)
(0.0563308 -0.000342907 -0.000187463)
(0.108109 -0.0130513 0.0067321)
(0.15406 -0.00160067 2.41387e-05)
(0.0417994 0.000657494 -0.000533745)
(0.159981 0.000463928 0.000116694)
(0.108846 0.00201405 -0.0204818)
(0.120484 0.000291999 -0.000508563)
(0.0340563 0.000835538 -0.00192632)
(0.053004 -0.000497691 -0.00259922)
(0.157938 -7.27589e-05 0.000103654)
(0.133964 0.00137628 -0.000168675)
(0.0335267 0.00164648 0.000561264)
(0.113171 0.00115198 -0.00121994)
(0.0626204 -0.0010202 -0.00193116)
(0.0258279 -0.00233451 0.00147472)
(0.157996 0.000107581 -0.000111793)
(0.103315 -0.00130984 0.0101452)
(0.133448 0.00160634 -0.00200107)
(0.156645 -0.000146867 0.000144595)
(0.157344 2.42945e-05 0.000570162)
(0.154556 -0.000291489 -0.000496424)
(0.134805 0.000646889 0.000746292)
(0.0453529 0.00131527 0.000456377)
(0.0415384 -0.00222335 -0.00205636)
(0.161187 0.00154707 0.000216926)
(0.107542 -0.00942713 0.00881707)
(0.124795 -0.0011153 0.00051791)
(0.131332 -0.00116972 0.000306879)
(0.0848029 0.00181301 0.000842672)
(0.145725 2.27689e-05 0.000433692)
(0.153291 0.000372064 -0.000595326)
(0.103171 -0.000691649 -0.00151004)
(0.108043 0.00208294 0.000138404)
(0.0390589 0.000151638 -0.00245102)
(0.0745137 0.000786307 -0.000645925)
(0.0457667 -0.00134336 -0.00362715)
(0.147078 -1.38232e-05 0.000876707)
(0.158345 -0.000381406 0.000295326)
(0.0982329 0.0013427 -0.00247133)
(0.101993 0.000735575 -0.000532372)
(0.0218544 0.0023539 -0.00046055)
(0.0828197 -0.000405875 -0.000567879)
(0.0605798 -0.00221705 -0.00265078)
(0.157581 -8.3603e-05 -0.00102015)
(0.158006 -0.000848367 -0.000762664)
(0.104799 -0.00961675 0.00610369)
(0.151269 -0.000538555 0.00120165)
(0.0855803 -0.0025595 -0.00181389)
(0.101698 -0.00255626 0.00796805)
(0.134442 -0.000585133 0.00208565)
(0.0279704 -0.00224396 -0.000129377)
(0.157918 -0.000499539 -0.000720346)
(0.051951 0.00160799 -1.14522e-05)
(0.138153 -0.000408051 0.00100946)
(0.0298702 0.00425444 -0.0001629)
(0.15837 0.00114256 -0.000911481)
(0.101642 -0.0043823 0.00271315)
(0.150704 9.10161e-05 -0.000422744)
(0.119552 0.000662442 0.000223912)
(0.143468 6.4421e-05 5.99047e-05)
(0.147081 0.000436732 0.000229055)
(0.159099 0.000177273 -0.000527017)
(0.0359707 -0.00207613 -1.44088e-05)
(0.0498504 0.000698504 -0.00111104)
(0.0302525 -0.000806201 -0.000304681)
(0.156378 -0.000111089 0.000630068)
(0.149084 0.00023193 -0.000968383)
(0.136221 0.00165407 -0.000675602)
(0.153797 0.00050268 -0.000203472)
(0.0221316 0.000406043 0.000592549)
(0.101783 -1.42888e-06 -0.000193208)
(0.0930459 0.000836349 -0.00175526)
(0.157001 -0.000192432 0.000254678)
(0.128757 -0.00101677 -0.000431706)
(0.142295 -0.000275452 -0.000215128)
(0.10894 -0.000263546 0.00151664)
(0.15749 -4.65898e-05 0.000480664)
(0.0217155 -0.00256082 -0.00272295)
(0.0892236 -0.00347118 0.000543114)
(0.146386 -7.02692e-05 0.000362528)
(0.0275569 -0.00233969 0.00202286)
(0.0459663 -0.000762715 -0.00206796)
(0.0643486 -0.00113291 0.000579279)
(0.0230165 0.0014391 -0.00247852)
(0.098621 0.00046562 -0.00123171)
(0.155322 0.00108705 3.36291e-05)
(0.0625575 -0.00186055 -0.00160018)
(0.0203175 -0.00266434 -0.00184706)
(0.109104 0.00037046 -0.000837719)
(0.0267553 0.00027146 0.000421297)
(0.102563 0.00136482 -0.00061172)
(0.156011 0.00013903 -0.000133398)
(0.158736 5.71931e-05 -0.000371514)
(0.156174 0.000215313 -0.000446809)
(0.154513 0.00138231 -0.000592894)
(0.156125 0.000177875 -0.000229624)
(0.132189 0.000552254 0.00145827)
(0.0490877 0.00113148 -0.0012084)
(0.156472 0.000649295 0.000757594)
(0.127268 -0.000105844 0.000825918)
(0.0917499 0.000614946 -0.00148078)
(0.0988482 -0.000833552 0.00142978)
(0.152282 -8.52943e-06 -0.000169235)
(0.119084 -0.00135987 -0.0003563)
(0.0687744 5.31271e-05 0.00189754)
(0.149457 -0.000248687 0.000763282)
(0.03496 0.00116553 0.000478668)
(0.0913897 -2.42747e-05 0.000941374)
(0.0999044 -0.000228348 0.000233276)
(0.0639615 0.00026395 0.00113014)
(0.152629 -0.000111797 0.000343712)
(0.105969 -0.0125011 0.0134283)
(0.127073 0.00691347 0.00473185)
(0.034656 0.000596276 -0.0028846)
(0.028106 -0.00178889 0.000955596)
(0.0585418 0.00218721 -0.00102866)
(0.0216291 -0.00146015 -0.00169061)
(0.12756 0.000421711 -0.000359768)
(0.146158 0.00153773 -0.000393439)
(0.130736 0.00154187 -2.21065e-05)
(0.110456 0.0097674 -0.0111749)
(0.132248 0.000512981 0.000276062)
(0.141637 0.00129105 -0.000162078)
(0.0266815 -0.00197341 0.00518279)
(0.147804 0.00127012 3.60603e-05)
(0.127079 -0.00371262 0.0122758)
(0.0463029 0.000868721 -0.0012264)
(0.0235983 -0.00391779 0.000852786)
(0.117919 0.000167616 0.00110392)
(0.113929 -0.00092707 -0.000827678)
(0.0273479 -0.00187701 0.00310501)
(0.154552 -0.00101577 -0.000384752)
(0.0247058 -0.00283259 0.00202174)