/*--------------------------------*- C++ -*----------------------------------*\
| =========                 |                                                 |
| \\      /  F ield         | OpenFOAM: The Open Source CFD Toolbox           |
|  \\    /   O peration     | Version:  2406                                  |
|   \\  /    A nd           | Website:  www.openfoam.com                      |
|    \\/     M anipulation  |                                                 |
\*---------------------------------------------------------------------------*/
FoamFile
{
    version     2.0;
    format      ascii;
    arch        "LSB;label=32;scalar=64";
    class       volVectorField;
    location    "30";
    object      U:Transformed;
}
// * * * * * * * * * * * * * * * * * * * * * * * * * * * * * * * * * * * * * //

dimensions      [0 1 -1 0 0 0 0];

internalField   nonuniform List<vector> 
59516
(
(0.000517584 -0.000436974 0.109788)
(0.000249346 -0.000144726 0.101712)
(-0.000229177 0.00149373 0.116744)
(-0.00269297 0.000262113 0.129951)
(-0.00444996 0.000207385 0.113938)
(-0.0104344 0.00556553 0.101089)
(-0.000268228 -0.00151035 0.131374)
(-0.000120573 -0.000930739 0.106891)
(-0.000835364 -0.000237618 0.11609)
(0.0023705 0.00106505 0.0588631)
(-0.00112359 -0.000667572 0.149332)
(-0.00235648 -0.00241783 0.0635142)
(-0.000971341 -0.000419288 0.123079)
(0.000134749 -0.00021502 0.0217483)
(1.41013e-06 -0.00356578 0.0652893)
(-0.00143064 0.00411823 0.0554495)
(0.000542731 -0.000263226 0.158464)
(-0.0052544 -0.0016379 0.0707305)
(-0.00423607 -0.00145416 0.116178)
(-0.000216368 0.000652087 0.156474)
(-0.000856925 0.000518157 0.0562591)
(0.000467893 -0.000122409 0.147172)
(0.000275501 -0.000662826 0.152051)
(0.00105945 0.000520198 0.0364334)
(0.000691389 0.00129738 0.156091)
(-0.000598489 0.0016336 0.0697715)
(-0.00055298 0.00281251 0.0453008)
(-0.00316899 -0.00163874 0.0455421)
(-0.00170342 -0.0010096 0.068254)
(0.00243479 0.00195301 0.0192987)
(-0.0214026 0.0012304 0.108314)
(-0.00266115 0.0021479 0.0467853)
(-0.000749178 -0.000517944 0.134038)
(-0.00252513 -0.000844596 0.115083)
(-0.00359445 -0.000420388 0.137967)
(0.000284249 0.000224584 0.144978)
(-0.0028918 0.00139772 0.0185809)
(-0.00669214 -0.00223709 0.0705892)
(-0.00268765 0.000487862 0.0986374)
(0.00200838 -0.000648886 0.152629)
(0.000127321 -0.000798615 0.105966)
(-0.00909558 -4.14776e-05 0.143066)
(-0.00126342 0.000454458 0.147192)
(-0.000948052 0.000615228 0.112263)
(-0.00154698 0.000751367 0.143703)
(0.00180525 0.000407256 0.0589543)
(-0.00254991 -0.000177508 0.133735)
(-0.00135522 0.000325917 0.156517)
(-0.015289 0.00144731 0.11181)
(-0.00560013 -0.000159924 0.147164)
(-0.0179129 0.000521878 0.104032)
(-0.00399284 -0.00196161 0.0473371)
(0.000296141 -0.00213446 0.12362)
(-0.000366993 -4.74887e-06 0.130046)
(-0.0026035 0.000630479 0.0499447)
(-0.000646574 0.000264604 0.131057)
(-0.0102848 -0.000157414 0.142501)
(-0.00479661 -0.00169296 0.0516103)
(0.000485443 0.000549445 0.157863)
(-0.00798553 -0.000292898 0.134286)
(0.000272919 0.000458862 0.146387)
(-0.00160405 0.00214338 0.0207449)
(0.000599291 0.000145677 0.152925)
(-0.000406383 0.000526133 0.154729)
(-0.00078465 0.000170678 0.127641)
(-0.00309098 0.00031669 0.144102)
(0.000255674 0.00322245 0.0288281)
(-0.000160726 0.000261494 0.0439915)
(-0.0226512 0.000450576 0.121265)
(-0.000317407 -0.00124099 0.136862)
(-0.000733811 -0.000982585 0.040057)
(-0.000532188 -3.84408e-05 0.153806)
(0.00393882 -0.00163203 0.0251466)
(0.000556532 4.19114e-05 0.141518)
(-0.000728126 0.000429745 0.160989)
(-6.84033e-05 -0.000137663 0.153917)
(-0.000510227 -0.000309028 0.156879)
(-0.000575703 9.21263e-05 0.145243)
(0.0020478 0.00117064 0.0492521)
(-0.00515055 0.000902847 0.147121)
(-0.00281292 0.000103038 0.0416805)
(-0.00417154 0.000570273 0.143464)
(-0.00345414 0.00057813 0.138291)
(-0.00286624 0.00154498 0.0220223)
(-0.00408386 0.000860311 0.14363)
(-0.000310773 0.000488399 0.158822)
(0.000688998 0.00128991 0.0352891)
(0.000566113 0.000373417 0.148352)
(-0.00259607 -0.0014326 0.0579573)
(-0.00921438 -0.00256583 0.10777)
(-0.0105453 -0.000191162 0.131113)
(-0.00136473 0.00105832 0.135989)
(0.000206923 -2.49998e-05 0.157906)
(-7.93794e-05 0.000907053 0.135325)
(-7.89671e-05 -8.29121e-05 0.149623)
(-0.0112944 6.39197e-05 0.109973)
(-0.00109128 -0.000997722 0.139172)
(0.00201614 0.00420954 0.0567931)
(-0.00187279 -0.00106249 0.0665116)
(0.00125446 0.000868054 0.145348)
(-0.00131612 0.00107907 0.0403992)
(0.00301917 0.001441 0.0267984)
(0.0032304 0.0017397 0.0253283)
(-0.00195186 0.00229899 0.0585671)
(0.000567592 -0.000209665 0.136269)
(-0.000478029 0.000550671 0.141742)
(0.00203646 -0.0035594 0.0434984)
(-0.000572308 -0.000379348 0.110244)
(-0.000623327 0.000454344 0.105683)
(-0.00158766 0.00251452 0.0702084)
(-0.0181212 -0.000309678 0.124754)
(0.00263612 -0.00230221 0.0336237)
(-0.00257491 0.00322658 0.0708075)
(-0.0189977 -7.55186e-05 0.118005)
(-0.000216189 1.43093e-05 0.153001)
(0.000703627 -0.00117687 0.105685)
(-0.00214436 -0.00119894 0.0578455)
(-0.000829982 -0.000422511 0.134138)
(-0.000407967 -0.00107406 0.0237896)
(-0.00108414 0.00132305 0.144327)
(0.000217291 6.9973e-05 0.16079)
(0.000505453 0.000310873 0.155349)
(0.000180688 0.000278542 0.153303)
(-0.000118149 0.000382638 0.153936)
(-0.0168349 0.00136516 0.131987)
(-0.00233462 1.14223e-07 0.0921128)
(-0.00203605 -0.000839307 0.0324665)
(-0.0116175 0.00218983 0.137843)
(-0.013002 0.00307293 0.0898649)
(0.000652669 7.53114e-05 0.159116)
(0.000981396 -0.00070633 0.159152)
(0.0013776 0.00187911 0.1176)
(-0.000626865 -0.0022128 0.0253671)
(0.000347521 0.000556198 0.147029)
(0.000858774 0.000377151 0.10715)
(-0.00139023 0.00132911 0.120763)
(-0.0151251 0.00139132 0.107726)
(0.000437118 0.000599982 0.133286)
(-0.00038252 0.00282492 0.0428188)
(-0.00120553 0.00090991 0.103843)
(-0.00108699 0.00233887 0.0473817)
(2.35103e-05 -7.11813e-06 0.160589)
(-0.000989142 -0.00173997 0.0201932)
(-0.000479843 0.00123529 0.128659)
(-0.000205764 0.000306638 0.157244)
(-0.00114556 0.000780767 0.140526)
(-0.00207413 0.0010151 0.141233)
(-0.0016466 0.00125652 0.121929)
(0.000962625 -0.00176748 0.062144)
(-0.000196979 0.00108211 0.111526)
(-7.70474e-05 -0.000790826 0.109153)
(0.000139202 0.00140265 0.0383072)
(0.00105621 0.000800019 0.156953)
(0.00100138 0.000108173 0.150168)
(-0.000349011 -0.00187071 0.0951153)
(-0.00202059 0.00114362 0.020516)
(0.000297669 -0.000201594 0.118234)
(-0.000868318 0.000589873 0.118737)
(-0.00107103 0.000631253 0.0881113)
(-0.00311742 -0.00221566 0.0212029)
(0.00279801 0.00233573 0.0690253)
(0.0037535 -0.00198317 0.0711307)
(-0.000715832 0.00148795 0.037834)
(-0.000300298 -0.000543799 0.0276344)
(0.00277926 0.000237375 0.104934)
(-0.000914633 0.000521893 0.159209)
(0.000733736 -3.51993e-05 0.064994)
(-0.000448945 -0.000180856 0.158422)
(0.00128894 0.00249485 0.021538)
(-0.0004365 -0.000301491 0.133798)
(-0.00138292 -0.00118071 0.0890281)
(-0.000895145 0.000698995 0.0555889)
(4.28796e-05 -0.00192855 0.0681576)
(0.000623118 -0.000887784 0.137259)
(0.000580835 0.000785782 0.053508)
(-0.0027502 -0.000893764 0.135829)
(-0.0010109 -1.71615e-05 0.155761)
(-0.00288836 0.000483851 0.148432)
(0.000682863 -0.00350689 0.0712043)
(0.000483652 0.000307858 0.0437743)
(-0.000591787 -0.00178759 0.144023)
(0.00104535 0.00317171 0.0358219)
(-0.00120177 -0.00223175 0.0311332)
(0.000529764 0.00179315 0.0682508)
(0.000469848 -0.000707758 0.15827)
(-0.000371909 0.000653755 0.0620606)
(-0.00292115 0.000684585 0.0376472)
(9.83039e-05 0.000365017 0.0248562)
(-0.000162037 -0.000272213 0.125235)
(0.00136832 0.000790502 0.105076)
(-0.00276955 -0.000488967 0.134252)
(-0.00075049 -0.00312735 0.0551132)
(-0.000420186 -0.000258161 0.154719)
(0.00192972 -0.00174638 0.0606482)
(-0.000308632 0.000517717 0.150953)
(0.000526463 0.000757625 0.0312703)
(0.000809101 -3.48775e-05 0.0603799)
(0.00034948 -0.00107323 0.0434656)
(-0.00452599 -0.000225058 0.114076)
(0.000344967 -8.07621e-05 0.149481)
(-0.0016796 -0.00210207 0.0849383)
(-7.24525e-06 -0.000190562 0.159446)
(0.000363288 0.000989931 0.107623)
(0.00185861 -0.00205823 0.0209013)
(0.00128841 0.00112704 0.131492)
(7.78407e-05 -5.14659e-05 0.143572)
(9.20642e-05 0.000218982 0.159753)
(-3.7074e-05 -0.000256095 0.145331)
(0.000185039 -0.00063462 0.0244558)
(0.00148784 0.00092131 0.117929)
(-0.000260031 0.00483371 0.0535005)
(-0.00388816 0.000837457 0.0246693)
(-0.00118409 0.000938321 0.143544)
(-0.000219437 0.0012965 0.0590456)
(-0.000658268 -0.000863231 0.120214)
(-0.000826787 -0.000291909 0.157889)
(-0.000780509 0.000346202 0.139257)
(-0.000696049 0.000754905 0.152814)
(-0.00197753 0.00310689 0.0574253)
(0.00067456 0.000338397 0.152156)
(-0.00133675 -0.00259884 0.0589994)
(-0.000238679 0.000637716 0.108084)
(-0.000863962 -0.00107956 0.152742)
(0.000450286 -0.000727394 0.0430085)
(-0.00133243 -0.000620403 0.15434)
(0.000423248 0.000648728 0.156089)
(-0.00105127 -0.00108851 0.0298288)
(-0.00281471 0.000574382 0.04994)
(-0.000669985 0.000870086 0.15577)
(-0.00205569 0.00349248 0.0576589)
(0.000512453 0.000798946 0.158796)
(-0.000659008 0.000353535 0.156822)
(-0.000774728 -0.000929106 0.157274)
(-0.00141013 -0.00227528 0.02673)
(-0.00152003 -0.00130463 0.0349516)
(-0.00154105 5.60995e-05 0.0367273)
(0.000599263 -0.000500801 0.0670851)
(-0.00173318 -0.000532003 0.101446)
(-0.0014088 -2.20545e-05 0.149041)
(0.00191745 -0.000232121 0.0604706)
(0.000965293 0.000153233 0.158929)
(0.00274642 0.00188286 0.0220928)
(0.000576669 0.00052118 0.0571955)
(0.00254067 0.0014206 0.0269227)
(0.000719679 0.000364694 0.158383)
(-0.00017141 -0.000693549 0.0981532)
(-0.000672667 -1.08869e-05 0.142738)
(-0.000170684 0.00150988 0.0691002)
(0.000517508 0.000446438 0.157721)
(-0.00038124 -0.000167266 0.10913)
(0.00191378 -0.000735124 0.156351)
(-0.000734402 0.000259743 0.139647)
(0.00087389 0.0005177 0.158607)
(-1.34437e-05 0.000393144 0.142316)
(-0.000406094 0.00125819 0.144218)
(-0.000164795 0.000565865 0.151165)
(-0.000300945 -0.000114054 0.0586615)
(-0.00125307 -7.1569e-05 0.14806)
(0.00126878 0.00219284 0.0448686)
(-0.000360637 0.0022007 0.0633874)
(-0.00107624 0.000294559 0.132529)
(-0.000608298 0.00119865 0.152726)
(0.00249652 0.000911861 0.119033)
(-0.000162143 0.00113415 0.158402)
(0.00221115 0.000477812 0.103687)
(0.000163654 -0.00297963 0.0612649)
(4.74177e-05 -0.000676823 0.152289)
(0.00153788 0.00039091 0.0978721)
(-0.000594954 -0.000849932 0.0495578)
(-0.000150983 0.00142547 0.0550344)
(-0.00154118 0.00202224 0.101127)
(-0.000710557 -0.000504252 0.155526)
(-0.0012208 0.00176235 0.103639)
(-0.000435976 0.00130585 0.0983033)
(-0.00140093 0.000597314 0.154389)
(0.000124154 0.0028627 0.0976713)
(-0.00138365 -0.00290238 0.0230612)
(0.000406496 0.00125276 0.154215)
(0.00231343 -0.00175661 0.0277011)
(0.00190392 0.000986299 0.04341)
(-0.000724505 -0.000833736 0.156727)
(-0.000109403 0.000702462 0.139688)
(-0.00371828 0.00187825 0.0269913)
(-0.000506801 -0.000797787 0.124757)
(-0.00109958 -0.00183929 0.128873)
(0.000514547 0.000573817 0.155981)
(0.00029086 -0.000428308 0.157824)
(0.00231621 -0.0022629 0.026462)
(-0.00106081 0.000304157 0.156848)
(-0.000737214 -0.00142223 0.156936)
(-0.000276448 -0.00110874 0.155462)
(-0.000799756 -0.000705452 0.135518)
(-0.00157499 0.00082634 0.135404)
(-0.000511516 -0.000206889 0.100046)
(0.000107112 -0.00102304 0.159516)
(-4.57541e-05 0.00181521 0.0303411)
(0.0010087 -0.00156186 0.149973)
(0.00107638 0.000779754 0.140582)
(-0.000632934 -0.00129771 0.158337)
(-9.3696e-06 -0.001354 0.152593)
(0.000798117 -0.000405801 0.120416)
(0.00112173 -0.00103724 0.0636248)
(-0.000790272 -0.00157934 0.024878)
(0.000824543 0.000487902 0.0308965)
(-0.00116504 0.00112301 0.157574)
(-0.00333913 0.00136208 0.0225108)
(-0.000795801 -0.00090358 0.0673866)
(-0.00102695 0.00310122 0.0552453)
(0.000881908 -0.000589773 0.155853)
(-0.000119761 -0.000590075 0.16021)
(0.000339 0.000467942 0.151476)
(0.00131646 0.000443317 0.0624881)
(0.00227442 4.18796e-05 0.106942)
(4.81152e-05 0.00456315 0.0432023)
(0.000834784 -0.00171355 0.0574876)
(0.000206862 -0.000613016 0.148086)
(0.00077067 -0.00149304 0.103333)
(-0.0128461 -0.00158656 0.107729)
(0.000137897 -0.00214567 0.0939555)
(-0.000625421 -3.66399e-05 0.0465212)
(0.00215317 -5.31054e-05 0.0682442)
(-0.000323469 -0.00159144 0.112064)
(-5.18996e-05 1.33005e-05 0.158658)
(-0.000583857 -0.000161212 0.160425)
(-0.000944245 0.000713975 0.159659)
(5.13748e-05 0.00164878 0.154813)
(-0.00496749 -0.000966642 0.098213)
(-0.00126662 0.000488647 0.128472)
(-0.000947009 0.00149561 0.1527)
(3.16531e-05 -9.66352e-05 0.152941)
(0.000954475 -0.000233144 0.154784)
(-0.00254762 -0.00234323 0.0606011)
(0.00305807 -0.00116833 0.0242438)
(0.000464116 -0.000302702 0.146722)
(0.0012349 0.00271417 0.0429023)
(8.20464e-06 -0.000253939 0.0347492)
(-0.00140148 -0.000269955 0.151563)
(0.000609814 0.000537545 0.144462)
(-0.00144948 0.00262941 0.0616458)
(-0.000740292 -0.000887009 0.156505)
(0.000230111 0.00148196 0.15643)
(-0.000944928 -0.000145536 0.159149)
(-0.000173646 -0.000399967 0.158238)
(-3.70132e-05 -0.00151848 0.0351925)
(0.000253035 -0.00046673 0.154113)
(-0.0013244 0.000229756 0.156715)
(7.30282e-05 0.000797704 0.0617097)
(0.000119042 -0.00142772 0.157811)
(-6.92521e-05 0.000327756 0.156799)
(0.000791123 0.000662057 0.133193)
(0.000468194 0.000450713 0.12513)
(-0.000375921 -0.00104539 0.146122)
(0.000828843 0.00122383 0.142553)
(-0.000494617 0.000238025 0.0743687)
(-0.000601891 0.00158507 0.0341792)
(0.000399791 0.00280884 0.0376926)
(0.00047114 0.000439187 0.100352)
(-0.0123529 4.82133e-05 0.0864213)
(-0.00729176 0.000772608 0.0746984)
(0.000164729 -0.000291967 0.0884293)
(0.00134591 -0.00123899 0.118842)
(-0.000247509 0.000372994 0.133318)
(-0.00242197 0.000924769 0.151919)
(0.000773407 -0.000146133 0.153389)
(-0.000382225 -0.000371248 0.134297)
(-0.000593508 -0.000435106 0.145457)
(-0.0013418 -2.62628e-05 0.144989)
(-0.000481235 0.000955254 0.034294)
(-0.0224641 0.000873606 0.113831)
(0.000458295 0.00181305 0.062327)
(-0.0012184 0.0017834 0.0447697)
(0.000948296 0.000313611 0.0450399)
(-0.000165133 -0.000210383 0.153294)
(-0.000173463 0.000212319 0.0988838)
(-0.00072566 1.50408e-05 0.153894)
(-0.00148961 0.00166899 0.0217446)
(0.000300787 -9.97047e-05 0.128971)
(0.00129676 -0.00073516 0.0484033)
(-0.000306507 0.000775655 0.154586)
(-0.000492704 0.000710161 0.0516621)
(0.00175086 0.000641005 0.0660587)
(0.000789529 0.00243056 0.111933)
(-0.00116167 0.000589814 0.147661)
(0.00297739 -0.000129713 0.021737)
(2.69785e-05 0.00278891 0.0582964)
(-0.000339372 -0.000498215 0.134004)
(-3.13677e-05 -0.00246194 0.025533)
(-0.00746372 -2.78157e-05 0.130454)
(0.00029275 -0.00234788 0.119552)
(0.000347196 -0.00167577 0.133665)
(0.00239462 -0.00218897 0.0995467)
(0.00208969 0.00063533 0.0933523)
(0.00118027 -0.000784432 0.155249)
(-0.00995439 -0.00323369 0.0774108)
(-0.00152613 -0.000479957 0.159995)
(-0.0120089 0.000648464 0.111323)
(-0.00198604 0.00149385 0.0638734)
(-0.000462439 0.00153434 0.066863)
(-0.000436052 -0.000989007 0.160214)
(0.000643611 -0.00141227 0.161789)
(0.00059796 -0.000404643 0.056395)
(-0.000205937 -0.000881462 0.136691)
(-0.00215484 0.000900373 0.10321)
(0.000770348 -0.000519516 0.159146)
(0.000628272 -0.000902792 0.158699)
(-0.0010857 -0.00360297 0.0494115)
(-0.000552301 0.0005767 0.134072)
(0.00183136 -6.97646e-05 0.144146)
(-0.000223148 -0.000279363 0.146452)
(0.000220308 -0.000310029 0.15218)
(0.00284929 -0.00139004 0.0235875)
(-0.00305025 -0.000830964 0.0228453)
(-0.00105093 0.00125809 0.128553)
(8.91471e-05 -0.000158373 0.158407)
(0.000953132 0.0011048 0.159409)
(-0.00234497 0.00119901 0.0378888)
(0.00060585 -0.000808634 0.154573)
(-0.00100208 0.000616689 0.112226)
(-0.00099284 -0.000329681 0.154758)
(0.00122903 0.000666177 0.160022)
(0.000622747 0.000369148 0.160204)
(-0.000334516 -0.00146875 0.15821)
(-0.000175107 -0.00191151 0.158508)
(0.000237814 -0.000510663 0.0946095)
(-0.00162743 0.000372425 0.158347)
(-0.00211125 0.00252667 0.0601479)
(2.19344e-05 0.000377756 0.155218)
(-0.000862452 -0.000915479 0.113889)
(-0.00123952 0.00053316 0.147149)
(-0.000366458 -0.000262749 0.157416)
(-0.000148963 -6.92687e-05 0.147395)
(0.00106171 0.00032148 0.142586)
(0.0019226 0.00273323 0.0436535)
(0.000948242 0.000174797 0.0367395)
(-0.00219034 -0.00221085 0.0233678)
(-0.0061925 0.000185169 0.148236)
(-8.63852e-05 7.07321e-05 0.163518)
(-0.000866648 0.000100344 0.137534)
(0.000111498 -0.00171044 0.129401)
(0.00118281 8.93233e-05 0.0335511)
(0.00077435 -0.00287708 0.025801)
(-0.000942167 -0.00158749 0.118495)
(-0.00102287 0.000823511 0.146086)
(-0.000608088 -0.000304766 0.157933)
(0.00062692 -0.000631617 0.151022)
(-0.00122146 -0.000533657 0.137439)
(-0.000536031 0.000937473 0.161213)
(0.000973166 -0.00046878 0.13599)
(-0.00123589 0.00250527 0.0287518)
(-0.000312848 0.000587824 0.125901)
(0.00268455 -0.00157262 0.0618123)
(-0.00710105 -0.000778136 0.0705425)
(0.000401883 0.000154713 0.147555)
(0.000114899 0.000361432 0.0993938)
(0.000297308 -0.000279635 0.144089)
(-0.00385399 0.00231901 0.0225981)
(0.00169435 -0.000772091 0.161324)
(-4.54414e-05 -2.99776e-05 0.160014)
(-0.00143033 0.000597254 0.157572)
(0.000812437 -0.000631146 0.0971455)
(-0.000360302 -0.000821831 0.147311)
(-0.000961422 -0.000587997 0.156054)
(-9.30213e-05 0.000335713 0.123387)
(-0.000968736 0.000367648 0.157856)
(-0.00401 -0.000733325 0.100549)
(-0.000169885 -0.000150155 0.157592)
(-0.00209584 0.000436471 0.146372)
(0.00162787 -0.00128236 0.0223717)
(-1.12257e-05 0.000949741 0.159196)
(0.00120817 0.00132245 0.119096)
(-0.00312496 -0.00283746 0.04958)
(-0.000765897 0.00141076 0.0962332)
(0.000468291 0.000509682 0.155285)
(-4.22388e-07 -0.000552896 0.131455)
(0.000969699 0.00233258 0.0897232)
(-0.00255351 0.00165082 0.0221785)
(-0.000419187 0.000924071 0.158728)
(0.000169218 0.00240033 0.126967)
(-0.000226781 0.000254838 0.15363)
(-0.000689847 3.66225e-05 0.126779)
(-0.00256969 0.000625521 0.039603)
(0.000644264 -6.91154e-05 0.139588)
(-0.00395942 0.000206322 0.0269108)
(-9.28743e-05 0.000360925 0.153064)
(-0.0119571 0.000595356 0.102276)
(0.000203414 0.000332361 0.155322)
(-0.000378355 0.00183602 0.0555313)
(-0.00147582 0.00149731 0.111125)
(-0.000559717 0.00151046 0.0999423)
(0.00212128 -0.00208193 0.037437)
(0.000645114 0.000219728 0.157142)
(-0.000923686 0.000494866 0.153359)
(-0.00227555 -0.000876811 0.0239446)
(0.000853801 -0.00120377 0.151033)
(-0.000579947 -0.00142449 0.157334)
(-0.000597479 0.00208157 0.0398465)
(0.0014718 0.0024653 0.06512)
(-0.00157227 0.00196666 0.0569952)
(-0.000509152 0.00116788 0.148033)
(0.000487938 -0.000261428 0.157017)
(-0.00114975 0.00125679 0.0333056)
(0.00194644 -0.000648967 0.0576742)
(-0.000223283 0.00113883 0.0602327)
(0.00123289 0.000741158 0.118194)
(0.00046567 -0.000519231 0.157316)
(-0.00305399 -0.00197137 0.0249169)
(0.00120265 0.000817294 0.153589)
(-0.00111715 -0.000646615 0.148527)
(-0.000719799 -0.000812332 0.15772)
(-0.00234582 -0.00482747 0.0900995)
(0.00105098 0.000367836 0.158637)
(0.00134096 -0.00239871 0.0245693)
(-0.000878045 5.14473e-05 0.155467)
(0.000224772 -0.000483984 0.0292415)
(0.000469204 -0.0019878 0.0620779)
(5.60399e-05 0.000638598 0.149817)
(-0.00111371 0.0016151 0.0639486)
(-0.00301039 0.00178678 0.0223278)
(0.000353067 -0.00140957 0.0396898)
(0.000217027 0.00284161 0.0485199)
(0.000848097 -0.00191577 0.0623133)
(-0.000667293 0.000351706 0.145417)
(-0.000193654 0.00123164 0.0531895)
(0.00115754 -0.00208987 0.0627705)
(-0.0146772 0.000438347 0.127892)
(-0.00102361 4.04269e-05 0.15392)
(0.00171832 -5.38128e-05 0.0258015)
(0.00044446 0.000928975 0.110432)
(-0.00824537 -0.00431187 0.0814934)
(0.00167778 0.000139963 0.15682)
(-0.00109088 0.00091274 0.0618543)
(-0.00123883 0.000443498 0.152051)
(0.00160107 0.00251696 0.0608142)
(-0.000797962 0.000360478 0.12471)
(-0.000845248 -0.000643637 0.157928)
(0.00310083 -0.00456414 0.0543943)
(4.64901e-06 0.000161845 0.159605)
(-0.00295628 -0.000957336 0.0481461)
(0.00287293 -0.00184571 0.0208303)
(-0.000615337 -2.6779e-05 0.143037)
(0.000126693 -0.00097157 0.157211)
(-0.000815755 0.000394612 0.131153)
(0.000943087 -0.00163583 0.127308)
(0.00170712 -0.000173459 0.15879)
(0.00153937 -0.000141557 0.063966)
(0.00173321 -0.000133661 0.155902)
(0.00136612 0.00288838 0.0602962)
(-0.000788348 -0.000631141 0.157637)
(0.00174422 0.000640904 0.128335)
(-0.00366271 -0.00241407 0.0301189)
(-0.000333776 0.00058531 0.150428)
(0.00106624 -0.0015334 0.0556144)
(0.00152731 0.00242099 0.0281795)
(-0.000307898 8.72102e-05 0.148381)
(-0.00164246 0.000119238 0.045766)
(-0.000210899 0.000617338 0.137051)
(0.000501875 0.000565587 0.155987)
(-0.000478028 0.0011853 0.131388)
(0.000311939 0.00374621 0.0569309)
(0.00140555 -0.000253934 0.161389)
(0.0015153 0.0003957 0.0942135)
(-0.000553924 0.000545686 0.163288)
(0.00038614 0.000174089 0.160873)
(0.00104338 0.000649962 0.161102)
(0.000316809 -0.000817173 0.157274)
(0.00305275 -0.00121404 0.0468556)
(0.000606806 0.000324218 0.0542764)
(-0.000679236 0.000374455 0.159334)
(-0.000756952 -0.00137718 0.153971)
(0.000475585 0.00257158 0.0340716)
(-0.000211692 -0.000241356 0.152193)
(-2.6988e-05 0.000609025 0.162717)
(0.000924527 0.00126422 0.159924)
(0.000993807 0.00131873 0.160462)
(-0.000837477 0.000841451 0.119975)
(-0.00178555 0.00245342 0.022988)
(0.000436051 0.000416079 0.161774)
(0.00117221 -0.00143502 0.103347)
(-0.000447291 -0.000297138 0.144779)
(-2.78488e-05 7.95409e-09 0.0994945)
(-0.00196173 -0.00117139 0.0314038)
(-0.00087076 0.000636137 0.156773)
(-0.00166438 0.00241713 0.0950898)
(0.000589097 -4.97501e-05 0.134998)
(0.000940297 0.00143204 0.159937)
(-0.000944933 0.00105889 0.139914)
(0.00172936 0.00213065 0.0185466)
(-0.00252978 0.00113652 0.0238203)
(-0.00016077 -0.00140225 0.155165)
(-4.67416e-05 -0.000359814 0.152568)
(-0.000264976 0.00160345 0.159659)
(-0.00081857 8.90043e-05 0.145123)
(-0.000200404 0.0014782 0.095524)
(-0.000250913 0.00128149 0.146184)
(0.000188099 9.50006e-05 0.158229)
(0.000773727 0.00172059 0.0216933)
(-0.000134632 -0.00144502 0.155498)
(-0.0134133 0.00113369 0.134648)
(-0.000236406 0.0021996 0.0400164)
(-0.000440664 0.0037722 0.0572079)
(-1.33818e-05 0.0011813 0.143973)
(0.00165912 -0.000261234 0.140958)
(0.000147693 -0.000850526 0.13797)
(0.000665478 -0.000360399 0.127228)
(-0.00310581 0.00207558 0.108933)
(-0.000236482 -0.000257056 0.159847)
(0.00101561 -0.00272134 0.101594)
(0.00142075 -0.000595266 0.160995)
(0.000168308 -0.000330317 0.155702)
(0.00161099 -0.000914917 0.161868)
(0.00123779 -0.000920513 0.15605)
(0.0016 0.00135346 0.0425314)
(0.00119255 -0.000125565 0.154924)
(-0.000499792 -0.00165141 0.034532)
(-0.0105324 -0.00142363 0.0944367)
(0.00193479 -0.00127654 0.0630411)
(-0.0125167 -0.000150004 0.126959)
(0.000960389 0.000189738 0.132279)
(-0.0191349 0.000541288 0.117462)
(0.000208804 0.000199768 0.154826)
(0.000110627 0.000134438 0.161567)
(-0.000353321 0.000218197 0.148885)
(0.000929858 0.000694785 0.155328)
(-0.000666902 -9.83311e-05 0.0360155)
(-0.00462046 0.000148633 0.100941)
(-0.0160803 0.00108866 0.112426)
(-0.000231691 -8.80127e-05 0.156749)
(-0.000644725 0.002548 0.116069)
(-0.0125825 0.000994466 0.136436)
(-0.00323051 0.000928478 0.151363)
(0.000696164 0.000747584 0.114787)
(-0.00141272 -0.000661884 0.03722)
(0.00171646 0.00264993 0.0565361)
(-0.000359719 -0.000187759 0.0257747)
(0.00142207 0.00127769 0.0248408)
(-0.000230132 -5.37914e-05 0.0364178)
(-0.00844886 0.000791878 0.134029)
(-0.000615112 7.47406e-05 0.137817)
(-0.00241725 -0.00266366 0.025166)
(-0.00308888 0.000829474 0.023764)
(0.000449119 0.000602394 0.158922)
(-0.0147513 0.00324945 0.0961852)
(-0.00187709 6.57948e-05 0.0389617)
(-9.67806e-05 -0.00021384 0.145485)
(-0.00175632 0.00077587 0.109802)
(0.0011354 -0.000191751 0.13527)
(0.0015339 0.00217436 0.0438474)
(-0.0010212 -0.00132349 0.0562769)
(0.000315186 0.00102375 0.114821)
(0.000169457 0.00038681 0.155451)
(-8.61458e-05 0.000789718 0.147737)
(-0.0018978 0.00282327 0.0378746)
(-0.000731545 -0.0022009 0.0250902)
(-0.0188919 0.000224605 0.106237)
(-0.00300582 0.00195181 0.0269093)
(-8.59365e-05 0.00153268 0.135155)
(-0.0039255 -0.00122399 0.0286952)
(0.000581143 0.00232959 0.108542)
(-0.00039788 -0.000251881 0.156879)
(0.00101551 0.000723119 0.162768)
(-0.000652864 -0.00114581 0.0458164)
(0.000860109 -0.000742992 0.101851)
(-0.00189089 -0.000358334 0.0367523)
(-0.00371199 -0.000207669 0.0293052)
(0.000381089 -0.000735424 0.15711)
(-0.00286113 0.00136252 0.0201731)
(0.0015599 -0.000545946 0.152822)
(-0.000687348 -0.0023916 0.0498474)
(-0.000135835 0.000765162 0.149572)
(-0.000123641 0.000276016 0.140612)
(0.00345891 0.00139281 0.0229103)
(-0.000964186 -0.00265335 0.0590455)
(0.000108188 0.000396837 0.144995)
(-0.000223083 0.00176399 0.0354461)
(0.000374811 -0.000755289 0.149355)
(-0.00135147 0.00391408 0.0561631)
(0.000320525 -2.46207e-05 0.112315)
(0.000447305 0.000943892 0.158536)
(0.00152116 7.32819e-05 0.0379695)
(-0.00341898 -0.000682252 0.0245371)
(-0.00083739 -0.000335007 0.0524882)
(-0.0178199 7.29593e-05 0.110741)
(-0.000418982 0.000184379 0.10904)
(0.000364408 0.00369507 0.0581903)
(0.00146596 -7.94825e-05 0.0892873)
(0.000510242 0.00139207 0.0319074)
(0.000650954 0.000872943 0.158563)
(0.000948441 0.00125364 0.0241107)
(-0.000328463 0.00160822 0.158518)
(0.000505763 0.000653201 0.144588)
(0.000399444 0.000282921 0.155638)
(-0.00210565 -0.000289484 0.0202585)
(0.00104663 0.000619454 0.147997)
(-0.000160767 0.000452125 0.0862968)
(0.000228299 0.000697768 0.151553)
(6.88544e-05 0.000384691 0.0563308)
(-0.0146794 0.00041314 0.108109)
(-0.00113868 0.00112523 0.15406)
(0.000846861 -2.83181e-06 0.0417994)
(5.7052e-05 0.000474964 0.159981)
(-0.0204431 0.00237486 0.108846)
(-0.000471631 -0.000348517 0.120484)
(-0.000868306 -0.00191177 0.0340563)
(-0.00117553 0.00237102 0.053004)
(8.3507e-05 9.52077e-05 0.157938)
(0.000381986 -0.00133293 0.133964)
(-0.00104072 0.00139385 0.0335267)
(-7.9237e-05 -0.00167602 0.113171)
(0.00194931 0.000985074 0.0626204)
(-0.00186211 0.00203894 0.0258279)
(-0.000117914 -0.000100836 0.157996)
(-0.0102182 0.000478478 0.103315)
(-0.000970223 -0.00237556 0.133448)
(0.000134746 0.000155952 0.156645)
(0.000550692 0.000149711 0.157344)
(0.000568542 -9.03488e-05 0.154556)
(0.000714724 0.000681606 0.134805)
(0.0013127 0.000463725 0.0453529)
(-0.00044523 0.00299561 0.0415384)
(0.00155966 8.91513e-05 0.161187)
(-0.0128975 -0.000515763 0.107542)
(0.000220396 0.00120977 0.124795)
(0.00108935 -0.000525121 0.131332)
(0.00180697 -0.000855546 0.0848029)
(-5.22147e-05 0.000431139 0.145725)
(-0.000379754 0.00059045 0.153291)
(-0.00139257 -0.000905184 0.103171)
(-0.0014115 0.001538 0.108043)
(-0.00108786 0.0022016 0.0390589)
(-0.000916749 -0.000441666 0.0745137)
(-0.00312133 -0.00228433 0.0457667)
(2.52228e-05 -0.000876453 0.147078)
(-0.000144805 -0.00046013 0.158345)
(-0.000150782 0.00280848 0.0982329)
(5.45675e-05 -0.000906373 0.101993)
(0.00133149 -0.00199501 0.0218544)
(7.31998e-05 -0.000694164 0.0828197)
(-0.00316593 -0.00138522 0.0605798)
(-0.00086819 0.000542155 0.157581)
(0.000981164 0.000581979 0.158006)
(-0.0113674 -0.000720891 0.104799)
(-0.00126203 0.000375895 0.151269)
(-0.00128181 0.00286325 0.0855803)
(-0.00835927 0.000383149 0.101698)
(-0.00033297 -0.00214043 0.134442)
(0.00205303 0.000914972 0.0279704)
(0.000670684 0.000564465 0.157918)
(-0.00028979 0.00158171 0.051951)
(-0.00100727 -0.000413421 0.138153)
(0.00385447 -0.00180829 0.0298702)
(0.00139502 0.00043607 0.15837)
(-0.00514649 -0.000281803 0.101642)
(6.22686e-07 -0.00043243 0.150704)
(0.000162367 -0.00068015 0.119552)
(2.88784e-05 8.30944e-05 0.143468)
(-1.89797e-05 0.000492789 0.147081)
(-2.99208e-07 0.000556033 0.159099)
(0.000211781 0.00206535 0.0359707)
(-9.15777e-05 -0.00130917 0.0498504)
(-0.000401789 0.000762468 0.0302525)
(4.07717e-05 0.000638486 0.156378)
(0.000912438 -0.000398766 0.149084)
(0.00176249 0.000293235 0.136221)
(0.000531712 -0.000106635 0.153797)
(0.000265376 -0.000667503 0.0221316)
(-0.000100509 0.000165013 0.101783)
(0.00137417 -0.00137552 0.0930459)
(7.06774e-06 0.000319126 0.157001)
(-0.00107754 -0.00024312 0.128757)
(-0.000217583 -0.000273517 0.142295)
(-0.00140538 0.000628148 0.10894)
(9.28068e-05 0.000473915 0.15749)
(-0.00303549 0.0021813 0.0217155)
(0.000438661 0.00348592 0.0892236)
(-0.000181283 0.000321715 0.146386)
(-0.000163797 0.00308857 0.0275569)
(0.000315966 0.00218137 0.0459663)
(-0.00109826 -0.000642564 0.0643486)
(-0.00262932 -0.0011405 0.0230165)
(0.00131675 9.88168e-06 0.098621)
(-0.00108422 8.52924e-05 0.155322)
(-0.000500349 0.00240247 0.0625575)
(0.00250241 0.00206114 0.0203175)
(-0.000376079 -0.000835212 0.109104)
(0.000500687 2.22282e-05 0.0267553)
(-8.17066e-05 0.00149341 0.102563)
(0.000160859 0.000106059 0.156011)
(0.000267067 0.000264516 0.158736)
(0.00020095 0.00045345 0.156174)
(0.00126731 0.000810085 0.154513)
(0.000225976 0.000182486 0.156125)
(-0.000291665 0.00153182 0.132189)
(0.00122776 -0.00111046 0.0490877)
(0.000997516 -2.22188e-05 0.156472)
(-9.9224e-05 -0.00082674 0.127268)
(-0.000665747 -0.00145864 0.0917499)
(-0.00160301 -0.000411615 0.0988482)
(0.000164652 -4.00346e-05 0.152282)
(-0.00104779 0.000937204 0.119084)
(0.00104856 0.00158241 0.0687744)
(-8.30126e-06 -0.000802731 0.149457)
(0.000341882 -0.00121272 0.03496)
(0.000748031 0.000572036 0.0913897)
(0.000226396 -0.000235171 0.0999044)
(-0.00095203 0.000663724 0.0639615)
(0.000227302 0.000281017 0.152629)
(-0.0183415 -0.000428867 0.105969)
(-0.00837691 0.000117851 0.127073)
(-0.000574536 0.00288901 0.034656)
(0.00199722 -0.000352705 0.028106)
(-0.000272777 0.00240158 0.0585418)
(0.00216 -0.000569742 0.0216291)
(-0.00045942 0.000310171 0.12756)
(-0.000281766 0.00156206 0.146158)
(-0.000728713 0.00135898 0.130736)
(-0.0147978 0.00114254 0.110456)
(-0.000424181 0.000399287 0.132248)
(-0.000194739 0.00128653 0.141637)
(0.00466435 0.00299992 0.0266815)
(-0.000619699 0.00110927 0.147804)
(-0.0128245 -0.000101758 0.127079)
(-0.00145158 -0.000389418 0.0463029)
(0.00302643 0.00263003 0.0235983)
(-0.000330256 -0.00106662 0.117919)
(-0.00104033 -0.000679863 0.113929)