/*--------------------------------*- C++ -*----------------------------------*\
| =========                 |                                                 |
| \\      /  F ield         | OpenFOAM: The Open Source CFD Toolbox           |
|  \\    /   O peration     | Version:  2406                                  |
|   \\  /    A nd           | Website:  www.openfoam.com                      |
|    \\/     M anipulation  |                                                 |
\*---------------------------------------------------------------------------*/
FoamFile
{
    version     2.0;
    format      ascii;
    arch        "LSB;label=32;scalar=64";
    class       volScalarField;
    location    "60";
    object      epsilon;
}
// * * * * * * * * * * * * * * * * * * * * * * * * * * * * * * * * * * * * * //

dimensions      [0 2 -3 0 0 0 0];

internalField   nonuniform List<scalar> 
59516
(
0.010178
0.00873151
0.00666019
0.0054863
0.00922148
0.345174
0.00627237
0.0084269
0.00739912
0.0193309
0.00700739
0.0232026
0.00702692
0.0687233
0.0167962
0.0200107
0.00409225
0.0380601
0.0129303
0.0032472
0.031334
0.00387742
0.00439092
0.0278819
0.00309045
0.0150394
0.0274824
0.0419316
0.0217209
0.0483032
0.0457923
0.0374266
0.0048327
0.00722347
0.00834228
0.00404748
0.0466583
0.0437748
0.0153364
0.00307166
0.00885313
0.00944814
0.00684731
0.00931935
0.00626104
0.0205711
0.00859321
0.00575085
0.0126268
0.00757545
0.0271115
0.0224138
0.00644459
0.00599787
0.0248304
0.00862489
0.00940943
0.0233348
0.00243797
0.0106353
0.00369555
0.0360252
0.00273615
0.00423647
0.00593314
0.00628288
0.0456292
0.0228746
0.0200271
0.00713223
0.0221186
0.00357859
0.0366979
0.00512637
0.00224098
0.00528997
0.00530016
0.00380633
0.0205126
0.00735301
0.0260007
0.00736081
0.00800712
0.0408172
0.00766381
0.00286537
0.0286789
0.00414208
0.0187987
0.0253843
0.00987764
0.00456463
0.00247197
0.00480358
0.00312775
0.0106341
0.00448017
0.0207085
0.0290143
0.0038881
0.0233128
0.0353307
0.0350424
0.0181532
0.00496561
0.00387757
0.0252146
0.00819208
0.00887846
0.014748
0.0198617
0.019071
0.0159985
0.0300833
0.00312536
0.0100601
0.0180379
0.00508429
0.033462
0.00386577
0.00210937
0.00288377
0.00309308
0.00286236
0.0154363
0.0181235
0.0339743
0.0125326
0.0817463
0.00225889
0.00213499
0.00762359
0.034551
0.00376987
0.00908054
0.0066013
0.0364511
0.00509183
0.023974
0.0100873
0.0213402
0.00198096
0.0462303
0.00574594
0.00282388
0.00428398
0.00706183
0.0081527
0.252763
0.00787353
0.00980577
0.0259986
0.00269091
0.00338755
0.011101
0.0516708
0.00665891
0.00679126
0.0130813
0.0445351
0.0150532
0.014268
0.0285701
0.0525367
0.00948023
0.00244666
0.0161452
0.00245101
0.0416898
0.00484398
0.0125497
0.0224083
0.0137722
0.0046671
0.0209302
0.00877819
0.00267022
0.00710399
0.0142397
0.027274
0.00390322
0.0338009
0.0459379
0.0176157
0.00224822
0.0191486
0.029199
0.0417985
0.00624662
0.00954884
0.00497754
0.0210187
0.00296464
0.0184582
0.00346306
0.0334733
0.0200728
0.0253999
0.00761753
0.00341281
0.0133668
0.00203628
0.00862615
0.0441945
0.00544477
0.00410455
0.00241027
0.00356367
0.045209
0.00712091
0.0228493
0.0572625
0.00416538
0.0192606
0.00695993
0.00256331
0.00440671
0.00315169
0.0196586
0.00323242
0.0199894
0.00816003
0.00290684
0.0231245
0.00265798
0.0025831
0.0230908
0.0207149
0.00259105
0.0187374
0.00241065
0.00256024
0.00218818
0.0283968
0.0293779
0.0265799
0.0181569
0.00864002
0.0032863
0.0218711
0.00212684
0.0413292
0.0202185
0.0356139
0.00225206
0.0112376
0.00399019
0.0141343
0.00246725
0.00841938
0.00265499
0.00436366
0.00212612
0.00402502
0.00401815
0.00317415
0.0216146
0.00347242
0.0205043
0.0168155
0.00532461
0.00291504
0.00732488
0.00228797
0.00951546
0.0198235
0.00315161
0.0110491
0.0183016
0.0217011
0.0117561
0.00254727
0.00913072
0.0105424
0.00273795
0.010904
0.0334111
0.00292605
0.0260377
0.0226363
0.0022294
0.0045212
0.0320264
0.00650197
0.00588093
0.00379758
0.00222935
0.032372
0.00227934
0.00233063
0.00248679
0.005035
0.00476156
0.0100491
0.00251462
0.0197024
0.0031068
0.00419692
0.00216305
0.00268875
0.00660733
0.0179547
0.034575
0.0195093
0.00287566
0.042854
0.0137807
0.0218095
0.00272379
0.00236761
0.00324029
0.0180344
0.00858133
0.0242876
0.0268443
0.00328563
0.00978922
0.0117141
0.0114339
0.0250761
0.0154901
0.00846251
0.00244703
0.00214274
0.00225879
0.00306075
0.0189951
0.00545993
0.0027769
0.00311718
0.00288537
0.018498
0.0360736
0.00367768
0.0208913
0.0285343
0.00297744
0.0040668
0.0277333
0.0025137
0.00265929
0.0021439
0.00247977
0.0271103
0.00306714
0.00245683
0.0201509
0.00219954
0.00251647
0.00520993
0.00578457
0.0035168
0.00394015
0.0166783
0.0326489
0.0241117
0.00959524
0.0524134
0.0968275
0.0140537
0.00728099
0.0052225
0.00643885
0.00324808
0.00499399
0.00365338
0.00376665
0.0279239
0.0360376
0.019848
0.0237938
0.0247257
0.0031226
0.00995663
0.00310127
0.0386196
0.00552788
0.0244253
0.00287229
0.0242503
0.0167411
0.00800862
0.00714757
0.0408481
0.0186568
0.00486569
0.0307542
0.012143
0.00721847
0.00485426
0.0105347
0.0105583
0.00300165
0.0671286
0.00215017
0.0281939
0.015765
0.016083
0.00225354
0.00221905
0.0215193
0.00518695
0.0099934
0.0021724
0.00221562
0.0186877
0.00537725
0.00390311
0.00374868
0.00320638
0.0345991
0.0365726
0.00536291
0.00235547
0.00218502
0.0258888
0.00268667
0.00788816
0.00236974
0.00233005
0.00219873
0.00241093
0.00245279
0.0108889
0.00228246
0.0161827
0.00280475
0.00827843
0.00347123
0.00246953
0.00393832
0.00419408
0.0235094
0.0288119
0.0370566
0.00769562
0.00192592
0.00459377
0.00554119
0.0291379
0.0380827
0.00705325
0.00362763
0.0023636
0.00329004
0.00453223
0.00208008
0.00462961
0.0261145
0.00603159
0.0185391
0.11498
0.00347462
0.00988846
0.00410645
0.0403629
0.00224414
0.0023284
0.00236118
0.0113614
0.00357443
0.00245233
0.00601113
0.00229484
0.0150078
0.0025679
0.00375119
0.0360713
0.00225544
0.00671025
0.0199302
0.0104877
0.00260288
0.00540702
0.0131068
0.0381563
0.00234611
0.00543908
0.00307949
0.00562335
0.0254362
0.00434152
0.054021
0.00300381
0.0169913
0.00271848
0.0182655
0.00807787
0.00966397
0.0261544
0.00209412
0.00257565
0.0417175
0.00292685
0.00231321
0.0246051
0.0161654
0.0180458
0.00345522
0.00239067
0.0843499
0.0201318
0.0194801
0.00736186
0.00231796
0.0330531
0.0031489
0.00449268
0.00220526
0.114203
0.00260409
0.0298322
0.00311867
0.0368765
0.0207482
0.00352318
0.0175191
0.0388544
0.0269187
0.0180991
0.0195839
0.00397394
0.0222521
0.0164598
0.0123291
0.00263163
0.0242602
0.00788717
0.0677665
0.00251095
0.0215387
0.00296576
0.0200161
0.00580326
0.00238234
0.0190787
0.00233617
0.0532948
0.0472129
0.00369839
0.00224744
0.00524036
0.00583137
0.0022784
0.0175215
0.00268798
0.0176617
0.00246094
0.00558462
0.0254508
0.00337729
0.018477
0.0251688
0.00385378
0.0247306
0.00475813
0.00229776
0.0051948
0.0185273
0.00223517
0.0120952
0.0019963
0.0020113
0.00223941
0.00227859
0.0224074
0.0207936
0.00228201
0.00296502
0.0307866
0.00303164
0.00213083
0.00230081
0.00218226
0.0069928
0.0403241
0.00226785
0.00887217
0.00357036
0.00938963
0.0227152
0.00230781
0.0114545
0.00468431
0.00215754
0.00428056
0.0470347
0.0355146
0.00247156
0.00271299
0.0022159
0.00379524
0.0118822
0.00399174
0.00242501
0.0314361
0.00242229
0.0137346
0.0249314
0.0165747
0.00411806
0.00426269
0.00476059
0.00601477
0.00912346
0.00228301
0.0105689
0.00237285
0.00256782
0.00186298
0.00246355
0.0234854
0.00285858
0.0308192
0.0948998
0.0171253
0.0108308
0.00486942
0.0299456
0.00268998
0.00228321
0.0036253
0.00246329
0.0276676
0.0104262
0.0142716
0.00243212
0.00731037
0.0125117
0.00679214
0.00724864
0.0244982
0.0211713
0.0229522
0.0396809
0.0258078
0.0113005
0.00457113
0.0444419
0.0387371
0.00220705
0.0656717
0.0271036
0.00402336
0.00790354
0.0050295
0.0267034
0.0203957
0.00737456
0.00262104
0.00363452
0.0281253
0.0296289
0.0596084
0.0311405
0.00477323
0.0284114
0.008971
0.00239772
0.00212727
0.0228057
0.00925952
0.0285298
0.0323306
0.00238401
0.0444414
0.002831
0.0186965
0.00334754
0.00431064
0.0387054
0.0197376
0.0038157
0.0260515
0.00311812
0.021097
0.00845947
0.00221371
0.026454
0.0364229
0.0197567
0.0190527
0.00883556
0.0210701
0.0137574
0.034273
0.00221394
0.025577
0.00258237
0.00408339
0.00273767
0.046847
0.00371355
0.0122102
0.00326012
0.0218476
0.0140942
0.00307218
0.0255313
0.00212956
0.0294966
0.00626533
0.030755
0.0180233
0.00228047
0.00525392
0.0279413
0.0072049
0.0180481
0.0312807
0.00233573
0.0121223
0.00522301
0.00257483
0.00243502
0.00266089
0.00506087
0.0199765
0.0233305
0.00226
0.0125812
0.00698923
0.00530026
0.01453
0.0037785
0.00296996
0.00909216
0.00894279
0.0309048
0.0118013
0.0271224
0.00355051
0.00243676
0.0109624
0.00946584
0.0409357
0.0140223
0.0201203
0.00240884
0.00235121
0.0127683
0.00309998
0.0137522
0.0160049
0.00482029
0.0362153
0.00235213
0.0234406
0.00452959
0.0322112
0.00229817
0.0106342
0.00326903
0.0072479
0.004038
0.00377097
0.0021377
0.0247237
0.0176386
0.0352231
0.00253601
0.00335558
0.0049335
0.00303138
0.0569851
0.00930081
0.0111536
0.00248366
0.00558517
0.00416459
0.00905039
0.00232813
0.0387146
0.0124946
0.00366581
0.0235112
0.0222775
0.0163962
0.0379411
0.0110179
0.00272973
0.0173792
0.0429864
0.00840947
0.0224575
0.00897
0.00252539
0.00216351
0.00259757
0.00277511
0.00251209
0.00559372
0.0293518
0.00238192
0.00544912
0.0123716
0.00928262
0.00289732
0.00701566
0.0151513
0.0032274
0.026674
0.0115536
0.0103261
0.0171307
0.0032696
0.0423976
0.0152959
0.0283831
0.0335608
0.0180981
0.0383361
0.00576951
0.0035945
0.00559401
0.0301702
0.00505306
0.00398077
0.0365336
0.00337125
0.0103124
0.0234411
0.0371744
0.00707946
0.00767219
0.0295794
0.00303803
0.0358459
0.00236259
0.0034282
0.00611161
0.0033385
0.00514606
0.00899599
0.00228373
0.0531285
0.0287308
0.00935071
0.00917395
0.0447468
0.0042477
0.0127713
0.00237906
0.00283047
0.014402
0.00353294
0.00219823
0.0113154
0.0196202
0.00266961
0.00965967
0.0238047
0.00311772
0.00266899
0.00321014
0.010119
0.00530034
0.00834602
0.0124667
0.00896359
0.00943947
0.00503833
0.0186062
0.0033315
0.00247674
0.00930357
0.00415367
0.00786498
0.00611513
0.0264354
0.0179182
0.00594994
0.00440328
0.00490093
0.0022447
0.00358595
0.00217914
0.00210968
0.228158
0.006955
0.00237082
0.0341237
0.00425429
0.00379493
0.0346537
0.00336669
0.00249384
0.00889265
0.00246695
0.00230091
0.00237502
0.0170351
0.0106165
0.0237849
0.00771925
0.00262848
0.0300839
0.0331606
0.0196697
0.00639827
0.022968
0.00369594
0.00263786
0.00261042
0.00318157
0.0119483
0.0169896
0.00341825
0.00300427
0.00750355
0.0121177
0.00338123
0.00244984
0.00221953
0.0277991
0.00201758
0.0105107
0.0134218
0.0269326
0.0190406
0.0114186
0.00247684
0.0208176
0.00268797
0.00249096
0.00288666
0.00220567
0.0025639
0.00217704
0.00256385
0.00220889
0.00962991
0.00477029
0.00621521
0.0271389
0.0222384
0.00315957
0.00546255
0.0268973
0.00280653
0.00861854
0.00234755
0.00229709
0.00238791
0.00391188
0.0113373
0.00242296
0.122635
0.00998795
0.00240076
0.0700809
0.00260372
0.0259408
0.0127274
0.0031776
0.0143625
0.0242743
0.00306663
0.00341746
0.00355164
0.0266215
0.00272162
0.0268156
0.0108675
0.0161159
0.0179908
0.00943558
0.00226659
0.0168257
0.00342673
0.00283919
0.00771877
0.0023029
0.00224656
0.00768773
0.00209377
0.00263516
0.0149429
0.00229485
0.0190115
0.0278502
0.00272727
0.00791632
0.0196533
0.00243178
0.00813616
0.0134202
0.00766527
0.0416978
0.00259318
0.00261685
0.00733578
0.0308919
0.0196707
0.00962523
0.0193963
0.004794
0.00529273
0.00893451
0.0417747
0.00760837
0.0026045
0.00860025
0.00238667
0.00254653
0.0276923
0.00331235
0.00232683
0.00744114
0.00425461
0.0276381
0.00691739
0.00346791
0.00190185
0.0165758
0.00321516
0.0112555
0.00753206
0.0355149
0.00677598
0.0120708
0.0241033
0.00628565
0.0242474
0.00305334
0.00818779
0.00226536
0.0660709
0.00200735
0.0100483
0.0204639
0.00974215
0.00448528
0.0345833
0.00302289
0.00357862
0.0217766
0.0498082
0.0211671
0.00201955
0.00375686
0.00249138
0.00908864
0.0225256
0.00381585
0.0332384
0.00817966
0.00244144
0.00817459
0.020908
0.00412193
0.0361798
0.0121578
0.00345103
0.00229871
0.0366863
0.00347038
0.00599036
0.0193525
0.00270497
0.00319941
0.00184072
0.00752056
0.0100223
0.0192752
0.00276727
0.00374245
0.0354953
0.0260595
0.018755
0.00247372
0.0103674
0.00296292
0.0218517
0.00245654
0.0272251
0.00478572
0.0154264
0.00276281
0.00232717
0.00442141
0.0045517
0.0340216
0.0286973
0.00392109
0.00488716
0.032718
0.0273667
0.00285984
0.0035064
0.00304536
0.00890114
0.00470572
0.00256972
0.00269169
0.0176517
0.0120359
0.0167762
0.00394344
0.0123702
0.0286945
0.0271757
0.00220321
0.00772833
0.010142
0.00303507
0.00302378
0.0334855
0.00268928
0.00246997
0.0237858
0.03415
0.00260705
0.00207818
0.0343822
0.0489661
0.00222923
0.00925845
0.0361329
0.0158075
0.00219952
0.00244173
0.00250214
0.00529901
0.00277826
0.0324317
0.0278796
0.00238712
0.00253921
0.00935449
0.00347174
0.0216084
0.0197019
0.0211004
0.00686515
0.0460079
0.0035014
0.00436163
0.010367
0.0183581
0.0391707
0.00225827
0.00209811
0.00655977
0.0023437
0.00848544
0.00332271
0.0223482
0.0187555
0.210898
0.00820477
0.00421678
0.00910375
0.0205327
0.0113627
0.00689676
0.00406453
0.0105513
0.00338617
0.00246403
0.00844716
0.0202714
0.0317438
0.00297575
0.0329139
0.00659245
0.00605249
0.0116854
0.035089
0.00394881
0.0169977
0.0449646
0.0378815
0.00507604
0.00230011
0.00541104
0.0052914
0.01248
0.00795979
0.0516258
0.0262406
0.023578
0.00213359
0.0091129
0.00406881
0.008199
0.00836332
0.00519927
0.0370839
0.00649809
0.0362027
0.00282297
0.00785963
0.0312726
0.00208492
0.0103651
0.00528338
0.0114085
0.0206551
0.0372363
0.00343854
0.0220455
0.00244416
0.00233451
0.00601388
0.0161457
0.0329463
0.00875466
0.02413
0.00293419
0.00295442
0.00257106
0.0210953
0.00305311
0.00302973
0.00328662
0.00298748
0.0376688
0.0221445
0.00266054
0.00801538
0.0167269
0.00220674
0.00597031
0.00553159
0.00960929
0.0264597
0.131906
0.022968
0.00321507
0.00257682
0.00610058
0.0353671
0.0272903
0.00376047
0.00663912
0.0157302
0.0021173
0.00307006
0.00281462
0.00248275
0.0021332
0.00295509
0.00424714
0.00747646
0.00697902
0.0073507
0.0144462
0.0170634
0.00209544
0.00529439
0.0274885
0.0202889
0.00234395
0.0306502
0.00392834
0.00989249
0.00261263
0.00387658
0.00729564
0.00219749
0.00255226
0.00276225
0.0197517
0.0223846
0.00372809
0.00205522
0.0363901
0.0121594
0.00607373
0.00243021
0.00448661
0.0468936
0.00879491
0.00471694
0.0130332
0.00228012
0.00679229
0.0396018
0.0059239
0.0330418
0.0108732
0.0436276
0.00317454
0.00371035
0.00228853
0.0377013
0.019895
0.0124119
0.00348239
0.0225694
0.021562
0.0107129
0.00234021
0.0271748
0.00194176
0.00363359
0.0162211
0.0171605
0.022238
0.00282191
0.00214915
0.00412773
0.00618737
0.0096038
0.00942771
0.00979648
0.0299961
0.0311095
0.025233
0.0109232
0.00218969
0.0285696
0.046905
0.0215416
0.0346162
0.00336395
0.0323886
0.00253591
0.00227725
0.00406678
0.0164058
0.00265588
0.0275434
0.0172271
0.00223338
0.00272863
0.00647159
0.00988056
0.00272918
0.0370165
0.00527998
0.00332236
0.00243242
0.0106411
0.00329871
0.00216522
0.00862052
0.0253976
0.0333245
0.00861543
0.00223825
0.0298606
0.0124874
0.00265893
0.0255178
0.0272521
0.00938736
0.0445562
0.0150017
0.0386283
0.0224444
0.0269486
0.0402558
0.0263958
0.0423175
0.00837332
0.0130635
0.00228652
0.0404733
0.00229715
0.00555849
0.00373913
0.00708251
0.00344068
0.0286585
0.00296166
0.0107067
0.0107655
0.00219858
0.0053644
0.0477673
0.00678177
0.0120546
0.0297681
0.0306647
0.00453297
0.0107141
0.0331399
0.00384242
0.00446786
0.00219637
0.00278297
0.0217709
0.00691188
0.0119205
0.0110681
0.00450517
0.00436484
0.00263907
0.0106612
0.00333027
0.00507914
0.0105551
0.00870322
0.00831064
0.00660033
0.0114023
0.00239286
0.00503943
0.0431967
0.00472121
0.0476091
0.119723
0.0206769
0.00441997
0.00462557
0.00789228
0.00335968
0.00694459
0.0138891
0.00748056
0.0428709
0.0352648
0.0547891
0.0196427
0.0205209
0.00282885
0.0217818
0.00678381
0.0322884
0.0296989
0.00217336
0.0199559
0.00315731
0.00555678
0.00275786
0.0270385
0.0225211
0.00600308
0.00386012
0.0411053
0.00465748
0.0181162
0.00828072
0.00226972
0.0035074
0.00239768
0.00932555
0.00974323
0.011845
0.0159293
0.0269221
0.0224814
0.0308057
0.0080335
0.00238841
0.014016
0.0183985
0.00957941
0.00360107
0.00346566
0.0197333
0.00492102
0.0326621
0.016104
0.0036963
0.0218056
0.0127894
0.0102668
0.0065008
0.00883948
0.00387804
0.0107866
0.00921363
0.00274854
0.00777065
0.00282875
0.0364969
0.0378603
0.00574909
0.00899401
0.00377554
0.00803078
0.00989159
0.0409814
0.00496985
0.00548548
0.00406474
0.0111234
0.0237636
0.0186996
0.023008
0.00616704
0.0168806
0.00855106
0.0367593
0.00690228
0.0237741
0.0130583
0.00248553
0.019508
0.00358902
0.00325489
0.0255873
0.0324345
0.00751945
0.0670621
0.00348696
0.00276698
0.0122013
0.00396239
0.0179154
0.00671121
0.029787
0.00816916
0.00632268
0.00212027
0.0455207
0.0030009
0.0057124
0.0129016
0.00491649
0.0274867
0.00291406
0.0285765
0.00370304
0.00610131
0.00423683
0.00521859
0.0239051
0.0359838
0.0056792
0.002283
0.0243974
0.00823157
0.0293182
0.00575387
0.0184635
0.039709
0.0101832
0.00396202
0.0116643
0.00238345
0.00722059
0.00435786
0.0299725
0.00235068
0.027926
0.013919
0.00252235
0.00243109
0.00577358
0.0380569
0.0220426
0.00246083
0.00239929
0.00406994
0.00386936
0.0035641
0.0526676
0.0047702
0.00432415
0.00530863
0.0205352
0.00554948
0.00251677
0.0052745
0.00253826
0.0025498
0.0192957
0.00354499
0.022547
0.0034343
0.0102069
0.00515477
0.00352747
0.00253552
0.00250604
0.026666
0.00197982
0.0198403
0.0321218
0.00570441
0.0210828
0.0033933
0.0390469
0.0202659
0.021465
0.012798
0.00577974
0.0296104
0.0296952
0.00442909
0.010502
0.00227376
0.00904332
0.0365792
0.0117088
0.0249303
0.00769195
0.00361433
0.0198976
0.00372221
0.00226557
0.00304017
0.00287448
0.0022234
0.00308854
0.00234199
0.00391478
0.018443
0.0420656
0.00431455
0.0439206
0.0066323
0.00638905
0.0127278
0.00219654
0.00571005
0.0253209
0.00252679
0.0237858
0.00987982
0.0175605
0.00519909
0.00220383
0.0132555
0.00855112
0.0234029
0.00593615
0.00651091
0.0115339
0.00432393
0.0455774
0.0320626
0.00224223
0.00584757
0.00259895
0.0088729
0.0518153
0.00218643
0.0168857
0.00213144
0.00324446
0.0282633
0.00359325
0.00275566
0.0272159
0.0195318
0.00216073
0.00938602
0.035121
0.003484
0.0220685
0.0356274
0.0101619
0.00237648
0.00233182
0.00416751
0.00271639
0.00399752
0.00249276
0.00741789
0.00846956
0.00234007
0.00394001
0.0406788
0.0260357
0.00620234
0.00281939
0.00686839
0.0367655
0.0338825
0.00404001
0.0232156
0.00368573
0.00283761
0.00232538
0.0229627
0.0134045
0.00250194
0.00729957
0.0037082
0.00446031
0.0193399
0.0281523
0.00253279
0.0317054
0.0155185
0.0280974
0.0236297
0.00272031
0.00228589
0.00393509
0.00833448
0.0106526
0.0107351
0.00264924
0.0035001
0.0203969
0.00203296
0.00298431
0.00304883
0.0341202
0.00603121
0.0337043
0.0108867
0.0226141
0.00323905
0.00427025
0.0117399
0.028902
0.0125166
0.0165761
0.0453334
0.00359169
0.0355423
0.0198991
0.00256554
0.00284294
0.00217902
0.0262735
0.00824506
0.0213551
0.00227283
0.00319009
0.00271016
0.00245947
0.0240497
0.00423649
0.00696306
0.00224661
0.00260642
0.00266182
0.00296189
0.00229914
0.0408026
0.0281493
0.00714554
0.00211206
0.0041307
0.0241344
0.00241118
0.0183536
0.00623667
0.00443057
0.0119999
0.0203386
0.0184465
0.0432657
0.00333189
0.0042836
0.0192987
0.00642524
0.0416628
0.00348627
0.00205151
0.0372139
0.00656427
0.00553946
0.00285613
0.0917358
0.0436011
0.0297773
0.015803
0.0180401
0.0348162
0.0290528
0.0404043
0.0122337
0.00287433
0.00469675
0.00331228
0.00587872
0.0378794
0.00309919
0.00685303
0.045416
0.0451049
0.0325677
0.0111704
0.0231718
0.00324789
0.0148878
0.00226761
0.00794688
0.0234356
0.0118591
0.00338873
0.00232227
0.00390533
0.0030537
0.0025661
0.0217873
0.0082508
0.00353199
0.00368522
0.0507093
0.0133983
0.00831549
0.00597771
0.00697878
0.00235509
0.0188063
0.0331914
0.0385521
0.00982528
0.00215259
0.00188674
0.00393584
0.0180537
0.00818921
0.0239217
0.00970217
0.0027703
0.0238506
0.0177182
0.00257993
0.0039155
0.00330211
0.00291404
0.0113243
0.0159455
0.00388073
0.00897104
0.00622365
0.00418331
0.00517328
0.00261941
0.0130049
0.00438716
0.040762
0.0311858
0.0438843
0.0105174
0.0067372
0.00925785
0.0237101
0.00370898
0.022291
0.0190717
0.0399065
0.00675179
0.00206247
0.00255236
0.039167
0.0184871
0.0224961
0.0341106
0.0190943
0.00215461
0.00195143
0.029496
0.0256351
0.0193606
0.0022117
0.00194334
0.0041842
0.0105879
0.00328536
0.00423818
0.00977637
0.0269265
0.00211238
0.00433468
0.00437411
0.00629079
0.00407876
0.00249536
0.0140634
0.0062774
0.015584
0.00957742
0.00276973
0.00240902
0.0482535
0.00252867
0.0342545
0.00317136
0.00355352
0.00274138
0.00297585
0.0206156
0.0365886
0.0199875
0.00240781
0.002317
0.00563257
0.00266136
0.0328472
0.0109581
0.00294073
0.00234354
0.00765556
0.0233481
0.0150591
0.00783467
0.00244221
0.00271452
0.00282241
0.0021298
0.00349326
0.00392046
0.0113396
0.00263855
0.00298859
0.0039193
0.0113304
0.027007
0.036636
0.0141
0.00842891
0.00223507
0.00227425
0.0311425
0.0076082
0.00464959
0.00488155
0.0102217
0.0029213
0.00428369
0.00525507
0.00195002
0.00906821
0.00510802
0.0208404
0.00756754
0.00424118
0.0355412
0.00596544
0.0036075
0.00478151
0.00305339
0.00226259
0.0352079
0.0027841
0.0122048
0.00235564
0.0144651
0.0025122
0.00562047
0.0106558
0.00623075
0.0359564
0.00590884
0.0230961
0.0256712
0.00403554
0.0328273
0.00247944
0.00313216
0.00229609
0.022406
0.0093912
0.0371956
0.00503219
0.0267414
0.010162
0.00330572
0.00274181
0.00230916
0.00379332
0.00339378
0.00229571
0.00348279
0.00321782
0.00345985
0.0225951
0.00959925
0.00202211
0.00205834
0.0182347
0.00387376
0.00285305
0.0024122
0.035669
0.0048105
0.0352383
0.00210474
0.0298762
0.0261587
0.00702694
0.0051007
0.00448999
0.00692166
0.0277424
0.00287858
0.0285026
0.0282904
0.00357137
0.0216236
0.0122326
0.00536452
0.00316467
0.038044
0.0181777
0.0289491
0.00255232
0.00292939
0.0167327
0.00331006
0.0107698
0.0173224
0.00498652
0.0251952
0.00467242
0.00352041
0.00240947
0.00292719
0.00236333
0.00212288
0.00636147
0.00186785
0.00360806
0.00260476
0.00826412
0.00980507
0.00202877
0.0133693
0.00344467
0.00383934
0.00333435
0.00401443
0.00199874
0.00447062
0.0250995
0.00305305
0.00202576
0.0183138
0.00638646
0.00214903
0.105948
0.00319322
0.00265915
0.0104478
0.00563698
0.0209847
0.00741781
0.00235166
0.00351517
0.0101875
0.0216503
0.0180835
0.00568827
0.0241375
0.030595
0.0308264
0.00453961
0.0023752
0.00194201
0.00490274
0.00391975
0.00441789
0.017306
0.00800761
0.00218986
0.00196965
0.00199087
0.00191422
0.0327204
0.0480459
0.0415217
0.0156647
0.00357346
0.00246377
0.00217004
0.0114836
0.00353279
0.00264306
0.0380868
0.00208883
0.00298305
0.00229663
0.00241619
0.014725
0.0201723
0.00660223
0.0211981
0.00294914
0.00408926
0.00958336
0.00352383
0.0104424
0.0168515
0.00919749
0.00218615
0.0118428
0.00564508
0.0024351
0.019215
0.0245169
0.00294071
0.00223319
0.019357
0.0253345
0.0108632
0.036984
0.00222517
0.00661825
0.019882
0.00204058
0.00210905
0.00250341
0.00565953
0.00279483
0.00338882
0.00307472
0.00413768
0.0116884
0.0039937
0.0161044
0.013725
0.0206189
0.00221349
0.00703786
0.00295422
0.00459346
0.0105465
0.00879265
0.038286
0.00886765
0.0390746
0.0107654
0.00420256
0.00340458
0.00239455
0.00329626
0.0275259
0.0224503
0.00313123
0.0134476
0.0165154
0.00562835
0.0233364
0.00235845
0.00419141
0.00299588
0.00689858
0.00294005
0.00643671
0.00330619
0.0259146
0.00250063
0.0278512
0.0289436
0.0167404
0.00494259
0.0064706
0.0021054
0.0284671
0.00710668
0.0035129
0.0089651
0.0127476
0.0114245
0.0253672
0.0182512
0.0244575
0.0165623
0.00190435
0.0208958
0.00347543
0.0179789
0.0407466
0.0103604
0.0236276
0.0489556
0.0368588
0.00441283
0.0071628
0.00266502
0.0166086
0.00212727
0.0266725
0.00744961
0.0184039
0.00356106
0.00296142
0.0410458
0.00506697
0.00322393
0.00330685
0.00488131
0.00534142
0.00274444
0.00321016
0.00275454
0.00435798
0.0259133
0.0112139
0.0216505
0.00338379
0.0336666
0.0114163
0.00364747
0.0146223
0.00811037
0.0407359
0.00731887
0.00869469
0.00225671
0.00577177
0.00278353
0.00450579
0.0026493
0.00486662
0.0019409
0.0199592
0.0209549
0.00340759
0.00296284
0.00465208
0.00359123
0.00292139
0.00380794
0.00381785
0.0281386
0.00363918
0.00209207
0.0276652
0.00583688
0.0279635
0.00530284
0.0158899
0.0229105
0.00324807
0.0248503
0.0266397
0.0368857
0.030693
0.0269658
0.00247694
0.00986957
0.00218003
0.00512694
0.0178031
0.00296665
0.00220759
0.00282933
0.0379606
0.00406111
0.00775674
0.0072271
0.00332638
0.0305446
0.0291057
0.0040359
0.0262201
0.00233756
0.0218835
0.00607557
0.01585
0.00202056
0.00204455
0.00304877
0.0238833
0.0371863
0.0262594
0.00362133
0.018573
0.0487526
0.00708479
0.010448
0.0302343
0.0096264
0.0181264
0.00547417
0.00385667
0.00226171
0.0035306
0.0953275
0.00804192
0.0362744
0.00215134
0.00349988
0.00613692
0.00313303
0.0107862
0.00771622
0.0368093
0.00402937
0.00911287
0.00217845
0.00239072
0.0187919
0.044458
0.00254126
0.00303651
0.00243798
0.0163935
0.00459167
0.0365599
0.0257123
0.0227058
0.00255022
0.0304993
0.0075114
0.0419882
0.0214991
0.00410551
0.0210602
0.0270111
0.0276508
0.00388733
0.00348616
0.00251478
0.0201459
0.00522753
0.00255301
0.00646473
0.0065548
0.00375783
0.00240832
0.00243494
0.0360713
0.00350901
0.0134953
0.0157046
0.0225323
0.00232535
0.00250437
0.00971134
0.00392143
0.0445134
0.00729935
0.00560424
0.0403865
0.0030424
0.00287763
0.00390702
0.0187291
0.00233324
0.0202787
0.00211107
0.0184592
0.0380606
0.00236815
0.00276834
0.0166395
0.00396762
0.00276218
0.00249646
0.00227151
0.0189423
0.0295006
0.00257812
0.00388503
0.00403571
0.00314063
0.0208134
0.00475434
0.0191391
0.0162983
0.00310382
0.00245412
0.00936417
0.00365499
0.00647092
0.0254452
0.0655543
0.00231893
0.00315673
0.0208036
0.0312076
0.0117946
0.00384322
0.00417657
0.0379111
0.0109556
0.00315588
0.00248017
0.00308103
0.00378114
0.00739512
0.00205317
0.00365131
0.00269954
0.0112155
0.0280088
0.0372383
0.00633336
0.00834221
0.0037141
0.00326145
0.00249113
0.00283144
0.00226471
0.00292788
0.00325611
0.00251256
0.00906507
0.00312933
0.00310419
0.0100508
0.00301546
0.0101196
0.0283331
0.00626144
0.00470666
0.00507338
0.00586121
0.00506101
0.010593
0.0205315
0.00393005
0.00329877
0.00406244
0.00668545
0.0326081
0.00688438
0.008749
0.0364545
0.00432357
0.0290281
0.00640423
0.0035827
0.00421567
0.00487632
0.00771777
0.0253301
0.0332571
0.0660177
0.00242493
0.0213038
0.00317893
0.00292686
0.0227515
0.00210078
0.00983137
0.00217866
0.00653081
0.00624841
0.0139224
0.00190866
0.00243333
0.0435361
0.00292577
0.0255322
0.0451341
0.00463646
0.016814
0.00263095
0.0028177
0.00238059
0.00869016
0.0122632
0.00404699
0.00289755
0.00408595
0.0196352
0.0330549
0.00642944
0.00336137
0.00720018
0.0023237
0.0121392
0.00974769
0.00302483
0.00273091
0.00281357
0.0105934
0.00792376
0.0114872
0.00521406
0.00403751
0.00746493
0.00864558
0.0258933
0.00375381
0.00417543
0.00323587
0.00273849
0.0039938
0.00224874
0.0248219
0.00612082
0.0134298
0.0198815
0.00326953
0.0132832
0.0020564
0.00253739
0.00406375
0.0366789
0.00928767
0.00381972
0.00243588
0.0181198
0.00299573
0.0129788
0.00533049
0.0124462
0.00759851
0.00351775
0.00287822
0.0456104
0.00461496
0.00276187
0.00307341
0.0102455
0.00364959
0.00328551
0.132285
0.00198075
0.0225228
0.00404782
0.00253761
0.00289993
0.00668089
0.010172
0.0139564
0.017794
0.0261794
0.00258891
0.00260946
0.0884088
0.0247956
0.00401294
0.00437986
0.0197996
0.00863464
0.00433414
0.00470493
0.00413022
0.0397575
0.00331306
0.020344
0.0228224
0.00275914
0.0194337
0.0117031
0.0337776
0.0220815
0.0120218
0.0197578
0.00605102
0.0187534
0.00712545
0.0280208
0.0352731
0.00604981
0.029148
0.0175785
0.00416091
0.0312426
0.00386152
0.0187968
0.0153391
0.0211064
0.00229523
0.0300069
0.0280915
0.00507081
0.0036862
0.00575078
0.0217645
0.00479429
0.0115723
0.00587874
0.0159222
0.00929046
0.00203841
0.00976211
0.00231966
0.00447797
0.00510162
0.00252975
0.0467932
0.00574678
0.00675634
0.00338819
0.0316066
0.00669203
0.046826
0.0095726
0.00981065
0.00267216
0.00319782
0.00737214
0.00368674
0.0206727
0.00237444
0.00296045
0.012469
0.00196801
0.0157866
0.00320274
0.00500107
0.017598
0.0149968
0.0157621
0.00252558
0.00380363
0.017147
0.00515368
0.00636791
0.039944
0.00301333
0.0362915
0.0226279
0.00750305
0.00360351
0.00456269
0.0193788
0.00257142
0.00306824
0.00943972
0.0186829
0.0114836
0.0286942
0.00393822
0.0107736
0.00510447
0.0104705
0.00233473
0.00430583
0.0256398
0.00493815
0.00229125
0.0104149
0.0469761
0.0156922
0.00409974
0.0196192
0.0113129
0.0179282
0.00432251
0.011044
0.0210384
0.0205293
0.00225237
0.0353893
0.00348352
0.0308205
0.00262441
0.00930414
0.00341703
0.0268131
0.00412137
0.00231888
0.00352025
0.00248426
0.00940495
0.0407535
0.040254
0.0312673
0.046799
0.00347832
0.0264574
0.00228565
0.00377189
0.00583942
0.00294069
0.0339091
0.0174786
0.0198673
0.00375939
0.0298506
0.00374146
0.00981397
0.004497
0.0174985
0.0265822
0.0306755
0.00337234
0.0194019
0.00277344
0.00580215
0.00589441
0.0195877
0.0205002
0.00650258
0.00902325
0.0224047
0.00247947
0.0032999
0.0126189
0.00980506
0.00428281
0.00313785
0.00316759
0.00232844
0.00253212
0.00870726
0.0121344
0.0026339
0.0473747
0.0306263
0.00552132
0.00344604
0.00207673
0.0315827
0.0218382
0.00197756
0.00958647
0.00193767
0.0248613
0.00204262
0.0023255
0.00331312
0.0176169
0.0119994
0.0334977
0.037083
0.00653313
0.0393806
0.00551874
0.0138076
0.00571942
0.0049599
0.00286918
0.0340738
0.0528423
0.00270598
0.00545424
0.0270135
0.00300156
0.00323416
0.0277312
0.0384603
0.0419973
0.0229398
0.0137036
0.0376662
0.0110943
0.00227111
0.0268679
0.044698
0.00624956
0.00337935
0.00259666
0.00394948
0.00964125
0.0500007
0.00232495
0.0247854
0.00274888
0.0216246
0.0086815
0.00578226
0.00867481
0.00705295
0.0284706
0.00249612
0.0102329
0.00217781
0.0354804
0.00643004
0.020199
0.0088435
0.0150245
0.0326951
0.00768747
0.00773963
0.00652231
0.0133982
0.00383683
0.021223
0.0272972
0.0211802
0.00527635
0.00736091
0.00539819
0.0274915
0.0073085
0.0368228
0.0497364
0.00444115
0.00239444
0.0199643
0.0257411
0.0106723
0.00261677
0.00645094
0.00318363
0.005973
0.00463615
0.00357799
0.00399758
0.00211725
0.0194587
0.038302
0.00571426
0.00223986
0.00236838