/*--------------------------------*- C++ -*----------------------------------*\
| =========                 |                                                 |
| \\      /  F ield         | OpenFOAM: The Open Source CFD Toolbox           |
|  \\    /   O peration     | Version:  2406                                  |
|   \\  /    A nd           | Website:  www.openfoam.com                      |
|    \\/     M anipulation  |                                                 |
\*---------------------------------------------------------------------------*/
FoamFile
{
    version     2.0;
    format      ascii;
    arch        "LSB;label=32;scalar=64";
    class       volVectorField;
    location    "60";
    object      momentum:momentum;
}
// * * * * * * * * * * * * * * * * * * * * * * * * * * * * * * * * * * * * * //

dimensions      [1 1 -1 0 0 0 0];

internalField   nonuniform List<vector> 
59516
(
(2.22925e-07 -2.42137e-09 -1.13529e-09)
(1.64722e-07 -1.85097e-10 -6.61765e-10)
(2.01749e-07 -1.07292e-09 -8.63096e-10)
(1.72142e-07 1.66701e-09 2.48244e-09)
(1.99994e-07 3.68744e-10 -8.02696e-09)
(5.03649e-08 -2.40663e-09 -5.37989e-09)
(2.09235e-07 -3.49395e-09 -3.75066e-09)
(1.92325e-07 1.21345e-09 -2.14614e-10)
(1.55287e-07 1.27746e-09 -7.11549e-11)
(7.69383e-08 -1.52879e-09 3.0112e-09)
(2.08462e-07 -4.69309e-10 -3.3908e-09)
(1.01573e-07 3.32369e-10 -6.37321e-09)
(3.18045e-07 3.20283e-09 9.32649e-11)
(1.53911e-08 -9.76322e-11 -1.42598e-10)
(1.47084e-07 3.51721e-09 8.14779e-09)
(8.253e-08 5.73173e-09 -2.55769e-09)
(2.70183e-07 -4.39061e-09 -2.06982e-09)
(1.59728e-07 9.15489e-09 -1.00056e-08)
(3.29746e-07 1.76415e-08 1.78961e-09)
(3.74025e-07 -4.0301e-09 -9.6532e-10)
(9.93849e-08 1.72071e-09 -2.38249e-09)
(3.17522e-07 -2.05185e-09 5.3123e-10)
(3.51287e-07 -2.66495e-09 -6.23558e-09)
(3.36169e-08 -1.02669e-09 -2.83513e-10)
(3.13273e-07 -1.21933e-09 6.5382e-10)
(1.95392e-07 4.5045e-09 1.90614e-09)
(5.05903e-08 1.01722e-09 -3.54931e-09)
(7.40347e-08 6.33916e-09 3.20776e-10)
(1.44327e-07 6.09623e-09 -1.3649e-09)
(1.28899e-08 -2.00892e-09 4.91798e-10)
(1.89462e-07 -3.67878e-08 -8.11173e-09)
(8.36733e-08 6.75064e-09 -1.05954e-09)
(1.73464e-07 1.63251e-10 1.06104e-09)
(1.73333e-07 -1.53809e-09 3.17168e-09)
(1.33657e-07 5.28334e-09 3.80633e-09)
(3.99343e-07 8.42723e-10 -1.38387e-09)
(1.25057e-08 -1.21984e-09 -1.73981e-09)
(1.31644e-07 5.05153e-09 -1.27408e-08)
(2.66395e-07 -1.09166e-08 -1.10314e-09)
(2.83731e-07 3.29344e-10 -1.36032e-09)
(2.53028e-07 -1.43877e-09 6.0012e-10)
(4.06991e-07 -2.425e-08 -2.25754e-08)
(3.43332e-07 -9.70278e-09 -8.0732e-09)
(1.08635e-07 -6.98006e-10 3.3172e-10)
(2.6469e-07 -1.03318e-08 -9.12088e-10)
(9.9567e-08 -1.37016e-09 -2.29598e-09)
(3.24344e-07 -7.50255e-09 -1.12495e-08)
(2.55014e-07 -8.26386e-09 -1.67743e-09)
(2.51868e-07 -2.0255e-08 2.78839e-08)
(2.41295e-07 1.10544e-08 8.62446e-09)
(1.63915e-07 1.65029e-08 -2.28739e-08)
(7.38237e-08 -6.45419e-09 4.419e-09)
(3.1174e-07 2.75197e-09 -6.09235e-09)
(2.96835e-07 -1.34158e-09 3.28693e-10)
(8.20345e-08 5.26758e-09 -3.77054e-11)
(2.46007e-07 5.91191e-09 -1.81623e-09)
(2.03479e-07 1.1701e-08 1.20149e-08)
(7.42852e-08 6.49838e-09 -4.54479e-09)
(2.13946e-07 1.39355e-10 -3.61477e-10)
(1.45862e-07 6.99031e-09 8.77132e-09)
(2.08849e-07 -7.7984e-10 6.17166e-11)
(1.4706e-08 1.85708e-09 -6.42621e-10)
(2.72823e-07 6.54241e-10 1.31544e-09)
(3.44677e-07 6.01982e-09 4.70682e-09)
(2.85846e-07 6.16613e-10 -1.88088e-09)
(2.15533e-07 5.77274e-09 8.2743e-09)
(1.73919e-08 -1.18282e-09 1.59571e-09)
(6.43444e-08 4.23563e-10 -3.84842e-10)
(1.9834e-07 -8.24783e-09 3.62925e-08)
(1.68922e-07 1.57551e-09 -4.48915e-09)
(5.02713e-08 1.37537e-09 4.16226e-10)
(1.58688e-07 2.64853e-09 -3.32639e-10)
(2.24366e-08 1.40272e-09 -3.41608e-09)
(1.8622e-07 2.28022e-09 1.01032e-09)
(3.90917e-07 -4.99316e-10 -1.11231e-09)
(3.60706e-07 -6.20173e-09 -7.69265e-09)
(2.15228e-07 -3.73426e-09 -5.50034e-09)
(2.26879e-07 -4.49182e-10 6.27601e-10)
(8.21019e-08 -2.71604e-09 2.59009e-09)
(1.93341e-07 4.0088e-09 1.02542e-08)
(4.87493e-08 3.00062e-09 1.44727e-09)
(1.71593e-07 4.95143e-09 7.45478e-09)
(1.82924e-07 2.50552e-09 8.05258e-09)
(1.74574e-08 -6.57734e-10 2.44794e-09)
(2.15296e-07 4.9162e-09 9.83141e-09)
(3.87857e-07 -2.55606e-09 4.24747e-10)
(3.05875e-08 -1.12361e-09 4.89137e-10)
(5.01815e-07 -1.85813e-09 -1.43066e-09)
(1.07569e-07 1.35595e-09 4.21452e-09)
(1.66759e-07 1.32041e-08 -9.07606e-09)
(1.83374e-07 -1.22798e-09 -1.60824e-08)
(1.89642e-07 1.94889e-09 -5.17929e-10)
(2.6575e-07 7.3459e-10 -5.28439e-10)
(1.82356e-07 1.31611e-09 -4.59271e-10)
(1.86432e-07 2.23964e-11 -2.53229e-11)
(1.83417e-07 -1.75723e-08 6.56496e-09)
(1.24086e-07 -2.73775e-10 3.59471e-10)
(8.22816e-08 -3.05861e-09 -6.54516e-09)
(1.15054e-07 4.3682e-09 -1.90304e-09)
(2.07869e-07 -1.09175e-09 2.49677e-09)
(6.02704e-08 9.18299e-10 2.29043e-09)
(2.53167e-08 1.32151e-09 -2.86427e-09)
(2.23707e-08 7.92928e-10 3.06707e-09)
(8.24606e-08 -1.24084e-09 -4.5547e-09)
(2.32368e-07 1.40008e-09 -3.64202e-10)
(1.64762e-07 -5.59447e-10 -5.10411e-10)
(5.33713e-08 4.70802e-09 -1.94568e-09)
(1.35194e-07 3.87638e-10 -1.07668e-09)
(1.72262e-07 -1.18594e-09 4.22328e-10)
(1.83609e-07 1.13855e-09 -7.38766e-09)
(2.80323e-07 2.90191e-08 -3.04536e-08)
(4.16332e-08 4.23174e-09 -6.92788e-10)
(1.82412e-07 2.35625e-09 -1.14845e-08)
(2.19232e-07 3.23779e-08 -1.62513e-08)
(2.22888e-07 -6.35111e-11 1.84465e-10)
(1.34112e-07 1.50085e-09 1.62088e-09)
(1.22904e-07 1.41098e-09 -4.56512e-09)
(1.42959e-07 -1.07662e-10 7.63833e-10)
(1.76719e-08 -2.59602e-10 8.54232e-10)
(2.62745e-07 1.99856e-09 5.97735e-10)
(4.32257e-07 -1.29709e-10 3.7901e-10)
(1.80913e-07 -3.3854e-10 7.01038e-10)
(1.60294e-07 -9.84165e-11 8.71899e-10)
(1.87779e-07 -3.61333e-10 4.42909e-10)
(1.33085e-07 -1.79419e-08 2.74715e-09)
(1.43627e-07 2.09791e-09 -4.91557e-09)
(3.45445e-08 -6.68633e-10 2.25478e-09)
(2.12288e-07 -2.11847e-08 -1.78887e-09)
(1.63211e-07 -5.00573e-09 2.38744e-08)
(1.6607e-07 2.53428e-10 -1.48141e-10)
(2.97393e-07 2.69074e-10 -1.29536e-10)
(3.18714e-07 5.01295e-09 5.49036e-09)
(2.1776e-08 1.30485e-09 -1.4914e-09)
(2.54473e-07 -6.58612e-10 7.13765e-10)
(3.09332e-07 3.4455e-09 8.94434e-10)
(1.9343e-07 -1.00999e-09 -3.72459e-09)
(1.51777e-07 1.81139e-08 -1.26734e-08)
(3.09289e-07 -9.15998e-10 7.9081e-10)
(5.01159e-08 3.48344e-09 1.70366e-10)
(1.56914e-07 9.77683e-10 -2.10359e-09)
(7.38507e-08 -1.45648e-09 -3.80166e-09)
(3.45729e-07 -8.96228e-10 3.47677e-10)
(1.3348e-08 5.62691e-10 1.16333e-09)
(1.48773e-07 -1.14068e-09 -7.90188e-10)
(2.22521e-07 7.05623e-10 1.70677e-09)
(2.83799e-07 4.56904e-09 1.14251e-09)
(2.02727e-07 -8.11769e-09 -3.14227e-09)
(2.04349e-07 3.38332e-09 -5.54159e-09)
(6.40329e-08 -1.03587e-09 1.78422e-09)
(2.04072e-07 -1.03675e-09 -1.91046e-09)
(3.14311e-07 -1.53511e-09 -2.63836e-09)
(5.01743e-08 -1.93572e-09 2.10942e-11)
(3.91947e-07 -2.11648e-09 2.47768e-09)
(2.18737e-07 -1.12231e-10 3.03684e-11)
(1.55703e-07 -1.19652e-10 3.93358e-09)
(1.3996e-08 -2.56884e-10 1.50413e-09)
(2.73011e-07 -1.17297e-09 -6.08644e-10)
(3.25859e-07 4.99539e-09 -2.23969e-10)
(1.26585e-07 2.14816e-09 4.68581e-10)
(1.50613e-08 1.79485e-09 -1.96176e-09)
(8.68827e-08 2.23909e-09 -4.34545e-09)
(1.09152e-07 -5.88964e-09 -3.59483e-09)
(3.82446e-08 -1.55028e-09 3.73861e-10)
(2.14331e-08 -1.83847e-10 -4.14093e-10)
(1.59223e-07 2.99437e-09 3.93104e-09)
(3.3779e-07 -4.72656e-10 1.97316e-09)
(1.51765e-07 -2.06633e-09 1.05302e-09)
(2.92143e-07 1.96596e-09 -1.55357e-10)
(1.67007e-08 -1.05457e-09 1.89481e-09)
(2.15287e-07 -8.84361e-10 -4.19803e-10)
(8.51262e-08 1.4949e-09 1.226e-09)
(6.51764e-08 1.0489e-09 -9.95647e-10)
(1.02685e-07 2.71044e-09 1.25156e-09)
(1.50449e-07 -1.28318e-10 5.87361e-10)
(8.21968e-08 -1.20873e-09 3.64208e-10)
(4.52789e-07 -5.69447e-09 -1.87854e-08)
(2.5428e-07 -5.5028e-10 -1.28422e-09)
(3.1006e-07 -1.22582e-08 -7.74646e-09)
(1.44984e-07 -1.71557e-09 6.72734e-09)
(5.98025e-08 -1.7073e-10 -8.30521e-10)
(3.07932e-07 5.3056e-09 1.26264e-09)
(4.10477e-08 -3.66278e-09 -1.69389e-09)
(2.84664e-08 -3.36033e-10 -2.23082e-09)
(1.01641e-07 -2.4877e-09 3.03962e-10)
(2.14426e-07 6.12837e-10 8.98909e-10)
(9.45409e-08 5.226e-10 1.14589e-09)
(4.43719e-08 -6.81683e-10 -3.4811e-09)
(1.93731e-08 1.44614e-11 2.64268e-10)
(1.88687e-07 5.09917e-10 -8.48242e-11)
(2.20948e-07 -3.88285e-09 -2.71029e-10)
(1.58787e-07 -5.52332e-10 3.13428e-09)
(1.1101e-07 6.83344e-09 -1.54034e-10)
(2.18028e-07 -1.8251e-09 7.88263e-11)
(9.09406e-08 3.26011e-09 1.41986e-10)
(3.39873e-07 -4.55919e-10 -1.75986e-09)
(2.77618e-08 -2.42296e-10 7.65355e-10)
(9.37236e-08 1.3118e-09 -7.33905e-11)
(5.44035e-08 -1.56179e-09 3.92975e-10)
(1.81697e-07 4.97798e-09 5.98825e-09)
(2.6638e-07 1.13093e-09 -1.06671e-09)
(7.54888e-08 -2.67081e-09 2.47625e-10)
(2.05282e-07 -4.84376e-10 2.23619e-10)
(3.05326e-07 -2.46678e-09 2.44358e-09)
(1.52802e-08 1.651e-09 -1.13925e-09)
(2.17266e-07 -1.4511e-09 -9.41751e-10)
(2.38946e-07 8.27481e-10 5.20828e-10)
(3.64881e-07 8.59754e-10 -6.19468e-10)
(2.02217e-07 -2.02406e-09 -1.09494e-09)
(1.74619e-08 -5.72894e-10 1.66005e-10)
(2.97113e-07 -5.51551e-09 -3.51992e-10)
(5.85823e-08 4.14312e-09 3.723e-09)
(2.50592e-08 -4.13253e-09 -6.84183e-10)
(2.31219e-07 2.14916e-10 -2.44291e-09)
(9.16213e-08 -2.01913e-09 1.25224e-09)
(2.88567e-07 3.93595e-09 1.57187e-10)
(2.95704e-07 1.82346e-10 -6.93399e-10)
(2.72762e-07 3.21378e-09 1.27932e-09)
(2.08991e-07 -1.9405e-09 6.24461e-10)
(7.99756e-08 3.2258e-09 -4.31061e-09)
(2.20415e-07 -1.57895e-10 1.11832e-09)
(1.14425e-07 4.345e-09 4.14416e-09)
(1.92564e-07 8.08874e-10 4.01414e-10)
(1.84185e-07 8.25814e-10 1.09681e-09)
(7.03766e-08 -3.00936e-10 1.15209e-09)
(3.06657e-07 2.05574e-10 -7.76653e-10)
(3.21167e-07 -5.83546e-10 -8.23539e-10)
(3.06829e-08 -3.63242e-10 1.55372e-09)
(6.27966e-08 2.02078e-09 -2.97266e-09)
(2.05934e-07 6.49348e-10 8.47041e-10)
(1.13728e-07 5.80959e-10 -8.71662e-09)
(2.48945e-07 -8.74902e-10 -6.89582e-11)
(1.86252e-07 3.10766e-10 -4.40644e-10)
(3.40813e-07 1.11266e-09 1.27963e-09)
(2.55482e-08 -1.98569e-09 -1.4442e-09)
(2.99306e-08 8.05111e-10 -1.42558e-09)
(3.74496e-08 1.03214e-09 -1.35891e-09)
(1.05382e-07 6.72281e-10 -1.15586e-12)
(1.69948e-07 -2.04784e-09 1.18439e-09)
(4.25786e-07 2.8944e-09 3.56478e-09)
(8.36558e-08 -1.86776e-09 2.34501e-09)
(2.67941e-07 -3.43751e-10 7.09452e-10)
(1.78324e-08 3.14754e-10 2.63872e-09)
(1.06194e-07 8.95591e-11 1.8351e-09)
(2.55514e-08 1.37205e-10 2.83833e-09)
(1.73925e-07 5.01132e-10 5.54597e-10)
(1.48322e-07 -9.47359e-10 -1.95869e-10)
(1.97858e-07 3.84691e-10 1.64399e-09)
(1.80601e-07 3.02101e-09 -4.08737e-09)
(2.84657e-07 3.32775e-10 -1.15395e-09)
(1.95704e-07 8.14204e-10 1.01453e-09)
(3.88811e-07 5.09005e-10 2.47609e-10)
(2.12766e-07 -1.43777e-10 1.13853e-09)
(2.07024e-07 4.58078e-10 7.81955e-10)
(2.82409e-07 1.7641e-09 -1.91562e-09)
(2.83924e-07 2.25476e-09 2.36074e-09)
(3.04568e-07 -1.96507e-10 2.05643e-09)
(1.07922e-07 4.29371e-11 -5.21171e-10)
(2.86657e-07 1.94171e-09 3.57049e-09)
(7.70217e-08 -8.178e-10 -4.27662e-09)
(9.40585e-08 7.3642e-10 3.26778e-09)
(2.15896e-07 1.435e-09 -1.80466e-09)
(2.67123e-07 -4.7086e-10 4.69258e-10)
(2.34475e-07 6.8025e-09 3.33889e-09)
(2.97295e-07 5.32232e-10 5.21421e-10)
(7.23307e-08 1.43548e-10 1.57528e-09)
(1.03157e-07 3.93846e-09 -2.88038e-09)
(3.09525e-07 -3.92716e-10 -2.75467e-09)
(2.09021e-07 4.60892e-09 1.12473e-09)
(5.86757e-08 -9.98384e-10 -9.56323e-10)
(7.17079e-08 4.16787e-10 -2.08201e-09)
(1.63512e-07 1.88511e-09 -5.78331e-09)
(1.94135e-07 -8.51416e-11 -2.72571e-10)
(3.00256e-07 -7.7846e-09 1.4947e-10)
(1.44577e-07 -2.48682e-09 1.45637e-09)
(3.41913e-07 -2.11943e-09 -1.2912e-09)
(1.84278e-07 -1.2523e-09 4.72299e-09)
(1.84144e-08 2.21621e-09 -1.24339e-09)
(3.02152e-07 6.98578e-10 1.35731e-09)
(2.72957e-08 1.75298e-09 -2.36214e-09)
(5.00294e-08 -2.05276e-09 1.41285e-09)
(3.76633e-07 1.15718e-09 1.92451e-09)
(2.48595e-07 5.14591e-10 -6.96547e-10)
(2.65317e-08 2.84309e-09 2.82794e-09)
(2.9302e-07 2.05521e-09 1.23958e-09)
(2.41591e-07 4.94835e-09 -1.64732e-10)
(2.53184e-07 -2.5213e-09 3.20391e-09)
(3.43794e-07 -7.69582e-10 5.12366e-10)
(2.20094e-08 2.61355e-09 4.58719e-10)
(2.97219e-07 1.01622e-09 5.28616e-10)
(1.60235e-07 1.07515e-10 2.36228e-11)
(1.66343e-07 1.85431e-10 6.51371e-10)
(2.51362e-07 1.67489e-09 1.49941e-09)
(1.70308e-07 9.62724e-10 7.7191e-10)
(1.72215e-07 9.92852e-10 -3.21747e-10)
(2.72482e-07 1.04835e-09 4.16038e-10)
(3.67831e-08 -1.32601e-09 -1.69615e-09)
(2.89591e-07 -3.0643e-10 8.64226e-10)
(1.89502e-07 -3.80367e-10 -8.72348e-10)
(3.87283e-07 6.96223e-10 4.21734e-10)
(2.77981e-07 1.60729e-09 1.15896e-09)
(3.04098e-07 -1.08141e-09 1.6653e-09)
(1.306e-07 2.09277e-09 2.90672e-09)
(1.87659e-08 -2.90825e-10 1.29817e-09)
(3.35632e-08 -8.16664e-10 5.44539e-10)
(5.14574e-07 -3.38417e-09 -3.23916e-09)
(1.71543e-08 -9.95864e-10 2.47098e-09)
(1.67106e-07 -9.08341e-10 -2.97925e-09)
(7.04599e-08 3.93589e-09 1.54298e-09)
(3.22871e-07 1.62916e-09 1.60591e-09)
(3.84715e-07 -9.94031e-10 -6.40514e-10)
(3.15919e-07 -5.69485e-11 -1.96752e-09)
(1.1832e-07 2.97451e-10 -2.72831e-09)
(2.88568e-07 4.80032e-09 -7.02128e-09)
(6.44721e-08 -5.42164e-09 4.35464e-09)
(8.63539e-08 2.10368e-09 1.70134e-09)
(2.03604e-07 1.15782e-09 -8.33388e-12)
(1.51605e-07 1.55537e-09 -1.46039e-09)
(2.69466e-07 3.0877e-08 8.75989e-09)
(1.87401e-07 -4.1254e-09 1.93004e-09)
(6.10852e-08 -2.36278e-10 -5.69199e-10)
(9.88294e-08 -1.44877e-09 3.21037e-09)
(2.02658e-07 -1.89926e-09 -3.12871e-09)
(2.23702e-07 -5.68362e-11 -5.80444e-10)
(4.45143e-07 -2.1164e-09 2.11725e-09)
(2.38857e-07 4.41524e-10 1.39385e-09)
(4.94044e-07 -4.24788e-09 1.19332e-09)
(1.66578e-07 6.63408e-09 7.96276e-09)
(3.32812e-07 1.66463e-09 2.32438e-09)
(2.84765e-07 1.16276e-09 1.66239e-09)
(1.99839e-07 -9.98766e-10 1.26547e-10)
(3.4285e-07 -1.93941e-09 1.63061e-09)
(1.00661e-07 2.05153e-09 -6.15199e-09)
(2.20108e-08 -1.48245e-09 -2.57496e-09)
(2.95126e-07 -2.75187e-09 4.17329e-10)
(5.51469e-08 -2.71732e-09 3.04107e-09)
(2.66773e-08 7.06442e-11 3.95829e-11)
(4.00809e-07 1.24062e-09 4.58472e-09)
(1.98659e-07 -2.62331e-11 5.10571e-10)
(1.06151e-07 -2.24493e-09 -5.41373e-09)
(2.63411e-07 -9.41735e-10 4.71659e-10)
(3.33431e-07 -1.39275e-09 8.51556e-10)
(4.47745e-07 -7.30866e-10 -1.09202e-09)
(2.7644e-07 -1.99452e-09 -6.51559e-10)
(2.96362e-08 1.43578e-09 6.54256e-11)
(3.18708e-07 -7.51489e-10 1.56195e-10)
(2.28926e-07 -8.24603e-10 6.56587e-10)
(9.44269e-08 2.54021e-10 1.43102e-09)
(3.11803e-07 -3.39391e-12 1.66352e-09)
(2.62322e-07 -1.75673e-10 3.96509e-10)
(1.71456e-07 -7.05637e-11 -1.18375e-09)
(1.96921e-07 4.57838e-10 -1.65643e-09)
(2.78621e-07 -2.12998e-09 3.02975e-09)
(2.00574e-07 -1.60244e-09 3.32881e-10)
(7.48821e-08 -3.92944e-10 -1.24718e-10)
(1.90892e-08 8.05875e-10 -6.17601e-10)
(3.73188e-08 -2.79741e-09 -1.78911e-10)
(2.12331e-07 1.03059e-09 -8.18002e-10)
(2.67856e-07 -2.10928e-08 3.30081e-08)
(1.1579e-07 -6.52277e-09 -9.44602e-09)
(1.07112e-07 5.34578e-10 5.60231e-10)
(2.42254e-07 1.91871e-10 4.32604e-09)
(3.0564e-07 1.77165e-10 2.63584e-09)
(2.32393e-07 -2.41176e-09 6.13145e-09)
(3.60549e-07 -2.05781e-09 2.07317e-09)
(3.33781e-07 -2.30105e-09 -1.34819e-09)
(2.23967e-07 -1.28825e-10 8.39794e-10)
(1.39005e-07 7.89638e-10 2.81724e-10)
(2.2647e-08 -7.13844e-10 -2.62592e-10)
(2.41092e-07 -4.75472e-08 5.84483e-09)
(8.33837e-08 2.09502e-09 6.5654e-10)
(6.0437e-08 -2.66728e-09 -6.11093e-10)
(6.41342e-08 1.41016e-09 5.11759e-10)
(1.75536e-07 -6.52063e-10 -5.26611e-10)
(1.68375e-07 -1.05329e-09 -2.39487e-11)
(2.38279e-07 8.51459e-10 -1.81388e-09)
(1.59315e-08 8.51875e-10 -1.3671e-09)
(1.66793e-07 -4.54232e-10 4.43119e-10)
(6.12259e-08 1.42912e-09 -1.20687e-09)
(1.90513e-07 -1.92898e-10 -7.34679e-11)
(5.26749e-08 -7.25145e-10 -5.70042e-10)
(1.42402e-07 -3.29729e-09 2.53897e-09)
(2.11247e-07 -5.74287e-09 1.51742e-09)
(1.85513e-07 -1.51299e-09 1.29498e-09)
(1.76788e-08 1.37937e-09 -1.91699e-09)
(1.07746e-07 -1.19288e-09 4.37043e-09)
(2.36139e-07 -3.53911e-10 9.52044e-10)
(2.36308e-08 -1.46958e-09 -1.92084e-09)
(2.89718e-07 2.91473e-09 2.11409e-08)
(1.78135e-07 -1.3049e-09 4.09343e-09)
(2.99705e-07 -1.46604e-09 -4.83879e-09)
(1.94053e-07 4.27548e-09 -6.16005e-09)
(9.04705e-08 -1.32082e-09 2.22003e-09)
(3.99281e-07 1.05041e-09 7.02827e-10)
(1.42009e-07 -1.45642e-08 -1.32233e-08)
(3.48061e-07 1.614e-10 2.3429e-11)
(1.55528e-07 1.20844e-08 1.26061e-08)
(1.35891e-07 -6.31765e-09 8.26209e-10)
(1.3827e-07 -1.0569e-09 -3.15715e-09)
(2.84405e-07 -1.33069e-10 4.80589e-10)
(5.61402e-07 4.2139e-10 1.02736e-09)
(7.66177e-08 -7.73147e-10 9.29122e-10)
(3.31628e-07 8.08538e-10 -1.55027e-09)
(1.15558e-07 -5.54195e-10 -2.69966e-09)
(4.58851e-07 7.67118e-10 1.01334e-09)
(3.49487e-07 -4.87555e-10 1.79315e-09)
(6.63683e-08 1.96538e-09 -5.08454e-09)
(2.14988e-07 -1.8526e-09 3.77234e-10)
(3.81124e-07 -4.76909e-09 4.46947e-09)
(2.27704e-07 9.82096e-10 -1.10467e-09)
(2.2317e-07 1.16408e-09 7.52399e-10)
(2.2381e-08 -7.74366e-10 -2.80894e-09)
(1.88571e-08 9.2893e-10 -2.36005e-09)
(2.90042e-07 2.62852e-09 -3.78038e-09)
(2.9531e-07 -1.27683e-10 -2.52063e-10)
(2.32752e-07 -1.48813e-09 -8.85433e-10)
(3.39693e-08 3.60763e-10 -2.55637e-09)
(9.17625e-08 -8.70752e-10 1.06529e-10)
(2.94616e-07 -2.94314e-09 -2.56594e-09)
(1.7613e-07 -8.77417e-11 -1.70265e-10)
(3.21685e-07 -6.46715e-10 2.09884e-09)
(2.99714e-07 -3.58796e-10 -8.73147e-10)
(2.25883e-07 8.6584e-10 9.09892e-10)
(2.39765e-07 2.2194e-09 6.1201e-10)
(1.17639e-07 7.38311e-10 4.12687e-10)
(2.23917e-07 7.39557e-10 -2.67562e-10)
(8.46616e-08 -1.57861e-09 -4.02309e-09)
(2.95088e-07 6.45796e-11 -1.02086e-09)
(1.85128e-07 -6.34326e-10 -1.84482e-09)
(2.16476e-07 5.42513e-10 1.46352e-09)
(2.29685e-07 1.47326e-10 -3.4533e-10)
(3.49203e-07 -1.00684e-09 2.6367e-10)
(2.66708e-07 2.09785e-10 -2.61438e-09)
(6.45318e-08 3.69437e-09 3.49281e-09)
(4.2605e-08 1.12707e-09 3.07249e-10)
(1.84227e-08 1.59845e-09 -1.81555e-09)
(2.32342e-07 6.45411e-09 1.14979e-08)
(3.0985e-07 -2.96033e-10 -3.89872e-10)
(2.71967e-07 -1.27422e-09 1.30268e-09)
(1.90144e-07 1.34311e-09 9.31641e-11)
(2.83988e-08 -1.06524e-10 1.08479e-09)
(2.13915e-08 -3.33889e-10 2.45464e-09)
(1.76945e-07 -1.04446e-09 2.62061e-09)
(2.3512e-07 1.39269e-10 2.17865e-09)
(3.22951e-07 -4.88691e-10 1.23062e-09)
(3.21036e-07 1.13869e-09 6.08991e-10)
(1.96515e-07 -1.70338e-09 -9.81386e-10)
(3.62594e-07 -4.59013e-11 5.44927e-10)
(3.7179e-07 1.87811e-09 3.02054e-09)
(3.01419e-08 -5.86504e-10 2.82082e-09)
(1.80173e-07 -2.92898e-10 1.36379e-09)
(6.99117e-08 6.49772e-10 3.66182e-09)
(9.75812e-08 -9.75287e-09 2.09179e-09)
(1.29895e-07 3.77583e-10 4.61878e-10)
(1.38231e-07 8.86914e-10 -2.28364e-10)
(2.53146e-07 -2.00273e-10 4.19995e-10)
(1.83193e-08 -3.46716e-09 -1.24512e-09)
(3.6939e-07 3.93593e-10 -1.20197e-09)
(2.78921e-07 -3.83829e-10 3.77679e-12)
(2.24634e-07 -7.82026e-12 9.17448e-10)
(1.96409e-07 1.97058e-09 1.15193e-10)
(1.72472e-07 -1.07346e-09 1.97203e-09)
(2.70306e-07 2.74972e-10 6.07936e-10)
(2.43253e-07 9.48877e-10 5.93301e-10)
(3.20021e-07 5.82818e-10 3.52891e-10)
(1.66414e-07 6.96406e-09 -5.86263e-09)
(2.74705e-07 2.35478e-10 -5.92875e-10)
(2.90269e-07 -5.68258e-09 -7.3013e-10)
(1.76562e-08 -1.12079e-09 1.27593e-09)
(3.1812e-07 7.46064e-10 2.90616e-10)
(1.88714e-07 3.82041e-09 1.69597e-10)
(6.21878e-08 -1.81311e-09 5.1863e-09)
(1.6769e-07 1.65243e-09 -2.95177e-09)
(3.5165e-07 6.69619e-10 -1.78439e-10)
(2.20904e-07 -7.02702e-10 2.07953e-09)
(1.14871e-07 3.36615e-10 -3.22846e-09)
(1.73318e-08 -1.58052e-09 -1.70705e-09)
(2.63937e-07 4.35686e-10 -3.96721e-10)
(3.31783e-07 4.61884e-09 -5.01761e-09)
(2.38947e-07 -6.01632e-10 -9.24521e-10)
(1.85684e-07 -4.41856e-11 1.20338e-09)
(5.51111e-08 2.54784e-09 2.4184e-09)
(2.51146e-07 -1.2808e-11 -3.95277e-10)
(2.64243e-08 2.13582e-09 -3.41172e-09)
(1.76885e-07 2.09136e-10 -8.46752e-10)
(2.08665e-07 2.32548e-08 -7.44779e-09)
(2.61724e-07 -2.35874e-09 -1.08903e-09)
(8.4738e-08 7.58438e-11 3.01379e-09)
(1.78739e-07 -2.01722e-09 -2.83152e-09)
(1.12714e-07 5.50308e-11 -1.45564e-09)
(4.55888e-08 2.54869e-09 2.37314e-09)
(4.95844e-07 3.63399e-10 -2.17172e-10)
(2.20117e-07 -5.13729e-10 5.78763e-10)
(1.68503e-08 5.75003e-10 1.64736e-09)
(2.8583e-07 8.20251e-10 6.11406e-10)
(2.99708e-07 7.50119e-10 8.93009e-10)
(3.72687e-08 -9.1865e-11 -2.28941e-09)
(1.23557e-07 5.45113e-09 -2.34506e-10)
(9.56832e-08 3.57848e-09 2.48628e-09)
(1.92166e-07 -4.58068e-10 8.88149e-10)
(2.72267e-07 -4.77347e-10 7.62707e-10)
(3.49671e-08 -9.38237e-10 1.60246e-09)
(8.72936e-08 -2.9262e-09 -9.25858e-10)
(9.83594e-08 1.93959e-09 -1.56009e-10)
(1.73179e-07 2.43661e-09 7.22142e-10)
(3.5388e-07 -7.63008e-11 1.25415e-09)
(2.25977e-08 1.24064e-09 -2.9384e-09)
(3.68213e-07 -1.30153e-09 1.71944e-09)
(2.37085e-07 6.2907e-09 -1.33063e-09)
(2.85904e-07 -6.45503e-10 1.33407e-09)
(1.14195e-07 4.9013e-09 -4.72418e-09)
(3.37529e-07 1.96816e-10 6.17284e-10)
(2.19276e-08 -2.98251e-10 -2.38994e-09)
(2.98882e-07 -2.42597e-09 -1.19514e-09)
(2.65457e-08 -3.82109e-10 -5.08523e-11)
(1.35582e-07 -3.64242e-09 2.00794e-09)
(2.27263e-07 -1.81578e-09 1.11503e-10)
(1.32682e-07 -3.97906e-09 -1.35025e-09)
(1.82098e-08 2.12422e-09 1.88334e-09)
(4.86142e-08 9.77442e-10 -1.52719e-09)
(7.27189e-08 -3.96416e-09 2.75688e-09)
(1.27534e-07 2.58982e-09 -3.69728e-09)
(3.2421e-07 2.99429e-10 -2.25414e-09)
(5.56513e-08 -1.29315e-09 8.94964e-11)
(1.32003e-07 4.29584e-09 -2.20757e-09)
(2.25784e-07 -1.25762e-08 -2.43178e-08)
(2.20532e-07 1.17408e-10 3.93543e-10)
(2.77997e-08 1.78495e-09 3.28385e-10)
(2.2234e-07 7.78453e-10 -2.42512e-09)
(1.47279e-07 1.60805e-08 -6.36106e-09)
(2.07352e-07 5.57688e-11 -4.20002e-10)
(9.77548e-08 -1.14141e-10 -2.47026e-09)
(1.81027e-07 6.88508e-11 1.1365e-09)
(1.03045e-07 -4.17282e-09 -3.13652e-09)
(1.5943e-07 1.07708e-09 7.62292e-10)
(1.66806e-07 -3.01243e-10 -9.94132e-10)
(6.9488e-08 2.99795e-09 -6.24375e-09)
(3.04862e-07 2.38533e-10 -4.14316e-10)
(7.10233e-08 3.37402e-09 3.5924e-09)
(1.47888e-08 2.24917e-09 8.40342e-10)
(3.17321e-07 1.6579e-09 -1.07321e-09)
(1.99166e-07 -4.14174e-10 -1.10038e-10)
(2.90529e-07 2.39526e-09 -1.13811e-09)
(2.24544e-07 2.99724e-09 -1.62027e-09)
(4.84745e-07 -2.10139e-09 -2.41173e-10)
(1.33027e-07 3.9876e-09 -6.25947e-10)
(4.17761e-07 -1.75155e-09 7.41196e-10)
(9.50037e-08 -3.12223e-09 3.98674e-09)
(1.57413e-07 1.21745e-10 2.94618e-11)
(3.01899e-07 -3.2207e-09 -3.35771e-09)
(3.10305e-08 8.03541e-10 -4.30104e-09)
(3.04096e-07 1.74097e-09 -1.96507e-09)
(1.09742e-07 8.24155e-11 3.48167e-09)
(2.8572e-08 -2.01765e-09 -2.15916e-09)
(2.756e-07 -2.79099e-09 -8.96702e-10)
(6.00822e-08 -1.73474e-09 1.53845e-09)
(2.02138e-07 -1.71179e-10 7.57906e-12)
(2.3441e-07 -5.687e-10 1.07383e-09)
(3.71713e-07 6.16577e-10 3.43317e-10)
(9.30862e-08 -4.19594e-09 -4.57048e-09)
(3.01339e-07 1.16983e-09 7.00627e-10)
(1.48305e-07 -2.28829e-09 2.22052e-09)
(3.35353e-07 2.00256e-10 1.11836e-10)
(3.35562e-07 -2.33095e-10 8.68035e-10)
(2.9708e-07 -7.63242e-10 1.76055e-09)
(1.7705e-07 -6.05042e-10 -6.00109e-10)
(4.67145e-08 -2.64182e-09 -2.25658e-09)
(6.75076e-08 4.42429e-10 -5.55962e-10)
(1.87592e-07 -8.10479e-10 -3.80793e-10)
(2.9168e-07 9.14213e-11 3.02426e-09)
(2.70617e-08 -1.99486e-09 -8.91085e-10)
(2.52123e-07 -4.2425e-10 1.092e-09)
(4.9832e-07 3.0232e-10 1.10287e-09)
(3.66098e-07 -4.44578e-10 -6.74444e-10)
(3.99426e-07 -1.11567e-09 -4.98653e-10)
(2.43633e-07 3.77233e-10 -4.10388e-09)
(1.9271e-08 1.96921e-09 1.66573e-09)
(2.37634e-07 6.31851e-10 -1.96062e-10)
(1.44403e-07 -1.30081e-09 -1.65568e-09)
(2.69496e-07 2.19582e-09 1.28088e-09)
(1.56993e-07 6.11837e-10 -3.10953e-10)
(3.38252e-08 2.3894e-09 -9.76994e-11)
(2.25873e-07 -1.56546e-10 4.88936e-10)
(1.47141e-07 3.96399e-09 4.06734e-09)
(2.42013e-07 3.60208e-10 3.99458e-10)
(2.91223e-07 -2.38684e-10 -6.86497e-11)
(1.99438e-07 -2.33168e-09 4.97905e-13)
(1.3048e-08 1.2164e-09 -1.52221e-09)
(1.9116e-08 -1.1999e-09 -1.85679e-09)
(1.98555e-07 8.02453e-10 2.16926e-10)
(3.20796e-07 -1.96864e-09 -1.84556e-09)
(2.47986e-07 -9.07234e-11 1.57233e-09)
(1.86108e-07 -7.22817e-10 1.53448e-09)
(1.56582e-07 -2.45285e-09 1.05381e-09)
(2.56779e-07 -1.76296e-09 -1.02468e-09)
(3.03378e-07 4.48543e-10 1.68886e-09)
(1.85733e-08 1.64934e-09 4.03691e-10)
(1.59034e-07 7.01454e-10 4.37338e-10)
(1.7418e-07 -1.95561e-08 -5.89766e-10)
(4.41203e-08 -7.34744e-10 2.38501e-09)
(8.23537e-08 -5.25812e-09 1.30934e-09)
(3.05539e-07 1.14486e-10 -2.05526e-09)
(2.10963e-07 -2.22132e-09 1.55325e-09)
(1.96234e-07 5.37622e-10 -3.69883e-10)
(2.32033e-07 -1.16178e-09 1.27399e-09)
(1.35397e-07 -4.61458e-09 1.54384e-09)
(3.58996e-07 -1.73717e-10 1.01486e-09)
(1.75377e-07 1.6561e-09 -5.55489e-09)
(4.46922e-07 7.71688e-10 -5.05466e-10)
(2.2879e-07 1.15897e-09 8.80006e-11)
(2.57446e-07 1.19445e-10 2.96146e-10)
(3.34541e-07 -2.13502e-11 2.82671e-10)
(4.56219e-08 -3.5807e-10 2.27821e-09)
(5.54244e-07 3.43018e-10 -4.26527e-11)
(3.20502e-08 1.01348e-09 -1.30382e-09)
(1.48943e-07 -1.45033e-08 8.55965e-09)
(1.1202e-07 3.74814e-09 2.9955e-09)
(1.61644e-07 -3.2151e-09 -1.66156e-08)
(2.11459e-07 -1.00404e-09 -1.30544e-09)
(2.90776e-07 -4.7214e-08 -1.05205e-08)
(1.45914e-07 3.26877e-10 -4.57816e-10)
(3.35242e-07 -1.1988e-09 -3.84821e-10)
(3.42598e-07 3.85475e-09 -1.41925e-12)
(2.24469e-07 -4.49422e-10 3.97787e-10)
(3.32868e-08 2.91873e-10 -6.25135e-10)
(1.18483e-07 -4.4443e-09 -2.98199e-09)
(2.10306e-07 -3.92002e-09 -2.99373e-08)
(2.30097e-07 2.39989e-10 2.64374e-10)
(9.82917e-08 -1.98324e-09 -5.83663e-10)
(2.18235e-07 -2.16341e-08 -7.63338e-09)
(2.39168e-07 -6.10153e-09 6.91066e-09)
(3.02234e-07 2.35257e-09 2.68438e-09)
(4.22802e-08 -8.40487e-10 1.55712e-09)
(5.20349e-08 -2.56417e-09 1.40575e-09)
(2.59949e-08 1.21809e-10 -2.38874e-10)
(1.86619e-08 1.53233e-10 -1.42412e-09)
(4.23492e-08 -7.90209e-11 1.90754e-10)
(2.21585e-07 -1.61527e-08 9.21744e-09)
(1.82583e-07 -9.19727e-10 1.09959e-09)
(1.77638e-08 -6.39695e-10 2.46402e-09)
(1.96089e-08 1.40238e-09 2.15495e-09)
(3.85616e-07 1.07568e-10 -5.08256e-10)
(1.66158e-07 -2.18264e-08 1.48312e-08)
(4.48881e-08 1.93792e-09 6.82576e-10)
(2.28329e-07 2.70231e-10 -1.05003e-09)
(1.0523e-07 -1.21667e-09 -1.40746e-09)
(2.01033e-07 4.08727e-10 1.90135e-09)
(4.25194e-08 2.21904e-09 -1.19307e-09)
(9.0756e-08 2.81317e-09 -1.09376e-09)
(1.88737e-07 -2.17572e-09 3.35103e-11)
(2.81483e-07 -1.01452e-10 -1.52572e-09)
(4.0386e-07 -6.13114e-10 -1.91255e-09)
(4.08985e-08 3.40191e-09 -1.15122e-09)
(2.35178e-08 -1.83686e-09 1.09713e-09)
(2.01613e-07 -2.88091e-08 -2.13831e-08)
(2.67512e-08 -3.48453e-09 1.97257e-10)
(3.08933e-07 -1.58068e-09 -2.39979e-09)
(2.73698e-08 1.53159e-09 -3.38008e-09)
(1.44782e-07 -7.34536e-10 3.03519e-09)
(3.26136e-07 -2.35611e-09 3.46947e-10)
(4.4841e-07 -8.63718e-10 2.82939e-09)
(5.65521e-08 8.54137e-10 -1.03672e-09)
(1.36597e-07 -2.86198e-10 -1.51185e-09)
(3.73568e-08 1.36967e-09 -1.59108e-09)
(2.76981e-08 3.27929e-09 -1.17654e-09)
(2.79177e-07 -1.09595e-09 -6.73372e-10)
(1.401e-08 -1.1921e-09 -1.79079e-09)
(1.87342e-07 -4.36306e-10 -5.63125e-10)
(5.90157e-08 1.40656e-09 -2.795e-09)
(3.30081e-07 -2.87655e-09 -5.05011e-10)
(2.26372e-07 -1.32339e-09 -2.52066e-10)
(1.83951e-08 -4.83674e-10 2.92361e-09)
(1.30641e-07 -6.54072e-09 6.91695e-10)
(2.49548e-07 9.69778e-10 1.07796e-09)
(3.01935e-08 -1.48078e-09 3.72228e-11)
(2.97137e-07 7.86813e-10 -9.67311e-10)
(7.67146e-08 -3.08045e-09 4.77066e-09)
(2.09768e-07 3.88275e-10 3.19409e-11)
(2.43937e-07 -4.26582e-10 1.76753e-10)
(5.32761e-08 1.59218e-09 1.07562e-09)
(2.04578e-08 8.73888e-10 -2.63092e-09)
(8.9064e-08 1.79707e-09 -7.67998e-10)
(2.43643e-07 3.82161e-08 8.21064e-09)
(2.2047e-07 7.99261e-10 1.05641e-09)
(7.47794e-08 -3.54802e-09 3.60631e-09)
(1.7785e-07 7.96675e-10 2.37135e-09)
(2.33873e-08 -8.86791e-10 5.43405e-10)
(2.1747e-07 -6.16747e-10 -1.89552e-10)
(2.24334e-08 -3.63767e-10 -1.74221e-09)
(3.43022e-07 -7.3011e-10 -1.60075e-09)
(3.00178e-07 5.76222e-10 1.17959e-10)
(2.27239e-07 4.21256e-10 -8.0826e-10)
(1.38421e-08 1.36517e-09 3.78226e-11)
(3.44835e-07 8.90105e-10 9.63332e-10)
(1.53652e-07 1.97585e-09 6.72714e-10)
(3.62942e-07 -2.54353e-10 2.00927e-10)
(6.08474e-08 -7.14822e-10 -2.67132e-10)
(2.22571e-07 -2.67549e-08 1.37558e-08)
(2.65056e-07 -1.92159e-09 -9.43594e-10)
(6.30596e-08 7.13564e-10 -7.69495e-10)
(2.7494e-07 -1.05684e-10 6.58353e-10)
(2.10066e-07 3.88507e-09 -3.95498e-08)
(1.79665e-07 5.31996e-10 -1.22344e-09)
(3.15651e-08 8.21853e-10 -1.73749e-09)
(9.71075e-08 -9.52996e-10 -5.34814e-09)
(2.04394e-07 -3.77929e-10 -1.33444e-10)
(2.15876e-07 2.11197e-09 1.20414e-09)
(3.05808e-08 1.55006e-09 6.34715e-10)
(2.15201e-07 2.93786e-09 -3.34727e-09)
(1.54003e-07 -1.21619e-09 -4.72033e-09)
(2.35832e-08 -2.03836e-09 1.40296e-09)
(2.15031e-07 -6.22643e-11 -5.09397e-10)
(1.5832e-07 -1.96055e-09 1.53616e-08)
(3.21211e-07 3.45581e-09 -4.6878e-09)
(2.09528e-07 -7.30991e-10 -6.86291e-11)
(1.9239e-07 -5.83834e-10 8.41909e-10)
(3.21272e-07 -2.47168e-10 8.6316e-11)
(2.52992e-07 1.5648e-09 -6.01144e-10)
(6.78349e-08 1.73907e-09 5.87136e-10)
(6.94962e-08 -3.34329e-09 -3.36105e-09)
(3.98481e-07 -7.95344e-10 1.55716e-09)
(2.24792e-07 -1.95976e-08 1.8217e-08)
(2.05027e-07 -1.72373e-09 7.85819e-10)
(1.85299e-07 -2.48174e-09 1.47716e-09)
(1.23718e-07 3.05665e-09 1.32858e-09)
(3.23489e-07 -7.56968e-10 3.50018e-09)
(2.07255e-07 -8.95057e-10 -1.16419e-09)
(1.77001e-07 -4.75627e-10 -2.42866e-09)
(2.20308e-07 3.97053e-09 1.22317e-09)
(4.29511e-08 6.60258e-10 -2.77959e-09)
(1.65318e-07 1.14068e-09 -7.43159e-10)
(3.74997e-08 -9.6035e-10 -2.80107e-09)
(3.14776e-07 -2.00359e-09 1.92344e-09)
(3.37551e-07 -9.66466e-10 -6.64768e-10)
(1.61834e-07 3.44685e-09 -3.73022e-09)
(1.57976e-07 1.29162e-09 -1.06865e-09)
(1.70366e-08 1.74744e-09 -3.52713e-10)
(1.0182e-07 -4.17122e-10 -9.49457e-10)
(7.28158e-08 -2.45299e-09 -3.10982e-09)
(2.74678e-07 1.20841e-10 -1.5686e-09)
(2.48663e-07 -1.12399e-09 -5.53998e-10)
(2.20569e-07 -2.01174e-08 1.2732e-08)
(3.20714e-07 -4.14536e-10 2.20999e-09)
(7.99301e-08 -2.3301e-09 -1.97592e-09)
(1.36573e-07 -3.42245e-09 1.066e-08)
(2.42239e-07 -2.83366e-09 2.97567e-09)
(2.58553e-08 -1.97643e-09 -2.00459e-10)
(2.55333e-07 -8.01267e-10 3.607e-10)
(5.21014e-08 1.46364e-09 -8.98892e-11)
(2.06078e-07 -2.95632e-10 2.01295e-09)
(3.04757e-08 4.35207e-09 -3.50891e-10)
(3.73013e-07 2.38583e-10 -1.45624e-09)