/*--------------------------------*- C++ -*----------------------------------*\
| =========                 |                                                 |
| \\      /  F ield         | OpenFOAM: The Open Source CFD Toolbox           |
|  \\    /   O peration     | Version:  2406                                  |
|   \\  /    A nd           | Website:  www.openfoam.com                      |
|    \\/     M anipulation  |                                                 |
\*---------------------------------------------------------------------------*/
FoamFile
{
    version     2.0;
    format      ascii;
    arch        "LSB;label=32;scalar=64";
    class       volVectorField;
    location    "60";
    object      momentum:angularMomentum;
}
// * * * * * * * * * * * * * * * * * * * * * * * * * * * * * * * * * * * * * //

dimensions      [1 1 -1 0 0 0 0];

internalField   nonuniform List<vector> 
59516
(
(-2.24999e-09 -1.4455e-09 2.22925e-07)
(5.69531e-10 -3.84484e-10 1.64722e-07)
(-9.10593e-10 1.03292e-09 2.01749e-07)
(-2.92539e-09 -6.19291e-10 1.72142e-07)
(-8.01791e-09 5.3024e-10 1.99994e-07)
(-5.20283e-09 2.76868e-09 5.03649e-08)
(-4.3696e-09 -2.67988e-09 2.09235e-07)
(-5.94198e-10 -1.07956e-09 1.92325e-07)
(-1.25862e-09 2.29865e-10 1.55287e-07)
(2.96932e-09 1.60862e-09 7.69383e-08)
(-3.40498e-09 -3.5195e-10 2.08462e-07)
(-5.13576e-09 -3.78843e-09 1.01573e-07)
(-2.46532e-09 -2.0467e-09 3.18045e-07)
(4.46142e-11 -1.66961e-10 1.53911e-08)
(5.85899e-10 -8.85517e-09 1.47084e-07)
(-2.38172e-09 5.80706e-09 8.253e-08)
(-4.77341e-09 -8.80993e-10 2.70183e-07)
(-1.30722e-08 -3.61151e-09 1.59728e-07)
(-1.73888e-08 -3.47187e-09 3.29746e-07)
(-3.94798e-09 1.25976e-09 3.74025e-07)
(-2.66525e-09 1.23836e-09 9.93849e-08)
(8.47746e-10 1.94258e-09 3.17522e-07)
(-6.60016e-09 -1.55638e-09 3.51287e-07)
(8.84481e-10 5.93427e-10 3.36169e-08)
(-1.6626e-10 1.37353e-09 3.13273e-07)
(-4.99004e-10 4.86568e-09 1.95392e-07)
(-6.29362e-10 3.63816e-09 5.05903e-08)
(-5.84636e-09 -2.47141e-09 7.40347e-08)
(-5.94351e-09 -1.92397e-09 1.44327e-07)
(1.59791e-09 1.31312e-09 1.28899e-08)
(-3.76127e-08 2.10455e-09 1.89462e-07)
(-5.42084e-09 4.16032e-09 8.36733e-08)
(-9.57886e-10 -4.84676e-10 1.73464e-07)
(-3.03579e-09 -1.79144e-09 1.73333e-07)
(-6.51165e-09 -1.57355e-11 1.33657e-07)
(-1.56709e-09 4.11703e-10 3.99343e-07)
(-1.88192e-09 9.86559e-10 1.25057e-08)
(-1.30624e-08 -4.14966e-09 1.31644e-07)
(-1.0915e-08 1.11843e-09 2.66395e-07)
(-1.11265e-10 1.39519e-09 2.83731e-07)
(-1.49926e-10 -1.55168e-09 2.53028e-07)
(-3.31316e-08 -1.03872e-10 4.06991e-07)
(-1.24074e-08 2.31859e-09 3.43332e-07)
(-6.79336e-10 3.68446e-10 1.08635e-07)
(-1.02878e-08 1.31926e-09 2.6469e-07)
(2.57682e-09 7.13358e-10 9.9567e-08)
(-1.35171e-08 3.5638e-10 3.24344e-07)
(-8.37133e-09 1.0129e-09 2.55014e-07)
(-3.43227e-08 3.11946e-09 2.51868e-07)
(-1.40112e-08 5.18039e-10 2.41295e-07)
(-2.81939e-08 8.17625e-10 1.63915e-07)
(-7.05931e-09 -3.36903e-09 7.38237e-08)
(1.02101e-09 -6.60663e-09 3.1174e-07)
(-7.43131e-10 1.16431e-09 2.96835e-07)
(-5.09971e-09 1.31977e-09 8.20345e-08)
(-6.08988e-09 1.07834e-09 2.46007e-07)
(-1.67709e-08 8.69486e-11 2.03479e-07)
(-7.42486e-09 -2.78487e-09 7.42852e-08)
(-3.79273e-10 7.89775e-11 2.13946e-07)
(-1.12102e-08 -3.61954e-10 1.45862e-07)
(-5.7244e-10 5.33172e-10 2.08849e-07)
(-1.15619e-09 1.58901e-09 1.4706e-08)
(-1.4677e-09 -6.52697e-11 2.72823e-07)
(-7.64015e-09 -1.42936e-10 3.44677e-07)
(-1.47166e-09 1.32368e-09 2.85846e-07)
(-1.00878e-08 1.57539e-10 2.15533e-07)
(1.35701e-10 1.98165e-09 1.73919e-08)
(-2.19438e-10 5.28541e-10 6.43444e-08)
(-3.72126e-08 6.2697e-10 1.9834e-07)
(-4.64451e-09 -1.03111e-09 1.68922e-07)
(-8.35642e-10 -1.16902e-09 5.02713e-08)
(-2.54968e-09 -7.90252e-10 1.58688e-07)
(3.42534e-09 -1.37995e-09 2.24366e-08)
(-2.42753e-09 -5.72041e-10 1.8622e-07)
(-7.34168e-10 -9.73424e-10 3.90917e-07)
(-9.86849e-09 5.01371e-10 3.60706e-07)
(-6.64573e-09 1.80798e-10 2.15228e-07)
(7.68719e-10 6.86906e-11 2.26879e-07)
(3.31437e-09 1.7608e-09 8.21019e-08)
(-1.09706e-08 9.30504e-10 1.93341e-07)
(-3.33142e-09 6.48427e-13 4.87493e-08)
(-8.93564e-09 4.94679e-10 1.71593e-07)
(-8.41888e-09 4.94165e-10 1.82924e-07)
(-2.2249e-09 1.21444e-09 1.74574e-08)
(-1.09317e-08 1.15073e-09 2.15296e-07)
(-1.85092e-09 1.81326e-09 3.87857e-07)
(6.02076e-10 1.06737e-09 3.05875e-08)
(-2.31862e-09 3.51357e-10 5.01815e-07)
(-3.92011e-09 -2.05754e-09 1.07569e-07)
(-1.55473e-08 -3.87335e-09 1.66759e-07)
(-1.61292e-08 -3.77415e-11 1.83374e-07)
(-1.24606e-09 1.58548e-09 1.89642e-07)
(-9.01986e-10 -7.27358e-11 2.6575e-07)
(-4.6196e-11 1.39318e-09 1.82356e-07)
(6.228e-12 3.32274e-11 1.86432e-07)
(-1.87583e-08 -1.17738e-10 1.83417e-07)
(-3.4054e-10 -2.96993e-10 1.24086e-07)
(3.45353e-09 6.34566e-09 8.22816e-08)
(-4.42811e-09 -1.75914e-09 1.15054e-07)
(2.28645e-09 1.48254e-09 2.07869e-07)
(-2.01921e-09 1.41849e-09 6.02704e-08)
(2.78808e-09 1.47549e-09 2.53167e-08)
(2.80637e-09 1.46967e-09 2.23707e-08)
(-3.14227e-09 3.52295e-09 8.24606e-08)
(1.44549e-09 -5.84586e-11 2.32368e-07)
(1.61236e-10 -7.39935e-10 1.64762e-07)
(2.50591e-09 -4.43526e-09 5.33713e-08)
(-1.03341e-09 -4.9151e-10 1.35194e-07)
(-3.50006e-10 1.20926e-09 1.72262e-07)
(-3.99774e-09 6.316e-09 1.83609e-07)
(-4.20623e-08 -5.36938e-10 2.80323e-07)
(3.09499e-09 -2.96793e-09 4.16332e-08)
(-7.2079e-09 9.24621e-09 1.82412e-07)
(-3.62274e-08 -9.3154e-11 2.19232e-07)
(-1.14272e-10 1.58123e-10 2.22888e-07)
(1.48595e-09 -1.63455e-09 1.34112e-07)
(-3.99805e-09 -2.61665e-09 1.22904e-07)
(-3.68851e-10 -6.77481e-10 1.42959e-07)
(-3.13517e-10 -8.3595e-10 1.76719e-08)
(-1.44713e-09 1.50245e-09 2.62745e-07)
(3.83845e-10 -1.1461e-10 4.32257e-07)
(-4.51664e-10 6.34084e-10 1.80913e-07)
(8.45321e-10 2.35217e-10 1.60294e-07)
(-4.65318e-10 3.31978e-10 1.87779e-07)
(-1.81142e-08 1.15496e-09 1.33085e-07)
(-5.3415e-09 1.80231e-10 1.43627e-07)
(-2.11401e-09 -1.03058e-09 3.45445e-08)
(-2.10228e-08 3.16707e-09 2.12288e-07)
(-2.37436e-08 5.59371e-09 1.63211e-07)
(1.52364e-10 -2.50913e-10 1.6607e-07)
(-1.85219e-10 -2.34253e-10 2.97393e-07)
(4.85566e-09 5.62994e-09 3.18714e-07)
(-4.86186e-10 -1.92107e-09 2.1776e-08)
(-7.33015e-11 9.6843e-10 2.54473e-07)
(3.39198e-09 1.07978e-09 3.09332e-07)
(-3.48669e-09 1.65398e-09 1.9343e-07)
(-2.2018e-08 1.98382e-09 1.51777e-07)
(3.29394e-10 1.16445e-09 3.09289e-07)
(-4.91444e-10 3.45281e-09 5.01159e-08)
(-1.86475e-09 1.37974e-09 1.56914e-07)
(-1.74785e-09 3.67682e-09 7.38507e-08)
(-5.73151e-10 -7.71752e-10 3.45729e-07)
(-6.16663e-10 -1.13564e-09 1.3348e-08)
(-7.50159e-10 1.1674e-09 1.48773e-07)
(-1.84665e-09 2.91482e-11 2.22521e-07)
(-4.50406e-09 1.37653e-09 2.83799e-07)
(-8.48468e-09 1.94448e-09 2.02727e-07)
(-6.07881e-09 2.28126e-09 2.04349e-07)
(9.76124e-10 -1.8176e-09 6.40329e-08)
(-8.03513e-10 2.01967e-09 2.04072e-07)
(-1.24762e-09 -2.78585e-09 3.14311e-07)
(2.32927e-10 1.92177e-09 5.01743e-08)
(2.25578e-09 2.35157e-09 3.91947e-07)
(6.30282e-11 9.77007e-11 2.18737e-07)
(-1.67766e-09 -3.55989e-09 1.55703e-07)
(-1.30135e-09 7.96803e-10 1.3996e-08)
(-1.00327e-09 -8.60094e-10 2.73011e-07)
(-4.44868e-09 2.28327e-09 3.25859e-07)
(-2.03068e-09 8.42905e-10 1.26585e-07)
(-2.16979e-09 -1.53689e-09 1.50613e-08)
(3.52021e-09 3.39184e-09 8.68827e-08)
(5.94364e-09 -3.50481e-09 1.09152e-07)
(-6.6602e-10 1.44899e-09 3.82446e-08)
(-2.03023e-10 -4.05036e-10 2.14331e-08)
(4.93893e-09 1.62418e-10 1.59223e-07)
(-2.02834e-09 5.10143e-11 3.3779e-07)
(2.31533e-09 -1.33537e-10 1.51765e-07)
(-1.86236e-09 -6.48652e-10 2.92143e-07)
(9.55049e-10 1.94688e-09 1.67007e-08)
(3.21666e-10 -9.24586e-10 2.15287e-07)
(-1.51748e-09 -1.19793e-09 8.51262e-08)
(-1.18919e-09 8.23011e-10 6.51764e-08)
(-2.05642e-10 -2.97835e-09 1.02685e-07)
(1.85681e-11 -6.00927e-10 1.50449e-07)
(6.99924e-10 1.05062e-09 8.21968e-08)
(-1.95442e-08 -1.82864e-09 4.52789e-07)
(-1.24093e-09 6.41956e-10 2.5428e-07)
(-1.44559e-08 1.13971e-09 3.1006e-07)
(8.18887e-10 -6.89418e-09 1.44984e-07)
(6.84727e-10 5.00063e-10 5.98025e-08)
(-3.25997e-09 -4.37221e-09 3.07932e-07)
(1.0953e-09 3.88401e-09 4.10477e-08)
(-9.93685e-10 -2.02536e-09 2.84664e-08)
(9.14413e-10 2.33342e-09 1.01641e-07)
(-2.56563e-10 -1.05725e-09 2.14426e-07)
(-6.02478e-10 1.10598e-09 9.45409e-08)
(-3.48871e-09 6.41589e-10 4.43719e-08)
(1.27235e-10 2.32073e-10 1.93731e-08)
(-5.07472e-10 9.84025e-11 1.88687e-07)
(3.44095e-09 1.8193e-09 2.20948e-07)
(-3.17747e-09 -1.80092e-10 1.58787e-07)
(-2.19288e-09 -6.47387e-09 1.1101e-07)
(-1.72216e-09 -6.0939e-10 2.18028e-07)
(2.535e-09 -2.05481e-09 9.09406e-08)
(-1.81564e-09 -9.17725e-11 3.39873e-07)
(4.00597e-10 6.957e-10 2.77618e-08)
(1.23093e-09 4.59349e-10 9.37236e-08)
(4.46877e-10 -1.54723e-09 5.44035e-08)
(-7.78677e-09 -7.55911e-11 1.81697e-07)
(7.54031e-10 -1.35953e-09 2.6638e-07)
(-1.5556e-09 -2.18509e-09 7.54888e-08)
(-4.02251e-10 -3.50457e-10 2.05282e-07)
(3.64756e-10 3.45297e-09 3.05326e-07)
(1.29046e-09 -1.53571e-09 1.52802e-08)
(9.68196e-10 1.43359e-09 2.17266e-07)
(-7.24286e-10 -6.56807e-10 2.38946e-07)
(-8.49457e-10 -6.33514e-10 3.64881e-07)
(1.98526e-09 -1.16381e-09 2.02217e-07)
(1.82009e-10 -5.68012e-10 1.74619e-08)
(4.76347e-09 2.80253e-09 2.97113e-07)
(-6.44283e-10 5.53273e-09 5.85823e-08)
(-4.10372e-09 8.39888e-10 2.50592e-08)
(-1.50326e-09 1.93757e-09 2.31219e-07)
(-5.76079e-10 2.30502e-09 9.16213e-08)
(-2.37257e-09 -3.14442e-09 2.88567e-07)
(6.76079e-10 -2.38684e-10 2.95704e-07)
(-3.33027e-09 9.3507e-10 2.72762e-07)
(-1.6307e-09 1.22324e-09 2.08991e-07)
(-2.54313e-09 4.74548e-09 7.99756e-08)
(1.11457e-09 -1.82483e-10 2.20415e-07)
(-1.90982e-09 -5.6926e-09 1.14425e-07)
(-7.63473e-10 4.82203e-10 1.92564e-07)
(-9.0697e-10 -1.03071e-09 1.84185e-07)
(6.8981e-10 -9.70588e-10 7.03766e-08)
(7.03351e-10 -3.88262e-10 3.06657e-07)
(1.00096e-09 1.29683e-10 3.21167e-07)
(-1.08202e-09 -1.1727e-09 3.06829e-08)
(-3.50372e-09 8.02627e-10 6.27966e-08)
(2.35167e-10 1.04107e-09 2.05934e-07)
(-4.52868e-09 7.47048e-09 1.13728e-07)
(5.06526e-11 8.76152e-10 2.48945e-07)
(-4.22017e-10 3.35625e-10 1.86252e-07)
(-1.5101e-09 -7.71412e-10 3.40813e-07)
(-1.22968e-09 -2.12522e-09 2.55482e-08)
(-1.2201e-09 -1.09171e-09 2.99306e-08)
(-1.70623e-09 -2.67568e-11 3.74496e-08)
(-1.62776e-10 -6.52279e-10 1.05382e-07)
(-2.33622e-09 -3.72161e-10 1.69948e-07)
(-4.45301e-09 1.1207e-09 4.25786e-07)
(2.95658e-09 -4.96243e-10 8.36558e-08)
(6.30149e-10 4.73708e-10 2.67941e-07)
(2.16528e-09 1.54061e-09 1.78324e-08)
(1.47985e-09 1.08887e-09 1.06194e-07)
(2.41002e-09 1.50558e-09 2.55514e-08)
(5.69124e-10 4.84571e-10 1.73925e-07)
(-7.81172e-10 -5.70635e-10 1.48322e-07)
(-1.64558e-09 3.778e-10 1.97858e-07)
(-2.54495e-09 4.39958e-09 1.80601e-07)
(-1.03052e-09 -6.16732e-10 2.84657e-07)
(-1.19295e-09 -5.18729e-10 1.95704e-07)
(-4.85067e-10 -2.91729e-10 3.88811e-07)
(-1.14707e-09 3.39724e-11 2.12766e-07)
(8.77511e-10 2.26413e-10 2.07024e-07)
(6.10095e-10 2.53169e-09 2.82409e-07)
(-1.99378e-09 2.58493e-09 2.83924e-07)
(-1.73447e-09 1.12211e-09 3.04568e-07)
(-4.94993e-10 1.68655e-10 1.07922e-07)
(-3.98564e-09 7.95804e-10 2.86657e-07)
(2.36006e-09 3.65902e-09 7.70217e-08)
(-4.72704e-10 3.31621e-09 9.40585e-08)
(-2.00456e-09 1.13919e-09 2.15896e-07)
(-3.51476e-10 5.64249e-10 2.67123e-07)
(7.41783e-09 1.54856e-09 2.34475e-07)
(7.10317e-10 2.24947e-10 2.97295e-07)
(1.58161e-09 -2.4677e-11 7.23307e-08)
(-2.11696e-10 -4.87476e-09 1.03157e-07)
(-1.39364e-09 -2.40837e-09 3.09525e-07)
(4.73845e-09 2.33029e-10 2.09021e-07)
(-7.14345e-10 -1.18365e-09 5.86757e-08)
(-7.39702e-10 1.9903e-09 7.17079e-08)
(-4.55746e-09 4.02863e-09 1.63512e-07)
(-2.29741e-11 -2.84634e-10 1.94135e-07)
(-4.85521e-09 6.08681e-09 3.00256e-07)
(-1.35867e-09 2.54152e-09 1.44577e-07)
(-2.28277e-09 -9.73726e-10 3.41913e-07)
(-2.0904e-13 4.8862e-09 1.84278e-07)
(-1.0671e-09 -2.30628e-09 1.84144e-08)
(1.42044e-09 5.59164e-10 3.02152e-07)
(2.32061e-09 -1.8076e-09 2.72957e-08)
(2.2308e-09 1.11062e-09 5.00294e-08)
(-2.1726e-09 -5.68014e-10 3.76633e-07)
(-6.6413e-10 -5.55799e-10 2.48595e-07)
(-3.55041e-09 1.86414e-09 2.65317e-08)
(-1.72032e-10 -2.39392e-09 2.9302e-07)
(-2.69602e-09 -4.15268e-09 2.41591e-07)
(-4.05357e-09 4.36529e-10 2.53184e-07)
(3.21045e-10 -8.6701e-10 3.43794e-07)
(1.83608e-09 -1.9157e-09 2.20094e-08)
(3.81669e-10 1.08003e-09 2.97219e-07)
(2.80709e-11 1.0644e-10 1.60235e-07)
(-4.31011e-10 -5.22397e-10 1.66343e-07)
(-2.0277e-09 9.70526e-10 2.51362e-07)
(-1.07285e-09 6.09661e-10 1.70308e-07)
(-6.16048e-10 -8.42473e-10 1.72215e-07)
(3.20689e-10 -1.08133e-09 2.72482e-07)
(2.96957e-12 2.15295e-09 3.67831e-08)
(-3.80757e-10 -8.34153e-10 2.89591e-07)
(2.29976e-10 9.23462e-10 1.89502e-07)
(-4.64695e-10 6.68314e-10 3.87283e-07)
(-1.51877e-09 1.27275e-09 2.77981e-07)
(9.8338e-10 -1.72501e-09 3.04098e-07)
(2.26543e-09 -2.77427e-09 1.306e-07)
(-5.62664e-10 -1.2055e-09 1.87659e-08)
(8.30216e-10 5.23644e-10 3.35632e-08)
(-4.62605e-09 7.37852e-10 5.14574e-07)
(-2.46785e-09 1.00358e-09 1.71543e-08)
(-2.23491e-09 -2.16938e-09 1.67106e-07)
(-1.3157e-09 4.01759e-09 7.04599e-08)
(-1.57926e-09 -1.65501e-09 3.22871e-07)
(-1.18213e-09 -3.04042e-11 3.84715e-07)
(-1.20684e-09 1.55496e-09 3.15919e-07)
(2.15913e-09 1.6942e-09 1.1832e-07)
(8.50367e-09 1.70711e-10 2.88568e-07)
(6.74932e-11 6.9536e-09 6.44721e-08)
(3.46222e-10 -2.68331e-09 8.63539e-08)
(-3.57769e-10 1.10119e-09 2.03604e-07)
(5.93985e-10 -2.04917e-09 1.51605e-07)
(-3.18664e-08 -3.82891e-09 2.69466e-07)
(5.73288e-10 -4.51833e-09 1.87401e-07)
(-6.09262e-10 -9.28163e-11 6.10852e-08)
(3.51077e-09 -2.82609e-10 9.88294e-08)
(-1.4036e-09 -3.38022e-09 2.02658e-07)
(-5.67993e-10 -1.32397e-10 2.23702e-07)
(1.06476e-09 -2.79789e-09 4.45143e-07)
(-7.15011e-10 1.27535e-09 2.38857e-07)
(4.76305e-10 4.38653e-09 4.94044e-07)
(-1.03147e-08 -1.0112e-09 1.66578e-07)
(-2.78568e-09 -6.43233e-10 3.32812e-07)
(-1.99927e-09 3.44203e-10 2.84765e-07)
(9.6301e-10 2.93531e-10 1.99839e-07)
(2.44086e-09 6.8001e-10 3.4285e-07)
(-5.07772e-09 -4.03392e-09 1.00661e-07)
(2.72745e-09 -1.17859e-09 2.20108e-08)
(2.76202e-09 3.43821e-10 2.95126e-07)
(1.59138e-09 3.75492e-09 5.51469e-08)
(3.09791e-11 -7.48178e-11 2.66773e-08)
(-4.73869e-09 -3.21781e-10 4.00809e-07)
(5.09634e-10 -4.05526e-11 1.98659e-07)
(-3.69445e-09 4.54964e-09 1.06151e-07)
(-5.55365e-10 -8.94929e-10 2.63411e-07)
(8.7208e-10 1.38e-09 3.33431e-07)
(-1.28144e-09 -2.90803e-10 4.47745e-07)
(-2.09716e-09 6.74974e-11 2.7644e-07)
(-7.33688e-11 -1.4354e-09 2.96362e-08)
(-6.61178e-10 3.89842e-10 3.18708e-07)
(-1.02976e-09 2.25093e-10 2.28926e-07)
(5.68344e-10 1.33766e-09 9.44269e-08)
(-2.71163e-10 -1.64128e-09 3.11803e-07)
(-2.3133e-10 3.66834e-10 2.62322e-07)
(9.89081e-10 6.54187e-10 1.71456e-07)
(9.51462e-10 1.43112e-09 1.96921e-07)
(-7.00861e-10 -3.63662e-09 2.78621e-07)
(7.25286e-10 1.46717e-09 2.00574e-07)
(-3.47471e-10 2.21864e-10 7.48821e-08)
(-3.83596e-10 9.40063e-10 1.90892e-08)
(3.9085e-10 2.77574e-09 3.73188e-08)
(1.05843e-09 -7.81647e-10 2.12331e-07)
(-3.91714e-08 -2.09285e-10 2.67856e-07)
(-1.1418e-08 1.18411e-09 1.1579e-07)
(5.57517e-10 -5.37409e-10 1.07112e-07)
(3.28402e-09 -2.82252e-09 2.42254e-07)
(-2.15479e-09 1.52838e-09 3.0564e-07)
(-6.58369e-09 2.57584e-10 2.32393e-07)
(8.12725e-10 2.80572e-09 3.60549e-07)
(-1.30623e-09 -2.32513e-09 3.33781e-07)
(1.05885e-10 -8.42994e-10 2.23967e-07)
(-8.36282e-10 -5.94066e-11 1.39005e-07)
(-3.36816e-10 6.8197e-10 2.2647e-08)
(-4.78739e-08 1.72953e-09 2.41092e-07)
(6.69137e-10 2.09103e-09 8.33837e-08)
(-1.3991e-09 2.35167e-09 6.0437e-08)
(1.40095e-09 5.36461e-10 6.41342e-08)
(2.23769e-10 8.07734e-10 1.75536e-07)
(-8.97709e-10 5.51459e-10 1.68375e-07)
(-1.86448e-09 7.34055e-10 2.38279e-07)
(-1.02001e-09 1.2467e-09 1.59315e-08)
(4.10233e-10 -4.84138e-10 1.66793e-07)
(1.58594e-09 -9.91827e-10 6.12259e-08)
(-1.18187e-10 1.69231e-10 1.90513e-07)
(-5.99819e-10 7.00714e-10 5.26749e-08)
(3.77298e-09 1.75588e-09 1.42402e-07)
(1.4124e-09 5.76959e-09 2.11247e-07)
(-1.9114e-09 -5.59187e-10 1.85513e-07)
(2.35104e-09 -2.2382e-10 1.76788e-08)
(-2.74783e-10 4.52196e-09 1.07746e-07)
(1.12495e-10 -1.00945e-09 2.36139e-07)
(9.65968e-11 -2.4166e-09 2.36308e-08)
(-2.13315e-08 -6.34456e-10 2.89718e-07)
(8.80278e-10 -4.20524e-09 1.78135e-07)
(-1.11248e-09 -4.93209e-09 2.99705e-07)
(4.75555e-09 -5.79747e-09 1.94053e-07)
(2.44486e-09 8.34125e-10 9.04705e-08)
(1.24481e-09 2.18587e-10 3.99281e-07)
(-1.87523e-08 -5.9434e-09 1.42009e-07)
(-1.60244e-10 -3.03447e-11 3.48061e-07)
(-1.74226e-08 1.18245e-09 1.55528e-07)
(-5.15668e-09 3.74218e-09 1.35891e-07)
(-7.04333e-10 3.254e-09 1.3827e-07)
(4.63397e-10 -1.84217e-10 2.84405e-07)
(1.08532e-09 -2.34778e-10 5.61402e-07)
(9.09152e-10 -7.96535e-10 7.66177e-08)
(-1.14671e-09 -1.3199e-09 3.31628e-07)
(-2.62295e-09 8.45821e-10 1.15558e-07)
(-5.27845e-10 -1.15616e-09 4.58851e-07)
(8.26105e-10 -1.66453e-09 3.49487e-07)
(-1.56977e-09 -5.22026e-09 6.63683e-08)
(-5.93127e-10 1.79517e-09 2.14988e-07)
(6.50012e-09 -6.8468e-10 3.81124e-07)
(-1.41155e-09 -4.38583e-10 2.27704e-07)
(3.57412e-10 -1.3392e-09 2.2317e-07)
(2.57073e-09 -1.37154e-09 2.2381e-08)
(-2.4555e-09 -6.35008e-10 1.88571e-08)
(-3.34622e-09 3.16278e-09 2.90042e-07)
(-2.55804e-10 -1.20012e-10 2.9531e-07)
(1.22281e-09 1.22608e-09 2.32752e-07)
(-2.27359e-09 1.22311e-09 3.39693e-08)
(7.58341e-10 -4.40994e-10 9.17625e-08)
(-3.81841e-09 -8.15989e-10 2.94616e-07)
(1.80757e-10 6.33713e-11 1.7613e-07)
(-1.40046e-09 1.69177e-09 3.21685e-07)
(3.63396e-10 -8.71242e-10 2.99714e-07)
(9.26872e-11 -1.25259e-09 2.25883e-07)
(-5.56724e-10 -2.23391e-09 2.39765e-07)
(3.95353e-10 -7.47736e-10 1.17639e-07)
(-6.14053e-10 4.91398e-10 2.23917e-07)
(-2.74703e-09 3.33633e-09 8.46616e-08)
(-7.7282e-10 6.70134e-10 2.95088e-07)
(-1.61785e-09 -1.09009e-09 1.85128e-07)
(-1.40802e-09 -6.73565e-10 2.16476e-07)
(-3.75412e-10 -4.8956e-12 2.29685e-07)
(-4.57293e-10 9.34951e-10 3.49203e-07)
(1.87514e-09 -1.8338e-09 2.66708e-07)
(2.79333e-09 4.24799e-09 6.45318e-08)
(1.1671e-09 -5.058e-11 4.2605e-08)
(-1.68505e-09 -1.73547e-09 1.84227e-08)
(-1.31852e-08 9.65468e-11 2.32342e-07)
(4.00752e-10 -2.8113e-10 3.0985e-07)
(-1.74122e-09 5.3738e-10 2.71967e-07)
(-2.53779e-10 -1.3222e-09 1.90144e-07)
(1.06513e-09 2.31555e-10 2.83988e-08)
(6.35266e-10 -2.39441e-09 2.13915e-08)
(-7.19516e-10 -2.72778e-09 1.76945e-07)
(-1.28574e-09 1.76431e-09 2.3512e-07)
(-8.00607e-10 -1.05465e-09 3.22951e-07)
(1.28522e-09 -1.2527e-10 3.21036e-07)
(-1.92847e-09 3.81581e-10 1.96515e-07)
(-4.08853e-10 -3.63169e-10 3.62594e-07)
(3.46382e-09 8.08053e-10 3.7179e-07)
(-1.23863e-09 2.60131e-09 3.01419e-08)
(4.15896e-10 1.33145e-09 1.80173e-07)
(3.24696e-09 -1.81339e-09 6.99117e-08)
(-9.915e-09 -1.08937e-09 9.75812e-08)
(-4.06921e-10 4.36252e-10 1.29895e-07)
(6.82158e-10 -6.11086e-10 1.38231e-07)
(-7.89417e-11 4.58555e-10 2.53146e-07)
(-3.10628e-09 1.98054e-09 1.83193e-08)
(-1.67114e-10 -1.25368e-09 3.6939e-07)
(-1.06114e-10 3.68889e-10 2.78921e-07)
(-5.47391e-10 -7.36298e-10 2.24634e-07)
(1.3388e-09 -1.45054e-09 1.96409e-07)
(7.89261e-10 -2.10198e-09 1.72472e-07)
(-4.67202e-10 -4.76359e-10 2.70306e-07)
(-4.17688e-10 1.03822e-09 2.43253e-07)
(-6.78609e-10 6.08166e-11 3.20021e-07)
(-9.06165e-09 -8.68959e-10 1.66414e-07)
(-6.37217e-10 3.00957e-11 2.74705e-07)
(-5.17031e-09 2.46833e-09 2.90269e-07)
(1.27542e-09 -1.12136e-09 1.76562e-08)
(-5.11303e-10 -6.16149e-10 3.1812e-07)
(2.31664e-09 3.04261e-09 1.88714e-07)
(-4.02874e-09 -3.73555e-09 6.21878e-08)
(-1.97811e-09 2.74419e-09 1.6769e-07)
(-3.75482e-10 5.82446e-10 3.5165e-07)
(-1.57681e-10 -2.18938e-09 2.20904e-07)
(1.23829e-09 3.00049e-09 1.14871e-07)
(-1.89798e-09 1.34526e-09 1.73318e-08)
(-5.06332e-10 -3.01392e-10 2.63937e-07)
(1.56592e-09 6.63762e-09 3.31783e-07)
(-1.08801e-09 -1.815e-10 2.38947e-07)
(-1.15427e-09 -3.43128e-10 1.85684e-07)
(-3.37516e-09 9.73873e-10 5.51111e-08)
(3.8887e-10 -7.2032e-11 2.51146e-07)
(-4.01184e-09 3.26671e-10 2.64243e-08)
(8.94716e-11 8.67595e-10 1.76885e-07)
(-2.43875e-08 1.22641e-09 2.08665e-07)
(2.50826e-09 6.7696e-10 2.61724e-07)
(-3.23811e-10 2.9973e-09 8.4738e-08)
(-2.29245e-09 2.61369e-09 1.78739e-07)
(-4.63665e-11 1.45594e-09 1.12714e-07)
(2.65164e-09 -2.25752e-09 4.55888e-08)
(2.64686e-10 -3.30399e-10 4.95844e-07)
(-2.41909e-10 -7.35095e-10 2.20117e-07)
(-1.62294e-09 -6.40708e-10 1.68503e-08)
(-9.88281e-10 2.64443e-10 2.8583e-07)
(-9.17098e-10 7.20468e-10 2.99708e-07)
(-5.99896e-10 2.21133e-09 3.72687e-08)
(3.09111e-09 4.49609e-09 1.23557e-07)
(-2.49414e-09 3.57301e-09 9.56832e-08)
(-9.38022e-10 -3.446e-10 1.92166e-07)
(4.58004e-10 -7.74477e-10 2.72267e-07)
(-1.32396e-09 1.30204e-09 3.49671e-08)
(2.78277e-09 -1.29462e-09 8.72936e-08)
(-3.42067e-10 1.91555e-09 9.83594e-08)
(1.93401e-09 1.64868e-09 1.73179e-07)
(-2.72643e-10 -1.22654e-09 3.5388e-07)
(-2.61457e-09 -1.82686e-09 2.25977e-08)
(2.05567e-09 6.5166e-10 3.68213e-07)
(-6.3158e-09 -1.20588e-09 2.37085e-07)
(3.13528e-10 -1.44848e-09 2.85904e-07)
(-2.97659e-09 -6.12213e-09 1.14195e-07)
(1.25235e-10 6.35683e-10 3.37529e-07)
(1.10274e-09 -2.1412e-09 2.19276e-08)
(-2.64549e-09 -5.61312e-10 2.98882e-07)
(1.53274e-10 -3.53695e-10 2.65457e-08)
(-8.51164e-10 -4.07119e-09 1.35582e-07)
(-1.04207e-10 1.81621e-09 2.27263e-07)
(-2.42356e-09 3.43256e-09 1.32682e-07)
(-2.43877e-09 1.45316e-09 1.82098e-08)
(4.87448e-10 -1.74646e-09 4.86142e-08)
(7.97051e-10 4.76232e-09 7.27189e-08)
(1.75187e-09 -4.16028e-09 1.27534e-07)
(-2.22501e-09 -4.69147e-10 3.2421e-07)
(2.79643e-11 1.29594e-09 5.56513e-08)
(2.55719e-09 -4.09737e-09 1.32003e-07)
(-2.73551e-08 1.10243e-09 2.25784e-07)
(-3.27435e-10 -2.47886e-10 2.20532e-07)
(1.81474e-09 2.45078e-11 2.77997e-08)
(3.45733e-10 2.52342e-09 2.2234e-07)
(-1.54274e-08 -7.81291e-09 1.47279e-07)
(-2.45952e-11 4.22974e-10 2.07352e-07)
(-2.01644e-09 1.43149e-09 9.77548e-08)
(-9.09136e-10 -6.85445e-10 1.81027e-07)
(2.309e-09 4.68174e-09 1.03045e-07)
(-8.41072e-10 1.01675e-09 1.5943e-07)
(-6.99549e-10 7.67904e-10 1.66806e-07)
(3.56795e-09 -5.93648e-09 6.9488e-08)
(2.90387e-10 -3.79778e-10 3.04862e-07)
(-4.78293e-09 -1.18865e-09 7.10233e-08)
(2.02925e-09 -1.28339e-09 1.47888e-08)
(-9.59839e-10 1.72602e-09 3.17321e-07)
(-8.48474e-11 4.20059e-10 1.99166e-07)
(-2.23246e-09 1.43131e-09 2.90529e-07)
(1.14903e-09 -3.20756e-09 2.24544e-07)
(2.05739e-09 4.91076e-10 4.84745e-07)
(4.00663e-09 -4.89582e-10 1.33027e-07)
(1.82239e-09 -5.44215e-10 4.17761e-07)
(1.98651e-09 4.65791e-09 9.50037e-08)
(-6.30061e-11 -1.0826e-10 1.57413e-07)
(4.13708e-09 2.12878e-09 3.01899e-07)
(-3.63093e-09 -2.44152e-09 3.10305e-08)
(-2.58395e-09 4.64418e-10 3.04096e-07)
(2.3262e-09 -2.59184e-09 1.09742e-07)
(1.36271e-09 2.6222e-09 2.8572e-08)
(-2.70143e-09 1.1384e-09 2.756e-07)
(-2.3156e-09 1.18924e-10 6.00822e-08)
(-2.64624e-11 -1.69291e-10 2.02138e-07)
(-3.59331e-10 1.16078e-09 2.3441e-07)
(-1.44913e-10 6.90677e-10 3.71713e-07)
(1.51373e-10 6.2026e-09 9.30862e-08)
(1.32586e-09 3.1853e-10 3.01339e-07)
(3.12731e-09 6.22035e-10 1.48305e-07)
(7.19895e-12 2.29256e-10 3.35353e-07)
(-7.92483e-10 4.24014e-10 3.35562e-07)
(-9.64267e-10 1.65899e-09 2.9708e-07)
(-7.02426e-10 4.82498e-10 1.7705e-07)
(3.2376e-09 -1.26068e-09 4.67145e-08)
(3.96094e-10 5.8987e-10 6.75076e-08)
(8.86537e-10 1.26217e-10 1.87592e-07)
(9.87405e-10 -2.85999e-09 2.9168e-07)
(4.70501e-10 2.13357e-09 2.70617e-08)
(1.14541e-09 -2.45939e-10 2.52123e-07)
(3.61704e-11 1.14299e-09 4.9832e-07)
(-7.85162e-11 8.03965e-10 3.66098e-07)
(5.37134e-10 1.09766e-09 3.99426e-07)
(-3.90023e-09 1.33127e-09 2.43633e-07)
(-1.47754e-09 2.11408e-09 1.9271e-08)
(6.61562e-10 -3.31633e-12 2.37634e-07)
(1.04955e-09 -1.82534e-09 1.44403e-07)
(-1.0063e-09 2.33444e-09 2.69496e-07)
(-2.45674e-10 6.40844e-10 1.56993e-07)
(-1.99622e-09 -1.31676e-09 3.38252e-08)
(-2.46741e-10 -4.50205e-10 2.25873e-07)
(-3.54534e-09 4.43701e-09 1.47141e-07)
(-3.65789e-10 -3.94354e-10 2.42013e-07)
(1.01779e-10 2.26548e-10 2.91223e-07)
(-7.7312e-10 2.19978e-09 1.99438e-07)
(1.15984e-09 1.56574e-09 1.3048e-08)
(-1.99416e-09 9.54341e-10 1.9116e-08)
(-9.48754e-11 8.25825e-10 1.98555e-07)
(2.56208e-09 -8.46992e-10 3.20796e-07)
(-1.50612e-09 4.60507e-10 2.47986e-07)
(-1.06358e-09 -1.32132e-09 1.86108e-07)
(-5.66041e-10 2.60894e-09 1.56582e-07)
(-8.21272e-10 1.86642e-09 2.56779e-07)
(5.75781e-11 1.74646e-09 3.03378e-07)
(6.60309e-10 1.56438e-09 1.85733e-08)
(-4.48232e-10 6.94544e-10 1.59034e-07)
(-1.95323e-08 1.13034e-09 1.7418e-07)
(-6.76826e-11 2.4947e-09 4.41203e-08)
(-6.10776e-10 5.38416e-09 8.23537e-08)
(-1.32015e-09 1.57937e-09 3.05539e-07)
(2.4297e-09 -1.20144e-09 2.10963e-07)
(5.99194e-11 -6.49816e-10 1.96234e-07)
(1.32803e-09 -1.0996e-09 2.32033e-07)
(-3.91971e-09 2.88335e-09 1.35397e-07)
(1.02198e-09 1.2517e-10 3.58996e-07)
(1.19135e-09 -5.67275e-09 1.75377e-07)
(5.15328e-10 -7.65137e-10 4.46922e-07)
(2.2707e-10 1.13991e-09 2.2879e-07)
(-1.36792e-10 -2.88544e-10 2.57446e-07)
(-1.47388e-10 -2.42147e-10 3.34541e-07)
(1.89588e-09 1.31304e-09 4.56219e-08)
(-3.45375e-10 -1.40207e-11 5.54244e-07)
(-2.84388e-10 -1.62672e-09 3.20502e-08)
(-1.66881e-08 -2.26252e-09 1.48943e-07)
(3.92171e-09 -2.76438e-09 1.1202e-07)
(-1.69235e-08 -9.36841e-11 1.61644e-07)
(1.04108e-09 1.2761e-09 2.11459e-07)
(-4.83587e-08 1.13165e-09 2.90776e-07)
(5.8428e-11 5.59491e-10 1.45914e-07)
(-1.25688e-09 -7.39271e-11 3.35242e-07)
(-3.83783e-09 3.60767e-10 3.42598e-07)
(7.22817e-11 5.9581e-10 2.24469e-07)
(-6.55785e-10 -2.1431e-10 3.32868e-08)
(-5.34948e-09 1.65001e-10 1.18483e-07)
(-3.01187e-08 2.11422e-09 2.10306e-07)
(-2.24575e-10 -2.77586e-10 2.30097e-07)
(-7.21286e-10 1.93744e-09 9.82917e-08)
(-2.28942e-08 1.4689e-09 2.18235e-07)
(-9.2169e-09 1.86274e-10 2.39168e-07)
(1.45911e-09 3.25753e-09 3.02234e-07)
(-1.65209e-09 -6.33768e-10 4.22802e-08)
(1.37605e-09 2.58023e-09 5.20349e-08)
(-2.28866e-10 -1.39709e-10 2.59949e-08)
(1.04756e-09 9.76836e-10 1.86619e-08)
(-2.06317e-10 8.03392e-12 4.23492e-08)
(-1.85923e-08 4.44788e-10 2.21585e-07)
(-1.05669e-09 -9.68709e-10 1.82583e-07)
(-1.688e-09 -1.90559e-09 1.77638e-08)
(-2.48106e-09 6.7443e-10 1.96089e-08)
(4.67355e-10 -2.26881e-10 3.85616e-07)
(-2.57734e-08 5.66468e-09 1.66158e-07)
(-2.04481e-09 2.0047e-10 4.48881e-08)
(-1.08423e-09 -5.37436e-12 2.28329e-07)
(-1.54796e-09 1.032e-09 1.0523e-07)
(1.83193e-09 -6.52873e-10 2.01033e-07)
(1.36938e-09 2.1148e-09 4.25194e-08)
(-1.8725e-09 -2.36728e-09 9.0756e-08)
(2.95911e-10 2.15576e-09 1.88737e-07)
(1.49674e-09 3.12904e-10 2.81483e-07)
(1.54817e-09 1.27943e-09 4.0386e-07)
(-2.13283e-09 2.88952e-09 4.08985e-08)
(-5.77212e-10 -2.06023e-09 2.35178e-08)
(-3.58756e-08 3.79557e-10 2.01613e-07)
(-2.78825e-09 2.09917e-09 2.67512e-08)
(-4.88705e-10 2.83173e-09 3.08933e-07)
(-3.53003e-09 -1.14438e-09 2.73698e-08)
(7.06611e-10 3.04181e-09 1.44782e-07)
(-2.38069e-09 -6.30765e-11 3.26136e-07)
(2.91327e-09 5.14127e-10 4.4841e-07)
(-4.61097e-10 -1.26164e-09 5.65521e-08)
(1.38053e-09 -6.7952e-10 1.36597e-07)
(-2.08363e-09 -2.56886e-10 3.73568e-08)
(-3.47608e-09 -2.34244e-10 2.76981e-08)
(-5.83986e-10 -1.14607e-09 2.79177e-07)
(-1.9257e-09 9.59029e-10 1.401e-08)
(6.43649e-10 3.05269e-10 1.87342e-07)
(-4.27215e-10 -3.09967e-09 5.90157e-08)
(-5.54153e-10 2.86749e-09 3.30081e-07)
(-3.87872e-10 1.29014e-09 2.26372e-07)
(2.74947e-09 1.10537e-09 1.83951e-08)
(-2.54161e-09 -6.06627e-09 1.30641e-07)
(2.03086e-10 1.43569e-09 2.49548e-07)
(-1.3278e-10 1.47529e-09 3.01935e-08)
(9.50068e-10 8.0755e-10 2.97137e-07)
(-1.9213e-09 5.34388e-09 7.67146e-08)
(3.23175e-10 2.17569e-10 2.09768e-07)
(4.04731e-10 -2.22277e-10 2.43937e-07)
(1.92071e-09 -5.35945e-11 5.32761e-08)
(-2.71434e-09 -5.63728e-10 2.04578e-08)
(-1.8388e-09 -6.61893e-10 8.9064e-08)
(-3.90876e-08 2.099e-10 2.43643e-07)
(-1.32224e-09 -8.06553e-11 2.2047e-07)
(3.2867e-11 5.05894e-09 7.47794e-08)
(2.4401e-09 -5.51243e-10 1.7785e-07)
(3.39283e-10 9.83145e-10 2.33873e-08)
(6.39907e-10 -8.26141e-11 2.1747e-07)
(1.06305e-09 1.42742e-09 2.24334e-08)
(-1.73116e-09 3.13889e-10 3.43022e-07)
(1.75163e-12 -5.88169e-10 3.00178e-07)
(-9.07912e-10 -8.02185e-11 2.27239e-07)
(-1.3581e-09 -1.43806e-10 1.38421e-08)
(2.77012e-10 -1.28201e-09 3.44835e-07)
(-1.87933e-09 9.08107e-10 1.53652e-07)
(-3.22554e-10 -3.20282e-11 3.62942e-07)
(2.39884e-10 7.24421e-10 6.08474e-08)
(-3.00731e-08 8.06426e-10 2.22571e-07)
(-2.04008e-09 6.48809e-10 2.65056e-07)
(1.03848e-09 -1.51167e-10 6.30596e-08)
(-6.52575e-10 1.36909e-10 2.7494e-07)
(-3.94742e-08 4.58972e-09 2.10066e-07)
(-1.15419e-09 -6.69091e-10 1.79665e-07)
(-7.37434e-10 -1.77497e-09 3.15651e-08)
(-2.47535e-09 4.83564e-09 9.71075e-08)
(-2.19034e-10 3.35651e-10 2.04394e-07)
(1.93307e-09 -1.47431e-09 2.15876e-07)
(-1.08094e-09 1.2795e-09 3.05808e-08)
(-3.7209e-10 -4.43811e-09 2.15201e-07)
(3.72267e-09 3.14681e-09 1.54003e-07)
(-1.59543e-09 1.89151e-09 2.35832e-08)
(-5.04865e-10 9.20504e-11 2.15031e-07)
(-1.54681e-08 7.46927e-10 1.5832e-07)
(-2.422e-09 -5.29642e-09 3.21211e-07)
(-1.15981e-10 7.24987e-10 2.09528e-07)
(6.25276e-10 8.11606e-10 1.9239e-07)
(9.77938e-12 -2.61623e-10 3.21272e-07)
(1.50076e-09 -7.4678e-10 2.52992e-07)
(1.73576e-09 5.96851e-10 6.78349e-08)
(-8.91578e-10 4.6561e-09 6.94962e-08)
(-6.64787e-10 1.61721e-09 3.98481e-07)
(-2.67319e-08 -1.15113e-09 2.24792e-07)
(3.26471e-10 1.86606e-09 2.05027e-07)
(2.15308e-09 -1.92491e-09 1.85299e-07)
(2.97562e-09 -1.5013e-09 1.23718e-07)
(-1.3481e-09 3.31767e-09 3.23489e-07)
(8.79883e-10 1.1757e-09 2.07255e-07)
(-1.70187e-09 -1.79673e-09 1.77001e-07)
(-3.43889e-09 2.33138e-09 2.20308e-07)
(-1.68398e-09 2.30787e-09 4.29511e-08)
(-1.15402e-09 -7.22265e-10 1.65318e-07)
(-2.34617e-09 -1.80658e-09 3.74997e-08)
(2.02844e-09 -1.89722e-09 3.14776e-07)
(9.58566e-10 -6.76109e-10 3.37551e-07)
(-1.51003e-09 4.84924e-09 1.61834e-07)
(-7.69618e-12 -1.67638e-09 1.57976e-07)
(9.80772e-10 -1.48864e-09 1.70366e-08)
(3.17995e-10 -9.87086e-10 1.0182e-07)
(-3.58169e-09 -1.69104e-09 7.28158e-08)
(-1.44932e-09 6.12013e-10 2.74678e-07)
(1.21065e-09 3.23429e-10 2.48663e-07)
(-2.37582e-08 -1.53753e-09 2.20569e-07)
(-1.94525e-09 1.12778e-09 3.20714e-07)
(-1.48535e-09 2.66972e-09 7.99301e-08)
(-1.11843e-08 5.10183e-10 1.36573e-07)
(1.34359e-09 -3.88317e-09 2.42239e-07)
(1.77765e-09 8.86797e-10 2.58553e-08)
(6.78908e-10 -5.57868e-10 2.55333e-07)
(-1.85715e-10 1.45459e-09 5.21014e-08)
(-2.01135e-09 -3.06347e-10 2.06078e-07)
(3.8711e-09 -2.01946e-09 3.04757e-08)