/*--------------------------------*- C++ -*----------------------------------*\
| =========                 |                                                 |
| \\      /  F ield         | OpenFOAM: The Open Source CFD Toolbox           |
|  \\    /   O peration     | Version:  2406                                  |
|   \\  /    A nd           | Website:  www.openfoam.com                      |
|    \\/     M anipulation  |                                                 |
\*---------------------------------------------------------------------------*/
FoamFile
{
    version     2.0;
    format      ascii;
    arch        "LSB;label=32;scalar=64";
    class       volScalarField;
    location    "60";
    object      nut;
}
// * * * * * * * * * * * * * * * * * * * * * * * * * * * * * * * * * * * * * //

dimensions      [0 2 -1 0 0 0 0];

internalField   nonuniform List<scalar> 
59516
(
2.12977e-06
1.07649e-05
6.74712e-09
7.74641e-08
0.00108444
0.000186194
5.4093e-09
2.73795e-06
2.29388e-07
6.78648e-05
0.000335945
5.78196e-05
4.17663e-07
0.000146395
6.04698e-05
5.64705e-05
9.78117e-06
9.15168e-05
1.24603e-05
1.11056e-08
0.000131787
4.83058e-14
2.53934e-08
0.000116855
2.44504e-16
4.85519e-05
0.00011136
0.000154967
7.0373e-05
0.000124581
0.000242101
0.000146572
8.89257e-12
6.7977e-07
1.34548e-05
4.52484e-12
0.000121686
8.31465e-05
1.68214e-05
2.12672e-13
2.04262e-06
0.000158437
1.2807e-05
5.25218e-06
8.29807e-07
5.55785e-05
3.54546e-06
7.40622e-05
0.000861188
5.77435e-05
0.000623628
0.000103923
6.28579e-09
4.43832e-09
0.00013516
2.70347e-06
0.000238422
0.000119224
8.95849e-09
2.28842e-05
2.40578e-11
0.000131626
6.11004e-09
7.55565e-06
8.88593e-07
3.65006e-06
0.000173454
0.000105186
0.000423661
3.5594e-08
0.000188804
6.48711e-08
0.000153948
7.60668e-11
8.24316e-07
1.05336e-05
4.71278e-05
2.53539e-12
0.000100216
4.81916e-05
0.000107507
1.81644e-05
7.01388e-06
0.000141696
2.18478e-05
1.34041e-06
0.000108512
1.80514e-13
5.61658e-05
4.84173e-05
0.000526343
5.76016e-10
5.25955e-09
1.24211e-09
3.66875e-09
0.00108625
2.55062e-10
5.42399e-05
7.2165e-05
6.31973e-12
0.00012358
0.000154478
0.000151643
5.56962e-05
1.93981e-11
6.63747e-10
0.000115098
6.24228e-07
4.33058e-06
5.70496e-05
0.000242866
0.000164077
6.0327e-05
0.00015343
9.0913e-11
3.11172e-06
5.55946e-05
5.67236e-10
0.000140098
1.65686e-12
2.14375e-06
4.63784e-08
2.48767e-13
1.76198e-08
0.000231761
2.05559e-05
0.00016923
0.000103782
0.00028098
3.93015e-07
8.49591e-07
8.97447e-07
0.000135095
1.12637e-15
6.7988e-06
2.06891e-08
0.000111584
3.91796e-15
0.000114133
1.12112e-05
0.000106598
6.45663e-08
0.000120202
1.60187e-10
1.17627e-06
1.78618e-13
1.80915e-06
8.05517e-07
0.000251054
1.55981e-06
8.8509e-06
0.000104876
2.87768e-11
5.42247e-13
9.4505e-06
0.000132102
5.23419e-07
1.17851e-07
1.45234e-05
0.000134619
6.02076e-05
5.7891e-05
0.000112686
0.000159696
3.61197e-06
1.17161e-08
5.45823e-05
2.54275e-07
0.000127847
1.93829e-08
1.37233e-05
5.57612e-05
3.9677e-05
6.71703e-15
9.101e-05
6.41566e-06
8.83553e-09
2.45085e-05
5.47645e-05
9.35541e-05
7.92253e-14
0.000108943
0.000180444
4.29134e-05
1.36181e-07
5.28157e-05
9.14619e-05
0.000130738
3.8736e-08
6.05855e-06
2.44389e-08
5.68565e-05
1.28061e-09
4.02595e-05
1.90137e-14
9.40694e-05
5.26113e-05
9.30071e-05
3.37217e-06
1.98947e-14
2.39695e-05
4.97859e-07
3.38197e-06
0.000123699
1.34948e-10
2.51604e-12
9.89436e-07
4.08091e-09
0.000136238
1.83694e-06
6.60161e-05
0.000176463
2.24905e-12
6.09724e-05
4.57039e-07
4.5844e-09
4.93673e-13
2.57125e-15
6.08806e-05
4.02723e-13
6.33412e-05
8.67225e-06
2.62859e-09
0.000124964
1.96676e-08
4.64524e-08
0.000159323
0.00010524
3.89877e-08
5.86272e-05
1.85085e-09
7.70292e-08
1.6101e-06
0.000146222
0.000106563
9.27887e-05
4.49224e-05
1.20004e-06
4.62971e-11
6.61393e-05
1.29434e-06
0.000143665
5.16379e-05
0.000157939
1.04948e-06
8.01057e-06
4.75262e-10
5.74035e-05
1.13764e-10
1.76713e-06
2.23689e-13
3.47113e-10
2.66356e-06
1.97879e-11
1.27167e-11
1.96432e-11
6.84104e-05
1.42449e-11
0.000103582
5.65096e-05
5.69709e-10
2.80581e-10
1.71483e-06
3.68804e-08
2.3808e-06
4.95589e-05
1.5071e-09
9.78218e-06
0.000128716
5.29884e-05
1.20542e-05
4.61434e-08
4.35046e-06
1.05456e-05
2.33458e-10
8.93371e-06
0.000129762
2.47855e-11
0.000144522
0.000104198
1.24813e-06
9.44413e-13
0.000162867
3.16468e-07
2.21709e-09
4.1544e-06
4.71431e-07
0.000163628
1.83728e-06
8.18318e-06
8.7895e-08
1.07744e-10
3.73703e-10
7.59385e-06
7.98795e-10
0.000171381
1.76188e-09
2.2577e-15
2.83627e-06
1.4783e-07
7.76026e-09
4.90234e-05
0.000140204
0.000147966
6.96537e-14
0.000140936
8.92147e-05
6.63769e-05
4.83297e-09
5.98923e-09
3.68678e-16
4.9311e-05
3.81366e-06
0.000117602
6.02831e-05
3.59906e-09
6.83304e-06
0.00108008
1.28724e-05
0.000100028
6.21934e-05
2.8836e-06
2.16916e-07
1.02984e-06
4.73599e-06
2.67487e-12
2.94338e-05
9.66635e-09
3.98766e-09
9.12464e-11
1.05676e-12
5.31707e-05
0.000149103
1.39427e-11
0.000100197
0.000109458
1.71384e-10
3.63126e-15
6.32761e-05
6.16489e-08
7.25731e-12
9.38493e-07
4.19927e-08
9.71573e-05
2.68507e-13
7.33868e-07
5.56633e-05
1.03464e-06
2.54253e-07
1.31522e-08
7.09665e-08
6.21367e-11
4.53851e-16
2.17297e-05
0.000113115
0.000115154
8.85315e-06
0.000142793
0.000263558
1.42101e-05
1.54752e-06
2.63375e-08
0.000228074
3.14347e-13
8.29149e-12
6.03108e-13
9.64954e-12
0.000115975
0.00028766
6.33913e-05
0.000100242
0.000109379
3.35805e-10
1.00071e-05
1.1637e-10
0.000129052
1.06073e-09
0.000110595
1.91531e-08
5.08557e-05
4.87297e-05
6.24543e-07
0.00035946
0.000149577
5.83909e-05
2.8384e-12
0.000139541
2.47018e-05
6.31964e-07
2.08821e-13
1.28713e-05
1.18834e-05
1.28532e-10
0.00012794
7.30352e-07
9.72714e-05
5.90441e-05
5.7692e-05
2.41425e-07
8.35773e-08
4.95121e-05
1.6986e-10
4.3819e-06
4.58332e-07
2.82799e-07
0.000112746
2.97095e-08
2.50802e-12
5.74261e-14
4.56073e-13
0.000152109
0.000143849
2.02119e-10
5.54692e-08
1.51489e-06
0.000109788
1.95947e-08
1.54321e-06
3.3792e-07
1.52983e-07
8.34799e-07
4.86251e-08
2.23278e-08
5.17161e-06
4.48495e-07
5.59143e-05
5.03609e-09
2.39323e-06
9.02178e-12
3.08566e-07
1.31358e-14
3.00933e-11
9.58896e-05
0.00011
0.00013276
0.000167037
6.56787e-07
1.72441e-11
2.11253e-08
9.92542e-05
0.000142033
3.11314e-07
1.81755e-11
1.39504e-07
1.36138e-13
1.51625e-12
3.0013e-06
1.74196e-13
0.000157046
6.55471e-08
5.14821e-05
0.000254341
9.01081e-10
9.92641e-06
4.05775e-12
0.000143328
2.60086e-07
1.66385e-06
4.5466e-07
6.53703e-06
1.95445e-11
5.05893e-08
4.34302e-07
1.76519e-06
1.72595e-05
2.81532e-08
6.95682e-15
0.000133983
4.55983e-07
1.60138e-07
0.000107226
4.2385e-06
2.34366e-09
6.18437e-10
1.70618e-05
0.000138675
3.56507e-08
1.81662e-10
9.40276e-11
9.45555e-10
9.46261e-05
6.1583e-12
0.000173186
7.53463e-09
0.00079251
3.52376e-08
0.000115973
1.02353e-06
3.37612e-06
8.21126e-05
1.75206e-06
3.93583e-07
0.000155553
2.39943e-09
4.83805e-06
0.000123873
5.46081e-05
5.18576e-05
6.94821e-11
1.29647e-06
0.000213812
5.24894e-05
5.05433e-05
6.37116e-08
1.91313e-06
0.000150357
2.48944e-13
6.37374e-09
1.78529e-07
0.000233241
4.33674e-10
0.000136543
6.10497e-09
0.000138454
4.57988e-05
8.21171e-14
5.01288e-05
0.000142505
0.000119862
0.000101387
5.7793e-05
3.02787e-16
5.73061e-05
4.89477e-05
0.000387133
1.07338e-07
0.000154411
1.31775e-06
0.000119338
3.4824e-08
5.83991e-05
9.49063e-08
6.21832e-05
1.54943e-08
5.1316e-07
8.24109e-05
1.62747e-09
0.000148947
0.000130933
1.13047e-14
7.07281e-07
7.05212e-11
9.47132e-09
5.0381e-07
6.37435e-05
2.22944e-09
5.14669e-05
2.1107e-07
9.6841e-08
0.000154237
4.82347e-14
0.000111606
0.000153731
1.43461e-14
9.64264e-05
4.4116e-10
1.27139e-06
7.2826e-09
5.06803e-05
1.77279e-07
1.31526e-05
9.34435e-07
2.52275e-09
6.08158e-07
7.78369e-07
0.000101747
6.15178e-05
1.0661e-07
2.51775e-12
0.000117054
5.59715e-10
7.73111e-08
3.56079e-08
6.30565e-07
9.26184e-08
0.000133776
1.38991e-08
7.11361e-06
5.70008e-11
3.78557e-06
0.000157978
1.98419e-06
1.14578e-05
3.19779e-16
2.18777e-06
9.19892e-13
0.000109388
0.000141719
9.08121e-07
1.6237e-09
2.98263e-06
9.39836e-09
1.07214e-05
2.30522e-12
1.85778e-07
0.000129976
2.17427e-06
0.000151808
0.000117586
5.09534e-05
4.73106e-14
1.70945e-13
5.88834e-13
2.3056e-09
2.7711e-06
4.72178e-06
1.18358e-05
2.41007e-08
2.66233e-08
2.18029e-08
2.55459e-07
0.000124571
3.48356e-10
0.00010859
0.000207498
4.95945e-05
0.00053557
1.79481e-12
0.000159205
3.35494e-07
1.19094e-09
1.50366e-13
3.04231e-08
0.000107888
0.00148482
0.000700884
9.95797e-07
1.51753e-07
0.000149176
0.000196105
7.08864e-07
9.81997e-05
4.48181e-05
0.000146104
0.000153928
0.000169738
3.34278e-05
1.8877e-09
0.000149584
0.000144135
4.60164e-06
0.000209331
0.000106808
9.56274e-14
3.77193e-07
1.42788e-11
0.00012329
5.4859e-05
1.63669e-07
5.46155e-08
1.1208e-11
0.000108542
0.000137692
0.000391294
0.000167285
2.10152e-11
0.000156143
4.64753e-06
3.3643e-07
5.34002e-11
9.98998e-05
4.23928e-06
9.65086e-05
0.000164412
2.33174e-07
0.000128286
3.96447e-09
0.000116867
6.32861e-12
4.55364e-14
0.000137489
5.57373e-05
2.5123e-14
0.000108134
5.8312e-09
6.10057e-05
1.80029e-06
1.00737e-06
0.000105122
0.000143274
0.000104983
0.000667135
1.69245e-06
6.00403e-05
1.00404e-05
0.000100705
1.54991e-06
0.000144849
1.27691e-10
1.54446e-18
7.4801e-09
0.000133405
5.65673e-15
1.23556e-05
2.51007e-11
6.50176e-05
0.000881116
8.84064e-14
9.15781e-05
3.1183e-06
0.000486749
4.94805e-09
0.000105775
0.000116943
8.05761e-07
1.83613e-09
0.000106172
4.0464e-07
5.41176e-05
0.00014873
1.89809e-07
0.00124546
1.71865e-13
3.28985e-08
2.12686e-07
1.20688e-08
2.97089e-12
0.000100476
0.000108955
3.01978e-07
0.000984107
5.27112e-08
2.14223e-09
1.86057e-05
9.59122e-14
3.14972e-09
6.56954e-06
1.79584e-06
0.000143731
5.16511e-05
0.00012848
2.02716e-12
9.55706e-08
9.0345e-06
3.49811e-06
0.000127186
1.64452e-05
6.14646e-05
5.41968e-08
3.41452e-07
0.00118141
5.13573e-10
1.23418e-05
0.000839826
3.66997e-09
0.000159062
3.43136e-07
5.91369e-05
2.92587e-12
0.000164159
3.54833e-10
0.0013489
4.55981e-12
1.7548e-07
8.63337e-13
3.21396e-13
5.47921e-07
0.000117237
0.000120196
9.39217e-05
5.92062e-07
6.58948e-11
1.19461e-09
4.38005e-14
0.00012345
1.31971e-05
1.24349e-05
1.92515e-07
1.80456e-09
5.09642e-11
8.10832e-06
1.23138e-06
0.000141102
9.80459e-06
8.15888e-10
0.000155994
8.98133e-05
5.06503e-05
0.000139758
1.64454e-05
1.7649e-09
5.19484e-05
0.000131478
2.14721e-06
0.000145215
1.88924e-06
1.66966e-07
3.02899e-06
1.42948e-07
3.6153e-13
3.93434e-07
1.73409e-08
0.000100789
8.41158e-08
2.0445e-11
1.19428e-05
1.1619e-05
2.3443e-09
1.74235e-07
4.16194e-05
1.07076e-14
0.000110216
1.07304e-05
5.5224e-06
5.89292e-05
4.7102e-13
0.000264245
4.93877e-05
0.000105417
0.00016734
4.98034e-05
0.000132925
1.07579e-09
2.06439e-11
1.46495e-09
8.54727e-05
3.73673e-11
7.52992e-12
0.000146791
1.87303e-10
0.000579483
9.1068e-05
0.000146327
7.13144e-08
1.17017e-06
0.000146012
4.75581e-11
0.000141604
7.25578e-08
2.69566e-11
5.07228e-08
7.38117e-14
2.40754e-06
5.27125e-06
5.93003e-07
0.000129347
0.000112099
3.34729e-06
4.43109e-06
0.000128193
1.25652e-13
0.000311534
8.22875e-08
5.36585e-08
1.91325e-05
6.17027e-11
5.38983e-06
1.14636e-05
0.000116888
1.75583e-08
3.23575e-06
0.000122408
2.07321e-09
1.27696e-06
3.98216e-15
6.7047e-06
4.83079e-11
1.44183e-06
1.27632e-05
2.48996e-06
7.19701e-06
2.32769e-12
4.57158e-05
2.6033e-08
6.98476e-07
0.00155894
1.66851e-16
2.31224e-06
1.95456e-07
0.000123043
9.45021e-05
6.31163e-08
1.66952e-12
7.84346e-12
3.16138e-06
8.30859e-13
2.16667e-06
5.47006e-07
0.000224641
1.42003e-06
4.94131e-07
0.000139288
2.14052e-12
8.69492e-11
0.000108145
3.60812e-11
7.83344e-07
3.10363e-06
5.3326e-07
2.76453e-06
1.30807e-07
5.38876e-05
0.00143812
0.000119993
4.42103e-07
2.21391e-07
0.000153494
7.64666e-05
5.37509e-05
2.54058e-07
9.10864e-05
2.58176e-11
1.41198e-07
1.93273e-08
1.44851e-12
1.46479e-05
0.000117702
6.00379e-11
3.0683e-10
2.89542e-07
1.45795e-05
6.63264e-13
2.65991e-06
7.49353e-07
0.000124605
2.01997e-09
8.84554e-06
1.73502e-05
0.000122967
5.41408e-05
7.68381e-06
2.97679e-07
8.04112e-05
5.45766e-09
1.61621e-10
7.07089e-08
4.09648e-07
1.13616e-09
1.60277e-07
2.5166e-07
1.00223e-06
0.00139892
6.23122e-13
5.6911e-07
0.000116795
5.68128e-05
7.33419e-09
8.11209e-11
0.000115181
4.09039e-09
1.47456e-06
8.3268e-06
8.16129e-06
2.70483e-06
2.02015e-12
7.21223e-06
1.15686e-06
0.000294702
6.57002e-06
2.14683e-06
0.000166235
1.58425e-06
0.000104746
1.21788e-05
5.76643e-08
4.59647e-05
0.000108857
1.53342e-07
5.01488e-09
1.31014e-16
9.96986e-05
1.0342e-06
0.000100912
9.43337e-06
4.52987e-05
4.41249e-05
7.2593e-06
4.59007e-06
5.47656e-05
1.99043e-11
2.43374e-08
1.29679e-06
3.14533e-06
4.82602e-06
2.43006e-07
1.4054e-06
2.03033e-07
5.31e-05
3.19478e-06
0.000102968
0.000108677
2.08096e-08
9.17791e-05
0.000177025
1.12937e-06
1.73789e-06
1.12879e-05
0.000224701
0.000149912
1.74243e-09
1.53876e-06
2.11289e-07
0.000160042
0.000132811
7.22839e-06
0.000101348
6.59916e-10
5.94604e-08
4.58518e-06
0.000128897
4.23147e-07
1.61042e-09
0.00012754
6.62657e-06
1.61807e-06
5.39087e-05
3.80087e-09
9.35371e-07
8.76011e-07
6.11392e-10
0.000107299
1.40249e-07
2.29042e-09
9.17105e-08
4.26588e-05
4.35771e-09
8.89801e-06
5.6821e-07
0.000136338
5.4284e-07
1.02955e-05
0.000107136
6.21993e-09
0.000117437
1.81636e-11
2.12241e-06
1.60477e-07
0.000185443
1.23685e-06
9.69725e-06
4.65813e-05
7.25855e-06
1.59787e-10
0.000138272
4.77813e-10
9.70277e-13
4.90277e-05
0.000163822
0.000116986
8.57706e-07
6.75868e-15
2.20307e-07
1.15591e-05
4.58575e-05
1.10449e-11
9.35659e-05
1.55492e-06
1.87158e-06
2.47449e-05
5.76523e-05
6.82773e-15
0.000157698
1.1944e-05
1.25187e-13
2.33045e-06
0.000121151
2.35219e-11
2.25845e-09
0.000153522
4.44388e-10
1.98285e-09
5.68485e-08
1.2776e-05
4.49455e-06
0.000157554
7.78275e-09
3.19872e-15
0.000156609
0.000102245
0.000103782
8.8166e-09
1.14394e-05
3.01979e-09
5.32233e-05
1.2143e-08
0.000144693
1.61538e-12
3.33831e-05
8.09534e-10
1.01966e-06
4.4764e-16
7.30461e-12
0.000105619
0.000107981
4.68042e-12
4.68194e-12
0.000138836
0.000169229
1.58048e-08
3.11732e-16
3.95537e-10
2.64665e-06
3.56311e-13
2.83579e-13
7.10381e-08
5.64763e-05
2.13081e-05
4.90468e-05
1.86092e-13
1.46671e-05
0.000107838
0.000159781
1.08976e-08
9.02545e-07
3.14368e-06
7.90389e-09
1.04524e-09
9.02921e-05
1.23367e-09
3.62245e-07
0.000122359
0.000155945
1.9958e-07
8.63462e-08
0.000118381
0.000123844
2.63734e-08
5.12374e-06
0.000163526
1.89502e-05
3.40408e-08
2.80774e-09
2.30376e-07
1.56413e-11
3.92691e-13
0.000140376
8.80179e-05
6.66297e-07
2.76335e-09
1.44436e-06
2.2572e-10
5.2721e-05
5.65002e-05
0.000103655
1.81879e-05
0.000163312
6.30995e-15
1.50645e-15
7.79424e-06
5.942e-05
0.000141438
1.56203e-06
9.23227e-08
8.63458e-09
4.26046e-07
2.83077e-06
9.65917e-16
0.000121157
6.97529e-05
0.000241044
1.67278e-06
4.74535e-13
1.86553e-06
5.06464e-05
1.38711e-05
4.80679e-08
9.77807e-16
9.82453e-06
9.24787e-15
1.57918e-09
2.52047e-06
5.62109e-05
0.000166951
5.42409e-09
0.000106085
2.45096e-07
1.48633e-08
1.27516e-05
0.00013611
3.9015e-12
4.58902e-05
0.000116219
0.000133132
1.41718e-09
5.82204e-07
2.90539e-08
8.79771e-08
1.34757e-05
1.57751e-06
0.00012433
0.000106286
0.000119764
7.29532e-07
2.94185e-06
8.97531e-12
1.40567e-06
7.11399e-07
3.02564e-09
0.000185554
4.71498e-08
0.000132071
9.68967e-11
1.50947e-06
0.000134415
1.58461e-07
3.62352e-06
6.94739e-11
7.24303e-06
4.34648e-05
9.37551e-05
4.56856e-13
0.000120359
3.18305e-06
7.84002e-06
8.50347e-08
3.08562e-05
0.000105375
0.000181287
0.000114184
5.57838e-08
4.26544e-08
1.8271e-07
6.84823e-05
5.05911e-09
1.24406e-08
2.13801e-10
1.10274e-10
9.70879e-05
0.00011437
4.2357e-09
7.71611e-07
5.6374e-05
1.53452e-06
1.13977e-07
9.90428e-10
7.79041e-06
0.000164321
0.000201375
5.54015e-05
4.03684e-12
3.76066e-09
1.05679e-06
0.000133999
9.80618e-05
7.71854e-15
3.28395e-07
5.60073e-05
5.38685e-07
3.85345e-11
4.51821e-10
9.60184e-09
4.32514e-07
2.11027e-11
1.05701e-10
3.69417e-06
3.41979e-07
2.46587e-07
1.44024e-05
4.12612e-05
7.91441e-07
1.62487e-09
0.000113584
5.23372e-05
1.04027e-10
5.89456e-05
2.49522e-16
4.12842e-06
5.66762e-11
4.39848e-12
1.98985e-07
9.50529e-09
8.81045e-09
7.40401e-12
9.71565e-05
0.000167931
8.28558e-06
7.19159e-07
0.00013738
1.22385e-05
2.08725e-07
3.30755e-08
7.33293e-12
0.000130717
1.99168e-06
8.02588e-11
1.30526e-05
8.88131e-09
3.8273e-07
0.000150749
2.42156e-08
0.000141781
5.84461e-06
0.000137739
2.59622e-11
4.52022e-16
1.03927e-08
0.000146396
6.06656e-05
8.22875e-06
5.68781e-17
4.92543e-05
5.81659e-05
7.53793e-06
3.90044e-07
0.000114955
3.37013e-07
5.13108e-16
5.41004e-05
5.29087e-05
0.000159
7.21732e-12
1.23582e-07
5.7472e-17
1.85711e-08
4.28923e-06
4.20746e-06
5.09851e-06
0.000131736
0.00010096
0.000157646
1.37838e-05
1.66342e-06
9.88459e-05
0.000110328
5.18009e-05
0.000159772
1.06177e-10
0.000157952
1.52417e-08
2.41555e-06
1.66157e-11
5.29815e-05
1.32034e-06
0.000102743
6.07918e-05
1.57323e-06
7.56616e-10
1.44157e-07
0.00171354
1.36068e-08
0.000143011
1.44084e-08
1.14214e-13
4.23484e-07
1.2785e-05
3.40855e-12
1.64269e-08
8.05236e-06
5.87469e-05
0.000103234
1.77724e-06
7.88694e-07
0.000109441
1.15798e-05
4.21572e-14
0.000110255
0.000170385
3.71302e-06
7.86919e-05
6.00477e-05
0.000146794
4.69646e-05
0.000114496
0.000123976
0.000111567
0.000144364
2.02508e-06
1.12828e-05
3.27331e-07
0.000133766
3.90804e-09
7.20574e-13
1.4138e-15
1.1421e-06
2.55205e-10
0.000104844
8.9169e-11
0.00140637
1.14141e-05
2.29017e-06
6.92863e-09
0.000125721
4.67469e-07
9.30219e-06
0.000180501
0.000100391
1.01431e-14
5.83102e-06
0.000131312
1.88528e-11
5.27329e-12
3.94736e-07
9.17077e-11
0.000105419
1.30756e-08
1.35816e-05
0.000182862
9.05696e-14
8.54858e-14
7.22674e-08
7.81166e-06
1.09943e-13
6.34858e-11
0.000268723
3.01893e-06
2.91586e-06
2.09954e-07
1.18319e-05
3.66512e-06
1.70238e-11
0.000191938
2.53318e-15
0.000203848
0.000228189
6.34024e-05
2.26692e-12
1.77323e-13
0.000436528
2.15536e-11
1.27197e-06
1.61269e-05
2.58763e-07
0.000151174
0.000157966
0.000220751
5.84225e-05
0.000176859
1.21793e-13
0.000119641
4.85939e-07
0.000101932
0.000138156
2.38464e-06
5.13907e-05
2.21322e-08
3.54531e-10
1.64892e-07
0.000116195
0.000119234
6.52825e-09
1.28441e-10
0.000155221
5.1162e-11
5.22183e-05
8.76078e-06
4.20243e-08
2.52481e-11
2.60469e-07
2.99368e-06
5.4684e-06
1.13426e-05
0.000107041
9.19007e-05
6.35166e-05
9.99074e-05
1.60015e-06
1.06674e-09
5.53616e-05
5.48532e-05
4.41209e-06
5.12145e-15
4.99711e-13
5.16458e-05
1.69572e-10
0.000133694
7.07389e-05
3.18078e-14
0.000116764
1.1852e-05
8.75284e-06
1.76547e-07
6.72071e-06
2.04721e-10
7.97553e-06
8.43598e-06
3.30657e-10
8.93165e-07
2.6577e-10
0.000148775
0.000117155
3.61977e-07
3.02476e-06
1.51302e-12
7.50919e-06
4.76816e-06
0.000128039
1.6196e-09
2.04874e-09
6.13218e-11
7.81083e-06
0.00011893
5.09661e-05
7.93452e-05
2.0923e-08
4.90671e-05
2.0693e-06
0.000147593
7.77697e-09
0.000110933
1.1223e-05
5.80345e-07
6.022e-05
2.65292e-14
1.39175e-10
0.000105473
0.000153171
7.4655e-07
0.00018738
4.119e-10
7.65164e-09
1.23027e-05
2.66619e-12
1.74029e-05
2.56951e-07
0.00014993
2.20793e-06
1.44663e-08
1.77783e-06
0.000126257
1.95141e-11
9.65673e-10
1.20482e-05
3.22384e-10
0.000103014
1.97099e-09
0.000140023
7.13459e-11
4.20779e-08
3.23092e-12
1.05258e-14
0.000104348
0.000142206
0.00010722
9.21479e-08
0.000103917
1.14927e-06
9.84049e-05
3.5359e-07
5.9926e-05
0.000127393
3.35005e-06
1.84792e-11
1.07181e-05
6.62206e-07
7.33957e-08
8.61494e-12
0.000113182
2.81861e-06
0.000168855
4.85249e-05
7.8346e-07
2.32117e-06
7.25726e-09
0.000179901
0.000103348
1.2624e-05
7.98794e-06
6.86887e-12
7.18809e-15
3.70491e-11
0.000121028
7.84728e-17
1.05361e-11
9.77553e-08
6.62766e-05
7.75875e-10
2.57114e-07
8.93347e-09
6.86386e-09
1.51484e-05
5.10633e-05
9.09837e-13
9.96896e-05
3.01368e-09
9.01822e-06
6.88625e-11
4.16651e-11
8.77026e-12
5.10605e-07
0.000104807
9.84361e-07
5.88171e-05
0.000153476
1.39658e-08
0.000118167
4.4191e-11
0.000144849
0.000111098
5.29181e-05
2.04889e-05
1.2199e-08
8.45777e-05
0.000160333
1.76627e-09
1.35973e-05
9.00336e-09
2.87218e-06
0.000135918
1.10402e-05
0.0001146
9.15292e-07
9.05583e-10
4.80769e-05
1.92122e-10
3.36136e-09
1.70003e-12
1.30484e-09
2.38472e-09
7.50077e-14
4.33857e-08
9.25457e-18
0.000166477
0.000150397
1.35438e-13
0.000165685
4.15488e-07
2.27742e-08
1.26997e-05
9.45463e-07
8.4311e-09
0.000113382
4.31259e-06
4.80217e-05
8.82859e-06
0.00011081
1.5625e-11
2.32535e-06
2.51561e-05
3.03901e-06
0.00010757
2.34862e-07
8.26874e-09
1.16103e-05
1.03344e-13
0.000128054
0.000141311
7.30174e-09
4.9735e-08
2.06155e-08
3.61855e-06
0.000145512
3.7435e-06
4.45283e-05
1.55781e-06
2.25434e-09
0.000105299
3.09481e-14
1.61491e-10
0.000113655
0.000175852
2.79514e-06
9.70481e-06
0.000145334
2.26838e-15
0.000118075
0.000159614
1.34403e-05
1.04744e-07
2.77516e-06
1.15129e-11
5.55725e-08
6.66309e-13
7.19313e-07
9.39692e-07
1.26527e-06
9.19089e-09
1.54394e-12
0.000126498
0.0001093
1.63777e-09
3.01007e-08
2.31241e-06
0.000139269
0.000154367
5.71298e-16
0.000163174
1.20247e-12
7.11183e-09
2.33781e-06
0.000108095
5.66179e-05
2.36794e-07
2.61212e-07
7.43697e-12
6.77726e-14
5.10335e-05
0.000169502
5.4169e-08
0.000163954
0.000116036
0.0001011
0.000104422
3.37824e-10
1.87245e-06
6.3746e-15
1.12242e-06
7.15674e-06
5.06849e-06
1.80995e-09
3.34946e-10
5.57897e-05
3.62894e-07
1.83899e-09
2.15687e-09
9.2302e-05
9.062e-07
0.000164777
1.02234e-05
0.00011099
5.74719e-11
4.14605e-15
0.00116749
0.000135154
7.96338e-06
6.21602e-05
0.000134795
1.40474e-14
0.00013571
5.81663e-05
9.07505e-09
7.28132e-10
1.17332e-06
9.99136e-05
2.16663e-06
4.88872e-05
6.34771e-07
1.16161e-09
1.38671e-09
4.30198e-08
0.000106396
1.16048e-13
2.79311e-08
1.89823e-06
3.0265e-11
2.60871e-10
3.54315e-11
4.18227e-06
0.000141512
9.94959e-05
3.52962e-07
1.10088e-06
1.28144e-14
8.74614e-05
2.49631e-08
4.87546e-05
2.51133e-10
1.65084e-14
1.16836e-05
6.10961e-05
4.85169e-05
0.000124499
2.78834e-12
2.35076e-19
5.0643e-05
1.75815e-07
0.000128866
3.4559e-12
4.04623e-08
0.00016205
8.10435e-07
1.88845e-07
7.02771e-11
0.000223765
0.000151841
0.000121955
5.54267e-05
4.87621e-05
0.000161559
0.000151069
0.000154947
1.14009e-05
1.40542e-08
9.28078e-10
6.22241e-09
4.08001e-07
0.000140939
1.48566e-11
1.06286e-08
0.000119883
0.000129984
0.000176571
1.38214e-05
0.000173796
1.28362e-11
0.000302434
4.77353e-06
2.0881e-05
9.10449e-05
8.24054e-06
2.00696e-11
8.74635e-07
6.25147e-16
1.01646e-10
1.56633e-08
6.09098e-05
2.36661e-06
3.19707e-13
1.09068e-07
0.000115928
3.19819e-05
1.62738e-06
1.38846e-09
7.45738e-07
2.73269e-07
4.72342e-05
9.9093e-05
0.000156806
5.9975e-06
4.18368e-06
3.82493e-08
9.51319e-09
0.000102514
1.27617e-06
6.00177e-05
2.60063e-06
2.23723e-09
9.37124e-05
0.000111518
4.91769e-07
1.27633e-12
1.5545e-11
7.66408e-11
1.66165e-05
4.54746e-05
7.17588e-17
2.59774e-06
6.50947e-08
5.20843e-13
1.69878e-11
5.45223e-07
1.00028e-05
6.05768e-14
0.000133124
8.34683e-05
0.000159316
3.89296e-06
6.20207e-07
8.26932e-06
4.90549e-05
1.17173e-13
8.23532e-05
4.87115e-05
0.00013403
1.12028e-07
1.26763e-09
3.58873e-10
0.000124897
0.000101569
6.14127e-05
0.000146464
0.000115564
2.39945e-09
2.7425e-08
0.000141952
0.000112123
5.00737e-05
3.87258e-07
1.6453e-08
5.69949e-14
8.03925e-06
6.48092e-13
2.89495e-16
5.1448e-06
0.000105804
3.13443e-06
4.83456e-12
6.16676e-15
4.05572e-08
1.84821e-15
1.75643e-10
2.51852e-05
1.53318e-07
6.32424e-05
0.000345304
4.05416e-11
8.05774e-09
0.000123656
2.40754e-08
0.000149084
3.34583e-14
1.30614e-13
8.12364e-10
2.35891e-09
5.49259e-05
0.000159462
5.54935e-05
1.84929e-06
5.56082e-07
4.28175e-07
4.33294e-10
0.000115074
1.33998e-05
4.78638e-11
2.33998e-08
6.54824e-07
0.000187783
8.71876e-05
1.40443e-06
2.6573e-10
2.34242e-07
2.13087e-08
2.35186e-10
6.41891e-15
2.57887e-15
4.14242e-06
1.61314e-08
4.85043e-07
2.0056e-13
1.09468e-05
0.000150841
0.00013343
1.40056e-05
1.22894e-06
1.68326e-09
9.24286e-09
0.000155528
1.02142e-06
7.26269e-15
6.08047e-09
1.10296e-05
4.79457e-12
2.09106e-16
1.0461e-11
9.00174e-08
9.18165e-07
6.25101e-13
0.00010001
2.58515e-07
5.55422e-12
0.000138488
6.66156e-08
9.29621e-12
3.94387e-12
3.94184e-15
1.00856e-08
0.000106122
3.00626e-09
1.32842e-05
1.62196e-08
1.57303e-05
1.64086e-10
4.13453e-11
1.24825e-05
3.54902e-09
0.000140586
2.49157e-09
0.000106767
0.000113719
5.5338e-15
0.000134191
9.59965e-08
2.38824e-10
2.39533e-09
4.9916e-05
7.10886e-06
0.000141986
1.27301e-13
9.83398e-05
8.92104e-06
4.02892e-14
2.35912e-14
3.56357e-09
6.26796e-13
1.47877e-12
3.20854e-07
3.42244e-12
4.36391e-12
5.2751e-12
0.000116976
1.16934e-05
5.44899e-07
1.18009e-07
5.58007e-05
9.05682e-17
2.09897e-10
3.12546e-09
0.000131941
2.303e-11
0.0001486
4.49251e-07
0.000155139
9.45439e-05
1.65682e-06
1.21058e-11
3.83881e-12
8.40409e-07
0.000135402
8.51992e-10
0.000161769
0.000138498
8.43576e-14
6.34845e-05
7.97865e-06
4.61429e-11
2.0395e-12
0.000138208
5.3018e-05
0.000108079
1.04747e-07
1.29023e-09
4.71673e-05
2.18114e-15
1.10739e-05
5.59287e-05
6.26325e-05
0.000152067
6.76861e-12
4.2104e-09
1.56308e-08
1.34218e-14
5.99353e-08
7.09577e-10
2.80818e-08
2.49608e-07
3.92533e-13
4.18031e-07
4.31543e-06
1.13411e-05
1.82677e-08
1.34417e-05
2.214e-10
9.35086e-15
4.75242e-11
9.41593e-12
3.27044e-08
8.91492e-11
0.000112355
9.59619e-11
6.276e-08
4.53095e-05
1.33462e-07
1.42264e-06
0.000190239
8.03029e-12
9.75581e-09
8.17873e-06
4.29129e-09
0.000112219
8.75694e-07
5.2606e-10
7.24374e-11
8.72932e-06
5.57403e-05
5.98518e-05
2.3512e-09
0.000107889
0.000109569
0.000177994
2.29554e-14
7.94761e-11
2.1936e-08
1.60436e-11
6.38624e-16
3.14886e-14
7.18918e-05
8.62054e-07
9.13334e-09
5.60386e-09
8.54421e-07
3.52247e-07
0.000107385
0.000136708
0.000144139
4.53167e-05
5.17455e-10
4.72858e-07
2.80243e-07
1.11939e-05
4.87213e-11
1.15197e-09
0.000142888
1.81341e-06
9.10109e-09
1.66662e-08
9.89256e-07
6.23531e-05
6.51244e-05
3.68987e-08
9.66706e-05
3.5059e-11
1.7239e-14
4.37387e-06
2.74039e-12
1.04953e-05
4.23115e-05
5.3888e-06
1.24196e-06
8.28218e-06
1.4622e-08
9.55787e-08
7.49519e-05
0.000108181
1.25951e-07
1.62593e-06
5.55494e-05
0.000119901
1.01617e-05
0.000147675
6.91387e-09
2.63053e-07
0.000100883
8.10556e-08
6.4761e-07
2.5828e-12
9.3096e-09
1.51727e-09
2.53476e-12
1.27433e-09
6.81581e-10
1.36259e-05
2.53949e-10
4.91029e-05
1.79477e-05
5.21881e-05
6.54362e-08
1.10395e-06
1.67449e-08
5.60121e-11
7.91919e-06
6.21084e-06
0.000135401
8.31531e-06
0.000131579
1.22845e-05
1.1193e-12
1.72477e-15
8.35872e-10
3.46203e-14
0.00010677
0.000129575
1.50044e-08
1.06411e-05
8.87633e-05
1.16267e-07
0.000106203
5.55817e-10
2.51535e-13
1.28127e-12
1.56303e-07
1.1695e-08
5.30573e-07
2.64533e-10
9.77318e-05
4.07457e-08
0.000112728
0.000103906
4.94206e-05
4.90686e-13
6.62906e-07
1.61124e-06
0.000110542
0.000306162
4.58918e-12
5.78386e-06
1.01222e-05
1.14242e-05
0.000107845
9.58361e-05
0.000111853
5.02436e-05
1.05918e-08
5.60174e-05
1.42354e-13
4.68675e-05
0.000115089
7.44328e-06
9.4712e-05
0.000142346
0.000138075
2.78378e-09
9.92325e-08
6.06671e-08
5.53203e-05
1.92607e-06
0.000141975
1.01789e-06
4.26377e-05
1.09801e-10
8.01661e-12
0.000142861
1.15346e-11
1.20394e-08
1.93718e-10
6.03178e-10
3.38321e-12
4.08155e-08
4.34805e-13
1.2419e-09
3.55202e-11
0.000168844
1.07679e-05
5.30644e-05
1.85228e-13
0.000106507
1.41792e-05
2.99511e-17
2.40286e-05
1.11079e-06
0.000128296
2.0493e-07
1.58831e-06
1.08612e-07
1.66742e-09
1.02195e-10
1.47563e-12
5.95953e-11
1.08731e-10
1.06687e-07
5.44265e-05
5.48832e-05
2.99443e-14
1.13691e-08
1.80761e-12
9.27816e-13
7.51922e-10
5.63505e-11
5.16523e-13
0.000107691
7.2302e-14
3.51919e-07
0.000134483
2.00704e-09
0.00014145
3.35696e-09
4.88907e-05
0.000107202
4.3838e-14
9.44822e-05
0.000149056
0.000124634
0.000108695
0.000102557
2.82296e-08
7.19879e-06
4.34823e-07
8.51342e-13
5.30774e-05
3.37579e-10
6.61386e-07
1.08495e-09
0.000144322
3.7657e-14
1.39316e-06
3.03237e-07
2.22589e-10
0.000136977
9.7233e-05
2.53946e-13
0.000170913
2.45567e-07
0.000122908
3.98695e-09
4.08315e-05
2.01855e-06
1.01549e-06
4.89689e-12
0.000108006
0.000127338
0.000107726
1.9865e-14
5.0634e-05
0.000108194
5.34055e-07
1.19419e-05
0.000141441
5.76585e-06
0.000154681
1.67763e-10
2.0822e-13
1.0957e-07
6.74745e-10
0.000181207
1.51671e-06
9.17698e-05
1.25881e-07
1.25962e-12
8.58022e-07
4.79994e-10
9.17953e-06
1.37178e-06
0.000105546
2.69729e-13
2.52991e-06
1.08919e-06
9.25785e-07
5.27607e-05
0.000126593
3.13172e-11
1.28222e-11
1.93982e-09
4.31048e-05
2.96159e-11
0.000166463
0.000189871
0.00010584
1.16332e-08
0.000114007
4.33879e-07
0.000143169
0.000114465
2.56256e-09
5.04018e-05
0.000102167
0.000104582
1.75889e-16
1.18877e-12
5.55062e-07
5.15504e-05
6.64819e-12
1.28883e-13
5.05994e-07
1.3982e-07
3.26615e-11
3.1147e-09
1.40195e-07
0.000156887
1.2044e-11
2.45821e-05
5.14815e-05
0.00015276
6.16246e-09
5.52316e-10
4.98777e-06
2.07621e-13
0.000155462
9.70468e-07
4.07324e-11
0.000135571
1.00443e-14
1.76595e-09
4.53567e-12
0.000106215
7.79379e-09
9.82037e-05
5.10383e-07
4.81983e-05
0.000136828
1.13222e-07
5.59896e-12
4.66863e-05
1.99241e-15
2.61316e-10
5.06737e-11
4.20184e-08
5.83531e-05
0.000151524
2.50015e-09
1.24456e-13
8.70009e-12
1.58211e-10
5.58419e-05
8.50721e-15
5.9804e-05
4.55433e-05
2.39383e-14
1.14244e-05
3.14167e-06
1.32384e-11
1.07705e-06
0.000102502
0.000113819
5.50708e-08
1.11814e-10
9.65897e-05
0.000116164
1.01413e-05
1.90044e-11
4.31382e-12
0.000146177
1.03347e-05
2.43506e-11
7.11479e-11
2.57614e-12
1.45881e-15
1.08108e-06
2.99452e-07
6.60289e-16
3.32394e-11
1.17514e-05
0.000155919
0.000156603
6.73889e-09
3.25262e-06
4.47451e-13
3.31142e-11
6.0066e-10
3.42449e-12
6.15164e-09
1.19513e-11
1.21312e-13
3.37597e-10
4.38552e-06
2.32362e-12
1.39e-10
7.12173e-06
1.5075e-09
7.28461e-06
0.000131816
1.8059e-08
3.09762e-11
1.64379e-12
2.22201e-09
3.18039e-10
6.79694e-06
0.000124415
4.93122e-15
1.15608e-10
1.38745e-14
7.86971e-09
8.34686e-05
5.21288e-05
9.57886e-07
0.000167997
1.23504e-10
0.000111739
4.77319e-07
3.60924e-15
4.84686e-17
1.72708e-13
1.84064e-07
0.000101283
0.000155024
0.000253374
3.82327e-06
0.000121033
2.42373e-13
7.04054e-10
0.000103031
2.66527e-06
2.69048e-06
1.8892e-07
6.26551e-08
1.49585e-07
2.48709e-05
4.86806e-07
1.53097e-09
0.000128484
3.56856e-09
0.000105055
0.000131773
1.35707e-09
4.68776e-05
1.30996e-10
1.84582e-11
3.685e-08
5.78297e-06
1.12075e-05
7.07907e-12
1.16654e-14
1.17477e-12
8.82251e-05
0.000125189
4.12307e-07
6.40428e-11
1.54554e-06
6.45244e-07