/*--------------------------------*- C++ -*----------------------------------*\
| =========                 |                                                 |
| \\      /  F ield         | OpenFOAM: The Open Source CFD Toolbox           |
|  \\    /   O peration     | Version:  2406                                  |
|   \\  /    A nd           | Website:  www.openfoam.com                      |
|    \\/     M anipulation  |                                                 |
\*---------------------------------------------------------------------------*/
FoamFile
{
    version     2.0;
    format      ascii;
    arch        "LSB;label=32;scalar=64";
    class       volScalarField;
    location    "60";
    object      p;
}
// * * * * * * * * * * * * * * * * * * * * * * * * * * * * * * * * * * * * * //

dimensions      [0 2 -2 0 0 0 0];

internalField   nonuniform List<scalar> 
59516
(
0.235966
0.0136102
0.0129219
0.00179589
0.249423
0.26993
0.236768
0.209807
0.0686117
-0.000531632
0.244109
0.238054
0.164421
0.235218
0.220704
0.069664
0.237066
0.245028
0.241387
0.234084
0.240518
0.209217
0.236663
0.151611
0.0607988
0.146306
0.0861823
0.243802
0.239184
0.219723
0.252743
0.243957
0.110024
0.00133604
0.241562
0.19751
0.0592126
0.247871
0.239786
0.0118845
0.0140182
0.244141
0.240685
0.00148049
0.239193
0.0371673
0.239994
0.240508
0.251052
0.241826
0.257071
0.0010665
0.112066
0.213515
0.239967
0.239078
0.24532
0.00143953
0.151261
0.242641
0.00137693
0.193106
0.152496
0.237662
0.00294381
0.239498
0.00731801
0.201185
0.251367
0.239049
0.204774
0.234075
0.041361
0.235348
0.202463
0.238641
0.240054
0.0263367
0.167703
0.24172
0.00132836
0.24173
0.240778
0.0980813
0.241737
0.233696
0.0689666
0.234334
0.110899
0.244997
0.247558
0.205974
0.229249
0.203298
0.204248
0.25077
0.219748
0.210446
0.241483
0.162773
0.0747637
0.135038
0.215776
0.00782402
0.0413732
0.00623965
0.00561289
0.064697
0.116882
0.16916
0.249675
0.080629
0.20647
0.250219
0.227059
0.188005
0.028943
0.213921
0.214479
0.0289642
0.215789
0.212457
0.0557247
0.213978
0.248148
0.241617
0.227169
0.245759
0.256825
0.228478
0.226235
0.0138205
0.202254
0.229007
0.229725
0.199215
0.248555
0.222984
0.136081
0.232758
0.0816554
0.102436
0.209915
0.081008
0.233349
0.231025
0.239545
0.235004
0.255858
0.229895
0.233117
0.00279205
0.227133
0.00264429
0.228565
0.00495343
0.00352453
0.229212
0.229815
0.22146
0.233389
0.233149
0.220907
0.00406386
0.186304
0.0272854
0.0688222
0.230812
0.231451
0.00385304
0.228631
0.228649
0.224261
0.225102
0.22467
0.240583
0.188996
0.241363
0.0125314
0.186588
0.226938
0.120164
0.1426
0.226324
0.22652
0.076225
0.105299
0.0586041
0.227929
0.225584
0.00030351
0.119102
0.230549
0.225541
0.231937
0.0185234
0.136715
0.136206
0.00364334
0.223995
-0.000564688
0.0575228
0.211008
0.16354
0.192822
0.120407
0.231527
0.00317224
0.156028
0.217768
0.0386784
0.243578
0.216799
0.193958
0.217901
0.086714
0.230164
0.0185199
0.178471
0.218351
0.218138
0.231208
0.22417
0.00403077
0.220831
0.188262
0.155411
0.163655
0.223779
0.0336565
0.219993
0.118335
0.224356
0.124637
0.131186
0.224493
0.223046
0.0470061
0.222921
0.0500865
0.22709
0.120384
0.116704
0.00294524
0.228356
0.227911
0.22549
0.0111652
0.224434
0.227499
0.0116227
0.22574
0.227571
0.141544
0.226535
0.227358
0.0701246
0.22244
0.172669
0.219355
0.157586
0.221177
0.222721
0.222396
0.197426
0.0532537
0.179127
0.0635725
0.220049
0.148976
0.237309
0.192424
0.0675073
0.151621
0.220952
0.197485
0.149264
0.219809
0.220823
0.0872194
0.224044
0.164116
0.152758
0.218789
0.217071
0.236496
0.227338
0.0066736
0.222659
0.198533
0.22176
0.219299
0.203741
0.0267826
0.206738
0.116253
0.199261
0.194934
0.219788
0.198391
0.197755
0.0558721
0.0911961
0.192475
0.201292
0.14595
0.0184026
0.197753
0.198468
0.0744221
0.0608731
0.198904
0.142449
0.134261
0.239383
0.200533
0.211645
0.251474
0.199881
0.0584811
0.118514
0.210537
0.125847
0.213395
0.164336
0.200961
0.243453
0.211788
0.155273
0.212943
0.0211185
0.233092
0.152666
0.212912
0.174755
0.219301
0.222485
0.192088
0.242774
0.217564
0.194015
0.191996
0.213754
0.0466719
0.0963787
0.217549
0.0896549
0.221794
0.214098
0.173166
0.223718
0.225531
0.0345213
0.111745
0.155385
0.0475651
0.00700765
0.249534
0.254115
0.187795
0.0308866
0.22966
0.242513
0.20689
0.0303988
0.212954
0.212373
0.230026
0.253166
0.216293
0.0791968
0.0777344
0.212064
0.159568
0.183168
0.211836
0.21342
0.208213
0.170283
0.202685
0.230494
0.00102096
0.243363
0.00934725
0.017832
0.213397
0.00695339
0.242816
0.212803
0.012938
0.0127307
0.0527412
0.208353
0.248131
0.21099
0.248624
0.0103225
0.0697845
0.20829
0.20951
0.219255
0.206555
0.17115
0.219675
0.22065
0.0562063
0.135618
0.220817
0.219243
0.218283
0.0369949
0.0208875
0.0227207
0.123593
0.1936
0.00938433
0.0334281
0.064772
0.00438172
0.208096
0.205801
0.21149
0.211124
0.221576
0.210728
0.162142
0.205469
0.140363
0.211205
0.176309
0.214415
0.209835
0.197477
0.125122
0.219696
0.243163
0.0216551
0.215045
0.15929
0.076968
0.161728
0.179228
0.216853
0.214862
0.211928
0.210296
0.0744764
0.209966
0.16363
0.0266684
0.181217
0.254271
0.140052
0.0599413
0.212278
0.174546
0.209714
0.131601
0.209547
0.0591071
0.210311
0.00383391
0.00717701
0.206943
0.24069
0.204799
0.189371
0.0354258
0.192339
0.190736
0.0398188
0.199072
0.190775
0.186387
0.185729
0.0938481
0.19276
0.188088
0.128236
0.186309
0.0826754
0.183949
0.243945
0.184119
0.256325
0.185145
0.223399
0.0804504
0.0928148
0.16104
0.00365524
0.00284709
0.17456
0.197279
0.201115
0.154994
0.188722
0.0472163
0.206578
0.204602
0.245134
0.136729
0.119977
0.164261
0.204391
0.0196882
0.199281
0.236341
0.00445607
0.275971
0.205319
0.0621401
0.232979
0.173145
0.238189
0.19178
0.166578
0.184186
0.207663
0.169773
0.207903
0.229564
0.0714449
0.0716916
0.248826
0.00291141
0.20644
0.19828
0.248366
0.196684
0.232915
0.000757139
0.199886
0.0812163
0.000235256
0.15063
0.0373913
0.246311
0.213442
0.0663723
0.00202089
0.219526
0.122568
0.198972
0.218818
0.198407
0.230247
0.000700685
0.0999874
0.0653153
0.198031
0.0338571
0.145357
0.206341
0.127659
0.205089
0.00251633
0.209404
0.0618422
0.20594
0.161975
0.110559
0.103111
0.207423
0.00206533
0.0410145
0.19711
0.0765497
0.156069
0.178621
0.117269
0.112663
0.196808
0.196176
0.225576
0.195491
0.11171
0.197064
0.195038
0.106977
0.0955748
0.000875506
0.19593
0.195786
0.19746
0.0911975
0.189187
0.00982791
0.198231
0.00526145
0.207938
0.000906195
0.0230751
0.167931
0.119514
0.0102779
0.19862
0.246577
0.00338382
0.0162695
0.195585
0.192257
0.0318763
0.194477
0.195048
0.132073
0.0381688
0.207854
0.201433
0.0128831
0.197001
0.197381
0.144674
0.193845
0.255375
0.197807
0.24862
0.169879
0.251023
0.172758
0.0221108
0.232117
0.0051346
0.00569809
0.252726
0.251393
0.174467
0.197125
0.246065
0.242847
0.122284
0.0980084
0.160274
0.0597094
0.170669
0.113423
0.243073
0.173369
0.175585
0.1908
0.180444
0.25324
0.163076
0.184144
0.051258
0.184173
0.137008
0.0169929
0.184222
0.183237
0.184647
0.138129
0.0836401
0.261472
0.116374
0.119504
0.141742
0.219179
0.184718
0.0603947
0.17107
0.141525
0.0124368
0.0629775
0.18739
0.215313
0.148361
0.138624
0.186386
0.186272
0.0748791
0.224995
0.195171
0.128375
0.192289
0.154621
0.201844
0.190146
0.00958529
0.0244632
0.173091
0.253874
0.1359
0.126863
0.00302187
0.145147
0.189861
0.109404
0.199188
0.194694
0.08316
0.114474
0.197625
0.232707
0.208098
0.157864
0.253226
0.197443
0.0321146
0.205622
0.256022
0.020453
0.113584
0.219584
0.185854
0.0722342
0.180339
0.0219799
0.0164675
0.157419
0.186163
0.253301
0.209603
0.185636
0.185295
0.19063
0.0844373
0.0101192
0.0612079
0.208261
0.252648
0.140064
0.188096
0.126458
0.0544845
0.184938
0.0580973
0.185836
0.237439
0.115114
0.00214269
0.213019
0.0891413
0.191107
0.0166845
0.0717199
0.142987
0.215953
0.189303
0.191304
0.253941
0.216167
0.0362125
0.255942
0.00305316
-0.000621428
0.190568
0.0390017
0.103919
0.142796
0.0998453
0.253472
0.187488
0.212814
0.18354
0.0423531
0.153369
0.0486868
0.117491
0.211415
0.183688
0.185349
0.183021
0.0679305
0.22793
0.172279
0.0604519
0.184253
0.182692
0.182119
0.16968
0.184337
0.0180377
0.0111741
0.183389
0.00327808
0.111319
0.127529
0.0097048
0.134012
0.156682
0.234854
0.174217
0.205118
0.160687
0.11815
0.184707
0.186446
0.187134
0.100513
0.185944
0.228238
0.0154924
0.00266549
0.12513
0.10634
0.00280401
0.185661
0.183137
0.184601
0.0171024
0.0282066
0.18241
0.21888
0.0271721
0.0356419
0.25345
0.244924
0.187928
0.0369484
0.19685
0.173813
0.201646
0.157898
0.180045
0.247423
0.158078
0.15752
0.0807413
0.159587
0.248429
0.030395
0.178287
0.15795
0.0952017
0.194716
0.200758
0.0820584
0.19338
0.216451
0.196242
0.158186
0.238666
0.0482517
0.157735
0.211779
0.0139117
0.169358
0.0650375
0.154989
0.0856377
0.247451
0.161461
0.00283953
0.155737
0.155048
0.165202
0.156972
0.144579
0.00438366
0.0392749
0.193892
0.167326
0.13782
0.196308
0.10022
0.217536
0.0221633
0.166987
0.0743665
0.151146
0.196424
0.0143442
0.169567
0.16616
0.249762
0.0234553
0.201848
0.221223
0.0374702
0.163224
0.0391706
0.1325
0.186299
0.200587
0.163077
0.161957
0.16135
0.253361
0.0291085
0.199561
0.0988811
0.0174708
0.163726
0.204469
0.173843
0.172687
0.0301447
0.175322
0.17687
0.0930365
0.223685
0.251963
0.234957
0.132013
0.177307
0.00376395
0.242142
0.159616
0.174365
0.14493
0.176662
0.174969
0.179443
0.195565
0.179623
0.20071
0.175388
0.232522
0.233694
0.17509
0.192111
0.174279
0.200551
0.201435
0.0123503
0.115696
0.137615
0.0121091
0.185862
0.177439
0.187413
0.0976454
0.00604227
0.101963
0.173867
0.190311
0.190277
0.113006
0.130391
0.187827
0.250327
0.178534
0.0079674
0.0174622
0.208842
0.179788
0.107204
0.143371
0.177462
0.116614
0.170219
0.17069
0.170536
0.145135
0.192397
0.169849
0.254484
0.022186
0.169608
0.254711
0.169943
0.222756
0.0384755
0.168326
0.107049
0.0815153
0.170662
0.169939
0.105175
0.107195
0.168722
0.0901245
0.167122
0.167794
0.174144
0.0999081
0.165846
0.0285703
0.168069
0.167849
0.113087
0.166301
0.166688
0.23601
0.161743
0.136522
0.162967
0.164759
0.114598
0.0548867
0.0988019
0.242877
0.166955
0.167917
0.141181
0.0561739
0.243359
0.143626
0.146292
0.142535
0.141393
0.0104489
0.00545123
0.046436
0.0941224
0.168186
0.167355
0.00534094
0.208725
0.157879
0.0721558
0.24345
0.138209
0.136963
0.245824
0.139597
0.202196
0.0424993
0.137934
0.196738
0.182434
0.138227
0.101847
0.0369683
0.138916
0.20864
0.18709
0.10666
0.0505957
0.0819869
0.145141
0.0850771
0.20844
0.081309
0.142753
0.152867
0.24967
0.110509
0.0097397
0.0535408
0.0827356
0.140378
0.206996
0.151703
0.151393
0.0190136
0.120032
0.00759535
0.153782
0.153779
0.0842197
0.0117045
0.184084
0.0362029
0.227108
0.171265
0.16801
0.241898
0.0821847
0.19758
0.205995
0.137756
0.0144623
0.168047
0.23953
0.166434
0.16438
0.140205
0.0726328
0.168066
0.0155553
0.240929
0.210172
0.11243
0.167355
0.160144
0.208068
0.234555
0.198973
0.027371
0.0733989
0.165129
0.172488
0.19392
0.109505
0.19077
0.2449
0.163905
0.192983
0.0658518
0.170162
0.127834
0.0789666
0.169769
0.169646
0.168832
0.192973
0.165884
0.0380703
0.166619
0.0721395
0.189331
0.0186194
0.164819
0.19234
0.003502
0.0213029
0.161843
0.0614949
0.0419353
0.0652789
0.0547049
0.0993718
0.0358539
0.164709
0.162692
0.0288045
0.161862
0.162968
0.191241
0.00915257
0.16426
0.157471
0.00210505
0.0226859
0.15482
0.0898662
0.00343015
0.0116302
0.155212
0.111269
0.160226
0.237538
0.0150831
0.191597
0.144012
0.159405
0.156621
0.141506
0.180913
0.166531
0.161179
0.1473
0.240523
0.211244
0.159968
0.162464
0.221178
0.0324855
0.209112
0.181454
0.109723
0.103675
0.162337
0.07405
0.018485
0.149782
0.154282
0.255396
0.129953
0.154553
0.152542
0.177682
0.0735214
0.152742
0.153778
0.231303
0.15423
0.069431
0.15702
0.156701
0.125701
0.113907
0.137896
0.156865
0.15397
0.156702
0.105832
0.133317
0.160054
0.139398
0.104724
0.111437
0.112272
0.11258
0.130703
0.154959
0.133329
0.243599
0.22238
0.0396933
0.0944683
0.0982959
0.131626
0.129557
0.133574
0.171488
0.130611
0.12985
0.0781071
0.0984712
0.182232
0.0775518
0.0313176
0.132793
0.131849
0.134447
0.225858
0.0128221
0.00630286
0.0923805
0.142076
0.13917
0.209225
0.0318509
0.132193
0.243705
0.0375862
0.140763
0.14026
0.167486
0.00167558
0.138934
0.139104
0.138405
0.149866
0.00470011
0.00686325
0.150285
0.150396
0.14727
0.148917
0.154464
0.145931
0.0730199
0.0146137
0.248548
0.186693
0.150533
0.149567
0.113105
0.236173
0.229502
0.213367
0.00122432
0.213544
0.15137
0.151371
0.150264
0.151028
0.151626
0.150273
0.204976
0.126329
0.199211
0.133295
0.0727009
0.0128339
0.152563
0.113623
0.00410667
0.134951
0.157039
0.240257
0.158165
0.107689
0.104423
0.184152
0.117984
0.155089
0.161309
0.159274
0.129322
0.139487
0.236255
0.154564
0.197799
0.0695167
0.0575064
0.152537
0.0595672
0.0209068
0.157163
0.156789
0.116241
0.078172
0.0897954
0.222987
0.156104
0.0462718
0.00525649
0.140401
0.0259586
0.110493
0.150976
0.186615
0.1397
0.0235847
0.227058
0.0138294
0.221177
0.122665
0.210027
0.144075
0.0410711
0.152643
0.137794
0.0872364
0.104864
0.153185
0.153519
0.228134
0.188205
0.199359
0.232763
0.193282
0.186345
0.186671
0.203664
0.149859
0.149304
0.117734
0.0585216
0.067356
0.0164096
0.211238
0.118345
0.147016
0.144921
0.146253
0.0412381
0.143038
0.200617
0.00473335
0.143121
0.147321
0.168559
0.25108
0.201647
0.20044
0.143711
0.0115421
0.210704
0.145863
0.176034
0.152941
0.179806
0.190415
0.134324
0.20801
0.148755
0.187986
0.152963
0.0184813
0.201961
0.208362
0.120662
0.24669
0.0675446
0.0778482
0.0678533
0.13284
0.196623
0.0546562
0.175614
0.0560357
0.149271
0.149233
0.128579
0.154949
0.140538
0.219365
0.18111
0.138872
0.186002
0.145521
0.252094
0.206154
0.145017
0.141177
0.180876
0.21586
0.142718
0.0242237
0.175177
0.219131
0.139785
0.127513
0.144007
0.1466
0.147847
0.148615
0.00347102
0.0678102
0.149714
0.245964
0.148177
0.121623
0.193897
0.119308
0.103561
0.220438
0.246167
0.202517
0.202634
0.204151
0.032312
0.139177
0.166757
0.244661
0.233131
0.246723
0.250353
0.232889
0.123605
0.120577
0.245118
0.0533189
0.124799
0.185434
0.121679
0.202109
0.19051
0.244882
0.226698
0.201784
0.0672379
0.123769
0.137162
0.131647
0.138199
0.204458
0.186523
0.137773
0.133525
0.135597
0.0144731
0.216166
0.0382246
0.138703
0.163933
0.144044
0.140166
0.135249
0.0385682
0.141512
0.124764
0.140808
0.139906
0.208694
0.127672
0.0727421
0.0437278
0.195715
0.100118
0.0992782
0.191177
0.0830159
0.0463277
0.0399075
0.0298124
0.188365
0.0625075
0.127091
0.158209
0.029689
0.213346
0.214031
0.0887063
0.0860368
0.230566
0.131361
0.014083
0.153164
0.0300157
0.184148
0.0286889
0.044703
0.0178888
0.00917453
0.0744605
0.209693
0.0429863
0.022718
0.0237237
0.137986
0.027458
0.135901
0.214988
0.139308
0.136927
0.187844
0.0422195
0.142106
0.140843
0.0110839
0.067871
0.210473
0.142053
0.142516
0.189688
0.21526
0.205065
0.21436
0.0509367
0.237038
0.245074
0.142194
0.142914
0.0118767
0.221763
0.243982
0.140426
0.106515
0.139789
0.0161605
0.205655
0.0061392
0.0422498
0.131933
0.169891
0.133596
0.108743
0.211603
0.0997584
0.201368
0.132215
0.13335
0.0654812
0.125788
0.114053
0.240311
0.211837
0.182046
0.13233
0.216264
0.0730528
0.0417155
0.0603334
0.0124234
0.132453
0.213638
0.132112
0.0125971
0.01053
0.208343
0.134479
0.0633625
0.222493
0.134504
0.134857
0.208533
0.0184429
0.207092
0.135324
0.137827
0.139133
0.145687
0.138954
0.203446
0.200321
0.139219
0.229448
0.148532
0.200109
0.169435
0.137082
0.214625
0.134364
0.107685
0.231559
0.151649
0.13649
0.0109246
0.139723
0.138433
0.104223
0.133372
0.184687
0.0530183
0.212049
0.127231
0.193528
0.203235
0.136727
0.149161
0.00965123
0.0635561
0.0513415
0.135063
0.212477
0.0177035
0.132534
0.231717
0.0506668
0.191906
0.0477611
0.133432
0.162921
0.131562
0.00119624
0.174902
0.212341
0.104341
0.0327548
0.0516419
0.100793
0.102436
0.109403
0.210366
0.0101059
0.0333615
0.114562
0.115771
0.199441
0.184869
0.116419
0.121315
0.111052
0.169459
0.233033
0.218026
0.147964
0.0273535
0.197131
0.196048
0.0885279
0.0456418
0.1803
0.0838447
0.114389
0.187947
0.14815
0.151691
0.129383
0.110708
0.120392
0.120134
0.118662
0.191332
0.122692
0.165388
0.2291
0.212136
0.185882
0.205279
0.111788
0.0816022
0.211143
0.123522
0.188621
0.14636
0.193942
0.238523
0.116098
0.00640942
0.124885
0.126599
0.132767
0.209619
0.124149
0.130613
0.150847
0.13267
0.150594
0.126622
0.00177498
0.149459
0.130358
0.129894
0.00471249
0.186785
0.234681
0.149093
0.155952
0.117838
0.132238
0.130745
0.0533877
0.232669
0.132432
0.132033
0.134055
0.0322312
0.210089
0.142271
0.118973
0.149171
0.0775428
0.101218
0.198823
0.122823
0.119381
0.0965338
0.119899
0.129857
0.0809834
0.122938
0.210142
0.139208
0.0705697
0.20913
0.210056
0.10716
0.108114
0.090978
0.122909
0.0538581
0.126156
0.059327
0.254107
0.19536
0.161857
0.0774282
0.0193682
0.218087
0.0173935
0.0201399
0.122256
0.00205216
0.122767
0.0282326
0.162977
0.0857035
0.121516
0.18274
0.163981
0.122619
0.0244717
0.0199306
0.15949
0.120524
0.0356636
0.12339
0.122009
0.139232
0.128244
0.237688
0.188587
0.218036
0.161085
0.184184
0.122279
0.18812
0.162368
0.122816
0.219572
0.241373
0.183218
0.178809
0.122884
0.203796
0.119986
0.218973
0.157979
0.186296
0.0179718
0.0376849
0.176749
0.00953674
0.211749
0.253741
0.221125
0.0112737
0.051931
0.0173564
0.208438
0.216991
0.00575839
0.164016
0.116183
0.203557
0.167998
0.115608
0.123626
0.0287912
0.17985
0.183253
0.0504845
0.237619
0.217834
0.131898
0.117512
0.24872
0.116834
0.2426
0.181682
0.179775
0.117825
0.226186
0.104487
0.224256
0.209451
0.228674
0.00636357
0.120926
0.235739
0.063328
0.244395
0.121211
0.230093
0.0912096
0.0905109
0.0962707
0.238581
0.195972
0.227735
0.194911
0.102732
0.23553
0.235906
0.0917709
0.237106
0.106706
0.188821
0.100959
0.195858
0.130379
0.0881439
0.123779
0.0852395
0.124578
0.0190065
0.10811
0.0988717
0.219143
0.0960174
0.182634
0.137578
0.163042
0.105974
0.0358251
0.0789458
0.183907
0.101034
0.218819
0.0681256
0.110305
0.225186
0.187244
0.112367
0.203478
0.110707
0.100574
0.098365
0.128778
0.105672
0.00195995
0.0358829
0.0393504
0.101158
0.101817
0.185955
0.0451949
0.0261385
0.0963204
0.0641741
0.217393
0.197857
0.0318835
0.112994
0.16554
0.106986
0.114424
0.0919339
0.111957
0.197413
0.111497
0.155385
0.000644792
0.214367
0.152793
0.246051
0.115028
0.111656
0.020271
0.219446
0.085488
0.115744
0.18863
0.119494
0.116736
0.109542
0.107637
0.0295906
0.119287
0.114414
0.115019
0.109979
0.12846
0.111987
0.214716
0.0927914
0.117009
0.21645
0.245733
0.159712
0.0961661
0.177844
0.114703
0.10465
0.0997368
0.0537341
0.0933048
0.0852829
0.233652
0.0944192
0.128989
0.126722
0.0316872
0.0935289
0.21419
0.106695
0.109573
0.15149
0.143171
0.104347
0.165984
0.129107
0.10788
0.10548
0.119727
0.105794
0.212869
0.205004
0.0959101
0.0927828
0.102222
0.04161
0.108249
0.128803
0.185319
0.105273
0.109214
0.0997692
0.111122
0.215245
0.0922242
0.208477
0.109077
0.105355
0.0972012
0.105722
0.0821868
0.102341
0.0838994
0.0733518
0.104542
0.230965
0.118845
0.229
0.152332
0.0704708
0.0227189
0.0907606
0.214219
0.106566
0.105268
0.0774346
0.107118
0.0771559
0.216077
0.214629
0.0808449
0.08152
0.0849481
0.0855373
0.172155
0.135598
0.0831205
0.0836964
0.0630686
0.103597
0.085091
0.0855062
0.0491776
0.0477179
0.0022725
0.0857797
0.174101
0.0295637
0.13567
0.0887705
0.0916081
0.0955275
0.122202
0.212037
0.108466
0.0784263
0.0113595
0.0184484
0.137478
0.0900654
0.0853266
0.11753
0.0308336
0.0202538
0.0912048
0.213656
0.10124
0.103003
0.0481624
0.0956146
0.23941
0.0979382
0.09611
0.134862
0.0983101
0.101576
0.213535
0.102263
0.11539
0.0182389
0.00394844
0.167493
0.0358551
0.0207717
0.105399
0.0870165
0.214039
0.103493
0.221515
0.222146
0.100621
0.213024
0.0070513
0.0972199
0.103421
0.0335661
0.10451
0.221773
0.246181
0.0482775
0.218033
0.102991
0.184519
0.202674
0.103575
0.108006
0.220463
0.101347
0.237998
0.102976
0.125106
0.112056
0.238802
0.21813
0.126527
0.105739
0.10268
0.19216
0.124834
0.191686
0.218226
0.215058
0.105946
0.0118522
0.106488
0.0990631
0.190735
0.0807265
0.191374
0.0409794
0.20211
0.000267492
0.214853
0.12547
0.0894934
0.0985007
0.217045
0.0960759
0.214596
0.20822
0.216645
0.0131397
0.00347842
0.19322
0.00363756
0.0959078
0.123528
0.166558
0.0937669
0.208526
0.142369
0.212389
0.0915252
0.210796
0.174942
0.190284
0.247248
0.129512
0.232865
0.0911394
0.00987077
0.142357
0.0096337
0.244587
0.0448454
0.137857
0.190524
0.100257
0.095574
0.0135734
0.0329723
0.0975877
0.195676
0.216762
0.00667369
0.222192
0.12565
0.237486
0.0573682
0.198001
0.0974653
0.175672
0.218426
0.173176
0.162551
0.183323
0.199476
0.212446
0.160489
0.0419378
0.187247
0.0988091
0.0991981
0.098704
0.0593476
0.232063
0.233074
0.188793
0.108362
0.208487
0.214893
0.107936
0.0997931
0.0986009
0.0954271
0.23214
0.0475512
0.0932266
0.147355
0.0957994
0.186818
0.173016
0.114975
0.0565096
0.096841
0.0949296
0.134605
0.243168
0.155626
0.0950072
0.209892
0.0674961
0.0515115
0.228236
0.00468299
0.0671907
0.013628
0.067345
0.0676257
0.210956
0.093742
0.174383
0.20961
0.117117
0.0997984
0.217897
0.0711371
0.215154
0.0898708
0.0924772
0.0928029
0.19056
0.160669
0.214765
0.194647
0.206474
0.0796558
0.138156
0.21862
0.204113
0.0998136
0.203363
0.0692181
0.187353
0.0454475
0.189335
0.0955341
0.170237
0.0847007
0.129128
0.203607
0.0673463
0.204277
0.0517543
0.103239
0.0826376
0.029807
0.0872063
0.0816226
0.115109
0.214878
0.0852663
0.0394754
0.0174147
0.191287
0.0193641
0.205782
0.00418764
0.0895439
0.0483459
0.0883447
0.20401
0.207578
0.0450501
0.231154
0.0316305
0.00221197
0.189928
0.171699
0.0871496
0.204244
0.0658196
0.018798
0.112364
0.00249158
0.142654
0.182162
0.132712
0.0892216
0.241605
0.0906467
0.145987
0.189885
0.119761
0.206541
0.0871274
0.130737
0.0863381
0.135214
0.23067
0.0926937
0.0798899
0.135673
0.0871035
0.151205
0.0855389
0.0561533
0.0856035
0.230501
0.0853612
0.0820546
0.0847138
0.224514
0.107974
0.21618
0.234108
0.23246
0.166171
0.0464167
0.0621022
0.173676
0.204766
0.0216203
0.0598373
0.0847455
0.0832701
0.206075
0.244742
0.00296761
0.0308241
0.0763786
0.216073
0.0313661
0.121306
0.206088
0.0823955
0.0812118
0.0817797
0.0795041
0.0821243
0.16691
0.101578
0.202624
0.0218732
0.0852255
0.0821509
0.226231
0.129369
0.222409
0.235802
0.0449461
0.0828204
0.0619709
0.224578
0.227001
0.221882
0.221205
0.114695
0.0611854
0.216965
0.0450642
0.0826142
0.198896
0.0922209
0.0817042
0.0650343
0.0803862
0.197407
0.196341
0.0827123
0.145781
0.0926145
0.0919773
0.242091
0.0238093
0.0509601
0.0824483
0.0832301
0.00737614
0.0832551
0.0633672
0.0882902
0.193146
0.083483
0.0158588
0.0897527
0.00742614
0.226896
0.219959
0.115869
0.0856837
0.0883042
0.101399
0.0755298
0.0685834
0.103457
0.0725387
0.071341
0.0624041
0.0728709
0.22824
0.203499
0.121745
0.190459
0.0768948
0.196636
0.060871
0.189921
0.157831
0.182326
0.0739826
0.138124
0.0172194
0.196965
0.212319
0.0848486
0.249767
0.0764381
0.0783632
0.131418
0.0202575
0.102037
0.0790984
0.195821
0.0600076
0.0847066
0.081986
0.0570559
0.162571
0.0572111
0.0563413
0.0575999
0.0584072
0.0572871
0.192324
0.192812
0.198821
0.189482
0.0367189
0.0578158
0.223251
0.0634415
0.0352507
0.0628085
0.062404
0.0376645
0.0631803
0.0619186
0.0625443
0.0796095
0.0762041
0.140173
0.0872689
0.0983982
0.127222
0.109911
0.10094
0.0376769
0.0800473
0.0793327
0.0599414
0.0647547
0.0773003
0.153279
0.0158909
0.181416
0.241748
0.142398
0.231731
0.0785148
0.0174279
0.0191076
0.0187195
0.105949
0.0200802
0.075178
0.0773226
0.217175
0.249328
0.13198
0.0700347
0.220575
0.119443
0.147086
0.0767489
0.149416
0.0769522
0.153998
0.0644058
0.0343961
0.0417097
0.0728714
0.00145058
0.0788587
0.218927
0.0582488
0.179281
0.0234128
0.0705475
0.0727027
0.204787
0.0990012
0.154238
0.111029
0.153147
0.0718973
0.0139331
0.221431
0.0863511
0.142835
0.217982
0.218085
0.0736649
0.0625173
0.0744217
0.113221
0.0740242
0.150208
0.204395
0.11617
0.0751438
0.0757877
0.120222
0.13724
0.169187
0.0749671
0.0768063
0.0772444
0.218956
0.075884
0.077272
0.0278003
0.0677967
0.0358489
0.0135438
0.0353131
0.0219225
0.0665114
0.0681481
0.0111127
0.0539292
0.0107134
0.216626
0.0695106
0.0393436
0.216805
0.166324
0.103966
0.0601474
0.0726356
0.011093
0.0710199
0.159333
0.111999
0.069431
0.222339
0.0342473
0.00317484
0.070244
0.256856
0.110202
0.144828
0.0125037
0.0706241
0.0699955
0.169214
0.0126665
0.109201
0.140284
0.0649503
0.070101
0.0723465
0.249006
0.228791
0.222654
0.105915
0.035779
0.0138603
0.012519
0.223961
0.012636
0.0444379
0.0734699
0.245208
0.0861993
0.0748293
0.201705
0.223718
0.159699
0.151514
0.0738775
0.0719685
0.216848
0.185666
0.196931
0.0215793
0.182089
0.0479812
0.100186
0.0394353
0.0713804
0.11339
0.228667
0.11411
0.11226
0.236506
0.0671574
0.218437
0.0504978
0.149353
0.175336
0.228422
0.114095
0.22195
0.0633532
0.0529786
0.0316996
0.0673236
0.221831
0.0510827
0.0461037
0.137207
0.0524287
0.0526322
0.0565979
0.01814
0.104096
0.0687614
0.081221
0.047753
0.0623047
0.0551408
0.0378346
0.224045
0.15539
0.0508839
0.0705856
0.253982
0.132545
0.0675117
0.142472
0.068037
0.126747
0.0661113
0.222356
0.0494139
0.250849
0.0431377
0.0381265
0.138439
0.0519572
0.151326
0.132497
0.159957
0.021007
-0.000981254
0.0290055
0.0240658
0.0430116
0.0154938
0.0475645
0.0441816
0.0435735
0.234885
0.0291802
0.224436
0.224731
0.0340425
0.213772
0.071205
0.21943
0.203766
0.049431
0.215829
0.0496162
0.0015229
0.159539
0.10237
0.208277
0.203032
0.11213
0.0171813
0.0310363
0.161474
0.17592
0.0509766
0.0493874
0.0664567
0.179157
0.195209
0.144281
0.0179098
0.0129189
0.0656181
0.164474
0.180976
0.198131
0.235263
0.0676646
0.208731
0.191132
0.143146
0.251732
0.102257
0.13161
0.166901
0.0636962
0.226626
0.0108561
0.0985979
0.190873
0.172385
0.202358
0.225424
0.020223
0.0983998
0.0659712
0.117531
0.0667884
0.108846
0.120684
0.116685
0.0844656
0.0665773
0.0656491
0.0634501
0.0861053
0.233808
0.0928839
0.0834446
0.0893813
0.220676
0.193792
0.0191895
0.226193
0.0661099
0.063383
0.132505
0.0558664
0.0565511
0.0779743
0.019632
0.0548348
0.0594772
0.0136629
0.0522668
0.0512276
0.0562543
0.0740644
0.0617509
0.0622406
0.224461
0.041357
0.0501688
0.036765
0.0679404
0.0364295
0.0343423
0.0642482
0.0150744
0.0162593
0.0916254
0.03763
0.0332961
0.225606
0.0648301
0.0499612
0.0459512
0.0173954
0.0410869
0.0641934
0.0664012
0.0588348
0.103255
0.141391
0.163179
0.122148
0.0164112
0.0586394
0.0571062
0.0588244
0.186391
0.0899701
0.0656621
0.240995
0.0577021
0.0892072
0.0571476
0.0595622
0.156568
0.162457
0.0571683
0.0954897
0.204543
0.20344
0.090076
0.0578592
0.223594
0.0578257
0.124281
0.0585222
0.24577
0.0588267
0.184104
0.0574841
0.156395
0.189633
0.218897
0.198947
0.0560377
0.192426
0.13964
0.156047
0.0579931
0.0239205
0.10155
0.142077
0.0577525
0.0573639
0.0581771
0.101499
0.0518549
0.236009
0.170446
0.0220502
0.224208
0.0545231
0.217855
0.0222986
0.0502579
0.0533179
0.185864
0.0577034
0.160304
0.234001
0.0507241
0.0541912
0.0875595
0.229763
0.185908
0.184943
0.0554863
0.195156
0.166808
0.0536712
0.0900172
0.0760865
0.0527525
0.0529906
0.159928
0.19769
0.0584968
0.0922793
0.0747785
0.221889
0.21701
0.221286
0.0578127
0.223169
0.0391553
0.175512
0.202423
0.116378
0.157616
0.0573858
0.227837
0.0278898
0.0315151
0.0337273
0.0968762
0.033621
0.103752
0.101821
0.0905907
0.112652
0.181171
0.0924883
0.137109
0.00774928
0.0389871
0.078689
0.131035
0.0550589
0.146419
0.205652
0.106356
0.177106
0.170831
0.0101981
0.0337371
0.154885
0.0395518
0.000325556
0.226219
0.187292
0.216828
0.0319351
0.226068
0.0865576
0.214839
0.0827382
0.218051
0.0818653
0.222895
0.0366392
0.195714
0.0530816
0.166632
0.0837358
0.171747
0.0863745
0.260103
0.0534516
0.0722082
0.181906
0.166974
0.0517022
0.112531
0.167124
0.0534645
0.15004
0.0215907
0.149595
0.0490761
0.0476755
0.0729883
0.225955
0.0536878
0.0343941
0.0527621
0.0545748
0.0979052
0.18859
0.0611343
0.0549551
0.0974655
0.0975318
0.00426194
0.219883
0.0529726
0.0700467
0.126526
0.173359
0.00167023
0.0545065
0.224474
0.0453883
0.043932
0.138119
0.0260462
0.0387129
0.202716
0.0548971
0.221886
0.10169
0.0348251
0.042995
0.114237
0.0404588
0.0528448
0.0780867
0.0501061
0.0514275
0.0510556
0.0211718
0.133293
0.0492952
0.0695483
0.0470376
0.0635625
0.0707295
0.048814
0.0456999
0.21935
0.0498239
0.0432905
0.0457758
0.224052
0.0536262
0.0448341
0.0620877
0.165572
0.06681
0.0487913
0.0544285
0.0475765
0.00272904
0.222203
0.0675053
0.0476451
0.0352294
0.229283
0.0898804
0.02423
0.0463462
0.00976098
0.0978379
0.221
0.0452057
0.219613
0.0421513
0.0278147
0.223672
0.220437
0.228351
0.0339663
0.224994
0.0133523
0.0163646
0.0464189
0.0244314
0.0208914
0.0570063
0.167771
0.224532
0.215434
0.232546
0.213465
0.132221
0.0961222
0.0355917
0.0435068
0.0510489
0.125555
0.140873
0.0866496
0.187551
0.066527
0.0476394
0.152159
0.0599876
0.214256
0.213756
0.0267214
0.215461
0.141693
0.195145
0.229139
0.0446279
0.178001
0.14374
0.152472
0.14311
0.0449568
0.109657
0.216501
0.231004
0.0540129
0.211442
0.229117
0.220507
0.183169
0.0377957
0.232394
0.0402249
0.205381
0.206061
0.0399797
0.0444488
0.0357481
0.126872
0.225718
0.0923212
0.142452
0.0363244
0.157941
0.22609
0.0476339
0.184712
0.0459802
0.188648
0.213913
0.232352
0.213146
0.0774111
0.085418
0.101215
0.178798
0.047792
0.200252
0.200472
0.0461526
0.190077
0.109759
0.0463535
0.142414
0.193244
0.0448857
0.21678
0.0377777
0.197401
0.236213
0.0421066
0.120259
0.0428208
0.146154
0.0449806
0.0214795
0.226149
0.148337
0.0728204
0.0985064
0.125534
0.118859
0.0181097
0.113084
0.111109
0.215496
0.151763
0.2394
0.205875
0.060239
0.220219
0.0227585
0.0236773
0.160017
0.136309
0.190239
0.189562
0.0250932
0.0214372
0.109247
0.223078
0.180344
0.205606
0.236809
0.0243896
0.182581
0.149447
0.183075
0.188834
0.139703
0.227143
0.192758
0.196282
0.0556533
0.059762
0.235555
0.0244855
0.0217409
0.0410723
0.208303
0.223549
0.226658
0.0399176
0.0377672
0.165826
0.0392354
0.0403659
0.170779
0.231343
0.188615
0.062557
0.214999
0.109312
0.185991
0.187871
0.232579
0.0382789
0.137194
0.137979
0.0404081
0.038729
0.0367717
0.0390267
0.146372
0.0405065
0.23181
0.183572
0.169204
0.0403959
0.0357141
0.0795394
0.177948
0.233126
0.106655
0.0958722
0.230779
0.017501
0.0312445
0.0633782
0.0991003
0.0307336
0.0396178
0.0411196
0.0766114
0.0412912
0.230726
0.231809
0.0844167
0.230807
0.134755
0.0760296
0.0369467
0.0605665
0.0569163
0.0677577
0.0395653