/*--------------------------------*- C++ -*----------------------------------*\
| =========                 |                                                 |
| \\      /  F ield         | OpenFOAM: The Open Source CFD Toolbox           |
|  \\    /   O peration     | Version:  2406                                  |
|   \\  /    A nd           | Website:  www.openfoam.com                      |
|    \\/     M anipulation  |                                                 |
\*---------------------------------------------------------------------------*/
FoamFile
{
    version     2.0;
    format      ascii;
    arch        "LSB;label=32;scalar=64";
    class       surfaceScalarField;
    location    "60";
    object      phi;
}
// * * * * * * * * * * * * * * * * * * * * * * * * * * * * * * * * * * * * * //

dimensions      [0 3 -1 0 0 0 0];

oriented        oriented;

internalField   nonuniform List<scalar> 
113358
(
-1.464e-05
3.02934e-05
-2.12833e-05
5.63044e-06
2.15309e-05
2.75021e-07
-5.77315e-06
-1.60336e-05
-2.52875e-05
1.89838e-05
-2.9342e-06
9.23823e-06
-2.37201e-05
-6.15306e-06
2.32584e-05
6.61464e-06
-1.72884e-05
9.19703e-07
3.01315e-05
-1.37629e-05
1.36156e-05
-1.41962e-05
-7.96038e-06
8.54096e-06
-7.18487e-06
3.36677e-05
-2.46225e-05
-1.86009e-06
-7.12774e-07
-3.07682e-05
1.68017e-05
1.4679e-05
8.11959e-06
5.82906e-07
1.78353e-05
-2.65382e-05
6.95622e-06
3.53045e-06
-1.02012e-05
-2.86456e-07
-6.07947e-06
2.30962e-05
-2.18134e-05
4.79677e-06
-1.46628e-05
1.19421e-07
-3.5109e-07
1.48945e-05
-4.41566e-05
3.4185e-06
1.17405e-05
2.89971e-05
1.18669e-06
-2.52473e-06
1.338e-06
1.88818e-06
-1.37593e-06
1.85989e-05
-1.91104e-05
9.93584e-07
3.21699e-07
1.12979e-05
-1.26135e-05
9.77122e-06
3.59526e-05
-2.9354e-05
-1.63698e-05
-1.95091e-05
1.07864e-05
6.70892e-06
2.01372e-06
1.50643e-05
-3.79587e-05
3.17588e-05
-8.8646e-06
2.63862e-05
3.07092e-06
2.80799e-05
-5.75367e-05
1.88987e-05
3.70259e-07
-4.83026e-07
-1.8786e-05
-1.16056e-05
4.65465e-05
4.35609e-06
-3.92981e-05
-9.30672e-07
-4.5261e-05
4.95197e-05
-3.32809e-06
-8.82444e-07
4.17891e-06
3.12733e-07
-3.60901e-06
-4.79844e-05
2.09569e-05
-4.15349e-06
3.11828e-05
-2.12921e-05
4.98461e-06
1.75367e-05
-1.22861e-06
-9.10486e-06
8.81647e-06
-1.8017e-07
4.68811e-07
-1.88239e-06
-7.44719e-06
5.32831e-06
4.00121e-06
1.88678e-05
-4.0803e-07
4.3889e-07
-2.12618e-06
2.1183e-06
7.88378e-09
-5.44186e-06
-2.58636e-05
2.74668e-05
3.83866e-06
5.07079e-06
-2.59393e-07
-8.07939e-06
3.26786e-06
2.01957e-05
-1.06363e-06
1.18373e-06
-2.03157e-05
-2.73174e-05
1.25961e-05
-2.94173e-06
1.76628e-05
1.75042e-05
2.57708e-06
-1.98265e-05
-2.54837e-07
-3.41008e-05
8.6719e-06
-1.1928e-05
3.73563e-05
-3.57199e-08
-2.06266e-06
2.0987e-06
9.34991e-06
1.07756e-05
1.75635e-06
-2.18818e-05
7.31557e-06
-3.69801e-05
3.03712e-05
-7.06835e-07
-3.50306e-06
4.37805e-06
3.71618e-05
-3.80386e-05
-1.84791e-05
1.56928e-05
-1.94802e-05
2.22664e-05
9.35982e-08
-2.41111e-05
-3.10173e-05
5.50349e-05
-1.33341e-06
4.33934e-05
-1.23843e-05
-2.9676e-05
5.10461e-06
-1.79458e-05
-7.15761e-06
-6.38865e-06
3.24344e-05
-3.06783e-07
-2.57392e-05
-2.18813e-06
1.51782e-05
-1.01355e-05
-2.85527e-06
-3.04409e-05
-1.21336e-05
4.12409e-05
-1.17478e-05
3.58325e-05
1.58823e-06
-2.56728e-05
-3.41005e-05
4.25248e-06
-5.51875e-06
3.53668e-05
3.55924e-05
1.58798e-05
-4.71064e-05
-4.36575e-06
2.32256e-05
-1.61794e-05
1.55238e-06
-8.59861e-06
-1.00206e-05
2.88843e-06
1.01665e-05
-3.03389e-06
2.87219e-05
-7.67344e-06
1.62563e-05
-3.7305e-05
-1.01678e-05
-3.72695e-05
4.05354e-05
6.90263e-06
-2.05903e-06
7.53814e-06
-8.7598e-06
3.28058e-06
2.79607e-05
-1.20309e-05
2.01374e-05
-3.60673e-05
-2.13915e-05
4.97428e-06
3.74322e-05
-2.10149e-05
1.12039e-05
-5.46701e-06
4.30786e-06
-1.00447e-05
3.95431e-05
-1.02978e-05
-3.04375e-05
1.19106e-06
-1.30267e-05
-1.47854e-05
8.15928e-06
1.96527e-05
-3.08083e-05
-5.06864e-06
1.45142e-05
2.1362e-05
-2.72748e-06
3.1266e-06
-3.99212e-07
3.62225e-05
-6.21755e-06
-3.57867e-05
5.78182e-06
-1.59991e-05
-4.33155e-05
1.7333e-05
4.19816e-05
-3.98555e-06
4.30244e-06
-3.35791e-05
3.32619e-05
1.58772e-06
2.17331e-05
3.11165e-06
-2.64326e-05
3.3472e-06
-2.77271e-06
-5.74643e-07
-2.35325e-08
6.94317e-08
1.11931e-05
-1.12387e-05
6.24178e-06
-3.0198e-05
3.26589e-05
-8.70263e-06
9.68709e-06
-2.4251e-05
2.34735e-05
-8.90971e-06
7.04965e-06
-7.27252e-06
2.22553e-07
-1.97489e-05
-6.42845e-06
3.43257e-05
-8.14819e-06
-2.35442e-07
3.91563e-06
-3.68038e-06
7.55654e-06
-2.93413e-05
8.78202e-06
1.30026e-05
4.93376e-05
-3.58764e-06
-3.32174e-06
-4.2427e-05
-2.73006e-05
-3.32266e-05
3.59265e-05
2.46003e-05
3.95743e-06
-3.74835e-05
6.2255e-06
3.669e-05
-2.95697e-05
-8.60677e-07
-6.25992e-06
1.0452e-07
1.64865e-07
-1.46698e-05
1.44005e-05
6.41562e-06
8.48284e-06
1.29711e-05
-2.78696e-05
7.49975e-06
-3.93683e-06
3.03841e-06
-6.60151e-06
-1.61237e-05
-1.12133e-05
2.73377e-05
-7.99614e-10
-2.11501e-05
2.60981e-05
-1.88868e-05
1.39387e-05
-2.92199e-06
1.72175e-09
2.92022e-06
-3.08581e-05
3.45181e-05
-3.5396e-05
2.72648e-05
-2.74977e-06
-9.12126e-07
-6.0467e-07
4.26653e-06
6.42411e-05
-6.18193e-05
1.86771e-06
-4.28899e-06
-1.14095e-05
3.54562e-06
1.09759e-05
-3.11153e-06
-4.64404e-06
2.57612e-05
-2.82898e-05
7.1727e-06
-1.79907e-05
-2.12968e-05
3.14749e-05
7.81253e-06
9.10975e-06
-1.30822e-05
1.85071e-05
-1.45339e-05
7.80065e-06
2.60404e-05
-5.32578e-05
1.9418e-05
-3.37162e-05
1.20992e-05
1.46447e-05
6.97199e-06
9.58584e-07
-3.09757e-05
2.52264e-05
4.79074e-06
-2.70991e-05
2.50504e-06
9.68304e-06
1.4911e-05
2.3394e-05
-2.03056e-05
6.97226e-06
-1.00608e-05
1.25253e-06
1.14698e-05
-1.25359e-05
-1.86241e-07
1.71236e-05
-2.43038e-06
-2.51527e-06
-1.21779e-05
1.59966e-05
1.8379e-05
-1.60639e-05
-1.83107e-05
2.30916e-06
-7.23103e-07
4.12119e-06
-5.70721e-06
4.44276e-06
-2.68177e-07
-4.17427e-06
3.22878e-08
3.68703e-06
-3.71944e-06
-4.70865e-07
2.91715e-06
-1.25242e-05
1.00774e-05
-2.0333e-05
4.10382e-05
4.38797e-07
-2.11431e-05
4.81216e-06
-2.22615e-05
1.72197e-05
2.29161e-07
-2.9147e-06
-3.85009e-06
1.0915e-06
5.67302e-06
-5.61647e-06
-1.36749e-05
3.63173e-06
1.566e-05
-2.9902e-06
1.91697e-05
8.30297e-06
-2.44825e-05
3.97763e-06
3.54848e-06
-1.71971e-05
9.6714e-06
-2.71633e-06
2.83818e-05
-3.2282e-05
6.61659e-06
-7.1001e-06
7.27858e-06
-1.7859e-07
1.74912e-05
-2.16866e-05
3.46481e-06
7.30798e-07
1.84038e-05
1.08544e-05
-3.24487e-05
3.19047e-06
-2.66899e-05
-1.51733e-05
7.49345e-06
3.43698e-05
-2.10516e-06
-2.0467e-05
8.75129e-07
2.16969e-05
1.23244e-05
-1.27867e-05
1.00056e-07
3.63109e-07
1.60707e-05
-2.81741e-05
-5.3662e-06
1.74696e-05
-3.30671e-06
2.60079e-07
3.04646e-06
-4.44769e-06
-1.32154e-06
2.95334e-05
-2.37641e-05
-1.58522e-05
1.00538e-05
5.07649e-05
-4.49652e-05
-1.10736e-05
2.26922e-05
-3.30332e-05
2.14144e-05
1.63585e-06
-2.55691e-05
2.04236e-05
3.50953e-06
-4.05017e-06
-9.47216e-06
3.36443e-05
-2.01215e-05
2.31878e-05
-9.81852e-06
-1.02988e-05
-3.07047e-06
-2.84018e-06
-1.22356e-05
1.81152e-05
-3.03932e-06
5.77935e-06
-2.82435e-06
-2.95528e-06
-1.10307e-06
-2.49991e-05
-6.6111e-06
3.27133e-05
-1.47488e-05
2.06304e-05
5.86998e-06
-1.17516e-05
6.0142e-06
-1.48506e-05
2.52767e-05
-1.64406e-05
-4.94741e-05
1.18959e-05
-8.69844e-07
3.8447e-05
-2.51819e-06
-4.16918e-05
3.78019e-05
6.4076e-06
5.35511e-08
-3.75681e-06
3.70372e-06
2.07703e-05
-3.23951e-05
6.4956e-07
1.09751e-05
3.4851e-05
3.99635e-06
-3.7586e-05
-1.26158e-06
1.06072e-05
1.20892e-06
-2.52374e-05
1.34216e-05
-9.41922e-06
1.29916e-05
1.48314e-05
-2.58973e-05
-2.163e-05
1.29604e-05
3.45675e-05
5.4619e-06
2.91213e-06
-3.93038e-06
6.79271e-06
-5.01688e-06
-2.57885e-05
2.40132e-05
4.3071e-06
1.36919e-05
-6.13261e-06
-1.18667e-05
-8.08042e-06
1.76556e-05
3.57695e-05
-4.53443e-05
1.71154e-07
2.30623e-06
-2.4771e-06
-2.20859e-05
3.49742e-06
1.36939e-05
4.89496e-06
3.54984e-05
-1.92638e-05
-2.41195e-05
7.88477e-06
3.27939e-05
-7.92878e-06
-3.71808e-06
-2.11472e-05
-2.86543e-05
-1.16471e-06
-7.51894e-07
3.05707e-05
2.55861e-05
1.14441e-05
-3.50095e-05
-2.02056e-06
6.92835e-06
4.83013e-06
-1.17585e-05
1.7844e-06
-2.47977e-05
-1.47877e-07
2.31612e-05
3.89529e-05
-2.99772e-05
-2.89635e-06
-6.07859e-06
4.23572e-06
-6.06471e-07
-3.38613e-06
-2.43835e-07
-3.30361e-05
4.70563e-05
2.00917e-05
-3.41116e-05
1.80883e-05
-2.96384e-05
-2.94299e-06
1.44934e-05
-2.33989e-05
2.54964e-05
-8.76361e-07
-1.22101e-06
-2.88278e-06
1.42368e-06
1.45869e-06
3.41701e-05
-3.79829e-06
9.7789e-06
-4.01501e-05
-2.57189e-05
3.50571e-05
-3.27365e-05
6.20606e-08
2.29457e-06
1.84825e-05
-2.08388e-05
2.54499e-06
-2.4624e-06
-8.28862e-08
-1.08643e-05
-6.10478e-06
1.02327e-06
1.59459e-05
-8.31888e-06
2.07247e-05
-1.57927e-05
3.38671e-06
1.51546e-06
-4.60465e-06
2.88349e-06
2.0547e-07
-1.81166e-06
-1.6909e-06
3.50235e-06
-2.19115e-05
2.19735e-05
2.20226e-05
-2.20846e-05
5.41805e-05
-1.34481e-05
-1.19392e-05
-2.87933e-05
1.27167e-05
4.80339e-07
-3.99941e-07
-1.27972e-05
3.76245e-05
-4.57642e-05
6.37492e-06
1.76494e-06
2.99957e-06
-4.84238e-08
-2.95087e-06
-6.01772e-06
2.89326e-05
-2.77489e-05
4.83402e-06
-1.3745e-05
1.43549e-05
-1.56469e-06
9.54683e-07
-1.01488e-05
8.86649e-06
6.00662e-07
6.81644e-07
2.39857e-06
-1.92052e-05
7.04532e-06
9.76139e-06
-1.13712e-05
-1.06952e-05
2.60966e-05
-4.02971e-06
-1.43415e-05
1.40619e-05
2.48031e-07
3.19334e-08
-3.01815e-05
-3.60698e-05
3.58103e-05
-1.1646e-05
3.75595e-05
1.20291e-05
-3.79426e-05
6.00878e-06
3.03429e-05
7.08474e-06
-4.34365e-05
-1.31215e-05
5.91786e-06
1.75975e-05
-1.0393e-05
-2.19137e-08
7.30281e-08
1.02712e-05
-1.03224e-05
1.25724e-06
3.85503e-05
-5.69064e-06
-3.41161e-05
-3.79011e-06
-2.43028e-06
4.05988e-06
2.16075e-06
4.08816e-06
-3.86254e-06
-2.25339e-07
-3.40757e-06
-1.19285e-05
9.94775e-07
-3.14945e-05
4.32402e-07
-6.24136e-06
3.73038e-05
-1.46182e-05
1.31425e-05
4.08101e-07
1.06672e-06
-4.23459e-07
8.02668e-06
-1.34809e-07
-7.46816e-06
-2.7727e-06
2.70352e-06
6.91566e-08
3.09909e-06
-8.30786e-07
2.09042e-05
-2.3172e-05
2.79027e-05
3.14916e-06
-2.43948e-05
-6.65702e-06
-3.37689e-06
-1.58156e-05
-1.00573e-05
1.33276e-05
-1.46843e-05
1.01257e-06
3.43342e-07
7.9863e-06
-3.24697e-05
3.81352e-05
-1.36515e-05
1.07096e-05
2.18168e-06
-5.5803e-06
-7.31076e-06
-1.66766e-05
-3.85287e-05
1.00412e-05
4.51663e-05
5.63857e-08
2.54198e-06
-2.00413e-07
-2.39808e-06
9.49764e-06
-6.30871e-07
1.4732e-06
-1.03401e-05
-9.62372e-06
2.12597e-07
9.50265e-06
-9.08023e-08
2.20996e-05
3.65508e-06
-2.77448e-05
1.99021e-06
-3.17305e-05
-1.779e-05
4.05021e-05
9.01925e-06
-6.9057e-06
2.95513e-06
-6.33156e-06
7.45874e-06
3.14823e-05
-4.0412e-05
1.47e-06
-2.20046e-05
-2.22057e-05
8.84611e-06
3.53642e-05
-2.6445e-06
2.88973e-06
-2.45229e-07
1.74921e-05
1.00065e-05
-1.95648e-06
-2.55415e-05
-7.16872e-07
-4.41436e-06
-2.93832e-05
3.45141e-05
-2.34762e-05
5.80413e-06
5.73786e-05
-3.97062e-05
2.82123e-05
-2.07662e-05
-1.13228e-05
3.8766e-06
2.54575e-06
-1.02315e-07
-2.44334e-06
4.1814e-05
-2.10039e-05
2.95666e-06
-2.37663e-05
9.14354e-06
-9.86225e-06
1.27286e-06
-5.53901e-07
2.4232e-06
2.30919e-06
-4.73246e-06
-1.65796e-05
-2.10413e-05
4.3437e-06
3.32769e-05
-1.10085e-05
2.0892e-07
1.14094e-05
-6.10209e-07
2.06625e-05
-4.23053e-05
5.44538e-07
2.10983e-05
-2.24907e-05
-2.71273e-05
3.62985e-05
1.33183e-05
-1.31246e-05
1.80437e-05
2.7875e-05
5.40072e-06
2.9133e-05
-3.03983e-05
-4.13553e-06
1.81539e-06
1.37844e-06
-1.22186e-05
9.02374e-06
-3.38875e-05
1.47955e-05
1.21607e-05
6.93148e-06
1.29261e-05
3.40342e-06
-1.47333e-06
-1.48556e-05
-3.29996e-06
-2.54104e-05
2.66034e-06
2.60508e-05
6.92082e-06
-2.67884e-06
2.82335e-05
-3.24751e-05
-1.90908e-06
-8.12761e-08
-4.82205e-06
6.81162e-06
6.73677e-07
1.12241e-05
-4.19756e-05
3.00773e-05
-1.51157e-05
-3.07276e-05
-1.08056e-06
4.69225e-05
3.49117e-07
4.89938e-06
-5.24834e-06
7.83303e-08
-1.85899e-07
1.07303e-05
-1.0622e-05
2.77289e-06
1.77711e-05
1.50777e-05
-3.56213e-05
2.55336e-07
-1.41136e-05
1.55044e-07
1.37029e-05
4.47798e-06
-2.16176e-05
-1.66395e-05
3.37808e-05
1.60522e-05
2.01686e-05
-1.76346e-05
-1.85859e-05
3.6079e-05
2.16644e-05
-4.85627e-05
-9.18065e-06
1.32028e-07
-4.22626e-06
4.09457e-06
2.63122e-06
1.28779e-06
-4.71223e-09
-3.91411e-06
1.87244e-06
2.45419e-06
3.02543e-07
-4.62947e-06
2.40284e-06
-2.89873e-06
1.45579e-05
1.9021e-07
-2.77991e-05
1.04035e-05
1.72054e-05
5.96325e-05
6.01698e-06
-1.25081e-05
-5.31408e-05
-7.7915e-06
1.06021e-05
-2.66333e-06
-1.47581e-07
-1.84005e-05
1.73635e-05
-2.95209e-05
3.05582e-05
3.00136e-06
5.85994e-08
-3.06019e-06
1.15172e-06
8.2703e-06
-1.5815e-05
6.39318e-06
2.97955e-06
-4.49329e-06
1.51351e-06
3.02746e-05
-1.62159e-05
-8.04444e-06
-1.58142e-05
5.71712e-06
-1.47047e-05
2.4802e-05
3.33978e-05
-3.25721e-05
5.22701e-06
-6.05297e-06
1.39301e-05
4.63538e-06
-1.66942e-05
-1.87069e-06
3.46311e-06
-4.05719e-05
1.40928e-05
2.3017e-05
2.64381e-05
-5.41209e-06
4.47028e-06
5.19074e-05
-5.72658e-05
1.85363e-06
-3.24565e-05
2.51045e-06
3.34886e-05
-3.54173e-06
-3.27433e-05
-2.11692e-05
3.55131e-05
-1.18968e-05
-1.19686e-05
-1.67307e-05
4.05968e-05
-1.41125e-06
4.57417e-06
4.00033e-05
-4.3167e-05
1.41843e-06
2.97296e-05
-5.1026e-05
1.98782e-05
-8.51194e-08
3.55968e-08
1.75104e-05
-1.7461e-05
-4.27352e-05
7.23052e-06
3.09907e-06
3.24061e-05
1.16977e-05
-1.17856e-05
3.98794e-06
-3.90005e-06
7.06127e-07
1.07601e-05
-1.37082e-05
2.24197e-06
-2.28355e-05
3.48375e-05
-4.61657e-06
-7.38655e-06
-3.68566e-05
2.72576e-05
1.6942e-06
7.90409e-06
-2.69358e-05
2.7316e-05
3.56129e-05
-3.59937e-05
3.60912e-05
-2.95116e-05
1.12868e-06
-7.70619e-06
-1.28633e-05
1.65465e-05
-9.89149e-06
6.2084e-06
-7.27414e-06
1.67312e-05
1.39547e-06
-1.08525e-05
-3.81564e-05
3.17438e-06
4.1631e-05
-6.64823e-06
-4.31835e-06
-2.41622e-05
4.00806e-07
2.80798e-05
2.29549e-06
-7.91765e-06
6.32895e-06
9.17059e-06
7.4634e-07
-8.78958e-06
-1.12754e-06
9.7759e-06
1.83373e-05
-2.13315e-05
-6.78153e-06
-1.07813e-05
1.52558e-05
2.61476e-05
-3.06223e-05
8.48606e-07
4.19306e-06
-3.53781e-05
3.03359e-05
1.64343e-05
-2.49886e-05
8.39037e-06
1.64472e-07
-4.16565e-05
-6.64862e-06
1.14504e-05
-3.20005e-06
-8.43147e-07
-2.36494e-05
2.76916e-05
-3.10136e-06
4.45729e-08
3.05695e-06
-5.42546e-06
-6.74931e-06
4.43186e-05
-3.21441e-05
5.0193e-06
-4.78139e-06
-2.37894e-07
2.53391e-07
1.91996e-07
-9.24578e-06
8.8002e-06
-2.11642e-05
2.0909e-05
3.63348e-05
5.79516e-06
3.26016e-05
-2.3364e-05
-1.50323e-05
4.31577e-06
-4.39046e-06
7.46908e-08
-4.37119e-06
4.81917e-05
-2.64294e-05
-1.73918e-05
-2.5881e-05
2.74178e-05
1.91254e-05
-1.95787e-06
2.61336e-05
1.07227e-05
-3.48992e-05
-3.69516e-05
-1.36315e-05
4.93081e-05
1.27476e-06
-4.51278e-06
4.09104e-06
4.2146e-07
3.61714e-05
-3.85246e-05
-5.08627e-07
2.86162e-06
-2.39651e-05
-1.52629e-05
2.18612e-05
1.73669e-05
-4.20102e-06
1.96743e-06
-2.40776e-05
2.63107e-05
-2.83322e-05
-7.3497e-06
6.06188e-07
3.50751e-05
-1.80312e-05
-8.99791e-06
-6.68741e-06
1.53507e-05
-3.51546e-05
-3.00756e-06
2.28114e-05
8.55433e-06
-3.5717e-05
-1.08172e-05
3.79807e-05
7.14974e-06
-6.80145e-06
-3.48227e-07
-3.02991e-05
5.07952e-05
-7.14682e-06
-1.33489e-05
-6.40907e-06
-2.66409e-05
2.99949e-05
3.05559e-06
-5.08208e-05
5.22043e-05
-5.91296e-06
4.53037e-06
-2.90219e-05
-7.06066e-06
2.09769e-05
1.51046e-05
-2.60487e-05
-5.62382e-06
3.18416e-05
-1.6824e-07
-3.30348e-07
9.49808e-08
-1.20953e-05
1.23309e-05
3.29044e-06
1.6604e-07
-3.45653e-06
-5.98764e-06
6.04863e-06
-6.12669e-08
4.3447e-05
-3.76911e-05
-5.10331e-05
4.52781e-05
2.77717e-06
1.14572e-07
-2.89156e-06
-2.80593e-05
2.76122e-05
-3.3848e-07
7.85842e-07
-1.01744e-05
8.61082e-06
2.16302e-07
1.34703e-06
5.392e-06
5.28568e-05
-2.86253e-05
-2.96233e-05
-3.05413e-05
-9.33418e-06
3.65543e-06
3.62185e-05
3.36491e-05
1.55475e-05
-1.5358e-05
-3.384e-05
1.24565e-05
-4.64119e-06
1.50731e-06
-9.32324e-06
3.56798e-05
-3.53627e-06
-2.5756e-05
-6.38776e-06
-3.79187e-06
5.63582e-06
-6.28861e-06
4.44484e-06
-2.5328e-06
8.42048e-06
3.08776e-06
-8.97548e-06
-1.49745e-05
-7.85988e-06
4.22806e-05
-1.94457e-05
6.07735e-06
2.39296e-05
-2.33507e-05
-6.65634e-06
-2.25509e-05
2.32363e-05
1.49948e-05
-1.56802e-05
2.26102e-05
-2.0465e-05
-2.70927e-06
5.63782e-07
-5.01646e-08
-1.06183e-05
-4.76383e-08
1.07164e-05
-6.80955e-06
1.28721e-05
-1.44006e-06
-4.62317e-06
-3.20167e-05
-1.09834e-05
1.57316e-05
2.72682e-05
2.58175e-05
-2.16888e-05
-4.42684e-06
2.987e-07
1.03451e-05
-3.4887e-05
-4.05508e-05
6.50935e-05
2.27009e-05
-2.97018e-05
-1.42892e-05
2.12911e-05
-6.31808e-06
-5.60734e-05
1.48156e-05
4.75759e-05
1.76756e-05
-1.56965e-05
2.47871e-06
-4.45787e-06
3.00737e-05
-1.06129e-05
-3.63075e-05
1.68462e-05
1.35181e-05
2.35535e-05
-5.3698e-05
1.66264e-05
-7.87253e-06
3.21903e-05
-2.84624e-05
4.14465e-06
-2.99591e-05
3.47037e-05
3.50431e-05
-3.97875e-05
-3.52883e-08
-1.36137e-05
1.18282e-05
1.82027e-06
3.94955e-06
-3.71329e-06
-2.36084e-07
3.84836e-05
-4.77503e-05
1.39408e-06
-3.9168e-06
5.2197e-06
2.77763e-06
-4.08093e-06
-2.81234e-06
1.38405e-07
-1.38499e-06
4.05962e-06
1.94307e-05
-2.53439e-06
1.7785e-05
-2.7193e-05
1.04525e-06
8.3624e-06
-9.16506e-06
-2.2976e-06
8.62249e-06
2.70472e-05
-3.52462e-05
1.99528e-05
-1.17531e-05
-2.89166e-05
-4.13776e-06
3.48771e-05
-1.82286e-06
-6.19331e-05
-9.54181e-06
5.50694e-05
1.64057e-05
-4.40836e-05
1.21973e-05
1.02154e-06
3.08659e-05
-3.94187e-06
3.07659e-07
8.26076e-07
2.80795e-06
-2.70525e-05
-3.26874e-05
2.45938e-05
3.51465e-05
2.09928e-05
1.82466e-05
-3.16548e-05
-7.5841e-06
1.09987e-07
1.37145e-05
-1.16193e-05
-2.20499e-06
-5.18794e-07
-2.0939e-05
4.15357e-05
-2.00793e-05
4.27177e-05
-3.04222e-05
-1.63446e-05
2.78906e-05
-3.13322e-05
6.20662e-06
-2.76557e-06
-3.9811e-06
-2.54946e-05
2.77449e-05
1.73154e-06
4.12471e-05
-2.88645e-06
-4.23407e-05
2.31579e-05
-2.60682e-05
6.52551e-06
-3.61515e-06
1.72856e-06
-1.14786e-05
-9.34144e-07
1.0684e-05
-2.42623e-06
2.33644e-06
-2.78354e-06
2.8733e-06
-1.73299e-06
4.27373e-06
1.40544e-06
-3.94675e-06
-6.92605e-06
-1.84591e-05
-1.46754e-06
2.68531e-05
1.09292e-05
8.75953e-06
-2.97807e-05
1.00919e-05
-1.87057e-05
5.98614e-07
6.69721e-06
1.14099e-05
-1.60166e-06
-1.7323e-05
1.68196e-05
-2.22622e-05
2.64232e-05
8.39628e-06
-1.25575e-05
-3.29833e-05
3.84357e-05
-1.23406e-05
6.88851e-06
-6.16141e-06
-1.98537e-05
2.0508e-06
2.39643e-05
1.51585e-06
3.48231e-05
-4.09321e-05
4.59276e-06
1.72658e-05
-5.41368e-05
1.14308e-05
2.54411e-05
4.94825e-06
-3.84565e-05
2.09778e-05
1.253e-05
1.61114e-06
2.12322e-05
-7.32165e-06
-1.55218e-05
-3.74839e-06
1.82063e-06
3.66906e-06
-1.74141e-06
-3.96759e-06
7.89608e-06
-2.92767e-05
2.53482e-05
-1.50768e-06
-1.04953e-05
2.71757e-07
1.17308e-05
1.63799e-07
1.07717e-05
-1.63914e-07
-1.07721e-05
1.73355e-07
2.391e-07
1.10202e-05
-1.14325e-05
-9.63015e-06
-1.6273e-05
2.90125e-05
-3.10897e-06
3.15623e-06
-3.1628e-05
1.70723e-05
1.13993e-05
3.38183e-05
8.32222e-07
2.71815e-06
-3.73679e-05
2.5227e-06
-2.58342e-06
6.09936e-08
1.05073e-05
2.11064e-05
-2.66662e-05
-1.06117e-05
3.86471e-08
1.30965e-07
1.04423e-05
2.27876e-06
-2.88217e-05
1.04506e-05
1.60928e-05
8.27471e-07
6.94551e-06
-7.02887e-06
-7.44311e-07
-5.44254e-06
-1.14914e-05
2.20394e-05
-5.10619e-06
2.70577e-05
-3.01101e-05
2.59558e-05
-2.2904e-05
1.90985e-05
-8.7892e-06
-3.26637e-05
2.23544e-05
-1.82047e-06
-1.7316e-06
3.55176e-06
1.11888e-05
2.33698e-06
-3.2298e-06
-1.02955e-05
-2.43335e-05
3.64512e-05
2.70001e-06
2.28348e-06
-4.98348e-06
2.41234e-06
-3.11069e-05
-3.7149e-07
2.90661e-05
-1.41654e-07
5.35159e-07
2.07124e-05
-1.42433e-06
2.19172e-05
-4.39946e-05
2.35009e-05
-6.96112e-06
-1.98324e-05
-2.78112e-06
2.9574e-05
5.51092e-06
-8.90608e-06
9.25537e-06
-5.86005e-06
-7.31431e-06
-3.61908e-05
-4.52899e-06
4.80349e-05
1.9735e-05
3.74283e-06
-2.27414e-05
-7.36401e-07
7.2429e-06
3.39903e-05
-5.6205e-05
1.49712e-05
-2.44165e-06
-1.42241e-05
-8.31579e-06
2.49816e-05
-1.80877e-05
-5.79898e-06
9.60677e-06
1.42795e-05
-1.04037e-06
-1.16717e-06
-1.23126e-05
1.45195e-05
4.28118e-05
-1.76763e-05
-1.023e-05
-1.4905e-05
-2.6467e-05
6.38106e-05
-3.46521e-05
-2.68844e-06
1.06207e-05
2.87876e-07
2.84692e-07
-1.11942e-05
2.91732e-05
-3.50654e-05
3.47261e-05
-2.88337e-05
-5.09269e-06
1.59944e-05
-1.29126e-05
2.01036e-06
1.61361e-05
-5.8234e-05
2.14012e-06
3.99577e-05
1.05907e-05
5.16867e-05
-4.40658e-05
-1.82123e-05
5.98589e-06
-5.84205e-06
-9.71925e-06
9.57641e-06
-2.20608e-05
-1.37471e-05
3.95074e-05
-3.69962e-06
3.54297e-05
-2.91349e-05
-4.17065e-05
3.54109e-05
1.82853e-05
1.48258e-05
-9.47791e-06
-2.36328e-05
1.23022e-07
-1.57248e-05
7.88204e-08
3.67012e-06
-3.74866e-06
-3.21502e-06
3.1038e-06
1.11136e-07
2.59009e-05
-2.43499e-05
-2.21142e-05
2.05638e-05
-7.80337e-06
1.00589e-05
-2.8336e-05
2.60797e-05
4.27107e-05
-3.33305e-05
-6.92837e-06
-2.45023e-06
-4.4622e-06
1.10864e-06
2.8825e-06
-9.08718e-06
3.20969e-05
-8.59793e-06
-1.44117e-05
-4.05714e-05
1.03436e-06
1.40882e-05
2.54499e-05
1.62115e-05
-7.24288e-06
-1.56813e-05
6.71216e-06
9.3605e-06
3.95758e-05
-3.75232e-05
-1.14135e-05
-2.40016e-05
-4.69938e-06
4.56867e-05
-1.69869e-05
2.27177e-06
2.55039e-05
5.77233e-06
-3.35477e-05
8.6274e-06
2.76958e-05
-3.40515e-05
1.8073e-05
-1.33055e-05
-7.03024e-06
2.26284e-06
2.48236e-05
-3.15874e-05
1.40064e-05
-1.24918e-05
7.91244e-06
7.46457e-06
-2.88504e-06
1.02862e-05
1.18115e-05
2.35355e-05
-4.56347e-05
4.21317e-06
-2.63581e-05
-4.0691e-06
2.62146e-05
3.13431e-07
2.82122e-05
2.50752e-06
-3.10335e-05
1.39366e-05
2.58248e-05
-4.32865e-05
3.52599e-06
-5.6594e-05
4.71584e-05
-7.32861e-07
2.83001e-07
3.91312e-05
-2.99867e-06
-3.64166e-05
-3.10298e-06
7.01928e-06
-9.59855e-06
5.68257e-06
-7.70856e-07
-3.33195e-06
2.20848e-07
3.88157e-06
-3.18966e-06
3.07149e-06
1.18136e-07
-4.86099e-06
-8.35039e-06
3.81244e-05
-2.4913e-05
-3.35621e-05
5.05293e-06
-1.4807e-05
4.33164e-05
4.39501e-05
-1.04812e-05
-1.44314e-05
-1.90392e-05
3.31954e-06
-3.12967e-05
1.13937e-05
1.65837e-05
3.2318e-06
-2.918e-06
-1.13834e-06
8.24295e-07
-3.73679e-06
3.60249e-06
1.3403e-07
1.8325e-06
2.62107e-05
-4.63815e-06
-2.34045e-05
-5.68447e-06
2.71959e-05
-3.51983e-05
1.36865e-05
1.28898e-05
2.13651e-05
-4.98965e-05
1.56419e-05
-1.9568e-06
2.5936e-05
1.92928e-05
-4.32722e-05
-4.08167e-05
2.21081e-05
2.35781e-05
-4.8698e-06
4.30493e-05
-4.42452e-05
8.96676e-06
-7.77023e-06
-3.11859e-05
-4.9089e-07
-9.1392e-06
2.2584e-07
4.98522e-06
-5.21082e-06
2.92136e-05
3.87845e-06
-2.41853e-05
-8.90707e-06
-1.79045e-06
-2.53232e-06
1.20877e-05
-7.76517e-06
3.03733e-06
5.32662e-07
9.97164e-06
-1.35416e-05
-3.46027e-05
1.56048e-05
1.66537e-05
2.34432e-06
1.29913e-05
-2.06437e-05
-2.96834e-06
1.06208e-05
-2.50029e-05
5.60789e-06
4.09902e-05
-2.15962e-05
-2.91218e-06
-1.82668e-07
3.09497e-06
-1.5934e-05
4.02939e-05
2.92067e-05
-5.35654e-05
3.66309e-05
9.6628e-07
-5.7857e-05
2.02593e-05
-2.37671e-06
3.72139e-05
-3.20721e-06
-3.16297e-05
1.77808e-05
-1.37827e-05
1.07171e-05
-1.47154e-05
-1.3082e-06
-2.48741e-05
2.78189e-05
-1.63485e-06
-2.3474e-05
-3.44884e-06
-1.54757e-05
4.23981e-05
-7.75665e-06
-8.32327e-06
-1.43722e-05
3.04528e-05
-1.31774e-06
3.92543e-05
-4.54182e-06
-3.33943e-05
2.28147e-05
-2.27941e-05
8.2841e-07
-8.48956e-07
3.92715e-05
1.0944e-07
-2.708e-05
-1.23009e-05
-8.54406e-06
-4.52343e-06
-2.45555e-05
3.76232e-05
-2.81095e-07
-2.95351e-06
3.23472e-06
-3.4759e-05
5.13881e-05
-3.72358e-06
-1.29046e-05
2.75447e-06
1.85536e-05
5.95606e-06
-2.72641e-05
-4.15111e-06
9.61063e-06
3.34021e-06
-8.80006e-06
-1.525e-05
-3.76697e-06
1.57796e-05
3.23748e-06
2.22539e-05
1.50518e-05
-5.51423e-05
1.78372e-05
1.21155e-05
-9.49348e-06
2.99588e-05
-3.25807e-05
-2.31505e-06
1.88996e-05
1.52844e-06
-1.81129e-05
2.84455e-06
-2.80259e-06
-4.21923e-08
2.84522e-06
3.39239e-05
1.49473e-06
-3.82635e-05
2.7929e-05
-4.35355e-06
-2.69782e-05
3.40371e-06
-5.59322e-06
6.70946e-06
-3.17329e-05
3.06159e-05
-2.79901e-05
-4.37095e-06
2.16173e-05
1.07431e-05
1.01476e-05
-9.61334e-06
-8.03904e-08
-4.5362e-07
-4.23828e-05
2.77967e-05
-1.63814e-06
1.62239e-05
-4.78859e-06
4.02664e-06
7.61946e-07
1.40779e-05
-1.19957e-05
1.88559e-05
-2.09383e-05
1.95606e-05
1.64084e-05
-8.55282e-06
1.51083e-05
-4.05145e-05
-1.88043e-05
4.42112e-05
1.49018e-07
-1.47249e-05
1.47693e-05
-1.93304e-07
8.55033e-06
-1.37589e-05
-1.58854e-05
2.10942e-05
1.35473e-05
5.92783e-06
-2.34654e-06
-1.71286e-05
-4.0201e-06
9.38363e-07
5.10524e-06
-2.02365e-06
-5.14016e-06
6.30028e-05
-2.1528e-05
-3.63346e-05
1.65831e-05
1.88572e-05
-1.08603e-06
-3.43546e-05
1.32827e-07
2.83087e-06
-2.96318e-06
-7.50539e-07
5.35634e-06
3.36863e-05
-3.82938e-05
4.60414e-05
5.93129e-06
-2.25877e-05
-2.93839e-05
-1.04053e-06
5.30928e-06
-4.1798e-06
-8.87846e-08
1.28992e-05
-1.15575e-06
-1.40834e-05
2.34042e-06
-3.91618e-06
-1.23757e-05
6.38907e-06
9.90307e-06
-6.40907e-06
2.86421e-05
4.42483e-06
-2.66581e-05
3.31962e-05
-4.35564e-06
-3.6173e-05
7.33216e-06
-2.97049e-06
5.75171e-06
-2.78129e-06
2.38748e-06
-1.05015e-05
9.38257e-06
-1.26853e-06
6.48841e-07
1.01451e-05
-1.06883e-05
-1.05183e-07
1.04574e-05
1.23223e-05
-1.45616e-06
-2.13231e-05
2.31744e-05
3.19652e-05
-2.19443e-05
-1.28787e-07
3.78541e-06
-3.65681e-06
-4.11187e-05
2.00473e-05
3.87268e-05
-1.76539e-05
3.99078e-05
6.96766e-06
-4.21283e-05
-4.74749e-06
3.04048e-05
-2.04233e-05
-3.34559e-05
8.34101e-06
1.43275e-05
-3.60923e-05
-1.88692e-06
-7.87896e-06
4.58593e-05
-8.71167e-08
3.67433e-06
-3.58701e-06
3.96141e-05
-1.43103e-06
-4.56616e-06
-3.36173e-05
3.87272e-06
-3.86621e-06
-6.28396e-09
-1.22114e-05
2.99725e-06
-7.35659e-06
1.65707e-05
-2.16366e-05
-1.86098e-05
1.64925e-05
2.37539e-05
1.96978e-05
-1.49964e-05
-4.2051e-06
-4.96954e-07
-4.34794e-08
2.93664e-06
-2.89337e-06
-6.70738e-07
-3.85218e-06
1.86681e-08
4.50423e-06
7.24376e-06
2.92001e-06
-5.16268e-06
-5.00136e-06
-1.13561e-05
1.23232e-05
-1.63783e-06
-4.21632e-07
4.24562e-05
-1.15576e-06
-4.08782e-05
-7.05678e-06
-6.96977e-07
9.2714e-06
-1.51716e-06
3.4204e-06
-1.3447e-05
1.05405e-05
-5.14006e-07
1.07909e-05
-2.01814e-05
1.44478e-05
-5.05737e-06
9.2278e-06
2.16376e-05
3.56492e-06
-3.44311e-05
5.32327e-06
-5.46427e-06
1.41149e-07
1.54723e-05
-1.25797e-05
-3.14705e-05
2.85771e-05
1.11252e-06
1.18431e-06
1.59478e-05
-1.82446e-05
4.59091e-06
1.95832e-05
-2.53438e-05
1.16792e-06
1.13624e-05
-5.36256e-07
-1.74993e-06
-9.07639e-06
1.12836e-05
2.36825e-05
-3.47152e-05
-2.4994e-07
1.36568e-05
-1.02212e-07
-1.16519e-06
-1.23896e-05
-2.54472e-05
9.2616e-06
1.27077e-06
1.49147e-05
-1.30087e-05
-1.24359e-05
-1.73112e-06
9.46391e-06
-1.67063e-05
1.26201e-05
-5.37805e-06
-4.55076e-06
-1.92202e-05
-2.87625e-05
5.25328e-05
-6.09612e-06
7.53412e-06
-1.73977e-06
3.01737e-07
3.87493e-08
2.44604e-06
-2.48481e-06
-7.94273e-06
4.07956e-05
1.20431e-05
-4.48954e-05
3.31885e-05
1.40707e-05
-1.22692e-05
-3.49893e-05
2.75394e-05
-2.28777e-05
2.61314e-05
-3.07925e-05
3.45609e-05
-3.79836e-05
4.17215e-06
-7.50021e-07
-6.14762e-05
2.68756e-05
1.18728e-05
2.27289e-05
-1.12908e-05
-1.42052e-06
1.24719e-05
2.3936e-07
3.58914e-05
-4.77987e-05
1.67954e-05
-4.88825e-06
1.03044e-05
-1.13132e-05
3.58831e-06
-2.58019e-06
-1.82212e-05
1.65837e-05
-1.13709e-05
-1.39433e-05
4.77502e-05
5.20604e-06
-3.90137e-05
-5.20695e-06
1.39203e-07
5.06772e-06
-4.78868e-06
1.09292e-05
-4.02407e-05
-1.93023e-05
-3.19919e-07
1.88248e-07
1.94343e-05
4.39746e-06
1.29673e-07
-4.52729e-06
8.60301e-06
-5.69979e-07
-3.02231e-05
2.21906e-05
-5.95597e-08
-1.96657e-07
1.02699e-05
-1.00141e-05
8.20262e-06
1.82472e-05
-3.02458e-05
3.79502e-06
2.95848e-05
1.94609e-06
1.99023e-06
-3.35201e-05
-2.55816e-06
6.61601e-06
3.87467e-05
-4.28047e-05
-8.54336e-06
-1.03855e-06
-3.62174e-07
9.94398e-06
-9.98409e-06
8.51037e-06
-3.45251e-05
3.59974e-05
-1.30501e-06
2.4297e-05
-2.12621e-05
-1.72958e-06
4.18909e-05
1.28889e-05
-1.90362e-05
-3.57431e-05
9.04562e-06
-4.889e-05
3.17642e-05
-4.19208e-05
5.35382e-05
-2.25728e-06
2.32238e-05
-9.29144e-06
1.92557e-05
-1.30728e-05
-3.19133e-06
6.30009e-06
9.96382e-06
-6.89333e-06
7.08714e-07
6.27579e-06
-9.14612e-08
-1.30534e-05
3.33574e-05
-2.35553e-05
3.25145e-06
-3.40879e-05
3.07419e-05
3.2752e-05
-2.94056e-05
-3.13241e-06
2.89051e-06
1.81978e-07
6.01805e-08
3.5207e-05
-5.10405e-05
-1.90868e-05
3.49213e-05
-4.84407e-05
-1.95811e-05
3.23195e-05
3.57009e-05
4.43273e-05
4.5225e-06
1.93333e-06
-5.07825e-05
3.79188e-05
-2.57105e-05
3.21183e-05
-3.74783e-05
-3.66791e-06
1.44363e-05
2.67091e-05
3.09349e-06
2.63413e-07
-3.35701e-06
4.12334e-05
-3.8008e-05
-1.29466e-05
9.7218e-06
-2.00419e-05
-7.06101e-06
5.82052e-06
2.12831e-05
1.56776e-05
2.7795e-05
-1.61118e-05
-2.73603e-05
6.77599e-06
2.13172e-05
-2.07409e-05
-7.35244e-06
4.37995e-07
-6.11732e-06
5.67918e-06
-1.95815e-05
-1.76872e-05
1.70733e-05
2.01956e-05
1.49727e-06
1.97845e-05
-4.53497e-06
-1.67469e-05
-3.40783e-05
3.40707e-05
-6.40108e-06
-3.02438e-06
4.30376e-05
-4.1969e-05
1.9564e-06
2.05392e-05
4.21405e-06
1.11242e-05
-3.58771e-05
-4.8612e-08
-2.1338e-06
2.18242e-06
-3.10022e-06
3.09112e-06
9.28305e-09
-2.81529e-05
-1.30757e-05
1.58499e-05
2.53772e-05
-3.48114e-05
-5.91102e-07
4.20789e-05
-6.67806e-06
-1.09323e-05
4.03173e-05
-4.15053e-05
1.21199e-05
-2.66765e-05
2.19306e-05
-9.95256e-06
1.46984e-05
3.45688e-07
2.03289e-05
-2.27347e-05
2.05999e-06
-3.63521e-05
7.98547e-06
2.39016e-05
4.46439e-06
2.57025e-06
5.08569e-05
-1.90381e-05
-3.43885e-05
2.11568e-06
-3.93625e-06
-2.55771e-05
-1.34531e-05
1.08771e-05
2.05062e-05
-1.28983e-06
3.36606e-06
-2.25824e-05
-1.90318e-06
-4.37645e-06
5.52373e-06
7.55605e-07
1.31896e-05
-4.00361e-06
-9.38497e-06
1.99073e-07
1.29767e-05
-4.39999e-05
4.20932e-05
-1.10709e-05
-1.6691e-05
2.93982e-05
4.43105e-06
-1.71377e-05
-3.53014e-06
4.31841e-06
2.7764e-05
-2.85521e-05
-3.70655e-05
2.7905e-06
3.57018e-07
3.39184e-05
-2.0517e-05
2.39638e-06
1.65653e-05
1.55555e-06
-2.86513e-05
1.78442e-05
4.093e-05
-3.01237e-05
-1.39084e-05
-2.58249e-05
6.96091e-06
3.27724e-05
5.76366e-06
-4.41682e-05
-5.6245e-06
4.40302e-05
-3.38594e-05
4.41211e-06
-1.3311e-06
3.07789e-05
-3.65229e-05
-2.71144e-06
-2.27963e-06
4.15138e-05
7.49685e-06
-4.24547e-06
3.93663e-05
-4.26191e-05
6.7074e-06
-3.81232e-06
-1.04359e-09
-2.89451e-06
5.05344e-06
-5.21912e-05
-8.27941e-06
5.5417e-05
-3.8435e-06
2.4369e-06
1.97385e-06
-5.67673e-07
-2.87892e-05
-7.55633e-06
1.58112e-05
2.05343e-05
-1.36336e-06
1.34034e-05
2.51792e-06
-1.45577e-05
-1.3101e-05
-1.41973e-05
9.30762e-06
-6.06817e-06
2.43806e-06
3.13438e-05
-2.77145e-05