/*--------------------------------*- C++ -*----------------------------------*\
| =========                 |                                                 |
| \\      /  F ield         | OpenFOAM: The Open Source CFD Toolbox           |
|  \\    /   O peration     | Version:  2406                                  |
|   \\  /    A nd           | Website:  www.openfoam.com                      |
|    \\/     M anipulation  |                                                 |
\*---------------------------------------------------------------------------*/
FoamFile
{
    version     2.0;
    format      ascii;
    arch        "LSB;label=32;scalar=64";
    class       volVectorField;
    location    "60";
    object      U;
}
// * * * * * * * * * * * * * * * * * * * * * * * * * * * * * * * * * * * * * //

dimensions      [0 1 -1 0 0 0 0];

internalField   nonuniform List<vector> 
59516
(
(0.103263 -0.00112163 -0.000525891)
(0.0946327 -0.000106338 -0.000380183)
(0.110265 -0.000586403 -0.000471723)
(0.127217 0.00123196 0.00183458)
(0.113667 0.000209576 -0.00456214)
(0.101091 -0.00483052 -0.0107984)
(0.126894 -0.00211897 -0.00227465)
(0.0987718 0.000623186 -0.000110219)
(0.109661 0.000902116 -5.02483e-05)
(0.0512294 -0.00101795 0.00200501)
(0.154067 -0.00034685 -0.00250603)
(0.0597095 0.000195383 -0.00374649)
(0.116202 0.0011702 3.40757e-05)
(0.0189662 -0.00012031 -0.000175721)
(0.0573612 0.00137167 0.00317755)
(0.0494284 0.00343282 -0.00153184)
(0.170006 -0.00276268 -0.00130238)
(0.0700195 0.0040132 -0.00438615)
(0.114336 0.00611703 0.00062053)
(0.166343 -0.00179234 -0.000429314)
(0.053725 0.000930173 -0.00128792)
(0.14818 -0.000957549 0.000247912)
(0.154506 -0.00117213 -0.00274259)
(0.0315878 -0.000964713 -0.0002664)
(0.161403 -0.000628216 0.000336858)
(0.0623967 0.00143847 0.00060871)
(0.0394066 0.000792351 -0.00276468)
(0.0442247 0.0037867 0.000191616)
(0.0652551 0.00275631 -0.000617116)
(0.0162133 -0.00252686 0.000618596)
(0.10836 -0.0210404 -0.0046394)
(0.0455219 0.00367264 -0.000576433)
(0.131483 0.000123742 0.000804251)
(0.109895 -0.000975166 0.00201088)
(0.139491 0.00551393 0.00397246)
(0.145971 0.000308038 -0.000505842)
(0.0156625 -0.00152776 -0.00217899)
(0.0699195 0.00268299 -0.00676696)
(0.0949648 -0.00389155 -0.000393251)
(0.160726 0.000186564 -0.000770582)
(0.0981896 -0.000558325 0.000232881)
(0.144049 -0.00858299 -0.00799028)
(0.148438 -0.00419494 -0.0034904)
(0.103759 -0.000666677 0.000316831)
(0.142546 -0.00556409 -0.000491195)
(0.0523724 -0.000720707 -0.00120769)
(0.132244 -0.00305899 -0.00458674)
(0.163688 -0.00530441 -0.00107671)
(0.111885 -0.00899772 0.0123867)
(0.151212 0.00692742 0.00540466)
(0.104055 0.0104762 -0.0145206)
(0.041293 -0.00361013 0.00247175)
(0.117267 0.00103521 -0.00229176)
(0.124645 -0.000563344 0.000138022)
(0.0471538 0.00302783 -2.16732e-05)
(0.129519 0.00311253 -0.000956216)
(0.144979 0.00833696 0.00856064)
(0.0436869 0.00382167 -0.00267278)
(0.177789 0.000115804 -0.000300387)
(0.135268 0.00648259 0.00813425)
(0.149441 -0.000558012 4.41612e-05)
(0.0178049 0.00224842 -0.000778038)
(0.170772 0.000409519 0.00082339)
(0.167307 0.00292204 0.0022847)
(0.118805 0.000256281 -0.000781744)
(0.1477 0.00395593 0.0056702)
(0.0240389 -0.00163489 0.00220557)
(0.0387292 0.000254944 -0.000231638)
(0.121532 -0.00505383 0.0222381)
(0.1355 0.00126379 -0.00360094)
(0.0343718 0.000940378 0.000284585)
(0.164429 0.00274437 -0.000344675)
(0.0214746 0.00134258 -0.00326961)
(0.142724 0.00174762 0.000774339)
(0.187347 -0.000239297 -0.000533076)
(0.158222 -0.00272036 -0.00337434)
(0.164427 -0.00285284 -0.00420206)
(0.148653 -0.000294308 0.00041121)
(0.0429628 -0.00142127 0.00135536)
(0.15188 0.00314912 0.00805522)
(0.0355754 0.00218974 0.00105616)
(0.146988 0.00424143 0.00638581)
(0.139785 0.00191464 0.00615351)
(0.0185833 -0.000700157 0.00260583)
(0.146798 0.00335208 0.00670348)
(0.178531 -0.00117655 0.000195511)
(0.0305152 -0.00112096 0.00048798)
(0.149663 -0.000554175 -0.000426684)
(0.0517492 0.00065232 0.00202752)
(0.10711 0.00848102 -0.00582958)
(0.131514 -0.000880699 -0.0115342)
(0.139297 0.0014315 -0.000380431)
(0.176853 0.000488859 -0.000351668)
(0.137086 0.00098938 -0.000345255)
(0.164485 1.97599e-05 -2.23419e-05)
(0.109927 -0.0105317 0.00393458)
(0.139719 -0.000308268 0.000404761)
(0.0503838 -0.00187289 -0.00400783)
(0.0643253 0.00244221 -0.00106397)
(0.148352 -0.000779156 0.00178189)
(0.0354108 0.00053953 0.0013457)
(0.0226763 0.00118369 -0.00256555)
(0.0214456 0.000760136 0.00294022)
(0.0513199 -0.000772248 -0.00283465)
(0.13392 0.000806899 -0.000209899)
(0.148257 -0.000503404 -0.00045928)
(0.0371509 0.00327718 -0.00135435)
(0.102001 0.000292462 -0.000812329)
(0.097936 -0.00067424 0.000240105)
(0.0626442 0.000388451 -0.00252053)
(0.124957 0.0129355 -0.013575)
(0.0287057 0.00291774 -0.000477671)
(0.0634066 0.000819033 -0.00399203)
(0.118044 0.0174337 -0.0087504)
(0.161361 -4.59792e-05 0.000133545)
(0.0970034 0.00108557 0.00117239)
(0.0512783 0.000588695 -0.00190468)
(0.132072 -9.94636e-05 0.000705664)
(0.0204329 -0.000300161 0.000987693)
(0.147052 0.00111855 0.000334538)
(0.192169 -5.76649e-05 0.000168497)
(0.172392 -0.000322595 0.000668018)
(0.158911 -9.75674e-05 0.000864377)
(0.170948 -0.000328947 0.000403211)
(0.132406 -0.0178503 0.00273313)
(0.0897797 0.00131138 -0.00307267)
(0.0277803 -0.000537706 0.00181327)
(0.138363 -0.0138076 -0.00116594)
(0.0898404 -0.00275544 0.0131419)
(0.185031 0.000282364 -0.000165056)
(0.189128 0.000171119 -8.23789e-05)
(0.110096 0.00173167 0.00189659)
(0.0217059 0.00130065 -0.0014866)
(0.147643 -0.000382122 0.000414121)
(0.0989866 0.00110256 0.00028622)
(0.113051 -0.000590294 -0.00217686)
(0.107483 0.0128276 -0.0089749)
(0.127877 -0.000378725 0.000326965)
(0.0369479 0.00256817 0.000125602)
(0.0965632 0.000601657 -0.00129453)
(0.0412265 -0.000813067 -0.00212225)
(0.189954 -0.000492414 0.000191024)
(0.0173848 0.000732862 0.00151515)
(0.123563 -0.000947392 -0.000656289)
(0.17965 0.000569677 0.00137794)
(0.141797 0.00228286 0.000570843)
(0.140273 -0.00561689 -0.00217424)
(0.117015 0.00193738 -0.00317326)
(0.0621278 -0.00100505 0.00173114)
(0.104698 -0.000531899 -0.00098015)
(0.101397 -0.000495228 -0.000851138)
(0.0324274 -0.00125105 1.36331e-05)
(0.168955 -0.000912341 0.00106804)
(0.154549 -7.92968e-05 2.14568e-05)
(0.0868328 -6.67276e-05 0.00219368)
(0.0172854 -0.000317258 0.00185764)
(0.11075 -0.000475829 -0.000246903)
(0.111821 0.0017142 -7.68565e-05)
(0.0804519 0.00136528 0.00029781)
(0.017729 0.00211277 -0.00230924)
(0.0618957 0.00159514 -0.00309572)
(0.0638004 -0.00344256 -0.00210122)
(0.0323903 -0.00131297 0.000316632)
(0.0231658 -0.000198709 -0.000447569)
(0.0966377 0.00181738 0.00238587)
(0.177163 -0.000247897 0.00103488)
(0.0583702 -0.00079473 0.000405002)
(0.182643 0.00122908 -9.71267e-05)
(0.0184857 -0.00116729 0.00209734)
(0.136511 -0.000560764 -0.000266193)
(0.0811838 0.00142567 0.00116922)
(0.0490081 0.000788703 -0.000748657)
(0.060342 0.00159277 0.000735467)
(0.135744 -0.000115776 0.000529951)
(0.0468215 -0.000688527 0.000207463)
(0.13486 -0.00169605 -0.0055951)
(0.172885 -0.000374136 -0.000873141)
(0.149526 -0.00591151 -0.00373573)
(0.063761 -0.000754473 0.00295854)
(0.0378395 -0.000108028 -0.000525505)
(0.146003 0.0025156 0.000598668)
(0.0309174 -0.00275883 -0.00127585)
(0.026405 -0.0003117 -0.00206928)
(0.0606677 -0.00148485 0.000181428)
(0.183972 0.000525799 0.000771241)
(0.055625 0.000307482 0.000674205)
(0.0328342 -0.00050443 -0.00257593)
(0.0211066 1.57553e-05 0.000287913)
(0.119757 0.000323639 -5.38371e-05)
(0.0969998 -0.00170463 -0.000118986)
(0.135294 -0.000470612 0.00267055)
(0.048401 0.00297943 -6.71597e-05)
(0.165515 -0.00138552 5.98407e-05)
(0.0531408 0.00190503 8.29692e-05)
(0.154677 -0.000207489 -0.000800914)
(0.0274662 -0.000239716 0.000757207)
(0.0531872 0.000744432 -4.16484e-05)
(0.0374948 -0.00107638 0.000270837)
(0.106438 0.0029161 0.00350792)
(0.154805 0.000657234 -0.000619909)
(0.0774894 -0.00274159 0.000254188)
(0.191562 -0.000452002 0.000208673)
(0.09925 -0.000801857 0.000794315)
(0.017881 0.001932 -0.00133316)
(0.125577 -0.000838718 -0.00054432)
(0.145079 0.000502413 0.000316226)
(0.186214 0.000438767 -0.000316139)
(0.155563 -0.00155708 -0.000842319)
(0.0212045 -0.000695681 0.000201585)
(0.111156 -0.00206346 -0.000131687)
(0.0471406 0.00333393 0.00299586)
(0.0235614 -0.00388552 -0.000643289)
(0.143091 0.000133002 -0.00151181)
(0.0520078 -0.00114613 0.00071082)
(0.113186 0.00154382 6.16543e-05)
(0.173661 0.000107088 -0.00040722)
(0.139746 0.00164654 0.000655441)
(0.157885 -0.00146598 0.000471758)
(0.0505308 0.00203815 -0.00272357)
(0.157442 -0.000112784 0.000798813)
(0.0514561 0.00195392 0.0018636)
(0.102431 0.000430266 0.000213525)
(0.167326 0.000750226 0.000996417)
(0.0360941 -0.000154341 0.000590875)
(0.172893 0.000115902 -0.000437877)
(0.175221 -0.000318368 -0.000449303)
(0.0261515 -0.000309597 0.00132426)
(0.0434511 0.00139825 -0.00205688)
(0.173956 0.000548516 0.000715511)
(0.0508393 0.000259702 -0.00389654)
(0.175387 -0.000616388 -4.85826e-05)
(0.176041 0.000293728 -0.000416486)
(0.189267 0.000617903 0.00071063)
(0.0229571 -0.0017843 -0.00129773)
(0.0302332 0.000813251 -0.00143999)
(0.0315009 0.000868191 -0.00114305)
(0.059431 0.000379137 -6.51852e-07)
(0.0931038 -0.00112189 0.000648854)
(0.158134 0.00107496 0.00132393)
(0.0535992 -0.0011967 0.00150247)
(0.19112 -0.000245194 0.000506045)
(0.0187568 0.000331072 0.00277551)
(0.0509321 4.29538e-05 0.000880139)
(0.0227074 0.000121934 0.00252242)
(0.186838 0.000538339 0.000595773)
(0.0887165 -0.000566648 -0.000117156)
(0.146167 0.000284188 0.00121448)
(0.0616765 0.0010317 -0.00139587)
(0.17168 0.000200701 -0.000695962)
(0.1016 0.000422698 0.0005267)
(0.167502 0.000219282 0.000106671)
(0.140199 -9.47402e-05 0.000750218)
(0.192364 0.000425639 0.00072658)
(0.144836 0.000904739 -0.000982448)
(0.147369 0.00117032 0.00122533)
(0.15942 -0.000102858 0.0010764)
(0.0521347 2.0742e-05 -0.000251766)
(0.154666 0.00104765 0.00192645)
(0.0388652 -0.000412662 -0.00215799)
(0.0562663 0.00044053 0.0019548)
(0.128415 0.000853537 -0.00107341)
(0.164066 -0.0002892 0.000288216)
(0.112251 0.00325657 0.00159843)
(0.180654 0.000323416 0.000316847)
(0.0950771 0.000188691 0.00207067)
(0.0542215 0.00207015 -0.001514)
(0.161588 -0.000205019 -0.00143809)
(0.0892175 0.00196725 0.000480074)
(0.0430823 -0.000733058 -0.000702175)
(0.0486549 0.000282796 -0.00141267)
(0.0955907 0.00110206 -0.00338098)
(0.176389 -7.73588e-05 -0.000247656)
(0.095149 -0.00246688 4.73659e-05)
(0.0891324 -0.00153313 0.000897857)
(0.167304 -0.00103707 -0.000631806)
(0.0889574 -0.000604531 0.00227996)
(0.0194765 0.00234403 -0.00131511)
(0.163337 0.000377636 0.000733733)
(0.0235945 0.00151528 -0.00204184)
(0.0377661 -0.00154958 0.00106653)
(0.187696 0.000576682 0.000959084)
(0.138484 0.000286661 -0.000388022)
(0.0234554 0.00251344 0.00250004)
(0.118463 0.000830891 0.000501141)
(0.121826 0.00249527 -8.30682e-05)
(0.168688 -0.00167985 0.00213465)
(0.186688 -0.000417901 0.000278227)
(0.0223552 0.00265462 0.000465927)
(0.186329 0.000637075 0.000331395)
(0.192266 0.000129007 2.83449e-05)
(0.177688 0.000198078 0.000695797)
(0.134291 0.000894817 0.000801063)
(0.137285 0.000776047 0.000622233)
(0.0923019 0.000532138 -0.000172447)
(0.174461 0.000671225 0.000266375)
(0.0262608 -0.000946684 -0.00121094)
(0.16302 -0.000172498 0.000486499)
(0.138884 -0.000278766 -0.000639333)
(0.191106 0.000343553 0.000208106)
(0.173343 0.00100227 0.0007227)
(0.11483 -0.000408353 0.000628834)
(0.0559306 0.000896249 0.00124483)
(0.0214164 -0.0003319 0.00148151)
(0.026454 -0.000643682 0.000429198)
(0.164881 -0.00108436 -0.0010379)
(0.0189567 -0.00110049 0.00273059)
(0.060655 -0.000329703 -0.00108139)
(0.0493729 0.00275797 0.0010812)
(0.171229 0.000863995 0.000851662)
(0.178244 -0.00046055 -0.00029676)
(0.155316 -2.79977e-05 -0.000967294)
(0.0561361 0.000141124 -0.00129443)
(0.100525 0.00167223 -0.00244592)
(0.0376425 -0.00316546 0.00254248)
(0.053874 0.00131243 0.00106143)
(0.160075 0.000910286 -6.55216e-06)
(0.0951323 0.000975997 -0.000916401)
(0.107732 0.0123446 0.00350219)
(0.0877639 -0.00193201 0.000903879)
(0.040349 -0.00015607 -0.000375977)
(0.0610388 -0.000894785 0.00198278)
(0.105724 -0.000990821 -0.00163221)
(0.180828 -4.59433e-05 -0.000469199)
(0.189999 -0.00090334 0.000903699)
(0.191292 0.0003536 0.00111628)
(0.16339 -0.00140486 0.000394654)
(0.0969346 0.00386049 0.00463367)
(0.125282 0.000626627 0.000874979)
(0.170133 0.000694691 0.000993198)
(0.162875 -0.000814029 0.00010314)
(0.165845 -0.000938142 0.000788766)
(0.0544664 0.00111006 -0.00332877)
(0.0209326 -0.00140983 -0.00244883)
(0.150965 -0.00140766 0.000213475)
(0.0371122 -0.00182867 0.00204655)
(0.0296306 7.84651e-05 4.3965e-05)
(0.163703 0.000506707 0.00187254)
(0.14512 -1.91632e-05 0.000372971)
(0.0595966 -0.00126038 -0.00303945)
(0.17807 -0.000636628 0.000318849)
(0.168988 -0.00070587 0.000431582)
(0.189608 -0.000309502 -0.000462441)
(0.178616 -0.00128872 -0.000420992)
(0.030758 0.00149013 6.79023e-05)
(0.160714 -0.00037895 7.87638e-05)
(0.183029 -0.00065928 0.000524949)
(0.0547477 0.000147279 0.00082969)
(0.188354 -2.05019e-06 0.0010049)
(0.180838 -0.000121105 0.000273343)
(0.130005 -5.35043e-05 -0.000897567)
(0.121354 0.000282145 -0.00102078)
(0.15321 -0.00117125 0.00166602)
(0.142932 -0.00114193 0.000237215)
(0.0669471 -0.000351306 -0.000111502)
(0.0298912 0.0012619 -0.000967083)
(0.0328846 -0.00246503 -0.000157653)
(0.0916795 0.000444985 -0.000353194)
(0.0862542 -0.00679224 0.0106291)
(0.0746065 -0.00420279 -0.00608631)
(0.079977 0.000399151 0.000418305)
(0.112329 8.89674e-05 0.00200591)
(0.130572 7.56865e-05 0.00112605)
(0.159642 -0.00165675 0.00421198)
(0.157854 -0.000900941 0.000907667)
(0.130579 -0.000900199 -0.000527428)
(0.149358 -8.59103e-05 0.000560039)
(0.150086 0.000852585 0.000304182)
(0.0295127 -0.000930256 -0.000342201)
(0.113928 -0.0224684 0.00276197)
(0.0554035 0.00139202 0.000436232)
(0.0387499 -0.00171016 -0.00039181)
(0.0391444 0.000860691 0.000312353)
(0.163685 -0.00060804 -0.000491057)
(0.0911909 -0.000570454 -1.29705e-05)
(0.162261 0.00057982 -0.0012352)
(0.0185455 0.000991647 -0.00159141)
(0.124628 -0.000339402 0.000331099)
(0.0418956 0.000977919 -0.000825838)
(0.168264 -0.000170371 -6.48879e-05)
(0.0452119 -0.000622407 -0.000489278)
(0.0594465 -0.00137647 0.00105991)
(0.102592 -0.002789 0.000736929)
(0.151961 -0.00123935 0.00106077)
(0.0182301 0.00142238 -0.00197676)
(0.0517975 -0.000573461 0.00210103)
(0.131954 -0.000197765 0.000532001)
(0.0217028 -0.00134968 -0.00176412)
(0.130871 0.00131664 0.00954976)
(0.113573 -0.000831965 0.00260985)
(0.130426 -0.000637994 -0.00210575)
(0.0916992 0.00202036 -0.00291091)
(0.085155 -0.00124322 0.00208959)
(0.164004 0.000431454 0.000288684)
(0.0771912 -0.00791662 -0.00718771)
(0.18995 8.80822e-05 1.27861e-05)
(0.111391 0.00865501 0.00902862)
(0.0566736 -0.0026348 0.000344573)
(0.0598963 -0.000457831 -0.00136762)
(0.185481 -8.67836e-05 0.000313427)
(0.184405 0.000138415 0.00033746)
(0.0497703 -0.000502231 0.000603551)
(0.131488 0.000320579 -0.00061467)
(0.0943548 -0.000452508 -0.00220431)
(0.186677 0.000312092 0.000412262)
(0.185815 -0.000259222 0.00095338)
(0.0429578 0.00127212 -0.00329104)
(0.131043 -0.00112923 0.000229938)
(0.145412 -0.00181957 0.00170525)
(0.147989 0.000638284 -0.00071795)
(0.1577 0.000822581 0.000531671)
(0.0201545 -0.000697329 -0.00252949)
(0.0197782 0.000974306 -0.00247533)
(0.125174 0.0011344 -0.00163151)
(0.180989 -7.82538e-05 -0.000154483)
(0.188175 -0.00120312 -0.000715853)
(0.0323695 0.000343772 -0.00243597)
(0.173088 -0.00164246 0.000200941)
(0.103842 -0.00103736 -0.000904408)
(0.181567 -9.04503e-05 -0.000175521)
(0.181795 -0.000365479 0.00118612)
(0.188171 -0.000225265 -0.000548191)
(0.177901 0.000681919 0.000716613)
(0.176372 0.0016326 0.000450197)
(0.0853397 0.000535597 0.000299377)
(0.185408 0.00061237 -0.000221547)
(0.0533139 -0.000994096 -0.00253345)
(0.17054 3.73224e-05 -0.000589986)
(0.106169 -0.000363779 -0.00105799)
(0.154674 0.000387632 0.0010457)
(0.180572 0.000115824 -0.00027149)
(0.148958 -0.000429484 0.000112473)
(0.145237 0.000114239 -0.00142367)
(0.0378658 0.00216777 0.0020495)
(0.0317648 0.000840305 0.000229075)
(0.0196778 0.00170734 -0.00193924)
(0.153352 0.00425989 0.00758896)
(0.1943 -0.000185636 -0.00024448)
(0.139422 -0.000653221 0.000667812)
(0.12438 0.000878574 6.09419e-05)
(0.028823 -0.000108114 0.00110099)
(0.0220816 -0.000344659 0.00253382)
(0.111373 -0.000657406 0.00164947)
(0.154328 9.14131e-05 0.00143002)
(0.181112 -0.000274061 0.000690139)
(0.155128 0.000550226 0.000294271)
(0.133743 -0.00115928 -0.000667907)
(0.194 -2.45588e-05 0.000291555)
(0.132961 0.000671657 0.00108021)
(0.0246903 -0.000480427 0.00231064)
(0.120458 -0.000195823 0.00091179)
(0.0541822 0.000503579 0.00283795)
(0.0704807 -0.00704428 0.00151085)
(0.155724 0.000452662 0.000553718)
(0.0898598 0.000576555 -0.000148452)
(0.146743 -0.000116093 0.000243461)
(0.0190757 -0.00361032 -0.00129654)
(0.185193 0.000197326 -0.000602604)
(0.18668 -0.000256894 2.52778e-06)
(0.183728 -6.39621e-06 0.000750382)
(0.0881372 0.000884288 5.1692e-05)
(0.154487 -0.000961521 0.00176638)
(0.178248 0.000181324 0.000400891)
(0.119165 0.000464835 0.000290646)
(0.189156 0.000344488 0.000208584)
(0.0976133 0.0040849 -0.00343884)
(0.174862 0.000149892 -0.000377391)
(0.148849 -0.00291401 -0.000374408)
(0.0191585 -0.00121615 0.00138449)
(0.184795 0.000433388 0.000168818)
(0.114566 0.00231934 0.000102961)
(0.0432987 -0.00126239 0.003611)
(0.0878714 0.000865888 -0.00154676)
(0.171039 0.000325696 -8.6791e-05)
(0.126498 -0.000402395 0.00119082)
(0.0806558 0.000236353 -0.00226685)
(0.0189316 -0.0017264 -0.00186462)
(0.17908 0.000295611 -0.000269173)
(0.122499 0.00170534 -0.00185257)
(0.162895 -0.000410146 -0.000630267)
(0.121902 -2.9008e-05 0.000790022)
(0.0343751 0.00158919 0.00150845)
(0.140635 -7.17219e-06 -0.000221346)
(0.0257094 0.00207803 -0.00331942)
(0.165424 0.000195586 -0.000791891)
(0.102281 0.0113987 -0.00365066)
(0.172199 -0.00155192 -0.000716522)
(0.0483192 4.32476e-05 0.00171852)
(0.102759 -0.00115973 -0.00162788)
(0.0916422 4.47429e-05 -0.00118351)
(0.0324219 0.00181258 0.00168773)
(0.192011 0.000140723 -8.40977e-05)
(0.177916 -0.000415235 0.000467802)
(0.0202039 0.000689443 0.00197523)
(0.165047 0.000473639 0.000353045)
(0.191208 0.000478562 0.000569723)
(0.0345772 -8.52306e-05 -0.00212407)
(0.0581124 0.00256383 -0.000110295)
(0.0505252 0.0018896 0.00131287)
(0.155396 -0.00037042 0.000718208)
(0.185896 -0.000325919 0.000520754)
(0.0324125 -0.000869691 0.00148539)
(0.0502162 -0.00168332 -0.000532606)
(0.0530995 0.00104709 -8.42215e-05)
(0.112231 0.00157907 0.000467994)
(0.188101 -4.05568e-05 0.00066663)
(0.0216809 0.00119031 -0.00281919)
(0.160764 -0.000568255 0.000750716)
(0.15195 0.00403178 -0.000852819)
(0.185919 -0.000419761 0.000867523)
(0.0900998 0.00386712 -0.00372738)
(0.171153 9.98004e-05 0.00031301)
(0.0210429 -0.000286219 -0.00229353)
(0.165805 -0.00134581 -0.000663004)
(0.0252443 -0.000363376 -4.83592e-05)
(0.0584725 -0.00157087 0.000865967)
(0.154992 -0.00123835 7.60443e-05)
(0.056841 -0.00170462 -0.000578447)
(0.0188615 0.00220024 0.00195074)
(0.034128 0.000686181 -0.00107212)
(0.0420429 -0.00229191 0.00159391)
(0.0551597 0.00112012 -0.00159911)
(0.145849 0.000134702 -0.00101405)
(0.0470182 -0.00109255 7.56129e-05)
(0.0557309 0.00181368 -0.000932023)
(0.128245 -0.00714328 -0.0138125)
(0.174676 9.29954e-05 0.000311712)
(0.0221463 0.00142195 0.000261604)
(0.103907 0.000363798 -0.00113334)
(0.0812666 0.008873 -0.00350994)
(0.175843 4.7294e-05 -0.000356178)
(0.0554552 -6.47507e-05 -0.00140135)
(0.170135 6.47083e-05 0.00106812)
(0.0538319 -0.00217992 -0.00163854)
(0.120814 0.000816196 0.000577654)
(0.182536 -0.000329651 -0.00108788)
(0.0473881 0.00204448 -0.004258)
(0.180198 0.000140993 -0.000244895)
(0.0474995 0.0022565 0.00240255)
(0.0175706 0.00267223 0.000998409)
(0.146263 0.000764178 -0.000494677)
(0.186055 -0.000386909 -0.000102794)
(0.127578 0.00105181 -0.00049977)
(0.122738 0.00163832 -0.000885658)
(0.185176 -0.000802748 -9.21299e-05)
(0.0570708 0.00171075 -0.000268542)
(0.171205 -0.000717813 0.000303754)
(0.0536899 -0.00176448 0.00225304)
(0.179567 0.000138879 3.36082e-05)
(0.12382 -0.00132092 -0.00137712)
(0.0258591 0.000669625 -0.00358424)
(0.154599 0.000885091 -0.000999019)
(0.0485911 3.64916e-05 0.0015416)
(0.0240137 -0.00169576 -0.0018147)
(0.147752 -0.00149628 -0.000480732)
(0.0401331 -0.00115875 0.00102764)
(0.1369 -0.000115933 5.133e-06)
(0.186773 -0.00045313 0.000855609)
(0.129755 0.00021523 0.000119843)
(0.0505156 -0.00227704 -0.00248029)
(0.185079 0.000718494 0.000430317)
(0.0860647 -0.00132795 0.00128862)
(0.192736 0.000115092 6.42751e-05)
(0.18624 -0.00012937 0.000481767)
(0.18709 -0.000480661 0.00110873)
(0.185299 -0.00063323 -0.000628066)
(0.0409643 -0.00231664 -0.00197882)
(0.0482674 0.000316333 -0.000397509)
(0.183365 -0.000792217 -0.000372213)
(0.163883 5.13658e-05 0.00169921)
(0.0291364 -0.00214779 -0.000959401)
(0.164043 -0.000276037 0.000710506)
(0.186363 0.000113062 0.000412455)
(0.181573 -0.000220497 -0.000334503)
(0.187926 -0.000524911 -0.000234611)
(0.112722 0.000174534 -0.00189874)
(0.0196906 0.00201208 0.001702)
(0.182286 0.000484684 -0.000150397)
(0.0965968 -0.000870162 -0.00110755)
(0.152897 0.00124578 0.000726698)
(0.092096 0.00035892 -0.000182413)
(0.0267413 0.00188899 -7.72386e-05)
(0.18867 -0.000130761 0.000408404)
(0.0876289 0.00236073 0.00242229)
(0.13107 0.000195082 0.000216339)
(0.191382 -0.000156855 -4.51143e-05)
(0.14035 -0.00164087 3.5039e-07)
(0.0158571 0.00147828 -0.00184993)
(0.0201447 -0.00126447 -0.00195671)
(0.182177 0.000736265 0.000199033)
(0.172628 -0.00105937 -0.000993141)
(0.192068 -7.02663e-05 0.00121779)
(0.154134 -0.000598633 0.00127085)
(0.0881995 -0.00138164 0.000593589)
(0.149418 -0.00102586 -0.000596257)
(0.181035 0.000267659 0.0010078)
(0.0184843 0.00164143 0.000401755)
(0.184937 0.000815708 0.000508573)
(0.135028 -0.0151603 -0.000457198)
(0.0342057 -0.000569634 0.00184906)
(0.0513001 -0.00327541 0.00081562)
(0.143286 5.36895e-05 -0.000963836)
(0.139569 -0.00146958 0.0010276)
(0.136338 0.000373525 -0.000256984)
(0.12081 -0.00060489 0.000663316)
(0.100561 -0.00342729 0.00114663)
(0.190911 -9.23813e-05 0.000539693)
(0.0939312 0.000887001 -0.00297517)
(0.180356 0.000311416 -0.000203982)
(0.17597 0.000891399 6.76843e-05)
(0.192419 8.92749e-05 0.000221343)
(0.180684 -1.15312e-05 0.000152669)
(0.0367799 -0.000288672 0.00183667)
(0.166555 0.00010308 -1.28175e-05)
(0.0297282 0.000940057 -0.00120936)
(0.0944319 -0.00919528 0.00542694)
(0.0558977 0.00187031 0.00149475)
(0.127243 -0.00253085 -0.0130794)
(0.128226 -0.000608837 -0.000791598)
(0.117475 -0.0190748 -0.00425035)
(0.175345 0.000392808 -0.000550157)
(0.179763 -0.000642821 -0.000206348)
(0.155087 0.00174496 -6.42465e-07)
(0.17603 -0.000352439 0.000311947)
(0.0304921 0.000267368 -0.000572649)
(0.100941 -0.00378627 -0.00254048)
(0.112495 -0.00209686 -0.0160138)
(0.182844 0.000190705 0.000210082)
(0.108294 -0.00218507 -0.00064306)
(0.136953 -0.0135765 -0.00479031)
(0.157272 -0.00401224 0.00454431)
(0.107206 0.000834483 0.00095218)
(0.0320941 -0.000637998 0.00118198)
(0.0499313 -0.00246051 0.00134892)
(0.0221153 0.00010363 -0.000203223)
(0.020875 0.000171405 -0.00159301)
(0.0314077 -5.86048e-05 0.00014147)
(0.133626 -0.0097408 0.00555852)
(0.137729 -0.000693784 0.00082946)
(0.0211974 -0.000763344 0.0029403)
(0.0201324 0.00143982 0.00221248)
(0.19342 5.39549e-05 -0.000254935)
(0.096144 -0.0126294 0.00858178)
(0.033832 0.00146061 0.000514456)
(0.147427 0.000174482 -0.000677978)
(0.101597 -0.00117467 -0.00135887)
(0.132311 0.000269006 0.00125139)
(0.0379794 0.00198211 -0.00106568)
(0.0504664 0.00156431 -0.000608202)
(0.107584 -0.0012402 1.91015e-05)
(0.174035 -6.27261e-05 -0.000943327)
(0.152746 -0.000231888 -0.000723355)
(0.0320488 0.0026658 -0.000902113)
(0.0216016 -0.00168719 0.00100773)
(0.106235 -0.0151802 -0.0112672)
(0.023075 -0.00300568 0.00017015)
(0.132737 -0.000679161 -0.0010311)
(0.0241651 0.00135226 -0.00298431)
(0.100178 -0.000508241 0.00210011)
(0.18215 -0.00131592 0.000193774)
(0.180928 -0.0003485 0.00114163)
(0.0394925 0.000596477 -0.000723984)
(0.094114 -0.000197188 -0.00104165)
(0.0319264 0.00117057 -0.00135979)
(0.0250837 0.00296976 -0.00106549)
(0.183374 -0.000719858 -0.000442296)
(0.0169674 -0.00144374 -0.00216881)
(0.169165 -0.000393972 -0.000508486)
(0.0434032 0.00103446 -0.00205559)
(0.156259 -0.00136175 -0.00023907)
(0.140426 -0.000820942 -0.000156364)
(0.0194932 -0.000512546 0.00309813)
(0.0521883 -0.00261287 0.000276317)
(0.148699 0.000577864 0.000642323)
(0.0308007 -0.00151056 3.79713e-05)
(0.162536 0.000430392 -0.000529126)
(0.0492776 -0.00197873 0.00306444)
(0.10397 0.000192446 1.58313e-05)
(0.187575 -0.00032802 0.000135914)
(0.0326789 0.000976623 0.000659773)
(0.0211825 0.000904843 -0.00272411)
(0.045676 0.000921618 -0.000393864)
(0.110797 0.0173788 0.0037338)
(0.0999047 0.000362181 0.000478708)
(0.0511516 -0.00242696 0.00246684)
(0.0798436 0.000357658 0.00106459)
(0.0272356 -0.00103271 0.000632818)
(0.189175 -0.000536502 -0.00016489)
(0.0210902 -0.000341986 -0.00163789)
(0.171701 -0.00036546 -0.000801262)
(0.143725 0.000275895 5.64784e-05)
(0.170494 0.000316062 -0.000606426)
(0.0173325 0.00170942 4.736e-05)
(0.151257 0.000390432 0.000422552)
(0.0790504 0.00101653 0.000346096)
(0.158782 -0.000111276 8.79024e-05)
(0.0497595 -0.000584563 -0.000218453)
(0.108167 -0.0130026 0.00668516)
(0.160431 -0.00116309 -0.000571132)
(0.0356701 0.000403633 -0.00043527)
(0.19394 -7.45481e-05 0.000464396)
(0.108871 0.00201351 -0.0204975)
(0.115207 0.000341133 -0.000784511)
(0.0295468 0.000769303 -0.00162639)
(0.0456586 -0.000448085 -0.00251462)
(0.186674 -0.000345165 -0.000121876)
(0.130165 0.00127343 0.000726044)
(0.0287206 0.00145577 0.000596106)
(0.106605 0.00145535 -0.00165816)
(0.0560049 -0.000442284 -0.0017166)
(0.0218444 -0.00188808 0.00129953)
(0.182963 -5.29787e-05 -0.000433429)
(0.103344 -0.00127975 0.0100273)
(0.128384 0.00138124 -0.00187365)
(0.176275 -0.00061498 -5.77374e-05)
(0.18094 -0.000549089 0.000791805)
(0.172053 -0.000132368 4.62255e-05)
(0.130463 0.000806934 -0.000309998)
(0.0392484 0.0010062 0.000339709)
(0.0360403 -0.00173381 -0.00174302)
(0.185772 -0.000370789 0.000725949)
(0.107584 -0.00937924 0.0087185)
(0.118117 -0.000993049 0.000452713)
(0.125426 -0.00167985 0.000999865)
(0.0767409 0.001896 0.0008241)
(0.147916 -0.000346124 0.00160046)
(0.16497 -0.000712443 -0.000926666)
(0.0949379 -0.000255111 -0.00130265)
(0.0999501 0.00180137 0.000554933)
(0.0353687 0.0005437 -0.00228889)
(0.066976 0.000462129 -0.00030108)
(0.0387765 -0.000993046 -0.00289643)
(0.151786 -0.000966141 0.000927492)
(0.178166 -0.00051012 -0.000350878)
(0.0896417 0.00190925 -0.00206621)
(0.0946369 0.000773754 -0.000640184)
(0.0188369 0.0019321 -0.000389984)
(0.0745035 -0.000305215 -0.000694734)
(0.0533181 -0.00179616 -0.00227711)
(0.179233 7.88508e-05 -0.00102354)
(0.181987 -0.000822607 -0.00040545)
(0.104824 -0.00956066 0.00605076)
(0.164746 -0.000212941 0.00113524)
(0.0772767 -0.00225275 -0.00191033)
(0.101709 -0.00254875 0.00793869)
(0.130964 -0.00153199 0.00160877)
(0.0231529 -0.00176985 -0.000179507)
(0.182007 -0.000571159 0.000257114)
(0.0456677 0.0012829 -7.87894e-05)
(0.138555 -0.000198765 0.00135339)
(0.0253354 0.00361801 -0.000291706)
(0.177868 0.000113766 -0.000694398)
(0.101647 -0.00432543 0.00266141)
(0.158915 -0.000771727 -0.00019649)
(0.111712 0.000385951 0.000576149)
(0.146136 -0.000191845 0.00104001)
(0.149516 0.00135713 0.000406267)
(0.189805 0.000408018 0.000334446)
(0.0311838 -0.00192954 -1.18544e-05)
(0.0431415 0.000589114 -0.000919425)
(0.026 -0.000676351 -0.000209368)
(0.180843 -0.000470864 0.000794695)
(0.158297 0.000232599 -0.000363121)
(0.13487 0.0015972 -2.22388e-05)
(0.160437 0.000498288 -0.00144156)
(0.0189451 0.000349557 0.000495974)
(0.0940093 -0.000266993 -0.000219217)
(0.0848347 0.00100775 -0.00187811)
(0.179954 -0.000367358 -0.000608826)
(0.124304 -0.000906573 -0.000214061)
(0.145216 -5.72757e-05 -0.000555049)
(0.102311 -0.000353812 0.00128513)
(0.185396 -0.000241055 -0.000258078)
(0.0186719 -0.00215481 -0.0022636)
(0.0809492 -0.00331858 0.00043511)
(0.152851 -0.000506793 0.000609963)
(0.0233525 -0.00214783 0.00182539)
(0.0409883 -0.000785537 -0.00193516)
(0.057367 -0.000919832 0.000627013)
(0.0193659 0.0011924 -0.00204709)
(0.0905721 0.000471675 -0.00127856)
(0.171289 0.00018644 -0.000370661)
(0.0563034 -0.00160586 -0.00161947)
(0.0171671 -0.00222601 -0.00164972)
(0.100053 0.000357128 -0.000810898)
(0.0233947 0.00013652 0.000354241)
(0.0941995 0.00119651 -0.000637807)
(0.177407 8.35904e-05 0.000225708)
(0.192871 -7.70972e-06 2.84013e-05)
(0.176625 -0.000267254 6.32997e-05)
(0.165541 0.000851848 -1.8872e-05)
(0.178921 -0.000193307 0.000250217)
(0.127753 0.000373571 0.00227303)
(0.04272 0.000809624 -0.00110079)
(0.179594 0.000576441 0.000166857)
(0.120937 -0.000322137 0.000999562)
(0.0838581 0.000552474 -0.00166315)
(0.0922725 -0.000954617 0.00131476)
(0.165539 -0.000226081 0.000454591)
(0.111923 -0.00124716 -0.000714994)
(0.0609469 3.22399e-05 0.00160417)
(0.155139 0.000840573 0.001368)
(0.0303088 0.00113897 0.00052215)
(0.0828812 1.41291e-05 0.000606941)
(0.0920712 -0.000280721 0.000163512)
(0.0567274 0.000357712 0.000936606)
(0.161688 0.000104379 -0.000249226)
(0.106008 -0.0125978 0.013433)
(0.127223 0.00813141 0.00528361)
(0.0295019 0.000571721 -0.00257785)
(0.0239628 -0.00151183 0.000770632)
(0.052145 0.00197209 -0.00105278)
(0.0185221 -0.00118626 -0.00149136)
(0.124268 0.000524002 -0.000665962)
(0.1548 0.000663079 -0.00111153)
(0.126216 0.00171652 0.000384957)
(0.110211 0.0101138 -0.0115975)
(0.132414 -0.000205284 0.000229532)
(0.146916 0.000342873 -0.000836362)
(0.0228941 -0.00193852 0.00438376)
(0.158508 0.000759103 -0.00030981)
(0.127568 -0.00405958 0.0125078)
(0.0404219 0.000759241 -0.00104852)
(0.0199236 -0.00337654 0.000636423)
(0.111753 0.000405803 0.000434403)
(0.104683 -0.00145443 -0.000629946)
(0.0234332 -0.00162909 0.0026243)
(0.164138 -0.000624293 -0.000749806)