/*--------------------------------*- C++ -*----------------------------------*\
| =========                 |                                                 |
| \\      /  F ield         | OpenFOAM: The Open Source CFD Toolbox           |
|  \\    /   O peration     | Version:  2406                                  |
|   \\  /    A nd           | Website:  www.openfoam.com                      |
|    \\/     M anipulation  |                                                 |
\*---------------------------------------------------------------------------*/
FoamFile
{
    version     2.0;
    format      ascii;
    arch        "LSB;label=32;scalar=64";
    class       volVectorField;
    location    "60";
    object      U:Transformed;
}
// * * * * * * * * * * * * * * * * * * * * * * * * * * * * * * * * * * * * * //

dimensions      [0 1 -1 0 0 0 0];

internalField   nonuniform List<vector> 
59516
(
(-0.00104224 -0.000669586 0.103263)
(0.000327195 -0.000220886 0.0946327)
(-0.000497683 0.000564538 0.110265)
(-0.00216193 -0.00045767 0.127217)
(-0.00455699 0.000301363 0.113667)
(-0.010443 0.00555722 0.101091)
(-0.00265001 -0.00162526 0.126894)
(-0.00030516 -0.000554424 0.0987718)
(-0.000888813 0.000162326 0.109661)
(0.00197713 0.0010711 0.0512294)
(-0.00251651 -0.000260114 0.154067)
(-0.00301905 -0.00222703 0.0597095)
(-0.000900744 -0.000747793 0.116202)
(5.49772e-05 -0.000205742 0.0189662)
(0.000228494 -0.00345342 0.0573612)
(-0.00142644 0.00347793 0.0494284)
(-0.00300355 -0.000554343 0.170006)
(-0.00573042 -0.00158317 0.0700195)
(-0.00602941 -0.00120384 0.114336)
(-0.00175582 0.000560265 0.166343)
(-0.00144077 0.000669429 0.053725)
(0.000395623 0.000906555 0.14818)
(-0.00290295 -0.000684544 0.154506)
(0.000831092 0.000557607 0.0315878)
(-8.56597e-05 0.000707666 0.161403)
(-0.000159353 0.00155381 0.0623967)
(-0.000490233 0.0028339 0.0394066)
(-0.00349233 -0.0014763 0.0442247)
(-0.00268726 -0.000869892 0.0652551)
(0.00200989 0.00165168 0.0162133)
(-0.0215121 0.00120367 0.10836)
(-0.00294917 0.00226339 0.0455219)
(-0.000726062 -0.000367376 0.131483)
(-0.00192473 -0.00113579 0.109895)
(-0.00679585 -1.64223e-05 0.139491)
(-0.000572815 0.000150488 0.145971)
(-0.00235697 0.00123559 0.0156625)
(-0.00693777 -0.00220399 0.0699195)
(-0.003891 0.0003987 0.0949648)
(-6.30287e-05 0.000790336 0.160726)
(-5.81801e-05 -0.000602143 0.0981896)
(-0.0117265 -3.6764e-05 0.144049)
(-0.00536428 0.00100243 0.148438)
(-0.000648845 0.000351909 0.103759)
(-0.00554036 0.000710472 0.142546)
(0.00135541 0.000375227 0.0523724)
(-0.00551131 0.000145306 0.132244)
(-0.00537339 0.000650162 0.163688)
(-0.0152469 0.00138573 0.111885)
(-0.00878033 0.000324638 0.151212)
(-0.0178978 0.000519038 0.104055)
(-0.0039486 -0.00188445 0.041293)
(0.000384074 -0.00248522 0.117267)
(-0.000312049 0.000488909 0.124645)
(-0.00293134 0.000758613 0.0471538)
(-0.00320622 0.00056773 0.129519)
(-0.0119493 6.1951e-05 0.144979)
(-0.00436653 -0.00163777 0.0436869)
(-0.000315176 6.56302e-05 0.177789)
(-0.010396 -0.000335665 0.135268)
(-0.000409607 0.00038151 0.149441)
(-0.00139983 0.00192385 0.0178049)
(-0.000918699 -4.08552e-05 0.170772)
(-0.00370856 -6.93818e-05 0.167307)
(-0.000611661 0.000550158 0.118805)
(-0.00691295 0.000107958 0.1477)
(0.000187565 0.00273902 0.0240389)
(-0.000132081 0.000318131 0.0387292)
(-0.0228019 0.000384173 0.121532)
(-0.00372557 -0.000827097 0.1355)
(-0.000571351 -0.000799286 0.0343718)
(-0.00264194 -0.000818846 0.164429)
(0.00327848 -0.00132079 0.0214746)
(-0.00186053 -0.000438428 0.142724)
(-0.00035185 -0.000466513 0.187347)
(-0.00432876 0.000219924 0.158222)
(-0.0050771 0.000138123 0.164427)
(0.000503672 4.50067e-05 0.148653)
(0.00173436 0.000921403 0.0429628)
(-0.00861796 0.00073096 0.15188)
(-0.00243114 4.73197e-07 0.0355754)
(-0.00765433 0.000423745 0.146988)
(-0.00643342 0.000377624 0.139785)
(-0.0023684 0.00129277 0.0185833)
(-0.00745369 0.000784617 0.146798)
(-0.000851977 0.000834645 0.178531)
(0.000600652 0.00106484 0.0305152)
(-0.000691512 0.00010479 0.149663)
(-0.00188589 -0.000989841 0.0517492)
(-0.0099861 -0.00248787 0.10711)
(-0.0115677 -2.70679e-05 0.131514)
(-0.00091526 0.00116457 0.139297)
(-0.000600259 -4.84047e-05 0.176853)
(-3.47277e-05 0.00104731 0.137086)
(5.49484e-06 2.93159e-05 0.164485)
(-0.0112424 -7.05642e-05 0.109927)
(-0.000383445 -0.000334411 0.139719)
(0.00211471 0.00388567 0.0503838)
(-0.0024757 -0.000983514 0.0643253)
(0.00163179 0.00105805 0.148352)
(-0.00118635 0.000833409 0.0354108)
(0.0024973 0.00132161 0.0226763)
(0.00269031 0.00140889 0.0214456)
(-0.00195561 0.00219253 0.0513199)
(0.000833072 -3.36912e-05 0.13392)
(0.000145084 -0.000665811 0.148257)
(0.00174432 -0.00308731 0.0371509)
(-0.000779677 -0.000370831 0.102001)
(-0.000198988 0.000687499 0.097936)
(-0.00136396 0.0021549 0.0626442)
(-0.0187497 -0.000239345 0.124957)
(0.00213397 -0.00204636 0.0287057)
(-0.00250547 0.00321399 0.0634066)
(-0.0195064 -5.01581e-05 0.118044)
(-8.27279e-05 0.000114474 0.161361)
(0.00107479 -0.00118227 0.0970034)
(-0.00166808 -0.00109173 0.0512783)
(-0.000340762 -0.000625888 0.132072)
(-0.000362499 -0.000966555 0.0204329)
(-0.000809926 0.000840883 0.147052)
(0.000170647 -5.09524e-05 0.192169)
(-0.00043039 0.000604218 0.172392)
(0.000838027 0.000233187 0.158911)
(-0.000423612 0.000302223 0.170948)
(-0.0180217 0.00114907 0.132406)
(-0.00333891 0.000112661 0.0897797)
(-0.00170006 -0.000828778 0.0277803)
(-0.0137021 0.00206421 0.138363)
(-0.0130698 0.00307909 0.0898404)
(0.00016976 -0.000279561 0.185031)
(-0.00011779 -0.000148974 0.189128)
(0.00167734 0.00194481 0.110096)
(-0.000484622 -0.00191489 0.0217059)
(-4.2529e-05 0.000561876 0.147643)
(0.00108544 0.00034553 0.0989866)
(-0.00203781 0.000966679 0.113051)
(-0.0155924 0.00140487 0.107483)
(0.00013619 0.000481447 0.127877)
(-0.000362317 0.00254558 0.0369479)
(-0.00114755 0.000849078 0.0965632)
(-0.000975723 0.00205255 0.0412265)
(-0.000314906 -0.000424023 0.189954)
(-0.000803157 -0.00147909 0.0173848)
(-0.000623043 0.000969579 0.123563)
(-0.00149088 2.35325e-05 0.17965)
(-0.0022504 0.000687768 0.141797)
(-0.00587082 0.00134545 0.140273)
(-0.00348088 0.00130631 0.117015)
(0.000947083 -0.00176352 0.0621278)
(-0.000412238 0.00103618 0.104698)
(-0.000402484 -0.000898717 0.101397)
(0.00015054 0.00124204 0.0324274)
(0.000972387 0.00101368 0.168955)
(4.45327e-05 6.90306e-05 0.154549)
(-0.000935601 -0.00198528 0.0868328)
(-0.00160719 0.000984071 0.0172854)
(-0.000406987 -0.000348907 0.11075)
(-0.00152659 0.000783519 0.111821)
(-0.00129061 0.000535714 0.0804519)
(-0.00255411 -0.00180911 0.017729)
(0.00250782 0.00241637 0.0618957)
(0.00347413 -0.00204861 0.0638004)
(-0.000564069 0.00122718 0.0323903)
(-0.000219436 -0.00043778 0.0231658)
(0.00299759 9.85764e-05 0.0966377)
(-0.00106382 2.67558e-05 0.177163)
(0.000890496 -5.13595e-05 0.0583702)
(-0.00116432 -0.000405526 0.182643)
(0.00105713 0.00215496 0.0184857)
(0.000203965 -0.000586271 0.136511)
(-0.00144721 -0.00114245 0.0811838)
(-0.000894186 0.000618847 0.0490081)
(-0.000120844 -0.00175021 0.060342)
(1.67532e-05 -0.000542192 0.135744)
(0.000398695 0.000598458 0.0468215)
(-0.00582109 -0.000544646 0.13486)
(-0.000843712 0.000436466 0.172885)
(-0.00697134 0.000549626 0.149526)
(0.000360129 -0.00303191 0.063761)
(0.000433255 0.00031641 0.0378395)
(-0.00154568 -0.00207304 0.146003)
(0.000824987 0.00292546 0.0309174)
(-0.000921728 -0.00187869 0.026405)
(0.000545794 0.00139277 0.0606677)
(-0.000220124 -0.000907096 0.183972)
(-0.00035448 0.000650724 0.055625)
(-0.00258157 0.000474762 0.0328342)
(0.00013862 0.000252838 0.0211066)
(-0.000322087 6.2455e-05 0.119757)
(0.00151063 0.0007987 0.0969998)
(-0.00270736 -0.000153446 0.135294)
(-0.00095611 -0.00282265 0.048401)
(-0.00130737 -0.000462617 0.165515)
(0.00148132 -0.00120072 0.0531408)
(-0.000826299 -4.17658e-05 0.154677)
(0.000396332 0.000688293 0.0274662)
(0.000698543 0.000260676 0.0531872)
(0.000307986 -0.00106635 0.0374948)
(-0.00456149 -4.42813e-05 0.106438)
(0.0004382 -0.000790079 0.154805)
(-0.00159683 -0.002243 0.0774894)
(-0.000375366 -0.000327033 0.191562)
(0.000118568 0.00112243 0.09925)
(0.0015101 -0.0017971 0.017881)
(0.000559605 0.000828598 0.125577)
(-0.000439758 -0.000398787 0.145079)
(-0.000433512 -0.000323308 0.186214)
(0.00152723 -0.000895301 0.155563)
(0.000221018 -0.000689753 0.0212045)
(0.0017821 0.00104848 0.111156)
(-0.000518448 0.00445213 0.0471406)
(-0.00385843 0.000789687 0.0235614)
(-0.000930306 0.00119908 0.143091)
(-0.000327004 0.00130842 0.0520078)
(-0.000930603 -0.00123335 0.113186)
(0.000397048 -0.000140175 0.173661)
(-0.00170622 0.000479071 0.139746)
(-0.00123194 0.000924114 0.157885)
(-0.00160682 0.00299833 0.0505308)
(0.000796135 -0.000130347 0.157442)
(-0.000858834 -0.00255993 0.0514561)
(-0.000406116 0.000256499 0.102431)
(-0.000823953 -0.000936369 0.167326)
(0.000353784 -0.000497786 0.0360941)
(0.000396549 -0.000218902 0.172893)
(0.0005461 7.07519e-05 0.175221)
(-0.000922222 -0.000999506 0.0261515)
(-0.00242434 0.000555364 0.0434511)
(0.00019865 0.000879412 0.173956)
(-0.00202443 0.00333948 0.0508393)
(3.56859e-05 0.000617269 0.175387)
(-0.00039888 0.000317224 0.176041)
(-0.000838617 -0.000428395 0.189267)
(-0.00110497 -0.00190968 0.0229571)
(-0.00123244 -0.00110275 0.0302332)
(-0.00143521 -2.25066e-05 0.0315009)
(-9.17987e-05 -0.000367856 0.059431)
(-0.00127987 -0.000203884 0.0931038)
(-0.00165381 0.00041622 0.158134)
(0.00189431 -0.000317949 0.0535992)
(0.000449479 0.000337891 0.19112)
(0.00227753 0.00162048 0.0187568)
(0.000709759 0.000522237 0.0509321)
(0.00214178 0.001338 0.0227074)
(0.000611379 0.000520548 0.186838)
(-0.000467246 -0.000341317 0.0887165)
(-0.00121566 0.000279098 0.146167)
(-0.000869121 0.00150249 0.0616765)
(-0.000621523 -0.00037196 0.17168)
(-0.000619325 -0.0002693 0.1016)
(-0.000208969 -0.000125678 0.167502)
(-0.000755845 2.23857e-05 0.140199)
(0.00081537 0.00021038 0.192364)
(0.000312894 0.0012984 0.144836)
(-0.00103486 0.0013417 0.147369)
(-0.000907873 0.000587344 0.15942)
(-0.000239121 8.14736e-05 0.0521347)
(-0.00215045 0.000429375 0.154666)
(0.00119089 0.00184634 0.0388652)
(-0.000282774 0.00198377 0.0562663)
(-0.00119231 0.000677587 0.128415)
(-0.000215875 0.000346559 0.164066)
(0.00355114 0.000741344 0.112251)
(0.000431631 0.000136691 0.180654)
(0.002079 -3.24374e-05 0.0950771)
(-0.000111272 -0.00256229 0.0542215)
(-0.000727554 -0.00125729 0.161588)
(0.00202253 9.94649e-05 0.0892175)
(-0.000524504 -0.000869091 0.0430823)
(-0.000501899 0.00135045 0.0486549)
(-0.00266434 0.00235518 0.0955907)
(-2.0874e-05 -0.000258615 0.176389)
(-0.00153858 0.00192887 0.095149)
(-0.000837626 0.00156685 0.0891324)
(-0.001117 -0.000476461 0.167304)
(-1.00911e-07 0.00235874 0.0889574)
(-0.00112865 -0.0024393 0.0194765)
(0.000767858 0.000302272 0.163337)
(0.00200594 -0.00156249 0.0235945)
(0.00168398 0.000838381 0.0377661)
(-0.00108272 -0.000283071 0.187696)
(-0.000369964 -0.000309616 0.138484)
(-0.00313874 0.00164799 0.0234554)
(-6.95497e-05 -0.000967824 0.118463)
(-0.00135951 -0.00209405 0.121826)
(-0.00270075 0.000290844 0.168688)
(0.000174335 -0.000470807 0.186688)
(0.00186493 -0.0019458 0.0223552)
(0.000239272 0.000677079 0.186329)
(3.36822e-05 0.000127717 0.192266)
(-0.000460407 -0.000558026 0.177688)
(-0.0010833 0.000518507 0.134291)
(-0.000864815 0.000491445 0.137285)
(-0.000330183 -0.00045154 0.0923019)
(0.000205327 -0.000692343 0.174461)
(2.12008e-06 0.00153707 0.0262608)
(-0.000214339 -0.00046957 0.16302)
(0.000168547 0.000676793 0.138884)
(-0.000229305 0.000329782 0.191106)
(-0.000947072 0.000793658 0.173343)
(0.000371334 -0.000651379 0.11483)
(0.000970192 -0.0011881 0.0559306)
(-0.000642132 -0.00137576 0.0214164)
(0.000654364 0.000412729 0.026454)
(-0.00148229 0.000236424 0.164881)
(-0.00272714 0.00110902 0.0189567)
(-0.000811211 -0.000787426 0.060655)
(-0.000921938 0.00281522 0.0493729)
(-0.000837529 -0.000877701 0.171229)
(-0.000547699 -1.40868e-05 0.178244)
(-0.000593322 0.000764468 0.155316)
(0.00102439 0.000803803 0.0561361)
(0.00296232 5.94687e-05 0.100525)
(3.94063e-05 0.0040599 0.0376425)
(0.000215999 -0.00167405 0.053874)
(-0.000281281 0.000865762 0.160075)
(0.000372728 -0.00128586 0.0951323)
(-0.0127401 -0.00153079 0.107732)
(0.000268483 -0.00211603 0.0877639)
(-0.00040244 -6.13085e-05 0.040349)
(0.00216831 -0.000174544 0.0610388)
(-0.000732239 -0.00176342 0.105724)
(-0.000459135 -0.000107022 0.180828)
(0.000454469 -0.00119422 0.189999)
(-0.000572626 0.00102138 0.191292)
(0.000157524 0.00145071 0.16339)
(-0.00600234 -0.000588437 0.0969346)
(-0.00104863 -0.000242136 0.125282)
(-0.00119447 0.000205645 0.170133)
(0.000784886 0.000239238 0.162875)
(0.0011807 0.000328938 0.165845)
(-0.0027475 -0.00218271 0.0544664)
(0.00259386 -0.00112086 0.0209326)
(0.00141285 0.000175874 0.150965)
(0.00107095 0.00252695 0.0371122)
(3.44087e-05 -8.31007e-05 0.0296306)
(-0.00193543 -0.000131426 0.163703)
(0.000372286 -2.96236e-05 0.14512)
(-0.00207418 0.00255432 0.0595966)
(-0.000375436 -0.000604986 0.17807)
(0.000441984 0.000699404 0.168988)
(-0.000542658 -0.000123148 0.189608)
(-0.00135504 4.36121e-05 0.178616)
(-7.61462e-05 -0.00148974 0.030758)
(-0.000333409 0.000196584 0.160714)
(-0.000823307 0.000179965 0.183029)
(0.00032952 0.000775559 0.0547477)
(-0.000163804 -0.000991464 0.188354)
(-0.000159473 0.000252886 0.180838)
(0.000749961 0.000496031 0.130005)
(0.000586344 0.000881933 0.121354)
(-0.000385393 -0.00199972 0.15321)
(0.000516849 0.00104553 0.142932)
(-0.000310651 0.000198354 0.0669471)
(-0.000600661 0.00147202 0.0298912)
(0.00034441 0.00244593 0.0328846)
(0.000457004 -0.000337497 0.0916795)
(-0.0126138 -6.73933e-05 0.0862542)
(-0.00735693 0.000762955 0.0746065)
(0.000416278 -0.000401265 0.079977)
(0.00152275 -0.00130875 0.112329)
(-0.000920542 0.000652936 0.130572)
(-0.00452265 0.000176947 0.159642)
(0.000355824 0.00122839 0.157854)
(-0.000511011 -0.000909618 0.130579)
(7.06119e-05 -0.000562173 0.149358)
(-0.000902948 -6.41423e-05 0.150086)
(-0.000438926 0.000888719 0.0295127)
(-0.0226228 0.00081729 0.113928)
(0.000444602 0.00138937 0.0554035)
(-0.000897049 0.0015078 0.0387499)
(0.000855069 0.00032743 0.0391444)
(0.000208661 0.0007532 0.163685)
(-0.000486194 0.000298667 0.0911909)
(-0.00126966 0.000499872 0.162261)
(-0.00118737 0.00145125 0.0185455)
(0.000306527 -0.000361748 0.124628)
(0.00108523 -0.000678686 0.0418956)
(-0.000104384 0.000149467 0.168264)
(-0.000514837 0.000601437 0.0452119)
(0.00157506 0.000733001 0.0594465)
(0.000685929 0.00280198 0.102592)
(-0.0015657 -0.000458053 0.151961)
(0.00242435 -0.0002308 0.0182301)
(-0.000132099 0.00217388 0.0517975)
(6.28622e-05 -0.000564078 0.131954)
(8.87158e-05 -0.00221944 0.0217028)
(-0.00963584 -0.000286596 0.130871)
(0.000561239 -0.00268113 0.113573)
(-0.00048413 -0.00214636 0.130426)
(0.00224722 -0.00273958 0.0916992)
(0.00230121 0.000785117 0.085155)
(0.000511303 8.97839e-05 0.164004)
(-0.0101931 -0.00323063 0.0771912)
(-8.74513e-05 -1.65603e-05 0.18995)
(-0.0124783 0.000846883 0.111391)
(-0.00215061 0.00156069 0.0566736)
(-0.000305105 0.00140958 0.0598963)
(0.000302215 -0.000120142 0.185481)
(0.000356498 -7.71182e-05 0.184405)
(0.000590579 -0.000517424 0.0497703)
(-0.000454659 -0.00052333 0.131488)
(-0.00214167 0.000690624 0.0943548)
(-0.000214747 -0.000470367 0.186677)
(0.000439222 -0.000884993 0.185815)
(-0.00101606 -0.00337889 0.0429578)
(-0.000361533 0.00109422 0.131043)
(0.00248001 -0.000261228 0.145412)
(-0.000917392 -0.000285044 0.147989)
(0.000252559 -0.000946323 0.1577)
(0.00231498 -0.00123509 0.0201545)
(-0.00257545 -0.000666026 0.0197782)
(-0.00144414 0.00136497 0.125174)
(-0.000156776 -7.35524e-05 0.180989)
(0.000988614 0.000991256 0.188175)
(-0.0021665 0.00116551 0.0323695)
(0.00143043 -0.000831828 0.173088)
(-0.00134586 -0.000287609 0.103842)
(0.000186337 6.53276e-05 0.181567)
(-0.000791444 0.000956074 0.181795)
(0.000228153 -0.000546996 0.188171)
(7.29986e-05 -0.000986518 0.177901)
(-0.000409528 -0.00164327 0.176372)
(0.000286803 -0.000542434 0.0853397)
(-0.00050845 0.000406889 0.185408)
(-0.00172988 0.00210098 0.0533139)
(-0.000446635 0.00038729 0.17054)
(-0.00092782 -0.000625157 0.106169)
(-0.00100605 -0.00048127 0.154674)
(-0.000295139 -3.8488e-06 0.180572)
(-0.000195066 0.000398818 0.148958)
(0.00102112 -0.000998604 0.145237)
(0.00163906 0.00249263 0.0378658)
(0.000870152 -3.77107e-05 0.0317648)
(-0.00179985 -0.0018537 0.0196778)
(-0.00870258 6.37236e-05 0.153352)
(0.000251302 -0.00017629 0.1943)
(-0.000892624 0.000275485 0.139422)
(-0.000166006 -0.000864897 0.12438)
(0.00108103 0.000235013 0.028823)
(0.000655758 -0.00247165 0.0220816)
(-0.00045288 -0.00171693 0.111373)
(-0.000843931 0.00115806 0.154328)
(-0.000448985 -0.000591451 0.181112)
(0.000621032 -6.05322e-05 0.155128)
(-0.00131247 0.000259694 0.133743)
(-0.000218751 -0.000194308 0.194)
(0.00123874 0.000288978 0.132961)
(-0.00101461 0.00213083 0.0246903)
(0.000278055 0.000890164 0.120458)
(0.00251643 -0.0014054 0.0541822)
(-0.00716139 -0.000786827 0.0704807)
(-0.000487833 0.000522996 0.155724)
(0.00044345 -0.000397248 0.0898598)
(-4.57607e-05 0.000265814 0.146743)
(-0.00323455 0.00206232 0.0190757)
(-8.37823e-05 -0.000628529 0.185193)
(-7.10216e-05 0.000246895 0.18668)
(-0.000447712 -0.000602219 0.183728)
(0.000600779 -0.000650923 0.0881372)
(0.000706955 -0.00188278 0.154487)
(-0.000308087 -0.000314125 0.178248)
(-0.000204616 0.000508604 0.119165)
(-0.000401107 3.59471e-05 0.189156)
(-0.00531528 -0.000509704 0.0976133)
(-0.000405617 1.91573e-05 0.174862)
(-0.00265132 0.00126575 0.148849)
(0.00138394 -0.00121678 0.0191585)
(-0.000297015 -0.00035792 0.184795)
(0.00140641 0.00184714 0.114566)
(-0.00280504 -0.0026009 0.0432987)
(-0.00103655 0.00143798 0.0878714)
(-0.00018263 0.000283296 0.171039)
(-9.02946e-05 -0.00125373 0.126498)
(0.000869462 0.00210678 0.0806558)
(-0.00207317 0.00146943 0.0189316)
(-0.000343544 -0.000204493 0.17908)
(0.000578158 0.0024507 0.122499)
(-0.000741719 -0.000123733 0.162895)
(-0.000757781 -0.000225264 0.121902)
(-0.00210522 0.000607445 0.0343751)
(0.000217757 -4.03361e-05 0.140635)
(-0.0039033 0.000317833 0.0257094)
(8.36747e-05 0.000811384 0.165424)
(-0.011954 0.000601147 0.102281)
(0.00165029 0.000445401 0.172199)
(-0.000184643 0.00170912 0.0483192)
(-0.00131796 0.00150265 0.102759)
(-3.76984e-05 0.00118376 0.0916422)
(0.0018858 -0.00160551 0.0324219)
(0.000102497 -0.000127944 0.192011)
(-0.00019553 -0.000594161 0.177916)
(-0.00194594 -0.000768225 0.0202039)
(-0.000570665 0.000152698 0.165047)
(-0.000585092 0.000459645 0.191208)
(-0.000556572 0.00205163 0.0345772)
(0.00145384 0.00211464 0.0581124)
(-0.00131702 0.00188671 0.0505252)
(-0.000758539 -0.000278663 0.155396)
(0.000312712 -0.00052879 0.185896)
(-0.00122724 0.00120691 0.0324125)
(0.00160081 -0.000744739 0.0502162)
(-0.000184665 0.00103411 0.0530995)
(0.00125336 0.00106845 0.112231)
(-0.00014492 -0.00065195 0.188101)
(-0.0025085 -0.00175274 0.0216809)
(0.000897517 0.000284518 0.160764)
(-0.00404787 -0.000772863 0.15195)
(0.000203883 -0.000941928 0.185919)
(-0.00234853 -0.00483036 0.0900998)
(6.35037e-05 0.000322339 0.171153)
(0.00105826 -0.00205482 0.0210429)
(-0.00146759 -0.000311388 0.165805)
(0.00014576 -0.000336355 0.0252443)
(-0.000367082 -0.00175578 0.0584725)
(-7.10684e-05 0.00123865 0.154992)
(-0.00103825 0.0014705 0.056841)
(-0.00252605 0.00150517 0.0188615)
(0.000342197 -0.00122604 0.034128)
(0.00046082 0.00275336 0.0420429)
(0.000757704 -0.00179937 0.0551597)
(-0.00100095 -0.000211051 0.145849)
(2.36263e-05 0.0010949 0.0470182)
(0.00107963 -0.00172988 0.0557309)
(-0.0155377 0.00062618 0.128245)
(-0.00025935 -0.000196342 0.174676)
(0.00144569 1.95238e-05 0.0221463)
(0.000161573 0.00117928 0.103907)
(-0.00851262 -0.00431105 0.0812666)
(-2.08576e-05 0.000358698 0.175843)
(-0.0011439 0.000812068 0.0554552)
(-0.000854436 -0.000644204 0.170135)
(0.00120625 0.00244578 0.0538319)
(-0.000637353 0.000770481 0.120814)
(-0.000765518 0.00084032 0.182536)
(0.0024332 -0.00404845 0.0473881)
(0.000171642 -0.00022448 0.180198)
(-0.00319876 -0.000794956 0.0474995)
(0.00241094 -0.00152479 0.0175706)
(-0.000442418 0.000795574 0.146263)
(-7.92619e-05 0.000392406 0.186055)
(-0.000980327 0.000628522 0.127578)
(0.000628072 -0.00175329 0.122738)
(0.000785939 0.000187595 0.185176)
(0.00171891 -0.000210039 0.0570708)
(0.000746847 -0.000223029 0.171205)
(0.00112264 0.00263235 0.0536899)
(-7.18733e-05 -0.000123496 0.179567)
(0.00169676 0.000873089 0.12382)
(-0.00302581 -0.00203462 0.0258591)
(-0.00131365 0.000236105 0.154599)
(0.00102998 -0.0011476 0.0485911)
(0.00114531 0.00220386 0.0240137)
(-0.00144827 0.000610311 0.147752)
(-0.00154675 7.94373e-05 0.0401331)
(-1.79219e-05 -0.000114654 0.1369)
(-0.000286308 0.00092489 0.186773)
(-5.05851e-05 0.000241096 0.129755)
(8.21466e-05 0.003366 0.0505156)
(0.000814329 0.000195638 0.185079)
(0.00181485 0.000360981 0.0860647)
(4.13742e-06 0.000131759 0.192736)
(-0.000439835 0.000235332 0.18624)
(-0.000607259 0.00104477 0.18709)
(-0.00073515 0.000504976 0.185299)
(0.00283908 -0.0011055 0.0409643)
(0.000283204 0.000421753 0.0482674)
(0.000866562 0.000123373 0.183365)
(0.000554782 -0.00160691 0.163883)
(0.000506573 0.00229714 0.0291364)
(0.000745257 -0.00016002 0.164043)
(1.35271e-05 0.000427457 0.186363)
(-3.89416e-05 0.000398741 0.181573)
(0.000252716 0.000516438 0.187926)
(-0.00180452 0.00061594 0.112722)
(-0.00150971 0.0021601 0.0196906)
(0.000507475 -2.54391e-06 0.182286)
(0.00070208 -0.00122104 0.0965968)
(-0.000570916 0.00132443 0.152897)
(-0.000144119 0.000375936 0.092096)
(-0.00157816 -0.001041 0.0267413)
(-0.0002061 -0.000376052 0.18867)
(-0.00211141 0.00264244 0.0876289)
(-0.000198105 -0.000213575 0.13107)
(6.68861e-05 0.000148879 0.191382)
(-0.000544066 0.00154804 0.14035)
(0.00140954 0.00190283 0.0158571)
(-0.00210147 0.0010057 0.0201447)
(-8.70499e-05 0.000757709 0.182177)
(0.00137872 -0.000455787 0.172628)
(-0.0011665 0.000356668 0.192068)
(-0.000880851 -0.00109431 0.154134)
(-0.00031884 0.00146957 0.0881995)
(-0.000477893 0.00108606 0.149418)
(3.43586e-05 0.00104217 0.181035)
(0.000657144 0.00155688 0.0184843)
(-0.000521241 0.000807672 0.184937)
(-0.0151418 0.000876258 0.135028)
(-5.24731e-05 0.0019341 0.0342057)
(-0.000380467 0.00335392 0.0513001)
(-0.000619098 0.000740663 0.143286)
(0.00160744 -0.000794846 0.139569)
(4.16303e-05 -0.000451474 0.136338)
(0.000691451 -0.000572516 0.12081)
(-0.0029112 0.00214149 0.100561)
(0.000543481 6.65645e-05 0.190911)
(0.000638084 -0.0030383 0.0939312)
(0.000207961 -0.000308772 0.180356)
(0.000174647 0.00087674 0.17597)
(-0.00010224 -0.000215662 0.192419)
(-7.96038e-05 -0.000130783 0.180684)
(0.00152844 0.00105856 0.0367799)
(-0.000103788 -4.21333e-06 0.166555)
(-0.000263784 -0.00150887 0.0297282)
(-0.0105805 -0.00143447 0.0944319)
(0.00195692 -0.00137942 0.0558977)
(-0.0133218 -7.3746e-05 0.127243)
(0.000631296 0.000773805 0.128226)
(-0.0195372 0.000457192 0.117475)
(7.02129e-05 0.00067234 0.175345)
(-0.000673963 -3.96411e-05 0.179763)
(-0.0017373 0.000163312 0.155087)
(5.66837e-05 0.000467238 0.17603)
(-0.000600726 -0.000196317 0.0304921)
(-0.00455742 0.000140571 0.100941)
(-0.0161108 0.00113092 0.112495)
(-0.000178457 -0.000220582 0.182844)
(-0.000794688 0.0021346 0.108294)
(-0.0143672 0.000921807 0.136953)
(-0.00606085 0.00012249 0.157272)
(0.000517561 0.00115548 0.107206)
(-0.00125407 -0.000481082 0.0320941)
(0.00132042 0.00247592 0.0499313)
(-0.000194709 -0.000118858 0.0221153)
(0.00117179 0.00109268 0.020875)
(-0.000153012 5.95825e-06 0.0314077)
(-0.011212 0.000268227 0.133626)
(-0.0007971 -0.000730734 0.137729)
(-0.00201428 -0.00227393 0.0211974)
(-0.00254729 0.000692434 0.0201324)
(0.00023442 -0.000113801 0.19342)
(-0.0149133 0.00327776 0.096144)
(-0.00154117 0.000151093 0.033832)
(-0.000700061 -3.4701e-06 0.147427)
(-0.00149453 0.000996377 0.101597)
(0.0012057 -0.000429693 0.132311)
(0.00122316 0.00188899 0.0379794)
(-0.00104123 -0.00131636 0.0504664)
(0.000168675 0.00122882 0.107584)
(0.000925404 0.000193463 0.174035)
(0.00058554 0.000483898 0.152746)
(-0.00167133 0.00226428 0.0320488)
(-0.00053018 -0.00189236 0.0216016)
(-0.0189037 0.000199997 0.106235)
(-0.00240509 0.00181071 0.023075)
(-0.000209979 0.00121669 0.132737)
(-0.00311671 -0.00101038 0.0241651)
(0.00048892 0.00210469 0.100178)
(-0.00132964 -3.52289e-05 0.18215)
(0.00117547 0.000207444 0.180928)
(-0.000322002 -0.000881051 0.0394925)
(0.000951171 -0.000468183 0.094114)
(-0.00178075 -0.000219544 0.0319264)
(-0.00314798 -0.000212134 0.0250837)
(-0.000383584 -0.000752785 0.183374)
(-0.00233219 0.00116147 0.0169674)
(0.000581196 0.000275649 0.169165)
(-0.000314196 -0.00227966 0.0434032)
(-0.000262334 0.00135746 0.156259)
(-0.00024061 0.000800314 0.140426)
(0.0029136 0.00117135 0.0194932)
(-0.00101532 -0.00242334 0.0521883)
(0.000121013 0.000855489 0.148699)
(-0.00013545 0.00150495 0.0308007)
(0.000519694 0.000441735 0.162536)
(-0.00123415 0.00343264 0.0492776)
(0.000160179 0.000107836 0.10397)
(0.000311217 -0.000170919 0.187575)
(0.00117814 -3.28742e-05 0.0326789)
(-0.00281048 -0.000583696 0.0211825)
(-0.000943018 -0.000339449 0.045676)
(-0.0177751 9.54521e-05 0.110797)
(-0.000599166 -3.65485e-05 0.0999047)
(2.24821e-05 0.00346048 0.0511516)
(0.00109546 -0.000247474 0.0798436)
(0.00039511 0.00114491 0.0272356)
(0.000556649 -7.18652e-05 0.189175)
(0.0009994 0.00134196 0.0210902)
(-0.000866543 0.000157119 0.171701)
(8.38679e-07 -0.000281615 0.143725)
(-0.000681194 -6.01868e-05 0.170494)
(-0.00170057 -0.000180069 0.0173325)
(0.000121507 -0.000562338 0.151257)
(-0.000966872 0.0004672 0.0790504)
(-0.000141113 -1.40119e-05 0.158782)
(0.000196171 0.000592412 0.0497595)
(-0.0146153 0.000391915 0.108167)
(-0.00123481 0.000392707 0.160431)
(0.000587425 -8.55088e-05 0.0356701)
(-0.00046032 9.65745e-05 0.19394)
(-0.0204583 0.00237871 0.108871)
(-0.000740103 -0.000429043 0.115207)
(-0.000690281 -0.00166147 0.0295468)
(-0.00116388 0.00227365 0.0456586)
(-0.000200045 0.000306552 0.186674)
(0.00116556 -0.000888951 0.130165)
(-0.00101518 0.00120167 0.0287206)
(-0.000184325 -0.00219853 0.106605)
(0.00135379 0.00114437 0.0560049)
(-0.00147781 0.00175206 0.0218444)
(-0.000429573 7.83227e-05 0.182963)
(-0.0100968 0.000487557 0.103344)
(-0.00096804 -0.00211691 0.128384)
(-9.75743e-05 0.000609928 0.176275)
(0.000588064 0.000763305 0.18094)
(5.23723e-06 -0.000140109 0.172053)
(0.000773912 -0.000385099 0.130463)
(0.00100429 0.00034533 0.0392484)
(-0.000462367 0.00241463 0.0360403)
(-0.000309924 0.000753946 0.185772)
(-0.0127937 -0.000550922 0.107584)
(0.000188081 0.00107504 0.118117)
(0.00145739 -0.00130295 0.125426)
(0.00184574 -0.000931237 0.0767409)
(-0.000616419 0.00151701 0.147916)
(0.000700365 0.000935828 0.16497)
(-0.000912827 -0.000963709 0.0949379)
(-0.00156017 0.00105771 0.0999501)
(-0.0013867 0.00190045 0.0353687)
(-0.000467535 -0.000292615 0.066976)
(-0.00242605 -0.00186809 0.0387765)
(0.000978121 -0.00091485 0.151786)
(0.00050595 -0.000356864 0.178166)
(-0.000836421 0.00268605 0.0896417)
(-4.61046e-06 -0.00100425 0.0946369)
(0.00108441 -0.00164595 0.0188369)
(0.000232683 -0.000722268 0.0745035)
(-0.00262263 -0.00123823 0.0533181)
(-0.000945712 0.00039935 0.179233)
(0.000886026 0.000236705 0.181987)
(-0.0112909 -0.000730701 0.104824)
(-0.000999245 0.00057932 0.164746)
(-0.00143604 0.00258109 0.0772767)
(-0.00832914 0.000379942 0.101709)
(0.000726399 -0.0020994 0.130964)
(0.00159185 0.000794106 0.0231529)
(0.000483939 -0.00039766 0.182007)
(-0.000162782 0.00127497 0.0456677)
(-0.00135231 -0.000205969 0.138555)
(0.00321816 -0.00167884 0.0253354)
(0.000638992 -0.000294654 0.177868)
(-0.00507024 -0.000291701 0.101647)
(-0.000795753 -3.08048e-05 0.158915)
(0.000538423 -0.000437044 0.111712)
(-0.000656434 0.000829172 0.146136)
(0.000216844 0.00139994 0.149516)
(-0.000493253 -0.000187175 0.189805)
(0.000198355 0.00191935 0.0311838)
(-6.68424e-05 -0.00108992 0.0431415)
(-0.000291189 0.000645364 0.026)
(-0.000269979 0.000883382 0.180843)
(0.000429939 -3.33377e-05 0.158297)
(0.00137112 0.000819491 0.13487)
(0.000757194 -0.00132403 0.160437)
(0.000216719 -0.000566757 0.0189451)
(0.000111574 0.000326945 0.0940093)
(0.00157674 -0.00143413 0.0848347)
(-0.000665819 -0.000249612 0.179954)
(-0.000930231 -4.86622e-05 0.124304)
(7.39559e-05 -0.000553074 0.145216)
(-0.00126371 0.000424 0.102311)
(-0.000304789 -0.000178368 0.185396)
(-0.00252682 0.00183909 0.0186719)
(0.000335287 0.00333014 0.0809492)
(-0.000673645 0.000418444 0.152851)
(-0.000173134 0.0028134 0.0233525)
(0.000365909 0.00205622 0.0409883)
(-0.00102371 -0.000437321 0.057367)
(-0.00217209 -0.000945747 0.0193659)
(0.00136279 -6.75406e-07 0.0905721)
(-0.000144844 0.000388805 0.171289)
(-0.000640451 0.00218891 0.0563034)
(0.0020819 0.00182821 0.0171671)
(-0.000365021 -0.000807376 0.100053)
(0.000367937 9.35228e-05 0.0233947)
(1.86103e-05 0.00135576 0.0941995)
(-0.000201612 0.00013147 0.177407)
(-1.84561e-05 -2.29226e-05 0.192871)
(0.000124881 -0.000244615 0.176625)
(0.000494387 0.000693962 0.165541)
(-0.000246253 -0.000198332 0.178921)
(-0.000869965 0.00213293 0.127753)
(0.000898083 -0.00102989 0.04272)
(0.000494359 -0.000340197 0.179594)
(6.80701e-05 -0.00104798 0.120937)
(-0.000841846 -0.00153707 0.0838581)
(-0.00152541 -0.000559479 0.0922725)
(-0.000488857 -0.000137059 0.165539)
(-0.00128465 0.000645206 0.111923)
(0.000875692 0.00134446 0.0609469)
(-0.0012337 -0.0010276 0.155139)
(0.000388123 -0.00119132 0.0303088)
(0.000499759 0.000344699 0.0828812)
(0.000279349 -0.000165846 0.0920712)
(-0.000737531 0.000679144 0.0567274)
(-0.000152114 -0.000223316 0.161688)
(-0.0184093 -0.00049802 0.106008)
(-0.00969021 0.00036894 0.127223)
(-0.000552291 0.00258208 0.0295019)
(0.00167641 -0.000262944 0.0239628)
(-0.000139308 0.00223116 0.052145)
(0.00186074 -0.00041113 0.0185221)
(-0.000595425 0.000602953 0.124268)
(0.000735049 0.00106531 0.1548)
(-0.0011694 0.00131421 0.126216)
(-0.015341 0.00120186 0.110211)
(-0.000152792 -0.000267359 0.132414)
(0.000711766 0.000557182 0.146916)
(0.0038897 0.00280098 0.0228941)
(-7.66193e-05 0.000816302 0.158508)
(-0.0131449 -0.000369246 0.127568)
(-0.00124677 -0.000348432 0.0404219)
(0.00252934 0.00232562 0.0199236)