/*--------------------------------*- C++ -*----------------------------------*\
| =========                 |                                                 |
| \\      /  F ield         | OpenFOAM: The Open Source CFD Toolbox           |
|  \\    /   O peration     | Version:  2406                                  |
|   \\  /    A nd           | Website:  www.openfoam.com                      |
|    \\/     M anipulation  |                                                 |
\*---------------------------------------------------------------------------*/
FoamFile
{
    version     2.0;
    format      ascii;
    arch        "LSB;label=32;scalar=64";
    class       volScalarField;
    location    "54";
    object      epsilon;
}
// * * * * * * * * * * * * * * * * * * * * * * * * * * * * * * * * * * * * * //

dimensions      [0 2 -3 0 0 0 0];

internalField   nonuniform List<scalar> 
59516
(
0.0105527
0.00930385
0.00713761
0.00617393
0.00923353
0.345176
0.00658616
0.00901768
0.00791143
0.0205312
0.00708549
0.0235869
0.00755414
0.0704267
0.0178037
0.0211039
0.00435321
0.0381372
0.0130578
0.0036091
0.0316243
0.00434188
0.00465544
0.0293678
0.00346539
0.0159808
0.0289094
0.0421504
0.0219797
0.0507787
0.0457958
0.0376357
0.00528307
0.00795377
0.00848128
0.00447626
0.0489703
0.0438494
0.0155281
0.00351662
0.00938197
0.00948865
0.00696403
0.0100859
0.0064479
0.0216648
0.00872595
0.00586798
0.0126315
0.00767274
0.0271126
0.0237673
0.0069104
0.00649906
0.0252016
0.00880576
0.00945268
0.0247555
0.00308021
0.010719
0.00425928
0.0380101
0.00343116
0.00452713
0.00645501
0.00650312
0.0480926
0.0240681
0.0200319
0.00733747
0.0233677
0.00399566
0.0385949
0.00547877
0.00294068
0.00546597
0.00545553
0.00433434
0.0217356
0.00747465
0.0275867
0.00751147
0.00817393
0.0427999
0.00779777
0.00334203
0.0300806
0.00443536
0.0198145
0.025438
0.00990126
0.00522942
0.00303807
0.00542731
0.00382594
0.0106406
0.00508818
0.0219663
0.0292263
0.00443907
0.024508
0.0372495
0.036918
0.0191899
0.00545855
0.00456994
0.0267218
0.00872671
0.00953005
0.015633
0.0198732
0.0201249
0.0170185
0.0300953
0.00364196
0.0107882
0.019013
0.00569378
0.035383
0.00439801
0.00290857
0.00360422
0.00355543
0.00357153
0.015451
0.0182898
0.0357557
0.012566
0.0817508
0.00291236
0.0028267
0.00808013
0.0362782
0.00416364
0.00964161
0.00709537
0.0364756
0.00545409
0.0253376
0.0106968
0.0224897
0.0026605
0.0487939
0.00632563
0.00339197
0.00473813
0.00722995
0.00853881
0.252771
0.00838682
0.0103225
0.0274345
0.00314943
0.00386255
0.011791
0.0545733
0.00728109
0.00729431
0.0138271
0.0468508
0.0159317
0.0150799
0.030053
0.0554173
0.0101253
0.00308479
0.0169646
0.0030841
0.0433103
0.00558135
0.0132859
0.0235633
0.0145463
0.00514656
0.0220002
0.0088985
0.00333395
0.00720367
0.0150126
0.0288277
0.00433146
0.035548
0.0484315
0.0185387
0.00290165
0.0202472
0.0305849
0.0438837
0.00673744
0.0101604
0.00567215
0.0221516
0.00348677
0.0193994
0.003827
0.0349612
0.0212489
0.0268806
0.00835996
0.00383899
0.0143252
0.00279579
0.00919237
0.0465252
0.00591161
0.00458674
0.00298339
0.00429598
0.0474936
0.00770578
0.0241241
0.057592
0.00468209
0.0203197
0.00751796
0.00314659
0.0048776
0.00353164
0.0208736
0.00374677
0.0211507
0.00878874
0.00355685
0.02447
0.00332452
0.00324661
0.0243448
0.0218461
0.00320566
0.0197863
0.00299057
0.0032379
0.00295452
0.0299081
0.0309457
0.0279639
0.0191288
0.00926913
0.00387529
0.0230938
0.00282959
0.0434717
0.0213062
0.0375653
0.0029536
0.0119036
0.00454873
0.0149194
0.0029578
0.00900409
0.00312034
0.00490102
0.0028754
0.00461965
0.00453446
0.00368011
0.0226855
0.0040405
0.0217278
0.0178406
0.00578689
0.00346614
0.00784527
0.00288645
0.0101566
0.0208643
0.00375921
0.0116823
0.0193945
0.0228394
0.0121459
0.00319449
0.00960926
0.0112284
0.00328835
0.0115329
0.0352075
0.00340251
0.027469
0.0238625
0.00298862
0.00504635
0.0336341
0.00704733
0.0063896
0.00411899
0.00292913
0.0340524
0.00306013
0.00316879
0.0031918
0.00559428
0.0053862
0.0107176
0.00309032
0.020834
0.00374135
0.00462522
0.00294635
0.00337888
0.00711215
0.0189214
0.0364011
0.0205692
0.00330686
0.0452334
0.0144737
0.0230098
0.00333101
0.00296098
0.00362148
0.0190455
0.00923383
0.0256509
0.0273433
0.00394865
0.0104304
0.0117176
0.012196
0.0263451
0.0164459
0.00913924
0.0031173
0.00288507
0.00306493
0.00354943
0.0191245
0.00602749
0.0034657
0.00370853
0.00337826
0.0192505
0.037884
0.00422811
0.0220666
0.0301016
0.00358373
0.00452345
0.0279669
0.00322187
0.00314072
0.00286044
0.00317302
0.0284821
0.00357169
0.00323027
0.0212262
0.00298651
0.00327534
0.00580057
0.00634668
0.00408823
0.0043763
0.0175868
0.0344021
0.0253838
0.0102448
0.0524312
0.0968422
0.0149628
0.00786822
0.005702
0.00654422
0.00369768
0.00546341
0.00421593
0.00438144
0.0292879
0.0360406
0.0210091
0.0251098
0.0260812
0.00376179
0.0105923
0.00369543
0.0408016
0.00608213
0.0257315
0.00352193
0.0255122
0.0175424
0.00855678
0.00722542
0.0429035
0.0195597
0.00542815
0.032521
0.0122198
0.00784316
0.00523205
0.0111483
0.011261
0.0035622
0.0671532
0.00292456
0.028214
0.016539
0.0169285
0.00299853
0.00289523
0.0227762
0.00560138
0.0106893
0.00291899
0.00294182
0.0197132
0.00594347
0.00436796
0.00422469
0.00371406
0.0363036
0.0381791
0.00581384
0.00298731
0.00289922
0.0273179
0.00337572
0.00833998
0.00317495
0.00304254
0.00293155
0.00310339
0.00311342
0.011568
0.00304017
0.0170946
0.00347403
0.00892741
0.00408221
0.00320307
0.00439649
0.00479321
0.0247538
0.0303452
0.0390321
0.00777384
0.00259361
0.00520075
0.00599052
0.0307269
0.0400702
0.00769705
0.00425748
0.00308516
0.00380685
0.00497803
0.00285906
0.005076
0.0275439
0.00656592
0.0197146
0.114989
0.00414447
0.010478
0.00467585
0.042501
0.00296447
0.00306151
0.00312854
0.0120226
0.00419908
0.0031846
0.0066352
0.00311033
0.0152251
0.00322739
0.00421833
0.0379033
0.002935
0.00730312
0.0209665
0.0111449
0.00320128
0.00594396
0.0139754
0.0401804
0.00291604
0.00592959
0.00360787
0.00616757
0.0268236
0.00488526
0.0544183
0.00366461
0.0169917
0.00341165
0.0192682
0.00871871
0.0103628
0.0274715
0.00292886
0.00340088
0.0440701
0.00354553
0.00314737
0.0259673
0.0171436
0.0190073
0.00405811
0.00319777
0.0845498
0.0213722
0.0205524
0.00797901
0.0031253
0.0345375
0.00363723
0.00479807
0.0029673
0.114203
0.00315838
0.031367
0.0035661
0.0388629
0.0211612
0.00401974
0.0185466
0.0409847
0.0283265
0.0191635
0.0206429
0.00434788
0.0234051
0.0172694
0.0123478
0.00339605
0.0255547
0.00843513
0.0677947
0.00315793
0.0224579
0.00374442
0.02114
0.00642502
0.00314042
0.0201553
0.00295807
0.0533909
0.0496746
0.00412753
0.00302951
0.00580985
0.00635936
0.00297752
0.0185832
0.00327619
0.0185344
0.00320312
0.00607512
0.0267
0.00384307
0.0195325
0.0265
0.00430815
0.0260388
0.00532584
0.00310674
0.00576977
0.0194481
0.00294014
0.0128163
0.00266244
0.00261484
0.00299697
0.00305906
0.0236155
0.0219399
0.00298205
0.00346954
0.0325613
0.00366044
0.00275972
0.0028969
0.00284257
0.00745187
0.042475
0.00284826
0.00954364
0.00418525
0.00996537
0.0240234
0.00314781
0.0122155
0.00511887
0.002886
0.00481527
0.0495275
0.0373552
0.00322187
0.00342916
0.00303282
0.00452953
0.0125735
0.00456018
0.00313445
0.0330076
0.0032048
0.0137582
0.0264143
0.0174137
0.00452055
0.004749
0.00525527
0.00650509
0.00970764
0.0030699
0.0112704
0.00302501
0.00322981
0.00248689
0.00318601
0.0247327
0.00345513
0.0324773
0.0949032
0.0180799
0.0108496
0.00539015
0.0299528
0.00342913
0.00283614
0.00403163
0.00315779
0.0291519
0.0104269
0.014277
0.00321107
0.00784879
0.0125399
0.00688396
0.00781365
0.0257855
0.0222968
0.0241488
0.0419839
0.0271043
0.0113541
0.00517967
0.046928
0.0408385
0.00304397
0.0656792
0.0286229
0.00457583
0.00845913
0.00557161
0.0282038
0.0213724
0.00799628
0.00331113
0.00419178
0.0298547
0.0312465
0.0596094
0.0327051
0.00527451
0.030102
0.00959516
0.00316151
0.00263299
0.0241069
0.00996596
0.0298972
0.0338291
0.00314462
0.0467923
0.00350273
0.0198326
0.00391398
0.00485001
0.0407223
0.0207796
0.00431832
0.0273789
0.00378716
0.0222645
0.00900563
0.00296592
0.0277355
0.0381264
0.0208884
0.0190551
0.00951531
0.0222006
0.0145222
0.0361192
0.00298194
0.0268717
0.00307646
0.00446297
0.0033567
0.0490449
0.00413518
0.0128384
0.00382447
0.023058
0.0140964
0.00349139
0.0268586
0.00291822
0.0294985
0.00671419
0.0322938
0.0190849
0.00307917
0.00570234
0.0295481
0.00769292
0.0188769
0.0328931
0.00310401
0.0121236
0.00566501
0.00328095
0.00319961
0.00330497
0.00548839
0.0210582
0.0244407
0.00298479
0.0125834
0.00754469
0.00583295
0.0153423
0.00424919
0.00364216
0.00969813
0.00955426
0.0316141
0.0125781
0.0287264
0.00410979
0.00309589
0.0116739
0.0100086
0.0428398
0.014931
0.0213136
0.00309529
0.00302834
0.0127697
0.00374554
0.0145684
0.0160053
0.00539687
0.0384483
0.00304212
0.0245983
0.0050094
0.0340906
0.00288095
0.0106349
0.00383329
0.00779344
0.00463871
0.00426499
0.0029101
0.0260326
0.0186958
0.0370756
0.00332741
0.00394541
0.00553469
0.00345395
0.0595325
0.009959
0.0118867
0.00323961
0.00615694
0.00479885
0.00976413
0.00316428
0.0404494
0.0132551
0.00434758
0.0249132
0.0233788
0.017373
0.0399188
0.0118317
0.00335129
0.0180939
0.0452565
0.00897287
0.0235805
0.00958465
0.00324233
0.00300342
0.00331339
0.00324119
0.00325735
0.00605999
0.0307337
0.00311266
0.0059486
0.0130251
0.0100528
0.00354526
0.00755284
0.0160495
0.00364343
0.0281063
0.0122753
0.0111007
0.0180547
0.00378143
0.0424018
0.0153364
0.0300567
0.035278
0.0191062
0.040496
0.00632029
0.00421831
0.00616035
0.0301951
0.00567259
0.00461497
0.0383862
0.00400445
0.0103306
0.0246997
0.0392417
0.00764827
0.00820185
0.0312021
0.00359181
0.0376642
0.00298723
0.004045
0.00672398
0.00380938
0.00535369
0.00961992
0.0030283
0.0560305
0.0301387
0.0100295
0.00977736
0.0469633
0.00476804
0.0127869
0.00304017
0.00357745
0.0152804
0.00416497
0.00297477
0.0120623
0.0207473
0.00338538
0.0102648
0.0251803
0.00373814
0.00346992
0.003643
0.0107699
0.00575076
0.00889688
0.0133034
0.00961379
0.0101196
0.00547399
0.0194947
0.00405382
0.00320328
0.00930859
0.00455996
0.00847691
0.00670435
0.0278448
0.0189111
0.00646125
0.00491025
0.00539501
0.00304306
0.00408707
0.00292503
0.00277327
0.228175
0.00754248
0.00307369
0.0357993
0.00464149
0.00441537
0.0364802
0.00392728
0.00326606
0.00955214
0.00317433
0.00312916
0.00309232
0.0179554
0.0106182
0.0245627
0.00826478
0.00335827
0.0317352
0.0333469
0.0206315
0.00699803
0.0242304
0.00430977
0.0033421
0.00328288
0.00364604
0.0127529
0.0179718
0.0040353
0.00349429
0.00789697
0.0129604
0.00388641
0.00324963
0.00291272
0.0292894
0.00261884
0.011192
0.0143612
0.0283246
0.0202137
0.012147
0.00320153
0.0220398
0.00338427
0.00307372
0.00354812
0.00292903
0.00316595
0.00280442
0.00325494
0.00298717
0.00963415
0.0052588
0.00678033
0.0284247
0.0235289
0.00382553
0.00586582
0.0285162
0.00347363
0.00927551
0.00324428
0.00314566
0.00317803
0.00444998
0.0121183
0.00318817
0.122644
0.0106322
0.00318882
0.0700881
0.0034114
0.0273346
0.0134444
0.00390787
0.0151018
0.0255869
0.00381906
0.0041162
0.00395209
0.027835
0.0035091
0.0281979
0.0116161
0.0170961
0.0190807
0.0100087
0.00306776
0.0178006
0.00401693
0.00349671
0.00827966
0.00309409
0.00306167
0.00804014
0.0027981
0.00336218
0.0158085
0.00307418
0.0200323
0.0293005
0.00344991
0.00799013
0.020761
0.00317862
0.00875749
0.0141651
0.00772808
0.0438669
0.00323252
0.00343312
0.00792315
0.0325295
0.0209344
0.0102855
0.0205368
0.00533287
0.00584169
0.00959155
0.0439979
0.00811116
0.00317957
0.00866753
0.00323302
0.00333788
0.0277448
0.00398792
0.00306961
0.00792557
0.00485358
0.029121
0.00756839
0.00413882
0.002582
0.0174114
0.00386176
0.0119883
0.00816723
0.0372604
0.00740236
0.0128523
0.0255096
0.00684545
0.0255167
0.00363163
0.0088231
0.00299355
0.0660986
0.00269451
0.0107535
0.0216055
0.0103496
0.00508658
0.0364345
0.00367452
0.00413819
0.0228016
0.0523441
0.0223802
0.0027932
0.00422022
0.00317963
0.00967255
0.0237416
0.00436461
0.034904
0.00883519
0.00321922
0.00826242
0.0219952
0.00458511
0.0381261
0.012975
0.00389962
0.00307741
0.0371809
0.004052
0.00652145
0.0204875
0.00325332
0.00384068
0.00242588
0.00767966
0.0107654
0.0203279
0.00339035
0.00417984
0.0372907
0.0269128
0.0197625
0.00310027
0.0110279
0.0035813
0.0231204
0.00306571
0.0284745
0.00526606
0.0154899
0.00334331
0.0030765
0.00478566
0.0051118
0.0356548
0.030341
0.0045008
0.00542054
0.0346858
0.0288728
0.00349553
0.00390391
0.00364064
0.00949713
0.00527173
0.00296648
0.00336839
0.0187182
0.0129706
0.0175856
0.00446496
0.0130289
0.030108
0.0284472
0.00282132
0.00824732
0.010807
0.00367359
0.00359948
0.0351979
0.0032998
0.00318593
0.0251621
0.0359676
0.00330638
0.00273197
0.0363232
0.0511179
0.00288593
0.0099135
0.0382376
0.016638
0.0028411
0.0029698
0.00321771
0.00558734
0.00325588
0.0341667
0.0294679
0.00312288
0.00316203
0.0100294
0.00408448
0.0228501
0.0208318
0.0223492
0.00697925
0.0482878
0.00394855
0.00481132
0.0109859
0.0194649
0.0411654
0.00306536
0.00271345
0.00704929
0.00303194
0.00906706
0.00369778
0.0235349
0.019828
0.210903
0.00880893
0.00476098
0.00967807
0.0217071
0.0120675
0.0074073
0.00452093
0.0111012
0.00385538
0.00300563
0.00911112
0.0214051
0.0332553
0.00364219
0.0348703
0.00716021
0.006633
0.0124581
0.0366845
0.00452601
0.0180032
0.0474513
0.0397353
0.00564141
0.00299171
0.00597863
0.00586312
0.0132779
0.00860561
0.0518596
0.0276359
0.0248211
0.00291279
0.00968248
0.00462283
0.00886448
0.0090372
0.00574692
0.0390494
0.00710814
0.0380845
0.00337963
0.00847901
0.0330611
0.00284333
0.0111278
0.00583541
0.0122106
0.0216794
0.0390154
0.00389544
0.0232963
0.00332925
0.00320077
0.00665233
0.0170482
0.0348196
0.00879897
0.0254099
0.00367521
0.00366791
0.00327153
0.0224447
0.00368414
0.00372797
0.00390213
0.00359683
0.0398413
0.0234321
0.00331485
0.00859087
0.0176567
0.00303743
0.00648123
0.0061175
0.0101847
0.0277512
0.131958
0.0243023
0.0038142
0.00321068
0.00669527
0.0365838
0.0285489
0.00424063
0.00727804
0.016701
0.00288059
0.00362115
0.00341844
0.00313101
0.00285703
0.00349342
0.00484727
0.00807795
0.00758852
0.00800587
0.015237
0.0179432
0.00286123
0.00587916
0.0290987
0.0213444
0.00286921
0.0311166
0.00436318
0.0105051
0.00314343
0.00444128
0.00788458
0.00282838
0.00316226
0.0032707
0.020806
0.023669
0.0040508
0.00280397
0.0381881
0.0128936
0.00666878
0.00312394
0.00499095
0.0489586
0.00942798
0.00531988
0.0138421
0.00289483
0.00730336
0.0415811
0.00645807
0.0347329
0.0115183
0.0461714
0.00373501
0.0041132
0.00291258
0.0398667
0.0210891
0.0131047
0.00387133
0.0236956
0.0228151
0.0113674
0.00312185
0.0287803
0.00263273
0.00405232
0.0172197
0.0181464
0.0233163
0.00332644
0.00284075
0.00452011
0.0067867
0.0102313
0.00995532
0.0103922
0.0318272
0.0327474
0.0265689
0.0116231
0.00299674
0.0301094
0.0491669
0.022639
0.0361465
0.00401531
0.0341397
0.0032129
0.00314435
0.00459827
0.0172895
0.00349937
0.0289937
0.018369
0.00304101
0.00333014
0.00702157
0.0098825
0.00333797
0.0388901
0.00582118
0.00382431
0.0032225
0.0113382
0.00386601
0.00279104
0.00930446
0.026806
0.035228
0.00934872
0.0030223
0.031575
0.0132654
0.00306961
0.0268893
0.0288567
0.0100287
0.0446429
0.0158732
0.0406497
0.0234525
0.0285558
0.0423351
0.027731
0.0446784
0.00898198
0.0138493
0.00305864
0.0424927
0.0028843
0.00607156
0.00418259
0.00762233
0.00407518
0.0302435
0.00353698
0.0107085
0.0114747
0.00301971
0.00587172
0.0502888
0.007454
0.012826
0.0311513
0.0323024
0.00496511
0.0114452
0.0347701
0.00444028
0.0050074
0.00296655
0.00335243
0.023044
0.00738271
0.0127067
0.0111007
0.00496829
0.00484036
0.00332456
0.0113662
0.00379888
0.00556712
0.0105824
0.00927116
0.00890889
0.00715318
0.0121608
0.00321616
0.00562388
0.0433069
0.00506943
0.047706
0.119761
0.0215693
0.00490684
0.00516381
0.00794477
0.00395092
0.00752098
0.0147205
0.00803956
0.0450763
0.0372234
0.0548908
0.0207509
0.0216898
0.00324807
0.0229769
0.0074136
0.0341154
0.0313821
0.00294809
0.0210676
0.00385239
0.00613385
0.00349187
0.0282432
0.0238205
0.0064914
0.00445481
0.0431637
0.00517319
0.0192571
0.00899091
0.00295303
0.00409205
0.00309752
0.0100273
0.0104608
0.0126903
0.0168806
0.0282754
0.0237393
0.0323726
0.00857419
0.00303256
0.0149274
0.0194046
0.0101347
0.00402063
0.0039916
0.0208185
0.00533517
0.0343863
0.0170894
0.00420477
0.0230436
0.0135785
0.0109541
0.00703431
0.00939299
0.00450228
0.0114037
0.00988348
0.00337876
0.00839792
0.0034179
0.0382322
0.0395022
0.00624337
0.00957703
0.00434746
0.00863747
0.0105095
0.0429868
0.00556778
0.00597401
0.00467412
0.0118336
0.0252598
0.0198667
0.024384
0.0066864
0.0178981
0.00921947
0.0385503
0.00737227
0.0250421
0.0139319
0.00325736
0.0206133
0.00404767
0.00388539
0.0270434
0.0341066
0.00784792
0.0673794
0.0041364
0.00342502
0.0128998
0.00452915
0.0180136
0.00731433
0.0311606
0.00882268
0.00675381
0.00290606
0.0478532
0.00357172
0.00628944
0.0137279
0.0054793
0.0288677
0.00360122
0.0301718
0.00433282
0.00669526
0.00482246
0.00558347
0.0252154
0.0378615
0.00583544
0.00295244
0.0258421
0.00889785
0.0309038
0.006216
0.0194902
0.0417212
0.0108031
0.00454692
0.0124395
0.00309339
0.00772301
0.00479288
0.0316619
0.00314312
0.0292103
0.0146746
0.00326635
0.00322607
0.00640313
0.0397616
0.0232369
0.00333831
0.00327772
0.00469976
0.00433607
0.00417188
0.055362
0.0051394
0.00492994
0.00585914
0.0217607
0.00600793
0.00322032
0.00588772
0.00318046
0.00345175
0.0202378
0.00400756
0.0237789
0.00410365
0.0109003
0.00573807
0.00409465
0.00303755
0.00322866
0.0282071
0.00274624
0.0209513
0.0338364
0.00620595
0.022249
0.00397127
0.0409651
0.021409
0.0225119
0.0136572
0.00638733
0.031179
0.0310598
0.00502866
0.0111686
0.00292134
0.00966726
0.0383865
0.0124998
0.0262819
0.00831699
0.00429808
0.0211022
0.00438465
0.00286177
0.00355762
0.00352581
0.00287169
0.00357982
0.00296565
0.0043452
0.019529
0.0441679
0.00478212
0.0461059
0.00702738
0.00692024
0.0134643
0.0029592
0.00617233
0.0267808
0.00311215
0.0251242
0.0105243
0.0184918
0.00559756
0.00294397
0.0139761
0.00911437
0.0247875
0.00646354
0.00701808
0.0122685
0.00484971
0.0480251
0.0338529
0.00281376
0.00636735
0.00324552
0.00954747
0.0545886
0.00296035
0.0178546
0.0028299
0.00392071
0.0298125
0.00403631
0.00326437
0.0286603
0.0205769
0.00290876
0.0100888
0.0370736
0.00388957
0.0225647
0.0373668
0.0108958
0.00303083
0.00307747
0.00476271
0.00342712
0.00449191
0.00321771
0.00793479
0.00913665
0.00296753
0.0044759
0.0429674
0.0274793
0.00675684
0.00348473
0.00739456
0.0386659
0.0349171
0.00448522
0.0244635
0.00422253
0.00346577
0.00305625
0.0242274
0.0141086
0.00319175
0.00796263
0.00432003
0.00492675
0.0203651
0.0298244
0.00319838
0.0334429
0.0164334
0.0295034
0.0248677
0.00328353
0.00309792
0.00444521
0.00895363
0.0113516
0.0114793
0.00323987
0.00418276
0.0215869
0.00266688
0.00365997
0.00369415
0.0356647
0.00653166
0.0355849
0.0116106
0.0238137
0.00376594
0.00472129
0.0117405
0.0304114
0.0132552
0.0176144
0.0473236
0.00405159
0.0371132
0.0208486
0.0032071
0.00345009
0.00293533
0.0275926
0.00882649
0.0225276
0.00302573
0.00381696
0.00329586
0.00311241
0.0253383
0.00464277
0.00750077
0.00303512
0.00314517
0.00324161
0.00350978
0.00313109
0.0427029
0.0286926
0.00769051
0.00289741
0.00462067
0.0255441
0.00305711
0.0193846
0.0067281
0.00488554
0.0127202
0.0206364
0.0195229
0.0457521
0.00383869
0.00466219
0.0204282
0.00696391
0.0437627
0.00404357
0.00262467
0.0391086
0.00709587
0.00600043
0.00340748
0.0917425
0.0458036
0.0312924
0.0167327
0.0189342
0.0367657
0.0306645
0.0426751
0.0130184
0.0035274
0.0053492
0.00396604
0.00646908
0.0397229
0.00361134
0.00743657
0.0478444
0.0473036
0.0333256
0.011939
0.0245163
0.00382439
0.0149037
0.00310866
0.00804689
0.0247532
0.012603
0.00395284
0.0030487
0.00432569
0.00354897
0.00327318
0.0229124
0.00880954
0.00403386
0.00402343
0.0529585
0.013451
0.00892552
0.0063876
0.00754977
0.00308212
0.0198999
0.0338654
0.0404607
0.0103754
0.00293102
0.00254903
0.00431096
0.0186838
0.00878011
0.0245465
0.0102739
0.003393
0.0250259
0.0187094
0.00326536
0.00445223
0.0038629
0.0034492
0.0120632
0.0167465
0.00429272
0.00959778
0.00672413
0.00473974
0.00571769
0.00338252
0.0137653
0.0048033
0.0427839
0.0328388
0.0464381
0.0111442
0.00730387
0.00981856
0.0248743
0.00416708
0.0236403
0.0200566
0.0418895
0.00722382
0.00265746
0.00314066
0.0412495
0.0193837
0.0238315
0.0357779
0.0201276
0.0027462
0.00260474
0.0310935
0.0270673
0.0204528
0.00302899
0.00255352
0.00468278
0.0111987
0.0037949
0.00469337
0.01045
0.0282408
0.00284391
0.00488918
0.00481279
0.00683986
0.00450683
0.00303773
0.014999
0.00683555
0.0164637
0.00960985
0.00330591
0.00299605
0.0502968
0.00323262
0.0360039
0.00365021
0.00407708
0.0033196
0.00359346
0.0216106
0.0383673
0.0211792
0.00323626
0.00302612
0.00621791
0.00318796
0.0345947
0.0116912
0.00348594
0.00300173
0.00825406
0.024708
0.0150829
0.00835922
0.003007
0.00345855
0.00350387
0.00265769
0.00392303
0.00435657
0.0121321
0.00325185
0.00348737
0.00444255
0.0121167
0.0284954
0.0385293
0.0150125
0.00900867
0.00278662
0.0028599
0.0327618
0.00825375
0.005061
0.00545511
0.010899
0.00342668
0.00468409
0.00581877
0.00260027
0.00969644
0.00558173
0.0220158
0.00819798
0.00467332
0.0372521
0.00637412
0.00415095
0.00532234
0.00346654
0.00284108
0.0370562
0.0033854
0.0130406
0.00295245
0.0152831
0.00305153
0.00600171
0.0113456
0.00666798
0.0377196
0.00630907
0.0242757
0.0270753
0.00443236
0.0343813
0.00319304
0.00369623
0.00289376
0.0235267
0.0100125
0.0391159
0.00553709
0.0279934
0.0107178
0.00379846
0.0031382
0.00293949
0.0043292
0.00395056
0.00301527
0.00407525
0.00375644
0.0039987
0.0238744
0.0103337
0.00271963
0.00270506
0.0192507
0.00427432
0.00340625
0.00296208
0.0374609
0.00537096
0.0372455
0.00276918
0.0315604
0.0275152
0.00764917
0.00560511
0.0050536
0.00749008
0.029231
0.00350626
0.029854
0.0297871
0.00404338
0.022663
0.0130502
0.00587634
0.00367374
0.0400896
0.0192023
0.0302731
0.00327412
0.00357965
0.0176388
0.0037411
0.0114701
0.018265
0.00515731
0.0264599
0.00522574
0.0041929
0.00310885
0.00334124
0.00304066
0.00267427
0.00687412
0.00250317
0.00409195
0.0033566
0.00886483
0.0104566
0.00264309
0.0142181
0.00407982
0.00431896
0.00390702
0.00459164
0.00268188
0.00507076
0.026571
0.00364783
0.00267924
0.0193225
0.00682534
0.00289608
0.10604
0.00378067
0.00335125
0.0111064
0.00615563
0.0221442
0.00787193
0.00285559
0.00409066
0.010839
0.022095
0.0189928
0.00615938
0.025365
0.0310777
0.0325183
0.0049669
0.0028688
0.00259271
0.00539194
0.00435177
0.00488083
0.0183674
0.0086398
0.00281027
0.00258734
0.00270715
0.0026537
0.0344833
0.0505349
0.0436577
0.0165185
0.00423183
0.00323265
0.00288268
0.0122345
0.00411581
0.00325585
0.0402015
0.00293196
0.00367171
0.00293738
0.00319418
0.0155563
0.0214145
0.00705021
0.0225078
0.00349818
0.00456871
0.010302
0.00409135
0.0110691
0.0178784
0.00980584
0.00296817
0.0125597
0.00625286
0.00309727
0.0192426
0.0258536
0.00346742
0.00303346
0.0203897
0.026812
0.0115399
0.0371605
0.00286898
0.00728629
0.0210518
0.00273131
0.00288513
0.00297839
0.00614122
0.00345045
0.00387682
0.00371159
0.0046942
0.0124513
0.00453835
0.016671
0.0145184
0.0217217
0.00290919
0.00766569
0.00365444
0.00513292
0.0112222
0.00948109
0.0403033
0.00957282
0.041085
0.0114359
0.0047559
0.00380984
0.00295822
0.00375226
0.0289467
0.023415
0.00360122
0.0142425
0.0173416
0.00613954
0.0246321
0.00286876
0.00457601
0.00345106
0.00747218
0.00346234
0.00697324
0.00394342
0.0272473
0.0032103
0.0294182
0.0305642
0.0177019
0.00535636
0.00704963
0.00294525
0.0301424
0.00718176
0.00407808
0.00964157
0.0135303
0.0121018
0.0266251
0.0191833
0.0258162
0.0174744
0.0025031
0.0219649
0.00397926
0.0189829
0.0429771
0.0110617
0.0248795
0.0515003
0.0387644
0.00503498
0.00767642
0.00337576
0.0175707
0.00289897
0.0282528
0.00799357
0.019328
0.00418619
0.00343579
0.0430877
0.00556393
0.00388353
0.00390422
0.00551758
0.00577627
0.00347197
0.00369755
0.00339694
0.00484084
0.0274143
0.0119281
0.0228899
0.00384727
0.0354891
0.0121405
0.00402203
0.015512
0.00870278
0.04262
0.00791762
0.00934333
0.0028777
0.00635817
0.00330257
0.00506586
0.00316738
0.0053042
0.0025655
0.0211179
0.0219709
0.00385097
0.00367784
0.00517065
0.00407726
0.00351269
0.0044571
0.00432025
0.0296277
0.00404113
0.00284958
0.0294284
0.00634539
0.029597
0.00582546
0.0167914
0.0240016
0.00368646
0.0260957
0.0283738
0.0389736
0.0324673
0.0284586
0.00308965
0.00999713
0.00288507
0.00557502
0.0188845
0.00355635
0.00298165
0.00339851
0.0400127
0.00447456
0.00832665
0.00766611
0.0039293
0.0321987
0.0307441
0.00446246
0.0276193
0.00300305
0.0230646
0.006611
0.0166424
0.00273149
0.00275707
0.00357138
0.025149
0.0388706
0.0277747
0.00392957
0.0194383
0.0512027
0.00765835
0.0110396
0.0318881
0.0103385
0.0191476
0.00589635
0.004289
0.00293515
0.00422901
0.0956125
0.0086247
0.0381259
0.00286444
0.00403454
0.00664769
0.00372122
0.011524
0.00825949
0.0387947
0.00450091
0.00977743
0.00290105
0.0031382
0.0198236
0.0466797
0.00307382
0.00354956
0.00307923
0.0172688
0.00514215
0.0383806
0.0266783
0.023902
0.00316282
0.031984
0.00802847
0.044225
0.0226372
0.00464393
0.0221627
0.0283399
0.0292108
0.00430359
0.0040451
0.00326895
0.0212974
0.00577252
0.00297247
0.00694462
0.00711586
0.00436375
0.00308281
0.00314538
0.0381062
0.00409904
0.0135602
0.0165809
0.023707
0.00295804
0.0030916
0.0103312
0.00448142
0.0465857
0.00784345
0.00611508
0.0424894
0.00344634
0.00348556
0.00442833
0.0196917
0.00293576
0.021431
0.00276173
0.0194537
0.0398728
0.00306242
0.00327477
0.0175145
0.00440898
0.00332827
0.00302443
0.00291119
0.0199435
0.0310679
0.00320302
0.00439235
0.00448617
0.00371027
0.0219439
0.00522175
0.0202053
0.0172619
0.00356187
0.00333236
0.00988066
0.00424253
0.00706919
0.0268274
0.0655847
0.00299197
0.00377023
0.0219882
0.0327503
0.0124895
0.00439993
0.00472055
0.0398341
0.011599
0.00370773
0.00306206
0.0036081
0.0042161
0.00791331
0.00279461
0.00402087
0.00327661
0.0119552
0.0295162
0.0390741
0.00693487
0.00887285
0.00424263
0.00377435
0.00310258
0.00335192
0.0029182
0.0034886
0.00373235
0.00313547
0.0096484
0.00366681
0.00375021
0.0107493
0.00363431
0.0107025
0.0299356
0.00673077
0.00517946
0.00553477
0.00631642
0.00553527
0.0113319
0.0216665
0.00436098
0.00395069
0.00458346
0.00715353
0.034426
0.00700523
0.00941569
0.0379525
0.00490915
0.030393
0.00686006
0.00400606
0.00460402
0.0052959
0.00825903
0.0266933
0.0351647
0.0661029
0.00321016
0.0223841
0.00366991
0.00352118
0.0240716
0.00290928
0.0104723
0.00289772
0.00707217
0.00671213
0.0147444
0.00261633
0.00297132
0.0459977
0.00358223
0.0270243
0.047367
0.00525653
0.0176717
0.00315462
0.00334172
0.00307743
0.00930429
0.0130461
0.00451754
0.00336657
0.00454403
0.0205868
0.0347929
0.00698346
0.00396403
0.00783887
0.00308431
0.0128619
0.0103708
0.00348578
0.00323519
0.00332344
0.0113215
0.00858186
0.0122482
0.00565669
0.00451263
0.00803248
0.0093169
0.0273972
0.00421027
0.00461816
0.00371054
0.00343202
0.00443102
0.00288094
0.0261768
0.0065571
0.0142125
0.0208114
0.00374896
0.0139783
0.00274157
0.00310852
0.00444024
0.0384891
0.00988263
0.0044213
0.00297662
0.0189915
0.00363529
0.0137796
0.00574513
0.0132116
0.00813467
0.00388473
0.00331587
0.0479257
0.00508601
0.00317483
0.0036363
0.0109258
0.00411096
0.00377214
0.13229
0.00267576
0.0238379
0.00440934
0.00312734
0.00341817
0.00735561
0.0107732
0.014704
0.0188565
0.0275349
0.00311186
0.00311038
0.0884408
0.0259541
0.00443687
0.00485787
0.0208851
0.0091535
0.00469561
0.00508712
0.00455226
0.0416579
0.00375567
0.020405
0.0240276
0.00329784
0.0204667
0.0123792
0.0355159
0.0232812
0.0127518
0.0208445
0.00660941
0.0198808
0.00773254
0.0293444
0.0372858
0.0065627
0.0306898
0.0185824
0.00458936
0.032813
0.00436551
0.0198138
0.0161991
0.0217242
0.0028782
0.0316527
0.029543
0.00560604
0.00433657
0.00629635
0.022895
0.00537908
0.0122507
0.00635521
0.0169007
0.00990264
0.00278035
0.0103687
0.00293426
0.00508214
0.00552324
0.00305817
0.0490891
0.00619833
0.00725519
0.00387474
0.0332926
0.00716037
0.0490996
0.0101703
0.0104627
0.00332472
0.00383781
0.00786694
0.00417799
0.0206743
0.00314061
0.00346103
0.0132919
0.00264342
0.0167242
0.00365816
0.00550511
0.01854
0.0150043
0.0166749
0.00304594
0.00444577
0.0180829
0.00561451
0.00693091
0.042092
0.00350721
0.0384703
0.023786
0.00804471
0.00412108
0.00497224
0.0204404
0.00315099
0.00359063
0.00988659
0.0197043
0.0122232
0.0301604
0.00446498
0.0115105
0.00555304
0.011204
0.00310928
0.00484132
0.027104
0.00546688
0.003097
0.0111195
0.0491848
0.0166645
0.00460555
0.0206587
0.0119293
0.0189727
0.0048997
0.011763
0.0222587
0.021706
0.00288137
0.0374195
0.00404074
0.0324889
0.00308396
0.00988297
0.00385121
0.0282998
0.0046844
0.00287021
0.00387544
0.00307065
0.0101397
0.042916
0.0424788
0.0312733
0.0489896
0.00410489
0.0279383
0.00286309
0.00416429
0.00627772
0.00354952
0.0357808
0.0185625
0.0209829
0.00413024
0.0312511
0.00429473
0.0103428
0.00498016
0.0183483
0.0278838
0.0323385
0.00391201
0.0204945
0.00321269
0.00625965
0.00633813
0.0206987
0.0212534
0.00695271
0.00970399
0.0236629
0.00320586
0.00391514
0.0132865
0.0103716
0.00468663
0.00350459
0.00384647
0.00298016
0.00324186
0.00936368
0.0127691
0.00334823
0.0497215
0.0320051
0.00604923
0.00391846
0.00280295
0.033161
0.0229896
0.0026715
0.0101671
0.00263196
0.0261707
0.00272994
0.00284271
0.00390763
0.0186585
0.0127071
0.0350097
0.0387125
0.00705331
0.0413329
0.00602921
0.0145168
0.00614858
0.00549289
0.00344776
0.0356226
0.0551937
0.00315624
0.0058889
0.0284893
0.0034382
0.00392027
0.0291986
0.0403808
0.0438549
0.0241175
0.0144574
0.0393812
0.0118872
0.00300149
0.0281852
0.0452135
0.00666764
0.00390794
0.00323143
0.00449093
0.01029
0.0523837
0.00291967
0.0262189
0.0033708
0.0227955
0.00927672
0.00627009
0.00915762
0.0076006
0.0299915
0.00312339
0.0102698
0.00284153
0.0373825
0.00690559
0.0212964
0.00948357
0.0160205
0.0344324
0.00821019
0.00838668
0.00714017
0.0142394
0.00421757
0.0223098
0.0286554
0.0224215
0.0056751
0.00784428
0.00580674
0.0288625
0.00787264
0.0376888
0.0524197
0.00487863
0.00289828
0.0210962
0.0271963
0.0112998
0.00323862
0.00696341
0.00379765
0.00644222
0.00513695
0.00389296
0.00454829
0.00280445
0.0205328
0.0401853
0.00624773
0.00305392
0.00302764
0.0110931
0.0478142
0.010554
0.0033041
0.0197237
0.00961656
0.00704328