/*--------------------------------*- C++ -*----------------------------------*\
| =========                 |                                                 |
| \\      /  F ield         | OpenFOAM: The Open Source CFD Toolbox           |
|  \\    /   O peration     | Version:  2406                                  |
|   \\  /    A nd           | Website:  www.openfoam.com                      |
|    \\/     M anipulation  |                                                 |
\*---------------------------------------------------------------------------*/
FoamFile
{
    version     2.0;
    format      ascii;
    arch        "LSB;label=32;scalar=64";
    class       volScalarField;
    location    "54";
    object      k;
}
// * * * * * * * * * * * * * * * * * * * * * * * * * * * * * * * * * * * * * //

dimensions      [0 2 -2 0 0 0 0];

internalField   nonuniform List<scalar> 
59516
(
0.000362941
0.00072954
4.35587e-05
0.000172194
0.00753737
0.0173738
6.61388e-05
0.00037127
0.000123095
0.00283161
0.00339442
0.00260835
0.000163135
0.00706957
0.00234971
0.00249028
0.000584611
0.00420105
0.000857585
0.000124237
0.00448122
1.16695e-05
0.000107919
0.00402274
2.11258e-06
0.00201886
0.00391214
0.00555667
0.00285542
0.00575665
0.00702681
0.00518717
1.16448e-05
0.00027549
0.000766328
1.83684e-05
0.00559871
0.00421521
0.0011219
1.95815e-05
0.000326989
0.00261924
0.000673343
0.000556811
0.000227867
0.00253573
0.000409659
0.00145491
0.0075915
0.00146089
0.00901534
0.00350515
4.36001e-05
4.58624e-05
0.00405425
0.000372329
0.00329044
0.00377582
0.000194627
0.00105869
6.55978e-05
0.00534629
0.000213357
0.000543512
0.000217517
0.000417154
0.00663279
0.00350928
0.00615467
9.5711e-05
0.00516802
0.000182201
0.00569484
5.5805e-05
0.000439302
0.000590384
0.00114479
4.0397e-05
0.003327
0.00133386
0.00383104
0.000839669
0.000560708
0.00567431
0.000917301
0.000396872
0.00390504
1.53157e-05
0.00239265
0.0023729
0.0053216
0.000103489
0.000180426
7.91798e-05
0.000194177
0.00778322
7.70488e-05
0.0024524
0.00327867
5.04775e-05
0.00391377
0.00566954
0.0055413
0.0023825
2.32152e-05
0.000139497
0.00395119
0.000175773
0.000474022
0.00216573
0.00464288
0.00460368
0.00237439
0.00452872
8.16511e-05
0.00043539
0.00233923
6.27537e-05
0.00527693
4.11729e-05
0.000596423
0.000281648
2.16751e-05
0.000244636
0.00396587
0.00135953
0.00598705
0.00241278
0.0105238
0.000379363
0.000464919
0.000207869
0.00533774
4.66646e-06
0.000594577
5.86019e-05
0.00443243
2.29914e-06
0.00372982
0.000793818
0.00342448
0.000313523
0.00563382
3.94793e-05
0.000444526
2.12714e-05
0.000297828
0.000233625
0.0198318
0.000278283
0.00069726
0.00372598
5.90555e-05
2.91452e-05
0.000747935
0.00602344
0.000216364
0.000109752
0.000997667
0.0056908
0.00220291
0.00207503
0.00403771
0.00672866
0.000436817
0.000213049
0.00220617
0.000346688
0.00555569
0.000184502
0.00093462
0.00258044
0.00167333
7.20271e-06
0.00309771
0.000533356
0.000204175
0.000912365
0.0020559
0.00360654
9.22273e-06
0.00437288
0.00678514
0.0019617
0.000325325
0.00234703
0.0036174
0.00571053
6.8208e-05
0.000554039
0.000158768
0.00256217
0.000136846
0.00195762
8.71041e-06
0.00404914
0.00234089
0.00347382
0.000451141
1.62142e-05
0.00135475
0.000471768
0.000403086
0.00565905
2.55519e-05
2.24633e-05
0.000453704
0.000196485
0.00594228
0.000303522
0.00292143
0.00737656
2.92688e-05
0.00256016
0.000173725
0.000163065
2.59716e-05
6.16377e-06
0.00258657
3.2383e-05
0.00264081
0.00066279
0.0001719
0.0038416
0.000229602
0.000260351
0.00482042
0.00332722
0.000241752
0.00249521
0.000149622
0.000277553
0.000548021
0.0050162
0.00400644
0.00355023
0.0020587
0.000269954
9.65206e-05
0.00276786
0.000504308
0.00580797
0.00234424
0.00582176
0.00047948
0.000687839
8.24084e-05
0.00217826
8.89326e-05
0.000300835
3.06786e-05
6.47481e-05
0.000606908
7.388e-05
4.6847e-05
7.08646e-05
0.00272859
7.18315e-05
0.00339059
0.0022913
2.67852e-05
0.00011068
0.000274395
0.000231997
0.000351159
0.00229226
0.000134013
0.000744533
0.00348647
0.00245486
0.00087291
0.000250059
0.000446574
0.000785749
0.00011397
0.000697199
0.00502703
5.74049e-05
0.00492799
0.00349619
0.000508813
2.52753e-05
0.00544879
0.000144419
4.73269e-05
0.000473904
0.000422794
0.00563209
0.000543471
0.000824227
0.000292992
3.74671e-05
7.51394e-05
0.000651776
0.00013223
0.00465034
0.000151209
5.41013e-06
0.000631827
0.000313403
5.28349e-05
0.0021801
0.0053995
0.00429681
1.69923e-05
0.00574009
0.00252403
0.0028576
0.000165124
0.000178478
2.56619e-06
0.00219963
0.000447051
0.00394794
0.00286134
0.000168494
0.000602377
0.00821628
0.000910594
0.00352324
0.00234355
0.000414183
0.000321656
0.000510503
0.000690435
4.42886e-05
0.0016477
7.81316e-05
0.000214319
9.56349e-05
3.8893e-05
0.00228916
0.00554174
4.35509e-05
0.00324767
0.00389631
0.000115172
6.44157e-06
0.0029417
0.00028687
4.69181e-05
0.00046536
0.000276681
0.00364196
3.02423e-05
0.000475361
0.00247208
0.000497102
0.000391681
7.81612e-05
0.000121992
6.9855e-05
3.185e-06
0.00139547
0.00418991
0.00379078
0.000685351
0.00602465
0.0111185
0.0010417
0.00027817
0.000103138
0.00269426
2.0877e-05
1.58335e-05
3.54809e-05
6.88246e-05
0.00398898
0.00681991
0.00263119
0.00349623
0.00373916
0.00012994
0.000743794
9.04976e-05
0.00532881
4.70895e-05
0.00371074
0.00022054
0.0025181
0.00215565
0.000191694
0.00365426
0.00578523
0.00244024
3.50326e-05
0.00519932
0.00116077
0.000203353
5.43173e-06
0.000837979
0.000812337
9.09158e-05
0.00648071
0.00048681
0.00351802
0.00225046
0.00225341
0.000380328
0.000302636
0.00236893
1.52361e-05
0.000490883
0.000418941
0.00036948
0.00326275
9.31043e-05
2.54888e-05
1.41876e-05
3.19422e-05
0.00554655
0.00538439
1.88415e-05
0.000273823
0.000507617
0.00383754
0.000240281
0.000260034
0.000443048
0.000348991
0.000477563
0.000284037
0.000245169
0.000535555
0.000440719
0.00218999
0.000198146
0.000373603
7.58753e-05
0.000366414
9.44021e-06
6.98999e-05
0.00340052
0.004034
0.0053502
0.00245489
0.00044543
5.88235e-05
4.018e-05
0.00382453
0.00570568
0.000184165
8.74376e-05
0.000345944
2.93054e-05
1.10331e-05
0.000649341
9.14333e-06
0.0050489
9.57934e-05
0.00226635
0.0118149
0.000149775
0.000718569
4.28302e-05
0.00576041
0.00038532
0.000529129
0.000430396
0.000612363
8.4391e-05
0.000309583
0.000206187
0.000595017
0.00113421
0.000231827
9.15628e-06
0.00532108
0.000373494
0.000135922
0.00328376
0.000492397
0.000160826
4.75163e-05
0.00107116
0.00537378
0.000196602
2.1719e-05
8.59579e-05
4.75498e-05
0.00349601
4.38069e-05
0.00705601
0.000197787
0.00951591
0.000260634
0.00330799
0.000250884
0.000438016
0.00333225
0.000646211
0.000464343
0.00594601
0.000158172
0.000730035
0.00390662
0.00217152
0.00223969
9.29424e-05
0.000557099
0.00976767
0.00237688
0.00229859
0.000102045
0.000595297
0.00528898
2.92961e-05
0.000105873
0.000392846
0.0136548
0.000106904
0.00497433
0.000129331
0.00571175
0.0021994
1.97674e-05
0.00220566
0.00553821
0.0040218
0.00303964
0.00248461
2.34005e-06
0.00260595
0.00206067
0.00475745
0.000356901
0.00490234
0.00025824
0.00624191
0.000253705
0.00259435
0.000342537
0.0026759
9.95597e-05
0.000430707
0.00284616
0.000176435
0.00619884
0.00585418
6.62495e-06
0.000479226
4.01038e-05
6.59045e-05
0.000410759
0.00252804
0.000153258
0.00222419
0.000355064
8.70276e-05
0.00490255
2.1552e-05
0.00332609
0.00493215
1.13819e-05
0.00343025
6.54906e-05
0.000573371
8.2616e-05
0.00228009
0.000337227
0.000894618
0.000438892
0.000178662
0.000452312
0.000483983
0.00337111
0.00261106
0.000316301
4.48878e-05
0.00427675
0.000143377
0.000278967
0.000235677
0.000403169
8.18419e-05
0.0056052
0.0001936
0.000614281
9.6578e-05
0.00043262
0.0047772
0.000644094
0.000846401
3.48164e-06
0.000552805
2.13101e-05
0.00544372
0.00530164
0.000465864
0.000198161
0.000657947
0.000209786
0.000802424
4.42099e-05
0.000331855
0.00498591
0.000573202
0.00308413
0.00389345
0.00210516
6.30474e-06
1.82741e-05
1.88674e-05
4.10845e-05
0.000373149
0.000700672
0.000824147
0.000240733
0.000245222
0.000259532
0.000364945
0.00380306
0.000117951
0.00409499
0.0101767
0.00211756
0.00544038
3.25061e-05
0.00459013
0.000386288
0.000141
2.48532e-05
0.000259193
0.0038319
0.00959739
0.00728993
0.00049837
0.000102889
0.00288923
0.00252422
0.000203476
0.00352684
0.00219451
0.00452074
0.00592696
0.00528815
0.00130935
9.63489e-05
0.0060718
0.00552237
0.000734374
0.00807961
0.00393003
2.25654e-05
0.000151843
2.55965e-05
0.00403437
0.00247315
0.000133642
0.000274583
6.68314e-05
0.00398632
0.00499041
0.0100841
0.00548481
4.48274e-05
0.00512831
0.000488081
0.000418594
7.90109e-05
0.0033973
0.0004995
0.00372845
0.00550464
0.000387722
0.00555318
0.000182899
0.0033614
5.661e-05
1.9497e-05
0.00553316
0.00244454
1.64707e-05
0.00369727
0.000181346
0.00267944
0.000290005
0.000494268
0.00379178
0.0054139
0.00328118
0.00782892
0.000325202
0.00256817
0.000830462
0.00419399
0.000539645
0.00488253
8.42976e-05
2.60968e-07
0.000179621
0.00574206
1.23668e-05
0.00089446
7.55498e-05
0.00278492
0.00836804
1.63869e-05
0.00349814
0.000659839
0.00801211
4.02011e-05
0.00405975
0.0032585
0.00049695
2.79255e-05
0.00388026
0.00015032
0.00226719
0.00524814
0.000368423
0.0090847
6.65743e-06
0.000256049
0.000361702
0.000208061
1.32189e-05
0.00322842
0.00363339
0.000386885
0.00850223
8.11877e-05
5.6315e-05
0.00120093
1.36694e-05
0.000171207
0.00057051
0.000311274
0.00464656
0.00185142
0.00417586
4.36912e-05
0.000295161
0.000720338
0.000414063
0.00556756
0.0010976
0.00263735
0.000265527
0.000385491
0.00886865
0.000137611
0.000912904
0.00955211
7.8572e-05
0.00594628
0.000387837
0.00270435
1.46255e-05
0.00577337
0.000118619
0.00949698
5.58075e-05
0.000119431
5.60459e-05
2.2296e-05
0.000439972
0.00374192
0.0033409
0.00403916
0.00045798
0.000101851
6.97732e-05
1.47565e-05
0.00629112
0.000825652
0.000858255
0.000370318
5.36665e-05
8.07414e-05
0.000678817
0.000553714
0.00545554
0.000790684
0.000140192
0.00484295
0.00319565
0.00210757
0.00540779
0.00102381
0.000150168
0.00218117
0.00558843
0.000319787
0.00458101
0.000319596
0.000348341
0.000646352
0.000339373
2.50295e-05
0.00041652
8.66599e-05
0.00380929
0.000316022
2.50434e-05
0.000855693
0.000823752
0.00018378
0.000123495
0.00181866
7.51506e-06
0.00383719
0.000816094
0.000573005
0.00228966
3.51015e-05
0.00727964
0.00183111
0.00392925
0.00568646
0.00218798
0.00555459
5.2009e-05
7.93994e-05
5.65651e-05
0.00348512
5.13439e-05
6.84254e-05
0.00576306
0.000112158
0.00560578
0.00331378
0.00560178
9.69885e-05
0.000244329
0.00513272
7.89582e-05
0.00548153
0.000274385
9.71003e-05
0.000125567
1.72817e-05
0.000335778
0.00053318
0.000438007
0.00609638
0.00392868
0.000435549
0.000460545
0.0057156
2.42285e-05
0.0042876
0.00029211
0.00030516
0.00119479
9.35123e-05
0.000726858
0.000847943
0.00340865
0.000250572
0.000409066
0.00389334
0.000144612
0.000532054
9.33731e-06
0.000603304
1.70205e-05
0.00027223
0.000936227
0.000363713
0.000624965
1.02579e-05
0.00209123
0.000246739
0.000443491
0.00878798
1.32635e-06
0.000352385
0.000153691
0.00400195
0.00293136
8.64035e-05
2.25712e-05
1.88836e-05
0.000658206
3.00015e-05
0.000562889
0.000394442
0.0173188
0.000276325
0.000399626
0.00541639
9.7412e-06
9.47834e-05
0.00433984
7.72066e-05
0.00046685
0.000413557
0.00040164
0.000649694
0.000347039
0.00221504
0.00922046
0.00383361
0.00017747
0.000365966
0.00528118
0.0035759
0.00237526
0.000168622
0.00327338
8.49858e-05
0.000318559
0.000224272
3.42819e-05
0.000984773
0.00317524
9.15588e-05
0.000116053
0.000159385
0.000981807
3.47691e-05
0.000617198
0.000443727
0.00411877
0.000172176
0.00070993
0.00111164
0.00411556
0.00236039
0.000675064
0.000380147
0.00299388
0.000211269
0.000109345
0.000249471
0.000398119
0.000135274
0.000313109
0.000360154
0.00049863
0.0086618
1.30558e-05
0.000174271
0.00405246
0.00262087
0.000194756
1.37996e-05
0.00407193
0.000193764
0.000292082
0.000858748
0.000831751
0.000621248
3.59445e-05
0.000668835
0.000510803
0.0151076
0.000602007
0.000575224
0.00741557
0.000572234
0.00375744
0.000897109
0.000282567
0.00187426
0.00365421
0.000339384
0.000191961
1.84176e-06
0.00365794
0.000507174
0.00374012
0.000756082
0.00195643
0.00202275
0.000597974
0.00069021
0.0022501
7.95012e-05
0.000217432
0.000256959
0.000629275
0.000696666
0.000125243
0.000498623
0.000351561
0.00213368
0.000617442
0.00313256
0.00399202
0.00026232
0.00182667
0.0047683
0.000506342
0.00030982
0.00086246
0.00286392
0.00603576
0.000164034
0.000576943
0.000131973
0.00556619
0.00372614
0.000618876
0.00321381
5.93513e-05
0.000113301
0.000504628
0.00552037
0.00015969
0.000138867
0.00219951
0.00081061
0.000553986
0.00264486
0.000181284
0.000491579
0.000206528
8.58947e-05
0.00393222
0.000144706
0.000165703
0.000324626
0.00191317
0.000174531
0.000751173
0.000204168
0.00536957
0.000213013
0.000815353
0.0036522
5.70529e-05
0.0038489
7.78071e-05
0.000346014
0.000349668
0.00774356
0.000476199
0.00073233
0.00226642
0.000625901
6.24082e-05
0.00528085
0.000139231
4.23012e-05
0.00236697
0.00661716
0.00357526
0.000479836
8.33551e-06
0.000327018
0.000753165
0.00233189
5.68102e-05
0.00397197
0.00030389
0.000578603
0.000979633
0.00255849
1.10205e-05
0.00582396
0.000894035
1.87341e-05
0.000599414
0.00465427
7.58611e-05
4.81536e-05
0.00435189
0.000111733
0.000155818
0.000261314
0.00071479
0.000520735
0.00442618
0.000182044
4.97613e-06
0.00574609
0.00366758
0.0032087
0.000195777
0.000800074
0.000160477
0.0024811
0.000189643
0.00481394
1.60317e-05
0.00149721
0.000114792
0.00048132
1.20822e-06
3.1785e-05
0.00418065
0.00399748
5.22691e-05
2.76946e-05
0.00528514
0.00535199
0.000196985
2.88055e-06
0.000118257
0.000364262
2.88561e-05
2.06122e-05
0.000271578
0.00232571
0.00122491
0.00213284
2.52974e-05
0.000966949
0.00402722
0.00529063
0.000200477
0.000204497
0.000418801
0.000179026
0.000112376
0.00397736
0.00016738
0.000378125
0.00390641
0.00573083
0.000327779
0.000296135
0.00451438
0.00586999
0.000251073
0.000525247
0.00578758
0.00124685
0.000254955
0.00014291
0.000343826
3.39397e-05
3.13128e-05
0.00521064
0.00353066
0.000452886
0.00016738
0.000295707
0.000108656
0.00243956
0.00248271
0.00334074
0.000785691
0.00634968
9.41774e-06
5.12327e-06
0.000641318
0.00247314
0.00578304
0.000568443
0.000273344
4.53412e-05
0.000389375
0.000364966
3.21423e-06
0.00371558
0.00274397
0.0173298
0.000307874
2.3395e-05
0.000308327
0.00232976
0.000930167
7.50181e-05
4.33721e-06
0.000747041
9.87674e-06
0.000139439
0.000376823
0.00248562
0.00559909
0.000205558
0.00415578
0.000136838
8.13196e-05
0.000882876
0.00527699
5.02171e-05
0.00205475
0.00554863
0.00547653
6.48975e-05
0.000413128
0.000108929
0.000122867
0.000933503
0.000318891
0.00560524
0.00371141
0.00384078
0.000515982
0.000383625
4.68852e-05
0.000312141
0.000229185
7.06104e-05
0.00622296
0.000112859
0.00529138
8.5872e-05
0.000295541
0.0049848
0.000376277
0.000476996
3.50193e-05
0.000680174
0.00208667
0.00412226
2.42937e-05
0.00367404
0.000699606
0.000850728
0.000144706
0.00158219
0.00413697
0.0026827
0.00376032
0.000279482
0.000245443
0.000343182
0.00282845
0.00016116
0.000219552
0.000109667
0.000101382
0.00431192
0.00363568
0.000176422
0.000224727
0.00229804
0.000575006
9.90528e-05
6.36854e-05
0.000619217
0.00535212
0.0123498
0.00262828
6.41104e-05
0.000176627
0.000258989
0.00522763
0.00371734
1.01565e-05
0.000184523
0.00224123
0.000463369
6.94189e-05
0.000127717
0.000201987
0.000407434
7.18354e-05
7.41996e-05
0.000419474
0.000192075
0.00015949
0.00102529
0.00192605
0.000463869
6.34165e-05
0.00401958
0.00237224
9.62785e-05
0.00300722
2.61192e-06
0.000466324
9.08443e-05
5.76849e-05
0.000134739
0.00021621
0.000184286
5.88508e-05
0.00311249
0.00491504
0.000578166
0.000460234
0.00551021
0.000875014
0.000159075
0.000255493
1.95776e-05
0.00594437
0.000322883
6.11497e-05
0.000963822
0.000185252
0.000151815
0.00588526
8.49229e-05
0.00540476
0.000569266
0.00578121
7.36019e-05
2.44067e-06
0.000195364
0.00560346
0.00264528
0.000725601
1.80011e-06
0.00244433
0.00257667
0.000647676
0.000430751
0.00400065
0.000398373
3.28704e-06
0.00216967
0.00217844
0.00464234
4.86514e-05
0.000326746
9.34328e-07
8.1494e-05
0.000463738
0.000485224
0.000501775
0.00500367
0.00398717
0.00488924
0.000896804
0.000598318
0.00375709
0.00550381
0.00240943
0.00568245
0.000117091
0.00563554
0.000216553
0.000664224
4.79554e-05
0.00218128
0.000574128
0.00374392
0.00243189
0.000580503
0.00013741
0.000112794
0.00924055
0.00019236
0.00552568
7.92559e-05
2.41874e-05
0.000436565
0.000851442
5.06428e-05
0.000221586
0.000649969
0.00290794
0.00413888
0.000354823
0.000491359
0.00406201
0.000869328
1.46679e-05
0.00384396
0.00518502
0.000439183
0.00411081
0.00221677
0.00569799
0.00236325
0.00390235
0.00538766
0.00385214
0.00602831
0.000327296
0.000877896
0.000407768
0.00552599
0.000162076
1.39773e-05
5.15347e-06
0.00023793
0.000111619
0.00385465
9.87245e-05
0.00910991
0.000823198
0.000652298
5.09646e-05
0.00564258
0.00022395
0.000774389
0.00566617
0.00391157
4.29036e-06
0.000574951
0.00505267
7.1543e-05
2.69557e-05
0.000426207
9.30338e-05
0.00346294
4.68395e-05
0.000919434
0.00303701
9.50057e-06
1.28816e-05
0.000288225
0.000663155
1.87084e-05
2.4372e-05
0.00364493
0.000381781
0.000382673
0.000139773
0.000854514
0.000691669
3.27398e-05
0.00632631
2.92873e-06
0.00683668
0.0127663
0.00266388
1.75608e-05
2.35837e-05
0.00425307
8.29586e-05
0.000253853
0.00110832
0.000143243
0.00603531
0.00579417
0.00871742
0.00249813
0.00491703
1.68913e-05
0.00362883
0.000186272
0.00409104
0.00508526
0.000621049
0.00229546
0.000239088
5.04824e-05
0.000330155
0.00395018
0.00371927
4.41203e-05
0.000102047
0.00596332
4.90565e-05
0.00225882
0.000682287
0.000278413
8.24863e-05
0.000363431
0.000413687
0.000555023
0.000869164
0.00293509
0.00350621
0.00281783
0.00396715
0.00027985
0.000172357
0.00207633
0.00235145
0.000465669
6.24344e-06
2.7451e-05
0.00231172
1.51908e-05
0.00504489
0.00255726
1.47247e-05
0.00363505
0.000884863
0.000695152
0.000121435
0.000588312
0.000104448
0.000666493
0.000690121
0.00012702
0.000238459
0.000107587
0.00548679
0.00509518
0.0001396
0.000389728
4.86547e-05
0.000602518
0.000494678
0.00542452
7.73503e-05
3.92787e-05
8.5597e-05
0.000685087
0.0038221
0.00229838
0.00307385
7.75854e-05
0.00209954
0.00035841
0.00546876
4.11453e-05
0.00374629
0.00087845
0.000450481
0.00247077
1.34247e-05
0.000109311
0.00371885
0.00527219
0.000206627
0.00831184
0.000130229
0.000195402
0.000888503
5.31827e-05
0.00117795
0.000166797
0.00512629
0.000360168
4.31455e-05
0.000571707
0.00559178
7.85646e-05
5.29307e-05
0.000893105
7.03221e-05
0.00382452
0.000178757
0.00493026
9.75689e-05
0.000113527
5.16033e-05
1.62525e-06
0.00359789
0.00552621
0.00177257
0.0002985
0.00360796
0.000270241
0.00376865
0.000135698
0.00244789
0.00551882
0.000425782
6.6246e-05
0.000832227
0.000425038
8.27095e-05
2.46802e-05
0.00410028
0.000612663
0.00517022
0.00189741
0.000441668
0.00058413
9.35474e-05
0.00617562
0.00343486
0.00096314
0.000859475
6.83857e-05
1.08616e-05
8.80892e-05
0.00607295
6.75721e-07
5.74687e-05
0.000133876
0.00272431
3.67782e-05
0.000359353
0.0001014
0.000195686
0.00101067
0.00228613
4.21961e-05
0.00348047
0.000168289
0.000703318
4.23884e-05
7.11243e-05
5.94578e-05
0.00040327
0.00378453
0.000526164
0.00249539
0.00537908
6.31054e-05
0.00355693
7.73178e-05
0.00550446
0.00344203
0.00249971
0.0012111
7.92944e-05
0.00359796
0.00518414
0.000107304
0.000927602
0.000220452
0.000382673
0.00531447
0.000843643
0.00380679
0.000235914
0.000150576
0.00224836
0.000127642
0.000169491
4.05301e-05
0.000165833
0.000182328
2.29992e-05
0.00024414
2.07066e-06
0.00449544
0.00587163
1.34935e-05
0.00631526
0.000115695
6.92161e-05
0.0009209
0.000501013
4.84048e-05
0.00386067
0.000625963
0.00245609
0.000689549
0.00319043
8.0961e-06
0.000575563
0.00129117
0.000371454
0.00354559
0.00012239
5.28105e-05
0.000833649
1.9814e-05
0.00568746
0.0053443
0.000179569
9.06946e-05
0.000227011
0.000449336
0.00641518
0.000648548
0.00197485
0.000532086
0.000182134
0.00392925
1.14404e-05
7.97743e-05
0.00393158
0.00464914
0.000571721
0.000716829
0.00551021
5.08525e-06
0.0035297
0.00579318
0.000879416
0.000298657
0.000590917
5.99265e-05
0.000284829
2.55379e-05
0.00043747
0.00019794
0.000279964
0.000193277
3.73222e-05
0.00551643
0.00380876
4.38342e-05
0.000258014
0.000309167
0.00554564
0.00555587
4.27522e-06
0.00480256
5.31106e-05
0.000181328
0.00057308
0.00359587
0.00201625
0.000349024
0.000154751
6.61053e-05
1.20857e-05
0.00228526
0.00528862
0.000247962
0.00562023
0.00305554
0.00377809
0.00350053
0.000110244
0.000610329
2.05697e-05
0.000261181
0.000636421
0.00054954
0.000147482
0.000138414
0.00247688
0.000367852
0.000175789
0.000168796
0.00393569
0.00020905
0.00567025
0.000781189
0.00358674
7.32696e-05
6.71722e-06
0.00945302
0.00497321
0.000715586
0.00244674
0.00570413
1.17203e-05
0.00534935
0.00248745
0.000209256
0.000129801
0.000515446
0.00363859
0.000334201
0.00236223
0.000460967
0.000132461
0.000132626
0.000253343
0.00357268
5.24389e-06
6.64628e-05
0.000593128
7.55678e-05
0.000122925
8.1873e-05
0.000722888
0.00558534
0.0037414
0.000158696
0.000524781
1.08724e-05
0.00329379
0.000242441
0.00217702
2.75808e-05
8.74925e-06
0.000851273
0.00252047
0.00216917
0.00547447
4.63276e-05
6.52677e-07
0.00228737
0.000118063
0.00543396
4.82487e-05
0.000225824
0.00584595
0.000209846
0.000116059
8.47518e-05
0.0099597
0.0061676
0.00431838
0.00225812
0.00212902
0.00573157
0.00523483
0.0060838
0.00086003
0.000211035
9.60917e-05
0.000184933
0.000199692
0.0055653
5.22869e-05
5.92393e-05
0.00558091
0.00571166
0.00566808
0.000942392
0.00498482
6.78833e-05
0.00453726
0.000744227
0.000888642
0.00329376
0.000718773
7.49601e-05
0.000481045
3.43361e-06
7.54922e-05
0.000252855
0.00262999
0.00033034
3.72482e-05
0.000167023
0.00561379
0.00137152
0.000299298
2.52041e-05
0.000213163
0.00039081
0.00217814
0.00403504
0.00585803
0.00054261
0.000664787
0.000285893
0.000131001
0.00312842
0.00026308
0.00273678
0.000362643
0.000166681
0.00335005
0.00317056
0.000397146
3.49373e-05
7.47132e-05
8.44732e-05
0.00101519
0.00196603
1.35874e-06
0.000371857
7.52301e-05
3.45817e-05
2.53651e-05
0.000437485
0.000810924
4.29611e-06
0.00554608
0.00359892
0.00617793
0.000460315
0.000197008
0.00063698
0.0024521
2.3466e-05
0.00308523
0.0021853
0.00538537
8.00095e-05
0.000163817
0.000118071
0.00535632
0.00307091
0.00279167
0.00539496
0.00336761
0.000177141
0.00026596
0.0050358
0.00380043
0.00225968
0.000461233
0.000237902
1.57098e-05
0.000653473
3.69649e-05
3.61545e-06
0.000536946
0.00374415
0.000632603
3.45758e-05
6.09815e-06
9.59872e-05
4.54995e-06
9.91895e-05
0.00138542
0.000133258
0.00236321
0.00403039
8.62034e-05
0.000186769
0.00589159
0.000250363
0.00537986
1.73348e-05
2.34124e-05
0.000122369
0.000156636
0.00243803
0.00582022
0.00245155
0.000597991
0.000427372
0.000194017
9.82023e-05
0.00430205
0.000911001
8.21393e-05
0.000243461
0.000204006
0.00523605
0.0024308
0.000253658
0.000111691
0.00038227
0.00025408
0.000101857
7.70709e-06
4.03274e-06
0.000510221
0.000189921
0.00033773
2.70294e-05
0.000843899
0.00509847
0.00530551
0.00102382
0.000253059
0.00012992
0.000185122
0.00532241
0.000256339
2.06479e-06
9.47665e-05
0.000779044
5.05859e-05
1.51725e-06
3.11364e-05
0.000289689
0.000235809
9.61476e-06
0.00326172
0.000149565
1.31433e-05
0.00550301
6.39693e-05
5.18003e-05
2.31892e-05
6.41611e-06
0.000185113
0.00426923
0.000156418
0.000937319
0.000221662
0.0010853
9.40775e-05
1.02365e-05
0.000856684
3.0708e-05
0.00545912
2.99137e-05
0.00350786
0.00388011
2.7881e-06
0.0051586
0.000319684
0.000113978
0.000163107
0.0024482
0.000614752
0.00549342
1.54762e-05
0.0036566
0.00066935
2.54762e-05
1.24147e-05
0.000179448
3.23518e-05
5.28923e-05
0.000397425
5.56013e-05
5.86395e-05
5.50641e-05
0.00370414
0.000819838
0.000407308
0.000301011
0.00230992
1.53367e-06
0.000105556
0.000137591
0.00534411
4.11514e-05
0.00561297
0.000372499
0.00516635
0.00353382
0.000322845
2.35651e-05
3.6382e-05
0.000227724
0.00465548
0.000140911
0.00522521
0.00484362
1.56645e-05
0.00268673
0.000725215
2.55802e-05
5.07804e-05
0.00551038
0.0022663
0.00391265
0.000324781
0.000149281
0.00204979
6.03996e-06
0.000806041
0.002268
0.00129704
0.00495488
3.42094e-05
0.00018024
0.000250942
1.09541e-05
0.000286556
0.000127412
6.56814e-05
0.000349822
2.657e-05
0.000421218
0.000448431
0.000785905
0.000213882
0.000976308
0.000119248
1.12178e-05
8.66219e-05
5.19015e-05
0.000277581
6.096e-05
0.00380842
0.000104327
0.000290873
0.00207181
8.46392e-05
0.000512174
0.0103893
7.33983e-05
0.000221756
0.000675606
5.15923e-05
0.00343446
0.000191254
0.000100715
8.55673e-05
0.000692831
0.00248558
0.00243909
4.02169e-05
0.00360103
0.00403544
0.00576112
4.2574e-06
7.93152e-05
0.000257468
2.11833e-05
4.28059e-06
6.43245e-06
0.00263832
0.000250638
0.000196679
0.000209611
0.000432617
0.000439636
0.00422319
0.00604188
0.00573426
0.00191111
0.000131209
0.000444578
0.000380146
0.00083659
8.7906e-05
0.000150869
0.00556324
0.000638305
0.000225582
0.00022724
0.000498416
0.00224524
0.00270318
5.50482e-05
0.00329889
7.9785e-05
1.65203e-05
0.000504991
5.65864e-05
0.000747141
0.00192439
0.000519187
0.000553666
0.000695517
0.000105573
0.000296878
0.0025699
0.00369258
0.000265045
0.000580414
0.00238492
0.00394416
0.000757767
0.00515628
0.000204749
0.000168505
0.00322419
0.000318463
0.000486561
4.61775e-05
4.27456e-05
0.000172409
3.7779e-05
0.000149041
6.64148e-05
0.000911594
6.63286e-05
0.00202411
0.00114512
0.00239713
0.000295509
0.000262633
0.000231905
4.84927e-05
0.000670089
0.00057546
0.00539947
0.000672746
0.00542144
0.000840264
3.47332e-05
5.87706e-06
0.000131237
1.615e-05
0.00387612
0.00383532
0.000165259
0.000859417
0.00276215
0.000100715
0.00357531
0.000106576
5.51212e-06
2.96702e-05
0.000120099
0.00018365
0.000184569
0.000114686
0.00357832
0.000287488
0.0040643
0.00388374
0.00211299
4.85954e-06
0.000190343
0.000602075
0.00400839
0.00330088
5.44806e-05
0.000540098
0.000831474
0.000823451
0.00370201
0.00299538
0.00373073
0.002113
0.000221789
0.00254957
2.95897e-05
0.00208923
0.00507986
0.000659372
0.00336825
0.00629511
0.0055484
9.90072e-05
8.97663e-05
0.000284338
0.00216334
0.000619832
0.00424398
0.000210926
0.00199493
0.000102872
4.50119e-05
0.00590121
1.81051e-05
0.000195866
0.000111261
7.67004e-05
9.81809e-06
0.000274771
2.90636e-05
0.000163218
2.81021e-05
0.00538291
0.000806592
0.00246014
2.28794e-05
0.00429181
0.000945285
9.9817e-07
0.00137994
0.000261358
0.00534007
0.00013969
0.000299023
0.000284193
5.05572e-05
7.41601e-05
4.01665e-05
7.99631e-05
2.65977e-05
0.000297488
0.00239967
0.00246269
1.41334e-05
0.000232247
2.17225e-05
2.5371e-05
0.0001307
9.87133e-05
3.10805e-05
0.00389244
1.73658e-05
0.000429297
0.0043
4.33523e-05
0.00440466
5.18918e-05
0.00201824
0.00352527
1.31966e-05
0.003455
0.0050716
0.00535136
0.00406952
0.00367961
0.000227362
0.000595975
0.000405185
1.08899e-05
0.00231296
0.000109811
0.00047096
0.000122545
0.00560556
5.30594e-06
0.000276697
0.00012967
0.000100477
0.00506529
0.00379439
6.84259e-06
0.00528754
0.000350951
0.00367648
5.33851e-05
0.00183408
0.000538476
0.000474808
6.25365e-05
0.00367181
0.00527505
0.00379182
1.16216e-05
0.00219778
0.00539858
0.000190938
0.000798913
0.00513409
0.000579701
0.00446902
1.82456e-05
1.01848e-05
0.000302414
0.000156166
0.00931553
0.000277274
0.00407457
0.00032988
3.88239e-05
0.000182641
0.00010397
0.000743877
0.000262113
0.00449002
1.55966e-05
0.000373197
0.000479742
0.000490132
0.00231748
0.00557785
7.27456e-05
5.28581e-05
0.000173268
0.00192349
4.84981e-05
0.00591934
0.00530495
0.00355971
0.000190132
0.00418198
0.000158141
0.00568273
0.00354586
8.2841e-05
0.00237729
0.00376834
0.00389346
1.92021e-06
4.15855e-05
0.000441297
0.00237951
2.28103e-05
1.99563e-05
0.000156913
0.000131722
8.3644e-05
0.000195739
0.000335549
0.00572034
7.22574e-05
0.00124063
0.00209358
0.00460408
0.000196604
0.000138232
0.000505069
3.31341e-05
0.00607357
0.000224333
2.10258e-05
0.00578217
9.47531e-06
0.000149049
4.26086e-05
0.00315574
0.000183847
0.00322796
0.000410075
0.00215052
0.00535472
0.000320858
5.86036e-05
0.00205536
4.46813e-06
0.000109044
8.13357e-05
0.000269522
0.00248127
0.0052257
0.00016773
1.89738e-05
1.70388e-05
9.61716e-05
0.00249367
5.85615e-06
0.00255545
0.00201765
1.36925e-05
0.000947486
0.000379705
7.59224e-05
0.000245856
0.00368912
0.0059412
0.000289513
0.000107623
0.00319533
0.00425928
0.000786538
6.11037e-05
4.11974e-05
0.00563198
0.000768035
7.52039e-05
0.000106735
4.83301e-05
4.53012e-06
0.000221294
0.000415231
2.38725e-06
8.88416e-05
0.000842213
0.00517989
0.0058166
6.7625e-05
0.000391723
2.91088e-05
6.39914e-05
0.000136984
4.83064e-05
0.000214851
6.3609e-05
2.34143e-05
0.000138659
0.00045802
4.43753e-05
0.000118235
0.000621826
0.000149338
0.000614696
0.0048175
5.04313e-05
1.77112e-05
9.93947e-06
4.06774e-05
3.31069e-05
0.000623088
0.00365021
5.11284e-06
0.000111081
1.52387e-05
4.82323e-05
0.00369573
0.0013112
0.000257555
0.00604102
5.59826e-05
0.00402175
0.000142049
5.05657e-06
7.07928e-07
8.19412e-06
0.000122391
0.0036132
0.00544663
0.00983247
0.000671589
0.00360217
2.95932e-05
0.000129668
0.00343264
0.000666311
0.00038
0.000365131
9.31117e-05
9.18622e-05
0.00132165
0.000438386
0.000124579
0.00573569
0.000170572
0.00369281
0.00586734
9.18111e-05
0.00202175
8.73458e-05
6.17556e-05
0.000286975
0.000535869
0.000850821
2.30102e-05
1.24107e-05
1.94582e-05
0.00293485
0.00455182
0.000176339
9.62387e-05
0.00029725
0.00046039
0.00084113
0.000606201
2.90476e-05
6.03246e-05
6.24919e-05
0.000762133
0.000286449
0.00103443
1.18578e-05
1.34905e-05
0.00025247
0.000461895
0.00389961
1.03966e-05
1.92425e-05
2.56812e-05
0.000238071
8.50541e-06
0.000214707
0.0037063
4.67969e-05
0.00194224
0.00306123
2.40541e-05
0.000916653
0.000277706
0.000134772
6.59547e-06
0.00534419
0.000558492
5.80731e-05
0.000108586
0.00214075
0.000134378
0.00106153
2.07321e-05
0.00107818
0.000302157
1.16516e-06
2.41637e-05
0.00589954
1.82603e-05
9.54175e-06
8.3666e-05
0.000573097
2.638e-05
4.05446e-05
0.0123952
0.000450739
0.00344147
8.42195e-07
0.000191995
8.4836e-05
0.000254897
0.000658232
0.0010856
0.0031908
0.00511759
9.96175e-05
6.37644e-05
0.00889005
0.00355937
7.79364e-06
3.34859e-05
0.00266051
0.000261944
1.76643e-06
6.76604e-07
2.86908e-06
0.00569474
8.85257e-06
0.00178812
0.00368973
6.83741e-05
0.00223648
0.000708814
0.00522404
0.00384301
0.000775497
0.00241515
5.11273e-05