/*--------------------------------*- C++ -*----------------------------------*\
| =========                 |                                                 |
| \\      /  F ield         | OpenFOAM: The Open Source CFD Toolbox           |
|  \\    /   O peration     | Version:  2406                                  |
|   \\  /    A nd           | Website:  www.openfoam.com                      |
|    \\/     M anipulation  |                                                 |
\*---------------------------------------------------------------------------*/
FoamFile
{
    version     2.0;
    format      ascii;
    arch        "LSB;label=32;scalar=64";
    class       volVectorField;
    location    "54";
    object      momentum:momentum;
}
// * * * * * * * * * * * * * * * * * * * * * * * * * * * * * * * * * * * * * //

dimensions      [1 1 -1 0 0 0 0];

internalField   nonuniform List<vector> 
59516
(
(2.23303e-07 -2.13648e-09 -1.09642e-09)
(1.6577e-07 -1.99881e-10 -6.56967e-10)
(2.02765e-07 -1.20856e-09 -8.07623e-10)
(1.72745e-07 1.73046e-09 2.55525e-09)
(2.00021e-07 3.65765e-10 -8.0282e-09)
(5.03648e-08 -2.40682e-09 -5.37992e-09)
(2.09528e-07 -3.1364e-09 -3.5808e-09)
(1.93973e-07 1.26051e-09 -2.12578e-10)
(1.56165e-07 1.33462e-09 -8.69555e-11)
(7.7997e-08 -1.5288e-09 3.08155e-09)
(2.08462e-07 -4.50822e-10 -3.32506e-09)
(1.01698e-07 3.61939e-10 -6.3386e-09)
(3.19829e-07 3.186e-09 1.23056e-12)
(1.54646e-08 -9.32511e-11 -1.46528e-10)
(1.48883e-07 3.58028e-09 8.17819e-09)
(8.3401e-08 5.79407e-09 -2.61959e-09)
(2.69792e-07 -3.96303e-09 -1.88042e-09)
(1.59746e-07 9.14364e-09 -9.99031e-09)
(3.29817e-07 1.75501e-08 1.8547e-09)
(3.73446e-07 -3.31887e-09 -4.84834e-10)
(9.94588e-08 1.70376e-09 -2.35942e-09)
(3.17936e-07 -1.93731e-09 5.42702e-10)
(3.51379e-07 -2.30857e-09 -5.71548e-09)
(3.4059e-08 -1.03595e-09 -2.76869e-10)
(3.12772e-07 -1.07235e-09 8.83452e-10)
(1.97626e-07 4.46477e-09 1.91865e-09)
(5.12022e-08 1.03658e-09 -3.55389e-09)
(7.40662e-08 6.33232e-09 3.30891e-10)
(1.44435e-07 6.0612e-09 -1.31538e-09)
(1.30986e-08 -2.0418e-09 5.0682e-10)
(1.89457e-07 -3.679e-08 -8.11268e-09)
(8.36966e-08 6.73592e-09 -1.05007e-09)
(1.73974e-07 2.32802e-10 1.07627e-09)
(1.74104e-07 -1.49563e-09 3.30322e-09)
(1.33629e-07 5.2233e-09 3.79511e-09)
(3.99307e-07 7.97819e-10 -1.24473e-09)
(1.27006e-08 -1.23971e-09 -1.76686e-09)
(1.31656e-07 5.0463e-09 -1.27337e-08)
(2.66522e-07 -1.08313e-08 -1.05452e-09)
(2.82722e-07 -5.45543e-11 -1.31963e-09)
(2.54598e-07 -1.51121e-09 5.48711e-10)
(4.06973e-07 -2.41954e-08 -2.24744e-08)
(3.43314e-07 -9.5161e-09 -7.85286e-09)
(1.09465e-07 -7.0424e-10 3.56866e-10)
(2.64772e-07 -1.00548e-08 -7.91814e-10)
(1.00576e-07 -1.3951e-09 -2.3278e-09)
(3.24436e-07 -7.37866e-09 -1.1045e-08)
(2.54848e-07 -8.08545e-09 -1.58187e-09)
(2.5187e-07 -2.02728e-08 2.78995e-08)
(2.41211e-07 1.09569e-08 8.61283e-09)
(1.63914e-07 1.65029e-08 -2.2876e-08)
(7.47619e-08 -6.45486e-09 4.42151e-09)
(3.13295e-07 2.64509e-09 -6.12669e-09)
(2.98368e-07 -1.32766e-09 3.07895e-10)
(8.21169e-08 5.24079e-09 -1.91071e-11)
(2.46071e-07 5.78212e-09 -1.7296e-09)
(2.03463e-07 1.16783e-08 1.20279e-08)
(7.55095e-08 6.53613e-09 -4.57953e-09)
(2.12157e-07 2.98314e-10 -2.32114e-10)
(1.45833e-07 6.95804e-09 8.76406e-09)
(2.08733e-07 -6.9821e-10 2.17916e-10)
(1.49136e-08 1.86921e-09 -6.4929e-10)
(2.70537e-07 8.63018e-10 1.10082e-09)
(3.44037e-07 5.80015e-09 4.47011e-09)
(2.88087e-07 5.14976e-10 -1.72362e-09)
(2.15451e-07 5.67235e-09 8.14433e-09)
(1.76613e-08 -1.1998e-09 1.62061e-09)
(6.50574e-08 4.23333e-10 -3.68497e-10)
(1.98332e-07 -8.25541e-09 3.63004e-08)
(1.69004e-07 1.57095e-09 -4.30753e-09)
(5.10194e-08 1.40683e-09 4.22772e-10)
(1.584e-07 2.41719e-09 -1.89759e-10)
(2.27736e-08 1.42674e-09 -3.47086e-09)
(1.86197e-07 2.03924e-09 9.68005e-10)
(3.85615e-07 -5.49965e-11 -9.96088e-10)
(3.60615e-07 -5.95522e-09 -7.32815e-09)
(2.15096e-07 -3.60915e-09 -5.28091e-09)
(2.26766e-07 -3.84971e-10 4.28931e-10)
(8.3242e-08 -2.76829e-09 2.61415e-09)
(1.93258e-07 3.97947e-09 1.01809e-08)
(4.95248e-08 3.03224e-09 1.45618e-09)
(1.71529e-07 4.89915e-09 7.38396e-09)
(1.82873e-07 2.48547e-09 7.97263e-09)
(1.77094e-08 -6.71263e-10 2.47953e-09)
(2.15225e-07 4.87413e-09 9.74464e-09)
(3.85967e-07 -1.95593e-09 7.91271e-10)
(3.09968e-08 -1.13083e-09 4.90426e-10)
(5.02123e-07 -1.24225e-09 -7.13805e-10)
(1.08687e-07 1.37837e-09 4.34029e-09)
(1.66771e-07 1.31869e-08 -9.06586e-09)
(1.83391e-07 -1.23057e-09 -1.60707e-08)
(1.89559e-07 2.09996e-09 -4.91526e-10)
(2.63805e-07 5.12007e-10 -3.27411e-10)
(1.82452e-07 1.4792e-09 -4.61685e-10)
(1.85187e-07 2.25904e-10 -2.2527e-11)
(1.83423e-07 -1.75899e-08 6.57197e-09)
(1.24219e-07 -2.88135e-10 4.10449e-10)
(8.33248e-08 -3.03132e-09 -6.60637e-09)
(1.15116e-07 4.35374e-09 -1.88586e-09)
(2.07814e-07 -1.16838e-09 2.39536e-09)
(6.09736e-08 9.51156e-10 2.31345e-09)
(2.57282e-08 1.33344e-09 -2.91651e-09)
(2.27356e-08 8.07339e-10 3.12403e-09)
(8.33314e-08 -1.26821e-09 -4.56434e-09)
(2.33069e-07 1.34928e-09 -3.78153e-10)
(1.64376e-07 -4.92061e-10 -3.68793e-10)
(5.41029e-08 4.7652e-09 -1.95702e-09)
(1.36161e-07 4.23904e-10 -1.07005e-09)
(1.7361e-07 -1.19302e-09 3.73286e-10)
(1.85652e-07 1.15822e-09 -7.48919e-09)
(2.80316e-07 2.90062e-08 -3.04479e-08)
(4.21903e-08 4.28341e-09 -6.74988e-10)
(1.84518e-07 2.34449e-09 -1.15465e-08)
(2.19229e-07 3.23678e-08 -1.62497e-08)
(2.22269e-07 5.8342e-11 4.89892e-11)
(1.35414e-07 1.49828e-09 1.57797e-09)
(1.24323e-07 1.39945e-09 -4.65176e-09)
(1.43314e-07 -1.07499e-10 8.00107e-10)
(1.7943e-08 -2.594e-10 8.67274e-10)
(2.6268e-07 2.07223e-09 5.89276e-10)
(4.24424e-07 -4.09192e-10 5.94471e-10)
(1.79328e-07 -4.01683e-10 6.90346e-10)
(1.60149e-07 -1.93818e-10 9.05646e-10)
(1.86156e-07 -4.88805e-10 5.39235e-10)
(1.33075e-07 -1.79367e-08 2.75072e-09)
(1.43684e-07 2.07934e-09 -4.87972e-09)
(3.50229e-08 -6.61571e-10 2.28605e-09)
(2.12265e-07 -2.11495e-08 -1.76716e-09)
(1.63208e-07 -5.00803e-09 2.38742e-08)
(1.64161e-07 3.85136e-10 -6.59843e-11)
(2.92983e-07 3.20001e-10 3.35729e-11)
(3.20619e-07 4.92053e-09 5.51797e-09)
(2.21208e-08 1.31469e-09 -1.51605e-09)
(2.54864e-07 -3.6773e-10 9.53198e-10)
(3.11265e-07 3.7298e-09 8.7326e-10)
(1.94836e-07 -1.05182e-09 -3.63371e-09)
(1.5178e-07 1.81059e-08 -1.26717e-08)
(3.10798e-07 -9.33644e-10 8.326e-10)
(5.08288e-08 3.52491e-09 1.66508e-10)
(1.57563e-07 8.52428e-10 -2.04646e-09)
(7.46829e-08 -1.48387e-09 -3.82765e-09)
(3.4091e-07 -9.36438e-10 5.33924e-10)
(1.35572e-08 5.79039e-10 1.18186e-09)
(1.49374e-07 -1.21563e-09 -7.11739e-10)
(2.2108e-07 7.25363e-10 1.41425e-09)
(2.83681e-07 4.12845e-09 8.82236e-10)
(2.02771e-07 -7.98335e-09 -3.02928e-09)
(2.04656e-07 3.20666e-09 -5.33465e-09)
(6.40328e-08 -1.03584e-09 1.78415e-09)
(2.0507e-07 -1.2026e-09 -1.76452e-09)
(3.15575e-07 -1.13851e-09 -2.59389e-09)
(5.09774e-08 -1.9575e-09 3.28306e-11)
(3.90336e-07 -2.13483e-09 2.63409e-09)
(2.18584e-07 -3.02907e-10 2.71785e-10)
(1.56742e-07 -2.99577e-10 3.85436e-09)
(1.42311e-08 -2.65918e-10 1.53307e-09)
(2.74693e-07 -9.42063e-10 -5.44567e-10)
(3.27244e-07 4.52859e-09 -3.79384e-10)
(1.2725e-07 2.03679e-09 3.97655e-10)
(1.53139e-08 1.82874e-09 -1.99764e-09)
(8.74591e-08 2.19047e-09 -4.44135e-09)
(1.09845e-07 -5.96338e-09 -3.70003e-09)
(3.87956e-08 -1.58327e-09 3.80048e-10)
(2.17832e-08 -1.86221e-10 -4.23278e-10)
(1.60576e-07 3.01058e-09 3.91667e-09)
(3.34756e-07 -2.26493e-10 2.05292e-09)
(1.53178e-07 -1.99592e-09 9.80217e-10)
(2.89473e-07 1.68139e-09 -1.32675e-11)
(1.68491e-08 -1.05619e-09 1.92507e-09)
(2.15232e-07 -9.11513e-10 -2.77475e-10)
(8.57269e-08 1.43997e-09 1.21628e-09)
(6.58054e-08 1.01648e-09 -1.00748e-09)
(1.03835e-07 2.69712e-09 1.29634e-09)
(1.50766e-07 -3.00921e-10 5.82011e-10)
(8.32011e-08 -1.257e-09 3.9225e-10)
(4.52876e-07 -5.59933e-09 -1.85252e-08)
(2.52557e-07 -6.01638e-10 -1.35474e-09)
(3.10045e-07 -1.21066e-08 -7.58576e-09)
(1.46133e-07 -1.74888e-09 6.79496e-09)
(6.0688e-08 -1.85246e-10 -8.40076e-10)
(3.0796e-07 4.95068e-09 1.36573e-09)
(4.16043e-08 -3.69255e-09 -1.69649e-09)
(2.89541e-08 -3.43792e-10 -2.27229e-09)
(1.02748e-07 -2.56052e-09 3.10152e-10)
(2.11846e-07 3.84249e-10 8.2017e-10)
(9.54839e-08 5.20598e-10 1.15948e-09)
(4.4876e-08 -7.13175e-10 -3.5173e-09)
(1.96561e-08 1.68822e-11 2.65922e-10)
(1.89433e-07 3.37182e-10 -1.15012e-10)
(2.22612e-07 -3.96901e-09 -3.16918e-10)
(1.58759e-07 -6.0822e-10 3.21237e-09)
(1.12333e-07 6.88516e-09 -9.30324e-11)
(2.17313e-07 -1.40867e-09 -2.65303e-11)
(9.2075e-08 3.36751e-09 1.32333e-10)
(3.3995e-07 -2.61891e-10 -1.2062e-09)
(2.80633e-08 -2.50754e-10 7.76557e-10)
(9.4888e-08 1.30999e-09 -1.12366e-10)
(5.52063e-08 -1.55604e-09 3.93828e-10)
(1.83138e-07 4.9107e-09 6.07355e-09)
(2.65965e-07 1.18116e-09 -9.88476e-10)
(7.6105e-08 -2.66991e-09 2.7971e-10)
(2.01668e-07 -5.76517e-10 3.65049e-10)
(3.07875e-07 -2.45166e-09 2.50198e-09)
(1.55258e-08 1.67895e-09 -1.14833e-09)
(2.18253e-07 -1.65824e-09 -8.88881e-10)
(2.39001e-07 6.63464e-10 4.79852e-10)
(3.61335e-07 8.3038e-10 -1.92799e-10)
(2.01406e-07 -1.99599e-09 -8.92755e-10)
(1.76991e-08 -5.70716e-10 1.68246e-10)
(2.9892e-07 -5.46394e-09 -2.58813e-10)
(5.92738e-08 4.19013e-09 3.74176e-09)
(2.50765e-08 -4.13263e-09 -6.81877e-10)
(2.31525e-07 3.024e-10 -2.38154e-09)
(9.28439e-08 -2.01914e-09 1.27715e-09)
(2.90297e-07 3.82973e-09 2.4324e-10)
(2.93654e-07 7.10644e-11 -6.06678e-10)
(2.72734e-07 2.80417e-09 1.01218e-09)
(2.08683e-07 -1.93854e-09 5.83083e-10)
(8.10292e-08 3.27242e-09 -4.34346e-09)
(2.20073e-07 -2.00701e-10 1.13228e-09)
(1.15916e-07 4.43342e-09 4.13469e-09)
(1.93233e-07 7.04963e-10 2.28334e-10)
(1.83044e-07 7.5626e-10 1.04571e-09)
(7.15374e-08 -3.34612e-10 1.1969e-09)
(3.03936e-07 3.65683e-11 -6.39525e-10)
(3.18203e-07 -7.49524e-10 -1.0068e-09)
(3.10591e-08 -3.55181e-10 1.57738e-09)
(6.36109e-08 2.04537e-09 -3.00836e-09)
(2.04164e-07 6.39307e-10 7.61368e-10)
(1.1491e-07 5.50008e-10 -8.74445e-09)
(2.47087e-07 -8.58752e-10 1.21002e-11)
(1.84558e-07 2.55538e-10 -4.16309e-10)
(3.34902e-07 1.01775e-09 1.22679e-09)
(2.59286e-08 -2.02054e-09 -1.46487e-09)
(3.03653e-08 8.20428e-10 -1.45319e-09)
(3.79767e-08 1.02584e-09 -1.37412e-09)
(1.06572e-07 6.53638e-10 1.05774e-10)
(1.71376e-07 -2.0561e-09 1.17122e-09)
(4.24256e-07 2.82468e-09 3.43671e-09)
(8.46377e-08 -1.88165e-09 2.32999e-09)
(2.63524e-07 -3.46738e-10 7.77223e-10)
(1.81132e-08 3.19866e-10 2.68054e-09)
(1.07404e-07 9.35189e-11 1.83756e-09)
(2.59483e-08 1.5369e-10 2.87825e-09)
(1.7153e-07 6.16603e-10 5.00685e-10)
(1.49636e-07 -9.00522e-10 -3.02275e-10)
(1.97667e-07 3.60512e-10 1.43331e-09)
(1.82111e-07 2.86041e-09 -4.10228e-09)
(2.83123e-07 2.32967e-10 -9.56383e-10)
(1.96831e-07 6.46755e-10 9.5215e-10)
(3.86986e-07 -3.19041e-11 2.36622e-10)
(2.12912e-07 -8.68086e-11 1.01879e-09)
(2.03313e-07 4.1621e-10 7.61624e-10)
(2.8227e-07 1.43432e-09 -1.7581e-09)
(2.83671e-07 2.31059e-09 2.03466e-09)
(3.03549e-07 7.12039e-11 1.70442e-09)
(1.0915e-07 8.52654e-11 -5.29868e-10)
(2.86069e-07 1.89573e-09 3.40621e-09)
(7.81225e-08 -7.97311e-10 -4.33622e-09)
(9.52143e-08 7.72686e-10 3.32234e-09)
(2.16744e-07 1.39194e-09 -1.77721e-09)
(2.65889e-07 -5.21147e-10 5.62621e-10)
(2.35881e-07 6.60656e-09 3.28058e-09)
(2.94055e-07 4.45035e-10 6.06555e-10)
(7.30342e-08 1.11583e-10 1.5926e-09)
(1.04341e-07 4.02e-09 -2.87132e-09)
(3.08168e-07 -3.10263e-10 -2.62067e-09)
(2.1068e-07 4.59557e-09 1.14169e-09)
(5.95e-08 -9.99324e-10 -9.48615e-10)
(7.24447e-08 3.90565e-10 -2.09296e-09)
(1.63763e-07 1.81371e-09 -5.67152e-09)
(1.92291e-07 -3.29994e-10 -2.39925e-10)
(3.02446e-07 -7.65864e-09 8.85774e-11)
(1.45789e-07 -2.38174e-09 1.49638e-09)
(3.40011e-07 -2.10875e-09 -1.15638e-09)
(1.86228e-07 -1.22628e-09 4.83896e-09)
(1.87238e-08 2.24606e-09 -1.2669e-09)
(3.01065e-07 6.10652e-10 1.47427e-09)
(2.77184e-08 1.78495e-09 -2.38957e-09)
(5.06708e-08 -2.07412e-09 1.40571e-09)
(3.70382e-07 9.6176e-10 1.79211e-09)
(2.49204e-07 3.25829e-10 -7.07754e-10)
(2.68642e-08 2.88642e-09 2.86863e-09)
(2.94549e-07 2.11862e-09 1.22459e-09)
(2.42997e-07 4.89284e-09 -5.95116e-11)
(2.52606e-07 -2.17073e-09 2.99903e-09)
(3.3877e-07 -1.02519e-09 2.65928e-10)
(2.23197e-08 2.64936e-09 4.80407e-10)
(2.92414e-07 9.05924e-10 5.57631e-10)
(1.5684e-07 9.56937e-12 6.88739e-11)
(1.64561e-07 1.63663e-10 6.5774e-10)
(2.51909e-07 1.51638e-09 1.52609e-09)
(1.70388e-07 1.18852e-09 8.19229e-10)
(1.73656e-07 9.59405e-10 -3.39996e-10)
(2.70812e-07 1.20307e-09 3.95203e-10)
(3.73137e-08 -1.34775e-09 -1.71867e-09)
(2.8763e-07 -4.499e-10 8.9199e-10)
(1.89653e-07 -5.55089e-10 -8.28496e-10)
(3.79867e-07 3.79541e-10 5.16138e-10)
(2.75059e-07 1.29554e-09 1.16032e-09)
(3.05121e-07 -1.1343e-09 1.65508e-09)
(1.32126e-07 2.08775e-09 2.93752e-09)
(1.90389e-08 -2.90835e-10 1.31942e-09)
(3.4082e-08 -8.28841e-10 5.61983e-10)
(5.1369e-07 -3.16416e-09 -2.97579e-09)
(1.74656e-08 -1.01379e-09 2.51779e-09)
(1.68566e-07 -9.32916e-10 -2.97477e-09)
(7.12656e-08 3.96579e-09 1.57065e-09)
(3.20315e-07 1.50629e-09 1.59243e-09)
(3.81194e-07 -1.00526e-09 -5.63023e-10)
(3.15286e-07 -8.86022e-11 -1.74034e-09)
(1.19465e-07 2.18858e-10 -2.71254e-09)
(2.90758e-07 4.64046e-09 -6.93335e-09)
(6.53825e-08 -5.46288e-09 4.40869e-09)
(8.6485e-08 2.08265e-09 1.73585e-09)
(2.02484e-07 1.18589e-09 5.21947e-12)
(1.52858e-07 1.59294e-09 -1.47673e-09)
(2.69469e-07 3.08903e-08 8.76389e-09)
(1.88603e-07 -4.06559e-09 1.9494e-09)
(6.18726e-08 -2.49704e-10 -5.80381e-10)
(9.99187e-08 -1.47517e-09 3.21919e-09)
(2.03726e-07 -1.90836e-09 -3.13816e-09)
(2.21232e-07 -4.95895e-11 -5.37544e-10)
(4.3786e-07 -2.08941e-09 2.07342e-09)
(2.34362e-07 2.81613e-10 1.28396e-09)
(4.9266e-07 -3.90566e-09 1.18803e-09)
(1.66575e-07 6.59115e-09 7.97122e-09)
(3.34119e-07 1.70647e-09 2.25268e-09)
(2.82518e-07 1.3923e-09 1.71962e-09)
(1.99042e-07 -1.02013e-09 1.42643e-10)
(3.41181e-07 -1.72697e-09 1.54725e-09)
(1.0119e-07 2.1073e-09 -6.09385e-09)
(2.23048e-08 -1.48448e-09 -2.61831e-09)
(2.94807e-07 -2.7129e-09 4.84135e-10)
(5.59887e-08 -2.73087e-09 3.08023e-09)
(2.70838e-08 9.11983e-11 4.48137e-11)
(3.98832e-07 1.23499e-09 4.38109e-09)
(1.99101e-07 -2.13628e-10 5.49531e-10)
(1.06209e-07 -2.26832e-09 -5.38971e-09)
(2.6063e-07 -1.04924e-09 5.27575e-10)
(3.31943e-07 -1.80307e-09 8.908e-10)
(4.40415e-07 -1.42369e-09 -9.91574e-10)
(2.73681e-07 -1.9865e-09 -5.48844e-10)
(3.00282e-08 1.44816e-09 5.38763e-11)
(3.18101e-07 -5.38481e-10 1.36041e-10)
(2.25757e-07 -9.44319e-10 8.00531e-10)
(9.55468e-08 2.19046e-10 1.41026e-09)
(3.06599e-07 1.71289e-11 1.74786e-09)
(2.58903e-07 -3.71468e-10 5.60088e-10)
(1.72067e-07 -4.80814e-12 -1.14507e-09)
(1.97588e-07 3.64549e-10 -1.65058e-09)
(2.77926e-07 -2.15056e-09 2.83589e-09)
(2.00666e-07 -1.67614e-09 4.62181e-10)
(7.56012e-08 -3.88938e-10 -1.66399e-10)
(1.93385e-08 8.13923e-10 -6.25714e-10)
(3.78127e-08 -2.8062e-09 -1.94047e-10)
(2.14035e-07 1.06667e-09 -6.89264e-10)
(2.67847e-07 -2.10941e-08 3.30041e-08)
(1.1579e-07 -6.5244e-09 -9.44491e-09)
(1.0829e-07 5.18227e-10 5.28015e-10)
(2.43596e-07 1.73156e-10 4.3852e-09)
(3.06103e-07 3.82005e-10 2.21112e-09)
(2.323e-07 -2.35358e-09 6.12109e-09)
(3.60138e-07 -1.7538e-09 1.98045e-09)
(3.34687e-07 -2.16377e-09 -1.16993e-09)
(2.23828e-07 -1.45327e-10 8.92264e-10)
(1.38841e-07 7.55396e-10 3.13668e-10)
(2.29108e-08 -7.12648e-10 -2.52025e-10)
(2.41085e-07 -4.75506e-08 5.84394e-09)
(8.43607e-08 2.1314e-09 6.87599e-10)
(6.1242e-08 -2.71624e-09 -6.19861e-10)
(6.49306e-08 1.40463e-09 5.10494e-10)
(1.7485e-07 -6.88872e-10 -4.67314e-10)
(1.69638e-07 -1.05564e-09 -3.91084e-11)
(2.37633e-07 8.49365e-10 -1.80595e-09)
(1.61931e-08 8.73628e-10 -1.38943e-09)
(1.67531e-07 -5.12569e-10 4.40808e-10)
(6.19956e-08 1.45115e-09 -1.21755e-09)
(1.89422e-07 -2.44043e-10 -8.88702e-11)
(5.33714e-08 -7.24683e-10 -5.64807e-10)
(1.4338e-07 -3.37813e-09 2.68911e-09)
(2.13135e-07 -5.72108e-09 1.63736e-09)
(1.85528e-07 -1.48936e-09 1.33765e-09)
(1.79448e-08 1.41836e-09 -1.94284e-09)
(1.08856e-07 -1.21912e-09 4.48197e-09)
(2.36832e-07 -4.03497e-10 9.96814e-10)
(2.39866e-08 -1.49088e-09 -1.934e-09)
(2.89671e-07 2.89414e-09 2.1088e-08)
(1.79228e-07 -1.30866e-09 4.08514e-09)
(3.00628e-07 -1.25378e-09 -4.7954e-09)
(1.95445e-07 4.31339e-09 -6.0943e-09)
(9.13265e-08 -1.31063e-09 2.21284e-09)
(3.97509e-07 1.15015e-09 4.97964e-10)
(1.42005e-07 -1.45612e-08 -1.32208e-08)
(3.42463e-07 1.67267e-10 1.18257e-10)
(1.55519e-07 1.20756e-08 1.26095e-08)
(1.37198e-07 -6.31478e-09 8.4921e-10)
(1.39649e-07 -1.00743e-09 -3.22757e-09)
(2.80816e-07 2.21557e-11 4.25694e-10)
(5.55282e-07 7.38426e-10 1.12195e-09)
(7.75637e-08 -7.78111e-10 9.38583e-10)
(3.3322e-07 9.32721e-10 -1.53764e-09)
(1.16726e-07 -5.67438e-10 -2.73221e-09)
(4.5207e-07 6.23822e-10 1.16366e-09)
(3.44497e-07 -4.00861e-10 1.7996e-09)
(6.72345e-08 1.98712e-09 -5.12661e-09)
(2.15885e-07 -1.84447e-09 3.27662e-10)
(3.81196e-07 -4.73837e-09 4.32194e-09)
(2.2778e-07 9.89801e-10 -9.55482e-10)
(2.22778e-07 1.1181e-09 7.75441e-10)
(2.26924e-08 -7.87915e-10 -2.85482e-09)
(1.90827e-08 9.46839e-10 -2.39283e-09)
(2.90936e-07 2.69928e-09 -3.82059e-09)
(2.91952e-07 -7.97105e-11 -1.85324e-10)
(2.2912e-07 -1.7147e-09 -7.98301e-10)
(3.4406e-08 3.63482e-10 -2.57249e-09)
(9.09785e-08 -8.81561e-10 1.51037e-10)
(2.96529e-07 -2.88876e-09 -2.4246e-09)
(1.73704e-07 -2.14298e-10 5.91814e-11)
(3.17928e-07 -2.72294e-10 1.82267e-09)
(2.95027e-07 1.37495e-10 -8.95762e-10)
(2.23835e-07 7.95665e-10 8.98333e-10)
(2.37891e-07 2.07899e-09 6.70965e-10)
(1.18813e-07 7.42616e-10 4.12513e-10)
(2.20774e-07 7.16469e-10 -2.22905e-10)
(8.56366e-08 -1.62362e-09 -4.11598e-09)
(2.93133e-07 2.00147e-10 -9.32358e-10)
(1.86646e-07 -6.94989e-10 -1.83764e-09)
(2.15945e-07 5.09545e-10 1.41499e-09)
(2.26988e-07 2.01483e-10 -2.35652e-10)
(3.49542e-07 -9.79347e-10 3.32853e-10)
(2.66298e-07 2.17667e-10 -2.47588e-09)
(6.54926e-08 3.75089e-09 3.5271e-09)
(4.31919e-08 1.12061e-09 3.28667e-10)
(1.87266e-08 1.62533e-09 -1.85096e-09)
(2.32268e-07 6.42555e-09 1.14805e-08)
(3.04857e-07 -1.51874e-10 -4.09164e-10)
(2.71978e-07 -1.40203e-09 1.33335e-09)
(1.91022e-07 1.36528e-09 1.18769e-10)
(2.88077e-08 -9.97923e-11 1.09468e-09)
(2.1713e-08 -3.47156e-10 2.49122e-09)
(1.78188e-07 -9.63607e-10 2.63592e-09)
(2.34376e-07 -2.31267e-11 2.19903e-09)
(3.19116e-07 -7.15998e-10 1.3332e-09)
(3.20695e-07 9.73787e-10 5.53482e-10)
(1.97195e-07 -1.71153e-09 -1.10221e-09)
(3.55577e-07 8.92575e-11 6.55059e-10)
(3.7289e-07 1.89653e-09 2.85613e-09)
(3.05949e-08 -6.10626e-10 2.86712e-09)
(1.80974e-07 -2.81434e-10 1.30695e-09)
(7.08694e-08 6.70168e-10 3.70487e-09)
(9.75789e-08 -9.75379e-09 2.09051e-09)
(1.29456e-07 2.67548e-10 4.73609e-10)
(1.39458e-07 8.67487e-10 -1.65176e-10)
(2.52989e-07 -2.67167e-10 3.84459e-10)
(1.86376e-08 -3.51596e-09 -1.27029e-09)
(3.64724e-07 5.68449e-10 -1.03556e-09)
(2.74654e-07 -2.6091e-10 -2.97943e-10)
(2.21669e-07 1.17323e-10 8.0753e-10)
(1.98135e-07 2.02303e-09 1.80937e-10)
(1.72124e-07 -1.01279e-09 1.89494e-09)
(2.67442e-07 1.08589e-10 8.69616e-10)
(2.44407e-07 9.12233e-10 4.31925e-10)
(3.1444e-07 9.29912e-10 3.22842e-10)
(1.66505e-07 6.93394e-09 -5.80781e-09)
(2.72542e-07 4.94418e-10 -5.34022e-10)
(2.90362e-07 -5.65956e-09 -8.05552e-10)
(1.7892e-08 -1.14305e-09 1.28801e-09)
(3.13925e-07 3.55781e-10 1.94905e-10)
(1.89555e-07 3.70278e-09 1.46396e-10)
(6.29268e-08 -1.83579e-09 5.2289e-09)
(1.68909e-07 1.6272e-09 -2.94559e-09)
(3.48924e-07 2.48025e-10 -2.45085e-10)
(2.22028e-07 -7.48517e-10 1.92726e-09)
(1.16145e-07 3.12273e-10 -3.28461e-09)
(1.76097e-08 -1.60753e-09 -1.74162e-09)
(2.61451e-07 1.5041e-11 -3.61275e-10)
(3.33196e-07 4.51013e-09 -5.02033e-09)
(2.37922e-07 -6.19843e-10 -9.80684e-10)
(1.86534e-07 -4.7069e-11 1.19991e-09)
(5.58352e-08 2.56818e-09 2.47123e-09)
(2.51208e-07 4.29728e-11 -5.22951e-10)
(2.6446e-08 2.13735e-09 -3.41153e-09)
(1.75959e-07 2.10839e-10 -8.59925e-10)
(2.08664e-07 2.32559e-08 -7.44888e-09)
(2.59674e-07 -2.19459e-09 -1.12041e-09)
(8.58491e-08 5.81002e-11 3.0355e-09)
(1.80009e-07 -2.07267e-09 -2.76506e-09)
(1.1367e-07 1.1205e-10 -1.47789e-09)
(4.62176e-08 2.60284e-09 2.38452e-09)
(4.85624e-07 1.3408e-10 4.22997e-10)
(2.17377e-07 -4.51929e-10 7.62351e-10)
(1.71407e-08 5.91609e-10 1.67627e-09)
(2.83838e-07 4.82632e-10 6.57071e-10)
(2.93769e-07 8.16514e-10 9.27596e-10)
(3.77832e-08 -9.19677e-11 -2.29544e-09)
(1.24877e-07 5.50859e-09 -1.92641e-10)
(9.66704e-08 3.60904e-09 2.51491e-09)
(1.91581e-07 -1.96356e-10 8.3718e-10)
(2.67976e-07 -1.40956e-10 6.58064e-10)
(3.49721e-08 -9.3595e-10 1.60449e-09)
(8.8525e-08 -2.95885e-09 -9.56909e-10)
(9.95062e-08 1.97603e-09 -1.53936e-10)
(1.74221e-07 2.3888e-09 6.53524e-10)
(3.47759e-07 2.60443e-10 1.09196e-09)
(2.28539e-08 1.24494e-09 -2.9803e-09)
(3.67325e-07 -1.2108e-09 1.74996e-09)
(2.37074e-07 6.02691e-09 -1.11847e-09)
(2.81756e-07 -7.61676e-10 1.5204e-09)
(1.14195e-07 4.90115e-09 -4.72414e-09)
(3.35525e-07 7.82165e-10 5.94728e-10)
(2.224e-08 -2.87405e-10 -2.42309e-09)
(2.98229e-07 -1.87906e-09 -9.68967e-10)
(2.69323e-08 -3.97016e-10 -5.07076e-11)
(1.35714e-07 -3.69206e-09 1.94772e-09)
(2.27241e-07 -1.86489e-09 1.22462e-10)
(1.3432e-07 -4.01206e-09 -1.36208e-09)
(1.85235e-08 2.1626e-09 1.91861e-09)
(4.92732e-08 9.77021e-10 -1.56031e-09)
(7.37979e-08 -3.98952e-09 2.74224e-09)
(1.28892e-07 2.59742e-09 -3.71632e-09)
(3.24708e-07 2.82142e-10 -1.86737e-09)
(5.63216e-08 -1.29438e-09 6.38774e-11)
(1.33332e-07 4.33528e-09 -2.29424e-09)
(2.25782e-07 -1.25796e-08 -2.43079e-08)
(2.18338e-07 3.72963e-11 6.40781e-10)
(2.81842e-08 1.80693e-09 3.28762e-10)
(2.23389e-07 7.42995e-10 -2.36662e-09)
(1.47283e-07 1.60732e-08 -6.35921e-09)
(2.05328e-07 -2.28885e-10 -3.41811e-10)
(9.83493e-08 -1.50712e-10 -2.42264e-09)
(1.79421e-07 9.44862e-11 1.24754e-09)
(1.04169e-07 -4.21314e-09 -3.13607e-09)
(1.60097e-07 9.5749e-10 7.80324e-10)
(1.64768e-07 -1.99026e-10 -7.88623e-10)
(7.0368e-08 3.08543e-09 -6.32081e-09)
(3.02072e-07 1.00093e-10 -3.18302e-10)
(7.10309e-08 3.36591e-09 3.59806e-09)
(1.50373e-08 2.28883e-09 8.56219e-10)
(3.1696e-07 1.83401e-09 -1.06169e-09)
(1.96e-07 -3.14395e-10 9.34946e-11)
(2.91696e-07 2.35328e-09 -1.09101e-09)
(2.25481e-07 2.97632e-09 -1.50245e-09)
(4.77694e-07 -2.08918e-09 5.28467e-11)
(1.34552e-07 3.98154e-09 -5.84073e-10)
(4.14427e-07 -1.79062e-09 8.58696e-10)
(9.58631e-08 -3.08979e-09 4.09976e-09)
(1.55804e-07 1.34524e-10 1.44523e-10)
(3.03012e-07 -3.3899e-09 -3.29874e-09)
(3.14429e-08 8.09951e-10 -4.36391e-09)
(3.03448e-07 1.69063e-09 -1.9163e-09)
(1.11002e-07 9.05094e-11 3.53061e-09)
(2.89551e-08 -2.05528e-09 -2.16454e-09)
(2.75988e-07 -2.59149e-09 -8.68723e-10)
(6.08912e-08 -1.75031e-09 1.55333e-09)
(2.02418e-07 5.37721e-11 6.71616e-12)
(2.30154e-07 -4.75323e-10 1.21784e-09)
(3.72221e-07 7.56845e-10 5.29664e-10)
(9.39051e-08 -4.22667e-09 -4.60812e-09)
(2.9766e-07 1.6065e-09 6.16639e-10)
(1.49604e-07 -2.30466e-09 2.15135e-09)
(3.30231e-07 3.30222e-10 1.30208e-10)
(3.31958e-07 -1.96256e-10 9.28208e-10)
(2.92909e-07 -4.03433e-10 1.63473e-09)
(1.74316e-07 -4.58145e-10 -3.46833e-10)
(4.72681e-08 -2.66532e-09 -2.26168e-09)
(6.82579e-08 4.23023e-10 -5.77441e-10)
(1.85297e-07 -7.96302e-10 -2.01983e-10)
(2.9074e-07 2.56719e-10 3.03071e-09)
(2.74958e-08 -2.00249e-09 -9.05417e-10)
(2.50781e-07 -4.25068e-10 1.08824e-09)
(4.92161e-07 1.67047e-10 9.76839e-10)
(3.62122e-07 -7.4943e-10 -6.38268e-10)
(3.93527e-07 -1.47294e-09 -4.69774e-10)
(2.45122e-07 1.73111e-10 -3.91474e-09)
(1.95557e-08 1.98937e-09 1.69676e-09)
(2.35238e-07 6.34601e-10 -2.35981e-10)
(1.45483e-07 -1.34886e-09 -1.70272e-09)
(2.68643e-07 1.78879e-09 1.27092e-09)
(1.58065e-07 5.90822e-10 -2.44692e-10)
(3.43476e-08 2.43108e-09 -1.13853e-10)
(2.21668e-07 -6.93186e-11 6.81668e-10)
(1.48375e-07 3.91149e-09 4.019e-09)
(2.4254e-07 1.46253e-10 4.24384e-10)
(2.86077e-07 -5.06638e-10 -2.54781e-11)
(1.99724e-07 -2.27961e-09 -1.13835e-10)
(1.32429e-08 1.22647e-09 -1.55063e-09)
(1.9393e-08 -1.20886e-09 -1.88811e-09)
(1.95812e-07 6.49992e-10 2.30233e-10)
(3.17997e-07 -2.15157e-09 -1.67441e-09)
(2.43259e-07 1.83719e-10 1.49863e-09)
(1.85382e-07 -6.32822e-10 1.5804e-09)
(1.57789e-07 -2.44058e-09 1.02183e-09)
(2.56853e-07 -1.75826e-09 -1.03073e-09)
(2.99703e-07 4.09922e-10 1.55049e-09)
(1.88287e-08 1.66886e-09 4.03769e-10)
(1.56504e-07 5.90784e-10 4.62647e-10)
(1.74166e-07 -1.9536e-08 -5.76973e-10)
(4.47542e-08 -7.39379e-10 2.40132e-09)
(8.30711e-08 -5.3157e-09 1.32772e-09)
(3.05783e-07 -8.25255e-11 -1.99644e-09)
(2.11281e-07 -2.37962e-09 1.57309e-09)
(1.96557e-07 5.99376e-10 -2.71682e-10)
(2.33134e-07 -1.27802e-09 1.27916e-09)
(1.36639e-07 -4.66937e-09 1.54886e-09)
(3.51957e-07 -3.17268e-12 4.38886e-10)
(1.7666e-07 1.6667e-09 -5.50108e-09)
(4.42479e-07 1.11185e-09 -4.73993e-10)
(2.26708e-07 1.33046e-09 6.54131e-11)
(2.53829e-07 -1.15685e-10 2.86277e-10)
(3.30067e-07 -3.32415e-10 3.3612e-10)
(4.63093e-08 -3.95536e-10 2.31011e-09)
(5.50673e-07 -4.43742e-10 4.07799e-12)
(3.25414e-08 1.01475e-09 -1.32551e-09)
(1.48941e-07 -1.45057e-08 8.55841e-09)
(1.13438e-07 3.73696e-09 2.99659e-09)
(1.61653e-07 -3.2199e-09 -1.66106e-08)
(2.12275e-07 -1.05772e-09 -1.25931e-09)
(2.90763e-07 -4.72141e-08 -1.05162e-08)
(1.44368e-07 2.89755e-10 -4.25649e-10)
(3.32418e-07 -1.08867e-09 -5.05031e-10)
(3.41996e-07 3.23956e-09 -3.07661e-11)
(2.22184e-07 -4.99423e-10 7.01178e-10)
(3.38044e-08 2.82966e-10 -6.17757e-10)
(1.18483e-07 -4.4471e-09 -2.98364e-09)
(2.10305e-07 -3.92454e-09 -2.99455e-08)
(2.26745e-07 2.84944e-10 2.7115e-10)
(9.90974e-08 -2.01942e-09 -5.60096e-10)
(2.18218e-07 -2.16092e-08 -7.60902e-09)
(2.39087e-07 -6.02032e-09 6.90225e-09)
(3.04255e-07 2.39798e-09 2.61336e-09)
(4.28258e-08 -8.57717e-10 1.55932e-09)
(5.26765e-08 -2.59689e-09 1.42956e-09)
(2.6364e-08 1.21304e-10 -2.42654e-10)
(1.89876e-08 1.51343e-10 -1.45175e-09)
(4.29303e-08 -8.71174e-11 2.03396e-10)
(2.21571e-07 -1.60697e-08 9.20549e-09)
(1.82829e-07 -8.34558e-10 1.12577e-09)
(1.80729e-08 -6.40247e-10 2.50817e-09)
(1.99217e-08 1.42744e-09 2.19342e-09)
(3.77438e-07 3.12212e-10 -4.35625e-10)
(1.66152e-07 -2.18282e-08 1.48285e-08)
(4.55241e-08 1.96656e-09 7.13525e-10)
(2.28498e-07 2.94761e-10 -9.72935e-10)
(1.06083e-07 -1.18923e-09 -1.44737e-09)
(2.01859e-07 3.71899e-10 1.89312e-09)
(4.31112e-08 2.25244e-09 -1.21187e-09)
(9.1525e-08 2.84214e-09 -1.10774e-09)
(1.90163e-07 -2.16402e-09 6.20134e-11)
(2.78917e-07 8.87216e-12 -1.47659e-09)
(4.03368e-07 -3.84022e-10 -2.05911e-09)
(4.15804e-08 3.45103e-09 -1.17088e-09)
(2.38535e-08 -1.86592e-09 1.1237e-09)
(2.01613e-07 -2.88106e-08 -2.13835e-08)
(2.71406e-08 -3.53322e-09 1.76961e-10)
(3.09767e-07 -1.78168e-09 -2.37016e-09)
(2.78724e-08 1.55655e-09 -3.44649e-09)
(1.45935e-07 -6.89027e-10 3.06061e-09)
(3.2179e-07 -2.09833e-09 8.10699e-11)
(4.44713e-07 -8.39766e-10 2.89447e-09)
(5.7426e-08 8.61171e-10 -1.07668e-09)
(1.37743e-07 -3.50074e-10 -1.50099e-09)
(3.77608e-08 1.38494e-09 -1.5957e-09)
(2.80404e-08 3.31645e-09 -1.20165e-09)
(2.75224e-07 -9.45774e-10 -8.13983e-10)
(1.42538e-08 -1.21011e-09 -1.82766e-09)
(1.85751e-07 -4.17206e-10 -6.51978e-10)
(5.9846e-08 1.38588e-09 -2.82913e-09)
(3.29594e-07 -2.79092e-09 -4.9935e-10)
(2.26913e-07 -1.24727e-09 -2.69307e-10)
(1.86811e-08 -4.93387e-10 2.96965e-09)
(1.3202e-07 -6.55943e-09 6.21272e-10)
(2.49649e-07 8.17637e-10 1.07815e-09)
(3.05958e-08 -1.48658e-09 4.14479e-11)
(2.95235e-07 2.52735e-10 -9.63384e-10)
(7.75538e-08 -3.1106e-09 4.82775e-09)
(2.11514e-07 4.92154e-10 -2.79153e-12)
(2.40182e-07 -7.32606e-10 -1.64259e-11)
(5.39288e-08 1.60712e-09 1.12498e-09)
(2.07324e-08 8.85446e-10 -2.67767e-09)
(9.03331e-08 1.79869e-09 -7.75896e-10)
(2.43641e-07 3.82244e-08 8.21339e-09)
(2.22443e-07 7.96126e-10 1.02178e-09)
(7.56786e-08 -3.54956e-09 3.65368e-09)
(1.79748e-07 7.81847e-10 2.50322e-09)
(2.37705e-08 -9.07694e-10 5.62331e-10)
(2.13826e-07 -8.52397e-10 -3.65209e-10)
(2.27077e-08 -3.66776e-10 -1.73739e-09)
(3.41397e-07 -7.75107e-10 -1.43601e-09)
(3.00895e-07 3.06629e-10 2.22986e-10)
(2.25551e-07 3.24419e-10 -7.6913e-10)
(1.40506e-08 1.39294e-09 4.43078e-11)
(3.44412e-07 5.85172e-10 1.00899e-09)
(1.54255e-07 1.80196e-09 5.40983e-10)
(3.61575e-07 -1.26938e-10 1.57239e-10)
(6.1561e-08 -6.94011e-10 -2.69836e-10)
(2.2257e-07 -2.6765e-08 1.37592e-08)
(2.64929e-07 -2.02752e-09 -8.38116e-10)
(6.39323e-08 7.44432e-10 -7.66765e-10)
(2.6942e-07 3.00491e-10 5.58637e-10)
(2.10063e-07 3.88337e-09 -3.9553e-08)
(1.80361e-07 5.13623e-10 -1.27924e-09)
(3.19924e-08 8.3221e-10 -1.76156e-09)
(9.8473e-08 -9.6225e-10 -5.36019e-09)
(2.0123e-07 -3.66401e-10 -1.74407e-10)
(2.16651e-07 2.12031e-09 1.01981e-09)
(3.10673e-08 1.57187e-09 6.35048e-10)
(2.16397e-07 2.84436e-09 -3.38388e-09)
(1.55284e-07 -1.30405e-09 -4.74393e-09)
(2.3919e-08 -2.0754e-09 1.41486e-09)
(2.12409e-07 -8.93913e-11 -5.36911e-10)
(1.5832e-07 -1.96349e-09 1.53678e-08)
(3.22756e-07 3.4487e-09 -4.7532e-09)
(2.07686e-07 -6.74771e-10 -9.42139e-11)
(1.90096e-07 -4.92942e-10 7.42797e-10)
(3.18467e-07 -6.17173e-10 6.13009e-11)
(2.53902e-07 1.50747e-09 -5.01525e-10)
(6.86623e-08 1.77615e-09 5.93589e-10)
(7.02992e-08 -3.40712e-09 -3.39676e-09)
(3.93113e-07 -3.06266e-10 1.37192e-09)
(2.24792e-07 -1.9609e-08 1.82255e-08)
(2.06496e-07 -1.83367e-09 8.49956e-10)
(1.86341e-07 -2.52692e-09 1.36779e-09)
(1.24865e-07 3.03275e-09 1.34164e-09)
(3.23301e-07 -8.27148e-10 3.30874e-09)
(2.06295e-07 -7.8792e-10 -1.21452e-09)
(1.78444e-07 -5.19123e-10 -2.4111e-09)
(2.22148e-07 4.01529e-09 1.0908e-09)
(4.30688e-08 6.3297e-10 -2.76953e-09)
(1.67083e-07 1.18982e-09 -8.0357e-10)
(3.80795e-08 -9.80875e-10 -2.84958e-09)
(3.1433e-07 -1.95413e-09 2.00898e-09)
(3.34092e-07 -7.40779e-10 -5.74023e-10)
(1.63182e-07 3.29752e-09 -3.79669e-09)
(1.5892e-07 1.27375e-09 -1.03635e-09)
(1.72718e-08 1.77931e-09 -3.58389e-10)
(1.03018e-07 -4.45965e-10 -9.3714e-10)
(7.37262e-08 -2.48948e-09 -3.15039e-09)
(2.72016e-07 -1.41447e-10 -1.55553e-09)
(2.45517e-07 -1.43117e-09 -5.27863e-10)
(2.20569e-07 -2.01256e-08 1.2735e-08)
(3.18796e-07 -6.06958e-10 2.23686e-09)
(8.06184e-08 -2.35379e-09 -1.96893e-09)
(1.36573e-07 -3.42335e-09 1.06613e-08)
(2.43253e-07 -2.91362e-09 3.13648e-09)
(2.63428e-08 -2.02446e-09 -1.8882e-10)
(2.52125e-07 -1.10749e-09 2.68145e-10)
(5.2685e-08 1.47948e-09 -8.42782e-11)
(2.06292e-07 -3.66011e-10 2.01619e-09)
(3.10091e-08 4.42855e-09 -3.47963e-10)
(3.6974e-07 2.51378e-10 -1.44996e-09)
(2.0396e-07 -8.68407e-09 5.343e-09)