/*--------------------------------*- C++ -*----------------------------------*\
| =========                 |                                                 |
| \\      /  F ield         | OpenFOAM: The Open Source CFD Toolbox           |
|  \\    /   O peration     | Version:  2406                                  |
|   \\  /    A nd           | Website:  www.openfoam.com                      |
|    \\/     M anipulation  |                                                 |
\*---------------------------------------------------------------------------*/
FoamFile
{
    version     2.0;
    format      ascii;
    arch        "LSB;label=32;scalar=64";
    class       volVectorField;
    location    "54";
    object      momentum:angularVelocity;
}
// * * * * * * * * * * * * * * * * * * * * * * * * * * * * * * * * * * * * * //

dimensions      [0 1 -1 0 0 0 0];

internalField   nonuniform List<vector> 
59516
(
(-0.000913813 -0.000634287 0.103438)
(0.0003219 -0.000228075 0.0952348)
(-0.000470737 0.000639961 0.110821)
(-0.00223306 -0.0004636 0.127662)
(-0.00455751 0.000303124 0.113682)
(-0.010443 0.0055576 0.101091)
(-0.00241352 -0.00158398 0.127072)
(-0.000311959 -0.00057764 0.099618)
(-0.000927476 0.00017843 0.110281)
(0.00202395 0.00107236 0.0519343)
(-0.00246606 -0.00026181 0.154067)
(-0.0029925 -0.00223033 0.059783)
(-0.000916617 -0.000717518 0.116854)
(6.21679e-05 -0.0002048 0.0190567)
(0.000212013 -0.00347518 0.0580625)
(-0.00142787 0.00353053 0.04995)
(-0.002713 -0.000507761 0.16976)
(-0.00572219 -0.00158183 0.0700276)
(-0.00599568 -0.00122326 0.114361)
(-0.00137457 0.000579406 0.166086)
(-0.00142669 0.000663021 0.053765)
(0.000392492 0.000852929 0.148373)
(-0.00262581 -0.000674914 0.154547)
(0.000841321 0.000554434 0.0320031)
(5.46765e-05 0.000713749 0.161145)
(-0.000166898 0.00154286 0.0631103)
(-0.000504837 0.00283907 0.0398833)
(-0.00348642 -0.00148058 0.0442435)
(-0.00266224 -0.000881118 0.0653042)
(0.00204981 0.00167346 0.0164757)
(-0.0215134 0.00120348 0.108357)
(-0.0029446 0.00225504 0.0455345)
(-0.000766126 -0.000331219 0.131869)
(-0.00201005 -0.00111576 0.110384)
(-0.00673809 -4.34076e-05 0.139461)
(-0.000525703 0.000125255 0.145957)
(-0.00239377 0.00125593 0.0159066)
(-0.00693383 -0.00220147 0.069926)
(-0.00385773 0.000409557 0.0950102)
(0.000148106 0.000733367 0.160154)
(-3.08384e-05 -0.000623135 0.0987989)
(-0.011688 -2.36732e-05 0.144043)
(-0.00523944 0.00100107 0.14843)
(-0.000653511 0.00037621 0.104552)
(-0.00538079 0.000741833 0.14259)
(0.00137646 0.000378267 0.0529031)
(-0.00541383 0.00014698 0.132281)
(-0.00524538 0.000672276 0.163582)
(-0.0152573 0.00138432 0.111886)
(-0.0087289 0.000290892 0.151159)
(-0.0178988 0.000519815 0.104054)
(-0.00395 -0.00188407 0.0418178)
(0.000341877 -0.00248691 0.117852)
(-0.000313856 0.000478557 0.125288)
(-0.00291901 0.000744493 0.0472012)
(-0.00313282 0.000530836 0.129553)
(-0.0119448 4.3888e-05 0.144967)
(-0.00439594 -0.00164451 0.0444069)
(-0.000296505 -0.000103653 0.176303)
(-0.0103715 -0.000354084 0.135241)
(-0.000294371 0.000432738 0.149358)
(-0.00140725 0.00193887 0.0180563)
(-0.000864531 0.000138561 0.169341)
(-0.00355428 -4.16563e-05 0.166997)
(-0.000542471 0.000514529 0.119737)
(-0.00680064 0.000100744 0.147644)
(0.000192051 0.00278044 0.0244112)
(-0.000136144 0.00030917 0.0391583)
(-0.0228077 0.000380805 0.121527)
(-0.00358048 -0.00084077 0.135566)
(-0.000585657 -0.000815954 0.0348833)
(-0.00236249 -0.000854749 0.164131)
(0.00333207 -0.00134092 0.0217972)
(-0.00167302 -0.000440647 0.142707)
(-0.000131855 -0.000459561 0.184806)
(-0.00413585 0.000226309 0.158182)
(-0.00488438 0.000147963 0.164326)
(0.000370153 7.47893e-05 0.148579)
(0.00175493 0.000943383 0.0435594)
(-0.00855618 0.000725236 0.151814)
(-0.00245475 4.64832e-06 0.0361412)
(-0.00757935 0.000415845 0.146933)
(-0.00637044 0.000377452 0.139745)
(-0.00240267 0.00130557 0.0188517)
(-0.00738822 0.000778536 0.14675)
(-0.000528921 0.000814535 0.17766)
(0.000602671 0.00107187 0.0309235)
(-0.000410064 0.000120139 0.149754)
(-0.00193597 -0.00102546 0.052287)
(-0.00997389 -0.00248395 0.107117)
(-0.0115595 -2.45536e-05 0.131527)
(-0.0010156 0.00121578 0.139236)
(-0.000400756 -5.44887e-05 0.175559)
(-7.72447e-05 0.00116233 0.137158)
(-0.000106731 0.000169494 0.163387)
(-0.0112537 -7.03879e-05 0.109931)
(-0.000439648 -0.000354348 0.139869)
(0.00210033 0.0039241 0.0510227)
(-0.00246319 -0.000984546 0.0643597)
(0.0015515 0.00110027 0.148312)
(-0.0011951 0.000855298 0.0358239)
(0.00254344 0.00133482 0.0230449)
(0.00274007 0.00143528 0.0217954)
(-0.00195136 0.00221008 0.0518619)
(0.000806175 -4.77666e-05 0.134324)
(6.52112e-05 -0.000549468 0.14791)
(0.00177078 -0.00311807 0.0376601)
(-0.000772008 -0.000397569 0.10273)
(-0.000223968 0.000674476 0.0987024)
(-0.00138396 0.00218397 0.0633409)
(-0.018744 -0.000236867 0.124954)
(0.00217028 -0.00205643 0.0290899)
(-0.00251136 0.0032351 0.0641384)
(-0.0195011 -4.8489e-05 0.118042)
(3.01382e-05 4.61898e-05 0.160913)
(0.00104403 -0.00117775 0.0979456)
(-0.00170415 -0.00109708 0.0518706)
(-0.000360858 -0.000652706 0.1324)
(-0.000371857 -0.000978383 0.0207464)
(-0.000824612 0.000879698 0.147016)
(0.000320796 -5.46805e-06 0.188687)
(-0.000487986 0.000584052 0.170881)
(0.000856087 0.00033187 0.158768)
(-0.000558672 0.000356218 0.169471)
(-0.018017 0.00115305 0.132396)
(-0.00331369 0.00011369 0.0898151)
(-0.0017258 -0.000827315 0.0281649)
(-0.0136765 0.00207267 0.138348)
(-0.0130702 0.00307789 0.0898391)
(0.000342387 -0.000268908 0.182904)
(-2.36484e-05 -0.000203252 0.186323)
(0.00164516 0.00195344 0.110755)
(-0.000499279 -0.00193692 0.0220496)
(0.000176019 0.000566029 0.14787)
(0.00117665 0.000343692 0.0996052)
(-0.0019812 0.000981329 0.113873)
(-0.0155869 0.00140663 0.107485)
(0.000148763 0.000495364 0.128501)
(-0.00036231 0.00257628 0.0374735)
(-0.00106304 0.000855069 0.0969629)
(-0.000975677 0.00207363 0.0416911)
(-0.000419428 -0.000418154 0.187306)
(-0.000825559 -0.0015022 0.0176572)
(-0.000555769 0.00102953 0.124063)
(-0.00127709 0.000125128 0.178487)
(-0.00199473 0.000685712 0.141737)
(-0.00575002 0.00135814 0.140304)
(-0.0033282 0.00127527 0.117191)
(0.00094705 -0.00176345 0.0621278)
(-0.000300246 0.00105359 0.10521)
(-0.000276774 -0.000870926 0.101805)
(0.00015962 0.00125519 0.0329465)
(0.00103869 0.00102823 0.16826)
(0.000247972 0.000145567 0.154441)
(-0.000826137 -0.00199143 0.0874121)
(-0.00164145 0.000999204 0.0175758)
(-0.000321712 -0.000302237 0.111432)
(-0.00135875 0.000765323 0.112296)
(-0.00120677 0.000532265 0.0808745)
(-0.00260099 -0.00184343 0.0180264)
(0.00258321 0.00240279 0.0623063)
(0.00354867 -0.0020577 0.0642056)
(-0.000577246 0.00125237 0.032857)
(-0.000222463 -0.000447577 0.0235442)
(0.00299705 8.54425e-05 0.0974588)
(-0.00107102 0.000162278 0.175572)
(0.000854445 -3.66063e-05 0.0589138)
(-0.000965704 -0.000415283 0.180973)
(0.00108362 0.00217553 0.01865)
(0.000112383 -0.000593623 0.136476)
(-0.00139465 -0.00113416 0.0817566)
(-0.000871455 0.00063138 0.0494811)
(-9.40048e-05 -0.001756 0.0610179)
(0.000170735 -0.00056597 0.13603)
(0.000421972 0.000620119 0.0473935)
(-0.00573861 -0.000541577 0.134886)
(-0.000889001 0.000474769 0.171714)
(-0.00686637 0.000567887 0.149519)
(0.000370752 -0.00306332 0.0642664)
(0.000444119 0.000314711 0.0383998)
(-0.00138524 -0.00200258 0.146016)
(0.000838086 0.00294378 0.0313366)
(-0.000940201 -0.0019132 0.0268574)
(0.000560207 0.00143395 0.0613279)
(-6.04126e-05 -0.000774732 0.181759)
(-0.000361585 0.000654587 0.0561799)
(-0.00260863 0.000497755 0.0332072)
(0.000141777 0.000253323 0.0214149)
(-0.000211982 7.86825e-05 0.120231)
(0.00153707 0.000832431 0.0977302)
(-0.00277903 -0.000192914 0.13527)
(-0.000937484 -0.00285213 0.0489779)
(-0.00098427 -0.000418578 0.164972)
(0.00152457 -0.00124655 0.0538037)
(-0.00055945 -5.05955e-05 0.154712)
(0.000398849 0.00070195 0.0277645)
(0.000706479 0.000240005 0.053848)
(0.000305481 -0.00106322 0.038048)
(-0.00457411 -0.000106653 0.107282)
(0.000479806 -0.000755613 0.154564)
(-0.00162485 -0.00222566 0.0781219)
(-0.000530972 -0.000351481 0.188189)
(0.000136457 0.00113047 0.100079)
(0.00153883 -0.001816 0.0181684)
(0.000681753 0.000847212 0.126148)
(-0.000346018 -0.000356967 0.145112)
(-0.000221346 -0.000374531 0.184404)
(0.00138302 -0.000957418 0.154939)
(0.000217284 -0.000689077 0.0214926)
(0.00178061 0.00100866 0.111832)
(-0.000508907 0.00449173 0.0476971)
(-0.00385775 0.000791748 0.0235777)
(-0.000955265 0.00113784 0.143281)
(-0.000317158 0.00131856 0.0527017)
(-0.000878091 -0.00122251 0.113865)
(0.0003182 -0.00016563 0.172457)
(-0.00145637 0.000460379 0.139732)
(-0.00124073 0.00089408 0.157652)
(-0.00163283 0.00302327 0.0511966)
(0.000814766 -0.000104131 0.157198)
(-0.000895989 -0.00257471 0.0521269)
(-0.000298733 0.000257157 0.102787)
(-0.000757413 -0.000894893 0.16629)
(0.00037808 -0.000513151 0.0366895)
(0.000274817 -0.000234323 0.171359)
(0.00068099 7.20151e-05 0.173604)
(-0.000942771 -0.00100514 0.0264721)
(-0.00245362 0.000561883 0.0440146)
(0.00022124 0.000810136 0.172461)
(-0.00201787 0.0033569 0.0513676)
(9.07158e-05 0.000598231 0.174078)
(-0.000342321 0.000309811 0.17444)
(-0.000778761 -0.000420858 0.185984)
(-0.00112606 -0.00193936 0.0232989)
(-0.00125636 -0.00112384 0.0306723)
(-0.00144237 -1.06584e-05 0.0319443)
(-3.07361e-05 -0.000372151 0.0601022)
(-0.00127883 -0.000212336 0.0938861)
(-0.00159976 0.000412805 0.157565)
(0.0018945 -0.000304843 0.0542284)
(0.000496509 0.000349274 0.18797)
(0.00231372 0.00164607 0.0190522)
(0.000711875 0.00052151 0.0515124)
(0.00217927 0.00134619 0.0230602)
(0.000726819 0.000446964 0.184265)
(-0.000415388 -0.000387644 0.0895023)
(-0.00105995 0.000261888 0.146025)
(-0.00081405 0.00150141 0.0621923)
(-0.000521717 -0.000283302 0.170755)
(-0.000527311 -0.000281117 0.102186)
(2.27214e-05 -0.00010032 0.166716)
(-0.00067209 4.72748e-05 0.140296)
(0.000774545 0.000224652 0.188915)
(0.000339875 0.00111292 0.144765)
(-0.000863183 0.00134483 0.147238)
(-0.000676432 0.000582879 0.158887)
(-0.000251134 6.44022e-05 0.0527278)
(-0.00205844 0.00043196 0.154348)
(0.00119256 0.0018781 0.0394207)
(-0.000274093 0.00202199 0.0569577)
(-0.00116246 0.000671997 0.128919)
(-0.000232874 0.000409434 0.163308)
(0.00345335 0.000737551 0.112923)
(0.00040771 0.000206774 0.178685)
(0.00209854 1.11732e-05 0.0960018)
(-8.35338e-05 -0.0025953 0.0548443)
(-0.000661485 -0.00120849 0.16088)
(0.0020183 0.00010765 0.0899256)
(-0.000526647 -0.000863808 0.0436875)
(-0.000485501 0.0013606 0.0491548)
(-0.00259522 0.00232002 0.0957377)
(-0.000244411 -0.000278714 0.174714)
(-0.00152795 0.00188583 0.095843)
(-0.000769504 0.00155402 0.0898796)
(-0.00110236 -0.000411926 0.166373)
(2.63889e-05 0.00240963 0.0898987)
(-0.00115098 -0.0024727 0.0198037)
(0.000773849 0.000381145 0.162749)
(0.00203892 -0.00157795 0.0239599)
(0.00168709 0.000855098 0.0382502)
(-0.000966945 -0.000303927 0.184581)
(-0.000382559 -0.000205034 0.138823)
(-0.00318454 0.00167375 0.0237493)
(-8.92782e-05 -0.000985279 0.119081)
(-0.00129962 -0.00209747 0.122535)
(-0.00243986 0.000362461 0.168303)
(0.000365299 -0.000444216 0.18396)
(0.00190348 -0.00196374 0.0226704)
(0.000176331 0.000643167 0.183317)
(-6.8283e-05 4.79472e-05 0.188193)
(-0.000441832 -0.000573581 0.175785)
(-0.00106394 0.000434841 0.134583)
(-0.000967472 0.000646512 0.137349)
(-0.000333868 -0.000431454 0.0930741)
(0.000183188 -0.000789815 0.173392)
(4.47844e-06 0.00155929 0.0266396)
(-0.000167167 -0.000536963 0.161915)
(0.000300161 0.0006664 0.138994)
(-0.000265967 0.000170893 0.187447)
(-0.000900067 0.000605028 0.171521)
(0.000391495 -0.000648682 0.115217)
(0.000983486 -0.00118944 0.0565842)
(-0.000656938 -0.00139497 0.0217279)
(0.000670832 0.000415887 0.026863)
(-0.00137245 0.000231278 0.164597)
(-0.00277808 0.00113078 0.0193006)
(-0.000818234 -0.00078169 0.061185)
(-0.000940094 0.00283724 0.0499375)
(-0.000772614 -0.000868562 0.169873)
(-0.000533479 1.92878e-05 0.176613)
(-0.000510305 0.000688146 0.155005)
(0.00103774 0.000768193 0.0566792)
(0.00290619 2.96532e-05 0.101288)
(4.93099e-05 0.00409834 0.038174)
(0.000241213 -0.00167416 0.0539558)
(-0.000298362 0.00088334 0.159195)
(0.000387791 -0.0013067 0.0959186)
(-0.0127456 -0.00153154 0.107733)
(0.000245851 -0.0020972 0.0883267)
(-0.000413352 -5.75502e-05 0.0408691)
(0.00218097 -0.000162897 0.0617116)
(-0.000736186 -0.00176902 0.106281)
(-0.000424411 -0.000101444 0.178832)
(0.000451609 -0.00117243 0.186891)
(-0.000595995 0.000867757 0.187692)
(0.000174467 0.00133879 0.162933)
(-0.00598801 -0.000609481 0.096933)
(-0.0010426 -0.000211473 0.125774)
(-0.0012838 0.000315175 0.168791)
(0.000806147 0.000234401 0.162226)
(0.0010894 0.000266888 0.165038)
(-0.00270761 -0.00220029 0.054753)
(0.00263504 -0.00111806 0.0212123)
(0.00140291 0.000137578 0.150802)
(0.00109089 0.00254644 0.0376787)
(3.74869e-05 -0.000106456 0.0300822)
(-0.00185606 -0.000106487 0.162896)
(0.000418349 0.000102389 0.145442)
(-0.00205608 0.00255946 0.0596292)
(-0.00041969 -0.000673923 0.17619)
(0.000464949 0.000907043 0.168234)
(-0.00072652 0.000109409 0.186504)
(-0.00132754 0.000104236 0.176834)
(-8.93156e-05 -0.00150136 0.0311649)
(-0.000234989 0.000152377 0.160407)
(-0.000959997 0.000240972 0.180496)
(0.00030706 0.000768374 0.0553971)
(-0.000184439 -0.00103967 0.185211)
(-0.000309379 0.000344881 0.178481)
(0.000696578 0.000518302 0.130468)
(0.000621284 0.000836137 0.121765)
(-0.000300833 -0.00193384 0.152828)
(0.000619238 0.00107318 0.142998)
(-0.000336973 0.000171734 0.0675901)
(-0.000605123 0.00148935 0.0302816)
(0.000332915 0.00245622 0.0333198)
(0.000470639 -0.000281403 0.0924154)
(-0.012613 -6.84146e-05 0.0862512)
(-0.00735681 0.000764219 0.0746063)
(0.000392286 -0.000388934 0.0808567)
(0.00154968 -0.00131887 0.112952)
(-0.000720113 0.000632736 0.130769)
(-0.00450005 0.000210677 0.159578)
(0.000384988 0.00109233 0.157674)
(-0.000499838 -0.00082231 0.130934)
(8.0659e-05 -0.00059745 0.149266)
(-0.000876592 -0.000107292 0.149909)
(-0.000425068 0.000888629 0.0298565)
(-0.0226243 0.000816739 0.113925)
(0.000441639 0.00142101 0.0560527)
(-0.000912019 0.00153596 0.0392661)
(0.00085171 0.000326599 0.0396305)
(0.000268753 0.000728211 0.163045)
(-0.000491721 0.000292463 0.0918749)
(-0.00126492 0.000496925 0.161822)
(-0.00121581 0.00147378 0.01885)
(0.000350084 -0.000364157 0.125179)
(0.00110119 -0.00068378 0.0424223)
(-0.000128568 0.000189973 0.1673)
(-0.000510332 0.000601228 0.0458097)
(0.00164623 0.000734061 0.0598548)
(0.00074436 0.00279247 0.103508)
(-0.00158439 -0.000422737 0.151973)
(0.0024709 -0.000218088 0.0185044)
(-0.000133492 0.00222894 0.052331)
(8.36776e-05 -0.000595068 0.132341)
(8.13937e-05 -0.00224123 0.0220296)
(-0.00961073 -0.000291801 0.13085)
(0.000564164 -0.00267612 0.11427)
(-0.000393363 -0.00212085 0.130828)
(0.00226259 -0.00270717 0.092357)
(0.00229261 0.000777132 0.0859608)
(0.000514783 -3.74014e-06 0.163276)
(-0.010191 -0.00323009 0.077189)
(-8.84258e-05 -6.84012e-05 0.186895)
(-0.0124761 0.000840465 0.111385)
(-0.00214498 0.00156855 0.057219)
(-0.000339114 0.00142485 0.0604936)
(0.000212538 -0.0001792 0.18314)
(0.000405341 -0.000174197 0.182395)
(0.000594726 -0.000522989 0.0503849)
(-0.000431975 -0.000567317 0.132119)
(-0.00216691 0.000704276 0.0953081)
(-0.000144522 -0.000517349 0.183919)
(0.000394669 -0.000897296 0.183162)
(-0.00102166 -0.00340902 0.0435185)
(-0.000385293 0.00107491 0.13159)
(0.0024367 -0.000223428 0.145439)
(-0.000831141 -0.000329627 0.148039)
(0.000278055 -0.000920421 0.157423)
(0.00235262 -0.00125606 0.0204349)
(-0.00261186 -0.00068049 0.0200149)
(-0.00147758 0.00137571 0.12556)
(-0.000108425 -5.9423e-05 0.178931)
(0.00118352 0.00096832 0.185238)
(-0.00218041 0.00117252 0.0327856)
(0.00141609 -0.000917023 0.171609)
(-0.00130494 -0.000253347 0.104517)
(0.000118534 -0.000196149 0.179066)
(-0.000536235 0.000892824 0.179671)
(0.000458592 -0.00033679 0.185228)
(0.00010337 -0.000939454 0.176288)
(-0.000321029 -0.00157459 0.174994)
(0.000286604 -0.000545553 0.0861909)
(-0.000502254 0.000365726 0.182806)
(-0.0017672 0.0021542 0.0539279)
(-0.000465147 0.000295573 0.16941)
(-0.000953103 -0.000600907 0.10704)
(-0.000965 -0.000472756 0.154295)
(-0.00023159 -7.6024e-05 0.178452)
(-0.000165051 0.000409192 0.149103)
(0.000974823 -0.000938909 0.145014)
(0.00166672 0.00251983 0.0384296)
(0.000870427 -2.10337e-05 0.0322024)
(-0.00183531 -0.00188528 0.0200024)
(-0.00868339 5.27899e-05 0.153304)
(0.000259984 -8.54991e-05 0.191169)
(-0.000957716 0.00025806 0.139428)
(-0.000153527 -0.000883204 0.124954)
(0.0010918 0.00022939 0.0292379)
(0.000674022 -0.00250742 0.0224134)
(-0.000499519 -0.0016944 0.112156)
(-0.000934448 0.0011002 0.15384)
(-0.000432303 -0.000730306 0.178962)
(0.000539861 -3.86283e-05 0.154963)
(-0.00137075 0.00020142 0.134206)
(-0.000309251 -0.000171699 0.190246)
(0.00120183 0.000242743 0.133354)
(-0.0010428 0.00216298 0.0250614)
(0.000266032 0.000853307 0.120994)
(0.00254277 -0.00143126 0.0549245)
(-0.00716173 -0.000787913 0.0704791)
(-0.000519504 0.00039417 0.155197)
(0.000451152 -0.00035497 0.0906573)
(-8.86695e-05 0.000256496 0.146652)
(-0.00328637 0.00208648 0.0194072)
(3.14041e-05 -0.00059142 0.182853)
(-0.000241012 0.000110327 0.183824)
(-0.00047508 -0.000468766 0.181303)
(0.000638515 -0.000650408 0.088912)
(0.000662721 -0.00180685 0.154175)
(-0.000264376 -0.000513885 0.176359)
(-0.000129936 0.000477066 0.11973)
(-0.000555898 0.00017176 0.185857)
(-0.00527995 -0.0005196 0.0976668)
(-0.000439492 -0.000146444 0.173485)
(-0.00266238 0.00122686 0.148896)
(0.00140958 -0.00122668 0.0194144)
(-0.000125764 -0.000199288 0.182358)
(0.00137149 0.00178327 0.115077)
(-0.00282591 -0.00262724 0.0438132)
(-0.00102305 0.00143627 0.0885098)
(-9.08723e-06 0.000169354 0.169713)
(-3.2331e-05 -0.0011835 0.127142)
(0.000903236 0.00213334 0.0815505)
(-0.00211445 0.00149379 0.0192352)
(-0.000237486 6.1564e-05 0.177393)
(0.000601489 0.00241802 0.123021)
(-0.000778327 -0.000140462 0.162197)
(-0.000755102 -0.000226529 0.12246)
(-0.00214007 0.000601717 0.0348267)
(0.000293132 -2.01927e-05 0.14067)
(-0.00390404 0.000316522 0.0257305)
(8.63415e-05 0.000823517 0.164559)
(-0.0119546 0.000601526 0.10228)
(0.0015473 0.000483908 0.17085)
(-0.00019631 0.00172005 0.0489527)
(-0.00127345 0.00152489 0.10349)
(-8.39494e-05 0.00120212 0.0924201)
(0.00189829 -0.00164282 0.0328691)
(0.000105852 0.000135359 0.188054)
(-0.000348911 -0.000625608 0.175701)
(-0.00198519 -0.000775792 0.0205522)
(-0.000470474 -1.66044e-05 0.163897)
(-0.000608533 0.000501259 0.187419)
(-0.000558159 0.00205699 0.0350545)
(0.00145149 0.002148 0.0587335)
(-0.00133218 0.00190282 0.0510465)
(-0.000691441 -7.37585e-05 0.154924)
(8.49042e-05 -0.000451586 0.182966)
(-0.00122568 0.00120928 0.0324171)
(0.00162672 -0.000744264 0.0509246)
(-0.000190747 0.00105285 0.0537186)
(0.00124308 0.00101523 0.112906)
(-0.000293183 -0.000519703 0.184847)
(-0.00254695 -0.00176517 0.0219267)
(0.00089683 0.00024273 0.160376)
(-0.00383937 -0.000832871 0.151943)
(0.000248801 -0.00107747 0.183222)
(-0.00234854 -0.00483024 0.0900997)
(0.000359692 0.000344779 0.170137)
(0.0010848 -0.0020752 0.0213427)
(-0.00114264 -0.00026445 0.165443)
(0.000149499 -0.00035003 0.025612)
(-0.00033597 -0.00176863 0.0585295)
(-6.76109e-05 0.00127279 0.154977)
(-0.00104712 0.00148262 0.0575425)
(-0.00257292 0.00153198 0.0191864)
(0.000335107 -0.00124819 0.0345906)
(0.000446901 0.002763 0.0426667)
(0.000759182 -0.00180811 0.0557471)
(-0.000828045 -0.00019013 0.146074)
(1.95652e-06 0.00109492 0.0475845)
(0.00107517 -0.00176983 0.0562921)
(-0.0155334 0.000630321 0.128244)
(-0.00032401 -0.000391777 0.172939)
(0.001463 1.6883e-05 0.0224526)
(0.000164705 0.00114747 0.104398)
(-0.00850916 -0.00430867 0.0812687)
(0.000214983 0.00027474 0.174126)
(-0.00110996 0.000814918 0.0557924)
(-0.000949454 -0.000693628 0.168625)
(0.00122515 0.00245508 0.0544189)
(-0.000644169 0.000679087 0.121319)
(-0.000629656 0.000629065 0.180306)
(0.00249751 -0.00409521 0.0479883)
(8.31275e-05 -0.000178851 0.178549)
(-0.00319626 -0.000801072 0.0475046)
(0.00245446 -0.00155092 0.0178658)
(-0.000516581 0.000828998 0.146096)
(0.000104901 0.000287893 0.183097)
(-0.000964653 0.000605681 0.12809)
(0.000662571 -0.00169771 0.12325)
(0.000794759 7.55267e-05 0.182483)
(0.0017157 -0.000192173 0.0577251)
(0.000768057 -0.000269131 0.169839)
(0.00118744 0.0026471 0.0541755)
(1.27672e-05 -0.000224868 0.177732)
(0.00175453 0.000827664 0.124276)
(-0.00307179 -0.00206028 0.0262027)
(-0.0012782 0.000232491 0.154269)
(0.00104223 -0.00116584 0.0491489)
(0.00117455 0.00221672 0.0243357)
(-0.00135736 0.000551998 0.147961)
(-0.00156108 8.07086e-05 0.0406734)
(-4.93437e-07 3.66974e-05 0.13709)
(-0.000191888 0.00102382 0.183382)
(-9.81762e-05 0.000307155 0.129932)
(8.12617e-05 0.00339236 0.05096)
(0.00105481 6.61734e-05 0.182819)
(0.00178721 0.000391607 0.0868188)
(3.35335e-05 0.000201233 0.189792)
(-0.000450197 0.000273094 0.18424)
(-0.000372941 0.000992633 0.184463)
(-0.000446052 0.000403372 0.182437)
(0.00285277 -0.00112154 0.0414498)
(0.000302039 0.000413173 0.0488039)
(0.000802029 -3.96484e-05 0.181122)
(0.000469234 -0.00164324 0.163355)
(0.000499057 0.00231292 0.0296038)
(0.000743508 -0.000158231 0.16317)
(-2.46445e-05 0.000369803 0.184059)
(8.98946e-05 0.000479881 0.179601)
(0.000390482 0.0006137 0.18515)
(-0.00168608 0.000666421 0.113411)
(-0.00153938 0.00218353 0.0199815)
(0.000518422 -3.12194e-05 0.180448)
(0.000719251 -0.00126261 0.0973188)
(-0.000593199 0.00109451 0.152413)
(-0.000161021 0.000338825 0.092725)
(-0.00161237 -0.00104989 0.0271543)
(-0.000373008 -0.000434077 0.185157)
(-0.00208671 0.00260785 0.0883637)
(-8.24317e-05 -0.000228702 0.131355)
(0.000202293 0.000264973 0.188)
(-0.00060781 0.00148678 0.140551)
(0.00143978 0.0019235 0.016094)
(-0.0021354 0.00101087 0.0204366)
(-0.000119977 0.000621207 0.179661)
(0.00134487 -0.000586275 0.171122)
(-0.00103921 0.000536211 0.188407)
(-0.000947659 -0.00104393 0.153532)
(-0.000329495 0.00145348 0.0888794)
(-0.000481692 0.00108373 0.149461)
(3.04566e-05 0.000956526 0.178841)
(0.00066867 0.00157251 0.0187384)
(-0.000548659 0.000678533 0.181995)
(-0.0151254 0.000884766 0.135017)
(-5.25402e-05 0.00194725 0.0346972)
(-0.000382277 0.00339153 0.051747)
(-0.000528537 0.000773765 0.1434)
(0.00171294 -0.000792064 0.139779)
(0.000121513 -0.000440769 0.136563)
(0.000751758 -0.000566741 0.121383)
(-0.0029488 0.00215751 0.101483)
(0.000233211 -9.4341e-06 0.187168)
(0.000646121 -0.00301005 0.0946182)
(0.000339422 -0.000350292 0.178563)
(0.000226868 0.000999103 0.174369)
(7.36273e-05 -0.000218717 0.189716)
(4.00968e-05 -0.000252153 0.178268)
(0.00153847 0.00109695 0.037334)
(0.000131753 2.05995e-05 0.165481)
(-0.00027789 -0.00152326 0.0301838)
(-0.0105813 -0.00143606 0.0944306)
(0.00195588 -0.00137391 0.0566054)
(-0.0133187 -6.92775e-05 0.12725)
(0.000663027 0.000744914 0.12872)
(-0.0195369 0.000458891 0.11747)
(7.80209e-05 0.000613832 0.173487)
(-0.000632836 -0.000116783 0.178249)
(-0.0014588 0.000150577 0.154814)
(0.000230274 0.000634601 0.174238)
(-0.000593033 -0.000189033 0.0309663)
(-0.00456018 0.000140819 0.100941)
(-0.0161154 0.00113306 0.112494)
(-0.000213816 -0.000227988 0.180181)
(-0.00077158 0.00217618 0.109182)
(-0.0143468 0.000929714 0.136942)
(-0.00602063 0.00015805 0.157219)
(0.000540364 0.00113614 0.107923)
(-0.0012574 -0.000493839 0.0325083)
(0.00134291 0.00250757 0.0505469)
(-0.000197949 -0.000118675 0.0224293)
(0.00119779 0.00110953 0.0212394)
(-0.00016404 4.42686e-06 0.0318387)
(-0.0111645 0.000285633 0.133617)
(-0.000819748 -0.00066745 0.137915)
(-0.00205763 -0.00230387 0.0215663)
(-0.00259277 0.000704818 0.0204536)
(0.000268627 -1.03916e-05 0.189319)
(-0.0149137 0.00327593 0.096141)
(-0.00157059 0.000139078 0.0343114)
(-0.000655666 -3.09954e-05 0.147536)
(-0.00152946 0.000965293 0.102421)
(0.00120348 -0.000404955 0.132855)
(0.00124232 0.00191736 0.038508)
(-0.0010534 -0.00132947 0.050894)
(0.000183999 0.00122024 0.108397)
(0.000877789 0.000250982 0.172449)
(0.000542499 0.000577319 0.15256)
(-0.0016941 0.00229893 0.0325831)
(-0.000546736 -0.00192453 0.0219099)
(-0.0189044 0.000200265 0.106234)
(-0.00244974 0.00181947 0.023411)
(-0.00013828 0.00126648 0.133096)
(-0.00317743 -0.00102573 0.0246089)
(0.000524954 0.00210627 0.100976)
(-0.00116229 -0.000156775 0.179723)
(0.00120036 0.000194666 0.179437)
(-0.000343573 -0.000899424 0.0401028)
(0.000932207 -0.000508596 0.0949035)
(-0.00179127 -0.000228207 0.0322717)
(-0.00318792 -0.000204768 0.0253937)
(-0.000251257 -0.000780154 0.180777)
(-0.00237921 0.00117754 0.0172627)
(0.000602057 0.000355018 0.167728)
(-0.000340961 -0.00229169 0.0440139)
(-0.000258961 0.00131697 0.156029)
(-0.000246353 0.000752241 0.140762)
(0.00295899 0.00119197 0.0197963)
(-0.000990519 -0.00243858 0.0527391)
(4.57235e-05 0.00080499 0.148759)
(-0.000131846 0.00151132 0.031211)
(0.000523865 0.000149613 0.161496)
(-0.00124472 0.00347274 0.0498167)
(0.000213514 0.000117971 0.104836)
(0.000561347 -4.89588e-05 0.184688)
(0.00120323 -1.36081e-05 0.0330793)
(-0.00285995 -0.000589985 0.0214668)
(-0.000946388 -0.000337051 0.0463269)
(-0.0177791 9.50407e-05 0.110796)
(-0.000586327 -2.74153e-05 0.100799)
(4.46108e-05 0.00348417 0.0517667)
(0.00115367 -0.000234828 0.0806959)
(0.00041138 0.00117344 0.0276817)
(0.000806492 -1.75711e-05 0.186005)
(0.00100006 0.00133666 0.021348)
(-0.000792156 0.000199236 0.170888)
(7.56442e-05 -0.000165018 0.144068)
(-0.000626287 -4.27652e-06 0.169228)
(-0.00173461 -0.000190868 0.0175937)
(0.000214752 -0.000464374 0.151072)
(-0.000855582 0.000452653 0.0793609)
(-8.77285e-05 1.09408e-05 0.158184)
(0.00018378 0.000580538 0.050343)
(-0.0146204 0.000391309 0.108167)
(-0.0012369 0.000483164 0.160354)
(0.000600048 -7.3347e-05 0.0361638)
(-0.00029211 0.000338942 0.190046)
(-0.0204597 0.00237992 0.10887)
(-0.000776996 -0.000421452 0.115653)
(-0.000700491 -0.00168378 0.0299468)
(-0.00116384 0.0022808 0.0463007)
(-0.000233906 0.000287475 0.183784)
(0.0010652 -0.000936967 0.130632)
(-0.00102179 0.00122106 0.0291775)
(-0.000229525 -0.00217776 0.107198)
(0.00138482 0.00113289 0.0564708)
(-0.00150798 0.00177175 0.0221555)
(-0.000451589 0.000102738 0.180732)
(-0.0101012 0.000486373 0.103343)
(-0.000992275 -0.00212711 0.129001)
(-0.00011598 0.000561332 0.174725)
(0.000525155 0.000653585 0.178783)
(8.99827e-05 -0.000319725 0.170551)
(0.000749354 -0.000331157 0.130932)
(0.00102572 0.000349184 0.0397271)
(-0.000459007 0.00245241 0.0364567)
(-8.97772e-05 0.000649155 0.183269)
(-0.0128005 -0.000551954 0.107584)
(0.000207892 0.00114564 0.118963)
(0.00150157 -0.00123614 0.126131)
(0.0018425 -0.000914656 0.0774524)
(-0.000632964 0.00142525 0.14783)
(0.000614574 0.000974782 0.164206)
(-0.00092749 -0.000943264 0.0957114)
(-0.00152603 0.00111113 0.100785)
(-0.00136277 0.00190151 0.0354656)
(-0.000498114 -0.000300383 0.0676911)
(-0.00247142 -0.00189822 0.039376)
(0.00095481 -0.000956403 0.151571)
(0.00041973 -0.000261731 0.17634)
(-0.000745911 0.00268376 0.0903885)
(3.56738e-06 -0.000983698 0.0952024)
(0.00110478 -0.00167537 0.0190969)
(0.000210913 -0.00072953 0.0753803)
(-0.00265979 -0.00125292 0.0539847)
(-0.000859644 0.000547527 0.177495)
(0.00110276 0.000173971 0.179685)
(-0.0112949 -0.000731789 0.104823)
(-0.0010742 0.000513421 0.163761)
(-0.00142495 0.00260224 0.0779421)
(-0.00833024 0.000379637 0.101708)
(0.000729661 -0.00219643 0.131512)
(0.00163576 0.000799575 0.0235893)
(0.000711877 -0.000391124 0.17972)
(-0.000170212 0.00128769 0.0461792)
(-0.00135424 -0.000253299 0.138699)
(0.00327766 -0.00170138 0.0257788)
(0.000639928 -0.000287922 0.176308)
(-0.00507301 -0.000291968 0.101647)
(-0.000718851 -0.000112469 0.158408)
(0.000515957 -0.000436719 0.112564)
(-0.000518783 0.00073226 0.146128)
(0.000235155 0.0013176 0.149444)
(-0.000636095 -0.000129112 0.1869)
(0.000191025 0.00191576 0.0316211)
(-6.80006e-05 -0.00110704 0.0437309)
(-0.00030012 0.000657405 0.0264093)
(-0.000192649 0.000787083 0.178447)
(0.000549461 -6.67066e-05 0.157622)
(0.00148124 0.000753172 0.135236)
(0.000799608 -0.00128834 0.15994)
(0.000221349 -0.000570691 0.0191831)
(8.93528e-05 0.000318023 0.0947898)
(0.00155735 -0.00142791 0.0855901)
(-0.000571228 -0.000265759 0.177818)
(-0.000919935 -8.44323e-05 0.124827)
(9.34165e-05 -0.000561706 0.145195)
(-0.00126399 0.000455571 0.102966)
(-0.000253613 -0.000159023 0.182564)
(-0.00256232 0.00186319 0.0189023)
(0.000340962 0.00334942 0.081624)
(-0.000560691 0.000369703 0.152536)
(-0.000167538 0.0028408 0.0237131)
(0.000347428 0.00206635 0.0414299)
(-0.00103915 -0.000457703 0.058044)
(-0.0022082 -0.000962433 0.0196556)
(0.00138071 9.55914e-06 0.0913298)
(-0.000191197 0.000276335 0.170225)
(-0.000591189 0.00220617 0.0565861)
(0.00211798 0.00184238 0.0174585)
(-0.000335628 -0.00082337 0.100929)
(0.000374732 8.68542e-05 0.0236915)
(5.05015e-05 0.0013781 0.0950219)
(-0.000113476 0.000142306 0.175428)
(0.000151471 1.24115e-06 0.189052)
(0.000227016 -0.00017907 0.174774)
(0.000492586 0.000675161 0.164819)
(-0.000134871 -0.000180965 0.17674)
(-0.00067705 0.00208313 0.128101)
(0.000921238 -0.00103267 0.0432354)
(0.000661129 -0.000143782 0.177403)
(6.16856e-05 -0.00102559 0.121587)
(-0.000846614 -0.0015245 0.0844991)
(-0.00153703 -0.000551864 0.0928912)
(-0.000375779 -0.0001258 0.164487)
(-0.00125991 0.00065134 0.11268)
(0.000905342 0.00135694 0.0616533)
(-0.00123946 -0.00099435 0.154772)
(0.000384305 -0.0011943 0.0307353)
(0.000531658 0.000351732 0.0836994)
(0.000284334 -0.00018478 0.0928671)
(-0.000758871 0.000677715 0.0573373)
(-0.000109016 -0.000125357 0.161063)
(-0.0184122 -0.000499124 0.106006)
(-0.00967929 0.000354111 0.127212)
(-0.000549327 0.00261453 0.0299964)
(0.00170941 -0.000268964 0.0242873)
(-0.000150337 0.0022335 0.0526822)
(0.00188743 -0.000420649 0.0188213)
(-0.000660257 0.000574123 0.124542)
(0.000620799 0.00103001 0.154325)
(-0.00110744 0.00134481 0.126824)
(-0.0153339 0.00120488 0.110213)
(-0.000206674 -0.000266728 0.132594)
(0.000595059 0.000548051 0.146708)
(0.00394438 0.00282097 0.023188)
(-0.000130462 0.000726371 0.157834)
(-0.0131624 -0.000370393 0.127576)
(-0.00125271 -0.000343758 0.0409427)
(0.00257165 0.00234463 0.0202672)
(-0.000445524 -0.000441157 0.112442)