/*--------------------------------*- C++ -*----------------------------------*\
| =========                 |                                                 |
| \\      /  F ield         | OpenFOAM: The Open Source CFD Toolbox           |
|  \\    /   O peration     | Version:  2406                                  |
|   \\  /    A nd           | Website:  www.openfoam.com                      |
|    \\/     M anipulation  |                                                 |
\*---------------------------------------------------------------------------*/
FoamFile
{
    version     2.0;
    format      ascii;
    arch        "LSB;label=32;scalar=64";
    class       volVectorField;
    location    "54";
    object      momentum:angularMomentum;
}
// * * * * * * * * * * * * * * * * * * * * * * * * * * * * * * * * * * * * * //

dimensions      [1 1 -1 0 0 0 0];

internalField   nonuniform List<vector> 
59516
(
(-1.97274e-09 -1.3693e-09 2.23303e-07)
(5.60313e-10 -3.96998e-10 1.6577e-07)
(-8.61292e-10 1.17091e-09 2.02765e-07)
(-3.02164e-09 -6.27315e-10 1.72745e-07)
(-8.01881e-09 5.33339e-10 2.00021e-07)
(-5.20285e-09 2.76887e-09 5.03648e-08)
(-3.97965e-09 -2.61182e-09 2.09528e-07)
(-6.07436e-10 -1.12476e-09 1.93973e-07)
(-1.31337e-09 2.52669e-10 1.56165e-07)
(3.03965e-09 1.61051e-09 7.7997e-08)
(-3.33673e-09 -3.54244e-10 2.08462e-07)
(-5.09059e-09 -3.79404e-09 1.01698e-07)
(-2.50877e-09 -1.96384e-09 3.19829e-07)
(5.04495e-11 -1.66196e-10 1.54646e-08)
(5.43639e-10 -8.91099e-09 1.48883e-07)
(-2.3841e-09 5.89488e-09 8.3401e-08)
(-4.31166e-09 -8.06963e-10 2.69792e-07)
(-1.30534e-08 -3.60845e-09 1.59746e-07)
(-1.72916e-08 -3.52789e-09 3.29817e-07)
(-3.09074e-09 1.3028e-09 3.73446e-07)
(-2.6392e-09 1.22651e-09 9.94588e-08)
(8.41037e-10 1.82767e-09 3.17936e-07)
(-5.97005e-09 -1.53449e-09 3.51379e-07)
(8.95367e-10 5.90051e-10 3.4059e-08)
(1.06123e-10 1.38534e-09 3.12772e-07)
(-5.22632e-10 4.83138e-09 1.97626e-07)
(-6.48111e-10 3.6448e-09 5.12022e-08)
(-5.83647e-09 -2.47857e-09 7.40662e-08)
(-5.88817e-09 -1.9488e-09 1.44435e-07)
(1.62964e-09 1.33044e-09 1.30986e-08)
(-3.7615e-08 2.10421e-09 1.89457e-07)
(-5.41245e-09 4.14497e-09 8.36966e-08)
(-1.01074e-09 -4.36975e-10 1.73974e-07)
(-3.17036e-09 -1.75985e-09 1.74104e-07)
(-6.45631e-09 -4.15923e-11 1.33629e-07)
(-1.43821e-09 3.42669e-10 3.99307e-07)
(-1.9113e-09 1.00279e-09 1.27006e-08)
(-1.3055e-08 -4.14493e-09 1.31656e-07)
(-1.08217e-08 1.14889e-09 2.66522e-07)
(2.61453e-10 1.29462e-09 2.82722e-07)
(-7.94684e-11 -1.60578e-09 2.54598e-07)
(-3.30229e-08 -6.68855e-11 4.06973e-07)
(-1.21187e-08 2.31546e-09 3.43314e-07)
(-6.84221e-10 3.93889e-10 1.09465e-07)
(-9.99147e-09 1.37749e-09 2.64772e-07)
(2.61683e-09 7.19138e-10 1.00576e-07)
(-1.32781e-08 3.60486e-10 3.24436e-07)
(-8.17189e-09 1.04735e-09 2.54848e-07)
(-3.43461e-08 3.11629e-09 2.5187e-07)
(-1.39291e-08 4.64189e-10 2.41211e-07)
(-2.81955e-08 8.18848e-10 1.63914e-07)
(-7.06182e-09 -3.36835e-09 7.47619e-08)
(9.08836e-10 -6.61112e-09 3.13295e-07)
(-7.47432e-10 1.13966e-09 2.98368e-07)
(-5.07826e-09 1.29521e-09 8.21169e-08)
(-5.95044e-09 1.00827e-09 2.46071e-07)
(-1.67646e-08 6.15971e-11 2.03463e-07)
(-7.47487e-09 -2.79633e-09 7.55095e-08)
(-3.56805e-10 -1.24733e-10 2.12157e-07)
(-1.11838e-08 -3.81816e-10 1.45833e-07)
(-4.11393e-10 6.04765e-10 2.08733e-07)
(-1.16232e-09 1.60141e-09 1.49136e-08)
(-1.38116e-09 2.21363e-10 2.70537e-07)
(-7.32231e-09 -8.58179e-11 3.44037e-07)
(-1.30519e-09 1.23796e-09 2.88087e-07)
(-9.92392e-09 1.47012e-10 2.15451e-07)
(1.38947e-10 2.01162e-09 1.76613e-08)
(-2.26188e-10 5.13653e-10 6.50574e-08)
(-3.72221e-08 6.21473e-10 1.98332e-07)
(-4.46364e-09 -1.04815e-09 1.69004e-07)
(-8.56566e-10 -1.19339e-09 5.10194e-08)
(-2.27999e-09 -8.24901e-10 1.584e-07)
(3.48134e-09 -1.40099e-09 2.27736e-08)
(-2.18288e-09 -5.74935e-10 1.86197e-07)
(-2.75129e-10 -9.58916e-10 3.85615e-07)
(-9.42869e-09 5.15927e-10 3.60615e-07)
(-6.39347e-09 1.93678e-10 2.15096e-07)
(5.64939e-10 1.14146e-10 2.26766e-07)
(3.35368e-09 1.8028e-09 8.3242e-08)
(-1.08919e-08 9.23217e-10 1.93258e-07)
(-3.36377e-09 6.36965e-12 4.95248e-08)
(-8.8481e-09 4.85456e-10 1.71529e-07)
(-8.33645e-09 4.9394e-10 1.82873e-07)
(-2.25709e-09 1.22646e-09 1.77094e-08)
(-1.08357e-08 1.14181e-09 2.15225e-07)
(-1.14908e-09 1.76958e-09 3.85967e-07)
(6.041e-10 1.07442e-09 3.09968e-08)
(-1.37494e-09 4.02822e-10 5.02123e-07)
(-4.02422e-09 -2.13158e-09 1.08687e-07)
(-1.55283e-08 -3.86726e-09 1.66771e-07)
(-1.61177e-08 -3.42357e-11 1.83391e-07)
(-1.38266e-09 1.6552e-09 1.89559e-07)
(-6.022e-10 -8.18781e-11 2.63805e-07)
(-1.02754e-10 1.54617e-09 1.82452e-07)
(-1.20971e-10 1.92109e-10 1.85187e-07)
(-1.87772e-08 -1.17444e-10 1.83423e-07)
(-3.90455e-10 -3.14699e-10 1.24219e-07)
(3.43004e-09 6.40842e-09 8.33248e-08)
(-4.40573e-09 -1.76099e-09 1.15116e-07)
(2.17395e-09 1.5417e-09 2.07814e-07)
(-2.0341e-09 1.45575e-09 6.09736e-08)
(2.83959e-09 1.49024e-09 2.57282e-08)
(2.85827e-09 1.4972e-09 2.27356e-08)
(-3.13543e-09 3.55114e-09 8.33314e-08)
(1.39882e-09 -8.28814e-11 2.33069e-07)
(7.2471e-11 -6.10639e-10 1.64376e-07)
(2.54392e-09 -4.47945e-09 5.41029e-08)
(-1.02324e-09 -5.26949e-10 1.36161e-07)
(-3.93943e-10 1.18635e-09 1.7361e-07)
(-4.05638e-09 6.40119e-09 1.85652e-07)
(-4.20494e-08 -5.31377e-10 2.80316e-07)
(3.14765e-09 -2.98253e-09 4.21903e-08)
(-7.22485e-09 9.30695e-09 1.84518e-07)
(-3.62177e-08 -9.00542e-11 2.19229e-07)
(4.16299e-11 6.38019e-11 2.22269e-07)
(1.44342e-09 -1.6283e-09 1.35414e-07)
(-4.0845e-09 -2.62949e-09 1.24323e-07)
(-3.90604e-10 -7.06509e-10 1.43314e-07)
(-3.2161e-10 -8.4618e-10 1.7943e-08)
(-1.47337e-09 1.5718e-09 2.6268e-07)
(7.21583e-10 -1.22996e-11 4.24424e-07)
(-5.12107e-10 6.12921e-10 1.79328e-07)
(8.63538e-10 3.34758e-10 1.60149e-07)
(-6.13676e-10 3.91289e-10 1.86156e-07)
(-1.81094e-08 1.15896e-09 1.33075e-07)
(-5.30116e-09 1.81879e-10 1.43684e-07)
(-2.14601e-09 -1.02876e-09 3.50229e-08)
(-2.09836e-08 3.18005e-09 2.12265e-07)
(-2.37443e-08 5.59151e-09 1.63208e-07)
(3.073e-10 -2.41351e-10 1.64161e-07)
(-3.71857e-11 -3.19601e-10 2.92983e-07)
(4.7625e-09 5.65493e-09 3.20619e-07)
(-5.00891e-10 -1.94318e-09 2.21208e-08)
(3.0338e-10 9.75588e-10 2.54864e-07)
(3.67701e-09 1.07404e-09 3.11265e-07)
(-3.38983e-09 1.67905e-09 1.94836e-07)
(-2.20102e-08 1.9863e-09 1.5178e-07)
(3.59805e-10 1.1981e-09 3.10798e-07)
(-4.91434e-10 3.49445e-09 5.08288e-08)
(-1.72742e-09 1.38947e-09 1.57563e-07)
(-1.74777e-09 3.71457e-09 7.46829e-08)
(-7.63389e-10 -7.61069e-10 3.4091e-07)
(-6.33863e-10 -1.15339e-09 1.35572e-08)
(-6.69159e-10 1.23958e-09 1.49374e-07)
(-1.58185e-09 1.54988e-10 2.2108e-07)
(-3.99236e-09 1.37242e-09 2.83681e-07)
(-8.3101e-09 1.96282e-09 2.02771e-07)
(-5.81218e-09 2.22706e-09 2.04656e-07)
(9.7609e-10 -1.81753e-09 6.40328e-08)
(-5.85223e-10 2.05361e-09 2.0507e-07)
(-8.57945e-10 -2.6997e-09 3.15575e-07)
(2.46977e-10 1.94213e-09 5.09774e-08)
(2.4096e-09 2.38533e-09 3.90336e-07)
(3.50961e-10 2.06024e-10 2.18584e-07)
(-1.48138e-09 -3.5709e-09 1.56742e-07)
(-1.32908e-09 8.09056e-10 1.42311e-08)
(-7.93057e-10 -7.45048e-10 2.74693e-07)
(-3.95956e-09 2.23025e-09 3.27244e-07)
(-1.89876e-09 8.37478e-10 1.2725e-07)
(-2.20961e-09 -1.56605e-09 1.53139e-08)
(3.62604e-09 3.37278e-09 8.74591e-08)
(6.07117e-09 -3.52037e-09 1.09845e-07)
(-6.81579e-10 1.47872e-09 3.87956e-08)
(-2.05824e-10 -4.141e-10 2.17832e-08)
(4.93803e-09 1.40778e-10 1.60576e-07)
(-2.04207e-09 3.0941e-10 3.34756e-07)
(2.22159e-09 -9.51779e-11 1.53178e-07)
(-1.54467e-09 -6.64258e-10 2.89473e-07)
(9.78983e-10 1.96546e-09 1.68491e-08)
(1.77235e-10 -9.36181e-10 2.15232e-07)
(-1.46238e-09 -1.18923e-09 8.57269e-08)
(-1.15896e-09 8.39679e-10 6.58054e-08)
(-1.59969e-10 -2.98821e-09 1.03835e-07)
(1.89231e-10 -6.27281e-10 1.50766e-07)
(7.40787e-10 1.08864e-09 8.32011e-08)
(-1.92673e-08 -1.81833e-09 4.52876e-07)
(-1.30754e-09 6.98292e-10 2.52557e-07)
(-1.42382e-08 1.17758e-09 3.10045e-07)
(8.43041e-10 -6.96558e-09 1.46133e-07)
(7.01897e-10 4.97377e-10 6.0688e-08)
(-2.92158e-09 -4.2236e-09 3.0796e-07)
(1.11269e-09 3.90832e-09 4.16043e-08)
(-1.0136e-09 -2.06255e-09 2.89541e-08)
(9.3856e-10 2.40241e-09 1.02748e-07)
(-7.04131e-11 -9.02978e-10 2.11846e-07)
(-6.14554e-10 1.11254e-09 9.54839e-08)
(-3.52528e-09 6.72662e-10 4.4876e-08)
(1.30133e-10 2.32519e-10 1.96561e-08)
(-3.33993e-10 1.2397e-10 1.89433e-07)
(3.50117e-09 1.89613e-09 2.22612e-07)
(-3.2616e-09 -2.26413e-10 1.58759e-07)
(-2.15016e-09 -6.54147e-09 1.12333e-07)
(-1.29655e-09 -5.5138e-10 2.17313e-07)
(2.60901e-09 -2.13323e-09 9.2075e-08)
(-1.22929e-09 -1.11174e-10 3.3995e-07)
(4.03141e-10 7.09504e-10 2.80633e-08)
(1.24492e-09 4.22924e-10 9.4888e-08)
(4.43241e-10 -1.54269e-09 5.52063e-08)
(-7.80832e-09 -1.82063e-10 1.83138e-07)
(8.25624e-10 -1.30022e-09 2.65965e-07)
(-1.58289e-09 -2.1682e-09 7.6105e-08)
(-5.69002e-10 -3.76655e-10 2.01668e-07)
(4.19787e-10 3.47769e-09 3.07875e-07)
(1.31501e-09 -1.55187e-09 1.55258e-08)
(1.17953e-09 1.4658e-09 2.18253e-07)
(-5.69895e-10 -5.87929e-10 2.39001e-07)
(-4.33723e-10 -7.33884e-10 3.61335e-07)
(1.79779e-09 -1.24455e-09 2.01406e-07)
(1.78934e-10 -5.67456e-10 1.76991e-08)
(4.75948e-09 2.6961e-09 2.9892e-07)
(-6.32426e-10 5.58194e-09 5.92738e-08)
(-4.10299e-09 8.4208e-10 2.50765e-08)
(-1.5436e-09 1.83861e-09 2.31525e-07)
(-5.58732e-10 2.32289e-09 9.28439e-08)
(-2.23869e-09 -3.11678e-09 2.90297e-07)
(5.41819e-10 -2.82028e-10 2.93654e-07)
(-2.84261e-09 8.98586e-10 2.72734e-07)
(-1.64234e-09 1.18349e-09 2.08683e-07)
(-2.5843e-09 4.78496e-09 8.10292e-08)
(1.14065e-09 -1.45781e-10 2.20073e-07)
(-1.99244e-09 -5.72547e-09 1.15916e-07)
(-5.616e-10 4.8344e-10 1.93233e-07)
(-8.33725e-10 -9.85057e-10 1.83044e-07)
(7.37184e-10 -1.00055e-09 7.15374e-08)
(4.87437e-10 -4.15613e-10 3.03936e-07)
(1.24821e-09 1.31998e-10 3.18203e-07)
(-1.10613e-09 -1.17931e-09 3.10591e-08)
(-3.54603e-09 8.12048e-10 6.36109e-08)
(2.6191e-10 9.59061e-10 2.04164e-07)
(-4.51401e-09 7.50943e-09 1.1491e-07)
(1.28762e-10 8.4913e-10 2.47087e-07)
(-3.62177e-10 3.27781e-10 1.84558e-07)
(-1.40232e-09 -7.5784e-10 3.34902e-07)
(-1.25315e-09 -2.15824e-09 2.59286e-08)
(-1.24379e-09 -1.11259e-09 3.03653e-08)
(-1.71475e-09 -1.26711e-11 3.79767e-08)
(-5.45009e-11 -6.59894e-10 1.06572e-07)
(-2.33433e-09 -3.8759e-10 1.71376e-07)
(-4.30748e-09 1.11151e-09 4.24256e-07)
(2.95687e-09 -4.75789e-10 8.46377e-08)
(6.96082e-10 4.89666e-10 2.63524e-07)
(2.19968e-09 1.56494e-09 1.81132e-08)
(1.48427e-09 1.08735e-09 1.07404e-07)
(2.45221e-09 1.51479e-09 2.59483e-08)
(6.76585e-10 4.16073e-10 1.7153e-07)
(-6.94472e-10 -6.48089e-10 1.49636e-07)
(-1.43481e-09 3.54504e-10 1.97667e-07)
(-2.38369e-09 4.39643e-09 1.82111e-07)
(-8.6504e-10 -4.69732e-10 2.83123e-07)
(-1.01571e-09 -5.41489e-10 1.96831e-07)
(5.27418e-11 -2.32865e-10 3.86986e-07)
(-1.01996e-09 7.17441e-11 2.12912e-07)
(8.33575e-10 2.41773e-10 2.03313e-07)
(6.62705e-10 2.17002e-09 2.8227e-07)
(-1.66302e-09 2.59096e-09 2.83671e-07)
(-1.29231e-09 1.11358e-09 3.03549e-07)
(-5.19863e-10 1.33316e-10 1.0915e-07)
(-3.81512e-09 8.00594e-10 2.86069e-07)
(2.36338e-09 3.72195e-09 7.81225e-08)
(-4.58193e-10 3.3801e-09 9.52143e-08)
(-1.95437e-09 1.12979e-09 2.16744e-07)
(-3.79154e-10 6.66618e-10 2.65889e-07)
(7.21354e-09 1.54064e-09 2.35881e-07)
(6.70951e-10 3.40279e-10 2.94055e-07)
(1.59648e-09 8.50007e-12 7.30342e-08)
(-1.58923e-10 -4.93757e-09 1.04341e-07)
(-1.26708e-09 -2.31488e-09 3.08168e-07)
(4.72854e-09 2.52206e-10 2.1068e-07)
(-7.17263e-10 -1.17646e-09 5.95e-08)
(-7.15535e-10 2.00525e-09 7.24447e-08)
(-4.43923e-09 3.96849e-09 1.63763e-07)
(-2.69001e-10 -3.06755e-10 1.92291e-07)
(-4.82165e-09 5.95099e-09 3.02446e-07)
(-1.24817e-09 2.52069e-09 1.45789e-07)
(-2.25285e-09 -8.41837e-10 3.40011e-07)
(5.46653e-11 4.99162e-09 1.86228e-07)
(-1.08821e-09 -2.33786e-09 1.87238e-08)
(1.43152e-09 7.05068e-10 3.01065e-07)
(2.35875e-09 -1.82548e-09 2.77184e-08)
(2.23491e-09 1.13276e-09 5.06708e-08)
(-1.94029e-09 -6.09864e-10 3.70382e-07)
(-6.8674e-10 -3.68061e-10 2.49204e-07)
(-3.60221e-09 1.89327e-09 2.68642e-08)
(-2.2083e-10 -2.43709e-09 2.94549e-07)
(-2.57725e-09 -4.15947e-09 2.42997e-07)
(-3.662e-09 5.4402e-10 2.52606e-07)
(6.72714e-10 -8.18043e-10 3.3877e-07)
(1.87403e-09 -1.93336e-09 2.23197e-08)
(2.8127e-10 1.02593e-09 2.92414e-07)
(-5.69073e-11 3.99594e-11 1.5684e-07)
(-4.13622e-10 -5.36958e-10 1.64561e-07)
(-1.99145e-09 8.13924e-10 2.51909e-07)
(-1.2002e-09 8.02029e-10 1.70388e-07)
(-6.22924e-10 -8.04997e-10 1.73656e-07)
(2.86112e-10 -1.23357e-09 2.70812e-07)
(6.27288e-12 2.18408e-09 3.73137e-08)
(-2.9696e-10 -9.53871e-10 2.8763e-07)
(4.09559e-10 9.09281e-10 1.89653e-07)
(-5.38992e-10 3.46321e-10 3.79867e-07)
(-1.44339e-09 9.70252e-10 2.75059e-07)
(1.03677e-09 -1.71786e-09 3.05121e-07)
(2.29647e-09 -2.77739e-09 1.32126e-07)
(-5.75638e-10 -1.22233e-09 1.90389e-08)
(8.51109e-10 5.27651e-10 3.4082e-08)
(-4.28326e-09 7.21792e-10 5.1369e-07)
(-2.51396e-09 1.02327e-09 1.74656e-08)
(-2.25426e-09 -2.15358e-09 1.68566e-07)
(-1.34161e-09 4.04901e-09 7.12656e-08)
(-1.45685e-09 -1.63777e-09 3.20315e-07)
(-1.15144e-09 4.16299e-11 3.81194e-07)
(-1.03798e-09 1.39972e-09 3.15286e-07)
(2.18727e-09 1.61914e-09 1.19465e-07)
(8.34254e-09 8.51228e-11 2.90758e-07)
(8.44555e-11 7.01943e-09 6.53825e-08)
(3.86637e-10 -2.68349e-09 8.6485e-08)
(-3.79496e-10 1.12355e-09 2.02484e-07)
(6.17991e-10 -2.08238e-09 1.52858e-07)
(-3.18801e-08 -3.83078e-09 2.69469e-07)
(5.24962e-10 -4.47812e-09 1.88603e-07)
(-6.25782e-10 -8.71265e-11 6.18726e-08)
(3.53125e-09 -2.63751e-10 9.99187e-08)
(-1.41116e-09 -3.39095e-09 2.03726e-07)
(-5.25037e-10 -1.25496e-10 2.21232e-07)
(1.05806e-09 -2.74685e-09 4.3786e-07)
(-7.44191e-10 1.08353e-09 2.34362e-07)
(5.27537e-10 4.04812e-09 4.9266e-07)
(-1.02901e-08 -1.04737e-09 1.66575e-07)
(-2.76966e-09 -5.61778e-10 3.34119e-07)
(-2.14879e-09 5.27532e-10 2.82518e-07)
(9.89094e-10 2.87597e-10 1.99042e-07)
(2.2521e-09 5.51736e-10 3.41181e-07)
(-5.004e-09 -4.06641e-09 1.0119e-07)
(2.77076e-09 -1.17565e-09 2.23048e-08)
(2.7426e-09 2.68955e-10 2.94807e-07)
(1.62101e-09 3.78388e-09 5.59887e-08)
(3.37505e-11 -9.58452e-11 2.70838e-08)
(-4.54435e-09 -2.60721e-10 3.98832e-07)
(5.72691e-10 1.40164e-10 1.99101e-07)
(-3.66219e-09 4.55879e-09 1.06209e-07)
(-6.20829e-10 -9.96904e-10 2.6063e-07)
(9.17393e-10 1.78969e-09 3.31943e-07)
(-1.71562e-09 2.5836e-10 4.40415e-07)
(-2.0546e-09 1.61323e-10 2.73681e-07)
(-8.60579e-11 -1.4466e-09 3.00282e-08)
(-4.66003e-10 3.02177e-10 3.18101e-07)
(-1.20073e-09 3.01398e-10 2.25757e-07)
(5.29605e-10 1.32526e-09 9.55468e-08)
(-3.05321e-10 -1.72107e-09 3.06599e-07)
(-4.48782e-10 5.00282e-10 2.58903e-07)
(9.18676e-10 6.83559e-10 1.72067e-07)
(1.00816e-09 1.3568e-09 1.97588e-07)
(-5.47082e-10 -3.5168e-09 2.77926e-07)
(8.68966e-10 1.50597e-09 2.00666e-07)
(-3.76913e-10 1.92089e-10 7.56012e-08)
(-3.86445e-10 9.51131e-10 1.93385e-08)
(3.77806e-10 2.78741e-09 3.78127e-08)
(1.09e-09 -6.51733e-10 2.14035e-07)
(-3.91687e-08 -2.12457e-10 2.67847e-07)
(-1.14179e-08 1.18608e-09 1.1579e-07)
(5.25383e-10 -5.20895e-10 1.0829e-07)
(3.34212e-09 -2.84434e-09 2.43596e-07)
(-1.68563e-09 1.4811e-09 3.06103e-07)
(-6.5508e-09 3.06686e-10 2.323e-07)
(8.79338e-10 2.49495e-09 3.60138e-07)
(-1.27766e-09 -2.10196e-09 3.34687e-07)
(1.20951e-10 -8.95894e-10 2.23828e-07)
(-8.11872e-10 -9.93705e-11 1.38841e-07)
(-3.26181e-10 6.81901e-10 2.29108e-08)
(-4.78771e-08 1.72837e-09 2.41085e-07)
(6.64678e-10 2.13866e-09 8.43607e-08)
(-1.42245e-09 2.39558e-09 6.1242e-08)
(1.39544e-09 5.35099e-10 6.49306e-08)
(2.88212e-10 7.80936e-10 1.7485e-07)
(-9.07915e-10 5.40005e-10 1.69638e-07)
(-1.85751e-09 7.29728e-10 2.37633e-07)
(-1.04444e-09 1.26605e-09 1.61931e-08)
(4.68528e-10 -4.87362e-10 1.67531e-07)
(1.60927e-09 -9.99271e-10 6.19956e-08)
(-1.45568e-10 2.15092e-10 1.89422e-07)
(-5.9457e-10 7.00471e-10 5.33714e-08)
(3.94348e-09 1.75842e-09 1.4338e-07)
(1.53272e-09 5.75e-09 2.13135e-07)
(-1.93421e-09 -5.16074e-10 1.85528e-07)
(2.39618e-09 -2.11493e-10 1.79448e-08)
(-2.77681e-10 4.6365e-09 1.08856e-07)
(1.49746e-10 -1.06491e-09 2.36832e-07)
(8.86242e-11 -2.44033e-09 2.39866e-08)
(-2.12759e-08 -6.4598e-10 2.89671e-07)
(8.84867e-10 -4.19738e-09 1.79228e-07)
(-9.03904e-10 -4.87348e-09 3.00628e-07)
(4.78807e-09 -5.72889e-09 1.95445e-07)
(2.43572e-09 8.25641e-10 9.13265e-08)
(1.25328e-09 -9.1057e-12 3.97509e-07)
(-1.87485e-08 -5.9424e-09 1.42005e-07)
(-1.6203e-10 -1.25337e-10 3.42463e-07)
(-1.74196e-08 1.17349e-09 1.55519e-07)
(-5.14318e-09 3.76102e-09 1.37198e-07)
(-7.82842e-10 3.28927e-09 1.39649e-07)
(3.25893e-10 -2.74774e-10 2.80816e-07)
(1.23402e-09 -5.30324e-10 5.55282e-07)
(9.15536e-10 -8.05102e-10 7.75637e-08)
(-1.08949e-09 -1.43084e-09 3.3322e-07)
(-2.65386e-09 8.62541e-10 1.16726e-07)
(-3.55233e-10 -1.27164e-09 4.5207e-07)
(7.42309e-10 -1.68767e-09 3.44497e-07)
(-1.57843e-09 -5.26682e-09 6.72345e-08)
(-6.32108e-10 1.76348e-09 2.15885e-07)
(6.38658e-09 -5.85604e-10 3.81196e-07)
(-1.27884e-09 -5.0718e-10 2.2778e-07)
(3.93492e-10 -1.30254e-09 2.22778e-07)
(2.61252e-09 -1.39482e-09 2.26924e-08)
(-2.49022e-09 -6.48798e-10 1.90827e-08)
(-3.42371e-09 3.18766e-09 2.90936e-07)
(-1.76912e-10 -9.69576e-11 2.91952e-07)
(1.46389e-09 1.19771e-09 2.2912e-07)
(-2.28818e-09 1.23047e-09 3.4406e-08)
(7.5074e-10 -4.8616e-10 9.09785e-08)
(-3.70229e-09 -7.18782e-10 2.96529e-07)
(1.14985e-10 -1.90275e-10 1.73704e-07)
(-9.48867e-10 1.57985e-09 3.17928e-07)
(7.30435e-10 -5.36431e-10 2.95027e-07)
(1.3125e-10 -1.19284e-09 2.23835e-07)
(-4.36416e-10 -2.14055e-09 2.37891e-07)
(3.95079e-10 -7.52036e-10 1.18813e-07)
(-6.06571e-10 4.41686e-10 2.20774e-07)
(-2.80629e-09 3.42084e-09 8.56366e-08)
(-8.04851e-10 5.11435e-10 2.93133e-07)
(-1.66194e-09 -1.04781e-09 1.86646e-07)
(-1.35057e-09 -6.6165e-10 2.15945e-07)
(-2.94578e-10 -9.67012e-11 2.26988e-07)
(-3.8693e-10 9.59269e-10 3.49542e-07)
(1.79013e-09 -1.72418e-09 2.66298e-07)
(2.84046e-09 4.29435e-09 6.54926e-08)
(1.16747e-09 -2.82117e-11 4.31919e-08)
(-1.71826e-09 -1.76504e-09 1.87266e-08)
(-1.31561e-08 7.99813e-11 2.32268e-07)
(4.14597e-10 -1.36345e-10 3.04857e-07)
(-1.86819e-09 5.0339e-10 2.71978e-07)
(-2.34703e-10 -1.35019e-09 1.91022e-07)
(1.07573e-09 2.26015e-10 2.88077e-08)
(6.5296e-10 -2.42906e-09 2.1713e-08)
(-7.93614e-10 -2.69199e-09 1.78188e-07)
(-1.42364e-09 1.67616e-09 2.34376e-07)
(-7.70861e-10 -1.30224e-09 3.19116e-07)
(1.11723e-09 -7.99408e-11 3.20695e-07)
(-2.0141e-09 2.95956e-10 1.97195e-07)
(-5.78001e-10 -3.20911e-10 3.55577e-07)
(3.3606e-09 6.78767e-10 3.7289e-07)
(-1.27304e-09 2.64056e-09 3.05949e-08)
(3.97914e-10 1.27632e-09 1.80974e-07)
(3.28095e-09 -1.84676e-09 7.08694e-08)
(-9.91548e-09 -1.09087e-09 9.75789e-08)
(-4.33339e-10 3.28793e-10 1.29456e-07)
(6.94007e-10 -5.4605e-10 1.39458e-07)
(-1.52964e-10 4.4248e-10 2.52989e-07)
(-3.15605e-09 2.00374e-09 1.86376e-08)
(6.26395e-11 -1.17966e-09 3.64724e-07)
(-3.60099e-10 1.64841e-10 2.74654e-07)
(-5.80852e-10 -5.73133e-10 2.21669e-07)
(1.42289e-09 -1.4494e-09 1.98135e-07)
(7.39877e-10 -2.01721e-09 1.72124e-07)
(-4.00916e-10 -7.79288e-10 2.67442e-07)
(-2.6524e-10 9.73846e-10 2.44407e-07)
(-9.4049e-10 2.9059e-10 3.1444e-07)
(-9.00142e-09 -8.8583e-10 1.66505e-07)
(-6.90435e-10 -2.3006e-10 2.72542e-07)
(-5.19187e-09 2.39249e-09 2.90362e-07)
(1.29905e-09 -1.13049e-09 1.7892e-08)
(-2.165e-10 -3.43069e-10 3.13925e-07)
(2.25912e-09 2.93741e-09 1.89555e-07)
(-4.05872e-09 -3.77337e-09 6.29268e-08)
(-1.95234e-09 2.74092e-09 1.68909e-07)
(-1.8683e-11 3.48187e-10 3.48924e-07)
(-5.64595e-11 -2.06674e-09 2.22028e-07)
(1.2864e-09 3.03831e-09 1.16145e-07)
(-1.93577e-09 1.36756e-09 1.76097e-08)
(-3.50018e-10 9.0736e-11 2.61451e-07)
(1.62911e-09 6.54912e-09 3.33196e-07)
(-1.14171e-09 -2.0604e-10 2.37922e-07)
(-1.15019e-09 -3.45054e-10 1.86534e-07)
(-3.43102e-09 9.64689e-10 5.58352e-08)
(5.23473e-10 -3.606e-11 2.51208e-07)
(-4.0126e-09 3.25324e-10 2.6446e-08)
(9.23231e-11 8.80569e-10 1.75959e-07)
(-2.43889e-08 1.22718e-09 2.08664e-07)
(2.35173e-09 7.35486e-10 2.59674e-07)
(-3.44272e-10 3.01647e-09 8.58491e-08)
(-2.21503e-09 2.65239e-09 1.80009e-07)
(-1.03252e-10 1.47853e-09 1.1367e-07)
(2.6692e-09 -2.30999e-09 4.62176e-08)
(2.7335e-10 3.49548e-10 4.85624e-07)
(-4.31672e-10 -7.74002e-10 2.17377e-07)
(-1.65567e-09 -6.47019e-10 1.71407e-08)
(-8.14769e-10 -2.87557e-11 2.83838e-07)
(-9.53842e-10 7.85695e-10 2.93769e-07)
(-6.01607e-10 2.21711e-09 3.77832e-08)
(3.08612e-09 4.56701e-09 1.24877e-07)
(-2.52284e-09 3.60351e-09 9.66704e-08)
(-8.55048e-10 -9.1211e-11 1.91581e-07)
(1.24352e-10 -6.61402e-10 2.67976e-07)
(-1.32229e-09 1.30459e-09 3.49721e-08)
(2.82782e-09 -1.29379e-09 8.8525e-08)
(-3.53332e-10 1.95026e-09 9.95062e-08)
(1.91815e-09 1.56657e-09 1.74221e-07)
(-5.51575e-10 -9.77734e-10 3.47759e-07)
(-2.65464e-09 -1.83981e-09 2.28539e-08)
(2.0541e-09 5.5595e-10 3.67325e-07)
(-5.99049e-09 -1.29951e-09 2.37074e-07)
(3.82603e-10 -1.65692e-09 2.81756e-07)
(-2.9766e-09 -6.12198e-09 1.14195e-07)
(7.09345e-10 6.79936e-10 3.35525e-07)
(1.13041e-09 -2.16244e-09 2.224e-08)
(-2.05973e-09 -4.76701e-10 2.98229e-07)
(1.57206e-10 -3.68075e-10 2.69323e-08)
(-7.79024e-10 -4.10098e-09 1.35714e-07)
(-9.9137e-11 1.86627e-09 2.27241e-07)
(-2.44427e-09 3.46084e-09 1.3432e-07)
(-2.48402e-09 1.47904e-09 1.85235e-08)
(4.77349e-10 -1.778e-09 4.92732e-08)
(7.72977e-10 4.77898e-09 7.37979e-08)
(1.75529e-09 -4.1805e-09 1.28892e-07)
(-1.84067e-09 -4.22642e-10 3.24708e-07)
(2.31576e-12 1.29596e-09 5.63216e-08)
(2.54663e-09 -4.19199e-09 1.33332e-07)
(-2.73475e-08 1.10972e-09 2.25782e-07)
(-4.09069e-10 -4.94626e-10 2.18338e-07)
(1.83648e-09 2.11928e-11 2.81842e-08)
(3.52436e-10 2.45535e-09 2.23389e-07)
(-1.54211e-08 -7.80861e-09 1.47283e-07)
(2.53506e-10 3.23972e-10 2.05328e-07)
(-1.95661e-09 1.43651e-09 9.83493e-08)
(-1.01024e-09 -7.38033e-10 1.79421e-07)
(2.34519e-09 4.69953e-09 1.04169e-07)
(-8.50066e-10 8.96146e-10 1.60097e-07)
(-5.75395e-10 5.74855e-10 1.64768e-07)
(3.66224e-09 -6.00504e-09 7.0368e-08)
(1.40636e-10 -3.02582e-10 3.02072e-07)
(-4.77919e-09 -1.1978e-09 7.10309e-08)
(2.06587e-09 -1.30538e-09 1.50373e-08)
(-1.12074e-09 1.79853e-09 3.1696e-07)
(1.12294e-10 3.08181e-10 1.96e-07)
(-2.19677e-09 1.3793e-09 2.91696e-07)
(1.21214e-09 -3.10589e-09 2.25481e-07)
(2.08048e-09 1.9771e-10 4.77694e-07)
(3.99914e-09 -4.47939e-10 1.34552e-07)
(1.87415e-09 -6.5671e-10 4.14427e-07)
(2.10116e-09 4.68401e-09 9.58631e-08)
(1.1192e-11 -1.97125e-10 1.55804e-07)
(4.27793e-09 2.01803e-09 3.03012e-07)
(-3.68611e-09 -2.4723e-09 3.14429e-08)
(-2.51422e-09 4.5731e-10 3.03448e-07)
(2.35385e-09 -2.63302e-09 1.11002e-07)
(1.39751e-09 2.6375e-09 2.89551e-08)
(-2.53187e-09 1.02963e-09 2.75988e-07)
(-2.33705e-09 1.20827e-10 6.08912e-08)
(-7.28578e-13 5.4185e-11 2.02418e-07)
(-2.40829e-10 1.28494e-09 2.30154e-07)
(-2.81249e-10 8.79919e-10 3.72221e-07)
(1.49743e-10 6.25117e-09 9.39051e-08)
(1.7174e-09 1.07741e-10 2.9766e-07)
(3.07968e-09 6.74808e-10 1.49604e-07)
(5.83471e-11 3.50138e-10 3.30231e-07)
(-8.11154e-10 4.92054e-10 3.31958e-07)
(-5.92194e-10 1.5762e-09 2.92909e-07)
(-4.26196e-10 3.85417e-10 1.74316e-07)
(3.25321e-09 -1.27897e-09 4.72681e-08)
(4.22436e-10 5.7787e-10 6.82579e-08)
(8.20517e-10 -4.05624e-11 1.85297e-07)
(8.35147e-10 -2.92466e-09 2.9074e-07)
(4.6352e-10 2.14823e-09 2.74958e-08)
(1.14272e-09 -2.4319e-10 2.50781e-07)
(-6.58975e-11 9.88826e-10 4.92161e-07)
(1.81251e-10 9.67563e-10 3.62122e-07)
(8.2995e-10 1.30439e-09 3.93527e-07)
(-3.64424e-09 1.44038e-09 2.45122e-07)
(-1.50658e-09 2.137e-09 1.95557e-08)
(6.75832e-10 -4.06987e-11 2.35238e-07)
(1.07521e-09 -1.88748e-09 1.45483e-07)
(-1.04557e-09 1.92919e-09 2.68643e-07)
(-2.74487e-10 5.77582e-10 1.58065e-07)
(-2.03949e-09 -1.32801e-09 3.43476e-08)
(-4.46562e-10 -5.19672e-10 2.21668e-07)
(-3.50386e-09 4.37893e-09 1.48375e-07)
(-1.52205e-10 -4.22286e-10 2.4254e-07)
(3.07827e-10 4.03205e-10 2.86077e-07)
(-8.63701e-10 2.11272e-09 1.99724e-07)
(1.18473e-09 1.58275e-09 1.32429e-08)
(-2.02636e-09 9.59252e-10 1.9393e-08)
(-1.30762e-10 6.77051e-10 1.95812e-07)
(2.49918e-09 -1.08948e-09 3.17997e-07)
(-1.34176e-09 6.92322e-10 2.43259e-07)
(-1.14425e-09 -1.26049e-09 1.85382e-07)
(-5.84956e-10 2.58038e-09 1.57789e-07)
(-8.27802e-10 1.86242e-09 2.56853e-07)
(5.10391e-11 1.60295e-09 2.99703e-07)
(6.71892e-10 1.58009e-09 1.88287e-08)
(-4.7181e-10 5.83492e-10 1.56504e-07)
(-1.95111e-08 1.14131e-09 1.74166e-07)
(-6.77691e-11 2.51166e-09 4.47542e-08)
(-6.13681e-10 5.44453e-09 8.30711e-08)
(-1.12704e-09 1.64996e-09 3.05783e-07)
(2.58918e-09 -1.19723e-09 2.11281e-07)
(1.74896e-10 -6.34409e-10 1.96557e-07)
(1.44386e-09 -1.08851e-09 2.33134e-07)
(-3.97033e-09 2.90491e-09 1.36639e-07)
(4.38539e-10 -1.77402e-11 3.51957e-07)
(1.20636e-09 -5.62001e-09 1.7666e-07)
(8.41086e-10 -8.68023e-10 4.42479e-07)
(2.94966e-10 1.299e-09 2.26708e-07)
(9.85094e-11 -2.92632e-10 2.53829e-07)
(7.42402e-11 -4.66868e-10 3.30067e-07)
(1.90832e-09 1.36066e-09 4.63093e-08)
(4.38434e-10 6.8549e-11 5.50673e-07)
(-2.99596e-10 -1.64224e-09 3.25414e-08)
(-1.66893e-08 -2.26503e-09 1.48941e-07)
(3.91963e-09 -2.75334e-09 1.13438e-07)
(-1.69196e-08 -8.80076e-11 1.61653e-07)
(1.09341e-09 1.22845e-09 2.12275e-07)
(-4.83578e-08 1.13585e-09 2.90763e-07)
(6.49255e-11 5.10803e-10 1.44368e-07)
(-1.18018e-09 -2.17789e-10 3.32418e-07)
(-3.22259e-09 3.32636e-10 3.41996e-07)
(2.93639e-10 8.09228e-10 2.22184e-07)
(-6.47386e-10 -2.06359e-10 3.38044e-08)
(-5.35271e-09 1.65293e-10 1.18483e-07)
(-3.01272e-08 2.11823e-09 2.10305e-07)
(-2.69072e-10 -2.86907e-10 2.26745e-07)
(-7.00313e-10 1.97517e-09 9.90974e-08)
(-2.28617e-08 1.4815e-09 2.18218e-07)
(-9.15574e-09 2.40351e-10 2.39087e-07)
(1.52339e-09 3.203e-09 3.04255e-07)
(-1.65648e-09 -6.50574e-10 4.28258e-08)
(1.39949e-09 2.61322e-09 5.26765e-08)
(-2.32674e-10 -1.39494e-10 2.6364e-08)
(1.0708e-09 9.91896e-10 1.89876e-08)
(-2.21187e-10 5.96905e-12 4.29303e-08)
(-1.85136e-08 4.73652e-10 2.21571e-07)
(-1.08671e-09 -8.84817e-10 1.82829e-07)
(-1.72433e-09 -1.93068e-09 1.80729e-08)
(-2.52536e-09 6.86492e-10 1.99217e-08)
(5.35552e-10 -2.07175e-11 3.77438e-07)
(-2.57741e-08 5.66151e-09 1.66152e-07)
(-2.08385e-09 1.84528e-10 4.55241e-08)
(-1.01547e-09 -4.80045e-11 2.28498e-07)
(-1.58415e-09 9.99805e-10 1.06083e-07)
(1.82856e-09 -6.15286e-10 2.01859e-07)
(1.39083e-09 2.14655e-09 4.31112e-08)
(-1.89438e-09 -2.39085e-09 9.1525e-08)
(3.22794e-10 2.14071e-09 1.90163e-07)
(1.41973e-09 4.05935e-10 2.78917e-07)
(1.43437e-09 1.52643e-09 4.03368e-07)
(-2.16189e-09 2.93374e-09 4.15804e-08)
(-5.95237e-10 -2.09525e-09 2.38535e-08)
(-3.5877e-08 3.80066e-10 2.01613e-07)
(-2.84001e-09 2.10934e-09 2.71406e-08)
(-3.21833e-10 2.94762e-09 3.09767e-07)
(-3.59881e-09 -1.16176e-09 2.78724e-08)
(7.5869e-10 3.04409e-09 1.45935e-07)
(-2.08105e-09 -2.80703e-10 3.2179e-07)
(2.97496e-09 4.82458e-10 4.44713e-07)
(-4.91986e-10 -1.28795e-09 5.7426e-08)
(1.353e-09 -7.38176e-10 1.37743e-07)
(-2.09595e-09 -2.67022e-10 3.77608e-08)
(-3.52018e-09 -2.2611e-10 2.80404e-08)
(-3.82525e-10 -1.18774e-09 2.75224e-07)
(-1.96452e-09 9.72294e-10 1.42538e-08)
(6.66751e-10 3.93167e-10 1.85751e-07)
(-4.63607e-10 -3.11604e-09 5.9846e-08)
(-5.47028e-10 2.78197e-09 3.29594e-07)
(-3.97132e-10 1.21264e-09 2.26913e-07)
(2.79231e-09 1.12482e-09 1.86811e-08)
(-2.47954e-09 -6.10443e-09 1.3202e-07)
(7.67338e-11 1.35094e-09 2.49649e-07)
(-1.29247e-10 1.48153e-09 3.05958e-08)
(9.57693e-10 2.73512e-10 2.95235e-07)
(-1.93776e-09 5.4063e-09 7.75538e-08)
(4.30781e-10 2.38016e-10 2.11514e-07)
(7.30019e-10 -6.36698e-11 2.40182e-07)
(1.96161e-09 -2.21852e-11 5.39288e-08)
(-2.76211e-09 -5.69801e-10 2.07324e-08)
(-1.84537e-09 -6.57218e-10 9.03331e-08)
(-3.90963e-08 2.08995e-10 2.43641e-07)
(-1.29391e-09 -6.05001e-11 2.22443e-07)
(6.52173e-11 5.09357e-09 7.56786e-08)
(2.56978e-09 -5.23074e-10 1.79748e-07)
(3.53255e-10 1.00764e-09 2.37705e-08)
(9.27119e-10 -2.01993e-11 2.13826e-07)
(1.06375e-09 1.42179e-09 2.27077e-08)
(-1.58256e-09 3.9803e-10 3.41397e-07)
(1.57987e-10 -3.4465e-10 3.00895e-07)
(-8.34731e-10 -5.69985e-12 2.25551e-07)
(-1.38529e-09 -1.5243e-10 1.40506e-08)
(4.89591e-10 -1.05868e-09 3.44412e-07)
(-1.66301e-09 8.79831e-10 1.54255e-07)
(-2.00529e-10 2.50085e-11 3.61575e-07)
(2.24732e-10 7.099e-10 6.1561e-08)
(-3.00838e-08 8.05179e-10 2.2257e-07)
(-2.04354e-09 7.98257e-10 2.64929e-07)
(1.0608e-09 -1.29667e-10 6.39323e-08)
(-4.14111e-10 4.80503e-10 2.6942e-07)
(-3.9477e-08 4.59206e-09 2.10063e-07)
(-1.21172e-09 -6.57252e-10 1.80361e-07)
(-7.48341e-10 -1.7988e-09 3.19924e-08)
(-2.47527e-09 4.85083e-09 9.8473e-08)
(-2.56109e-10 3.14763e-10 2.0123e-07)
(1.76662e-09 -1.55395e-09 2.16651e-07)
(-1.08797e-09 1.30015e-09 3.10673e-08)
(-4.63334e-10 -4.39617e-09 2.16397e-07)
(3.80798e-09 3.11524e-09 1.55284e-07)
(-1.62801e-09 1.91277e-09 2.3919e-08)
(-5.30739e-10 1.20745e-10 2.12409e-07)
(-1.54748e-08 7.45113e-10 1.5832e-07)
(-2.48263e-09 -5.32193e-09 3.22756e-07)
(-1.37859e-10 6.67224e-10 2.07686e-07)
(5.58385e-10 6.94943e-10 1.90096e-07)
(1.68023e-10 -5.97017e-10 3.18467e-07)
(1.45314e-09 -6.42175e-10 2.53902e-07)
(1.7728e-09 6.03512e-10 6.86623e-08)
(-8.85099e-10 4.72896e-09 7.02992e-08)
(-1.92572e-10 1.39244e-09 3.93113e-07)
(-2.67461e-08 -1.15329e-09 2.24792e-07)
(3.60859e-10 1.98861e-09 2.06496e-07)
(2.21835e-09 -1.82622e-09 1.86341e-07)
(2.97039e-09 -1.47457e-09 1.24865e-07)
(-1.38428e-09 3.117e-09 3.23301e-07)
(7.72102e-10 1.22464e-09 2.06295e-07)
(-1.72921e-09 -1.75861e-09 1.78444e-07)
(-3.36365e-09 2.44913e-09 2.22148e-07)
(-1.65492e-09 2.30915e-09 4.30688e-08)
(-1.2295e-09 -7.4144e-10 1.67083e-07)
(-2.39005e-09 -1.83572e-09 3.80795e-08)
(1.98009e-09 -1.9834e-09 3.1433e-07)
(7.95215e-10 -4.95871e-10 3.34092e-07)
(-1.34663e-09 4.84512e-09 1.63182e-07)
(5.95498e-12 -1.64208e-09 1.5892e-07)
(9.99195e-10 -1.51526e-09 1.72718e-08)
(2.88244e-10 -9.97011e-10 1.03018e-07)
(-3.63244e-09 -1.7111e-09 7.37262e-08)
(-1.31742e-09 8.39098e-10 2.72016e-07)
(1.50678e-09 2.3771e-10 2.45517e-07)
(-2.37666e-08 -1.53982e-09 2.20569e-07)
(-2.09117e-09 9.99488e-10 3.18796e-07)
(-1.47388e-09 2.6916e-09 8.06184e-08)
(-1.11858e-08 5.09773e-10 1.36573e-07)
(1.34963e-09 -4.06266e-09 2.43253e-07)
(1.82669e-09 8.92905e-10 2.63428e-08)
(9.98677e-10 -5.48699e-10 2.52125e-07)
(-1.94191e-10 1.4691e-09 5.2685e-08)
(-2.01421e-09 -3.76743e-10 2.06292e-07)
(3.94267e-09 -2.04658e-09 3.10091e-08)
(1.34201e-09 -6.03809e-10 3.6974e-07)