/*--------------------------------*- C++ -*----------------------------------*\
| =========                 |                                                 |
| \\      /  F ield         | OpenFOAM: The Open Source CFD Toolbox           |
|  \\    /   O peration     | Version:  2406                                  |
|   \\  /    A nd           | Website:  www.openfoam.com                      |
|    \\/     M anipulation  |                                                 |
\*---------------------------------------------------------------------------*/
FoamFile
{
    version     2.0;
    format      ascii;
    arch        "LSB;label=32;scalar=64";
    class       volScalarField;
    location    "54";
    object      nut;
}
// * * * * * * * * * * * * * * * * * * * * * * * * * * * * * * * * * * * * * //

dimensions      [0 2 -1 0 0 0 0];

internalField   nonuniform List<scalar> 
59516
(
2.97534e-06
1.1817e-05
6.59366e-08
1.16731e-06
0.00108493
0.000186194
1.64433e-07
3.57485e-06
4.68384e-07
6.9593e-05
0.00034455
5.85293e-05
8.55537e-07
0.000147126
6.21146e-05
5.7609e-05
1.8205e-05
9.1643e-05
1.32419e-05
1.04678e-06
0.000132282
7.82066e-09
6.12658e-07
0.00011858
3.21788e-10
5.04265e-05
0.000113012
0.000155192
7.10604e-05
0.000126081
0.000242114
0.000146848
6.40084e-09
2.2763e-06
1.55313e-05
1.87544e-08
0.000123084
8.32693e-05
1.75838e-05
2.7104e-08
2.71595e-06
0.000160876
1.52177e-05
7.25975e-06
1.94329e-06
5.68548e-05
4.53827e-06
8.21418e-05
0.000861373
6.17503e-05
0.000623633
0.000106288
6.8104e-08
7.97926e-08
0.000136067
3.80786e-06
0.000241556
0.000121398
2.97972e-06
2.43205e-05
2.48214e-07
0.000133537
3.11548e-06
1.52183e-05
1.76404e-06
6.39466e-06
0.000175654
0.000106985
0.000423792
3.07736e-07
0.0001916
1.99354e-06
0.000155889
1.40067e-07
1.56635e-05
1.49323e-05
5.55128e-05
9.33e-08
0.00010222
5.32873e-05
0.000109503
2.16841e-05
9.13532e-06
0.000143316
2.51639e-05
1.10937e-05
0.000109747
1.31724e-08
5.74048e-05
4.86351e-05
0.000527978
4.92418e-07
2.6106e-06
2.84127e-07
2.35964e-06
0.00108644
2.88199e-07
5.59382e-05
7.25316e-05
1.41892e-07
0.000125641
0.000156604
0.000153602
5.69922e-05
2.45916e-08
1.01687e-06
0.000117085
8.5791e-07
5.53235e-06
5.88831e-05
0.000243172
0.000166493
6.26152e-05
0.000153556
4.47589e-07
4.26373e-06
5.67965e-05
1.70111e-07
0.000142163
9.51431e-08
2.99634e-05
5.16475e-06
3.29008e-08
4.00737e-06
0.000232418
2.10877e-05
0.000171563
0.000104802
0.000280985
1.17826e-05
1.86193e-05
1.29145e-06
0.000136739
1.30593e-09
8.18501e-06
1.19424e-07
0.000111686
2.42171e-10
0.000116033
1.29557e-05
0.000108255
8.9039e-06
0.000121907
6.09072e-08
1.39149e-05
2.37509e-08
2.96076e-06
1.54756e-06
0.000251056
2.18932e-06
1.03086e-05
0.000106364
2.72314e-07
5.45059e-08
1.06016e-05
0.000133878
1.54981e-06
4.04736e-07
1.57687e-05
0.00013624
6.26206e-05
6.03173e-05
0.000114131
0.000161778
4.50453e-06
3.51824e-06
5.57e-05
9.17689e-06
0.000129024
1.46394e-06
1.4814e-05
5.68215e-05
4.06132e-05
2.51637e-09
9.22386e-05
7.55389e-06
2.99834e-06
2.72976e-05
5.62123e-05
9.50109e-05
4.89942e-09
0.000110563
0.000182812
4.37195e-05
8.71504e-06
5.43391e-05
9.25898e-05
0.000132327
1.69712e-07
6.95557e-06
1.07824e-06
5.81832e-05
1.30442e-06
4.09164e-05
4.94704e-09
9.51118e-05
5.40315e-05
9.4638e-05
5.75232e-06
1.70486e-08
2.66833e-05
1.92845e-05
4.12132e-06
0.000125356
2.74707e-08
2.73521e-08
1.65183e-05
2.1549e-06
0.000137983
2.83711e-06
6.74097e-05
0.00017669
4.54769e-08
6.21475e-05
9.77572e-07
2.05087e-06
3.42949e-08
2.68494e-09
6.27207e-05
6.94302e-08
6.4949e-05
1.06628e-05
2.01358e-06
0.000126922
3.87252e-06
4.95234e-06
0.000161672
0.000106883
4.3995e-06
6.00391e-05
1.82923e-06
5.63592e-06
2.45794e-05
0.000148203
0.000108096
9.39776e-05
4.57266e-05
1.90739e-06
5.87802e-07
6.7797e-05
2.17937e-05
0.000145446
5.29778e-05
0.000160097
1.86214e-05
9.07908e-06
3.65027e-07
5.89775e-05
6.60254e-07
2.39476e-06
7.48661e-08
2.09972e-07
3.15553e-05
2.90529e-07
1.19663e-07
3.37113e-07
6.94854e-05
3.14205e-07
0.000105455
5.83865e-05
3.08069e-08
8.54914e-07
2.31662e-06
4.50667e-06
2.92358e-06
5.04735e-05
1.14713e-06
1.04877e-05
0.000131143
5.41272e-05
1.34722e-05
4.63794e-06
4.81427e-06
1.16549e-05
9.69197e-07
9.60559e-06
0.000131445
2.37833e-07
0.00014654
0.000105982
2.04188e-05
3.14157e-08
0.000164906
7.17676e-07
8.6944e-08
1.27397e-05
1.47756e-05
0.000165724
2.29488e-05
5.20519e-05
6.34105e-06
6.22483e-08
2.57822e-07
8.74996e-06
1.3868e-06
0.000173986
1.47818e-06
1.57977e-09
3.3214e-05
6.84341e-06
9.70008e-08
4.99265e-05
0.000142135
0.000149956
2.17613e-08
0.000142791
9.07522e-05
6.81169e-05
1.9558e-06
2.53171e-06
4.5438e-10
5.09273e-05
5.00207e-06
0.000119622
6.10078e-05
1.71689e-06
7.86689e-06
0.00108018
1.47961e-05
0.000101252
6.41461e-05
4.49763e-06
7.96903e-06
2.16431e-05
3.80367e-05
1.36674e-07
3.00381e-05
2.49134e-07
3.18617e-06
6.05119e-07
1.11002e-07
5.41718e-05
0.000150984
1.10977e-07
0.000101702
0.000110883
9.07449e-07
2.28913e-09
6.36858e-05
6.07001e-06
1.73168e-07
1.80057e-05
5.84645e-06
9.85081e-05
6.34607e-08
1.65275e-05
5.67749e-05
1.98404e-05
1.10617e-05
2.5933e-07
5.68342e-07
2.92949e-07
5.7913e-10
2.26275e-05
0.000114778
0.000116821
1.01918e-05
0.000142831
0.000263571
1.55862e-05
2.3582e-06
4.54633e-07
0.000239591
2.92961e-08
1.14267e-08
7.40651e-08
2.64813e-07
0.000117267
0.000287688
6.52077e-05
0.000101838
0.00011134
1.0899e-06
1.132e-05
5.45837e-07
0.00013086
9.03536e-08
0.000112397
3.30361e-06
5.1639e-05
5.00688e-05
1.04486e-06
0.000367928
0.0001513
5.92895e-05
5.61254e-08
0.000141606
2.58543e-05
1.25787e-06
1.40823e-09
1.36974e-05
1.29218e-05
5.64402e-07
0.000127973
1.95574e-05
9.73971e-05
6.03127e-05
5.89513e-05
1.14932e-05
7.63556e-06
5.07676e-05
1.03367e-08
5.35256e-06
1.42638e-05
1.10161e-05
0.000114473
3.57546e-07
3.70115e-08
1.18598e-08
6.81714e-08
0.000153941
0.000145331
1.52045e-08
6.05379e-06
2.16193e-05
0.000111353
4.11314e-06
1.95022e-06
1.43337e-05
9.60347e-06
1.82833e-05
6.35784e-06
4.71937e-06
5.84704e-06
1.53763e-05
5.71351e-05
2.73125e-06
3.74786e-06
3.44808e-07
1.00662e-05
5.05742e-09
2.49499e-07
9.72851e-05
0.000111639
0.000134471
0.000173094
1.87388e-05
1.63902e-07
6.67572e-08
0.000100658
0.000143933
1.0693e-06
4.4032e-07
9.18442e-06
5.60529e-08
6.10247e-09
3.58968e-05
4.11071e-09
0.000159271
3.41513e-07
5.29064e-05
0.000254349
1.30903e-06
1.05819e-05
9.70743e-08
0.000145174
1.22006e-05
2.17409e-05
1.40514e-05
7.148e-06
4.15756e-07
7.11289e-06
1.54928e-06
2.64289e-05
1.81178e-05
3.99239e-06
4.95852e-09
0.000135676
1.12772e-05
6.15646e-07
0.000108978
5.10232e-06
1.95894e-06
9.43126e-08
1.82995e-05
0.000140418
3.18577e-06
1.98112e-08
4.97741e-07
9.09822e-08
9.61687e-05
9.73596e-08
0.000173472
2.56918e-06
0.000792487
4.77504e-06
0.000117927
1.73135e-06
4.37564e-06
8.31524e-05
3.40998e-05
1.50681e-05
0.000157689
1.70856e-06
4.06342e-05
0.00012565
5.65288e-05
5.32938e-05
5.18914e-07
2.25665e-05
0.000213917
5.39144e-05
5.17283e-05
3.19435e-07
2.70323e-05
0.000151966
5.85725e-08
5.76326e-07
1.25081e-05
0.000233242
8.81746e-07
0.00013829
1.1468e-06
0.000140448
4.68742e-05
2.41883e-08
5.14735e-05
0.000144395
0.000121678
0.000103229
5.92537e-05
3.14677e-10
5.83401e-05
4.98698e-05
0.00038826
8.86657e-06
0.00015657
1.92047e-06
0.00011938
4.96708e-06
5.94963e-05
7.53357e-06
6.39015e-05
3.77611e-07
1.36531e-05
8.37082e-05
2.53943e-06
0.000149077
0.000132562
2.65359e-09
1.78104e-05
6.86806e-08
1.67885e-07
1.3323e-05
6.59121e-05
1.7424e-06
5.2464e-05
9.24675e-06
3.0738e-07
0.000156098
3.0056e-08
0.000113671
0.000155855
7.49464e-09
9.7911e-05
1.97969e-07
2.51265e-05
2.90967e-07
5.17085e-05
9.15948e-06
1.41056e-05
1.75069e-05
2.9967e-06
1.59085e-05
1.83533e-05
0.000103361
6.31651e-05
8.0055e-06
1.43935e-07
0.000118779
1.37728e-06
6.83034e-06
4.61969e-06
1.3685e-05
2.21946e-07
0.00013557
3.15344e-06
8.85632e-06
5.48262e-07
4.46116e-06
0.000160335
2.97925e-05
1.3196e-05
5.91752e-10
2.53054e-05
2.34295e-08
0.000110827
0.000143441
1.59104e-05
2.75417e-06
3.4065e-05
2.30334e-06
1.18015e-05
1.06151e-07
8.26739e-06
0.000131555
2.42169e-05
0.000152645
0.000119655
5.20182e-05
2.19465e-09
1.74686e-08
1.68641e-08
6.43338e-08
3.42987e-06
3.83437e-05
1.34525e-05
4.54701e-06
4.44379e-06
6.65261e-06
9.96728e-06
0.000126082
9.81299e-07
0.000110091
0.000207503
5.04566e-05
0.000536924
4.86229e-08
0.000159291
1.02338e-05
1.70683e-06
3.81011e-08
5.02185e-06
0.000109306
0.00148458
0.000701084
1.81112e-05
3.29765e-07
0.000150215
0.000204482
1.29304e-06
9.96699e-05
4.58074e-05
0.000147968
0.000156153
0.000171935
3.44064e-05
4.37695e-07
0.000151618
0.000145978
4.38195e-05
0.000209346
0.000108742
2.76995e-08
6.69533e-07
2.91666e-08
0.000125344
5.59501e-05
5.44426e-07
5.38754e-06
2.62368e-07
0.000110419
0.000139626
0.000391292
0.000169365
9.43591e-08
0.000158424
5.77686e-06
1.33016e-05
5.85288e-07
0.000101574
5.82758e-06
9.77469e-05
0.000166239
1.13626e-05
0.000129866
2.32006e-06
0.000119118
2.01566e-07
1.95082e-08
0.00013924
5.72068e-05
1.56468e-08
0.000109486
2.08734e-06
6.24975e-05
2.25392e-06
1.94653e-05
0.000106423
0.00014486
0.000106888
0.000667183
2.66536e-06
6.11305e-05
1.07134e-05
0.000101995
2.33562e-05
0.000146838
5.63612e-07
3.81468e-12
2.31849e-06
0.00013488
9.21114e-09
1.37474e-05
3.67096e-07
6.62775e-05
0.000881166
1.91515e-08
9.30386e-05
3.70899e-05
0.000486772
5.97683e-08
0.000107175
0.000118995
1.86686e-05
3.39659e-08
0.000107874
7.17639e-07
5.52106e-05
0.000150632
1.04923e-05
0.00124535
1.95316e-09
4.74315e-06
9.83424e-06
3.14466e-06
7.93762e-09
0.000102084
0.0001103
1.20173e-05
0.000984077
2.1459e-07
1.34908e-07
1.94605e-05
1.09485e-08
1.93657e-06
7.57412e-06
2.43511e-06
0.000144691
5.39878e-05
0.00013041
1.15046e-07
6.66571e-06
1.00861e-05
4.06077e-06
0.000128669
1.76472e-05
6.31248e-05
5.42525e-06
1.15834e-05
0.00118134
1.24197e-06
1.32695e-05
0.000839787
2.82045e-07
0.000161524
1.17273e-05
6.01607e-05
1.0627e-08
0.000166618
1.18676e-06
0.00134871
2.01026e-07
4.48373e-07
1.67752e-07
2.89525e-08
1.6104e-05
0.000118724
0.000122514
9.51096e-05
1.4794e-05
6.45265e-07
2.16082e-07
1.57195e-08
0.000124771
1.47622e-05
1.37673e-05
1.01366e-05
1.15583e-07
3.32821e-07
1.02062e-05
2.32719e-05
0.00014256
1.06863e-05
1.09571e-06
0.000158435
9.11748e-05
5.22945e-05
0.000141469
1.89339e-05
1.63188e-06
5.30244e-05
0.000133149
2.72633e-06
0.000147146
2.58139e-06
8.77078e-06
3.37289e-05
8.30838e-06
4.80288e-08
1.2251e-05
3.03669e-07
0.000101763
7.67754e-06
2.62708e-08
1.23946e-05
1.4737e-05
2.3081e-06
4.93756e-07
4.30155e-05
3.86547e-09
0.00011187
1.17294e-05
6.74981e-06
6.03963e-05
8.05347e-08
0.000264266
5.00147e-05
0.000107119
0.000169423
5.12566e-05
0.00013489
1.05741e-07
3.67391e-07
1.2812e-07
8.56278e-05
1.14212e-07
2.50279e-07
0.000148715
7.62872e-07
0.000580788
9.25639e-05
0.000148279
3.01891e-07
1.7633e-06
0.000148071
4.28232e-07
0.000143378
5.98993e-06
5.72116e-07
5.7024e-07
1.94782e-08
5.05759e-06
6.67473e-06
1.51515e-05
0.000131034
0.000113393
4.42081e-06
5.03282e-06
0.000129757
3.06177e-08
0.000312398
6.68842e-06
6.04879e-06
2.05929e-05
5.14631e-07
4.36053e-05
1.31425e-05
0.000118889
4.39784e-06
3.87217e-06
0.000124384
1.3596e-06
1.87532e-05
5.97064e-09
7.73405e-06
1.25475e-08
2.0025e-06
1.44951e-05
3.2641e-06
8.59718e-06
4.79583e-09
4.6632e-05
3.55891e-06
1.41862e-05
0.0015588
9.64209e-11
3.48669e-06
8.5162e-07
0.000124756
9.61132e-05
2.83621e-07
2.58192e-08
1.64709e-08
3.47555e-05
5.4662e-08
2.64108e-05
1.34296e-05
0.000224645
2.44694e-06
1.21074e-05
0.000141024
5.09767e-09
4.98755e-07
0.000109706
3.71092e-07
1.55523e-05
4.19913e-06
1.20958e-05
3.24178e-05
9.1698e-06
5.49887e-05
0.00143803
0.000121241
9.28031e-07
9.43883e-06
0.000155524
7.674e-05
5.4866e-05
9.80457e-07
9.26382e-05
4.1253e-07
7.13319e-06
3.73576e-06
7.97092e-08
1.60119e-05
0.000120072
5.07301e-07
9.45985e-07
7.83881e-07
1.6179e-05
7.69281e-08
2.6959e-05
1.58382e-05
0.000126458
2.76308e-06
9.96259e-06
1.91171e-05
0.000124678
5.57489e-05
8.67273e-06
1.06914e-05
8.18139e-05
3.16814e-06
9.53664e-07
4.06273e-06
1.29748e-05
1.4158e-06
8.49301e-06
9.40943e-06
2.01563e-05
0.00139894
8.08251e-09
1.0929e-06
0.000118355
5.84116e-05
2.41478e-06
8.09683e-09
0.000117241
2.64369e-06
2.18898e-06
5.50258e-05
5.38699e-05
2.82592e-05
7.20133e-08
8.60199e-06
1.89228e-05
0.000294708
7.6223e-06
2.46209e-05
0.000166249
2.14957e-05
0.000106209
1.31386e-05
4.83436e-06
4.71143e-05
0.000110622
6.75208e-06
2.16837e-06
2.14486e-10
0.000100805
1.69523e-05
0.000102544
1.07941e-05
4.67993e-05
4.52421e-05
8.09842e-06
3.74593e-05
5.61415e-05
3.86636e-07
3.27963e-06
1.93506e-06
3.04839e-05
3.91283e-05
4.78027e-07
2.18008e-05
8.74259e-06
5.46755e-05
2.96007e-05
0.000104601
0.000110223
4.6963e-06
9.56772e-05
0.00017965
1.8397e-05
2.64825e-06
1.18935e-05
0.000230124
0.000151808
2.02609e-06
2.19077e-05
5.3725e-07
0.000162203
0.000135509
8.64827e-06
0.000103309
1.63578e-07
5.30052e-07
6.04517e-06
0.000130617
7.71084e-07
1.47391e-06
0.00013142
4.93552e-05
2.15691e-05
5.41437e-05
1.98401e-06
1.82884e-05
1.30637e-06
3.72907e-07
0.000108718
6.69202e-07
1.60322e-06
1.00191e-05
4.37961e-05
1.90133e-06
1.04573e-05
1.23707e-06
0.00013801
1.47352e-06
1.15695e-05
0.00010898
1.17307e-07
0.000119506
4.09526e-07
3.19547e-06
9.74571e-06
0.000185473
2.03175e-05
1.1194e-05
4.78892e-05
8.42049e-06
1.88339e-07
0.000140134
1.27989e-06
1.07285e-07
4.99548e-05
0.000165797
0.000119188
2.01852e-05
4.10476e-09
7.85951e-06
1.2598e-05
4.6959e-05
1.81766e-07
9.47235e-05
2.52888e-06
2.4728e-05
2.68231e-05
5.89675e-05
6.60116e-09
0.000159882
1.3413e-05
2.23269e-08
2.78072e-05
0.000121815
3.48599e-07
8.81502e-08
0.000155914
9.33161e-07
1.51751e-06
6.8171e-06
1.56042e-05
5.80346e-06
0.000159917
2.36367e-06
1.47872e-09
0.000158599
0.000103281
0.000105459
2.92263e-06
1.2431e-05
1.74079e-06
5.42852e-05
2.84794e-06
0.000146347
1.21646e-08
3.39578e-05
9.64236e-07
1.77911e-05
7.6234e-11
4.89903e-08
0.000106853
0.000109605
1.5072e-07
3.50659e-08
0.000141067
0.000171577
2.65571e-06
5.30921e-10
9.37896e-07
3.33797e-06
3.93169e-08
3.55866e-08
5.2634e-06
5.85319e-05
2.40434e-05
4.98431e-05
3.56358e-08
1.53788e-05
0.000109292
0.000161684
3.44697e-06
1.23085e-06
3.86194e-06
2.12283e-06
8.53753e-07
9.14546e-05
2.06976e-06
1.08121e-05
0.000124612
0.000158025
7.75145e-06
7.6446e-06
0.000120259
0.000125169
5.24801e-06
6.48244e-06
0.000165804
1.97075e-05
5.55668e-06
1.65759e-06
8.81805e-06
5.11856e-08
7.46268e-08
0.000142222
8.94498e-05
1.54914e-05
2.15212e-06
2.08772e-06
7.04596e-07
5.39469e-05
5.78536e-05
0.000105481
2.08274e-05
0.000165254
5.60253e-09
1.36252e-09
8.40267e-06
6.11123e-05
0.000143313
2.51047e-05
6.64977e-06
7.22627e-08
1.17171e-05
3.50984e-06
6.98086e-10
0.000122786
7.13116e-05
0.000241046
2.58073e-06
2.85787e-08
2.36848e-06
5.18036e-05
1.49975e-05
1.86571e-07
1.03925e-09
1.12226e-05
6.31228e-09
1.56519e-06
3.68923e-06
5.77379e-05
0.000168923
2.76773e-06
0.000107785
6.40719e-07
2.44523e-07
1.41132e-05
0.000137626
1.37529e-07
4.73585e-05
0.000117873
0.000134788
1.82917e-07
1.35567e-05
4.88562e-07
6.23645e-07
1.48179e-05
2.83903e-06
0.000124551
0.000107621
0.000121665
2.15206e-05
3.59331e-06
1.17366e-07
2.6477e-06
1.3889e-06
2.13551e-07
0.000187955
4.35915e-07
0.000133752
5.35671e-07
2.48169e-06
0.000136353
1.19461e-05
4.73277e-06
5.20772e-08
8.42615e-06
4.39924e-05
9.48084e-05
3.76057e-08
0.000122463
3.50254e-05
5.42579e-05
7.6463e-07
3.19568e-05
0.000106975
0.000184385
0.000115873
5.09425e-06
3.91416e-06
8.48071e-06
7.0349e-05
1.70257e-06
3.08172e-06
7.5318e-07
7.00245e-07
9.86608e-05
0.000116376
2.26156e-06
1.43293e-06
5.78674e-05
2.61403e-05
3.72134e-07
1.63993e-07
8.54986e-06
0.000166516
0.000201394
5.67824e-05
2.66071e-07
2.35368e-06
2.40007e-06
0.000135124
9.94025e-05
6.07173e-09
1.12796e-06
5.81994e-05
1.83069e-05
3.27464e-07
1.16191e-06
3.14328e-06
1.37571e-05
3.63002e-07
2.7854e-07
5.0317e-06
1.17048e-06
7.72167e-07
1.51866e-05
4.24034e-05
1.77526e-05
1.67683e-07
0.000115566
5.3679e-05
7.90943e-07
5.95333e-05
3.90644e-10
4.89261e-06
6.41307e-07
1.85319e-07
5.60605e-07
3.99438e-06
2.58159e-06
2.61327e-07
9.86274e-05
0.000170399
1.92699e-05
1.79536e-05
0.000139185
1.32351e-05
9.27558e-07
5.03718e-06
1.91095e-08
0.000132164
2.62873e-06
1.7275e-07
1.42471e-05
2.86948e-06
7.69937e-07
0.000152549
2.74355e-07
0.000143714
6.50032e-06
0.00013968
3.56756e-07
3.6187e-10
3.14522e-06
0.000148465
6.25383e-05
9.00643e-06
2.09145e-10
5.01386e-05
5.96547e-05
8.42574e-06
1.40376e-05
0.000116869
1.44659e-05
6.66318e-10
5.57668e-05
5.44514e-05
0.00016095
1.75394e-07
9.07832e-06
4.82749e-11
2.39687e-07
4.97183e-06
5.65106e-06
5.53835e-06
0.000133822
0.000102406
0.000159719
1.48935e-05
2.90526e-05
0.00010032
0.000111615
5.26642e-05
0.000161429
8.30141e-07
0.000160161
3.50484e-06
3.33464e-05
1.23578e-07
5.45251e-05
2.12548e-05
0.000104125
6.32183e-05
2.68065e-05
1.38099e-06
4.42049e-07
0.00171343
2.69506e-06
0.000144718
2.66041e-07
3.80668e-08
1.36552e-05
1.41501e-05
1.64519e-07
4.20506e-06
9.93835e-06
5.99016e-05
0.000104886
3.20067e-06
1.91765e-05
0.000111145
1.26386e-05
1.74495e-08
0.000111812
0.000172949
4.60797e-06
7.88307e-05
6.15932e-05
0.000148729
4.77312e-05
0.000116377
0.000125555
0.000113029
0.000146419
2.87691e-06
1.21393e-05
1.28955e-05
0.000135389
2.17401e-06
8.03307e-09
1.58613e-09
1.76535e-06
7.47066e-07
0.000106442
6.73781e-07
0.00140626
1.27344e-05
3.45199e-05
1.09339e-07
0.000127276
1.58854e-06
1.0125e-05
0.000182592
0.00010194
9.25681e-10
6.63255e-06
0.000132929
2.83298e-07
3.59757e-08
1.46782e-05
6.30972e-07
0.000107315
7.3597e-08
1.4894e-05
0.000184381
4.5314e-09
8.53754e-09
5.93053e-06
8.90217e-06
2.29359e-08
2.65574e-08
0.000270395
3.7309e-06
3.95883e-06
6.60674e-07
1.34849e-05
3.48472e-05
4.73816e-08
0.000192103
4.22767e-10
0.000203974
0.000228208
6.46429e-05
1.56344e-08
2.68105e-08
0.000441562
4.29011e-07
2.06684e-06
1.72229e-05
6.25827e-07
0.000153057
0.000160234
0.000220855
5.99242e-05
0.000179624
2.18831e-08
0.00012157
1.13882e-06
0.000103535
0.000140213
3.22629e-05
5.26265e-05
3.55658e-06
1.02823e-07
7.4349e-06
0.000117532
0.000121494
7.41905e-08
5.63337e-07
0.000157095
1.15003e-07
5.38861e-05
1.12199e-05
6.15093e-06
4.09227e-07
1.00924e-05
4.08111e-06
6.85891e-06
1.32874e-05
0.000109265
9.3138e-05
6.51451e-05
0.000101179
2.19079e-06
2.35636e-06
5.78941e-05
5.62016e-05
5.06537e-06
2.42015e-09
4.68054e-08
5.28609e-05
1.07833e-08
0.000135475
7.27541e-05
1.28498e-08
0.000118949
1.28806e-05
9.98178e-06
5.08851e-07
8.27611e-06
5.88239e-07
8.58937e-06
1.01871e-05
1.15595e-06
1.63548e-06
8.32646e-07
0.000150426
0.000118407
7.59146e-07
3.65827e-06
1.35078e-07
9.12937e-06
5.40807e-06
0.000129576
2.64476e-07
6.41545e-08
3.85225e-07
9.1049e-06
0.000121184
5.26039e-05
8.08614e-05
2.21789e-07
5.05183e-05
3.29352e-06
0.000149257
5.69219e-08
0.000112714
1.26943e-05
1.44182e-05
6.15547e-05
1.10989e-08
7.50529e-07
0.000107172
0.00015503
1.32336e-06
0.000187587
9.97729e-07
2.70752e-06
1.34062e-05
1.54505e-07
1.78849e-05
9.21523e-07
0.000151669
3.54173e-06
6.80958e-08
2.75831e-05
0.000127734
4.26809e-07
1.10236e-07
1.32098e-05
2.22128e-07
0.000104363
2.1578e-06
0.000141987
5.41905e-07
4.73491e-07
1.36317e-07
1.18226e-10
0.00010597
0.000144097
0.000120129
7.18115e-06
0.000106004
1.965e-06
9.98209e-05
7.23023e-07
6.16019e-05
0.000129
3.9716e-06
2.37889e-07
1.22691e-05
1.39874e-05
2.17807e-07
3.15511e-08
0.000115019
2.79251e-05
0.000170691
4.94131e-05
1.40653e-05
2.54257e-05
3.35945e-07
0.000181819
0.000105062
6.79091e-05
5.29504e-05
2.44675e-07
6.78274e-09
4.56363e-07
0.00012258
2.22076e-11
1.63939e-07
7.42479e-07
6.76848e-05
5.58579e-08
9.58844e-06
4.27805e-07
2.91199e-06
6.92741e-05
5.20393e-05
1.09724e-07
0.00010112
1.66266e-06
1.0353e-05
7.75749e-08
3.02465e-07
2.87175e-07
1.18197e-05
0.000106619
2.4807e-05
6.0146e-05
0.000155508
1.5814e-07
0.000120202
3.6918e-07
0.000146511
0.000112988
5.39671e-05
2.26328e-05
2.42407e-07
8.58016e-05
0.000162097
5.55456e-07
1.55738e-05
3.99628e-06
3.64064e-06
0.000137546
1.26602e-05
0.000116569
1.62467e-06
1.28419e-06
4.91421e-05
9.00559e-07
2.4445e-06
1.14184e-07
1.89708e-06
2.802e-06
3.67245e-08
4.75943e-06
2.46559e-10
0.000169057
0.000152153
9.47108e-09
0.000167656
4.6628e-07
1.70699e-07
1.36565e-05
2.01563e-05
9.39153e-08
0.000115325
3.06079e-05
4.93806e-05
1.02272e-05
0.000112624
2.9223e-09
2.67241e-05
2.58818e-05
3.54641e-06
0.000109337
5.6028e-07
9.81525e-08
1.2371e-05
2.01686e-08
0.000129677
0.000143434
2.77536e-06
3.15688e-07
3.7513e-06
4.94719e-06
0.000147351
3.53901e-05
4.57396e-05
2.46769e-05
2.01709e-06
0.000106902
8.08155e-09
4.76302e-07
0.00011531
0.000178244
2.73277e-05
1.11465e-05
0.000147362
1.66052e-09
0.000118981
0.000161574
1.5263e-05
7.04099e-06
2.63783e-05
1.86004e-07
5.5268e-06
3.60595e-08
1.40732e-05
1.19827e-06
2.09341e-06
3.02392e-06
7.71354e-08
0.000128286
0.000110855
7.04104e-08
4.53762e-06
3.05798e-06
0.000141054
0.000155535
1.01794e-09
0.000165482
1.6491e-07
2.31373e-06
2.47857e-05
0.000109664
5.86378e-05
8.99765e-06
7.22848e-07
2.50116e-07
7.39541e-09
5.25234e-05
0.000171998
4.60925e-06
0.00016615
0.000118464
0.000102333
0.000105849
9.05307e-07
2.84376e-05
2.36482e-08
1.85058e-06
8.14368e-06
6.25918e-06
1.63443e-06
1.10505e-06
5.7155e-05
1.21109e-05
2.02635e-06
1.83984e-06
9.33002e-05
1.5955e-06
0.000167058
1.16124e-05
0.000112761
3.4985e-07
2.38464e-09
0.00116738
0.000136912
8.7798e-06
6.36187e-05
0.000136182
8.45774e-09
0.000137218
5.89444e-05
3.30574e-06
1.18757e-06
2.20257e-05
0.000101367
3.02567e-06
5.00937e-05
1.67831e-05
1.11574e-06
1.30339e-06
4.95522e-06
0.00010804
1.47872e-09
1.45276e-07
2.75805e-05
4.45144e-07
1.14261e-06
4.68922e-07
4.0522e-05
0.000143043
0.000100431
7.98827e-07
2.32372e-05
6.38531e-09
8.90498e-05
4.67588e-06
4.99394e-05
2.8151e-08
3.91105e-09
1.24631e-05
6.19368e-05
4.97587e-05
0.000126223
1.37489e-07
2.2839e-11
5.20627e-05
4.93436e-07
0.000130402
1.42236e-07
4.6776e-06
0.000164044
1.50765e-06
5.50898e-07
5.17217e-07
0.000223776
0.000153682
0.00012355
5.68578e-05
4.96768e-05
0.000163833
0.000153178
0.000157078
1.25694e-05
3.00096e-06
4.19649e-07
2.0413e-06
1.45215e-06
0.00014261
1.86724e-07
1.16376e-07
0.000121462
0.000131504
0.000177594
1.54441e-05
0.000176432
2.96792e-07
0.000303034
4.24808e-05
2.30408e-05
9.24525e-05
9.20678e-06
3.47794e-07
1.81486e-05
6.80775e-10
3.95024e-07
4.6855e-06
6.20185e-05
2.9385e-06
8.54512e-08
1.69182e-06
0.000117134
3.26442e-05
2.4404e-06
2.47081e-08
1.45541e-06
1.17832e-05
4.86114e-05
9.9917e-05
0.000158664
6.43173e-06
3.64541e-05
7.89314e-06
9.7632e-07
0.000104033
1.91349e-06
6.08456e-05
3.0611e-06
2.00508e-06
9.50123e-05
0.00011309
1.13094e-05
6.807e-08
3.539e-07
5.05338e-07
1.81291e-05
4.61406e-05
1.07477e-10
3.40568e-06
2.06552e-07
6.24194e-08
2.7966e-08
1.3229e-05
1.0943e-05
9.59549e-10
0.000134708
8.47127e-05
0.000161522
4.51477e-06
1.29614e-06
9.19479e-06
5.00992e-05
3.28068e-08
8.39152e-05
4.97945e-05
0.000135582
2.16481e-07
2.448e-06
1.073e-06
0.000126575
0.000102755
6.30701e-05
0.000148182
0.000117484
2.73946e-06
6.64831e-06
0.000143903
0.000113871
5.13384e-05
1.63229e-05
5.42487e-06
1.3126e-08
8.51972e-06
8.9293e-08
6.95601e-10
6.28126e-06
0.000107215
3.39152e-05
6.05837e-08
1.92921e-09
3.31391e-07
1.1473e-09
7.94954e-07
2.6989e-05
6.36444e-07
6.45994e-05
0.000347512
5.51748e-07
2.79469e-06
0.000124956
4.65093e-06
0.000150934
2.05304e-08
3.34573e-08
1.09604e-06
1.65434e-06
5.57143e-05
0.000161383
5.7037e-05
2.65676e-05
1.45532e-05
1.46082e-06
7.38556e-07
0.000116764
1.52316e-05
4.72569e-07
4.75883e-06
1.22183e-06
0.000190571
8.77036e-05
1.83704e-06
1.02153e-06
9.81243e-06
4.36915e-06
9.55892e-07
3.77784e-09
9.3217e-10
4.97878e-06
2.66958e-06
7.70347e-06
4.0852e-08
1.26716e-05
0.000153034
0.000135096
1.52379e-05
1.7174e-06
1.49192e-06
2.92118e-06
0.000157476
1.94726e-06
2.10481e-10
4.04319e-07
1.20168e-05
1.84024e-07
1.2281e-10
4.13118e-08
7.9135e-06
1.38851e-06
4.12981e-09
0.000101585
6.66603e-07
9.20681e-09
0.000140211
1.58312e-07
1.59372e-07
2.51261e-08
2.96204e-09
2.9224e-06
0.000107417
1.75821e-06
1.49065e-05
3.98782e-06
1.69174e-05
7.12594e-07
4.35559e-09
1.36067e-05
3.50981e-08
0.000142263
3.52141e-08
0.000108361
0.00011536
4.38032e-10
0.000135762
7.71431e-06
8.5969e-07
2.23158e-06
5.08271e-05
8.28226e-06
0.000143796
1.07853e-08
9.93191e-05
9.46159e-06
4.24357e-08
1.22387e-08
2.64429e-06
5.99419e-08
1.74617e-07
1.24619e-05
1.86571e-07
2.24939e-07
1.87078e-07
0.000119041
1.40245e-05
1.47633e-05
8.18407e-06
5.68533e-05
1.37525e-10
8.03909e-07
1.55286e-06
0.000133611
7.81529e-08
0.000150758
1.21139e-05
0.000157269
9.59306e-05
3.22296e-06
2.46221e-08
6.50676e-08
1.68171e-06
0.000137169
1.37837e-06
0.000163613
0.000140361
1.51144e-08
6.45855e-05
9.34827e-06
2.76952e-08
1.73369e-07
0.000140033
5.42923e-05
0.000109292
7.65373e-06
1.51885e-06
4.82375e-05
2.43361e-09
1.23737e-05
5.70487e-05
7.43593e-05
0.000154026
5.55845e-08
1.88291e-06
4.90102e-06
8.9486e-09
6.40469e-06
1.4769e-06
1.55061e-07
1.21046e-05
4.28283e-08
1.25341e-05
5.20522e-06
1.27619e-05
4.17857e-06
1.4652e-05
8.51606e-07
7.26332e-09
4.66643e-07
1.45005e-07
6.92687e-06
1.80956e-07
0.000114228
7.29798e-07
7.65071e-06
4.67748e-05
2.57377e-07
2.18817e-05
0.000190275
3.50726e-07
3.56401e-06
9.44521e-06
1.06878e-07
0.000114366
1.13388e-06
8.70795e-07
4.38237e-07
9.79782e-06
5.68209e-05
6.1053e-05
6.50372e-08
0.000109335
0.000110309
0.000180463
9.11591e-10
5.40778e-07
6.2256e-06
2.07368e-08
1.05208e-09
2.11647e-09
7.41946e-05
1.75842e-06
3.33068e-06
4.12619e-06
1.70481e-05
1.79444e-05
0.000109058
0.000138397
0.00014592
4.67384e-05
9.8744e-07
1.44458e-05
1.19146e-05
1.26258e-05
4.55491e-07
1.69994e-06
0.000144877
3.41172e-05
3.28044e-06
4.30384e-06
1.80497e-05
6.39801e-05
6.69531e-05
1.06253e-07
9.93324e-05
4.46598e-07
1.48779e-08
5.86358e-06
1.93424e-07
1.12326e-05
4.38483e-05
6.28627e-06
2.49145e-05
8.9578e-06
4.35296e-07
6.7542e-06
7.535e-05
0.000109956
4.83931e-06
2.66935e-05
5.67141e-05
0.00012204
1.12404e-05
0.000147943
3.54195e-06
9.42833e-07
0.000102628
8.9629e-06
1.96567e-05
1.77243e-07
7.3692e-08
2.0599e-06
9.1491e-08
1.45712e-06
2.29724e-07
1.47717e-05
2.38136e-07
5.03082e-05
1.96347e-05
5.31436e-05
7.06195e-06
2.1373e-06
3.50594e-06
1.13538e-07
9.10635e-06
7.93755e-06
0.000137107
1.05851e-05
0.000133286
1.35828e-05
6.27259e-08
2.26275e-09
1.41152e-06
1.7318e-08
0.000108108
0.000131318
1.82536e-06
1.18119e-05
9.04201e-05
4.01363e-07
0.00010815
9.64193e-07
1.65773e-09
6.33243e-08
4.71591e-07
2.36404e-06
1.18553e-06
8.02791e-07
9.91655e-05
6.07927e-06
0.000114657
0.000105368
5.13509e-05
1.10076e-09
1.22308e-06
3.03538e-05
0.000112668
0.000313742
1.7901e-07
6.99673e-06
1.07494e-05
1.23291e-05
0.000109262
9.7211e-05
0.000113614
5.1512e-05
4.77245e-06
5.7159e-05
5.46705e-08
4.77743e-05
0.000116599
8.91496e-06
9.60001e-05
0.000144168
0.000139864
4.73271e-07
2.56686e-07
5.63375e-06
5.68341e-05
3.19046e-05
0.000143964
1.34628e-06
4.35755e-05
6.13999e-07
1.46319e-07
0.000144648
1.46651e-08
2.3559e-06
7.6805e-07
2.63159e-07
4.16339e-09
5.24216e-06
5.67921e-08
1.89454e-06
4.04914e-08
0.000171511
1.19455e-05
5.4355e-05
3.38963e-08
0.000108099
1.54923e-05
6.19168e-11
2.55491e-05
1.89773e-06
0.000129694
6.01224e-07
2.30885e-06
6.74413e-06
9.9225e-08
4.09117e-07
7.9071e-08
4.96741e-07
3.31777e-08
8.3299e-06
5.60598e-05
5.60564e-05
1.29067e-08
3.48835e-06
2.2698e-08
3.91962e-08
1.18133e-06
5.36776e-07
5.54221e-08
0.000109353
1.85932e-08
1.55822e-05
0.00013663
7.33599e-08
0.000143771
1.14754e-07
4.9965e-05
0.00010872
1.17696e-08
9.57874e-05
0.000151653
0.000126487
0.000110475
0.00010426
3.98399e-06
8.1899e-06
1.36343e-05
5.3058e-09
5.49294e-05
8.26607e-07
1.76796e-05
1.07273e-06
0.000146254
1.57101e-09
2.21546e-06
5.38898e-07
6.29743e-07
0.000138885
9.87733e-05
2.61963e-09
0.000173328
9.66614e-06
0.00012449
1.06841e-07
4.20507e-05
2.58471e-05
1.99983e-05
2.69341e-07
0.00010961
0.000128768
0.000109649
8.57862e-09
5.16361e-05
0.000109508
1.13778e-06
1.27136e-05
0.000143395
7.5142e-06
0.000157155
1.40514e-08
6.02733e-09
7.51734e-06
1.39985e-06
0.000181317
2.14474e-06
9.29303e-05
9.10968e-06
9.24233e-08
1.21202e-06
7.06075e-07
1.07397e-05
2.00163e-06
0.000107117
1.34506e-08
3.35448e-06
1.88258e-05
1.80924e-05
5.40022e-05
0.000128168
4.2526e-07
1.94093e-07
2.39225e-06
4.40435e-05
1.12462e-07
0.000168414
0.000191623
0.000107462
2.73792e-06
0.000115384
7.61225e-07
0.00014496
0.000116238
3.58661e-07
5.15003e-05
0.000103466
0.00010605
2.14101e-10
1.05726e-07
1.43209e-05
5.2909e-05
2.24338e-08
3.33872e-08
8.62258e-07
5.96302e-07
3.95426e-07
3.05306e-06
8.40301e-06
0.000159054
3.1322e-07
2.53037e-05
5.29649e-05
0.000154843
3.17484e-06
1.50446e-06
5.74216e-06
6.08452e-08
0.000157081
1.54336e-06
1.79718e-08
0.000137406
6.502e-09
1.53804e-06
1.01616e-07
0.000107509
2.76066e-06
9.97416e-05
1.48711e-05
4.94907e-05
0.000138342
7.96984e-06
2.59466e-07
4.76311e-05
1.1311e-09
8.70566e-07
5.36277e-07
6.036e-06
5.97788e-05
0.000153701
2.13726e-06
2.03708e-08
1.61157e-08
6.05784e-07
5.68283e-05
1.64003e-09
6.13541e-05
4.68685e-05
1.31211e-08
6.53109e-05
3.44463e-06
3.35411e-07
2.06105e-06
0.000104217
0.000113866
6.58992e-06
7.48401e-07
9.83474e-05
0.000117785
1.10167e-05
2.09253e-07
8.90574e-08
0.000147936
1.14899e-05
3.77048e-07
9.16803e-07
1.59782e-07
1.21503e-09
1.48502e-06
1.47252e-05
3.54082e-10
5.88958e-07
1.28973e-05
0.000157967
0.000158484
1.61488e-07
4.02401e-06
4.96535e-08
2.67716e-07
1.46264e-06
1.71508e-07
3.83361e-06
2.85889e-07
3.64777e-08
1.4882e-06
5.03036e-06
1.3269e-07
9.1049e-07
8.13624e-06
1.47486e-06
7.92919e-06
0.000133725
9.31438e-08
1.50768e-08
4.45241e-09
6.51289e-08
4.9104e-08
7.90215e-06
0.000126262
1.4967e-09
7.6093e-07
1.26189e-08
8.05258e-08
8.47791e-05
5.72795e-05
1.70931e-06
0.000169693
1.57624e-07
0.000113062
7.17651e-07
1.59298e-09
2.72074e-11
3.16376e-09
4.44663e-07
0.000102909
0.000157232
0.00025345
3.33725e-05
0.000122659
5.92597e-08
1.14461e-06
0.00010486
3.70509e-05
3.30259e-06
1.11176e-05
3.0121e-07
3.07708e-07
2.59375e-05
1.81579e-05
1.26228e-06
0.000130306
1.96676e-06
0.000106907
0.000133326
3.88777e-07
4.78873e-05
5.95427e-07
2.79314e-07
6.4727e-06
6.85097e-06
1.25987e-05
2.90844e-08
1.14122e-08
2.06907e-08
8.93494e-05
0.000126711
1.09194e-06
5.68799e-07
2.73076e-06
1.5898e-05
1.19142e-05
7.80361e-06
6.00511e-08