/*--------------------------------*- C++ -*----------------------------------*\
| =========                 |                                                 |
| \\      /  F ield         | OpenFOAM: The Open Source CFD Toolbox           |
|  \\    /   O peration     | Version:  2406                                  |
|   \\  /    A nd           | Website:  www.openfoam.com                      |
|    \\/     M anipulation  |                                                 |
\*---------------------------------------------------------------------------*/
FoamFile
{
    version     2.0;
    format      ascii;
    arch        "LSB;label=32;scalar=64";
    class       volScalarField;
    location    "54";
    object      p;
}
// * * * * * * * * * * * * * * * * * * * * * * * * * * * * * * * * * * * * * //

dimensions      [0 2 -2 0 0 0 0];

internalField   nonuniform List<scalar> 
59516
(
0.239014
0.0137742
0.0130787
0.00181976
0.252466
0.272975
0.239822
0.212675
0.0694704
-0.000533473
0.247153
0.241102
0.166842
0.238272
0.223692
0.0705133
0.240123
0.248075
0.244432
0.237145
0.243565
0.212086
0.239714
0.153849
0.0615753
0.14846
0.0872733
0.24685
0.242232
0.222699
0.255788
0.247004
0.111479
0.00136522
0.244609
0.200264
0.0599203
0.250918
0.242833
0.0120088
0.0141852
0.247187
0.243726
0.00148728
0.242239
0.0375777
0.24304
0.243554
0.254096
0.244875
0.260116
0.00109964
0.113579
0.216463
0.243016
0.242124
0.248366
0.00147331
0.153501
0.245687
0.00141424
0.19584
0.154707
0.240701
0.00299007
0.242543
0.00742603
0.203979
0.254413
0.242096
0.207604
0.237138
0.0418332
0.238401
0.205247
0.241685
0.243093
0.0266394
0.17014
0.244764
0.00135344
0.244776
0.243821
0.0993613
0.244779
0.23673
0.0697931
0.237382
0.112387
0.248043
0.250602
0.208826
0.232312
0.20613
0.207068
0.253813
0.222724
0.213332
0.24453
0.16513
0.0756915
0.136994
0.218712
0.00794111
0.0418343
0.00629271
0.00570036
0.0654818
0.118502
0.171608
0.252722
0.08164
0.209321
0.253266
0.23007
0.190656
0.0292706
0.216874
0.217413
0.029316
0.218725
0.215386
0.0563592
0.216905
0.251194
0.244666
0.230214
0.248804
0.259869
0.231518
0.229254
0.0140036
0.205075
0.232061
0.232771
0.202005
0.251601
0.226001
0.13805
0.235802
0.0826815
0.103786
0.2128
0.0820203
0.236384
0.234076
0.242591
0.23806
0.258904
0.23295
0.236179
0.00283441
0.230153
0.00271166
0.231612
0.00502114
0.00360149
0.23227
0.232872
0.22446
0.236459
0.236213
0.223898
0.00412457
0.188942
0.0275913
0.0696446
0.233869
0.234501
0.00390553
0.231675
0.231696
0.227288
0.228124
0.227693
0.243627
0.191645
0.244405
0.0126885
0.189264
0.229958
0.121845
0.14469
0.229355
0.229587
0.0771762
0.106706
0.059307
0.230957
0.228595
0.000313693
0.120769
0.233629
0.228562
0.23499
0.0187355
0.138692
0.138176
0.00369301
0.226981
-0.000558046
0.0582232
0.213919
0.165919
0.195557
0.122032
0.234577
0.00320133
0.15831
0.220728
0.0391162
0.246624
0.219754
0.196684
0.220873
0.0878131
0.233231
0.01873
0.181047
0.221301
0.221106
0.234264
0.227181
0.00409541
0.223813
0.190945
0.157684
0.16604
0.226817
0.0340328
0.223008
0.119977
0.227361
0.126392
0.133069
0.227522
0.226059
0.047536
0.225924
0.0506488
0.230146
0.122071
0.118304
0.00299885
0.231372
0.230947
0.228524
0.0113103
0.227437
0.230533
0.0117742
0.228743
0.230623
0.143636
0.2296
0.230405
0.0709741
0.225422
0.17516
0.222327
0.159916
0.224144
0.225698
0.225371
0.200172
0.0538798
0.181759
0.0643208
0.223032
0.151179
0.24036
0.19515
0.0683142
0.15388
0.223974
0.200265
0.151474
0.222821
0.223799
0.0883274
0.227031
0.166527
0.154997
0.221757
0.220053
0.239546
0.23034
0.00677816
0.225637
0.201278
0.224748
0.222251
0.206568
0.0270927
0.209597
0.117856
0.202049
0.197717
0.222765
0.201121
0.200536
0.0565281
0.0923688
0.195192
0.204111
0.148103
0.0186136
0.200514
0.201338
0.0753472
0.0616124
0.201675
0.14455
0.136211
0.242435
0.20333
0.214552
0.254518
0.202671
0.0591808
0.120151
0.21344
0.127653
0.216338
0.166751
0.203801
0.246501
0.214684
0.157561
0.215862
0.0213422
0.236145
0.154913
0.215826
0.177279
0.222277
0.225493
0.194795
0.245824
0.220523
0.196744
0.194681
0.216724
0.047192
0.0976513
0.220482
0.0908051
0.224769
0.217041
0.175649
0.22673
0.228509
0.0348992
0.113257
0.157667
0.0481023
0.00712342
0.252579
0.25716
0.190453
0.031228
0.232708
0.245556
0.209777
0.0307339
0.215873
0.215296
0.233078
0.256211
0.219236
0.0801727
0.0786985
0.214968
0.161915
0.185837
0.214743
0.216332
0.211078
0.172712
0.205497
0.233544
0.00105818
0.246401
0.0094827
0.0180346
0.216305
0.0070461
0.245862
0.215705
0.0131167
0.0128819
0.0533484
0.211245
0.251176
0.213901
0.251669
0.0104703
0.0706235
0.211185
0.212368
0.222233
0.209392
0.173641
0.222619
0.223629
0.0568829
0.137582
0.223791
0.222229
0.221259
0.0374108
0.0211173
0.0229716
0.125357
0.196295
0.00952085
0.0338229
0.0655545
0.00443921
0.210941
0.208656
0.214359
0.213998
0.224562
0.21364
0.164514
0.208301
0.142426
0.214137
0.178855
0.217358
0.212733
0.200243
0.126888
0.222686
0.246212
0.0218965
0.217982
0.161594
0.0779183
0.164096
0.18179
0.219779
0.217792
0.214798
0.213179
0.0753702
0.212859
0.166008
0.0269722
0.183818
0.257316
0.142084
0.0606654
0.215167
0.177072
0.212556
0.133477
0.212444
0.0598147
0.213231
0.00387471
0.00728091
0.209798
0.24374
0.207635
0.192072
0.0358161
0.195072
0.19344
0.0402636
0.201847
0.193488
0.189058
0.1884
0.0950669
0.195527
0.190761
0.130089
0.188945
0.0837198
0.186578
0.246993
0.186756
0.259371
0.187777
0.226409
0.0814569
0.0940073
0.163383
0.00372824
0.00289451
0.177084
0.20002
0.203915
0.157272
0.191402
0.0477548
0.209431
0.207436
0.248179
0.138713
0.12164
0.166653
0.207212
0.0199079
0.202082
0.239378
0.00450813
0.279017
0.208221
0.0628934
0.236017
0.175642
0.241238
0.194481
0.169004
0.186826
0.210518
0.172234
0.210759
0.232621
0.072308
0.0725634
0.251871
0.00295762
0.209287
0.201041
0.251412
0.199439
0.235977
0.000802674
0.202667
0.0822216
0.000276363
0.152851
0.0377814
0.249357
0.216355
0.067166
0.00214414
0.222518
0.12428
0.201738
0.221787
0.201141
0.233302
0.000727725
0.101269
0.0661015
0.20082
0.0342378
0.147519
0.209213
0.129478
0.207939
0.00254373
0.21227
0.0625782
0.208759
0.164323
0.112059
0.104455
0.210326
0.00211236
0.0414691
0.199867
0.0775525
0.158352
0.181186
0.1189
0.114193
0.19957
0.198939
0.22862
0.198236
0.113207
0.199812
0.19776
0.108408
0.0968242
0.000891365
0.198697
0.198531
0.200229
0.0923891
0.191875
0.00996586
0.200994
0.00533099
0.210821
0.000891176
0.0233466
0.170394
0.121188
0.0104192
0.201409
0.249623
0.00343156
0.016461
0.198324
0.194992
0.0322259
0.197205
0.197815
0.133956
0.0386116
0.210751
0.204199
0.0130593
0.199776
0.200136
0.14682
0.196573
0.25842
0.200571
0.251664
0.172371
0.254068
0.175223
0.0223384
0.23518
0.00521844
0.00578621
0.25577
0.254438
0.17694
0.199884
0.24911
0.24589
0.123982
0.0993048
0.162615
0.0604235
0.173136
0.11496
0.24612
0.175876
0.17811
0.193515
0.18305
0.256285
0.165454
0.186749
0.0518504
0.186824
0.138998
0.0171884
0.186854
0.185883
0.187286
0.140155
0.0846968
0.264517
0.117961
0.121151
0.143822
0.222157
0.187378
0.0611213
0.173552
0.143599
0.0125934
0.0637195
0.189966
0.218258
0.15054
0.14063
0.189021
0.188914
0.0758004
0.228014
0.197909
0.130193
0.195014
0.156888
0.204662
0.192849
0.00971459
0.0247303
0.1756
0.25692
0.137882
0.128679
0.00307985
0.147293
0.192546
0.110872
0.201971
0.197444
0.0842095
0.116037
0.200357
0.235764
0.210974
0.160178
0.256271
0.200201
0.0324672
0.208491
0.259068
0.020682
0.115135
0.222565
0.188485
0.073124
0.182933
0.0222273
0.0166574
0.159718
0.188816
0.256345
0.21251
0.188286
0.187927
0.193339
0.085497
0.0102551
0.0619328
0.211145
0.255692
0.142145
0.190787
0.128249
0.0550811
0.187593
0.0587641
0.188502
0.240493
0.11669
0.00217349
0.215948
0.0902998
0.193829
0.0168694
0.0725954
0.145097
0.218897
0.192021
0.193984
0.256986
0.219128
0.0366199
0.258987
0.00311559
-0.000623305
0.193275
0.0394341
0.105323
0.144901
0.101166
0.256517
0.190153
0.215729
0.186175
0.0428535
0.155639
0.049235
0.119122
0.214312
0.186254
0.187945
0.185636
0.0687441
0.230971
0.174756
0.0611591
0.186892
0.185312
0.184727
0.172153
0.186943
0.0182433
0.0113083
0.185976
0.00333524
0.112823
0.129339
0.00984072
0.135948
0.158998
0.237922
0.176729
0.207953
0.163035
0.119784
0.187369
0.189138
0.189753
0.101843
0.188608
0.231292
0.0156833
0.00268773
0.126825
0.107783
0.00285528
0.188305
0.185757
0.187225
0.0172881
0.0285226
0.185024
0.221843
0.0274673
0.0360858
0.256494
0.24797
0.190612
0.0373508
0.199609
0.176317
0.20444
0.160219
0.182659
0.250468
0.160397
0.159843
0.0817592
0.16188
0.251472
0.0307414
0.180851
0.160284
0.096449
0.197459
0.203559
0.0831004
0.196125
0.21942
0.198982
0.160477
0.241709
0.0487966
0.160004
0.214685
0.0140785
0.171825
0.0658231
0.15727
0.0867189
0.250496
0.16382
0.00289589
0.158025
0.157313
0.167592
0.159249
0.146724
0.00445034
0.0397029
0.196622
0.169779
0.139866
0.199035
0.101528
0.220485
0.0224103
0.169402
0.0752875
0.15336
0.199183
0.0145145
0.172018
0.16858
0.252805
0.0236954
0.204639
0.224217
0.0378873
0.165604
0.0395942
0.134417
0.188929
0.203391
0.16543
0.164308
0.163697
0.256407
0.0294341
0.202337
0.100203
0.0176813
0.166121
0.20729
0.176318
0.175206
0.0304845
0.17786
0.179443
0.0942371
0.226695
0.255007
0.238019
0.133906
0.179821
0.00381419
0.245189
0.161953
0.176903
0.147083
0.17918
0.17752
0.182057
0.198317
0.182221
0.20349
0.177951
0.235556
0.236744
0.177601
0.194837
0.17676
0.203379
0.204225
0.0124851
0.117281
0.139622
0.0122646
0.188521
0.179982
0.190063
0.0989389
0.00610821
0.103309
0.176403
0.19299
0.192985
0.114489
0.132283
0.190539
0.253371
0.181103
0.00805172
0.0176568
0.211721
0.18235
0.108666
0.145495
0.180021
0.118206
0.17268
0.17315
0.172974
0.147301
0.195112
0.172316
0.257529
0.0224498
0.172078
0.257756
0.172466
0.225766
0.0389006
0.170806
0.108459
0.0825293
0.173088
0.172369
0.106574
0.108638
0.171168
0.0912774
0.16954
0.170232
0.176669
0.101212
0.168229
0.028885
0.170537
0.170276
0.114621
0.168694
0.169101
0.239062
0.164094
0.13848
0.165348
0.167184
0.116153
0.0555277
0.10006
0.245922
0.169375
0.170347
0.143263
0.0568471
0.246405
0.145762
0.148467
0.144591
0.143481
0.010586
0.00553345
0.0469559
0.0953507
0.170584
0.169783
0.00541774
0.211595
0.160216
0.0730116
0.246494
0.140198
0.138974
0.248869
0.141664
0.205001
0.0429754
0.139934
0.199491
0.185036
0.140247
0.10323
0.0373733
0.140922
0.211529
0.189747
0.108087
0.0511872
0.0830174
0.147286
0.08614
0.211315
0.0823087
0.144873
0.155098
0.252715
0.112021
0.00987124
0.0541599
0.0837907
0.142406
0.209846
0.153916
0.153607
0.019225
0.121698
0.00771026
0.156046
0.156046
0.0852252
0.0118621
0.186711
0.0366418
0.230147
0.173739
0.170465
0.244942
0.083223
0.200347
0.208837
0.139766
0.0146557
0.170506
0.242579
0.168852
0.166765
0.142251
0.0735172
0.170441
0.0157612
0.243974
0.213054
0.113967
0.16979
0.162453
0.21093
0.237611
0.201744
0.0276907
0.0743085
0.167511
0.174989
0.196674
0.110968
0.193478
0.247946
0.166289
0.195651
0.0666194
0.172598
0.129646
0.079955
0.172205
0.172129
0.171276
0.195695
0.168282
0.0385061
0.169044
0.0730377
0.192014
0.0188527
0.167241
0.195059
0.003562
0.0215423
0.164212
0.0622529
0.0423955
0.0660656
0.0553395
0.100676
0.0362396
0.167037
0.165064
0.0291241
0.164223
0.165345
0.193942
0.00927875
0.166634
0.159783
0.00213161
0.0229349
0.157081
0.091012
0.00348512
0.0117917
0.15749
0.112782
0.162542
0.240589
0.0152997
0.194308
0.146133
0.161724
0.158912
0.143606
0.18352
0.168953
0.163533
0.149483
0.243567
0.214137
0.162307
0.16484
0.224166
0.032852
0.211991
0.184017
0.111238
0.105037
0.164691
0.0749553
0.01868
0.151997
0.156557
0.258441
0.131828
0.156816
0.154798
0.180247
0.074408
0.154997
0.156033
0.234363
0.156485
0.0702648
0.159305
0.159002
0.127488
0.115482
0.139906
0.159143
0.156245
0.158988
0.107257
0.135234
0.162388
0.141437
0.10612
0.112968
0.113774
0.114114
0.132547
0.157244
0.135243
0.246645
0.225386
0.0401319
0.0956961
0.0996307
0.133514
0.131421
0.135499
0.173951
0.132473
0.131714
0.0790753
0.0997541
0.184836
0.0785276
0.0316434
0.134711
0.133732
0.136385
0.22889
0.012987
0.00638952
0.0935823
0.144128
0.141212
0.212113
0.032216
0.134104
0.246748
0.0380029
0.142747
0.142333
0.169881
0.00170432
0.140909
0.141136
0.140413
0.152072
0.00476308
0.00695867
0.152504
0.152604
0.149461
0.15109
0.156738
0.148085
0.0739134
0.0147865
0.251594
0.189346
0.152782
0.151771
0.114651
0.239239
0.232556
0.216274
0.00125455
0.216457
0.153619
0.153648
0.15246
0.153231
0.153853
0.152485
0.20779
0.128119
0.202017
0.135226
0.0735855
0.0129939
0.154809
0.115161
0.00416888
0.136893
0.159348
0.243307
0.160493
0.10914
0.105778
0.186775
0.119615
0.157358
0.163647
0.161577
0.131169
0.141528
0.239307
0.156844
0.200562
0.0703822
0.05817
0.154792
0.0602678
0.021133
0.159473
0.15905
0.11784
0.0791668
0.0909641
0.225985
0.158396
0.0467797
0.00534172
0.14246
0.0262329
0.112028
0.153235
0.189282
0.141747
0.0238574
0.230139
0.0139961
0.224171
0.124403
0.212921
0.146206
0.0414933
0.154887
0.139809
0.0883417
0.106264
0.155446
0.155781
0.231168
0.190863
0.202126
0.23581
0.196003
0.188993
0.189328
0.206479
0.152078
0.151457
0.119372
0.0592325
0.0681663
0.0166027
0.214114
0.119985
0.149155
0.147088
0.148372
0.0416908
0.145162
0.203405
0.00479315
0.145199
0.149487
0.170996
0.254125
0.204441
0.203236
0.145858
0.0116917
0.21355
0.148011
0.178606
0.155204
0.182372
0.193109
0.136267
0.21086
0.150926
0.190655
0.1552
0.0187139
0.204786
0.211237
0.122338
0.249736
0.0683607
0.0788244
0.0686747
0.134746
0.199376
0.0553011
0.178146
0.0566886
0.151493
0.151451
0.130422
0.157249
0.142606
0.222355
0.183721
0.140907
0.188648
0.147644
0.255137
0.208994
0.147194
0.143228
0.18348
0.21881
0.144806
0.0244975
0.177709
0.222126
0.141845
0.129327
0.146091
0.148742
0.149998
0.1508
0.00352898
0.0686242
0.151915
0.249012
0.150396
0.123335
0.196595
0.120982
0.10494
0.223387
0.249212
0.205345
0.205448
0.206983
0.032654
0.141208
0.169174
0.247706
0.236185
0.249768
0.253399
0.235955
0.125349
0.122275
0.248161
0.0539005
0.126527
0.188084
0.123394
0.20491
0.193216
0.247927
0.229739
0.204584
0.0680789
0.12552
0.139139
0.133549
0.140211
0.207324
0.189186
0.13974
0.135457
0.13754
0.0146509
0.21911
0.0386746
0.140766
0.166314
0.146146
0.14222
0.137222
0.0390053
0.143592
0.126543
0.142878
0.141973
0.211559
0.129481
0.0736405
0.0442306
0.198461
0.101442
0.100597
0.193873
0.0840604
0.0468352
0.040339
0.0301914
0.19104
0.063249
0.128886
0.160526
0.0300156
0.216257
0.216964
0.0898521
0.0871311
0.233616
0.133251
0.0142642
0.15543
0.0303666
0.186772
0.0289965
0.0451962
0.0180909
0.0093151
0.0753837
0.212566
0.0434407
0.022964
0.023988
0.139973
0.0277513
0.137871
0.21791
0.141357
0.138928
0.190519
0.0427194
0.144206
0.142905
0.0112336
0.0686898
0.213356
0.144127
0.144584
0.192372
0.218197
0.207896
0.217277
0.0515188
0.240088
0.248122
0.144239
0.145013
0.0120311
0.224746
0.247027
0.142472
0.107939
0.141836
0.0163513
0.208523
0.00623624
0.0427118
0.133843
0.172361
0.135507
0.110193
0.214523
0.10108
0.204121
0.134139
0.135258
0.0662766
0.127565
0.115623
0.243349
0.21472
0.184668
0.134258
0.219216
0.0739584
0.042178
0.0610532
0.0125824
0.134408
0.216548
0.134019
0.0127597
0.0106609
0.211212
0.136357
0.0641124
0.225506
0.136407
0.136796
0.211432
0.018642
0.209945
0.137279
0.13986
0.141134
0.14786
0.141013
0.206252
0.203118
0.141235
0.232503
0.150729
0.202905
0.171896
0.139109
0.217511
0.136303
0.10912
0.234614
0.15388
0.13848
0.0110596
0.141767
0.140485
0.1056
0.135322
0.187327
0.053643
0.214954
0.12904
0.196248
0.206053
0.138714
0.151366
0.00978337
0.0643101
0.0519212
0.137038
0.215379
0.0179033
0.134448
0.234788
0.0512237
0.194594
0.0483022
0.135327
0.16529
0.133479
0.00123536
0.177432
0.215282
0.105719
0.0331333
0.052224
0.102135
0.103799
0.110858
0.213227
0.010242
0.033723
0.116122
0.117364
0.202233
0.187519
0.117986
0.123024
0.112553
0.17192
0.23605
0.220983
0.150155
0.0276586
0.199887
0.198811
0.0896486
0.046129
0.182897
0.0848862
0.115953
0.190619
0.150333
0.153934
0.13123
0.112225
0.122093
0.121837
0.120289
0.194036
0.124444
0.167786
0.23217
0.215089
0.188528
0.20815
0.113294
0.0826236
0.21404
0.125263
0.191282
0.148502
0.196713
0.241575
0.117676
0.00650353
0.12662
0.128395
0.134699
0.212516
0.125893
0.132465
0.15307
0.134598
0.152815
0.128407
0.00179167
0.151665
0.132257
0.131754
0.00477723
0.189441
0.23773
0.151296
0.15823
0.119464
0.134105
0.132641
0.0540016
0.235728
0.13435
0.133952
0.135971
0.0326173
0.212974
0.144364
0.120654
0.151375
0.0785045
0.102555
0.201606
0.124535
0.12106
0.0978482
0.121562
0.131719
0.0820129
0.124651
0.212985
0.141236
0.0714008
0.211986
0.212919
0.108602
0.109549
0.0921602
0.124649
0.0544907
0.127949
0.0600294
0.257151
0.198109
0.164224
0.0784074
0.0195824
0.221079
0.017591
0.0203697
0.123993
0.00204964
0.124508
0.028543
0.165364
0.0867801
0.123226
0.185382
0.166381
0.124333
0.0247432
0.0201564
0.161838
0.122221
0.0360487
0.125118
0.123697
0.141244
0.130058
0.24074
0.191266
0.221018
0.163429
0.186817
0.124026
0.190787
0.164737
0.124524
0.222558
0.244425
0.185831
0.181391
0.124587
0.20663
0.121642
0.221926
0.160295
0.188969
0.0181755
0.0381079
0.179296
0.0096622
0.214673
0.256786
0.224114
0.0114221
0.0525346
0.0175596
0.211308
0.219943
0.00585607
0.166406
0.11778
0.20637
0.170484
0.117219
0.125374
0.0291224
0.182434
0.185876
0.05107
0.240668
0.220805
0.133787
0.119144
0.251767
0.118417
0.245644
0.184286
0.182364
0.119466
0.229257
0.10588
0.227319
0.212329
0.231731
0.00646257
0.122562
0.238785
0.0640859
0.247441
0.122882
0.233146
0.0923939
0.0916858
0.097542
0.241634
0.198725
0.230774
0.197651
0.104102
0.238574
0.238959
0.0929601
0.24016
0.10816
0.191499
0.102296
0.198608
0.132182
0.0892286
0.125514
0.0863329
0.126319
0.0192271
0.109574
0.100194
0.222118
0.0972824
0.185216
0.139595
0.165409
0.107372
0.0362234
0.0799283
0.186551
0.102373
0.221784
0.0689545
0.111794
0.228194
0.189905
0.113882
0.206302
0.112187
0.101938
0.0997294
0.130595
0.107097
0.00199476
0.0362696
0.0397989
0.102533
0.103207
0.188607
0.0457126
0.0264359
0.0975853
0.0649414
0.22034
0.200633
0.0322045
0.114542
0.167932
0.108408
0.115946
0.093103
0.113479
0.200169
0.113016
0.157693
0.000652183
0.217309
0.155053
0.249096
0.116615
0.113149
0.0204956
0.222415
0.0865546
0.117328
0.191302
0.121195
0.118322
0.111008
0.109082
0.0299182
0.120931
0.115934
0.116594
0.111446
0.130274
0.113511
0.217613
0.093998
0.118604
0.219396
0.248778
0.162065
0.0974199
0.180402
0.116253
0.106049
0.101034
0.0543707
0.0945306
0.0863936
0.236694
0.0956884
0.130796
0.128521
0.0320391
0.0947454
0.217107
0.108119
0.111022
0.153734
0.145265
0.105777
0.168421
0.130945
0.109318
0.106878
0.121419
0.107208
0.215781
0.207854
0.0971742
0.0939824
0.103561
0.0420906
0.1097
0.130659
0.187954
0.106682
0.110686
0.101099
0.112586
0.218176
0.0934189
0.211339
0.11051
0.106738
0.0985029
0.107127
0.0832277
0.103724
0.0849567
0.0742523
0.105887
0.234032
0.120487
0.232048
0.15459
0.0713257
0.0229949
0.0919397
0.217155
0.107991
0.106668
0.0784344
0.108502
0.078135
0.219018
0.217575
0.0818569
0.0825357
0.0860423
0.0866092
0.174647
0.137548
0.0842017
0.0847684
0.0638198
0.104984
0.0861804
0.0865827
0.0497422
0.0482381
0.00230811
0.0868468
0.176614
0.0298989
0.137633
0.0899221
0.0927582
0.0967864
0.123908
0.214973
0.109931
0.0794031
0.0114919
0.0186663
0.139466
0.091206
0.0864141
0.119164
0.0311843
0.020479
0.0923764
0.216561
0.10259
0.104368
0.0487318
0.0968718
0.242451
0.0992363
0.0973971
0.13674
0.0995759
0.102919
0.216464
0.103584
0.117015
0.0184669
0.00401425
0.169954
0.0362471
0.0209987
0.106795
0.0881215
0.216941
0.104854
0.224522
0.225107
0.101943
0.2159
0.00714755
0.0984934
0.104796
0.0339385
0.10591
0.224811
0.249226
0.0488461
0.221048
0.104359
0.187127
0.205497
0.104965
0.10948
0.223439
0.102704
0.241053
0.104355
0.126878
0.113573
0.241854
0.221093
0.128293
0.107146
0.104025
0.194833
0.126586
0.194418
0.22119
0.21799
0.107373
0.0120097
0.107915
0.100367
0.193427
0.081738
0.19408
0.0414216
0.204957
0.000282142
0.21775
0.127262
0.0906071
0.099728
0.219993
0.0973171
0.217471
0.211086
0.219617
0.0132983
0.00352901
0.195956
0.00368856
0.0971383
0.125292
0.168993
0.0949819
0.211399
0.144449
0.215297
0.0927135
0.213681
0.177478
0.192978
0.250294
0.131367
0.235909
0.0923305
0.0100018
0.144449
0.00975723
0.247633
0.04535
0.139849
0.193229
0.101607
0.0968189
0.0137359
0.0333409
0.0988458
0.198429
0.219696
0.00673997
0.225192
0.127455
0.240549
0.0580555
0.200773
0.0986999
0.178199
0.22136
0.17568
0.164915
0.185926
0.202273
0.215348
0.162828
0.0424158
0.189878
0.100155
0.100513
0.10005
0.0600402
0.235122
0.236122
0.191461
0.109806
0.211363
0.217826
0.109427
0.101116
0.0999247
0.0966779
0.235199
0.0480996
0.094478
0.14954
0.0970417
0.189482
0.175523
0.116535
0.0571675
0.098078
0.0961673
0.136566
0.246208
0.157859
0.0962486
0.212778
0.0683213
0.0521076
0.231282
0.00475782
0.0680028
0.0137967
0.0681643
0.068426
0.213853
0.0949618
0.176918
0.212489
0.118745
0.101124
0.220858
0.0720186
0.218102
0.0910131
0.093721
0.0940082
0.193236
0.163014
0.217703
0.197397
0.209324
0.0806522
0.140175
0.221566
0.206918
0.101123
0.206155
0.0700828
0.190031
0.0459318
0.19202
0.0967716
0.172709
0.0857471
0.130971
0.206425
0.0681633
0.207097
0.0523371
0.104599
0.0836937
0.0301537
0.0882915
0.0826368
0.116724
0.217815
0.0863576
0.0398934
0.0176117
0.193984
0.019584
0.208619
0.00421073
0.090659
0.0489297
0.0894825
0.206827
0.210411
0.0455708
0.234202
0.0319907
0.00224652
0.192599
0.174184
0.0882751
0.207088
0.066597
0.0190415
0.113888
0.00252721
0.144757
0.184765
0.134619
0.0903735
0.244654
0.0917931
0.148151
0.192565
0.121453
0.209411
0.0882398
0.132619
0.087431
0.137162
0.23372
0.0938945
0.0808958
0.137633
0.0881794
0.153436
0.086694
0.0568115
0.0867043
0.233555
0.0864535
0.0830796
0.0857693
0.227529
0.109435
0.219129
0.23715
0.235533
0.168584
0.046949
0.0628569
0.176188
0.207583
0.0218708
0.0605487
0.0857895
0.0843111
0.208884
0.247787
0.00299871
0.0311771
0.0773878
0.219034
0.0316981
0.122979
0.208941
0.0834262
0.0822282
0.0828409
0.080494
0.0831774
0.169378
0.102924
0.205438
0.0221612
0.086331
0.0832478
0.229271
0.131206
0.225413
0.23887
0.0454366
0.0838742
0.0627139
0.227592
0.230044
0.224889
0.224142
0.116245
0.0619163
0.219915
0.0455919
0.083673
0.201709
0.0934283
0.0827645
0.0658119
0.0813898
0.200168
0.199065
0.0837131
0.147953
0.0938253
0.0931936
0.245136
0.0240676
0.0515357
0.0835353
0.0843053
0.00749459
0.0843067
0.0641275
0.089409
0.195874
0.0845421
0.0160388
0.0909149
0.00751837
0.22994
0.222978
0.117461
0.0867556
0.0894111
0.102731
0.0764231
0.0694043
0.10483
0.0734223
0.0722185
0.0631529
0.0737413
0.231285
0.206328
0.123418
0.193133
0.0778274
0.199366
0.0616006
0.192638
0.160144
0.184925
0.0748995
0.140113
0.0174241
0.199678
0.215238
0.0859277
0.252813
0.0773928
0.079343
0.1333
0.0204949
0.103384
0.0800878
0.198547
0.0607273
0.0857677
0.0830436
0.0577293
0.164977
0.0578727
0.0569781
0.0583025
0.059102
0.0579613
0.195037
0.195524
0.201592
0.192197
0.0371075
0.0584978
0.22625
0.0642158
0.0356567
0.0635737
0.0631331
0.0380901
0.0639531
0.0626704
0.0632981
0.0805693
0.0771733
0.142234
0.0883842
0.0997056
0.129
0.111329
0.102286
0.0380748
0.0810374
0.0803167
0.0606627
0.0655153
0.0783135
0.15552
0.0160725
0.184019
0.244794
0.144473
0.234793
0.0794668
0.0176319
0.0193005
0.0189452
0.107386
0.0202759
0.0761077
0.078282
0.220133
0.252374
0.133876
0.0708768
0.223529
0.121125
0.149254
0.0777055
0.151628
0.0778771
0.156273
0.0651872
0.0347791
0.0421468
0.0737828
0.00146954
0.0798474
0.221907
0.0589457
0.181847
0.0236703
0.0714278
0.0736009
0.207628
0.100304
0.156516
0.112509
0.155429
0.072758
0.0140984
0.224426
0.087453
0.144963
0.220938
0.221031
0.0745918
0.0632738
0.0753757
0.114759
0.0749338
0.152437
0.207204
0.117768
0.0760722
0.0767147
0.121903
0.139223
0.171642
0.0759122
0.0777508
0.0781931
0.221941
0.0768467
0.0782326
0.02811
0.0686077
0.0362439
0.0137185
0.0356753
0.0221682
0.0672859
0.0689779
0.0112524
0.0545546
0.0108476
0.219555
0.0703696
0.0397863
0.219758
0.16874
0.105373
0.060849
0.0735293
0.0112581
0.0718418
0.161654
0.113494
0.0702822
0.225307
0.0346258
0.00326065
0.0710994
0.259901
0.111674
0.146973
0.0126616
0.0714897
0.070839
0.171646
0.0128125
0.110654
0.142338
0.0657398
0.0709826
0.0732416
0.252051
0.231836
0.225662
0.107302
0.0361764
0.0140484
0.012675
0.227001
0.0127795
0.0449363
0.0743496
0.248253
0.087281
0.0757421
0.204512
0.226725
0.162034
0.153746
0.0748142
0.0728574
0.219812
0.18832
0.199687
0.0218273
0.184697
0.0485101
0.101504
0.0398852
0.0722492
0.114941
0.231694
0.115671
0.113796
0.239561
0.0679671
0.221404
0.0510858
0.151567
0.177918
0.231445
0.115643
0.224893
0.0641123
0.0535971
0.0320584
0.0681318
0.224837
0.0516695
0.0466171
0.139206
0.0530459
0.0532205
0.0572735
0.0183628
0.105456
0.0695685
0.0822382
0.0483174
0.063057
0.0557891
0.0382536
0.227044
0.157702
0.0514724
0.0714237
0.257028
0.134452
0.0683059
0.14455
0.0688577
0.128531
0.0669298
0.225367
0.0499913
0.253894
0.0436072
0.0385661
0.140448
0.0525585
0.153552
0.134408
0.162292
0.0212741
-0.000993777
0.0293349
0.0243417
0.0434814
0.0156568
0.0480887
0.0446654
0.0440618
0.237936
0.0295067
0.227462
0.227746
0.0344522
0.216685
0.0720791
0.22241
0.206613
0.0499966
0.218769
0.0501945
0.00160105
0.161862
0.103716
0.21115
0.205854
0.11365
0.017367
0.0313995
0.163832
0.178463
0.0515552
0.0499451
0.0672514
0.181727
0.197966
0.146425
0.0181118
0.0130735
0.0664352
0.166873
0.183591
0.200909
0.238314
0.0684956
0.211626
0.19383
0.145255
0.254778
0.1036
0.133507
0.169329
0.0644477
0.229643
0.0110297
0.0998878
0.193577
0.174872
0.205169
0.228423
0.0204455
0.0996867
0.0667644
0.119151
0.0675939
0.11031
0.12237
0.118292
0.0855343
0.0673607
0.0664374
0.0642137
0.0871975
0.236867
0.0941154
0.0845131
0.0905164
0.223664
0.196554
0.0193991
0.229234
0.0669183
0.0641439
0.134418
0.056513
0.0571695
0.0789781
0.0198468
0.0555215
0.0601882
0.0138326
0.0528699
0.0518184
0.0569172
0.0749746
0.0624894
0.0630051
0.227466
0.0418136
0.0507518
0.0372172
0.0687466
0.0368573
0.0347189
0.0650278
0.0152558
0.0164544
0.0927988
0.0380451
0.0336587
0.228642
0.0655992
0.0505034
0.0464739
0.0175847
0.0415398
0.0649521
0.0671653
0.0595277
0.104636
0.143483
0.165551
0.123867
0.0165975
0.0593221
0.0577773
0.0595274
0.189049
0.0911224
0.0664568
0.244044
0.0583885
0.0903752
0.0578528
0.0602462
0.158877
0.164824
0.0578308
0.0967457
0.207363
0.206261
0.0912443
0.0585303
0.226596
0.0584948
0.126031
0.0591648
0.248816
0.0594933
0.18673
0.0581615
0.158688
0.192335
0.221871
0.201726
0.0567256
0.195142
0.141664
0.158333
0.0586574
0.0241922
0.102889
0.144184
0.0584369
0.0580346
0.0588587
0.102839
0.0524589
0.23906
0.17292
0.0223213
0.227207
0.0551578
0.220817
0.0225448
0.0507821
0.0539212
0.188516
0.0583501
0.162647
0.237057
0.0513061
0.0548225
0.0886815
0.232834
0.188582
0.187621
0.0560733
0.197912
0.169239
0.0543181
0.0911699
0.0770427
0.0533892
0.053611
0.162284
0.200453
0.0592089
0.0934781
0.0756895
0.224883
0.220026
0.224275
0.0584422
0.226177
0.0395881
0.178028
0.20525
0.11796
0.159957
0.0580801
0.230852
0.0282052
0.0318472
0.0340926
0.0981438
0.0340206
0.105159
0.103185
0.0917599
0.114182
0.183779
0.093709
0.139144
0.00789484
0.0394282
0.0796737
0.132917
0.0556926
0.148593
0.208487
0.107763
0.179651
0.173293
0.0103383
0.0340851
0.157172
0.0399849
0.000340175
0.229256
0.189954
0.219782
0.0322899
0.2291
0.0876718
0.217776
0.0837671
0.221014
0.0828975
0.22589
0.0370398
0.198459
0.0536603
0.169033
0.0847955
0.174255
0.0874933
0.263148
0.054075
0.0730898
0.184513
0.169402
0.0522811
0.114043
0.169552
0.0541041
0.15226
0.0218007
0.151813
0.049631
0.0481717
0.0738805
0.228981
0.0542928
0.034752
0.0533757
0.0552133
0.0991957
0.19126
0.0618554
0.0556103
0.0987581
0.0988182
0.00432688
0.222826
0.0536089
0.070901
0.128331
0.175889
0.00169657
0.0551574
0.227438
0.0459074
0.044384
0.140143
0.026329
0.0391404
0.20553
0.0555341
0.224854
0.103032
0.0352136
0.0434731
0.115801
0.0409659
0.0534511
0.0790089
0.0506864
0.0520426
0.0515889
0.0214326
0.135225
0.0498551
0.0703861
0.0475702
0.0643197
0.0715938
0.0493474
0.0462639
0.222315
0.0504013
0.0437645
0.0463002
0.227074
0.0542522
0.0453314
0.0628359
0.167982
0.0676164
0.0493188
0.0550595
0.0480799
0.00275261
0.225202
0.0683209
0.0481543
0.0356183
0.232333
0.0910385
0.024501
0.0467998
0.0098664
0.0991285
0.223977
0.0457142
0.222608
0.0426229
0.028137
0.22669
0.223428
0.231387
0.0343508
0.228018
0.0135314
0.0165528
0.046943
0.0246926
0.0211201
0.0576916
0.170194
0.227557
0.218366
0.235603
0.216362
0.134106
0.0974088
0.0359872
0.0439797
0.0516271
0.127322
0.142977
0.087746
0.190212
0.0673266
0.0481772
0.154406
0.0606898
0.217158
0.216675
0.0270067
0.218404
0.14375
0.19788
0.232212
0.0450947
0.180556
0.145852
0.154712
0.145222
0.045482
0.111147
0.219446
0.234062
0.0546346
0.214343
0.232151
0.223481
0.185795
0.0382189
0.235447
0.0406583
0.208225
0.208905
0.0404213
0.0449319
0.0361452
0.128678
0.228751
0.0935393
0.14454
0.0367375
0.160261
0.229125
0.0481708
0.187364
0.046492
0.191287
0.216828
0.235447
0.216042
0.0783681
0.0865017
0.102579
0.181369
0.0483201
0.203009
0.203275
0.0466722
0.192769
0.111234
0.0468451
0.144522
0.195972
0.0453827
0.219709
0.0381959
0.200144
0.239264
0.0425812
0.121934
0.0432944
0.148312
0.045474
0.0217149
0.229182
0.150537
0.0737179
0.0998252
0.127294
0.120509
0.01833
0.114613
0.112605
0.218476
0.153994
0.242446
0.208738
0.0609408
0.223208
0.0230081
0.0239224
0.16234
0.138273
0.192936
0.192251
0.0253466
0.0216802
0.110712
0.226088
0.182949
0.208458
0.239857
0.0246563
0.185202
0.151655
0.185711
0.191505
0.141768
0.230193
0.195481
0.199033
0.0563057
0.0604673
0.238623
0.024751
0.021976
0.0415312
0.211165
0.22657
0.229706
0.0403484
0.0381901
0.168241
0.0396739
0.0408219
0.173269
0.234398
0.191284
0.0633168
0.21792
0.110781
0.18865
0.19053
0.235635
0.038708
0.139196
0.139938
0.040849
0.0390743
0.0371672
0.0394601
0.148549
0.040945
0.234872
0.186197
0.171645
0.0408302
0.0361105
0.0804994
0.180516
0.236192
0.108082
0.0971209
0.233825
0.0177128
0.0315996
0.0641282
0.100403
0.0311016
0.0400593
0.0415429
0.0775758
0.0417531
0.233774
0.234861
0.0854788
0.233846
0.136703
0.0769655
0.0373604
0.0612921
0.0575448
0.0685674
0.039987
0.034061
0.0434357