/*--------------------------------*- C++ -*----------------------------------*\
| =========                 |                                                 |
| \\      /  F ield         | OpenFOAM: The Open Source CFD Toolbox           |
|  \\    /   O peration     | Version:  2406                                  |
|   \\  /    A nd           | Website:  www.openfoam.com                      |
|    \\/     M anipulation  |                                                 |
\*---------------------------------------------------------------------------*/
FoamFile
{
    version     2.0;
    format      ascii;
    arch        "LSB;label=32;scalar=64";
    class       surfaceScalarField;
    location    "54";
    object      phi;
}
// * * * * * * * * * * * * * * * * * * * * * * * * * * * * * * * * * * * * * //

dimensions      [0 3 -1 0 0 0 0];

oriented        oriented;

internalField   nonuniform List<scalar> 
113358
(
-1.46447e-05
3.0357e-05
-2.13086e-05
5.59654e-06
2.16723e-05
2.79776e-07
-5.81857e-06
-1.61335e-05
-2.54029e-05
1.91091e-05
-2.96825e-06
9.26217e-06
-2.37904e-05
-6.1924e-06
2.33481e-05
6.63486e-06
-1.72909e-05
9.19786e-07
3.01359e-05
-1.37648e-05
1.36157e-05
-1.41962e-05
-7.96038e-06
8.54095e-06
-7.17544e-06
3.37501e-05
-2.4654e-05
-1.92041e-06
-7.20511e-07
-3.10303e-05
1.69436e-05
1.48073e-05
8.1716e-06
5.94446e-07
1.79219e-05
-2.6688e-05
7.05921e-06
3.58125e-06
-1.03454e-05
-2.94751e-07
-6.08781e-06
2.31015e-05
-2.18028e-05
4.78924e-06
-1.46782e-05
1.11028e-07
-3.49129e-07
1.49163e-05
-4.43794e-05
3.43648e-06
1.18292e-05
2.91131e-05
1.19117e-06
-2.53535e-06
1.34424e-06
1.9112e-06
-1.39065e-06
1.88198e-05
-1.93415e-05
1.00827e-06
3.25673e-07
1.14174e-05
-1.27516e-05
9.82703e-06
3.58341e-05
-2.92971e-05
-1.6364e-05
-1.95099e-05
1.07885e-05
6.71078e-06
2.01073e-06
1.50632e-05
-3.79644e-05
3.1775e-05
-8.87381e-06
2.62134e-05
3.15561e-06
2.80868e-05
-5.74558e-05
1.89094e-05
3.72313e-07
-4.82978e-07
-1.87987e-05
-1.16237e-05
4.65583e-05
4.35526e-06
-3.92916e-05
-8.92171e-07
-4.53006e-05
4.94687e-05
-3.27577e-06
-8.92061e-07
4.23402e-06
3.16125e-07
-3.65791e-06
-4.78944e-05
2.09341e-05
-4.11522e-06
3.10753e-05
-2.15458e-05
5.03862e-06
1.7747e-05
-1.2404e-06
-9.20175e-06
8.91347e-06
-1.80351e-07
4.68643e-07
-1.88557e-06
-7.45004e-06
5.33223e-06
4.0034e-06
1.88834e-05
-4.04059e-07
4.30162e-07
-2.15737e-06
2.14998e-06
7.54525e-09
-5.44202e-06
-2.58629e-05
2.74663e-05
3.83859e-06
5.07343e-06
-2.5828e-07
-8.08145e-06
3.26633e-06
2.02451e-05
-1.08026e-06
1.19356e-06
-2.03584e-05
-2.74275e-05
1.2631e-05
-2.95176e-06
1.77484e-05
1.75042e-05
2.56772e-06
-1.9829e-05
-2.42863e-07
-3.40647e-05
8.63975e-06
-1.19262e-05
3.735e-05
-3.64741e-08
-2.09405e-06
2.13055e-06
9.34894e-06
1.0777e-05
1.75759e-06
-2.18835e-05
7.31407e-06
-3.69957e-05
3.03797e-05
-6.98023e-07
-3.51617e-06
4.41615e-06
3.70241e-05
-3.79247e-05
-1.85951e-05
1.57724e-05
-1.95909e-05
2.24136e-05
1.02325e-07
-2.41003e-05
-3.10221e-05
5.50201e-05
-1.3081e-06
4.33936e-05
-1.23754e-05
-2.97101e-05
5.13906e-06
-1.80711e-05
-7.21351e-06
-6.35285e-06
3.24455e-05
-3.22585e-07
-2.577e-05
-2.21145e-06
1.53319e-05
-1.02403e-05
-2.88014e-06
-3.04398e-05
-1.21133e-05
4.1245e-05
-1.1708e-05
3.58064e-05
1.57746e-06
-2.56759e-05
-3.41006e-05
4.25568e-06
-5.52113e-06
3.53661e-05
3.55841e-05
1.58626e-05
-4.70901e-05
-4.35664e-06
2.32259e-05
-1.61794e-05
1.55213e-06
-8.59855e-06
-1.0147e-05
2.93437e-06
1.02789e-05
-3.06609e-06
2.8869e-05
-7.6758e-06
1.63396e-05
-3.75331e-05
-1.01992e-05
-3.74647e-05
4.07122e-05
6.95216e-06
-2.058e-06
7.54917e-06
-8.76791e-06
3.27674e-06
2.79867e-05
-1.20473e-05
2.01355e-05
-3.60747e-05
-2.13918e-05
4.97515e-06
3.7427e-05
-2.10103e-05
1.13771e-05
-5.55744e-06
4.3901e-06
-1.02095e-05
3.92094e-05
-1.02026e-05
-3.02285e-05
1.22121e-06
-1.30202e-05
-1.47856e-05
8.1581e-06
1.96477e-05
-3.08055e-05
-5.04845e-06
1.45397e-05
2.13141e-05
-2.76519e-06
3.16657e-06
-4.01387e-07
3.59232e-05
-6.15766e-06
-3.55014e-05
5.7358e-06
-1.59553e-05
-4.32573e-05
1.7269e-05
4.19439e-05
-4.03333e-06
4.31494e-06
-3.3839e-05
3.35576e-05
1.60322e-06
2.173e-05
3.08476e-06
-2.6418e-05
3.39769e-06
-2.81456e-06
-5.83327e-07
-2.2657e-08
6.80403e-08
1.13014e-05
-1.13473e-05
6.24319e-06
-3.01977e-05
3.26572e-05
-8.70269e-06
9.71639e-06
-2.42584e-05
2.34534e-05
-8.91139e-06
7.14715e-06
-7.37632e-06
2.29831e-07
-1.97027e-05
-6.44952e-06
3.42421e-05
-8.08989e-06
-2.38328e-07
3.97157e-06
-3.73337e-06
7.53078e-06
-2.93511e-05
8.84186e-06
1.29785e-05
4.859e-05
-3.5511e-06
-3.21355e-06
-4.18249e-05
-2.73214e-05
-3.31817e-05
3.5899e-05
2.46041e-05
3.92171e-06
-3.74612e-05
6.21807e-06
3.66283e-05
-2.94851e-05
-8.63745e-07
-6.27941e-06
1.05121e-07
1.68413e-07
-1.48552e-05
1.45824e-05
6.4282e-06
8.46637e-06
1.29598e-05
-2.78542e-05
7.61311e-06
-3.99669e-06
3.09109e-06
-6.70731e-06
-1.61213e-05
-1.12014e-05
2.73376e-05
-1.48247e-08
-2.11513e-05
2.60969e-05
-1.88755e-05
1.393e-05
-2.96274e-06
2.29136e-09
2.96045e-06
-3.08444e-05
3.43518e-05
-3.5282e-05
2.71438e-05
-2.78892e-06
-9.25878e-07
-6.09476e-07
4.32431e-06
6.41972e-05
-6.18676e-05
1.88469e-06
-4.21443e-06
-1.15207e-05
3.58534e-06
1.10883e-05
-3.15302e-06
-4.6423e-06
2.57604e-05
-2.82907e-05
7.17263e-06
-1.7991e-05
-2.12979e-05
3.14777e-05
7.81125e-06
9.11082e-06
-1.30421e-05
1.84995e-05
-1.45677e-05
7.7819e-06
2.5772e-05
-5.2869e-05
1.93153e-05
-3.3732e-05
1.20766e-05
1.46723e-05
6.9832e-06
9.46132e-07
-3.07162e-05
2.50351e-05
4.73456e-06
-2.71e-05
2.50272e-06
9.68293e-06
1.49144e-05
2.3419e-05
-2.03098e-05
6.97957e-06
-1.00898e-05
1.27197e-06
1.1612e-05
-1.2693e-05
-1.91472e-07
1.71343e-05
-2.42985e-06
-2.5201e-06
-1.21843e-05
1.59716e-05
1.83765e-05
-1.60152e-05
-1.8333e-05
2.33538e-06
-7.32646e-07
4.17115e-06
-5.77383e-06
4.50995e-06
-2.7132e-07
-4.2384e-06
3.35121e-08
3.74178e-06
-3.77536e-06
-4.72411e-07
2.93841e-06
-1.26534e-05
1.01873e-05
-2.03571e-05
4.11582e-05
4.39814e-07
-2.12407e-05
4.81596e-06
-2.22009e-05
1.71706e-05
2.14274e-07
-2.95185e-06
-3.90493e-06
1.10279e-06
5.75386e-06
-5.65235e-06
-1.378e-05
3.65023e-06
1.5782e-05
-3.00656e-06
1.93221e-05
8.36118e-06
-2.46771e-05
4.02201e-06
3.59017e-06
-1.73988e-05
9.78681e-06
-2.7174e-06
2.83812e-05
-3.22812e-05
6.61745e-06
-7.18917e-06
7.37394e-06
-1.85087e-07
1.76949e-05
-2.19393e-05
3.5025e-06
7.41262e-07
1.84047e-05
1.08529e-05
-3.2448e-05
3.19053e-06
-2.66386e-05
-1.51582e-05
7.49682e-06
3.43002e-05
-2.13418e-06
-2.06442e-05
8.80193e-07
2.18979e-05
1.24651e-05
-1.29335e-05
1.00973e-07
3.67566e-07
1.61082e-05
-2.82233e-05
-5.38354e-06
1.74992e-05
-3.35364e-06
2.63149e-07
3.09024e-06
-4.43313e-06
-1.33024e-06
2.95218e-05
-2.37586e-05
-1.55686e-05
9.82743e-06
4.9901e-05
-4.41602e-05
-1.0988e-05
2.24725e-05
-3.27444e-05
2.12607e-05
1.63188e-06
-2.55538e-05
2.04331e-05
3.48924e-06
-3.97577e-06
-9.40532e-06
3.33752e-05
-1.9994e-05
2.31859e-05
-9.81877e-06
-1.02976e-05
-3.06947e-06
-2.83498e-06
-1.22442e-05
1.81149e-05
-3.03562e-06
5.8568e-06
-2.86077e-06
-2.99593e-06
-1.10077e-06
-2.5003e-05
-6.60757e-06
3.27115e-05
-1.47482e-05
2.06299e-05
5.86995e-06
-1.17516e-05
5.93777e-06
-1.46892e-05
2.49941e-05
-1.62428e-05
-4.87456e-05
1.16832e-05
-8.35746e-07
3.78986e-05
-2.53452e-06
-4.18925e-05
3.79757e-05
6.45091e-06
5.48787e-08
-3.81346e-06
3.75921e-06
2.08663e-05
-3.24342e-05
6.3985e-07
1.09282e-05
3.50294e-05
4.02691e-06
-3.78031e-05
-1.25315e-06
1.0707e-05
1.20926e-06
-2.54213e-05
1.35055e-05
-9.4186e-06
1.29908e-05
1.48325e-05
-2.603e-05
-2.1733e-05
1.29889e-05
3.47732e-05
5.54315e-06
2.94985e-06
-3.98269e-06
6.8092e-06
-5.03266e-06
-2.58996e-05
2.41232e-05
4.36179e-06
1.38346e-05
-6.20468e-06
-1.19917e-05
-7.98211e-06
1.74117e-05
3.52749e-05
-4.47045e-05
1.73152e-07
2.34026e-06
-2.51342e-06
-2.21751e-05
3.51223e-06
1.37258e-05
4.93734e-06
3.53164e-05
-1.91319e-05
-2.39767e-05
7.79246e-06
3.28009e-05
-8.00693e-06
-3.68313e-06
-2.11107e-05
-2.8667e-05
-1.14339e-06
-7.62738e-07
3.05731e-05
2.5577e-05
1.14692e-05
-3.50547e-05
-1.99143e-06
6.92834e-06
4.83012e-06
-1.17584e-05
1.76679e-06
-2.48928e-05
-1.69295e-07
2.32948e-05
3.91298e-05
-3.00968e-05
-2.87565e-06
-6.15663e-06
4.30717e-06
-6.17161e-07
-3.44228e-06
-2.47746e-07
-3.29427e-05
4.6931e-05
1.99647e-05
-3.39525e-05
1.81467e-05
-2.96067e-05
-2.96521e-06
1.44251e-05
-2.35509e-05
2.56368e-05
-8.73981e-07
-1.21122e-06
-2.92715e-06
1.44617e-06
1.48087e-06
3.44003e-05
-3.82316e-06
9.81177e-06
-4.03889e-05
-2.58133e-05
3.51086e-05
-3.28455e-05
6.3223e-08
2.32768e-06
1.85462e-05
-2.09368e-05
2.58437e-06
-2.49926e-06
-8.52647e-08
-1.09408e-05
-6.15704e-06
1.03773e-06
1.60604e-05
-8.38073e-06
2.08643e-05
-1.58924e-05
3.40897e-06
1.53538e-06
-4.67046e-06
2.92379e-06
2.11502e-07
-1.83965e-06
-1.71675e-06
3.55629e-06
-2.21169e-05
2.21531e-05
2.22079e-05
-2.2244e-05
5.36751e-05
-1.33647e-05
-1.17937e-05
-2.85164e-05
1.28354e-05
5.0576e-07
-4.04936e-07
-1.29362e-05
3.7254e-05
-4.53494e-05
6.29165e-06
1.80374e-06
3.02524e-06
-5.06434e-08
-2.9745e-06
-6.00715e-06
2.89068e-05
-2.77217e-05
4.82221e-06
-1.38357e-05
1.44432e-05
-1.57966e-06
9.72115e-07
-1.02451e-05
8.95558e-06
6.10351e-07
6.79094e-07
2.42703e-06
-1.94108e-05
7.10205e-06
9.88165e-06
-1.13986e-05
-1.07007e-05
2.61316e-05
-4.03222e-06
-1.45037e-05
1.42181e-05
2.53379e-07
3.22525e-08
-3.02053e-05
-3.60509e-05
3.58165e-05
-1.1605e-05
3.73047e-05
1.19482e-05
-3.76478e-05
5.99709e-06
3.03661e-05
7.06863e-06
-4.34318e-05
-1.3226e-05
5.94923e-06
1.77546e-05
-1.04777e-05
-2.15921e-08
7.47449e-08
1.04092e-05
-1.04619e-05
1.30613e-06
3.85274e-05
-5.68627e-06
-3.41468e-05
-3.83696e-06
-2.46505e-06
4.11682e-06
2.18526e-06
4.15486e-06
-3.92525e-06
-2.29536e-07
-3.45024e-06
-1.20511e-05
9.97793e-07
-3.11298e-05
4.48742e-07
-6.13914e-06
3.68203e-05
-1.47692e-05
1.32754e-05
4.14684e-07
1.07898e-06
-4.30214e-07
8.11309e-06
-1.34703e-07
-7.5482e-06
-2.81248e-06
2.74327e-06
6.92183e-08
3.1099e-06
-8.16519e-07
2.09638e-05
-2.32575e-05
2.81128e-05
3.17853e-06
-2.45754e-05
-6.7158e-06
-3.37408e-06
-1.57848e-05
-1.00832e-05
1.34905e-05
-1.48574e-05
1.01548e-06
3.51093e-07
7.88711e-06
-3.23268e-05
3.80231e-05
-1.35834e-05
1.0837e-05
2.2151e-06
-5.65367e-06
-7.39759e-06
-1.66921e-05
-3.85199e-05
9.95504e-06
4.52572e-05
5.59216e-08
2.57027e-06
-2.01009e-07
-2.42471e-06
9.61645e-06
-6.353e-07
1.49523e-06
-1.0476e-05
-9.75305e-06
2.13129e-07
9.63123e-06
-9.10854e-08
2.22396e-05
3.69779e-06
-2.79337e-05
1.99647e-06
-3.16426e-05
-1.77895e-05
4.04075e-05
9.02456e-06
-6.9511e-06
2.97403e-06
-6.38934e-06
7.34145e-06
3.0927e-05
-3.97403e-05
1.4717e-06
-2.21751e-05
-2.2384e-05
8.93843e-06
3.56219e-05
-2.68481e-06
2.93336e-06
-2.48579e-07
1.75702e-05
1.00628e-05
-1.98939e-06
-2.56427e-05
-7.13412e-07
-4.41506e-06
-2.93867e-05
3.45149e-05
-2.32824e-05
5.83968e-06
5.67923e-05
-3.93497e-05
2.80872e-05
-2.0733e-05
-1.12212e-05
3.86687e-06
2.57818e-06
-1.01705e-07
-2.47664e-06
4.20723e-05
-2.10863e-05
2.95869e-06
-2.39447e-05
9.25463e-06
-9.97818e-06
1.28292e-06
-5.59204e-07
2.42467e-06
2.31097e-06
-4.73563e-06
-1.65698e-05
-2.109e-05
4.33433e-06
3.33246e-05
-1.11563e-05
2.12924e-07
1.15579e-05
-6.13983e-07
2.07734e-05
-4.25653e-05
5.35814e-07
2.12562e-05
-2.23098e-05
-2.69884e-05
3.60792e-05
1.32189e-05
-1.30971e-05
1.79496e-05
2.79483e-05
5.39606e-06
2.90616e-05
-3.03257e-05
-4.1319e-06
1.83976e-06
1.39575e-06
-1.23808e-05
9.1452e-06
-3.38281e-05
1.47957e-05
1.21368e-05
6.89586e-06
1.30938e-05
3.44429e-06
-1.49271e-06
-1.50469e-05
-3.29355e-06
-2.55157e-05
2.64068e-06
2.61688e-05
6.89152e-06
-2.64454e-06
2.80053e-05
-3.22522e-05
-1.94668e-06
-8.11333e-08
-4.90327e-06
6.93072e-06
6.70595e-07
1.11266e-05
-4.16309e-05
2.9834e-05
-1.49473e-05
-3.04178e-05
-1.04987e-06
4.64141e-05
3.53969e-07
4.95623e-06
-5.30988e-06
7.96645e-08
-1.88315e-07
1.08557e-05
-1.07473e-05
2.76646e-06
1.75689e-05
1.49689e-05
-3.53044e-05
2.60904e-07
-1.42601e-05
1.50861e-07
1.38484e-05
4.43204e-06
-2.14709e-05
-1.64968e-05
3.35359e-05
1.59381e-05
1.99512e-05
-1.74505e-05
-1.8439e-05
3.54738e-05
2.12534e-05
-4.77059e-05
-9.02149e-06
1.3171e-07
-4.28611e-06
4.15432e-06
2.66989e-06
1.30864e-06
-6.28979e-09
-3.97225e-06
1.90152e-06
2.48107e-06
3.09439e-07
-4.69216e-06
2.43984e-06
-2.93615e-06
1.47146e-05
1.84792e-07
-2.80281e-05
1.04855e-05
1.73581e-05
5.93609e-05
6.0247e-06
-1.24605e-05
-5.29266e-05
-7.89561e-06
1.0729e-05
-2.68455e-06
-1.48879e-07
-1.80838e-05
1.71052e-05
-2.90543e-05
3.00337e-05
3.04682e-06
5.95941e-08
-3.10652e-06
1.16003e-06
8.3667e-06
-1.5998e-05
6.47146e-06
3.02438e-06
-4.56108e-06
1.53664e-06
2.98589e-05
-1.60024e-05
-7.91872e-06
-1.59644e-05
5.77763e-06
-1.48268e-05
2.50137e-05
3.33473e-05
-3.25191e-05
5.20016e-06
-6.02811e-06
1.40575e-05
4.6861e-06
-1.68387e-05
-1.90444e-06
3.42619e-06
-4.03473e-05
1.39837e-05
2.29374e-05
2.66095e-05
-5.46927e-06
4.49715e-06
5.15578e-05
-5.69723e-05
1.89779e-06
-3.24747e-05
2.51609e-06
3.34937e-05
-3.53534e-06
-3.21804e-05
-2.07658e-05
3.48628e-05
-1.19093e-05
-1.19838e-05
-1.66773e-05
4.05705e-05
-1.37444e-06
4.57862e-06
3.98877e-05
-4.30913e-05
1.44807e-06
2.95362e-05
-5.08512e-05
1.98669e-05
-8.95998e-08
4.14883e-08
1.76957e-05
-1.76478e-05
-4.26097e-05
7.21148e-06
3.118e-06
3.22786e-05
1.1848e-05
-1.19331e-05
4.04485e-06
-3.95928e-06
7.20451e-07
1.08938e-05
-1.38775e-05
2.26315e-06
-2.29288e-05
3.49673e-05
-4.62296e-06
-7.41553e-06
-3.66806e-05
2.71343e-05
1.69107e-06
7.85388e-06
-2.71577e-05
2.74692e-05
3.58313e-05
-3.61427e-05
3.56593e-05
-2.91481e-05
1.134e-06
-7.64529e-06
-1.29804e-05
1.67029e-05
-9.99762e-06
6.27537e-06
-7.35189e-06
1.6921e-05
1.41576e-06
-1.09846e-05
-3.79948e-05
3.14517e-06
4.14682e-05
-6.61867e-06
-4.36407e-06
-2.434e-05
3.97297e-07
2.83071e-05
2.32827e-06
-8.03075e-06
6.42296e-06
9.2671e-06
7.55991e-07
-8.88195e-06
-1.14122e-06
9.79052e-06
1.83661e-05
-2.13774e-05
-6.77882e-06
-1.07397e-05
1.51138e-05
2.58889e-05
-3.02633e-05
8.58821e-07
4.23292e-06
-3.56219e-05
3.05301e-05
1.6563e-05
-2.51804e-05
8.43295e-06
1.84695e-07
-4.14261e-05
-6.61047e-06
1.13569e-05
-3.22531e-06
-8.48771e-07
-2.38877e-05
2.79611e-05
-3.15062e-06
4.41015e-08
3.10656e-06
-5.39633e-06
-6.727e-06
4.41334e-05
-3.201e-05
5.09325e-06
-4.85008e-06
-2.42424e-07
2.53601e-07
1.94508e-07
-9.35044e-06
8.9024e-06
-2.08362e-05
2.05107e-05
3.57991e-05
5.80978e-06
3.26666e-05
-2.34176e-05
-1.50585e-05
4.36631e-06
-4.43971e-06
7.33058e-08
-4.38587e-06
4.84709e-05
-2.66177e-05
-1.74662e-05
-2.6017e-05
2.76152e-05
1.9175e-05
-1.98534e-06
2.60489e-05
1.07976e-05
-3.48613e-05
-3.64348e-05
-1.34464e-05
4.85809e-05
1.30058e-06
-4.57249e-06
4.14653e-06
4.25887e-07
3.55873e-05
-3.79059e-05
-4.9635e-07
2.81604e-06
-2.34818e-05
-1.49195e-05
2.13921e-05
1.70093e-05
-4.1602e-06
1.94653e-06
-2.37926e-05
2.60066e-05
-2.8374e-05
-7.38465e-06
6.20985e-07
3.51378e-05
-1.80016e-05
-9.01206e-06
-6.7185e-06
1.54736e-05
-3.5435e-05
-3.0348e-06
2.29957e-05
8.51407e-06
-3.55122e-05
-1.07721e-05
3.77697e-05
7.24575e-06
-6.89351e-06
-3.52355e-07
-3.01009e-05
5.04404e-05
-7.11011e-06
-1.32287e-05
-6.40378e-06
-2.66463e-05
3.00309e-05
3.01927e-06
-4.98702e-05
5.12172e-05
-5.81453e-06
4.46725e-06
-2.86701e-05
-7.01137e-06
2.07015e-05
1.49799e-05
-2.6132e-05
-5.62797e-06
3.19219e-05
-1.60786e-07
-3.36983e-07
9.15063e-08
-1.22406e-05
1.24861e-05
3.33631e-06
1.681e-07
-3.50449e-06
-6.07574e-06
6.13803e-06
-6.25127e-08
4.34698e-05
-3.76136e-05
-5.09268e-05
4.50682e-05
2.82451e-06
1.16705e-07
-2.94111e-06
-2.82904e-05
2.78396e-05
-3.45564e-07
7.96652e-07
-1.02897e-05
8.70897e-06
2.14594e-07
1.36673e-06
5.33961e-06
5.24152e-05
-2.83904e-05
-2.93644e-05
-3.02267e-05
-9.24178e-06
3.62748e-06
3.58405e-05
3.363e-05
1.54634e-05
-1.53073e-05
-3.37862e-05
1.25765e-05
-4.68228e-06
1.53094e-06
-9.42545e-06
3.59434e-05
-3.52768e-06
-2.59559e-05
-6.45997e-06
-3.84849e-06
5.71979e-06
-6.37022e-06
4.49894e-06
-2.54401e-06
8.4342e-06
3.09469e-06
-8.98476e-06
-1.49222e-05
-7.78559e-06
4.20439e-05
-1.93354e-05
6.1358e-06
2.41079e-05
-2.35348e-05
-6.709e-06
-2.25508e-05
2.32367e-05
1.4996e-05
-1.56818e-05
2.27461e-05
-2.05813e-05
-2.7335e-06
5.69759e-07
-5.25904e-08
-1.07452e-05
-4.63643e-08
1.08445e-05
-6.89221e-06
1.30236e-05
-1.45134e-06
-4.68012e-06
-3.21706e-05
-1.10487e-05
1.58363e-05
2.73824e-05
2.55312e-05
-2.14715e-05
-4.36923e-06
3.09698e-07
1.01741e-05
-3.43516e-05
-3.9847e-05
6.40253e-05
2.22975e-05
-2.91162e-05
-1.40544e-05
2.08738e-05
-6.27377e-06
-5.59215e-05
1.48395e-05
4.73551e-05
1.76806e-05
-1.56989e-05
2.47181e-06
-4.45354e-06
3.02205e-05
-1.06758e-05
-3.64132e-05
1.68673e-05
1.34324e-05
2.33479e-05
-5.32949e-05
1.65137e-05
-7.85321e-06
3.20297e-05
-2.83148e-05
4.13858e-06
-2.98798e-05
3.45202e-05
3.48775e-05
-3.95177e-05
-5.6781e-08
-1.36804e-05
1.1901e-05
1.83633e-06
3.99791e-06
-3.75769e-06
-2.39805e-07
3.8437e-05
-4.76888e-05
1.39865e-06
-3.96812e-06
5.30209e-06
2.81171e-06
-4.14533e-06
-2.85388e-06
1.36852e-07
-1.40239e-06
4.11989e-06
1.92684e-05
-2.51714e-06
1.78602e-05
-2.72842e-05
1.07215e-06
8.35176e-06
-9.16873e-06
-2.29712e-06
8.63097e-06
2.67518e-05
-3.48907e-05
1.9767e-05
-1.16277e-05
-2.87868e-05
-4.11223e-06
3.46617e-05
-1.76278e-06
-6.09709e-05
-9.32086e-06
5.41428e-05
1.61479e-05
-4.36718e-05
1.20918e-05
9.9681e-07
3.05836e-05
-3.9965e-06
3.13137e-07
8.36894e-07
2.84638e-06
-2.69894e-05
-3.25998e-05
2.46001e-05
3.49892e-05
2.06934e-05
1.80007e-05
-3.11715e-05
-7.5218e-06
1.18556e-07
1.38815e-05
-1.17622e-05
-2.23788e-06
-4.96077e-07
-2.06344e-05
4.08487e-05
-1.97185e-05
4.21878e-05
-3.00535e-05
-1.611e-05
2.79619e-05
-3.14161e-05
6.22736e-06
-2.77406e-06
-3.9913e-06
-2.55866e-05
2.78419e-05
1.73657e-06
4.11355e-05
-2.88523e-06
-4.22407e-05
2.32025e-05
-2.60712e-05
6.49273e-06
-3.62439e-06
1.73998e-06
-1.15792e-05
-9.45359e-07
1.07846e-05
-2.45575e-06
2.36474e-06
-2.82104e-06
2.91203e-06
-1.75183e-06
4.33076e-06
1.42339e-06
-4.00252e-06
-6.98099e-06
-1.85986e-05
-1.46634e-06
2.70459e-05
1.09291e-05
8.75936e-06
-2.97799e-05
1.00915e-05
-1.87056e-05
5.98385e-07
6.69734e-06
1.14099e-05
-1.62547e-06
-1.74997e-05
1.69914e-05
-2.24041e-05
2.65828e-05
8.43842e-06
-1.26165e-05
-3.3019e-05
3.84778e-05
-1.23788e-05
6.92057e-06
-6.14662e-06
-1.98553e-05
2.05519e-06
2.39467e-05
1.50098e-06
3.48061e-05
-4.08808e-05
4.57302e-06
1.72862e-05
-5.42747e-05
1.14944e-05
2.54937e-05
4.95876e-06
-3.84131e-05
2.09684e-05
1.2486e-05
1.61963e-06
2.11803e-05
-7.30129e-06
-1.54987e-05
-3.79002e-06
1.83777e-06
3.71281e-06
-1.76035e-06
-3.96799e-06
7.89632e-06
-2.9276e-05
2.53477e-05
-1.51709e-06
-1.06273e-05
2.75462e-07
1.18687e-05
1.65631e-07
1.09065e-05
-1.6799e-07
-1.09045e-05
1.73963e-07
2.41235e-07
1.11461e-05
-1.1561e-05
-9.59367e-06
-1.62202e-05
2.8911e-05
-3.09626e-06
3.18358e-06
-3.18582e-05
1.71927e-05
1.14821e-05
3.37399e-05
8.32959e-07
2.71134e-06
-3.72847e-05
2.56215e-06
-2.6236e-06
6.14997e-08
1.05415e-05
2.12148e-05
-2.67975e-05
-1.07304e-05
3.91613e-08
1.31597e-07
1.05604e-05
2.25601e-06
-2.8624e-05
1.03877e-05
1.59806e-05
8.40266e-07
7.03657e-06
-7.12167e-06
-7.55531e-07
-5.47022e-06
-1.15642e-05
2.21928e-05
-5.15813e-06
2.73143e-05
-3.0336e-05
2.6132e-05
-2.31104e-05
1.91039e-05
-8.78553e-06
-3.26673e-05
2.2349e-05
-1.84641e-06
-1.75495e-06
3.60148e-06
1.12961e-05
2.36936e-06
-3.2588e-06
-1.04064e-05
-2.4424e-05
3.65847e-05
2.74027e-06
2.31649e-06
-5.05674e-06
2.40569e-06
-3.10978e-05
-3.72331e-07
2.90645e-05
-1.44503e-07
5.36516e-07
2.08229e-05
-1.40562e-06
2.20271e-05
-4.41282e-05
2.3507e-05
-7.00074e-06
-1.99729e-05
-2.80468e-06
2.97785e-05
5.55622e-06
-8.99778e-06
9.34123e-06
-5.89988e-06
-7.27864e-06
-3.60164e-05
-4.52434e-06
4.782e-05
1.97349e-05
3.74217e-06
-2.27407e-05
-7.3628e-07
7.1224e-06
3.3469e-05
-5.5307e-05
1.47153e-05
-2.44023e-06
-1.42231e-05
-8.31609e-06
2.49794e-05
-1.82556e-05
-5.84969e-06
9.67836e-06
1.44269e-05
-1.05495e-06
-1.16141e-06
-1.24533e-05
1.46696e-05
4.22384e-05
-1.74547e-05
-1.01206e-05
-1.46627e-05
-2.61152e-05
6.30861e-05
-3.43394e-05
-2.63103e-06
1.07524e-05
2.8819e-07
2.87032e-07
-1.13286e-05
2.92957e-05
-3.5181e-05
3.48882e-05
-2.90036e-05
-5.13971e-06
1.61397e-05
-1.30316e-05
2.03146e-06
1.58625e-05
-5.73443e-05
2.12145e-06
3.93606e-05
1.04629e-05
5.09049e-05
-4.3431e-05
-1.79367e-05
6.06866e-06
-5.92125e-06
-9.83366e-06
9.68655e-06
-2.21723e-05
-1.37618e-05
3.9656e-05
-3.72184e-06
3.54364e-05
-2.90661e-05
-4.1808e-05
3.54366e-05
1.82585e-05
1.48681e-05
-9.48197e-06
-2.36434e-05
1.1944e-07
-1.56889e-05
8.12894e-08
3.7176e-06
-3.79861e-06
-3.24942e-06
3.138e-06
1.11285e-07
2.59498e-05
-2.43965e-05
-2.21944e-05
2.0641e-05
-7.70773e-06
9.91872e-06
-2.80072e-05
2.57961e-05
4.20913e-05
-3.28244e-05
-6.84179e-06
-2.42485e-06
-4.51837e-06
1.12297e-06
2.92305e-06
-9.00279e-06
3.18167e-05
-8.54152e-06
-1.42723e-05
-4.08472e-05
1.0323e-06
1.41715e-05
2.56428e-05
1.60253e-05
-7.08632e-06
-1.55181e-05
6.57905e-06
9.17817e-06
3.91974e-05
-3.71031e-05
-1.12719e-05
-2.364e-05
-4.62812e-06
4.49565e-05
-1.66878e-05
2.23931e-06
2.53029e-05
5.70097e-06
-3.32432e-05
8.5382e-06
2.75049e-05
-3.3804e-05
1.82573e-05
-1.34455e-05
-7.09614e-06
2.28386e-06
2.44902e-05
-3.11669e-05
1.37993e-05
-1.26278e-05
8.01138e-06
7.53979e-06
-2.92339e-06
1.01975e-05
1.17279e-05
2.34202e-05
-4.53451e-05
4.25569e-06
-2.65392e-05
-4.11428e-06
2.63972e-05
3.11987e-07
2.8115e-05
2.518e-06
-3.09445e-05
1.3725e-05
2.55653e-05
-4.27862e-05
3.4957e-06
-5.66048e-05
4.71298e-05
-7.24313e-07
2.87371e-07
3.90569e-05
-3.00724e-06
-3.63384e-05
-3.15108e-06
7.11164e-06
-9.72722e-06
5.76712e-06
-7.7927e-07
-3.38077e-06
2.24037e-07
3.93583e-06
-3.23819e-06
3.11938e-06
1.18666e-07
-4.86133e-06
-8.34541e-06
3.8108e-05
-2.49012e-05
-3.30135e-05
4.95857e-06
-1.45722e-05
4.26272e-05
4.39329e-05
-1.05128e-05
-1.43812e-05
-1.90382e-05
3.33622e-06
-3.14215e-05
1.14342e-05
1.66513e-05
3.2797e-06
-2.96169e-06
-1.15325e-06
8.35051e-07
-3.79067e-06
3.6539e-06
1.36937e-07
1.85051e-06
2.63933e-05
-4.67698e-06
-2.35664e-05
-5.63476e-06
2.70908e-05
-3.50902e-05
1.36346e-05
1.2695e-05
2.11719e-05
-4.93047e-05
1.54377e-05
-1.94037e-06
2.59266e-05
1.92509e-05
-4.32373e-05
-4.09488e-05
2.21435e-05
2.36812e-05
-4.87602e-06
4.22179e-05
-4.33769e-05
8.76906e-06
-7.60977e-06
-3.12542e-05
-4.97595e-07
-9.19689e-06
2.29209e-07
5.05652e-06
-5.28577e-06
2.93414e-05
3.89755e-06
-2.42854e-05
-8.95413e-06
-1.81104e-06
-2.56953e-06
1.22526e-05
-7.87221e-06
3.03763e-06
5.32474e-07
9.97138e-06
-1.35414e-05
-3.44813e-05
1.55355e-05
1.66029e-05
2.34297e-06
1.31059e-05
-2.08158e-05
-2.99024e-06
1.07001e-05
-2.49702e-05
5.60756e-06
4.09352e-05
-2.15725e-05
-2.9607e-06
-1.84677e-07
3.1446e-06
-1.57234e-05
3.9861e-05
2.87644e-05
-5.29019e-05
3.6045e-05
9.68037e-07
-5.69802e-05
1.99671e-05
-2.36741e-06
3.67108e-05
-3.16216e-06
-3.1181e-05
1.794e-05
-1.39068e-05
1.08067e-05
-1.48397e-05
-1.3071e-06
-2.48011e-05
2.77478e-05
-1.63953e-06
-2.31717e-05
-3.46855e-06
-1.53334e-05
4.19736e-05
-7.7964e-06
-8.36724e-06
-1.44344e-05
3.05982e-05
-1.30768e-06
3.85753e-05
-4.40015e-06
-3.28675e-05
2.28312e-05
-2.28023e-05
8.15371e-07
-8.44158e-07
3.90068e-05
1.07965e-07
-2.69331e-05
-1.2181e-05
-8.54596e-06
-4.50272e-06
-2.4594e-05
3.76425e-05
-2.84983e-07
-2.99102e-06
3.27581e-06
-3.42426e-05
5.06895e-05
-3.72072e-06
-1.27258e-05
2.75155e-06
1.86363e-05
5.97649e-06
-2.73653e-05
-4.1968e-06
9.71611e-06
3.38479e-06
-8.90426e-06
-1.53674e-05
-3.79261e-06
1.59057e-05
3.25518e-06
2.20267e-05
1.50212e-05
-5.46943e-05
1.76464e-05
1.21518e-05
-9.51575e-06
3.01297e-05
-3.27656e-05
-2.33692e-06
1.90846e-05
1.55012e-06
-1.82977e-05
2.88769e-06
-2.84444e-06
-4.32748e-08
2.77983e-06
3.36716e-05
1.45506e-06
-3.79066e-05
2.8053e-05
-4.37901e-06
-2.7058e-05
3.38442e-06
-5.54581e-06
6.69124e-06
-3.16039e-05
3.04585e-05
-2.81008e-05
-4.38496e-06
2.17283e-05
1.07583e-05
1.02672e-05
-9.72591e-06
-8.33737e-08
-4.58027e-07
-4.23815e-05
2.7745e-05
-1.63329e-06
1.62701e-05
-4.79191e-06
4.03008e-06
7.61856e-07
1.40159e-05
-1.19411e-05
1.87278e-05
-2.0803e-05
1.95606e-05
1.64086e-05
-8.55297e-06
1.49935e-05
-4.02582e-05
-1.85958e-05
4.386e-05
1.47216e-07
-1.4899e-05
1.49463e-05
-1.9505e-07
8.58532e-06
-1.38548e-05
-1.60015e-05
2.12712e-05
1.36615e-05
5.96957e-06
-2.35124e-06
-1.72798e-05
-4.0711e-06
9.52521e-07
5.17212e-06
-2.05358e-06
-5.06724e-06
6.16768e-05
-2.10238e-05
-3.55855e-05
1.63939e-05
1.86253e-05
-1.05384e-06
-3.39654e-05
1.34207e-07
2.87432e-06
-3.0083e-06
-7.80187e-07
5.36587e-06
3.34726e-05
-3.8058e-05
4.5103e-05
5.82471e-06
-2.21454e-05
-2.8782e-05
-1.05027e-06
5.38221e-06
-4.23852e-06
-9.35754e-08
1.30454e-05
-1.17219e-06
-1.42339e-05
2.36135e-06
-3.95546e-06
-1.24986e-05
6.44311e-06
1.00113e-05
-6.35602e-06
2.85007e-05
4.44732e-06
-2.65924e-05
3.27052e-05
-4.34005e-06
-3.55779e-05
7.21293e-06
-2.97124e-06
5.75285e-06
-2.78161e-06
2.42519e-06
-1.06557e-05
9.51909e-06
-1.28874e-06
6.55441e-07
1.02695e-05
-1.0819e-05
-1.06016e-07
1.0543e-05
1.23874e-05
-1.45376e-06
-2.14766e-05
2.28004e-05
3.14115e-05
-2.15072e-05
-1.29748e-07
3.82499e-06
-3.69535e-06
-4.10364e-05
2.00475e-05
3.85601e-05
-1.75722e-05
3.99164e-05
6.98554e-06
-4.21063e-05
-4.79567e-06
2.99666e-05
-2.01442e-05
-3.2994e-05
8.34102e-06
1.43275e-05
-3.58446e-05
-1.94077e-06
-7.79397e-06
4.55795e-05
-8.92568e-08
3.72585e-06
-3.63663e-06
3.95514e-05
-1.45886e-06
-4.60922e-06
-3.34834e-05
3.92797e-06
-3.92287e-06
-4.70216e-09
-1.22193e-05
3.00516e-06
-7.37351e-06
1.65878e-05
-2.16629e-05
-1.8579e-05
1.6488e-05
2.37542e-05
1.99327e-05
-1.51883e-05
-4.24128e-06
-5.02646e-07
-4.45761e-08
2.98259e-06
-2.9385e-06
-6.76711e-07
-3.90596e-06
1.71321e-08
4.56588e-06
7.35153e-06
2.95515e-06
-5.22571e-06
-5.08119e-06
-1.14865e-05
1.24577e-05
-1.64791e-06
-3.66038e-07
4.24282e-05
-1.14961e-06
-4.09123e-05
-7.14427e-06
-7.05806e-07
9.38002e-06
-1.52999e-06
3.45143e-06
-1.35805e-05
1.06551e-05
-5.26014e-07
1.07896e-05
-2.01825e-05
1.44478e-05
-5.05486e-06
9.15259e-06
2.13771e-05
3.5754e-06
-3.4105e-05
5.39063e-06
-5.53346e-06
1.4263e-07
1.55221e-05
-1.26166e-05
-3.16272e-05
2.87207e-05
1.1113e-06
1.18427e-06
1.5949e-05
-1.82445e-05
4.5438e-06
1.94431e-05
-2.51017e-05
1.11462e-06
1.14382e-05
-5.34287e-07
-1.77491e-06
-9.12893e-06
1.11989e-05
2.34658e-05
-3.44049e-05
-2.59786e-07
1.3805e-05
-1.03918e-07
-1.17515e-06
-1.2526e-05
-2.55626e-05
9.29393e-06
1.27393e-06
1.49944e-05
-1.28649e-05
-1.22555e-05
-1.72637e-06
9.58966e-06
-1.69066e-05
1.27631e-05
-5.44663e-06
-4.53569e-06
-1.9028e-05
-2.84858e-05
5.20494e-05
-6.09661e-06
7.53555e-06
-1.73896e-06
3.00044e-07
3.9673e-08
2.48373e-06
-2.52367e-06
-7.93092e-06
4.07437e-05
1.20395e-05
-4.48526e-05
3.26747e-05
1.37916e-05
-1.20639e-05
-3.44023e-05
2.75887e-05
-2.29695e-05
2.62781e-05
-3.08972e-05
3.46992e-05
-3.8167e-05
4.21437e-06
-7.46617e-07
-6.05859e-05
2.64941e-05
1.16395e-05
2.24524e-05
-1.14367e-05
-1.43321e-06
1.2623e-05
2.46812e-07
3.55886e-05
-4.73825e-05
1.66371e-05
-4.84322e-06
1.04012e-05
-1.14068e-05
3.62371e-06
-2.61799e-06
-1.80421e-05
1.64447e-05
-1.12675e-05
-1.40262e-05
4.79235e-05
5.24125e-06
-3.91384e-05
-5.27263e-06
1.40492e-07
5.13207e-06
-4.769e-06
1.08945e-05
-4.01907e-05
-1.94991e-05
-3.25098e-07
1.9083e-07
1.96333e-05
4.45753e-06
1.28354e-07
-4.58575e-06
8.57796e-06
-5.59388e-07
-3.02782e-05
2.22598e-05
-5.95733e-08
-1.98671e-07
1.03996e-05
-1.01415e-05
8.25934e-06
1.82254e-05
-3.02859e-05
3.80139e-06
2.90562e-05
1.94682e-06
1.91686e-06
-3.29197e-05
-2.58656e-06
6.58192e-06
3.88302e-05
-4.28255e-05
-8.62501e-06
-1.0477e-06
-3.62524e-07
1.00354e-05
-9.85638e-06
8.4402e-06
-3.41033e-05
3.55189e-05
-1.32711e-06
2.45039e-05
-2.14363e-05
-1.74009e-06
4.12523e-05
1.26946e-05
-1.87622e-05
-3.51845e-05
8.95566e-06
-4.83682e-05
3.14306e-05
-4.12835e-05
5.27253e-05
-2.26376e-06
2.28852e-05
-9.10577e-06
1.88953e-05
-1.32165e-05
-3.23243e-06
6.37533e-06
1.00736e-05
-6.97064e-06
7.1933e-07
6.34622e-06
-9.52843e-08
-1.29078e-05
3.29416e-05
-2.3213e-05
3.17902e-06
-3.40443e-05
3.06455e-05
3.26533e-05
-2.92545e-05
-3.18619e-06
2.93778e-06
1.81524e-07
6.71525e-08
3.49623e-05
-5.07809e-05
-1.89799e-05
3.47985e-05
-4.78961e-05
-1.93198e-05
3.19608e-05
3.52548e-05
4.37326e-05
4.49176e-06
1.95468e-06
-5.01789e-05
3.74008e-05
-2.53047e-05
3.16366e-05
-3.76878e-05
-3.68001e-06
1.45627e-05
2.68058e-05
3.13675e-06
2.67256e-07
-3.40387e-06
4.08144e-05
-3.76455e-05
-1.28103e-05
9.6414e-06
-2.01793e-05
-7.11023e-06
5.86424e-06
2.14246e-05
1.56771e-05
2.76479e-05
-1.59873e-05
-2.73377e-05
6.824e-06
2.14663e-05
-2.08891e-05
-7.40108e-06
4.45244e-07
-6.20736e-06
5.76209e-06
-1.9261e-05
-1.73221e-05
1.67398e-05
1.98433e-05
1.52092e-06
1.99231e-05
-4.58134e-06
-1.68632e-05
-3.4154e-05
3.41779e-05
-6.42854e-06
-3.01077e-06
4.22391e-05
-4.11993e-05
1.97143e-06
2.05535e-05
4.21304e-06
1.11448e-05
-3.59112e-05
-5.01641e-08
-2.16389e-06
2.21428e-06
-3.14405e-06
3.13353e-06
1.06767e-08
-2.77178e-05
-1.29342e-05
1.5659e-05
2.49932e-05
-3.44976e-05
-6.16806e-07
4.16813e-05
-6.56698e-06
-1.07234e-05
3.95098e-05
-4.07126e-05
1.19261e-05
-2.66155e-05
2.18448e-05
-9.87725e-06
1.4648e-05
3.52697e-07
2.04736e-05
-2.2905e-05
2.0783e-06
-3.63522e-05
8.0054e-06
2.38768e-05
4.46982e-06
2.52315e-06
5.02983e-05
-1.886e-05
-3.39613e-05
2.14158e-06
-3.98797e-06
-2.51708e-05
-1.323e-05
1.06828e-05
2.05038e-05
-1.29176e-06
3.36893e-06
-2.25809e-05
-1.92715e-06
-4.4434e-06
5.60669e-06
7.63755e-07
1.33052e-05
-4.04046e-06
-9.46506e-06
2.0022e-07
1.2974e-05
-4.39951e-05
4.20994e-05
-1.10775e-05
-1.67186e-05
2.9482e-05
4.39518e-06
-1.71581e-05
-3.52594e-06
4.30066e-06
2.78299e-05
-2.86049e-05
-3.72436e-05
2.78859e-06
3.6757e-07
3.40887e-05
-2.06983e-05
2.42069e-06
1.67018e-05
1.57613e-06
-2.81719e-05
1.74862e-05
4.01388e-05
-2.94531e-05
-1.40151e-05
-2.59967e-05
7.02434e-06
3.29876e-05
5.68296e-06
-4.37296e-05
-5.52289e-06
4.35698e-05
-3.35502e-05
4.37406e-06
-1.29924e-06
3.04751e-05
-3.59937e-05
-2.66176e-06
-2.27144e-06
4.09269e-05
7.46126e-06
-4.20381e-06
3.87502e-05
-4.20073e-05
6.80447e-06
-3.87092e-06
-5.31649e-09
-2.92802e-06
5.02185e-06
-5.18038e-05
-8.15177e-06
5.49341e-05
-3.90205e-06
2.47358e-06
2.00291e-06
-5.74603e-07
-2.87887e-05
-7.55615e-06
1.58107e-05
2.05342e-05
-1.38225e-06
1.3572e-05
2.55252e-06
-1.4742e-05
-1.31011e-05
-1.41987e-05
9.30883e-06
-6.08867e-06
2.44456e-06
3.14486e-05
-2.78039e-05
2.47839e-05
-3.40102e-05