/*--------------------------------*- C++ -*----------------------------------*\
| =========                 |                                                 |
| \\      /  F ield         | OpenFOAM: The Open Source CFD Toolbox           |
|  \\    /   O peration     | Version:  2406                                  |
|   \\  /    A nd           | Website:  www.openfoam.com                      |
|    \\/     M anipulation  |                                                 |
\*---------------------------------------------------------------------------*/
FoamFile
{
    version     2.0;
    format      ascii;
    arch        "LSB;label=32;scalar=64";
    class       volVectorField;
    location    "54";
    object      U;
}
// * * * * * * * * * * * * * * * * * * * * * * * * * * * * * * * * * * * * * //

dimensions      [0 1 -1 0 0 0 0];

internalField   nonuniform List<vector> 
59516
(
(0.103438 -0.00098966 -0.000507884)
(0.0952348 -0.000114831 -0.000377427)
(0.110821 -0.000660534 -0.000441405)
(0.127662 0.00127885 0.00188839)
(0.113682 0.000207883 -0.00456284)
(0.101091 -0.0048309 -0.0107984)
(0.127072 -0.00190212 -0.00217164)
(0.099618 0.000647355 -0.000109173)
(0.110281 0.000942485 -6.14064e-05)
(0.0519343 -0.00101796 0.00205185)
(0.154067 -0.000333187 -0.00245744)
(0.059783 0.000212766 -0.00372614)
(0.116854 0.00116405 4.49603e-07)
(0.0190567 -0.000114911 -0.000180563)
(0.0580625 0.00139627 0.0031894)
(0.04995 0.00347016 -0.00156891)
(0.16976 -0.00249364 -0.00118321)
(0.0700276 0.00400827 -0.00437943)
(0.114361 0.00608531 0.000643098)
(0.166086 -0.00147603 -0.000215624)
(0.053765 0.000921014 -0.00127545)
(0.148373 -0.000904099 0.000253266)
(0.154547 -0.00101538 -0.00251384)
(0.0320031 -0.000973415 -0.000260157)
(0.161145 -0.000552493 0.000455169)
(0.0631103 0.00142579 0.000612706)
(0.0398833 0.000807426 -0.00276825)
(0.0442435 0.00378261 0.000197658)
(0.0653042 0.00274048 -0.000594728)
(0.0164757 -0.00256823 0.000637491)
(0.108357 -0.0210416 -0.00463995)
(0.0455345 0.00366463 -0.000571282)
(0.131869 0.00017646 0.000815793)
(0.110384 -0.000948251 0.00209429)
(0.139461 0.00545126 0.00396074)
(0.145957 0.000291624 -0.000454981)
(0.0159066 -0.00155264 -0.00221287)
(0.069926 0.00268021 -0.00676321)
(0.0950102 -0.00386116 -0.000375916)
(0.160154 -3.09035e-05 -0.000747535)
(0.0987989 -0.000586437 0.000212932)
(0.144043 -0.00856363 -0.00795454)
(0.14843 -0.00411423 -0.00339514)
(0.104552 -0.000672631 0.000340848)
(0.14259 -0.00541492 -0.000426422)
(0.0529031 -0.000733822 -0.00122443)
(0.132281 -0.00300848 -0.00450335)
(0.163582 -0.00518989 -0.00101537)
(0.111886 -0.00900564 0.0123936)
(0.151159 0.00686635 0.00539737)
(0.104054 0.0104762 -0.0145219)
(0.0418178 -0.0036105 0.00247316)
(0.117852 0.000995004 -0.00230468)
(0.125288 -0.000557501 0.000129289)
(0.0472012 0.00301243 -1.09828e-05)
(0.129553 0.00304419 -0.000910607)
(0.144967 0.00832082 0.00856992)
(0.0444069 0.00384388 -0.00269321)
(0.176303 0.000247899 -0.000192886)
(0.135241 0.00645267 0.00812751)
(0.149358 -0.000499602 0.000155929)
(0.0180563 0.0022631 -0.000786113)
(0.169341 0.000540202 0.000689054)
(0.166997 0.00281541 0.00216981)
(0.119737 0.000214038 -0.000716382)
(0.147644 0.00388714 0.00558113)
(0.0244112 -0.00165835 0.00223999)
(0.0391583 0.000254806 -0.0002218)
(0.121527 -0.00505848 0.0222429)
(0.135566 0.00126013 -0.00345526)
(0.0348833 0.000961883 0.00028906)
(0.164131 0.00250465 -0.000196625)
(0.0217972 0.00136557 -0.00332205)
(0.142707 0.00156293 0.000741906)
(0.184806 -2.6357e-05 -0.000477375)
(0.158182 -0.00261222 -0.00321446)
(0.164326 -0.00275726 -0.00403442)
(0.148579 -0.000252237 0.00028104)
(0.0435594 -0.00144861 0.00136795)
(0.151814 0.00312608 0.00799761)
(0.0361412 0.00221281 0.00106266)
(0.146933 0.00419665 0.00632515)
(0.139745 0.00189931 0.00609242)
(0.0188517 -0.000714559 0.00263945)
(0.14675 0.0033234 0.00664432)
(0.17766 -0.000900315 0.000364222)
(0.0309235 -0.00112816 0.000489266)
(0.149754 -0.000370493 -0.000212887)
(0.052287 0.000663106 0.00208803)
(0.107117 0.00846999 -0.00582303)
(0.131527 -0.000882558 -0.0115257)
(0.139236 0.00154247 -0.000361037)
(0.175559 0.000340733 -0.000217887)
(0.137158 0.00111199 -0.00034707)
(0.163387 0.00019931 -1.98751e-05)
(0.109931 -0.0105422 0.00393878)
(0.139869 -0.000324437 0.000462162)
(0.0510227 -0.00185618 -0.00404531)
(0.0643597 0.00243413 -0.00105436)
(0.148312 -0.000833847 0.00170952)
(0.0358239 0.000558834 0.00135923)
(0.0230449 0.00119437 -0.00261234)
(0.0217954 0.000773951 0.00299483)
(0.0518619 -0.000789277 -0.00284065)
(0.134324 0.000777626 -0.000217939)
(0.14791 -0.000442768 -0.000331849)
(0.0376601 0.00331697 -0.00136225)
(0.10273 0.000319824 -0.000807323)
(0.0987024 -0.000678263 0.000212223)
(0.0633409 0.000395163 -0.00255517)
(0.124954 0.0129298 -0.0135725)
(0.0290899 0.00295337 -0.000465398)
(0.0641384 0.000814946 -0.00401356)
(0.118042 0.0174282 -0.00874952)
(0.160913 4.2237e-05 3.5466e-05)
(0.0979456 0.00108371 0.00114135)
(0.0518706 0.000583884 -0.00194083)
(0.1324 -9.9313e-05 0.000739175)
(0.0207464 -0.000299928 0.00100277)
(0.147016 0.00115978 0.000329804)
(0.188687 -0.000181915 0.000264286)
(0.170881 -0.000382763 0.000657829)
(0.158768 -0.000192146 0.000897832)
(0.169471 -0.000444994 0.000490904)
(0.132396 -0.0178452 0.00273668)
(0.0898151 0.00129977 -0.00305026)
(0.0281649 -0.000532027 0.00183842)
(0.138348 -0.0137847 -0.00115179)
(0.0898391 -0.0027567 0.0131417)
(0.182904 0.00042911 -7.35182e-05)
(0.186323 0.000203506 2.13508e-05)
(0.110755 0.00169975 0.00190613)
(0.0220496 0.00131046 -0.00151118)
(0.14787 -0.000213355 0.000553039)
(0.0996052 0.00119354 0.000279444)
(0.113873 -0.000614743 -0.00212374)
(0.107485 0.012822 -0.00897368)
(0.128501 -0.000386021 0.000344243)
(0.0374735 0.00259874 0.000122758)
(0.0969629 0.000524576 -0.00125937)
(0.0416911 -0.000828359 -0.00213675)
(0.187306 -0.000514506 0.000293353)
(0.0176572 0.000754155 0.00153928)
(0.124063 -0.00100964 -0.000591133)
(0.178487 0.000585615 0.00114178)
(0.141737 0.00206273 0.000440798)
(0.140304 -0.00552393 -0.00209605)
(0.117191 0.00183622 -0.00305476)
(0.0621278 -0.00100502 0.00173107)
(0.10521 -0.000616988 -0.00090528)
(0.101805 -0.000367284 -0.00083679)
(0.0329465 -0.00126512 2.12183e-05)
(0.16826 -0.000920251 0.00113547)
(0.154441 -0.000214019 0.00019203)
(0.0874121 -0.000167069 0.0021495)
(0.0175758 -0.000328415 0.00189338)
(0.111432 -0.000382158 -0.00022091)
(0.112296 0.00155402 -0.000130188)
(0.0808745 0.0012945 0.000252732)
(0.0180264 0.00215265 -0.00235148)
(0.0623063 0.0015605 -0.00316405)
(0.0642056 -0.00348566 -0.00216271)
(0.032857 -0.00134091 0.000321872)
(0.0235442 -0.000201275 -0.000457497)
(0.0974588 0.00182722 0.00237715)
(0.175572 -0.00011879 0.00107671)
(0.0589138 -0.00076765 0.000377)
(0.180973 0.00105118 -8.29462e-06)
(0.01865 -0.00116907 0.00213083)
(0.136476 -0.000577981 -0.000175944)
(0.0817566 0.00137328 0.00115995)
(0.0494811 0.000764319 -0.000757557)
(0.0610179 0.00158494 0.000761786)
(0.13603 -0.000271508 0.000525124)
(0.0473935 -0.00071602 0.000223436)
(0.134886 -0.00166772 -0.00551758)
(0.171714 -0.000409054 -0.000921088)
(0.149519 -0.0058384 -0.00365823)
(0.0642664 -0.000769121 0.00298828)
(0.0383998 -0.000117213 -0.000531551)
(0.146016 0.00234732 0.000647549)
(0.0313366 -0.00278126 -0.00127781)
(0.0268574 -0.000318897 -0.00210775)
(0.0613279 -0.00152832 0.000185123)
(0.181759 0.000329676 0.000703685)
(0.0561799 0.000306304 0.000682206)
(0.0332072 -0.000527733 -0.00260273)
(0.0214149 1.83927e-05 0.000289716)
(0.120231 0.000214006 -7.29972e-05)
(0.0977302 -0.00174246 -0.000139132)
(0.13527 -0.000518232 0.00273709)
(0.0489779 0.00300198 -4.05628e-05)
(0.164972 -0.00106939 -2.01404e-05)
(0.0538037 0.00196779 7.73285e-05)
(0.154712 -0.000119187 -0.000548943)
(0.0277645 -0.000248085 0.000768289)
(0.053848 0.000743404 -6.37665e-05)
(0.038048 -0.00107242 0.000271425)
(0.107282 0.00287669 0.00355788)
(0.154564 0.000686423 -0.000574446)
(0.0781219 -0.00274067 0.000287123)
(0.188189 -0.000537985 0.000340651)
(0.100079 -0.000796943 0.0008133)
(0.0181684 0.00196471 -0.00134378)
(0.126148 -0.000958439 -0.000513762)
(0.145112 0.000402829 0.000291347)
(0.184404 0.000423776 -9.83931e-05)
(0.154939 -0.00153548 -0.000686784)
(0.0214926 -0.000693036 0.000204306)
(0.111832 -0.00204416 -9.68267e-05)
(0.0476971 0.00337176 0.00301095)
(0.0235777 -0.00388562 -0.000641121)
(0.143281 0.000187142 -0.00147384)
(0.0527017 -0.00114614 0.000724958)
(0.113865 0.00150215 9.54071e-05)
(0.172457 4.17347e-05 -0.00035629)
(0.139732 0.00143668 0.000518578)
(0.157652 -0.0014645 0.000440498)
(0.0511966 0.00206761 -0.00274432)
(0.157198 -0.000143361 0.000808786)
(0.0521269 0.00199368 0.00185934)
(0.102787 0.000374992 0.000121458)
(0.16629 0.000687038 0.000949993)
(0.0366895 -0.000171613 0.000613855)
(0.171359 2.06172e-05 -0.000360564)
(0.173604 -0.000408922 -0.000549288)
(0.0264721 -0.000302726 0.00134443)
(0.0440146 0.00141526 -0.00208158)
(0.172461 0.000540035 0.000643141)
(0.0513676 0.000245867 -0.00390898)
(0.174078 -0.00060501 8.52487e-06)
(0.17444 0.000241528 -0.000393485)
(0.185984 0.000565195 0.000681281)
(0.0232989 -0.00181561 -0.00131631)
(0.0306723 0.000828723 -0.00146788)
(0.0319443 0.000862891 -0.00115585)
(0.0601022 0.000368623 5.96519e-05)
(0.0938861 -0.00112641 0.000641639)
(0.157565 0.00104906 0.00127637)
(0.0542284 -0.0012056 0.00149285)
(0.18797 -0.000247325 0.000554386)
(0.0190522 0.000336449 0.00281951)
(0.0515124 4.4853e-05 0.000881321)
(0.0230602 0.000136584 0.00255789)
(0.184265 0.000662383 0.000537859)
(0.0895023 -0.000538634 -0.000180801)
(0.146025 0.000266326 0.00105885)
(0.0621923 0.000976851 -0.00140096)
(0.170755 0.000140506 -0.000576808)
(0.102186 0.000335766 0.000494313)
(0.166716 -1.37444e-05 0.000101938)
(0.140296 -5.72014e-05 0.000671318)
(0.188915 0.000386736 0.000707689)
(0.144765 0.000735606 -0.000901658)
(0.147238 0.0011993 0.00105608)
(0.158887 3.72702e-05 0.000892143)
(0.0527278 4.11899e-05 -0.000255968)
(0.154348 0.00102284 0.00183782)
(0.0394207 -0.000402323 -0.00218806)
(0.0569577 0.000462225 0.00198744)
(0.128919 0.000827924 -0.00105709)
(0.163308 -0.000320086 0.00034556)
(0.112923 0.00316276 0.00157051)
(0.178685 0.00027043 0.000368579)
(0.0960018 0.000146674 0.00209343)
(0.0548443 0.00211301 -0.00150923)
(0.16088 -0.000161974 -0.00136813)
(0.0899256 0.00196155 0.000487313)
(0.0436875 -0.000733748 -0.000696516)
(0.0491548 0.000265004 -0.00142011)
(0.0957377 0.00106032 -0.00331563)
(0.174714 -0.000299829 -0.000217993)
(0.095843 -0.00242697 2.80695e-05)
(0.0898796 -0.00146835 0.000922525)
(0.166373 -0.00103185 -0.000565838)
(0.0898987 -0.000591967 0.00233594)
(0.0198037 0.0023756 -0.00133997)
(0.162749 0.000330105 0.00079696)
(0.0239599 0.00154292 -0.00206555)
(0.0382502 -0.0015657 0.00106114)
(0.184581 0.000479295 0.000893102)
(0.138823 0.000181508 -0.000394265)
(0.0237493 0.00255174 0.00253601)
(0.119081 0.000856526 0.000495084)
(0.122535 0.00246728 -3.00096e-05)
(0.168303 -0.00144628 0.00199815)
(0.18396 -0.000556704 0.000144405)
(0.0226704 0.00269099 0.000487955)
(0.183317 0.000567932 0.000349584)
(0.188193 1.14823e-05 8.26418e-05)
(0.175785 0.000174825 0.0007026)
(0.134583 0.00081013 0.000815316)
(0.137349 0.000958062 0.000660377)
(0.0930741 0.000514212 -0.000182228)
(0.173392 0.000770285 0.000253036)
(0.0266396 -0.000962206 -0.00122702)
(0.161915 -0.000253262 0.000502128)
(0.138994 -0.000406818 -0.000607194)
(0.187447 0.000187286 0.00025469)
(0.171521 0.000807873 0.000723548)
(0.115217 -0.000428324 0.000624976)
(0.0565842 0.000894097 0.00125802)
(0.0217279 -0.000331911 0.00150577)
(0.026863 -0.000653281 0.000442947)
(0.164597 -0.00101387 -0.000953508)
(0.0193006 -0.00112031 0.00278232)
(0.061185 -0.000338623 -0.00107976)
(0.0499375 0.00277892 0.00110059)
(0.169873 0.00079883 0.000844513)
(0.176613 -0.000465752 -0.000260857)
(0.155005 -4.35597e-05 -0.000855604)
(0.0566792 0.000103836 -0.00128695)
(0.101288 0.00161654 -0.00241529)
(0.038174 -0.00318954 0.00257404)
(0.0539558 0.00129931 0.00108295)
(0.159195 0.000932359 4.10358e-06)
(0.0959186 0.000999577 -0.000926652)
(0.107733 0.0123499 0.00350379)
(0.0883267 -0.001904 0.000912945)
(0.0408691 -0.000164938 -0.000383363)
(0.0617116 -0.000911095 0.00198823)
(0.106281 -0.000995569 -0.00163714)
(0.178832 -4.00854e-05 -0.000434521)
(0.186891 -0.000891817 0.000884994)
(0.187692 0.000225534 0.00102827)
(0.162933 -0.00129168 0.000392905)
(0.096933 0.00383551 0.0046386)
(0.125774 0.000642376 0.000847988)
(0.168791 0.000831834 0.00102739)
(0.162226 -0.000831445 0.000116259)
(0.165038 -0.000835376 0.000748442)
(0.054753 0.00114023 -0.00329732)
(0.0212123 -0.00141176 -0.00249006)
(0.150802 -0.00138772 0.000247648)
(0.0376787 -0.00183779 0.0020729)
(0.0300822 0.000101295 4.97749e-05)
(0.162896 0.000504408 0.00178938)
(0.145442 -0.000156054 0.000401431)
(0.0596292 -0.00127351 -0.00302596)
(0.17619 -0.000709304 0.000356649)
(0.168234 -0.000913826 0.000451471)
(0.186504 -0.000602894 -0.000419906)
(0.176834 -0.00128354 -0.000354625)
(0.0311649 0.00150298 5.59158e-05)
(0.160407 -0.000271537 6.86008e-05)
(0.180496 -0.000754995 0.000640034)
(0.0553971 0.000127001 0.000817652)
(0.185211 1.03472e-05 0.00105585)
(0.178481 -0.000256081 0.00038611)
(0.130468 -3.64573e-06 -0.000868243)
(0.121765 0.000224656 -0.00101718)
(0.152828 -0.00118256 0.00155942)
(0.142998 -0.00119444 0.000329357)
(0.0675901 -0.000347724 -0.000148766)
(0.0302816 0.0012745 -0.000979787)
(0.0333198 -0.00247277 -0.00017099)
(0.0924154 0.000460562 -0.000297608)
(0.0862512 -0.00679264 0.0106279)
(0.0746063 -0.00420384 -0.00608559)
(0.0808567 0.000386943 0.00039425)
(0.112952 8.02895e-05 0.00203335)
(0.130769 0.000163196 0.000944609)
(0.159578 -0.00161679 0.00420486)
(0.157674 -0.000767842 0.000867075)
(0.130934 -0.000846493 -0.000457691)
(0.149266 -9.69153e-05 0.00059503)
(0.149909 0.000815614 0.000338672)
(0.0298565 -0.000928697 -0.00032843)
(0.113925 -0.02247 0.00276155)
(0.0560527 0.00141619 0.000456869)
(0.0392661 -0.00174155 -0.000397432)
(0.0396305 0.000857318 0.000311581)
(0.163045 -0.000642363 -0.000435764)
(0.0918749 -0.000571731 -2.11809e-05)
(0.161822 0.000578394 -0.0012298)
(0.01885 0.00101697 -0.00161741)
(0.125179 -0.000382992 0.000329372)
(0.0424223 0.000992994 -0.000833145)
(0.1673 -0.000215542 -7.84915e-05)
(0.0458097 -0.00062201 -0.000484786)
(0.0598548 -0.00141022 0.00112259)
(0.103508 -0.00277842 0.000795177)
(0.151973 -0.00122 0.00109573)
(0.0185044 0.00146259 -0.00200343)
(0.052331 -0.000586076 0.00215465)
(0.132341 -0.000225474 0.000557018)
(0.0220296 -0.00136924 -0.00177621)
(0.13085 0.00130734 0.00952587)
(0.11427 -0.000834364 0.00260456)
(0.130828 -0.000545621 -0.00208687)
(0.092357 0.00203828 -0.00287984)
(0.0859608 -0.00123363 0.00208282)
(0.163276 0.00047242 0.000204538)
(0.077189 -0.00791497 -0.00718636)
(0.186895 9.12841e-05 6.45373e-05)
(0.111385 0.00864871 0.00903109)
(0.057219 -0.0026336 0.000354166)
(0.0604936 -0.000436399 -0.00139813)
(0.18314 1.44494e-05 0.000277626)
(0.182395 0.000242552 0.00036853)
(0.0503849 -0.000505456 0.000609697)
(0.132119 0.000369816 -0.000609662)
(0.0953081 -0.000463321 -0.00223088)
(0.183919 0.000253793 0.000473419)
(0.183162 -0.000213129 0.000956807)
(0.0435185 0.00128619 -0.00331827)
(0.13159 -0.00112427 0.000199722)
(0.145439 -0.00180785 0.00164897)
(0.148039 0.000643292 -0.000620987)
(0.157423 0.000790087 0.000547953)
(0.0204349 -0.000709531 -0.00257081)
(0.0200149 0.00099309 -0.00250971)
(0.12556 0.00116493 -0.00164886)
(0.178931 -4.88527e-05 -0.000113581)
(0.185238 -0.0013863 -0.000645409)
(0.0327856 0.000346363 -0.00245133)
(0.171609 -0.00166285 0.000284894)
(0.104517 -0.00101819 -0.000854592)
(0.179066 -0.000220913 6.10083e-05)
(0.179671 -0.000153882 0.00103005)
(0.185228 8.63239e-05 -0.00056239)
(0.176288 0.00062665 0.000707509)
(0.174994 0.00152931 0.000493564)
(0.0861909 0.000538719 0.000299251)
(0.182806 0.000593253 -0.00018457)
(0.0539279 -0.00102244 -0.00259195)
(0.16941 0.000115671 -0.000538837)
(0.10704 -0.000398569 -0.00105387)
(0.154295 0.000364076 0.00101102)
(0.178452 0.000158401 -0.000185264)
(0.149103 -0.000417757 0.000141984)
(0.145014 0.000118531 -0.00134825)
(0.0384296 0.00220094 0.00206962)
(0.0322024 0.000835488 0.000245043)
(0.0200024 0.00173606 -0.00197706)
(0.153304 0.00424105 0.00757744)
(0.191169 -9.52365e-05 -0.000256577)
(0.139428 -0.000718743 0.000683537)
(0.124954 0.000893075 7.7691e-05)
(0.0292379 -0.000101283 0.00111103)
(0.0224134 -0.000358354 0.00257158)
(0.112156 -0.000606516 0.00165911)
(0.15384 -1.51799e-05 0.0014434)
(0.178962 -0.000401536 0.000747664)
(0.154963 0.000470545 0.000267449)
(0.134206 -0.00116483 -0.000750134)
(0.190246 4.77559e-05 0.00035048)
(0.133354 0.000678244 0.00102142)
(0.0250614 -0.000500186 0.00234856)
(0.120994 -0.000188158 0.000873786)
(0.0549245 0.000519387 0.00287131)
(0.0704791 -0.00704495 0.00150993)
(0.155197 0.000320747 0.000567782)
(0.0906573 0.000563926 -0.000107376)
(0.146652 -0.00015487 0.000222862)
(0.0194072 -0.00366114 -0.00132275)
(0.182853 0.00028499 -0.000519176)
(0.183824 -0.000174625 -0.000199411)
(0.181303 9.59583e-05 0.00066048)
(0.088912 0.000907821 8.11942e-05)
(0.154175 -0.000907173 0.00169733)
(0.176359 7.16065e-05 0.00057345)
(0.11973 0.000446884 0.000211591)
(0.185857 0.000549646 0.000190823)
(0.0976668 0.00406724 -0.00340668)
(0.173485 0.000314719 -0.000339928)
(0.148896 -0.00290221 -0.000413085)
(0.0194144 -0.00124031 0.00139761)
(0.182358 0.000206673 0.00011322)
(0.115077 0.00224792 8.88756e-05)
(0.0438132 -0.00127818 0.00364066)
(0.0885098 0.000852669 -0.00154352)
(0.169713 0.000120637 -0.000119207)
(0.127142 -0.00042863 0.00110363)
(0.0815505 0.000219261 -0.00230627)
(0.0192352 -0.00175592 -0.00190238)
(0.177393 1.02053e-05 -0.000245124)
(0.123021 0.0016652 -0.00185357)
(0.162197 -0.000422561 -0.000668555)
(0.12246 -3.09009e-05 0.000787744)
(0.0348267 0.00160188 0.00154141)
(0.14067 2.40637e-05 -0.000292839)
(0.0257305 0.00207953 -0.00331923)
(0.164559 0.000197178 -0.000804211)
(0.10228 0.0113993 -0.0036512)
(0.17085 -0.00144392 -0.000737165)
(0.0489527 3.31298e-05 0.0017309)
(0.10349 -0.0011916 -0.00158967)
(0.0924201 9.11024e-05 -0.0012016)
(0.0328691 0.00185109 0.00169583)
(0.188054 5.19212e-05 0.000163802)
(0.175701 -0.000365284 0.000616192)
(0.0205522 0.000709354 0.00200989)
(0.163897 0.000278687 0.000379413)
(0.187419 0.000520921 0.000591789)
(0.0350545 -8.53258e-05 -0.00212966)
(0.0587335 0.00259085 -9.06049e-05)
(0.0510465 0.00190574 0.00132799)
(0.154924 -0.000158785 0.000676992)
(0.182966 -9.62404e-05 0.000449307)
(0.0324171 -0.000867571 0.00148727)
(0.0509246 -0.0017021 -0.000550468)
(0.0537186 0.00106676 -8.31027e-05)
(0.112906 0.00154809 0.000423525)
(0.184847 0.000138436 0.000580416)
(0.0219267 0.00119443 -0.00285939)
(0.160376 -0.000528643 0.000764042)
(0.151943 0.00386272 -0.000716843)
(0.183222 -0.000495307 0.000988691)
(0.0900997 0.00386701 -0.00372735)
(0.170137 0.000396617 0.000301572)
(0.0213427 -0.000275811 -0.00232534)
(0.165443 -0.00104241 -0.000537535)
(0.025612 -0.000377552 -4.82216e-05)
(0.0585295 -0.00159228 0.000839993)
(0.154977 -0.00127184 8.35188e-05)
(0.0575425 -0.00171876 -0.000583515)
(0.0191864 0.00224 0.00198728)
(0.0345906 0.000685885 -0.00109537)
(0.0426667 -0.00230657 0.00158544)
(0.0557471 0.00112341 -0.00160735)
(0.146074 0.000126925 -0.000840059)
(0.0475845 -0.00109359 5.39682e-05)
(0.0562921 0.00183033 -0.000968611)
(0.128244 -0.0071452 -0.0138069)
(0.172939 2.95412e-05 0.000507542)
(0.0224526 0.00143947 0.000261904)
(0.104398 0.000347227 -0.001106)
(0.0812687 0.00886893 -0.00350892)
(0.174126 -0.000194103 -0.000289868)
(0.0557924 -8.54969e-05 -0.00137434)
(0.168625 8.88012e-05 0.00117247)
(0.0544189 -0.00220098 -0.00163831)
(0.121319 0.000725573 0.000591319)
(0.180306 -0.000217794 -0.000862992)
(0.0479883 0.00210414 -0.00431055)
(0.178549 5.91633e-05 -0.000188142)
(0.0475046 0.00225108 0.00240633)
(0.0178658 0.00271935 0.00101727)
(0.146096 0.00084535 -0.000489363)
(0.183097 -0.000293698 8.73399e-05)
(0.12809 0.00103338 -0.000479089)
(0.12325 0.00162689 -0.000821253)
(0.182483 -0.000798084 2.01878e-05)
(0.0577251 0.00170814 -0.000250577)
(0.169839 -0.000733828 0.000351908)
(0.0541755 -0.00174615 0.00231691)
(0.177732 0.000153456 0.000164863)
(0.124276 -0.00139032 -0.00135293)
(0.0262027 0.000674967 -0.00363663)
(0.154269 0.000859497 -0.000974224)
(0.0491489 4.00754e-05 0.00156327)
(0.0243357 -0.00172739 -0.00181922)
(0.147961 -0.00138933 -0.000465733)
(0.0406734 -0.00116915 0.00103758)
(0.13709 3.64177e-05 4.54859e-06)
(0.183382 -0.000378729 0.000970354)
(0.129932 0.000264194 0.000184891)
(0.05096 -0.00229371 -0.00250071)
(0.182819 0.000986691 0.000378732)
(0.0868188 -0.00133745 0.00124848)
(0.189792 0.000189787 7.48339e-05)
(0.18424 -0.000108924 0.000515163)
(0.184463 -0.000254066 0.00102949)
(0.182437 -0.000479488 -0.000362991)
(0.0414498 -0.00233724 -0.00198329)
(0.0488039 0.000302458 -0.000412866)
(0.181122 -0.000778359 -0.000197432)
(0.163355 0.00014424 0.00170283)
(0.0296038 -0.00215601 -0.000974832)
(0.16317 -0.000276569 0.000708061)
(0.184059 6.24726e-05 0.00036532)
(0.179601 -0.000371693 -0.000316561)
(0.18515 -0.000693003 -0.000221023)
(0.113411 8.00932e-05 -0.00181123)
(0.0199815 0.00203268 0.0017337)
(0.180448 0.000486794 -0.000181018)
(0.0973188 -0.000902301 -0.00113901)
(0.152413 0.00101486 0.000721049)
(0.092725 0.000346591 -0.000143542)
(0.0271543 0.00192195 -9.00092e-05)
(0.185157 -5.79012e-05 0.00056939)
(0.0883637 0.00232947 0.00239349)
(0.131355 7.92079e-05 0.000229839)
(0.188 -0.000332946 -1.67434e-05)
(0.140551 -0.00160422 -8.01091e-05)
(0.016094 0.00149051 -0.00188447)
(0.0204366 -0.00127391 -0.00198971)
(0.179661 0.00059638 0.000211243)
(0.171122 -0.00115781 -0.000901041)
(0.188407 0.000142293 0.0011607)
(0.153532 -0.000524099 0.00130888)
(0.0888794 -0.00137473 0.000575576)
(0.149461 -0.00102312 -0.000599773)
(0.178841 0.000244613 0.000925221)
(0.0187384 0.00166086 0.000401833)
(0.181995 0.000687012 0.000538004)
(0.135017 -0.0151447 -0.000447281)
(0.0346972 -0.000573227 0.0018617)
(0.051747 -0.00331128 0.000827067)
(0.1434 -3.87012e-05 -0.000936251)
(0.139779 -0.00157431 0.00104072)
(0.136563 0.00041643 -0.000188757)
(0.121383 -0.000665413 0.000666004)
(0.101483 -0.00346799 0.00115036)
(0.187168 -1.68721e-06 0.000233396)
(0.0946182 0.000892676 -0.00294635)
(0.178563 0.000448691 -0.000191281)
(0.174369 0.0010233 5.03114e-05)
(0.189716 -8.64645e-05 0.000213968)
(0.178268 -0.000179536 0.000181537)
(0.037334 -0.000318877 0.00186239)
(0.165481 -0.000133348 1.22547e-06)
(0.0301838 0.000941236 -0.00122948)
(0.0944306 -0.00919685 0.00542615)
(0.0566054 0.00186473 0.00149529)
(0.12725 -0.00253463 -0.0130755)
(0.12872 -0.000641384 -0.000763628)
(0.11747 -0.0190748 -0.00424861)
(0.173487 0.000348199 -0.000511502)
(0.178249 -0.000583767 -0.000270807)
(0.154814 0.00146648 -1.39272e-05)
(0.174238 -0.00039165 0.000549868)
(0.0309663 0.000259209 -0.000565891)
(0.100941 -0.00378866 -0.00254188)
(0.112494 -0.00209927 -0.0160182)
(0.180181 0.000226429 0.000215467)
(0.109182 -0.00222492 -0.000617094)
(0.136942 -0.0135608 -0.00477503)
(0.157219 -0.00395884 0.00453878)
(0.107923 0.000850589 0.000926986)
(0.0325083 -0.000651077 0.00118365)
(0.0505469 -0.0024919 0.00137177)
(0.0224293 0.0001032 -0.000206439)
(0.0212394 0.000169291 -0.00162391)
(0.0318387 -6.46094e-05 0.000150846)
(0.133617 -0.00969077 0.00555131)
(0.137915 -0.000629538 0.00084921)
(0.0215663 -0.000764002 0.00299299)
(0.0204536 0.00146555 0.00225198)
(0.189319 0.000156602 -0.000218505)
(0.096141 -0.0126305 0.00858023)
(0.0343114 0.00148219 0.000537782)
(0.147536 0.00019032 -0.000628201)
(0.102421 -0.00114818 -0.00139741)
(0.132855 0.000244768 0.00124597)
(0.038508 0.00201193 -0.00108247)
(0.050894 0.00158042 -0.00061598)
(0.108397 -0.00123353 3.53488e-05)
(0.172449 5.48549e-06 -0.000912949)
(0.15256 -0.000145243 -0.000778785)
(0.0325831 0.00270429 -0.000917519)
(0.0219099 -0.00171389 0.00103214)
(0.106234 -0.015181 -0.0112675)
(0.023411 -0.00304768 0.000152643)
(0.133096 -0.00076552 -0.00101837)
(0.0246089 0.0013743 -0.00304294)
(0.100976 -0.000476753 0.0021177)
(0.179723 -0.00117194 4.52784e-05)
(0.179437 -0.000338836 0.00116789)
(0.0401028 0.000601389 -0.000751889)
(0.0949035 -0.000241198 -0.00103417)
(0.0322717 0.00118362 -0.00136374)
(0.0253937 0.00300342 -0.00108822)
(0.180777 -0.00062122 -0.000534654)
(0.0172627 -0.00146556 -0.00221346)
(0.167728 -0.000376725 -0.000588718)
(0.0440139 0.00101925 -0.00208069)
(0.156029 -0.00132121 -0.00023639)
(0.140762 -0.000773723 -0.00016706)
(0.0197963 -0.000522839 0.00314691)
(0.0527391 -0.00262035 0.000248184)
(0.148759 0.000487207 0.00064244)
(0.031211 -0.00151647 4.22814e-05)
(0.161496 0.000138248 -0.000526978)
(0.0498167 -0.00199809 0.0031011)
(0.104836 0.000243933 -1.3836e-06)
(0.184688 -0.000563336 -1.26306e-05)
(0.0330793 0.000985788 0.000690051)
(0.0214668 0.000916811 -0.00277252)
(0.0463269 0.000922452 -0.000397914)
(0.110796 0.0173826 0.00373505)
(0.100799 0.00036076 0.000463016)
(0.0517667 -0.00242802 0.00249924)
(0.0806959 0.000351001 0.00112379)
(0.0276817 -0.00105705 0.000654859)
(0.186005 -0.000741492 -0.000317692)
(0.021348 -0.000344815 -0.00163336)
(0.170888 -0.000387984 -0.000718801)
(0.144068 0.000146814 0.000106765)
(0.169228 0.000243407 -0.000577068)
(0.0175937 0.00174419 5.54806e-05)
(0.151072 0.000256678 0.000442581)
(0.0793609 0.000927065 0.000278323)
(0.158184 -5.55333e-05 6.87898e-05)
(0.050343 -0.000567544 -0.000220665)
(0.108167 -0.0130075 0.00668685)
(0.160354 -0.0012272 -0.000507289)
(0.0361638 0.000421094 -0.000433726)
(0.190046 0.000211964 0.000394057)
(0.10887 0.00201263 -0.0204991)
(0.115653 0.000329352 -0.000820288)
(0.0299468 0.000778997 -0.00164893)
(0.0463007 -0.000452437 -0.00252029)
(0.183784 -0.000334636 -0.000159287)
(0.130632 0.00127846 0.000614904)
(0.0291775 0.00147625 0.000596418)
(0.107198 0.00140903 -0.00167629)
(0.0564708 -0.000474232 -0.00172519)
(0.0221555 -0.00192238 0.00131055)
(0.180732 -7.60601e-05 -0.00045684)
(0.103343 -0.00128167 0.0100313)
(0.129001 0.0013784 -0.00189979)
(0.174725 -0.000567682 -7.92617e-05)
(0.178783 -0.000463606 0.000698592)
(0.170551 -0.00033052 3.2829e-05)
(0.130932 0.000777373 -0.000258627)
(0.0397271 0.00102766 0.000343443)
(0.0364567 -0.00176691 -0.00176154)
(0.183269 -0.000142781 0.00063959)
(0.107584 -0.00938473 0.00872259)
(0.118963 -0.00105639 0.000489662)
(0.126131 -0.00171043 0.000925838)
(0.0774524 0.00188118 0.000832207)
(0.14783 -0.000378214 0.00151293)
(0.164206 -0.000627165 -0.00096673)
(0.0957114 -0.000278441 -0.00129323)
(0.100785 0.00182167 0.000494877)
(0.0354656 0.000521229 -0.00228062)
(0.0676911 0.000482039 -0.000325554)
(0.039376 -0.00101427 -0.0029466)
(0.151571 -0.000942292 0.000968739)
(0.17634 -0.000390998 -0.00030298)
(0.0903885 0.00182654 -0.00210303)
(0.0952024 0.000763047 -0.000620833)
(0.0190969 0.00196733 -0.00039626)
(0.0753803 -0.00032632 -0.000685721)
(0.0539847 -0.00182288 -0.00230682)
(0.177495 -9.22965e-05 -0.00101501)
(0.179685 -0.00104742 -0.000386323)
(0.104823 -0.00956452 0.00605223)
(0.163761 -0.000311785 0.00114904)
(0.0779421 -0.00227565 -0.00190356)
(0.101708 -0.00254942 0.00793962)
(0.131512 -0.00157522 0.0016957)
(0.0235893 -0.00181286 -0.000169084)
(0.17972 -0.000789438 0.000191139)
(0.0461792 0.00129678 -7.38712e-05)
(0.138699 -0.000246084 0.00135557)
(0.0257788 0.00368158 -0.000289272)
(0.176308 0.000119868 -0.000691403)
(0.101647 -0.00432785 0.00266277)
(0.158408 -0.000679451 -0.000260271)
(0.112564 0.000387683 0.000553748)
(0.146128 -0.000115584 0.000889933)
(0.149444 0.00129067 0.000354327)
(0.1869 0.000561913 0.000324871)
(0.0316211 -0.00192517 -1.87503e-05)
(0.0437309 0.00059828 -0.00093393)
(0.0264093 -0.000689401 -0.000216746)
(0.178447 -0.000372989 0.00071937)
(0.157622 0.000278032 -0.000478597)
(0.135236 0.00165611 -0.000136487)
(0.15994 0.000546588 -0.00141437)
(0.0191831 0.00035024 0.000502011)
(0.0947898 -0.000243405 -0.000223331)
(0.0855901 0.00099154 -0.00186577)
(0.177818 -0.000283152 -0.000562809)
(0.124827 -0.000890053 -0.000247416)
(0.145195 -4.03699e-05 -0.000567989)
(0.102966 -0.000327779 0.00130299)
(0.182564 -0.000197548 -0.000224906)
(0.0189023 -0.00218336 -0.00229563)
(0.081624 -0.00333768 0.000441362)
(0.152536 -0.000415043 0.00052801)
(0.0237131 -0.0021637 0.00184841)
(0.0414299 -0.000769568 -0.00194892)
(0.058044 -0.000945321 0.000629043)
(0.0196556 0.00121318 -0.00208102)
(0.0913298 0.000487486 -0.00129182)
(0.170225 0.000220233 -0.000253801)
(0.0565861 -0.00164481 -0.00158471)
(0.0174585 -0.00226314 -0.00166085)
(0.100929 0.000388662 -0.000799704)
(0.0236915 0.000145889 0.000355927)
(0.0950219 0.00120175 -0.00067639)
(0.175428 0.000113664 0.000142157)
(0.189052 -8.79708e-05 -0.000123313)
(0.174774 -0.000283473 -5.69695e-05)
(0.164819 0.000835286 -2.79498e-05)
(0.17674 -0.000178198 0.000138506)
(0.128101 0.000511979 0.00212972)
(0.0432354 0.000832468 -0.00110548)
(0.177403 0.000530173 0.000420335)
(0.121587 -0.000310474 0.000979411)
(0.0844991 0.000540021 -0.00165808)
(0.0928912 -0.000950464 0.00132802)
(0.164487 -0.00019387 0.000345616)
(0.11268 -0.00123861 -0.000690983)
(0.0616533 5.08036e-05 0.00163044)
(0.154772 0.000856662 0.00133833)
(0.0307353 0.00114237 0.000518699)
(0.0836994 2.71523e-05 0.000636897)
(0.0928671 -0.000285864 0.000182404)
(0.0573373 0.000348482 0.000955899)
(0.161063 4.57195e-05 -0.000159714)
(0.106006 -0.0126005 0.0134345)
(0.127212 0.00811394 0.00528943)
(0.0299964 0.000569001 -0.00261032)
(0.0242873 -0.00154132 0.000786604)
(0.0526822 0.00197987 -0.00104462)
(0.0188213 -0.00120653 -0.00151117)
(0.124542 0.000591659 -0.000644589)
(0.154325 0.000678494 -0.000992949)
(0.126824 0.00171322 0.000315938)
(0.110213 0.0101066 -0.0115947)
(0.132594 -0.000187637 0.000280446)
(0.146708 0.000365789 -0.000721564)
(0.023188 -0.0019468 0.0044414)
(0.157834 0.000704294 -0.000220464)
(0.127576 -0.00406562 0.0125243)
(0.0409427 0.000756917 -0.00105571)
(0.0202672 -0.00341708 0.000658972)
(0.112442 0.000374806 0.000502625)
(0.105503 -0.00138583 -0.000649237)
(0.0237733 -0.00164621 0.00266942)