/*--------------------------------*- C++ -*----------------------------------*\
| =========                 |                                                 |
| \\      /  F ield         | OpenFOAM: The Open Source CFD Toolbox           |
|  \\    /   O peration     | Version:  2406                                  |
|   \\  /    A nd           | Website:  www.openfoam.com                      |
|    \\/     M anipulation  |                                                 |
\*---------------------------------------------------------------------------*/
FoamFile
{
    version     2.0;
    format      ascii;
    arch        "LSB;label=32;scalar=64";
    class       volScalarField;
    location    "36";
    object      epsilon;
}
// * * * * * * * * * * * * * * * * * * * * * * * * * * * * * * * * * * * * * //

dimensions      [0 2 -3 0 0 0 0];

internalField   nonuniform List<scalar> 
59516
(
0.0143028
0.0136842
0.0110758
0.0103494
0.00939064
0.345258
0.00978828
0.013219
0.0119067
0.0285572
0.0081026
0.0282583
0.0113229
0.0889712
0.0245539
0.0286169
0.00703602
0.0395592
0.0148643
0.00681907
0.0357534
0.00793769
0.00744297
0.039583
0.00696325
0.0220877
0.0389891
0.0456415
0.0254287
0.0682279
0.0458979
0.0409738
0.00911843
0.0122692
0.0103391
0.0077836
0.065355
0.0452502
0.0181321
0.00711636
0.0134464
0.0101593
0.00861376
0.0150222
0.00867844
0.0292504
0.0105236
0.00748736
0.0127081
0.00911718
0.0271314
0.0323403
0.010474
0.0102911
0.0297984
0.0110259
0.0101241
0.0340483
0.00706236
0.0120581
0.00793879
0.0520026
0.00740662
0.00731845
0.0102077
0.00902038
0.0654956
0.032373
0.0201325
0.00974419
0.0316897
0.00752925
0.0514576
0.0088043
0.00660809
0.00758927
0.00740543
0.00806204
0.0298834
0.00913819
0.0376233
0.00948185
0.0102689
0.0572558
0.00962415
0.0067914
0.0400308
0.00749744
0.0269109
0.0264199
0.0102532
0.00931981
0.00655036
0.00947845
0.00776576
0.0107386
0.00907953
0.0298657
0.0323601
0.00820077
0.0325183
0.0501789
0.0498199
0.0264735
0.00924486
0.00875707
0.0370321
0.0130663
0.0140022
0.0214803
0.0200923
0.0277745
0.023464
0.0303392
0.00709212
0.0157046
0.0255304
0.00982221
0.0480381
0.00815993
0.00677497
0.00764431
0.00724974
0.00757048
0.0157349
0.0206078
0.0479168
0.0131784
0.0819394
0.00653823
0.00666117
0.0119715
0.0485392
0.00741879
0.0137423
0.0109016
0.0369735
0.00875637
0.0342915
0.0154263
0.0307063
0.0065466
0.0653172
0.0105857
0.00704715
0.00824003
0.00925368
0.0122055
0.253079
0.0123391
0.014612
0.0371293
0.00654903
0.00734433
0.0166201
0.0736256
0.0113611
0.0110146
0.0191713
0.0632702
0.0221755
0.0209418
0.0404176
0.0748407
0.0146446
0.00670751
0.0228029
0.00666206
0.0573033
0.00978128
0.0184333
0.0315909
0.02015
0.00887519
0.0298378
0.010585
0.00743466
0.00864199
0.0206779
0.0390598
0.00779424
0.0472388
0.0645528
0.0252661
0.00664687
0.0273076
0.0408286
0.0589474
0.0104539
0.0147015
0.00966259
0.0296402
0.00691903
0.0260403
0.00710465
0.0458805
0.0289345
0.0365513
0.0129409
0.00714251
0.020203
0.00686262
0.0132996
0.0622629
0.00966944
0.0081605
0.00653843
0.00836702
0.0630704
0.0119123
0.0326124
0.063136
0.00844193
0.0276926
0.011626
0.00679817
0.00840802
0.00692276
0.0285897
0.00750412
0.0288723
0.0131654
0.00756016
0.0336393
0.00714098
0.00709535
0.0330045
0.0296654
0.00686628
0.0268864
0.00669515
0.0070172
0.00687426
0.040501
0.041425
0.0378289
0.0261629
0.0136269
0.00764524
0.0310143
0.00659523
0.0584041
0.0284577
0.0512751
0.00664303
0.0164693
0.00824348
0.0206199
0.0065104
0.0131766
0.00677357
0.00861208
0.00666954
0.00833686
0.00806836
0.00706329
0.030112
0.00779476
0.0298606
0.0245859
0.00950381
0.00712856
0.0117537
0.00652566
0.014929
0.0280062
0.00741257
0.0164161
0.0267041
0.0306979
0.0161065
0.00712879
0.0135273
0.0161671
0.00691203
0.0160962
0.0475984
0.00690504
0.0374565
0.0323633
0.00688783
0.00884325
0.0448558
0.0111204
0.0102613
0.00711825
0.00668264
0.0462948
0.00686304
0.00701075
0.00714848
0.009536
0.00942642
0.0153754
0.00666609
0.0284992
0.00743053
0.00795456
0.00681413
0.00715797
0.0107928
0.0256235
0.0487646
0.0283801
0.00660247
0.0608365
0.0197432
0.0308762
0.00682766
0.0062207
0.00696545
0.0258088
0.013698
0.0347035
0.0330631
0.00780659
0.0149148
0.0117704
0.0172081
0.0352725
0.0227296
0.0135524
0.006893
0.0067696
0.0068927
0.00706303
0.0210968
0.00995732
0.00749343
0.00755577
0.00694226
0.0257037
0.050324
0.00805213
0.0299541
0.0409532
0.00732905
0.00846939
0.0312428
0.00714364
0.00675215
0.00683242
0.00706511
0.0379104
0.00727503
0.00729426
0.0284897
0.00688852
0.00728332
0.00974302
0.0102443
0.00792048
0.00799182
0.02391
0.046103
0.0340213
0.0149037
0.0529249
0.0972429
0.0209689
0.0121796
0.00911883
0.0078951
0.00706017
0.00919165
0.00809728
0.00838844
0.0394255
0.0361204
0.0284862
0.0338448
0.0351249
0.0077304
0.0150884
0.007372
0.054897
0.0100603
0.0346845
0.00732534
0.0341156
0.0238062
0.0125873
0.00820867
0.0580019
0.0261962
0.00937559
0.0445784
0.0134584
0.0121843
0.00880464
0.0160321
0.0162564
0.00712581
0.0678065
0.00689392
0.0286589
0.0223084
0.0228151
0.00684238
0.00656076
0.030954
0.00903796
0.0154876
0.00676889
0.00678496
0.0269352
0.00995716
0.00798772
0.00793289
0.00744448
0.0484266
0.0502946
0.00941255
0.00676324
0.00672504
0.0374361
0.00747889
0.0120309
0.00722053
0.0067536
0.00662335
0.0070655
0.00702964
0.0165673
0.00704894
0.023283
0.0073183
0.013219
0.00805825
0.00705817
0.00802176
0.00862612
0.0332193
0.0408341
0.052865
0.00892483
0.00622372
0.00918479
0.00971711
0.0411728
0.053804
0.011945
0.00827323
0.00700297
0.00739504
0.00843802
0.00648238
0.00853188
0.037505
0.0104006
0.0274082
0.115367
0.00787481
0.0149135
0.00847207
0.0567732
0.00671814
0.00675245
0.00716895
0.0169154
0.00822456
0.00708271
0.0108915
0.00711934
0.0180691
0.00701277
0.00792611
0.0507661
0.00676971
0.0115207
0.0282224
0.0157516
0.00695891
0.00975529
0.0196772
0.05355
0.00664781
0.00962402
0.00711128
0.00997132
0.0363239
0.00854126
0.0603724
0.00743364
0.0169997
0.00723929
0.0262063
0.0132653
0.0149594
0.0365852
0.00680509
0.00743468
0.059716
0.00721458
0.00695676
0.0354524
0.023456
0.0253832
0.00779231
0.00714503
0.0890264
0.0293035
0.0277263
0.0123101
0.00704175
0.0458416
0.00709769
0.00788805
0.00689176
0.114218
0.00660302
0.0422312
0.006966
0.0521421
0.0257369
0.00799627
0.0253851
0.055231
0.0380463
0.0263044
0.0278367
0.00765226
0.0313722
0.0231249
0.0126757
0.00736259
0.0346258
0.0123509
0.0684199
0.00674488
0.0298748
0.0077596
0.0287019
0.0107082
0.00703179
0.0276496
0.00689099
0.0552767
0.0664359
0.00776998
0.00683891
0.00993043
0.0102984
0.0065525
0.0255287
0.00671916
0.0250621
0.0071507
0.00996172
0.0363055
0.00717491
0.0267913
0.0360523
0.00773192
0.0346785
0.0090844
0.00694436
0.00953897
0.0261424
0.0065238
0.0178896
0.0063098
0.00644743
0.00675787
0.00689968
0.0319735
0.0295851
0.006788
0.00723324
0.0443023
0.00740142
0.0061832
0.00636818
0.00642602
0.0112304
0.0570727
0.00638047
0.0140849
0.00811451
0.0143472
0.0329198
0.00704409
0.0172556
0.00851878
0.0065143
0.00859089
0.0664472
0.0507614
0.00706604
0.00752485
0.00695768
0.00852987
0.0173151
0.00847033
0.00697136
0.0447395
0.00706857
0.0142034
0.0362845
0.0235498
0.00780072
0.00848876
0.00905752
0.0103514
0.0140175
0.00676388
0.0161785
0.00664099
0.00695738
0.00638403
0.00687356
0.0334553
0.00699277
0.0439615
0.0950475
0.0247319
0.0111488
0.00899671
0.0301212
0.00729103
0.006268
0.00746876
0.00697176
0.0394902
0.0104376
0.0143694
0.00698453
0.0120681
0.013065
0.0081412
0.0119262
0.0347693
0.0298883
0.0328294
0.0571878
0.0364232
0.0123131
0.00897926
0.0634269
0.0549751
0.00690616
0.0659362
0.0386083
0.00841665
0.0126104
0.00948892
0.038058
0.0285511
0.0122759
0.00707116
0.00784056
0.0409427
0.0424732
0.0596377
0.0434622
0.00880406
0.0413558
0.014104
0.00707645
0.00623879
0.0327747
0.0145022
0.0399672
0.0451925
0.0070537
0.0628116
0.00741651
0.0273748
0.00775332
0.00875772
0.05448
0.0277724
0.0081189
0.0366961
0.00776349
0.0303283
0.0130426
0.00695198
0.0370755
0.0502032
0.0283894
0.0190988
0.0139898
0.0299393
0.019846
0.0484385
0.00697673
0.0364655
0.00647301
0.00783129
0.0073087
0.0643003
0.00743213
0.0176784
0.00740208
0.0314842
0.0141361
0.00685262
0.0361854
0.00673741
0.0295363
0.010371
0.0427266
0.0263213
0.00701229
0.00922096
0.0401225
0.0114056
0.0250136
0.0445414
0.00700459
0.0121459
0.00918605
0.00716389
0.00708704
0.00715133
0.00904943
0.0289484
0.0325451
0.00669864
0.0126208
0.0115631
0.00972251
0.0210497
0.00781704
0.00747364
0.0141865
0.013835
0.0394625
0.0176453
0.0393482
0.00793651
0.00657494
0.0166461
0.0143194
0.0565425
0.0208555
0.029252
0.00716856
0.00691235
0.0127951
0.00773563
0.0202735
0.0160142
0.00922099
0.0532645
0.00695793
0.0325484
0.00891919
0.0464121
0.00668276
0.0106468
0.0076734
0.0118312
0.00858961
0.00789731
0.00693847
0.0348813
0.0257912
0.0496
0.00727585
0.00766475
0.00959322
0.00687361
0.0783301
0.0144222
0.0170342
0.00714458
0.0101237
0.00883668
0.0143044
0.00712023
0.0534924
0.0187731
0.00845003
0.0346728
0.0311014
0.0236955
0.0542588
0.0170121
0.00735934
0.0242227
0.060387
0.0131331
0.0315389
0.0138794
0.00702946
0.00694423
0.00717938
0.00690635
0.00711455
0.00940794
0.0408604
0.00685021
0.00976789
0.0180791
0.0147038
0.00729583
0.0114201
0.022113
0.00718912
0.0377108
0.0171947
0.0163245
0.0242686
0.00755415
0.0425123
0.0160714
0.0410485
0.0473758
0.0259263
0.054865
0.010045
0.00832842
0.010062
0.0306933
0.00992732
0.0088182
0.0517775
0.00805763
0.0106028
0.033294
0.0532553
0.0118802
0.0121626
0.042403
0.00714654
0.0509744
0.00685733
0.00795208
0.0108432
0.00749176
0.00769459
0.0139393
0.00704614
0.0751136
0.0403845
0.0146597
0.0144553
0.0623988
0.00864784
0.0130689
0.00669549
0.00744485
0.0212313
0.00821386
0.00674379
0.0172471
0.0284334
0.00721437
0.0147812
0.0346597
0.00746668
0.00735647
0.00721978
0.0154814
0.0093954
0.0128771
0.0186368
0.0141157
0.0148133
0.00884436
0.0260202
0.00804831
0.00693044
0.00936955
0.00787679
0.0126355
0.0106715
0.0374872
0.025697
0.0103733
0.0085129
0.00911456
0.006778
0.00761586
0.00670604
0.00641541
0.228666
0.0117079
0.00665102
0.0484075
0.00809127
0.00826888
0.0483129
0.00750916
0.00703025
0.014061
0.00690246
0.00700999
0.00679972
0.0243977
0.0106446
0.0321446
0.0120812
0.00722967
0.0430617
0.0362182
0.0273128
0.0109308
0.0329391
0.00816824
0.00708735
0.00710625
0.00704
0.017998
0.0247064
0.00782464
0.00697027
0.011603
0.0184621
0.00771043
0.00709386
0.00654216
0.0395057
0.00658398
0.0158392
0.0203731
0.0385766
0.0275723
0.0171046
0.00708443
0.0303598
0.00728995
0.00691316
0.00734245
0.00694196
0.00715396
0.00624914
0.00688123
0.0069781
0.00969062
0.00887875
0.0109523
0.0378835
0.0317684
0.00767097
0.00947805
0.0391488
0.00721065
0.0137471
0.0070789
0.0069948
0.00697751
0.00842223
0.0173326
0.00690716
0.122931
0.0151136
0.00697063
0.0703304
0.00732338
0.0372856
0.0184616
0.00787346
0.0205495
0.034671
0.00777717
0.00811618
0.00760743
0.0369534
0.00741892
0.0374106
0.0166396
0.0235181
0.0262054
0.0143435
0.00685983
0.0244082
0.00777199
0.00727053
0.0123632
0.00685473
0.00677214
0.0116473
0.00648951
0.0073004
0.0216598
0.00684903
0.0270332
0.0392001
0.00779261
0.00910684
0.0284085
0.006918
0.0129616
0.0194345
0.00865773
0.0593352
0.00683035
0.00729458
0.0120268
0.0440844
0.029092
0.0147603
0.0280655
0.00902311
0.00953925
0.0140285
0.0587149
0.0118811
0.00686332
0.00972211
0.00711417
0.00713179
0.028798
0.00769906
0.0067654
0.011741
0.00852215
0.0394831
0.0119104
0.00785186
0.00650334
0.0233546
0.0075
0.0167477
0.0125883
0.0498229
0.0116248
0.0182839
0.0349363
0.0110732
0.034095
0.00759463
0.0130336
0.00691315
0.0668906
0.00634131
0.0158768
0.0290895
0.0147426
0.0090083
0.0487076
0.0075997
0.00802856
0.0303122
0.0697688
0.030592
0.00672345
0.00802585
0.00722415
0.0141425
0.0318651
0.00832179
0.0465926
0.0133414
0.00703516
0.00958125
0.0295301
0.00791388
0.0506959
0.0183056
0.00748086
0.00680478
0.0434352
0.00778704
0.0103288
0.0280829
0.00680435
0.00770436
0.00614148
0.00967684
0.015644
0.0276275
0.00702807
0.00764603
0.0499661
0.0350837
0.0268845
0.00672724
0.0156514
0.00724652
0.0314391
0.00667513
0.0378336
0.00901938
0.0165683
0.0068609
0.00708429
0.00813325
0.00910906
0.047075
0.0412972
0.00843474
0.00928383
0.0477977
0.0393947
0.00730591
0.00724113
0.00742421
0.0137815
0.00921085
0.00623391
0.00722172
0.0257491
0.0187197
0.0234612
0.00808463
0.0179531
0.0402335
0.0381207
0.00661039
0.0124079
0.0155932
0.00753806
0.00733657
0.0466777
0.00700894
0.00700226
0.0343698
0.0490898
0.00715891
0.00636346
0.0488523
0.0664914
0.00678742
0.0142512
0.0520247
0.022771
0.0066619
0.00636611
0.00710288
0.00860644
0.00702217
0.046454
0.0397445
0.00699981
0.00713185
0.0146394
0.00790542
0.0310277
0.0283757
0.0305418
0.00854273
0.0638088
0.00739374
0.00825184
0.0156487
0.0269354
0.0546785
0.00686843
0.00634912
0.011006
0.00670862
0.0132804
0.00700157
0.0318564
0.0272157
0.211236
0.0128523
0.0087742
0.0140243
0.0292166
0.0169729
0.0114402
0.00829798
0.0154459
0.00763092
0.00657574
0.0137055
0.0288677
0.0441612
0.00743161
0.0472441
0.0114099
0.0107408
0.0177705
0.0488561
0.00836773
0.0247081
0.0638147
0.0530654
0.00951863
0.00659354
0.00984188
0.00964609
0.0186975
0.0127867
0.0558037
0.0375588
0.0334609
0.00676487
0.0139816
0.00832814
0.0131383
0.0134934
0.00958478
0.0519017
0.01107
0.0509284
0.00727835
0.0126322
0.0453862
0.00684623
0.0161307
0.00958786
0.0174474
0.0288695
0.0520443
0.00739245
0.0315531
0.00726316
0.00700853
0.0108589
0.0231926
0.0467146
0.00953112
0.0343682
0.00749777
0.00747596
0.00702199
0.0308108
0.0073715
0.00753666
0.00763024
0.00751083
0.0539218
0.0320385
0.00725541
0.0127603
0.0241065
0.00701881
0.0104999
0.0102325
0.014382
0.0376708
0.133257
0.0330057
0.00776264
0.00707473
0.0106706
0.0479648
0.0377213
0.00789262
0.0114785
0.0229332
0.00694007
0.00750837
0.00731473
0.00711208
0.00674753
0.00728292
0.00861071
0.0122874
0.0116556
0.0123148
0.0206781
0.024298
0.00680517
0.00989947
0.0398002
0.0283588
0.00648922
0.0368018
0.00787647
0.0151326
0.00696259
0.00821104
0.0120458
0.0065298
0.00682247
0.00677044
0.0280627
0.0323965
0.00714128
0.00670171
0.0511713
0.0180959
0.0106952
0.00716605
0.00891178
0.0642798
0.0140385
0.00949814
0.0192374
0.00658857
0.011066
0.0556234
0.0102962
0.046612
0.0161919
0.0626852
0.00742561
0.00743005
0.00674357
0.0542113
0.0286545
0.0179326
0.0072316
0.031771
0.0309187
0.0160563
0.00716284
0.0391044
0.00643755
0.00739535
0.0237258
0.0247374
0.0315485
0.00688573
0.00659719
0.00799897
0.0110759
0.0147758
0.0140875
0.014947
0.0439689
0.0438741
0.0358358
0.0165948
0.00705687
0.0402472
0.0656164
0.0304795
0.0479249
0.00804867
0.0460645
0.0068767
0.00718986
0.00816986
0.0234687
0.00751526
0.0389869
0.0254761
0.00677746
0.00701492
0.011022
0.009909
0.0070393
0.052132
0.00951836
0.00777424
0.0073301
0.0161051
0.00762802
0.00651727
0.0137701
0.036401
0.0471879
0.0140518
0.00699426
0.0430181
0.018797
0.00642451
0.0361882
0.0393557
0.0146083
0.046325
0.0219806
0.0542906
0.0309091
0.0389946
0.0569484
0.0369523
0.0598281
0.0132936
0.019354
0.00700185
0.0566209
0.0066485
0.00985674
0.00780466
0.0114496
0.0081177
0.0407393
0.00724454
0.0107364
0.0162337
0.00694428
0.00954142
0.0674162
0.0118375
0.0180169
0.0408349
0.0430632
0.00862006
0.0164118
0.046442
0.0084457
0.00903751
0.00694471
0.00721449
0.0317115
0.0112782
0.0181382
0.0116525
0.00873732
0.00849794
0.00716207
0.0162141
0.00757852
0.00940144
0.0110313
0.013419
0.0130993
0.0110342
0.0173079
0.00703104
0.00966955
0.0453434
0.00851944
0.0495652
0.120772
0.0288001
0.00860333
0.0090751
0.00863804
0.00774588
0.0117254
0.0203593
0.0121709
0.0599969
0.0503951
0.0568888
0.0281669
0.0295966
0.0066796
0.031353
0.0117869
0.0456956
0.0426451
0.00678625
0.0284633
0.00787456
0.0100497
0.00745455
0.0372735
0.0322905
0.0103789
0.00813404
0.0573597
0.00866698
0.0264995
0.013543
0.00688236
0.00765122
0.00695234
0.0145561
0.0150768
0.0181408
0.023158
0.0375553
0.0320233
0.0438311
0.0127108
0.00708465
0.020909
0.0263373
0.0142343
0.00747729
0.00794665
0.0281819
0.00896961
0.0463573
0.0237863
0.00813353
0.0311302
0.0189502
0.0155954
0.0109735
0.0134737
0.0082608
0.0161032
0.0143866
0.00730272
0.0126249
0.00736508
0.0509114
0.0520338
0.0102684
0.0136646
0.00805595
0.012953
0.014965
0.0566667
0.00950872
0.00968237
0.00854867
0.0166092
0.0348682
0.0273114
0.0334256
0.010525
0.0245173
0.0136021
0.0517454
0.0112701
0.0337206
0.0195725
0.00722282
0.0281985
0.00765236
0.00767569
0.036739
0.0455362
0.0112124
0.0728295
0.00797639
0.00736985
0.0179937
0.00846791
0.0195489
0.0112982
0.0415158
0.0131136
0.0104684
0.00667499
0.0643369
0.00742415
0.010153
0.0193031
0.00918026
0.0386762
0.00763063
0.041373
0.00822964
0.0105524
0.00859185
0.00897073
0.0341284
0.0508227
0.00773919
0.00674343
0.0350344
0.0132771
0.0416388
0.0097261
0.0264817
0.0565622
0.0154768
0.00833189
0.0175258
0.00673737
0.0117889
0.00831602
0.0425774
0.00691086
0.0390317
0.0200267
0.00694222
0.00698513
0.0106088
0.052465
0.0314519
0.00724362
0.0071024
0.00888878
0.00790654
0.00812524
0.0732139
0.00843564
0.00902074
0.00967187
0.0299196
0.00955319
0.00697118
0.0100001
0.00699517
0.0073072
0.0270624
0.00751981
0.0324621
0.00813792
0.0159903
0.00986209
0.00781118
0.00673865
0.00704628
0.038248
0.00671646
0.0283501
0.0454109
0.0101612
0.0300244
0.00775529
0.0548229
0.0293942
0.0300399
0.0193017
0.0106802
0.0417221
0.0414353
0.00878832
0.0160235
0.00680381
0.0142985
0.0509749
0.017597
0.0352119
0.0124828
0.00820253
0.0289684
0.00834456
0.00682459
0.00736861
0.00732786
0.00674386
0.00736705
0.00671994
0.00778421
0.027362
0.0593958
0.00827015
0.060839
0.0104337
0.0107344
0.0185179
0.00687477
0.00983358
0.0362682
0.00669656
0.0337108
0.0150357
0.0249498
0.00905645
0.00662772
0.0191067
0.0133973
0.0339326
0.0105137
0.0107407
0.0173065
0.00878238
0.0651343
0.045669
0.00636825
0.0102231
0.00709337
0.0141158
0.0741004
0.00698388
0.0243741
0.00646982
0.00781784
0.0401653
0.00746193
0.00676052
0.0390042
0.0278934
0.00683803
0.0149393
0.050088
0.00723343
0.0280767
0.0495148
0.0159148
0.00682635
0.00690842
0.00863325
0.00726538
0.00818545
0.00682863
0.0119961
0.013556
0.00681866
0.00823455
0.0584389
0.0372482
0.0106141
0.00711411
0.0112621
0.0519573
0.045432
0.00818076
0.0330242
0.00782571
0.00718019
0.00674906
0.0328428
0.0195308
0.00695292
0.0124584
0.0082782
0.00862109
0.027184
0.0408194
0.00697857
0.0454996
0.0223913
0.0398039
0.0332671
0.00700809
0.00708319
0.00828747
0.0132781
0.0160171
0.0166386
0.00701536
0.00832413
0.0292536
0.00626629
0.00769087
0.00743817
0.047143
0.0105243
0.047968
0.0165961
0.0320742
0.00739107
0.00835645
0.0117504
0.0413427
0.0183765
0.0245692
0.0623349
0.00773591
0.0490645
0.0277273
0.0070201
0.00706672
0.00687334
0.0366165
0.0129792
0.030569
0.00696429
0.00755913
0.00685531
0.00692508
0.0339099
0.00809171
0.0114763
0.00701441
0.00697959
0.00702158
0.00726884
0.00692943
0.0564354
0.0349014
0.0116784
0.00678153
0.00824542
0.0348472
0.00690032
0.0263811
0.0104518
0.0084835
0.0179699
0.0243896
0.0266736
0.0625669
0.00752896
0.00791372
0.0278253
0.0110377
0.0585014
0.00792463
0.00627991
0.0524964
0.0108345
0.00964092
0.00709387
0.0920171
0.0612253
0.0424182
0.0230903
0.0254383
0.0493792
0.0420108
0.0587754
0.018319
0.00720534
0.0094457
0.00768018
0.0103587
0.0530651
0.00718083
0.0117372
0.0645506
0.0631292
0.0415936
0.0172479
0.0333154
0.00757407
0.0151852
0.00683284
0.0094462
0.0336431
0.0176332
0.0076674
0.00685779
0.00797139
0.00700532
0.00724182
0.0305834
0.0130649
0.00770799
0.0072821
0.069886
0.0143965
0.0132398
0.00987947
0.0113727
0.00665571
0.027167
0.0412869
0.0545685
0.0145996
0.0067475
0.00640625
0.00770395
0.0245991
0.0127396
0.0310513
0.0147301
0.00728028
0.0333836
0.0257345
0.00691412
0.00830908
0.0076754
0.00718091
0.0172596
0.0225817
0.00802902
0.014148
0.0106668
0.00867099
0.00966898
0.00734187
0.018953
0.00844221
0.0573187
0.0437364
0.0630394
0.0157617
0.0113911
0.0141824
0.0328116
0.00752313
0.0324928
0.0268525
0.0558597
0.0110415
0.0064009
0.00703659
0.0553372
0.0262074
0.0325156
0.0477495
0.0272319
0.00649223
0.00647045
0.042206
0.036575
0.0276116
0.0071842
0.00642241
0.00848213
0.0157455
0.00755887
0.0080479
0.0151297
0.0375877
0.00639116
0.00852262
0.00830905
0.0107059
0.00799477
0.00676912
0.0211326
0.0108209
0.022679
0.0101039
0.0067216
0.00660122
0.0655257
0.0071763
0.048656
0.0069879
0.00780868
0.0070095
0.00723282
0.0289251
0.0512516
0.0289638
0.00729697
0.00664869
0.0101343
0.00674244
0.0461036
0.016567
0.00719704
0.00664834
0.0124745
0.0342186
0.015572
0.0122794
0.00668076
0.00735443
0.00727755
0.00635399
0.00755617
0.00802354
0.0173875
0.00700969
0.00700495
0.00822683
0.0172785
0.038486
0.052119
0.0209071
0.0132539
0.00664742
0.00667089
0.0443444
0.0126327
0.00880168
0.00916987
0.0155178
0.00712416
0.00824252
0.00984544
0.00639581
0.0141905
0.00913489
0.0299978
0.012508
0.00833101
0.0493215
0.00999034
0.00766801
0.00919481
0.00708687
0.00662014
0.0499883
0.00705138
0.0185189
0.00641939
0.0207551
0.00688207
0.00953629
0.0162827
0.010483
0.0507219
0.00987792
0.03257
0.0364768
0.00807023
0.0461025
0.00705748
0.00723854
0.00659891
0.031128
0.0143254
0.0518484
0.00931986
0.0373683
0.015207
0.00746576
0.00658048
0.00669384
0.00814176
0.00774685
0.00709192
0.00822899
0.00755001
0.00781713
0.032415
0.0150447
0.00665076
0.0065144
0.026508
0.00791891
0.00709737
0.00667882
0.0498871
0.00930595
0.0507162
0.00654957
0.0430521
0.0366312
0.0116648
0.00918483
0.00887343
0.0114928
0.0395423
0.00739683
0.0400199
0.0399384
0.00771889
0.0300403
0.0183245
0.00951496
0.00728158
0.0540604
0.0261026
0.0399782
0.00697805
0.00757386
0.0240841
0.00725099
0.0163023
0.0249112
0.00722588
0.0359305
0.00924457
0.00811151
0.00728339
0.0067367
0.00686818
0.00641776
0.0106878
0.00626461
0.00761148
0.00713352
0.0133039
0.0151378
0.00641945
0.0200939
0.00800546
0.00816667
0.00766856
0.00873516
0.00660292
0.00908176
0.0363481
0.00759303
0.00660275
0.0261424
0.0106418
0.0066741
0.108268
0.00779976
0.00732446
0.015795
0.0099412
0.029738
0.0117581
0.00634588
0.00795815
0.0156015
0.0270527
0.0256032
0.00991861
0.0340591
0.0370811
0.0440273
0.00848511
0.00649252
0.00646961
0.00936742
0.00787142
0.0088595
0.0253425
0.0128555
0.00662202
0.00649564
0.00665666
0.00677421
0.0463607
0.0674957
0.0584025
0.0224993
0.00817115
0.00703645
0.00666175
0.0172663
0.00775037
0.00722007
0.0542283
0.00709322
0.00760683
0.00651735
0.00721372
0.0215267
0.0295036
0.0107351
0.030863
0.00723032
0.00826744
0.0149835
0.00789472
0.0155981
0.0243811
0.0141527
0.00668515
0.0176681
0.0101325
0.00697435
0.0197724
0.0346733
0.00705053
0.00678314
0.0278658
0.0363169
0.0164169
0.0400799
0.00665158
0.0118642
0.0290141
0.00673047
0.00680656
0.00671504
0.0100895
0.00754743
0.00750245
0.00771401
0.00849303
0.0177933
0.00836736
0.0220514
0.0197835
0.0292366
0.00691695
0.0117879
0.00778958
0.00885614
0.015978
0.0139806
0.0540018
0.0140977
0.0547134
0.0160771
0.00862828
0.00716982
0.00673708
0.00738887
0.0390796
0.0312041
0.00713048
0.0195497
0.0233367
0.00984112
0.0330986
0.00645538
0.00784668
0.00697914
0.0116354
0.00696081
0.0108325
0.00786871
0.0366357
0.0072302
0.0396996
0.0413136
0.0239618
0.00895197
0.0112089
0.00688108
0.0405945
0.00817688
0.00781791
0.0143079
0.0190239
0.0170232
0.035256
0.0259158
0.0350769
0.0238411
0.0063325
0.0294259
0.00788151
0.0258239
0.0578832
0.0156832
0.0335068
0.0687474
0.0526759
0.00909071
0.0116102
0.00733302
0.0239251
0.00663545
0.03843
0.01218
0.0257451
0.00812787
0.00707039
0.0567599
0.00944164
0.00759937
0.00786976
0.00956201
0.00952698
0.00726002
0.00742598
0.00736747
0.00841205
0.0376611
0.0168963
0.0310278
0.00745075
0.0472221
0.0170838
0.00743266
0.0213147
0.0127467
0.0564807
0.0123604
0.0140432
0.00647487
0.0106904
0.00663684
0.00896547
0.00664754
0.00884582
0.00633513
0.0287479
0.0290281
0.00719931
0.00753956
0.00891921
0.00769417
0.00706542
0.00842319
0.00779883
0.0395717
0.00735772
0.00688825
0.0409081
0.0101584
0.0402282
0.00959587
0.0229519
0.0320246
0.00710593
0.0348579
0.0396086
0.0527496
0.0439578
0.0380876
0.00659432
0.0117471
0.0064444
0.00909201
0.0260414
0.0073491
0.00679881
0.00694881
0.0532384
0.00780392
0.0122671
0.0113682
0.00760788
0.0439697
0.0415249
0.00781171
0.037341
0.00680924
0.0313065
0.0106329
0.0224936
0.00656504
0.00680381
0.0074199
0.0340697
0.0515652
0.0377795
0.0070693
0.0260547
0.0678084
0.0116067
0.0156128
0.0430917
0.0149312
0.026539
0.00957595
0.00780273
0.00696802
0.00824906
0.100764
0.0128368
0.0507394
0.0065822
0.0078314
0.0106052
0.00755127
0.0163601
0.0123978
0.0520054
0.00829494
0.0144119
0.00701558
0.00683965
0.0270625
0.0623795
0.00648904
0.00717561
0.00708938
0.0234124
0.00882072
0.0513176
0.0355709
0.0321356
0.00716261
0.0427646
0.0120675
0.0597296
0.0304659
0.00848374
0.0297338
0.0379755
0.0398829
0.00777385
0.0080604
0.00711293
0.0287183
0.00997292
0.00652126
0.0107231
0.0110132
0.00830341
0.00718115
0.00696251
0.0515608
0.00776806
0.014656
0.0225114
0.0318172
0.00689564
0.00692287
0.0149487
0.00857016
0.0619937
0.0117002
0.0100226
0.0569394
0.00700841
0.00699144
0.00820065
0.026674
0.00668458
0.0291826
0.00644021
0.0261862
0.053489
0.00657224
0.00693612
0.0239185
0.00790098
0.00692028
0.0067072
0.00656368
0.0271475
0.0415635
0.00700476
0.00819535
0.00800604
0.00747087
0.0298755
0.00907773
0.0274839
0.0236962
0.00685234
0.00722107
0.0140859
0.0081407
0.0112575
0.0364146
0.0662528
0.00651248
0.00754533
0.0297668
0.0434577
0.0176228
0.00815688
0.00848807
0.0538251
0.0162251
0.007669
0.00685892
0.00713524
0.00776635
0.0119208
0.00682381
0.00729358
0.00708059
0.0170756
0.0406885
0.0525521
0.0110846
0.0129593
0.00810321
0.00737604
0.0070518
0.00702798
0.00693338
0.0074124
0.00739662
0.00713281
0.0142609
0.00755734
0.00776392
0.0155698
0.00739929
0.0149746
0.0412678
0.0104645
0.00917632
0.00930805
0.00997001
0.00926601
0.0164219
0.0294345
0.0079724
0.00787765
0.0085242
0.0110329
0.046532
0.00866703
0.0137595
0.049969
0.0088342
0.040449
0.0106554
0.00759525
0.00822522
0.00888373
0.0120436
0.0358462
0.0479543
0.0678692
0.00687357
0.0298967
0.00734698
0.00725241
0.0329491
0.00672494
0.0151212
0.00650888
0.0112167
0.0106619
0.0204046
0.00647428
0.00629837
0.0624417
0.00745741
0.0368612
0.0634587
0.00923871
0.0235205
0.00668383
0.00685481
0.00677741
0.0138214
0.0182957
0.00826964
0.0070063
0.00806138
0.0276883
0.0467744
0.0109853
0.00754086
0.0122116
0.00696098
0.0178583
0.0149562
0.00685845
0.00658168
0.00681518
0.0162502
0.0128247
0.0173812
0.00915766
0.0080345
0.0121274
0.0136258
0.0373835
0.00765739
0.00811212
0.0071973
0.00737502
0.00788215
0.00653804
0.0351589
0.0101346
0.0196949
0.0277468
0.00733315
0.0188787
0.00669556
0.00693264
0.00790857
0.0514565
0.0142646
0.00839342
0.00661985
0.0252152
0.00753093
0.0191447
0.00919349
0.0183179
0.0120697
0.00728395
0.00664676
0.0642273
0.00863229
0.00651033
0.00753744
0.0157861
0.00753213
0.00719346
0.13246
0.00637674
0.032581
0.00786344
0.0066574
0.00687394
0.0116427
0.0154159
0.0202999
0.0259003
0.0373604
0.00664047
0.00644803
0.0893663
0.0345577
0.00797214
0.00876457
0.0282521
0.013262
0.00814236
0.00851555
0.00822412
0.054968
0.00700756
0.0215007
0.0324794
0.0067389
0.027613
0.0174535
0.0477591
0.0316565
0.0177889
0.0281461
0.010625
0.027132
0.0120055
0.0384836
0.0500678
0.0101789
0.0417589
0.0253723
0.00806488
0.0436925
0.00790862
0.0266878
0.0220212
0.027892
0.00669196
0.0430447
0.0395475
0.00943573
0.00819022
0.0101141
0.0305129
0.00961138
0.0171093
0.0101844
0.0233375
0.0143847
0.00657687
0.0148044
0.00667448
0.00926816
0.00902861
0.0068022
0.0651379
0.00992262
0.0112059
0.00751102
0.0449821
0.010809
0.0653624
0.0145938
0.0151876
0.00714838
0.00774759
0.0116148
0.00786881
0.020703
0.00690349
0.00725891
0.018663
0.0064716
0.0230683
0.0073477
0.009474
0.0249407
0.0151288
0.0229563
0.00672702
0.00847278
0.0243961
0.00931974
0.0107461
0.0566831
0.00701069
0.0526556
0.0315651
0.0119644
0.0078761
0.00863601
0.0278704
0.0067728
0.00716631
0.0138415
0.0264715
0.0172933
0.0402798
0.00834421
0.0164328
0.00923277
0.0161552
0.00699543
0.0086922
0.037072
0.00936551
0.00693347
0.0159677
0.065465
0.0229701
0.00823976
0.0275495
0.0166178
0.0260485
0.00874692
0.0166477
0.0302137
0.0295004
0.00679952
0.0506726
0.00773733
0.0440002
0.00670601
0.0143417
0.0075097
0.0382452
0.00842384
0.00636229
0.00723536
0.0069389
0.0149212
0.0580802
0.0572327
0.0314086
0.0650978
0.00784934
0.037588
0.00660012
0.00739915
0.0100967
0.00761875
0.0485695
0.0256548
0.0281761
0.00751092
0.0413592
0.00832185
0.0144824
0.00863026
0.0245806
0.0371626
0.0436175
0.00744831
0.0280789
0.0067322
0.0100485
0.0101784
0.0282152
0.0279821
0.0103488
0.0144257
0.0321146
0.00710796
0.00777134
0.0183276
0.0145795
0.00823793
0.00696055
0.0076068
0.00680969
0.00728534
0.0139437
0.0175597
0.00740414
0.0664635
0.0422289
0.0098657
0.00759638
0.00677421
0.0438614
0.0313199
0.00663931
0.0144559
0.00647302
0.0353595
0.00664725
0.00651158
0.00804071
0.0256177
0.0177588
0.0461822
0.0510908
0.0108859
0.0551994
0.00991018
0.0197682
0.00988408
0.00935982
0.00716056
0.047342
0.072305
0.00672584
0.00970063
0.0386652
0.00701273
0.00774636
0.0391384
0.0541605
0.0580577
0.0327586
0.0198223
0.0522451
0.0171759
0.00666628
0.0378142
0.0523095
0.0101173
0.00756916
0.00714266
0.0084005
0.0150077
0.0689132
0.0067166
0.0358099
0.00713894
0.0309057
0.0135031
0.0100962
0.0130501
0.0117042
0.0409757
0.00699199
0.0108708
0.00674827
0.050407
0.0107427
0.0285437
0.0140386
0.0225955
0.0463015
0.0123076
0.0127896
0.0110471
0.0197582
0.00764983
0.0296073
0.0383182
0.0305883
0.00916323
0.0117278
0.00936885
0.0386423
0.0119676
0.0472311
0.0703047
0.00825674
0.00641555
0.0288209
0.0367686
0.0157069
0.00714419
0.0108658
0.00753501
0.0102001
0.00885778
0.00700855
0.00856476
0.00660776
0.0277514
0.0537735
0.0100216
0.00695401
0.0068223
0.0161035
0.0640115
0.0148723
0.00689758
0.0267669
0.0137666
0.0106844
0.0143262
0.00652166
0.00728889
0.00670738
0.0420324
0.00996542
0.00752553
0.00845306
0.00649158
0.0117009
0.0278815
0.00707431
0.0153904
0.0553676
0.00646924
0.00633732
0.0119452
0.016916
0.00795397
0.00693402
0.00839083
0.00655035
0.0112937
0.0158095
0.0359257
0.0292045
0.00727748
0.0103089
0.00720664
0.00868769
0.0336697
0.0377426