/*--------------------------------*- C++ -*----------------------------------*\
| =========                 |                                                 |
| \\      /  F ield         | OpenFOAM: The Open Source CFD Toolbox           |
|  \\    /   O peration     | Version:  2406                                  |
|   \\  /    A nd           | Website:  www.openfoam.com                      |
|    \\/     M anipulation  |                                                 |
\*---------------------------------------------------------------------------*/
FoamFile
{
    version     2.0;
    format      ascii;
    arch        "LSB;label=32;scalar=64";
    class       volScalarField;
    location    "36";
    object      k;
}
// * * * * * * * * * * * * * * * * * * * * * * * * * * * * * * * * * * * * * //

dimensions      [0 2 -2 0 0 0 0];

internalField   nonuniform List<scalar> 
59516
(
0.0010581
0.00156181
0.000897241
0.00152918
0.00766784
0.0173759
0.00108455
0.00114253
0.000894642
0.00368804
0.00441464
0.00305814
0.000958191
0.00817177
0.00309961
0.00316812
0.00275931
0.00433359
0.00129815
0.0021558
0.00488881
0.00136719
0.00157086
0.00492715
0.00143807
0.00278397
0.00479808
0.00585067
0.00327616
0.00694164
0.00703924
0.00548978
0.00112288
0.0013881
0.00170714
0.00120141
0.00672856
0.00434359
0.00154897
0.00174312
0.00106092
0.00309045
0.00159707
0.00148191
0.00127632
0.00325491
0.00111253
0.002863
0.00763198
0.00244061
0.00901959
0.00437179
0.000778068
0.000981662
0.00457844
0.00114735
0.00382562
0.00472871
0.00295743
0.00165995
0.00170644
0.00652295
0.00278027
0.00262849
0.00122787
0.00179898
0.00807296
0.00432788
0.00619166
0.000962109
0.0062741
0.00245676
0.00684175
0.00154902
0.0032748
0.00200608
0.00274632
0.00158787
0.00417646
0.00251566
0.00473928
0.00201625
0.00156103
0.00682619
0.00199293
0.00306067
0.00472888
0.00131061
0.00308609
0.00253276
0.00560827
0.00181592
0.00249727
0.00154149
0.00250851
0.00784463
0.00163318
0.00319728
0.00358337
0.00168617
0.00476043
0.00685149
0.00670321
0.00308378
0.00118516
0.002217
0.00493826
0.000874692
0.0012784
0.00288356
0.00473191
0.00565175
0.00317111
0.00458893
0.00190564
0.00120737
0.00301981
0.00138541
0.00641332
0.00161292
0.00379888
0.00284819
0.00178153
0.0027621
0.00412483
0.00170747
0.00721394
0.00272844
0.0105375
0.00310432
0.00358361
0.000942285
0.0064189
0.00121134
0.00135254
0.000809763
0.00450851
0.000735224
0.00460102
0.00163821
0.00426819
0.00333117
0.0067823
0.001236
0.00334474
0.00137203
0.00117691
0.00112274
0.019845
0.0010501
0.00147531
0.00457659
0.00190453
0.00161629
0.00136168
0.00728736
0.00123629
0.000879358
0.00163147
0.00688577
0.00300341
0.00284293
0.00492535
0.00814597
0.00118543
0.00265049
0.00286472
0.00303791
0.00662739
0.00191566
0.001537
0.00324064
0.00228264
0.00116438
0.00383928
0.00120413
0.00284542
0.00176917
0.00278212
0.00444078
0.00131409
0.00529534
0.00814879
0.00257507
0.00309817
0.00303404
0.00440674
0.00688811
0.00089858
0.00127405
0.00164099
0.00324536
0.00223662
0.00250318
0.00140295
0.00484711
0.00303953
0.00430074
0.00152599
0.00144444
0.00218712
0.00380038
0.00107674
0.0068064
0.00100265
0.00139157
0.00324275
0.00237699
0.00711613
0.00124958
0.00368979
0.00779117
0.00142641
0.00328174
0.0010546
0.00240393
0.00130251
0.00142906
0.00335608
0.00181063
0.00340406
0.00159402
0.00262404
0.00477483
0.00269655
0.00288457
0.00584979
0.00411597
0.00273878
0.00321389
0.00256032
0.0028975
0.00377368
0.00608108
0.0048739
0.00435443
0.00269167
0.00100021
0.00207926
0.00356152
0.0035598
0.00700663
0.00300081
0.00709364
0.00335598
0.00126802
0.00173137
0.00290196
0.00223084
0.000997659
0.00203316
0.00154327
0.00375147
0.00170418
0.00147277
0.00182915
0.00338053
0.00190292
0.00423111
0.00305831
0.00100462
0.00219223
0.001111
0.00273642
0.00103937
0.00292047
0.00220323
0.0013895
0.00438321
0.00310464
0.00158604
0.00290091
0.00101903
0.00151015
0.0022626
0.0012795
0.00608805
0.00193521
0.00600184
0.00432885
0.00362433
0.00132877
0.00654074
0.00111111
0.00099448
0.00281825
0.00330355
0.00684572
0.0035768
0.00407659
0.00307112
0.00130976
0.00154686
0.00137251
0.00237496
0.0056767
0.00228606
0.00109205
0.00383886
0.00288287
0.000807749
0.00280306
0.00650283
0.00526748
0.00162531
0.00693342
0.00322266
0.0036304
0.00238636
0.00228763
0.00135831
0.00288625
0.00133544
0.00486038
0.00335335
0.00234795
0.00130738
0.0082467
0.00169839
0.00430707
0.00312371
0.0012994
0.00303995
0.00360329
0.00379734
0.00182301
0.00200945
0.00122552
0.00274026
0.00214804
0.00186967
0.00291529
0.00663668
0.00173226
0.0040182
0.00478316
0.00227498
0.00140164
0.00325249
0.00300976
0.00199424
0.00355014
0.00294384
0.00442999
0.0019374
0.00351424
0.00314292
0.00361752
0.0032488
0.0013091
0.00128569
0.00193344
0.00127173
0.00198804
0.00510968
0.00462458
0.00146683
0.00607151
0.0111469
0.00175577
0.00120588
0.00124452
0.00405484
0.00154098
0.00108169
0.00173887
0.00189661
0.00485603
0.0068355
0.00339587
0.00430563
0.00460596
0.00233946
0.00148733
0.00209317
0.00643843
0.00118428
0.00456519
0.00256391
0.0031409
0.00285611
0.000901999
0.00465515
0.007006
0.0030768
0.00133202
0.00635717
0.00168488
0.00119928
0.000976212
0.00159245
0.00154721
0.00206101
0.00652926
0.00360747
0.0036004
0.00293117
0.00293636
0.00330716
0.00301751
0.00305198
0.000886915
0.0011988
0.00337861
0.00327351
0.0040735
0.00131725
0.00141497
0.00146691
0.00179597
0.00666272
0.00640924
0.000936548
0.00298885
0.00353504
0.00474068
0.00295771
0.000887618
0.00351131
0.0030951
0.00341092
0.00304509
0.00291718
0.00120059
0.00350629
0.0028423
0.00257564
0.00122782
0.00201167
0.00322131
0.00133492
0.00166389
0.00417489
0.00494012
0.00648749
0.00342682
0.0032211
0.0015946
0.000911044
0.0046598
0.00687797
0.00118086
0.0020827
0.00319678
0.00174092
0.00109197
0.00362341
0.00108587
0.00614249
0.00111365
0.00300088
0.0118387
0.00210695
0.00136527
0.00159276
0.00692248
0.00327504
0.00332712
0.00348948
0.00121376
0.00206631
0.00306558
0.00149582
0.00381617
0.00161604
0.00272228
0.00147399
0.00640829
0.00322785
0.00118392
0.00406379
0.00109837
0.00254442
0.00112946
0.00172056
0.00645413
0.00273213
0.0009657
0.00190542
0.00111934
0.00432514
0.00143461
0.0075094
0.00243456
0.00951735
0.00276898
0.00411319
0.00115343
0.00114754
0.00405161
0.00391158
0.00340268
0.00721255
0.00237066
0.00394176
0.00482311
0.0028979
0.00287247
0.0020044
0.00362753
0.0100665
0.00307657
0.00295832
0.00103054
0.00371113
0.00632702
0.00170126
0.00178133
0.00339613
0.0136558
0.00216986
0.00601238
0.00224692
0.00688524
0.0027083
0.00177403
0.00290144
0.00669332
0.00492044
0.00382522
0.00320422
0.0011026
0.00328483
0.0026523
0.0049717
0.00308407
0.00594606
0.000976996
0.0062931
0.00270677
0.00326726
0.00292171
0.0034339
0.00140149
0.00337652
0.00358804
0.00277187
0.00635556
0.00704003
0.00142652
0.00348794
0.00123918
0.00115282
0.00314849
0.00335886
0.0022752
0.00285708
0.00318917
0.00113029
0.00595467
0.00148852
0.00417123
0.00599527
0.00127889
0.00419232
0.00141122
0.00359723
0.00130926
0.0029198
0.00300852
0.00152608
0.00318738
0.00296307
0.00343488
0.0034929
0.00416624
0.00334343
0.00308366
0.00197087
0.00524997
0.00227795
0.00264965
0.00264802
0.00312135
0.000786698
0.00676132
0.00241578
0.00148715
0.00204919
0.00110782
0.00583939
0.00375523
0.00159066
0.000948764
0.00345396
0.00134126
0.00656127
0.00644131
0.00337223
0.00285843
0.00394043
0.00224658
0.00141417
0.00165665
0.00315698
0.00604875
0.00363268
0.00332573
0.00483509
0.00272892
0.00109811
0.00137715
0.00125239
0.000909598
0.00105208
0.00369602
0.0016013
0.00278933
0.00273208
0.00327013
0.00306558
0.00466443
0.00221206
0.0050177
0.010187
0.00276584
0.00567094
0.00123147
0.00463325
0.00308146
0.00232709
0.00168702
0.00294091
0.00469904
0.00960264
0.00733356
0.00341399
0.000867338
0.00316203
0.00369101
0.00106948
0.00433553
0.0028124
0.00549601
0.00721569
0.0063787
0.00173507
0.00155773
0.00735255
0.00667278
0.00405338
0.00810272
0.00484404
0.0015152
0.000884111
0.00123309
0.00496009
0.00315199
0.0010079
0.00280498
0.00171987
0.00493023
0.00606831
0.0100865
0.00657079
0.00118694
0.00627873
0.00129337
0.00341766
0.0023861
0.00421067
0.00135966
0.00454175
0.00661396
0.00328441
0.00669622
0.00267533
0.00422578
0.00199242
0.00147628
0.00665907
0.00311912
0.00154133
0.00450348
0.0025139
0.00342104
0.000904742
0.00364988
0.00461628
0.0064468
0.00408714
0.00784261
0.00110217
0.00322844
0.00136259
0.00508982
0.00374761
0.00592434
0.00207826
0.000968843
0.00267567
0.00681669
0.00128675
0.0015626
0.00192252
0.00354068
0.0083824
0.00158638
0.00431361
0.00388062
0.00802081
0.00084476
0.00489893
0.0041073
0.00360518
0.000938877
0.00477279
0.000875043
0.00289846
0.00636052
0.00331741
0.00909186
0.000908784
0.00292146
0.00321401
0.00271197
0.00106014
0.00405025
0.00442404
0.00323202
0.00851806
0.000871936
0.00113839
0.00180271
0.00141198
0.00242376
0.00132145
0.000994985
0.00538795
0.00258724
0.00514583
0.00178118
0.00261141
0.00136727
0.0010852
0.00663539
0.00178015
0.00341851
0.0031896
0.00320074
0.00887779
0.00238276
0.00150598
0.00955314
0.00140052
0.00731951
0.00325269
0.00335577
0.00131825
0.00702799
0.00263492
0.00950205
0.0019824
0.000924712
0.00172299
0.00144295
0.00363245
0.00456062
0.00420266
0.00489503
0.00336584
0.0020691
0.00147138
0.00162461
0.00748515
0.00163136
0.00160105
0.00318721
0.0011446
0.00181828
0.0015809
0.00371157
0.00651252
0.00142926
0.00222384
0.00597617
0.00391738
0.0027997
0.00657013
0.00188117
0.00260108
0.00283415
0.00671082
0.0010296
0.00550986
0.00100913
0.00304196
0.00399002
0.0030085
0.00194309
0.00323011
0.00110885
0.00459277
0.00295929
0.00105432
0.00143414
0.00176016
0.00246151
0.000931582
0.00248297
0.00158314
0.0047007
0.00145311
0.00139634
0.0029665
0.0018988
0.00729577
0.00210788
0.00484888
0.00686124
0.00286381
0.00673709
0.00107076
0.00209165
0.00115125
0.00358481
0.00154648
0.00195883
0.00697237
0.00224096
0.00582046
0.00409776
0.00680464
0.00098462
0.000973214
0.00623588
0.0020148
0.00664162
0.0029468
0.00206306
0.0013174
0.00162435
0.00177934
0.00134226
0.00343707
0.00734729
0.00477253
0.00121613
0.00116507
0.00684459
0.0014801
0.00447045
0.00287963
0.0028314
0.00185924
0.00210608
0.00380674
0.00160385
0.00425578
0.00279797
0.00108035
0.00483334
0.00219432
0.00344223
0.00152783
0.00131026
0.000987627
0.000980793
0.00163329
0.00108905
0.00145434
0.00092863
0.00270162
0.00254234
0.00312559
0.00883981
0.000964405
0.00121658
0.00130539
0.00490065
0.00366442
0.00114311
0.00128792
0.00114324
0.00381529
0.00149377
0.00357651
0.00317233
0.0173399
0.00124755
0.00310303
0.00655862
0.00112579
0.00185636
0.0052264
0.00191715
0.00336179
0.00124084
0.00319795
0.00392069
0.00298945
0.00287266
0.00923344
0.00460873
0.000943018
0.00311527
0.0064145
0.00383369
0.00300126
0.0012438
0.00406194
0.00194364
0.00292374
0.00279855
0.00165351
0.00166898
0.00400815
0.00205191
0.00219802
0.00114611
0.00173344
0.00184112
0.00368444
0.00327704
0.00504198
0.00304035
0.00140804
0.00189583
0.005082
0.00305696
0.00129458
0.00318891
0.00375894
0.00277882
0.00250699
0.00267987
0.0035124
0.00268706
0.00269361
0.00283736
0.00375121
0.00870481
0.0011595
0.00126527
0.00492917
0.003366
0.00240609
0.000805105
0.00504911
0.00252071
0.0011168
0.00415897
0.00413174
0.00363192
0.00166879
0.0013971
0.00336152
0.0151276
0.00125349
0.00354698
0.00743657
0.00359703
0.00462707
0.00148852
0.002684
0.00251745
0.00451101
0.00287864
0.00234132
0.00136152
0.00444103
0.00334776
0.00454484
0.00147068
0.00261754
0.00266136
0.00130397
0.00376508
0.0029556
0.00188167
0.00250959
0.00104281
0.00361623
0.0037586
0.000909681
0.00343146
0.00309661
0.00284583
0.00365123
0.00387879
0.00486433
0.00317592
0.00270095
0.00581916
0.00330343
0.00106394
0.00139768
0.00370849
0.00731198
0.00255873
0.00347959
0.00092237
0.00675458
0.00468776
0.001344
0.00402556
0.00127982
0.00126239
0.00132171
0.00663383
0.000882818
0.00238089
0.00294643
0.00407709
0.00351251
0.00281892
0.00228556
0.00339517
0.000968531
0.00156499
0.00482402
0.00122143
0.00213815
0.00345404
0.00256553
0.00219999
0.00148966
0.00115007
0.00645573
0.00129439
0.00151677
0.00453228
0.00109911
0.00472593
0.00222387
0.00115539
0.00327684
0.00780333
0.00325611
0.00154347
0.0029354
0.00136
0.00156231
0.0063533
0.00240723
0.00183677
0.00299968
0.00794322
0.00449249
0.0036528
0.00152226
0.00319093
0.00155997
0.00300007
0.0017741
0.00480608
0.00116197
0.00350365
0.00171475
0.0032624
0.00119321
0.00698246
0.0015973
0.00158017
0.0035932
0.0051864
0.00184517
0.000965549
0.00531905
0.00213705
0.00222815
0.00306609
0.00183005
0.00135276
0.0053779
0.0023923
0.00124661
0.00691754
0.00439851
0.00397275
0.00263322
0.00148692
0.00223595
0.00316116
0.00258675
0.00576096
0.00114207
0.0018091
0.00212142
0.00355517
0.000963227
0.00146074
0.00502346
0.00491591
0.00173241
0.00126939
0.00648217
0.00651645
0.00246506
0.00125436
0.00221663
0.00104422
0.00140518
0.0016116
0.00279528
0.0031117
0.0021038
0.00272642
0.00151286
0.00154252
0.00489462
0.00636963
0.00277632
0.00096169
0.00107004
0.00241719
0.00222356
0.00480808
0.00249811
0.00314826
0.00485154
0.00698352
0.00296236
0.00296891
0.00549517
0.00693443
0.00302488
0.00128614
0.00704148
0.00186509
0.00301788
0.00213545
0.00310581
0.00133562
0.00206866
0.00633004
0.00435824
0.00334347
0.00269623
0.000974373
0.00207299
0.00311942
0.00317941
0.00417612
0.00169536
0.00757731
0.00138478
0.00109438
0.0012667
0.00328428
0.0069277
0.00366343
0.00284261
0.000891415
0.00311159
0.00105312
0.00131401
0.00457367
0.00354853
0.0173449
0.00102781
0.00157604
0.000985431
0.00295461
0.0016319
0.000918431
0.0013272
0.00143135
0.00162169
0.00236547
0.00134477
0.00321931
0.0067025
0.00240005
0.0051079
0.00115783
0.0012592
0.00164873
0.00632383
0.00165319
0.00277225
0.00669961
0.00657853
0.00130557
0.00298533
0.00122806
0.00132665
0.00165726
0.00115391
0.00588879
0.00455692
0.00472933
0.00370069
0.00103966
0.00151403
0.00115975
0.00107427
0.00122763
0.00745873
0.00112958
0.00636793
0.00237781
0.00114287
0.00610089
0.00354276
0.00121809
0.00114062
0.00138253
0.00261373
0.00499919
0.00161717
0.00454458
0.0039263
0.00409765
0.00141944
0.00218402
0.00503265
0.00323853
0.00462935
0.00268882
0.00261785
0.00290332
0.00363319
0.0022832
0.0025266
0.0020909
0.002354
0.00529167
0.00454231
0.00273057
0.0010458
0.0030246
0.00392635
0.00114271
0.00129561
0.00122198
0.00649503
0.0124191
0.00337754
0.00213585
0.0027768
0.00136738
0.00619572
0.00450732
0.00142551
0.00124056
0.00301817
0.0037961
0.00218405
0.00251296
0.00296487
0.00342585
0.00224579
0.00165841
0.00143522
0.0012329
0.00105153
0.00156413
0.0025546
0.00362965
0.00128917
0.00497739
0.00302191
0.00233866
0.00345071
0.00118296
0.00118811
0.00238666
0.00170587
0.00103276
0.00280352
0.00249845
0.00200189
0.0038538
0.00600056
0.00306675
0.00351915
0.00663016
0.00150374
0.00136351
0.00312051
0.0013939
0.00705968
0.00111821
0.00162486
0.00164855
0.00271124
0.000950048
0.00707749
0.00106079
0.00651806
0.00114587
0.00702637
0.00191766
0.00113814
0.00290334
0.00681128
0.00342166
0.00127077
0.00124627
0.00309175
0.00331755
0.00127346
0.00349548
0.00494618
0.00332414
0.00123901
0.00289048
0.00287258
0.00562113
0.00194123
0.00311556
0.00105844
0.00124054
0.00108426
0.00126134
0.00111088
0.00614785
0.00485737
0.00591141
0.00157952
0.00406202
0.00458267
0.00661032
0.00305101
0.00679207
0.00221193
0.00681901
0.00275374
0.0041078
0.00154079
0.00290255
0.00364213
0.00457245
0.0032327
0.00362486
0.00245657
0.00109958
0.00925922
0.00248053
0.00665334
0.00120839
0.00189606
0.00348607
0.00153845
0.0019193
0.00286881
0.00158489
0.00366637
0.00505094
0.00134606
0.00378298
0.00500716
0.00154451
0.00165381
0.00468715
0.00631845
0.00116212
0.00426635
0.00295166
0.00685355
0.00297583
0.0048201
0.00650044
0.0046895
0.00726144
0.00110546
0.00148648
0.00349593
0.0066292
0.00264813
0.000950567
0.00135172
0.0010707
0.00212124
0.00472393
0.00215252
0.00912311
0.0016055
0.00404391
0.00106409
0.00679744
0.00144345
0.00138009
0.00672728
0.00476627
0.0010807
0.00124782
0.00606904
0.00188077
0.0014868
0.00356209
0.00232659
0.00434144
0.000787639
0.00164073
0.0033827
0.00124828
0.00130519
0.0028995
0.00131258
0.00174352
0.00112852
0.00396729
0.00104455
0.00118311
0.00113641
0.00161263
0.00377452
0.00130194
0.00652227
0.00105302
0.00700728
0.0128279
0.00336312
0.0012769
0.00135973
0.00492167
0.00201787
0.00122255
0.00176
0.000922948
0.00723648
0.00702563
0.0089021
0.00321275
0.00599355
0.00170854
0.00450671
0.00126172
0.00498036
0.0061809
0.00383139
0.00296193
0.00259762
0.00112193
0.00296993
0.00477187
0.00461604
0.00098269
0.0017517
0.00714001
0.00119373
0.00297053
0.00167497
0.00310467
0.0018386
0.0032395
0.00112681
0.00127674
0.00170485
0.00371991
0.00426092
0.00359036
0.00483651
0.00101341
0.00290232
0.00290662
0.00306002
0.00103557
0.00132267
0.00179162
0.00297444
0.00098705
0.00609774
0.00336252
0.001607
0.00450448
0.00150464
0.0014056
0.00104219
0.0013803
0.00177028
0.00129703
0.0015506
0.0025152
0.00106515
0.00238288
0.00657957
0.00606425
0.00129663
0.0010022
0.00170559
0.00155852
0.00113837
0.00646629
0.00143894
0.00103049
0.00178429
0.00137064
0.00476817
0.00301737
0.00386624
0.00102951
0.0027618
0.00121726
0.00659195
0.000764092
0.00460249
0.00158572
0.00337767
0.0032056
0.00146907
0.0021207
0.00459072
0.00634087
0.00107395
0.00870436
0.0021757
0.00264433
0.00158184
0.00169782
0.00149807
0.00113064
0.00614525
0.00119346
0.000861691
0.00369979
0.00674883
0.00216597
0.00108511
0.00153755
0.0013103
0.00466618
0.00258775
0.0060272
0.00199346
0.00113073
0.00154522
0.000757782
0.00442953
0.00666252
0.00354711
0.00301021
0.00447424
0.00106071
0.00461275
0.00100057
0.00320602
0.00669598
0.00108472
0.00172221
0.00158139
0.00310363
0.000895407
0.00121782
0.00502086
0.00361541
0.00621284
0.00248554
0.00318435
0.00358299
0.0013231
0.00736126
0.00424667
0.0044167
0.00415711
0.00181451
0.00136889
0.00194762
0.0072535
0.000789019
0.00164144
0.00131829
0.00350354
0.000968901
0.00303518
0.0014638
0.00265303
0.00438327
0.00290965
0.00177339
0.00430724
0.0023345
0.00150565
0.00129144
0.00181505
0.00225989
0.00316896
0.00466592
0.00377063
0.00320146
0.00648629
0.00111793
0.00439759
0.00192379
0.00662063
0.00433132
0.00315023
0.00202028
0.00128742
0.00439368
0.00622304
0.00160973
0.00178212
0.00286312
0.00117553
0.00636364
0.00155427
0.00467905
0.00102524
0.00207394
0.00291227
0.00208164
0.00289662
0.00200225
0.0024247
0.00289591
0.0018755
0.00279885
0.00117721
0.00557241
0.00708587
0.0012368
0.00753498
0.000740824
0.000981505
0.00153595
0.00371889
0.000932927
0.00475251
0.00373357
0.00314972
0.00140595
0.00395965
0.000829711
0.00354462
0.00183238
0.00109679
0.00440208
0.00120799
0.000862009
0.00147295
0.00141827
0.00690234
0.00646619
0.00246507
0.00113252
0.00282566
0.00129029
0.00778656
0.00405533
0.002625
0.00346823
0.00239841
0.00481805
0.00136783
0.00194237
0.00485668
0.00563961
0.00381072
0.00161053
0.00667704
0.00136354
0.00411534
0.00692577
0.00173024
0.00303567
0.00358959
0.00166012
0.00283957
0.0015061
0.00299303
0.0010033
0.00103275
0.00287502
0.00153424
0.00670651
0.00468933
0.000936562
0.00248449
0.00117016
0.00668766
0.00654502
0.0013507
0.00581362
0.00169094
0.00239839
0.0033965
0.0044287
0.00275653
0.0029609
0.00115317
0.00184331
0.00118725
0.00294095
0.00646095
0.00285159
0.00683701
0.00382642
0.00462394
0.00428237
0.00232541
0.00393952
0.00160276
0.00107192
0.00125316
0.00128749
0.00249765
0.0023131
0.00316083
0.00302209
0.00255089
0.00233177
0.00474328
0.00128481
0.00686029
0.00152575
0.00441491
0.00192246
0.00122705
0.00945632
0.00604094
0.00130394
0.00321727
0.006789
0.00149157
0.00638185
0.00309781
0.00275799
0.00225802
0.00371593
0.00442808
0.00111761
0.00305413
0.00357848
0.00221301
0.0022401
0.00290662
0.00436991
0.00110193
0.000914574
0.00387697
0.00233038
0.00246888
0.0022
0.0038456
0.00666602
0.00431675
0.0010289
0.00368957
0.00132648
0.00410519
0.00296689
0.00283312
0.000854962
0.00126415
0.00147475
0.0029734
0.00284235
0.00667892
0.00189833
0.00090425
0.00299026
0.00104515
0.00653281
0.0019161
0.00280621
0.00705192
0.0011001
0.00116701
0.00213591
0.00998174
0.00741463
0.00530647
0.00298918
0.00274076
0.00691646
0.00639509
0.0074607
0.00149912
0.00248069
0.00166363
0.00227633
0.0013576
0.00668438
0.00184639
0.000997406
0.00674863
0.00686039
0.00650189
0.00175544
0.00606216
0.0020034
0.00467724
0.0038391
0.00166827
0.0040923
0.00134096
0.00193475
0.0034861
0.00128787
0.00196422
0.0029311
0.00328789
0.00106433
0.00170493
0.00220577
0.00669367
0.00169408
0.00108715
0.000758294
0.00101428
0.00296173
0.00286427
0.00463724
0.00707782
0.00110669
0.00378794
0.00329545
0.00210314
0.00384267
0.00094696
0.00329892
0.000972516
0.00254778
0.00410538
0.00398012
0.00286642
0.00161821
0.00205952
0.00211848
0.00179202
0.00250575
0.00126781
0.00117519
0.000980272
0.00161388
0.00115521
0.00328769
0.00137973
0.00112366
0.00667687
0.00439284
0.00750756
0.00109827
0.00112201
0.0013448
0.00307589
0.00148288
0.00388396
0.00280832
0.00646226
0.000843789
0.00284806
0.00257445
0.00645571
0.0038135
0.00357286
0.00648238
0.0041775
0.00280254
0.00329318
0.00611105
0.00467274
0.0029176
0.00377588
0.00312317
0.00140492
0.00124145
0.00187781
0.00101235
0.00128527
0.00456257
0.00347917
0.00134789
0.00109353
0.00108168
0.00114545
0.00234327
0.00213799
0.00113814
0.00313952
0.00440033
0.00199745
0.00246885
0.00696238
0.0028977
0.00651421
0.00148055
0.00167914
0.00235366
0.00228251
0.00307398
0.00699279
0.00318178
0.00387641
0.00302043
0.00135689
0.00211516
0.00522031
0.0016936
0.00208096
0.00277891
0.00106488
0.00644163
0.0026334
0.00094416
0.00249502
0.00311028
0.00258025
0.00256288
0.00152658
0.00136442
0.00118234
0.00255363
0.00296304
0.00151856
0.00162791
0.00617272
0.00642862
0.00167211
0.000964669
0.00269575
0.0026908
0.00644984
0.00119137
0.00104817
0.00138568
0.0014512
0.00206142
0.00109555
0.00129441
0.00320489
0.000950925
0.00098659
0.00405833
0.00101995
0.00124161
0.00657689
0.000823435
0.00155068
0.00129217
0.0016281
0.00272608
0.00520614
0.00227855
0.00168552
0.00259945
0.00167777
0.00235821
0.000816196
0.00156655
0.000846679
0.00658866
0.00081623
0.00432043
0.00474707
0.00122673
0.00621269
0.00306679
0.00205193
0.00266602
0.00305331
0.0013328
0.00657475
0.00109629
0.00443157
0.00128314
0.00166634
0.00170011
0.00271634
0.00162712
0.001897
0.00351182
0.00208857
0.0019677
0.00186307
0.00457411
0.00170676
0.0035312
0.00312681
0.00302483
0.00126131
0.00218579
0.00247332
0.00641375
0.00137176
0.00682916
0.003159
0.0062925
0.00431474
0.00134012
0.00103673
0.00136313
0.00110634
0.00564131
0.0024395
0.00629157
0.00583806
0.00156585
0.00336641
0.00142083
0.00100551
0.00180357
0.0066648
0.00295701
0.00471759
0.00288242
0.00241818
0.00270515
0.00152054
0.00149543
0.00293048
0.0031499
0.00601492
0.00147555
0.00226436
0.00317905
0.00165592
0.00296454
0.00264492
0.0009214
0.00328865
0.00152414
0.00311223
0.00126778
0.00155717
0.00297009
0.0016876
0.00214852
0.00151206
0.00199065
0.00176991
0.00324677
0.00159587
0.00473715
0.00232874
0.00332971
0.00274654
0.000891049
0.00358256
0.0105144
0.00208217
0.00282237
0.00140678
0.00108504
0.00424679
0.000878742
0.00228162
0.00192541
0.00142511
0.00301275
0.00309557
0.0010007
0.0044043
0.00457404
0.00698525
0.00107649
0.00231821
0.00322416
0.00123986
0.00128479
0.00130752
0.00349433
0.00114952
0.00290615
0.0031168
0.0036183
0.00385245
0.00515788
0.00726356
0.0068991
0.00256634
0.0021498
0.00324883
0.00324515
0.00154802
0.0017923
0.00266211
0.00672954
0.00421864
0.00260976
0.00275286
0.00357661
0.00298119
0.00350775
0.000763816
0.0042048
0.00217487
0.00136025
0.00131363
0.00181535
0.00136817
0.00258074
0.00122703
0.00349696
0.00128989
0.0013324
0.00298946
0.00276057
0.00452268
0.0028206
0.00354793
0.00309879
0.00487299
0.00140029
0.00543275
0.00283971
0.00134723
0.00404239
0.00344459
0.00372915
0.00218512
0.00106786
0.00272798
0.00175086
0.00240096
0.00167714
0.00161319
0.00168915
0.00265249
0.00185116
0.00306327
0.00329696
0.00124787
0.00274211
0.00138466
0.00138717
0.00144797
0.00650081
0.00157011
0.00650223
0.00153765
0.00157556
0.00138004
0.00258941
0.00167111
0.00472923
0.00468666
0.00250337
0.00147198
0.00346227
0.00112626
0.0044108
0.00235453
0.00103211
0.00179395
0.0010445
0.00246467
0.00109104
0.00219876
0.00438633
0.00312075
0.00499674
0.00475079
0.00281559
0.000945533
0.00118945
0.00398547
0.00493709
0.00427204
0.00181585
0.00134694
0.00145499
0.00150301
0.00448963
0.00370975
0.00460972
0.00279502
0.00303858
0.0032363
0.00181671
0.00271726
0.00613991
0.00138422
0.00414217
0.00756544
0.00674092
0.00173124
0.000859612
0.00294109
0.00283096
0.00373647
0.00519649
0.00102944
0.00258776
0.0020922
0.00189518
0.00703106
0.00110672
0.00232063
0.00219674
0.00151149
0.000942422
0.00284123
0.00181
0.0026268
0.0012913
0.0065875
0.00148063
0.00315238
0.00161504
0.00519761
0.0016516
0.0011795
0.00208018
0.00105477
0.00638516
0.00108944
0.00111878
0.00275745
0.00129516
0.00187407
0.0014969
0.00202796
0.00110851
0.00318403
0.00314419
0.00311756
0.00142592
0.00259946
0.00121227
0.00155089
0.00209981
0.00195816
0.00147575
0.00476261
0.00145642
0.0037006
0.00535785
0.00102561
0.00541336
0.00111911
0.00263825
0.00431645
0.00154604
0.00421997
0.00627633
0.00648862
0.00500266
0.00450677
0.00246264
0.00120119
0.00303531
0.000965324
0.00310268
0.0022948
0.00351048
0.00207966
0.0067246
0.00105191
0.00106308
0.000809534
0.00195477
0.00617572
0.00465661
0.00109783
0.00640533
0.00304015
0.00452389
0.00102336
0.00246181
0.00360301
0.00381147
0.00204066
0.00452482
0.00630514
0.00470088
0.00147149
0.00280785
0.00644912
0.00108075
0.00143863
0.00621677
0.00137894
0.00549763
0.000893876
0.00131503
0.00327377
0.00231434
0.00960745
0.0010296
0.00492814
0.00316839
0.00178144
0.00117419
0.00222363
0.00150422
0.00104298
0.00546798
0.00146504
0.00118485
0.00377645
0.00330798
0.00301002
0.00669948
0.00208233
0.00188891
0.00286622
0.00251918
0.00136263
0.0071167
0.00635609
0.00437028
0.00285692
0.00508326
0.000909616
0.0068801
0.00436173
0.00168726
0.00302684
0.00459918
0.0047908
0.00121428
0.00194876
0.00334251
0.0030488
0.00125178
0.00193324
0.00101919
0.00111831
0.00192205
0.0029868
0.00315123
0.00693968
0.00178758
0.00161306
0.0027772
0.0055529
0.00292057
0.00256316
0.00118897
0.00176295
0.00728302
0.000975081
0.00105477
0.00696429
0.00161167
0.0021462
0.00163613
0.00389825
0.00271357
0.00400985
0.00316476
0.00279698
0.00645113
0.00278244
0.00211102
0.00270851
0.00116774
0.00222023
0.00231573
0.00273255
0.00321238
0.00628506
0.00261919
0.00155432
0.00124475
0.00211159
0.00318415
0.00113633
0.00330459
0.00270024
0.0014834
0.00426966
0.000954841
0.00189835
0.00129752
0.00456668
0.00599686
0.00278264
0.00215121
0.0039711
0.00516244
0.00143015
0.00168941
0.00155656
0.0068198
0.00145047
0.00225143
0.00248423
0.00180695
0.00131722
0.000968487
0.00364259
0.00118799
0.0022899
0.00153897
0.00634718
0.00701503
0.00113469
0.00120821
0.00163999
0.00187738
0.00268532
0.0020393
0.00306282
0.00221949
0.0017395
0.00271748
0.00118153
0.00205252
0.00234715
0.00129866
0.00221842
0.00124648
0.00590809
0.000889624
0.00128113
0.0010834
0.00101785
0.00116483
0.00132565
0.00450804
0.00130685
0.00220612
0.0015512
0.000893981
0.00454372
0.00247614
0.0010095
0.00718977
0.0015885
0.00487063
0.00100692
0.00144866
0.00106079
0.00104541
0.000782451
0.00442771
0.00663722
0.00998493
0.00358331
0.00440893
0.00177022
0.00234662
0.00428368
0.00386977
0.00103499
0.00308984
0.00109392
0.000931731
0.00192791
0.00347757
0.00213769
0.00696489
0.00251993
0.0045852
0.00706499
0.00164754
0.002606
0.00211344
0.00190033
0.00293567
0.00135167
0.0015719
0.00143151
0.00179255
0.00130925
0.00364021
0.00553136
0.00113905
0.0019168
0.00127414
0.00346598
0.00142182
0.00129908
0.00162899
0.00182621
0.00192081
0.00154079
0.00119054
0.00179409
0.00091428
0.0012967
0.00115164
0.00128303
0.00482712
0.00133858
0.00119717
0.00163742
0.00281777
0.00115207
0.00279536
0.00456084
0.00089101
0.00266614
0.00375905
0.00168759
0.00146768
0.00325732
0.00253311
0.00121947
0.00642488
0.00130708
0.00179641
0.00239286
0.00275623
0.00236206
0.00171247
0.000965187
0.00182224
0.00106145
0.00123549
0.00158746
0.00710297
0.00112379
0.0016096
0.00217183
0.00126695
0.00148201
0.0016784
0.0124054
0.00328903
0.00428708
0.00112399
0.00244116
0.00197659
0.00144665
0.0013323
0.00169739
0.00400967
0.00621446
0.0021477
0.00189733
0.00895021
0.00433379
0.00125347
0.00142181
0.00342869
0.00092131
0.00100671
0.000916884
0.00125971
0.00679488
0.00134557
0.00200099
0.00454008
0.00195734
0.00285998
0.00130302
0.0063037
0.00475403
0.00135896
0.00307462
0.00108056
0.00343886
0.00122165
0.00477856
0.00532284
0.000977764
0.00615094
0.0033645
0.00108246
0.00624184
0.001554
0.0037276
0.00277317
0.00337033
0.00281389
0.00500736
0.00496103
0.00119123
0.00204796
0.00118558
0.00330537
0.00152735
0.00139869
0.00103415
0.00279056
0.00124815
0.00362942
0.00120689
0.00263692
0.00161449
0.000973436
0.00223488
0.00799505
0.00102721
0.00105174
0.00176557
0.00525224
0.000793794
0.00741494
0.00149499
0.00152153
0.00272712
0.00230194
0.000935414
0.00159667
0.00839691
0.00356539
0.00200568
0.00150978
0.00337782
0.00273953
0.00170119
0.00117295
0.00292426
0.00647142
0.00262358
0.00222646
0.0020313
0.00272604
0.00107326
0.00110177
0.00674464
0.00175007
0.00700694
0.00437191
0.00104053
0.00164776
0.00112381
0.00547809
0.00236212
0.00185764
0.00129796
0.00284023
0.00152008
0.00480872
0.00157746
0.00146185
0.000942345
0.00128137
0.00364154
0.00143402
0.00627724
0.00123244
0.00366583
0.00139682
0.00662101
0.0036334
0.00144376
0.00302774
0.00125102
0.00261965
0.00162932
0.00131923
0.0032777
0.00408146
0.00292701
0.00698724
0.00182928
0.00532462
0.00206027
0.0011316
0.00152607
0.00440906
0.00149095
0.00255867
0.00221564
0.00264172
0.00144231
0.00691612
0.00665831
0.00584801
0.00658309
0.00192502
0.00466852
0.00266347
0.00119324
0.00101395
0.00248672
0.00528916
0.0032415
0.00322457
0.00115909
0.00483093
0.0019125
0.00115419
0.00120478
0.00276496
0.00438017
0.00507469
0.00178418
0.00320983
0.00180827
0.00104401
0.000982188
0.00414214
0.00409987
0.000771653
0.00127577
0.00326075