/*--------------------------------*- C++ -*----------------------------------*\
| =========                 |                                                 |
| \\      /  F ield         | OpenFOAM: The Open Source CFD Toolbox           |
|  \\    /   O peration     | Version:  2406                                  |
|   \\  /    A nd           | Website:  www.openfoam.com                      |
|    \\/     M anipulation  |                                                 |
\*---------------------------------------------------------------------------*/
FoamFile
{
    version     2.0;
    format      ascii;
    arch        "LSB;label=32;scalar=64";
    class       volVectorField;
    location    "36";
    object      momentum:momentum;
}
// * * * * * * * * * * * * * * * * * * * * * * * * * * * * * * * * * * * * * //

dimensions      [1 1 -1 0 0 0 0];

internalField   nonuniform List<vector> 
59516
(
(2.3101e-07 3.78785e-10 -1.10807e-09)
(1.73236e-07 -1.39208e-10 -6.48516e-10)
(2.10056e-07 -2.21018e-09 -5.10463e-10)
(1.75418e-07 2.42331e-09 2.54968e-09)
(2.00311e-07 4.07547e-10 -7.9603e-09)
(5.03643e-08 -2.40942e-09 -5.37896e-09)
(2.14053e-07 -3.56265e-10 -2.65216e-09)
(2.03507e-07 1.6309e-09 2.72715e-11)
(1.6168e-07 1.28106e-09 1.53508e-10)
(8.4618e-08 -1.48758e-09 3.35189e-09)
(2.06045e-07 6.34829e-11 -2.40466e-09)
(1.04728e-07 8.70497e-10 -5.87505e-09)
(3.31374e-07 2.90532e-09 -3.94048e-10)
(1.66487e-08 -6.65145e-11 -1.80724e-10)
(1.60676e-07 4.00104e-09 8.25934e-09)
(8.9294e-08 6.16515e-09 -3.04208e-09)
(2.60554e-07 1.84157e-10 -4.65718e-10)
(1.60397e-07 8.97342e-09 -9.5487e-09)
(3.3211e-07 1.50328e-08 2.60558e-09)
(3.61931e-07 -7.45914e-10 1.28624e-09)
(1.01471e-07 1.30256e-09 -1.94629e-09)
(3.17799e-07 -6.60812e-10 7.98093e-10)
(3.49914e-07 1.07341e-09 -1.34676e-09)
(3.69919e-08 -1.1372e-09 -2.22372e-10)
(3.07927e-07 -1.0618e-09 2.10478e-09)
(2.11568e-07 4.32159e-09 2.61925e-09)
(5.55366e-08 1.09111e-09 -3.57468e-09)
(7.49524e-08 6.14921e-09 5.25855e-10)
(1.47366e-07 5.18291e-09 -5.19447e-10)
(1.44963e-08 -2.26395e-09 5.88615e-10)
(1.89415e-07 -3.67425e-08 -8.08025e-09)
(8.45904e-08 6.46854e-09 -1.0322e-09)
(1.76532e-07 1.84642e-10 1.10186e-09)
(1.79106e-07 -1.13822e-09 3.83458e-09)
(1.33026e-07 3.81885e-09 3.05617e-09)
(3.98976e-07 -3.86341e-10 -2.75389e-10)
(1.40721e-08 -1.35782e-09 -1.97469e-09)
(1.32164e-07 5.03381e-09 -1.25391e-08)
(2.71139e-07 -9.07387e-09 -5.30204e-10)
(2.75196e-07 -2.57892e-09 -3.04197e-10)
(2.66641e-07 -1.85463e-09 1.96661e-10)
(4.05955e-07 -2.19012e-08 -2.01622e-08)
(3.42364e-07 -5.64365e-09 -4.31048e-09)
(1.14862e-07 -8.32131e-10 4.36312e-10)
(2.66366e-07 -5.61595e-09 3.19952e-10)
(1.07992e-07 -1.6168e-09 -2.63911e-09)
(3.26482e-07 -5.11865e-09 -8.00351e-09)
(2.4972e-07 -4.55117e-09 -6.04402e-10)
(2.51819e-07 -2.03291e-08 2.80219e-08)
(2.38483e-07 8.7142e-09 7.36561e-09)
(1.639e-07 1.65015e-08 -2.2888e-08)
(8.09913e-08 -6.52194e-09 4.38749e-09)
(3.23657e-07 2.38218e-09 -5.82637e-09)
(3.0676e-07 -1.03811e-09 -1.69902e-10)
(8.43194e-08 4.85322e-09 6.99635e-11)
(2.47606e-07 3.04062e-09 -9.36462e-10)
(2.02166e-07 1.08989e-08 1.15122e-08)
(8.33268e-08 6.82765e-09 -4.82701e-09)
(1.97997e-07 -8.11802e-11 -8.88487e-11)
(1.45389e-07 6.16219e-09 7.8662e-09)
(2.07013e-07 -2.78684e-10 6.06945e-10)
(1.63336e-08 1.99485e-09 -6.86778e-10)
(2.53952e-07 6.10212e-10 -4.89027e-10)
(3.3057e-07 2.68341e-09 1.00718e-09)
(3.01368e-07 9.46171e-10 -1.36919e-09)
(2.13208e-07 3.98656e-09 5.31243e-09)
(1.96217e-08 -1.31131e-09 1.78311e-09)
(7.00407e-08 3.87296e-10 -3.10993e-10)
(1.98156e-07 -8.23333e-09 3.62616e-08)
(1.70152e-07 1.55092e-09 -1.70333e-09)
(5.57337e-08 1.60119e-09 4.62425e-10)
(1.53005e-07 8.04448e-10 8.98751e-11)
(2.5019e-08 1.5697e-09 -3.85268e-09)
(1.85853e-07 -1.2346e-10 1.79635e-10)
(3.52505e-07 -7.28096e-10 1.43014e-10)
(3.56636e-07 -1.90921e-09 -2.45696e-09)
(2.107e-07 -1.31746e-09 -2.26547e-09)
(2.2455e-07 6.07078e-11 -6.11138e-10)
(9.02114e-08 -3.1086e-09 2.83487e-09)
(1.90689e-07 3.44677e-09 7.93884e-09)
(5.43287e-08 3.28184e-09 1.47297e-09)
(1.69792e-07 3.90101e-09 5.43658e-09)
(1.82073e-07 2.15458e-09 5.86031e-09)
(1.95826e-08 -7.5823e-10 2.74834e-09)
(2.13328e-07 4.04617e-09 7.2793e-09)
(3.60554e-07 -6.09494e-10 1.14139e-09)
(3.37434e-08 -1.24931e-09 5.34378e-10)
(5.01827e-07 1.28139e-09 2.50118e-09)
(1.16231e-07 1.59431e-09 5.17782e-09)
(1.67189e-07 1.28575e-08 -8.67367e-09)
(1.83292e-07 -1.11151e-09 -1.55198e-08)
(1.87476e-07 2.46771e-09 -2.09209e-10)
(2.46914e-07 -1.24654e-10 -1.08537e-10)
(1.81683e-07 1.54791e-09 -3.41868e-10)
(1.7557e-07 3.81401e-10 6.52551e-11)
(1.83478e-07 -1.76601e-08 6.68937e-09)
(1.24332e-07 -5.88712e-10 8.07047e-10)
(8.94689e-08 -2.88637e-09 -6.92296e-09)
(1.16794e-07 4.03827e-09 -1.47201e-09)
(2.0604e-07 -1.17157e-09 2.04458e-09)
(6.59236e-08 1.15655e-09 2.46283e-09)
(2.8395e-08 1.38512e-09 -3.25438e-09)
(2.50631e-08 8.85861e-10 3.48739e-09)
(9.00626e-08 -1.36381e-09 -4.62347e-09)
(2.36317e-07 9.78597e-10 -4.59305e-10)
(1.60598e-07 4.04139e-11 5.12939e-10)
(5.93161e-08 5.15979e-09 -2.11596e-09)
(1.42727e-07 4.56185e-10 -8.64136e-10)
(1.81877e-07 -1.24187e-09 -1.07497e-10)
(1.98477e-07 1.26245e-09 -8.1678e-09)
(2.80163e-07 2.86703e-08 -3.00379e-08)
(4.63265e-08 4.71247e-09 -5.74104e-10)
(1.97e-07 2.42856e-09 -1.17124e-08)
(2.1921e-07 3.20468e-08 -1.60764e-08)
(2.1615e-07 -9.59744e-11 -9.40367e-11)
(1.42718e-07 1.5029e-09 1.28876e-09)
(1.33641e-07 1.30876e-09 -5.31212e-09)
(1.45138e-07 1.55789e-10 9.03217e-10)
(1.96351e-08 -2.62165e-10 9.35057e-10)
(2.608e-07 2.72412e-09 6.46822e-10)
(3.81089e-07 -9.70235e-10 6.3078e-10)
(1.68816e-07 1.32641e-10 3.10465e-10)
(1.57544e-07 -4.28284e-10 5.41559e-10)
(1.75188e-07 -3.96842e-10 5.27462e-10)
(1.32895e-07 -1.74826e-08 2.81601e-09)
(1.4534e-07 1.80307e-09 -4.08878e-09)
(3.83553e-08 -6.24253e-10 2.53248e-09)
(2.11915e-07 -1.9855e-08 -1.31881e-09)
(1.63213e-07 -5.00608e-09 2.3835e-08)
(1.49959e-07 4.85909e-10 1.36209e-10)
(2.63928e-07 7.13152e-10 1.08978e-09)
(3.33727e-07 4.49726e-09 5.49725e-09)
(2.4256e-08 1.40064e-09 -1.68339e-09)
(2.55144e-07 -1.83467e-10 1.11036e-09)
(3.26537e-07 3.28281e-09 9.4106e-10)
(2.03026e-07 -1.51579e-09 -3.05306e-09)
(1.51918e-07 1.78876e-08 -1.25426e-08)
(3.19127e-07 -8.56066e-10 1.23938e-09)
(5.54799e-08 3.73273e-09 1.58181e-10)
(1.64595e-07 7.50464e-10 -2.1107e-09)
(8.11536e-08 -1.6379e-09 -4.07079e-09)
(3.08058e-07 -5.24066e-10 3.2954e-10)
(1.48017e-08 6.64314e-10 1.29937e-09)
(1.53584e-07 -1.47897e-09 -5.2858e-10)
(2.04489e-07 5.12502e-10 1.61776e-10)
(2.83006e-07 2.8436e-09 -6.05517e-11)
(2.03695e-07 -5.32294e-09 -1.42386e-09)
(2.09656e-07 1.48985e-09 -3.84035e-09)
(6.4039e-08 -1.04036e-09 1.78649e-09)
(2.13089e-07 -1.49794e-09 -1.69165e-09)
(3.29923e-07 -1.3018e-10 -2.54633e-09)
(5.6212e-08 -2.07068e-09 1.64554e-11)
(3.74824e-07 -1.94559e-09 2.44464e-09)
(2.15859e-07 -6.45212e-10 9.80425e-10)
(1.65424e-07 -8.31526e-10 3.49643e-09)
(1.57492e-08 -3.30047e-10 1.71585e-09)
(2.85996e-07 1.77774e-10 -4.87562e-10)
(3.39687e-07 3.28202e-09 -6.3599e-10)
(1.34261e-07 1.85281e-09 1.72545e-10)
(1.70028e-08 2.05349e-09 -2.24257e-09)
(9.32861e-08 2.08035e-09 -4.73094e-09)
(1.17094e-07 -6.13388e-09 -4.04741e-09)
(4.24757e-08 -1.79079e-09 4.17031e-10)
(2.41632e-08 -2.1075e-10 -4.82894e-10)
(1.68819e-07 2.84476e-09 3.84591e-09)
(3.14624e-07 5.96116e-10 2.07403e-09)
(1.63143e-07 -1.75451e-09 9.29577e-10)
(2.65722e-07 8.4902e-10 -1.61638e-10)
(1.84051e-08 -1.11843e-09 2.13474e-09)
(2.134e-07 -7.18147e-10 4.17062e-10)
(9.0587e-08 1.40797e-09 1.21352e-09)
(7.08777e-08 1.00319e-09 -1.07615e-09)
(1.11523e-07 2.77774e-09 1.55193e-09)
(1.52342e-07 -7.55946e-10 7.35407e-10)
(8.99432e-08 -1.49095e-09 5.22382e-10)
(4.54617e-07 -3.19503e-09 -1.3575e-08)
(2.38075e-07 -1.33868e-10 -1.56827e-09)
(3.09289e-07 -8.45692e-09 -4.89839e-09)
(1.55924e-07 -2.19724e-09 7.41073e-09)
(6.61691e-08 -2.34562e-10 -8.45433e-10)
(3.0635e-07 3.81221e-09 1.72944e-09)
(4.53998e-08 -3.92377e-09 -1.70318e-09)
(3.18938e-08 -4.24762e-10 -2.52688e-09)
(1.10102e-07 -2.92209e-09 2.30537e-10)
(1.93664e-07 -1.95659e-10 6.95302e-10)
(1.01895e-07 5.03576e-10 1.19069e-09)
(4.87032e-08 -8.91114e-10 -3.75421e-09)
(2.16644e-08 -1.22873e-11 2.98025e-10)
(1.94928e-07 1.99982e-10 8.0999e-11)
(2.33657e-07 -3.86314e-09 -4.0557e-10)
(1.58384e-07 -8.59054e-10 3.25689e-09)
(1.21344e-07 7.22373e-09 2.73763e-10)
(2.09366e-07 -6.58772e-10 -2.24777e-10)
(9.94944e-08 4.04729e-09 -8.90045e-14)
(3.36771e-07 -6.42801e-10 -4.1144e-10)
(3.02846e-08 -2.48104e-10 8.48716e-10)
(1.02369e-07 1.30317e-09 -4.40677e-10)
(6.02724e-08 -1.56935e-09 3.84743e-10)
(1.91286e-07 4.74947e-09 6.31373e-09)
(2.61346e-07 9.38835e-10 -3.39625e-10)
(8.03425e-08 -2.66528e-09 3.70935e-10)
(1.80515e-07 -5.52691e-10 2.43087e-10)
(3.23156e-07 -2.05382e-09 2.72875e-09)
(1.70113e-08 1.86901e-09 -1.22088e-09)
(2.24897e-07 -2.55638e-09 -8.53478e-10)
(2.38209e-07 9.82858e-11 2.05335e-10)
(3.29224e-07 -5.70039e-11 7.0808e-11)
(1.94083e-07 -9.8328e-10 1.81567e-11)
(1.92402e-08 -5.51494e-10 1.72645e-10)
(3.1006e-07 -5.01505e-09 -9.69605e-11)
(6.39169e-08 4.48665e-09 3.77974e-09)
(2.55757e-08 -4.15296e-09 -6.59966e-10)
(2.32691e-07 6.5481e-10 -2.24199e-09)
(1.00078e-07 -1.95045e-09 1.37384e-09)
(3.01255e-07 3.16762e-09 2.88676e-10)
(2.78726e-07 -7.38871e-10 2.25755e-10)
(2.72936e-07 1.75448e-09 3.63164e-10)
(2.05616e-07 -1.4696e-09 6.96237e-10)
(8.74606e-08 3.59901e-09 -4.43343e-09)
(2.16467e-07 -5.81434e-10 9.42349e-10)
(1.25641e-07 5.00881e-09 3.95612e-09)
(1.99813e-07 9.34192e-10 -1.48234e-10)
(1.7402e-07 8.48958e-10 1.13197e-09)
(7.94267e-08 -3.74124e-10 1.4892e-09)
(2.84928e-07 -1.64575e-09 5.69692e-10)
(2.97674e-07 -9.84883e-11 -1.4349e-09)
(3.35468e-08 -3.52768e-10 1.70737e-09)
(6.90236e-08 2.24641e-09 -3.2461e-09)
(1.91792e-07 1.82404e-10 1.02834e-09)
(1.23914e-07 4.47585e-10 -8.95966e-09)
(2.33489e-07 -1.00991e-09 5.14714e-10)
(1.72736e-07 4.71078e-10 -4.93577e-10)
(2.99548e-07 9.04762e-10 1.84963e-09)
(2.83946e-08 -2.2776e-09 -1.59444e-09)
(3.30761e-08 9.00185e-10 -1.62016e-09)
(4.15296e-08 1.03781e-09 -1.46484e-09)
(1.1442e-07 6.30321e-10 8.04983e-10)
(1.80845e-07 -2.63562e-09 1.19001e-09)
(4.11155e-07 2.26546e-09 3.42199e-09)
(9.10071e-08 -1.87972e-09 2.2428e-09)
(2.35438e-07 -9.86902e-11 1.03608e-09)
(1.99583e-08 3.90309e-10 2.96008e-09)
(1.15079e-07 1.10671e-11 1.74544e-09)
(2.8696e-08 2.44629e-10 3.13477e-09)
(1.55277e-07 6.31901e-10 3.18925e-10)
(1.58929e-07 -8.20475e-10 -7.33818e-10)
(1.95539e-07 1.74878e-10 1.03934e-09)
(1.94753e-07 1.7164e-09 -4.14814e-09)
(2.70084e-07 -2.20008e-10 4.16015e-10)
(2.05598e-07 4.77841e-10 7.77439e-10)
(3.72942e-07 -3.19119e-09 1.12685e-09)
(2.13141e-07 1.8778e-10 1.08298e-09)
(1.80718e-07 2.39736e-10 8.1791e-10)
(2.80497e-07 7.22922e-10 -6.30374e-10)
(2.80975e-07 2.35993e-09 1.37672e-09)
(2.94986e-07 5.95072e-10 1.04248e-09)
(1.16994e-07 2.89445e-10 -4.74873e-10)
(2.80017e-07 1.25074e-09 2.61916e-09)
(8.50021e-08 -7.02018e-10 -4.72555e-09)
(1.02265e-07 8.10883e-10 3.57761e-09)
(2.21488e-07 1.38081e-09 -1.40645e-09)
(2.55794e-07 -1.1381e-09 1.29931e-09)
(2.44531e-07 5.35189e-09 3.12055e-09)
(2.72224e-07 -4.37113e-10 1.25362e-09)
(7.7001e-08 -8.68433e-11 1.66559e-09)
(1.12392e-07 4.53177e-09 -2.83687e-09)
(2.98541e-07 1.43536e-10 -1.62822e-09)
(2.22737e-07 4.03073e-09 1.33629e-09)
(6.46633e-08 -1.05938e-09 -9.36912e-10)
(7.78119e-08 9.90747e-11 -2.12567e-09)
(1.68755e-07 8.18778e-10 -4.67351e-09)
(1.78762e-07 -8.37723e-10 -3.22555e-10)
(3.18279e-07 -7.01735e-09 3.20352e-10)
(1.54727e-07 -1.87128e-09 1.47833e-09)
(3.25328e-07 -2.60989e-09 1.09675e-10)
(1.97058e-07 -1.23475e-09 5.44834e-09)
(2.06859e-08 2.48067e-09 -1.42707e-09)
(2.92077e-07 -3.44653e-10 2.03078e-09)
(3.04614e-08 1.9556e-09 -2.57249e-09)
(5.49876e-08 -2.2398e-09 1.46587e-09)
(3.32379e-07 3.60238e-10 2.13212e-09)
(2.51408e-07 -8.31223e-10 -4.16968e-10)
(2.91891e-08 3.13228e-09 3.17432e-09)
(3.04153e-07 2.34037e-09 6.82325e-10)
(2.51727e-07 4.50822e-09 9.71615e-11)
(2.42478e-07 6.93868e-10 7.18146e-10)
(3.0632e-07 -1.0544e-09 1.04255e-10)
(2.46235e-08 2.92004e-09 5.94017e-10)
(2.63822e-07 -1.26205e-10 1.20368e-09)
(1.38822e-07 -1.0316e-09 1.19666e-10)
(1.52212e-07 -1.42482e-11 9.7045e-10)
(2.54068e-07 1.30681e-10 1.69028e-09)
(1.69582e-07 1.74653e-09 1.22185e-09)
(1.8249e-07 8.15449e-10 -6.66667e-10)
(2.57592e-07 1.81821e-09 3.4088e-10)
(4.06464e-08 -1.44904e-09 -1.8838e-09)
(2.7455e-07 -2.42893e-09 8.21955e-10)
(1.91494e-07 -1.43159e-09 -7.61613e-10)
(3.38976e-07 -1.7528e-09 1.34744e-09)
(2.55606e-07 -1.25676e-09 7.64809e-10)
(3.14011e-07 -1.96762e-09 1.35588e-09)
(1.42873e-07 1.89549e-09 3.03836e-09)
(2.07994e-08 -2.93752e-10 1.45676e-09)
(3.73822e-08 -9.29244e-10 6.51124e-10)
(5.02452e-07 -4.20272e-09 -1.55992e-09)
(1.93339e-08 -1.14389e-09 2.82159e-09)
(1.79418e-07 -8.29538e-10 -3.04997e-09)
(7.61815e-08 4.19674e-09 1.68008e-09)
(3.03704e-07 -8.02127e-10 1.45046e-09)
(3.58678e-07 -1.40002e-10 -1.06631e-09)
(3.11693e-07 -6.86094e-10 -6.3473e-10)
(1.27258e-07 -3.14743e-10 -2.79519e-09)
(3.02285e-07 3.89394e-09 -5.96387e-09)
(7.09193e-08 -5.81145e-09 4.73424e-09)
(8.92733e-08 1.80501e-09 2.27825e-09)
(1.94065e-07 1.52025e-11 5.79209e-12)
(1.60599e-07 1.97444e-09 -1.46125e-09)
(2.69481e-07 3.10187e-08 8.84821e-09)
(1.96486e-07 -4.01156e-09 2.03563e-09)
(6.7411e-08 -3.78122e-10 -7.17038e-10)
(1.0684e-07 -1.56206e-09 3.14604e-09)
(2.11008e-07 -1.39586e-09 -3.10944e-09)
(2.0506e-07 -4.1599e-12 -6.16887e-11)
(3.95308e-07 -3.08247e-10 1.08109e-09)
(2.10135e-07 -3.11623e-10 1.29082e-09)
(4.79132e-07 -4.15198e-09 8.9521e-10)
(1.67432e-07 5.79752e-09 7.68016e-09)
(3.40343e-07 2.80399e-09 1.75272e-09)
(2.65669e-07 2.75823e-09 9.78546e-10)
(1.92457e-07 -5.26205e-10 1.85547e-11)
(3.28729e-07 -9.84071e-10 1.93957e-09)
(1.07633e-07 2.4179e-09 -5.9096e-09)
(2.43082e-08 -1.54119e-09 -2.89963e-09)
(2.90993e-07 -1.58774e-09 6.13665e-10)
(6.10641e-08 -2.8352e-09 3.2784e-09)
(2.97471e-08 1.90895e-10 4.77376e-11)
(3.82335e-07 1.05414e-09 3.70762e-09)
(1.99609e-07 -7.53433e-10 6.822e-10)
(1.07796e-07 -2.59949e-09 -4.92159e-09)
(2.41672e-07 -1.57825e-09 8.73187e-10)
(3.18527e-07 -2.98357e-09 6.65201e-10)
(3.9626e-07 -1.92126e-09 -1.45616e-09)
(2.55028e-07 -8.94137e-10 -6.19125e-10)
(3.25636e-08 1.44997e-09 4.64025e-11)
(3.11635e-07 5.03354e-10 -4.30487e-10)
(2.05897e-07 -1.49353e-09 1.14123e-09)
(1.02663e-07 -5.26001e-11 1.35699e-09)
(2.75453e-07 -1.8891e-10 2.26256e-09)
(2.37794e-07 -4.6568e-10 5.92672e-10)
(1.75086e-07 1.13369e-10 -1.21845e-09)
(2.01673e-07 1.68145e-10 -1.29685e-09)
(2.71285e-07 -1.29137e-09 2.14568e-09)
(2.01202e-07 -1.87868e-09 7.47256e-10)
(8.03963e-08 -4.50717e-10 -2.66204e-10)
(2.09252e-08 8.4236e-10 -6.60367e-10)
(4.10605e-08 -2.99274e-09 -2.48555e-10)
(2.25982e-07 1.19231e-09 3.27556e-10)
(2.67992e-07 -2.08505e-08 3.28254e-08)
(1.15836e-07 -6.52357e-09 -9.40819e-09)
(1.15087e-07 4.32389e-10 3.20605e-10)
(2.52489e-07 2.43773e-10 4.18711e-09)
(3.10462e-07 4.97534e-10 1.18804e-09)
(2.27419e-07 -1.09555e-09 4.9575e-09)
(3.5519e-07 2.16883e-10 1.6968e-09)
(3.41026e-07 -1.52924e-09 -4.67286e-10)
(2.21286e-07 4.53134e-10 7.8833e-10)
(1.36607e-07 1.01183e-09 3.86304e-10)
(2.50132e-08 -7.35725e-10 -2.71238e-10)
(2.40993e-07 -4.74457e-08 5.88123e-09)
(9.0402e-08 2.39415e-09 8.85574e-10)
(6.68098e-08 -3.02876e-09 -7.95939e-10)
(7.05636e-08 1.40821e-09 5.39355e-10)
(1.6882e-07 -1.82627e-10 -2.17658e-10)
(1.77937e-07 -7.34191e-10 9.41135e-11)
(2.31139e-07 8.01721e-10 -1.19731e-09)
(1.77786e-08 1.00891e-09 -1.52228e-09)
(1.71494e-07 -4.93309e-10 2.36372e-10)
(6.743e-08 1.63462e-09 -1.2596e-09)
(1.80722e-07 -6.80506e-10 -1.64486e-10)
(5.77338e-08 -7.74339e-10 -5.44661e-10)
(1.52564e-07 -3.48434e-09 3.01826e-09)
(2.24784e-07 -5.33436e-09 1.71391e-09)
(1.83623e-07 -8.1267e-10 1.59864e-09)
(1.98947e-08 1.65332e-09 -2.13218e-09)
(1.16646e-07 -1.17815e-09 5.24033e-09)
(2.39889e-07 1.623e-11 1.06981e-09)
(2.63984e-08 -1.64495e-09 -2.01449e-09)
(2.89281e-07 2.75895e-09 1.88887e-08)
(1.85289e-07 -9.99048e-10 3.8477e-09)
(3.05918e-07 -1.07652e-10 -4.41268e-09)
(2.05284e-07 4.50041e-09 -5.6025e-09)
(9.66067e-08 -1.18485e-09 2.09361e-09)
(3.85775e-07 2.8206e-09 -1.97321e-10)
(1.42128e-07 -1.44102e-08 -1.31531e-08)
(3.08907e-07 1.94247e-09 4.80706e-10)
(1.55457e-07 1.18176e-08 1.25297e-08)
(1.47185e-07 -6.23165e-09 8.45383e-10)
(1.48849e-07 -8.56024e-10 -3.45799e-09)
(2.57445e-07 1.39223e-09 3.95661e-10)
(5.13823e-07 3.71241e-09 1.25263e-09)
(8.35208e-08 -7.9837e-10 8.90868e-10)
(3.41781e-07 1.62967e-09 -1.39536e-09)
(1.23246e-07 -6.8718e-10 -2.81237e-09)
(4.10605e-07 -9.05326e-10 1.74911e-09)
(3.13306e-07 -5.35004e-10 2.01653e-09)
(7.31804e-08 2.05443e-09 -5.33586e-09)
(2.19556e-07 -1.48285e-09 -1.31222e-10)
(3.80187e-07 -4.11413e-09 3.59959e-09)
(2.27153e-07 7.9445e-10 -3.11425e-10)
(2.189e-07 6.34809e-10 6.49261e-10)
(2.49292e-08 -8.25211e-10 -3.17052e-09)
(2.07559e-08 1.06432e-09 -2.62053e-09)
(2.96246e-07 2.32995e-09 -3.57493e-09)
(2.70028e-07 2.54874e-10 4.15926e-11)
(2.07455e-07 -1.79341e-09 -9.11639e-10)
(3.77373e-08 4.05978e-10 -2.67729e-09)
(8.52822e-08 -6.57831e-10 2.99456e-10)
(3.10774e-07 -3.015e-09 -1.06014e-09)
(1.57963e-07 1.50689e-10 8.77889e-10)
(2.94929e-07 2.06507e-09 6.42985e-10)
(2.67974e-07 1.42144e-09 -3.33398e-10)
(2.09129e-07 1.28048e-09 7.6586e-10)
(2.2374e-07 2.20356e-09 8.55317e-10)
(1.26328e-07 7.56715e-10 3.86467e-10)
(2.01063e-07 1.60872e-09 4.11407e-11)
(9.19418e-08 -1.81699e-09 -4.6102e-09)
(2.77683e-07 1.91781e-10 -4.99988e-10)
(1.95004e-07 -5.84707e-10 -2.00091e-09)
(2.10609e-07 1.28766e-09 9.37403e-10)
(2.09501e-07 4.19839e-10 -2.62268e-10)
(3.48874e-07 -6.71011e-10 1.53369e-10)
(2.6408e-07 1.2375e-09 -1.53986e-09)
(7.12087e-08 4.06238e-09 3.6918e-09)
(4.7151e-08 1.11385e-09 4.94056e-10)
(2.07112e-08 1.79426e-09 -2.07811e-09)
(2.29092e-07 5.62832e-09 9.93429e-09)
(2.75118e-07 1.00073e-10 -1.64073e-11)
(2.70493e-07 -1.6421e-09 1.09948e-09)
(1.96075e-07 1.97622e-09 5.40318e-10)
(3.15513e-08 -3.46377e-11 1.13614e-09)
(2.37834e-08 -4.03679e-10 2.71023e-09)
(1.8529e-07 -5.2269e-10 2.82012e-09)
(2.27534e-07 -5.82354e-10 2.09746e-09)
(2.9429e-07 -6.43489e-10 1.29015e-09)
(3.16621e-07 1.33507e-09 -1.77732e-10)
(2.00853e-07 -1.25498e-09 -1.60262e-09)
(3.18288e-07 1.56332e-09 -2.37461e-11)
(3.78613e-07 2.59292e-09 1.73735e-09)
(3.34256e-08 -7.18349e-10 3.1621e-09)
(1.86217e-07 -5.87876e-10 7.34948e-10)
(7.66949e-08 7.45432e-10 3.89666e-09)
(9.76012e-08 -9.73004e-09 2.0842e-09)
(1.25797e-07 1.83227e-10 1.95139e-11)
(1.48118e-07 3.7569e-10 2.0924e-10)
(2.50915e-07 1.43037e-10 -1.16984e-10)
(2.05981e-08 -3.82891e-09 -1.44988e-09)
(3.35888e-07 2.82873e-09 -2.13073e-10)
(2.50544e-07 9.57663e-11 -3.3959e-10)
(2.02498e-07 1.46743e-09 4.71453e-10)
(2.10147e-07 2.11385e-09 3.54643e-10)
(1.68125e-07 -1.21394e-10 1.2548e-09)
(2.47486e-07 6.56896e-10 1.53089e-09)
(2.50334e-07 7.70292e-10 2.28846e-10)
(2.82135e-07 1.99467e-09 4.28342e-10)
(1.68818e-07 6.25646e-09 -4.76814e-09)
(2.56751e-07 8.38618e-10 -2.72068e-10)
(2.88563e-07 -4.51456e-09 -1.24834e-09)
(1.96194e-08 -1.28435e-09 1.35051e-09)
(2.87402e-07 -8.65201e-10 -9.922e-10)
(1.94441e-07 3.23328e-09 -8.2186e-11)
(6.8229e-08 -1.92012e-09 5.5141e-09)
(1.78148e-07 1.27168e-09 -2.87436e-09)
(3.30499e-07 -2.73849e-10 -1.06532e-09)
(2.27901e-07 -4.92853e-10 1.2235e-09)
(1.23882e-07 3.18169e-10 -3.5057e-09)
(1.93505e-08 -1.73878e-09 -1.97142e-09)
(2.44067e-07 -1.13262e-09 -7.0674e-10)
(3.41469e-07 4.79904e-09 -4.49876e-09)
(2.30702e-07 -5.52162e-10 -3.34682e-10)
(1.9144e-07 2.34419e-10 1.11278e-09)
(6.07872e-08 2.77519e-09 2.79413e-09)
(2.51142e-07 1.01489e-10 -9.37735e-10)
(2.6977e-08 2.19421e-09 -3.39745e-09)
(1.68563e-07 2.36018e-10 -5.58107e-10)
(2.08661e-07 2.32607e-08 -7.4499e-09)
(2.44756e-07 -7.81828e-10 -8.58256e-10)
(9.31798e-08 -1.22848e-10 3.18923e-09)
(1.89069e-07 -2.14443e-09 -2.85521e-09)
(1.19766e-07 5.00581e-10 -1.68875e-09)
(5.02799e-08 2.99352e-09 2.51946e-09)
(4.2986e-07 7.84101e-10 1.40138e-09)
(1.99186e-07 5.69727e-10 9.53899e-10)
(1.89334e-08 6.65935e-10 1.83884e-09)
(2.70147e-07 -1.84224e-09 4.19141e-10)
(2.61443e-07 -1.14017e-09 1.06846e-09)
(4.10768e-08 -7.56439e-11 -2.32662e-09)
(1.33678e-07 5.89466e-09 1.5511e-11)
(1.04003e-07 3.67124e-09 2.77026e-09)
(1.86883e-07 1.06094e-09 7.90238e-10)
(2.42191e-07 -4.355e-11 4.27212e-10)
(3.53486e-08 -8.9202e-10 1.62262e-09)
(9.61597e-08 -3.16063e-09 -1.19318e-09)
(1.07302e-07 2.12634e-09 -1.34231e-10)
(1.7999e-07 2.20282e-09 3.9695e-10)
(3.12351e-07 -1.11361e-10 7.27021e-10)
(2.48009e-08 1.29583e-09 -3.29935e-09)
(3.58898e-07 -2.10812e-09 2.02514e-09)
(2.34991e-07 3.05133e-09 2.46839e-10)
(2.55414e-07 1.87684e-10 1.75333e-09)
(1.14194e-07 4.89943e-09 -4.72221e-09)
(3.21766e-07 2.25743e-09 5.66835e-10)
(2.44053e-08 -2.58227e-10 -2.67439e-09)
(2.88036e-07 -1.02643e-09 -3.1087e-10)
(2.93586e-08 -4.95023e-10 -6.38118e-11)
(1.39671e-07 -4.27873e-09 9.26182e-10)
(2.23917e-07 -1.36861e-09 2.23075e-10)
(1.44085e-07 -4.2251e-09 -1.41971e-09)
(2.04631e-08 2.38988e-09 2.13897e-09)
(5.38154e-08 1.02311e-09 -1.72151e-09)
(8.03103e-08 -4.17332e-09 2.59155e-09)
(1.38443e-07 2.75824e-09 -3.81082e-09)
(3.25318e-07 -4.49745e-10 -1.70596e-09)
(6.05517e-08 -1.38592e-09 -5.09795e-11)
(1.42944e-07 4.67237e-09 -2.68198e-09)
(2.25576e-07 -1.22561e-08 -2.38247e-08)
(2.02809e-07 6.46164e-10 9.99112e-10)
(3.08383e-08 1.99976e-09 3.2165e-10)
(2.31781e-07 1.50169e-10 -2.16037e-09)
(1.47449e-07 1.59383e-08 -6.22983e-09)
(1.92138e-07 -1.71854e-09 -1.80923e-10)
(1.04816e-07 -3.28538e-10 -2.38223e-09)
(1.68187e-07 7.86077e-10 1.09783e-09)
(1.11798e-07 -4.66284e-09 -2.99857e-09)
(1.63689e-07 5.98697e-10 9.75842e-10)
(1.51442e-07 5.83253e-10 -4.70026e-10)
(7.6486e-08 3.62449e-09 -6.83107e-09)
(2.81678e-07 -1.48638e-10 1.63135e-10)
(7.13745e-08 3.18513e-09 3.63212e-09)
(1.66116e-08 2.54012e-09 9.50491e-10)
(3.13999e-07 1.59716e-09 -1.35271e-10)
(1.77407e-07 6.387e-10 2.27277e-10)
(2.97437e-07 2.06628e-09 -7.43912e-10)
(2.31105e-07 3.12781e-09 -1.15513e-09)
(4.35853e-07 -3.92149e-09 1.05351e-09)
(1.43977e-07 3.77972e-09 -4.65461e-10)
(3.93044e-07 -3.59008e-09 1.04127e-09)
(1.02703e-07 -3.17375e-09 4.45406e-09)
(1.44545e-07 6.19583e-10 -1.72497e-11)
(3.10638e-07 -3.64665e-09 -3.14892e-09)
(3.44416e-08 8.60236e-10 -4.84204e-09)
(2.99328e-07 4.20539e-10 -1.42154e-09)
(1.20332e-07 3.29761e-10 3.93883e-09)
(3.17912e-08 -2.33447e-09 -2.244e-09)
(2.77642e-07 -1.12291e-09 -4.78885e-10)
(6.58624e-08 -1.80398e-09 1.62187e-09)
(2.03359e-07 7.81445e-10 2.39563e-10)
(2.06495e-07 2.45476e-10 1.01944e-09)
(3.75946e-07 2.21266e-09 1.57894e-09)
(1.00726e-07 -4.59846e-09 -4.76775e-09)
(2.74417e-07 2.63651e-09 3.98269e-10)
(1.57939e-07 -2.24293e-09 1.86871e-09)
(2.99282e-07 6.51525e-10 7.34184e-10)
(3.0424e-07 2.21637e-10 1.96535e-10)
(2.67839e-07 1.56289e-09 1.04089e-09)
(1.58163e-07 4.87552e-10 6.11738e-11)
(5.12214e-08 -2.80972e-09 -2.32471e-09)
(7.31737e-08 2.97401e-10 -8.11655e-10)
(1.70654e-07 2.94421e-10 4.53256e-12)
(2.81483e-07 1.61285e-09 2.41999e-09)
(3.01872e-08 -2.10269e-09 -1.01723e-09)
(2.40758e-07 1.86312e-10 3.6038e-10)
(4.54704e-07 3.52285e-10 8.50259e-10)
(3.36274e-07 -2.67556e-09 -5.76161e-10)
(3.58035e-07 -3.25732e-09 -5.18639e-10)
(2.54627e-07 -5.8191e-10 -2.95471e-09)
(2.14062e-08 2.14222e-09 1.87752e-09)
(2.19634e-07 8.35886e-10 -8.81288e-11)
(1.51632e-07 -1.44429e-09 -2.14664e-09)
(2.61123e-07 -1.44401e-11 7.98521e-10)
(1.65592e-07 2.55019e-10 -5.31191e-11)
(3.77976e-08 2.72682e-09 -2.25864e-10)
(1.98359e-07 8.41891e-10 5.46085e-10)
(1.55872e-07 3.7149e-09 3.56723e-09)
(2.4734e-07 -8.38828e-10 3.10347e-10)
(2.56636e-07 -2.28757e-09 -5.10078e-11)
(2.00134e-07 -2.10401e-09 -7.34572e-10)
(1.45253e-08 1.29141e-09 -1.72816e-09)
(2.14083e-08 -1.29763e-09 -2.10445e-09)
(1.781e-07 -9.78627e-10 6.89018e-11)
(2.96246e-07 -1.33581e-09 -6.94197e-11)
(2.1761e-07 1.66041e-09 1.14292e-09)
(1.79456e-07 9.20676e-11 1.25676e-09)
(1.65498e-07 -2.41722e-09 1.04418e-09)
(2.54642e-07 -1.92077e-09 -8.12149e-10)
(2.76775e-07 1.95696e-10 5.56329e-10)
(2.07062e-08 1.78324e-09 4.03428e-10)
(1.41182e-07 -7.80503e-10 2.96601e-10)
(1.73957e-07 -1.86448e-08 -3.14928e-10)
(4.9098e-08 -8.60278e-10 2.53372e-09)
(8.86256e-08 -5.68364e-09 1.45196e-09)
(3.0756e-07 -1.1594e-09 -1.94661e-09)
(2.13283e-07 -2.63259e-09 1.16114e-09)
(1.9868e-07 9.47726e-10 -3.11707e-10)
(2.40986e-07 -1.40397e-09 1.05875e-09)
(1.43395e-07 -4.86227e-09 1.4628e-09)
(3.16321e-07 5.10289e-10 -5.19046e-10)
(1.85332e-07 2.00128e-09 -5.16509e-09)
(4.14043e-07 3.33093e-09 9.74193e-12)
(2.11533e-07 4.54349e-10 -1.86565e-10)
(2.28694e-07 -1.71742e-09 6.16646e-10)
(3.02773e-07 -2.47723e-09 2.6832e-10)
(5.04855e-08 -5.81252e-10 2.45354e-09)
(5.29247e-07 -3.59606e-09 9.67032e-10)
(3.55373e-08 9.9857e-10 -1.47795e-09)
(1.48938e-07 -1.44905e-08 8.54507e-09)
(1.21882e-07 3.65309e-09 2.99989e-09)
(1.61579e-07 -3.13481e-09 -1.62405e-08)
(2.16827e-07 -1.40584e-09 -7.86707e-10)
(2.90711e-07 -4.69055e-08 -1.0339e-08)
(1.343e-07 6.81516e-11 -3.38888e-10)
(3.12933e-07 -2.51577e-10 -9.82719e-11)
(3.34876e-07 9.37266e-10 -4.54932e-10)
(2.06464e-07 -2.54482e-10 1.4332e-09)
(3.73233e-08 2.22434e-10 -6.35124e-10)
(1.18485e-07 -4.48018e-09 -3.00006e-09)
(2.10263e-07 -3.9219e-09 -2.99535e-08)
(2.06936e-07 4.06446e-10 6.45591e-11)
(1.03483e-07 -2.23632e-09 -4.68388e-10)
(2.17873e-07 -2.05316e-08 -7.05649e-09)
(2.35298e-07 -3.99614e-09 5.79747e-09)
(3.17482e-07 2.51364e-09 1.90203e-09)
(4.68004e-08 -9.98953e-10 1.64257e-09)
(5.66867e-08 -2.72074e-09 1.65619e-09)
(2.89485e-08 1.34208e-10 -3.20835e-10)
(2.10142e-08 1.43488e-10 -1.61598e-09)
(4.68203e-08 -1.54423e-10 2.46208e-10)
(2.2181e-07 -1.39662e-08 8.59355e-09)
(1.83478e-07 -2.20734e-10 1.00088e-09)
(1.99826e-08 -6.72e-10 2.77765e-09)
(2.19648e-08 1.58878e-09 2.45952e-09)
(3.34821e-07 1.09864e-09 3.87525e-11)
(1.66162e-07 -2.17545e-08 1.4774e-08)
(4.95143e-08 2.15958e-09 8.709e-10)
(2.27503e-07 3.92231e-10 -3.70241e-10)
(1.11274e-07 -1.05878e-09 -1.64352e-09)
(2.05212e-07 1.64608e-10 1.81695e-09)
(4.69375e-08 2.43182e-09 -1.37475e-09)
(9.75855e-08 2.91371e-09 -1.0824e-09)
(1.97995e-07 -2.02107e-09 2.46646e-10)
(2.61531e-07 4.30877e-10 -7.64923e-10)
(3.96948e-07 9.89463e-10 -1.9413e-09)
(4.58972e-08 3.81146e-09 -1.37919e-09)
(2.61012e-08 -2.0177e-09 1.29948e-09)
(2.01613e-07 -2.88199e-08 -2.13668e-08)
(2.96955e-08 -3.88803e-09 3.47972e-11)
(3.14139e-07 -2.14165e-09 -2.63354e-09)
(3.09223e-08 1.72377e-09 -3.93886e-09)
(1.53173e-07 -6.4558e-10 3.23093e-09)
(2.94696e-07 -9.93984e-10 -4.0388e-10)
(4.18536e-07 -1.61786e-09 2.64176e-09)
(6.26848e-08 9.02646e-10 -1.38454e-09)
(1.44514e-07 -5.97377e-10 -1.4513e-09)
(4.10017e-08 1.50239e-09 -1.61431e-09)
(3.07682e-08 3.63488e-09 -1.35847e-09)
(2.51018e-07 -1.66548e-10 -1.20981e-09)
(1.57763e-08 -1.33208e-09 -2.06365e-09)
(1.7527e-07 -1.35354e-09 -6.12563e-10)
(6.49881e-08 1.23669e-09 -3.04788e-09)
(3.22363e-07 -1.97606e-09 -3.94448e-10)
(2.27935e-07 -6.94218e-10 -2.4187e-10)
(2.05631e-08 -5.48959e-10 3.27119e-09)
(1.41913e-07 -6.84393e-09 4.59901e-10)
(2.47018e-07 4.58133e-10 6.8725e-10)
(3.32756e-08 -1.62784e-09 3.8259e-11)
(2.817e-07 -1.26101e-09 -9.07971e-10)
(8.37662e-08 -3.26034e-09 5.22598e-09)
(2.21823e-07 5.27385e-10 -2.07761e-10)
(2.1712e-07 -7.65631e-10 -1.03945e-09)
(5.88569e-08 1.76424e-09 1.37025e-09)
(2.25896e-08 9.68142e-10 -2.97954e-09)
(9.80209e-08 1.76755e-09 -7.10757e-10)
(2.43599e-07 3.82831e-08 8.25709e-09)
(2.3457e-07 8.87983e-10 7.55799e-10)
(8.16752e-08 -3.49734e-09 3.99974e-09)
(1.92208e-07 6.61941e-10 3.01549e-09)
(2.61379e-08 -1.00657e-09 6.44105e-10)
(1.92241e-07 -6.09902e-10 -1.10079e-09)
(2.45869e-08 -3.64991e-10 -1.69388e-09)
(3.26954e-07 -2.50107e-09 -2.89229e-10)
(3.03271e-07 -1.02656e-09 6.9039e-10)
(2.14293e-07 -3.50339e-10 2.27373e-10)
(1.53944e-08 1.57842e-09 7.21914e-11)
(3.41126e-07 -1.7017e-09 1.2571e-09)
(1.62302e-07 1.01472e-09 -1.59976e-10)
(3.52903e-07 1.13611e-09 3.81545e-10)
(6.62585e-08 -5.42241e-10 -2.437e-10)
(2.2252e-07 -2.68356e-08 1.38092e-08)
(2.60101e-07 -2.68637e-09 -2.97583e-10)
(7.02691e-08 9.30123e-10 -8.18252e-10)
(2.39761e-07 1.09703e-09 3.17919e-10)
(2.10042e-07 3.87192e-09 -3.95518e-08)
(1.85374e-07 4.51045e-10 -1.00236e-09)
(3.47709e-08 8.84269e-10 -1.92678e-09)
(1.07487e-07 -1.01975e-09 -5.45703e-09)
(1.81925e-07 -7.80754e-11 -8.44822e-11)
(2.20872e-07 2.25465e-09 -1.03161e-11)
(3.40555e-08 1.7111e-09 6.29952e-10)
(2.24402e-07 2.44392e-09 -2.91335e-09)
(1.65663e-07 -2.14638e-09 -5.10515e-09)
(2.63632e-08 -2.33604e-09 1.52273e-09)
(1.94639e-07 1.10202e-10 -3.7389e-10)
(1.58305e-07 -1.99236e-09 1.54524e-08)
(3.30947e-07 3.80487e-09 -4.98056e-09)
(1.93879e-07 -2.64678e-10 1.05275e-11)
(1.74916e-07 -3.43166e-11 5.55025e-10)
(2.99646e-07 -9.08751e-10 -6.3043e-10)
(2.59527e-07 1.38332e-09 6.85124e-10)
(7.47683e-08 2.03932e-09 6.77432e-10)
(7.65626e-08 -3.92312e-09 -3.71925e-09)
(3.61101e-07 2.64504e-09 7.34274e-10)
(2.24759e-07 -1.96871e-08 1.83283e-08)
(2.14077e-07 -2.07137e-09 9.37042e-10)
(1.92158e-07 -2.05621e-09 7.6428e-10)
(1.3261e-07 2.95401e-09 1.42417e-09)
(3.21443e-07 -3.04413e-10 1.74597e-09)
(1.98133e-07 1.3771e-10 -1.03848e-09)
(1.8781e-07 -1.01039e-09 -2.53191e-09)
(2.33112e-07 4.41213e-09 5.75013e-10)
(4.53006e-08 3.194e-10 -2.83954e-09)
(1.78083e-07 1.59788e-09 -1.28742e-09)
(4.1927e-08 -1.15777e-09 -3.19241e-09)
(3.0972e-07 -8.60461e-10 1.95034e-09)
(3.12239e-07 -4.22157e-10 2.19222e-11)
(1.7254e-07 2.66177e-09 -4.22599e-09)
(1.66208e-07 1.27404e-09 -8.51812e-10)
(1.88497e-08 1.99164e-09 -3.8616e-10)
(1.09771e-07 -5.75774e-10 -8.34024e-10)
(7.94929e-08 -2.79345e-09 -3.44197e-09)
(2.52394e-07 -3.0069e-10 -1.63752e-09)
(2.25916e-07 -1.56209e-09 -8.85707e-10)
(2.20549e-07 -2.01948e-08 1.27854e-08)
(3.03842e-07 -1.28186e-09 2.32758e-09)
(8.57145e-08 -2.53263e-09 -1.94002e-09)
(1.36567e-07 -3.4307e-09 1.06786e-08)
(2.47961e-07 -1.9898e-09 3.84526e-09)
(2.94107e-08 -2.30139e-09 -1.44033e-10)
(2.3193e-07 -1.13467e-09 -6.47435e-10)
(5.68974e-08 1.67114e-09 -4.79841e-11)
(2.06638e-07 -6.42679e-10 1.74233e-09)
(3.41864e-08 4.86066e-09 -2.70418e-10)
(3.45645e-07 1.47797e-09 -1.87882e-09)
(2.03958e-07 -8.73967e-09 5.38916e-09)