/*--------------------------------*- C++ -*----------------------------------*\
| =========                 |                                                 |
| \\      /  F ield         | OpenFOAM: The Open Source CFD Toolbox           |
|  \\    /   O peration     | Version:  2406                                  |
|   \\  /    A nd           | Website:  www.openfoam.com                      |
|    \\/     M anipulation  |                                                 |
\*---------------------------------------------------------------------------*/
FoamFile
{
    version     2.0;
    format      ascii;
    arch        "LSB;label=32;scalar=64";
    class       volVectorField;
    location    "36";
    object      momentum:angularMomentum;
}
// * * * * * * * * * * * * * * * * * * * * * * * * * * * * * * * * * * * * * //

dimensions      [1 1 -1 0 0 0 0];

internalField   nonuniform List<vector> 
59516
(
(5.21979e-10 -1.04826e-09 2.3101e-07)
(5.71442e-10 -3.36758e-10 1.73236e-07)
(-6.09594e-10 2.18492e-09 2.10056e-07)
(-3.51476e-09 -1.40589e-10 1.75418e-07)
(-7.956e-09 4.84232e-10 2.00311e-07)
(-5.20171e-09 2.7714e-09 5.03643e-08)
(-1.05243e-09 -2.46034e-09 2.14053e-07)
(-4.99742e-10 -1.55269e-09 2.03507e-07)
(-1.2902e-09 7.40318e-12 1.6168e-07)
(3.31099e-09 1.57652e-09 8.4618e-08)
(-2.32031e-09 -6.34488e-10 2.06045e-07)
(-4.42356e-09 -3.9631e-09 1.04728e-07)
(-2.53121e-09 -1.47956e-09 3.31374e-07)
(9.38115e-11 -1.6818e-10 1.66487e-08)
(2.06198e-10 -9.1751e-09 1.60676e-07)
(-2.36096e-09 6.45672e-09 8.9294e-08)
(5.92278e-11 -4.97292e-10 2.60554e-07)
(-1.25827e-08 -3.65738e-09 1.60397e-07)
(-1.47139e-08 -4.03411e-09 3.3211e-07)
(2.74362e-11 1.48662e-09 3.61931e-07)
(-2.08731e-09 1.062e-09 1.01471e-07)
(8.92205e-10 5.26874e-10 3.17799e-07)
(-4.46745e-10 -1.66325e-09 3.49914e-07)
(1.00865e-09 5.70343e-10 3.69919e-08)
(1.11139e-09 2.07902e-09 3.07927e-07)
(-1.23438e-09 4.9003e-09 2.11568e-07)
(-7.00094e-10 3.67134e-09 5.55366e-08)
(-5.59769e-09 -2.59908e-09 7.49524e-08)
(-4.7272e-09 -2.18767e-09 1.47366e-07)
(1.82828e-09 1.45921e-09 1.44963e-08)
(-3.75606e-08 2.12265e-09 1.89415e-07)
(-5.18621e-09 4.00134e-09 8.45904e-08)
(-1.00353e-09 -4.91032e-10 1.76532e-07)
(-3.72907e-09 -1.44692e-09 1.79106e-07)
(-4.88432e-09 -2.59202e-10 1.33026e-07)
(8.70953e-11 4.66383e-10 3.98976e-07)
(-2.13257e-09 1.09327e-09 1.40721e-08)
(-1.28599e-08 -4.14606e-09 1.32164e-07)
(-8.99467e-09 1.30845e-09 2.71139e-07)
(2.59467e-09 -1.05255e-10 2.75196e-07)
(3.58088e-10 -1.83033e-09 2.66641e-07)
(-2.97687e-08 7.25426e-11 4.05955e-07)
(-6.92016e-09 1.5945e-09 3.42364e-07)
(-8.07696e-10 4.80037e-10 1.14862e-07)
(-5.4175e-09 1.51393e-09 2.66366e-07)
(2.99219e-09 7.91039e-10 1.07992e-07)
(-9.50011e-09 6.81535e-11 3.26482e-07)
(-4.50968e-09 8.60965e-10 2.4972e-07)
(-3.44754e-08 3.15454e-09 2.51819e-07)
(-1.141e-08 -2.54275e-11 2.38483e-07)
(-2.82042e-08 8.27287e-10 1.639e-07)
(-7.06601e-09 -3.44344e-09 8.09913e-08)
(7.35893e-10 -6.25139e-09 3.23657e-07)
(-8.68054e-10 5.9415e-10 3.0676e-07)
(-4.72406e-09 1.11441e-09 8.43194e-08)
(-3.13244e-09 5.56933e-10 2.47606e-07)
(-1.58523e-08 -1.41726e-10 2.02166e-07)
(-7.84389e-09 -2.89658e-09 8.33268e-08)
(-3.06153e-11 1.16392e-10 1.97997e-07)
(-9.98423e-09 -4.05913e-10 1.45389e-07)
(1.59063e-10 6.48649e-10 2.07013e-07)
(-1.24397e-09 1.704e-09 1.63336e-08)
(1.3201e-10 7.70766e-10 2.53952e-07)
(-2.74992e-09 8.08128e-10 3.3057e-07)
(-1.5025e-09 7.15832e-10 3.01368e-07)
(-6.63351e-09 3.33444e-10 2.13208e-07)
(1.59568e-10 2.20761e-09 1.96217e-08)
(-2.18059e-10 4.46279e-10 7.00407e-08)
(-3.71791e-08 6.33688e-10 1.98156e-07)
(-1.8755e-09 -1.3376e-09 1.70152e-07)
(-9.86356e-10 -1.34341e-09 5.57337e-08)
(-6.95622e-10 -4.13912e-10 1.53005e-07)
(3.85454e-09 -1.56513e-09 2.5019e-08)
(8.81789e-11 -1.99338e-10 1.85853e-07)
(-6.78062e-10 3.01346e-10 3.52505e-07)
(-3.10987e-09 1.02215e-10 3.56636e-07)
(-2.61834e-09 -1.11349e-10 2.107e-07)
(-5.57451e-10 2.57728e-10 2.2455e-07)
(3.67044e-09 2.05616e-09 9.02114e-08)
(-8.59093e-09 1.0494e-09 1.90689e-07)
(-3.59585e-09 9.97232e-11 5.43287e-08)
(-6.66341e-09 6.10877e-10 1.69792e-07)
(-6.20657e-09 6.81071e-10 1.82073e-07)
(-2.51159e-09 1.34916e-09 1.95826e-08)
(-8.23657e-09 1.2323e-09 2.13328e-07)
(1.54879e-10 1.28463e-09 3.60554e-07)
(6.6e-10 1.18774e-09 3.37434e-08)
(2.69231e-09 8.05796e-10 5.01827e-07)
(-4.76505e-09 -2.57796e-09 1.16231e-07)
(-1.50163e-08 -3.88047e-09 1.67189e-07)
(-1.55592e-08 -1.0971e-10 1.83292e-07)
(-1.84626e-09 1.65066e-09 1.87476e-07)
(2.47546e-11 1.6342e-10 2.46914e-07)
(-2.39285e-10 1.56705e-09 1.81683e-07)
(-2.85751e-10 2.60906e-10 1.7557e-07)
(-1.88846e-08 -3.27096e-11 1.83478e-07)
(-7.66264e-10 -6.40895e-10 1.24332e-07)
(3.30474e-09 6.73329e-09 8.94689e-08)
(-3.88977e-09 -1.82869e-09 1.16794e-07)
(1.8273e-09 1.48791e-09 2.0604e-07)
(-2.13246e-09 1.6899e-09 6.59236e-08)
(3.17415e-09 1.56024e-09 2.8395e-08)
(3.18041e-09 1.68275e-09 2.50631e-08)
(-3.13289e-09 3.66353e-09 9.00626e-08)
(1.05383e-09 -2.40929e-10 2.36317e-07)
(-4.2359e-10 2.92081e-10 1.60598e-07)
(2.7565e-09 -4.84793e-09 5.93161e-08)
(-8.15153e-10 -5.3885e-10 1.42727e-07)
(-8.12706e-10 9.45154e-10 1.81877e-07)
(-4.42328e-09 6.9815e-09 1.98477e-07)
(-4.15204e-08 -5.64277e-10 2.80163e-07)
(3.55839e-09 -3.14242e-09 4.63265e-08)
(-7.37384e-09 9.41835e-09 1.97e-07)
(-3.5853e-08 -1.00005e-10 2.1921e-07)
(-6.45829e-11 -1.17826e-10 2.1615e-07)
(1.15488e-09 -1.60806e-09 1.42718e-07)
(-4.74423e-09 -2.72466e-09 1.33641e-07)
(-6.63467e-10 -6.32362e-10 1.45138e-07)
(-3.60644e-10 -9.01664e-10 1.96351e-08)
(-1.82326e-09 2.12485e-09 2.608e-07)
(1.07707e-09 4.23262e-10 3.81089e-07)
(7.85147e-11 3.28356e-10 1.68816e-07)
(4.66921e-10 5.08623e-10 1.57544e-07)
(-5.21862e-10 4.04178e-10 1.75188e-07)
(-1.76628e-08 1.26402e-09 1.32895e-07)
(-4.46763e-09 9.73396e-11 1.4534e-07)
(-2.39522e-09 -1.0325e-09 3.83553e-08)
(-1.96204e-08 3.31634e-09 2.11915e-07)
(-2.3708e-08 5.57665e-09 1.63213e-07)
(4.92167e-10 -1.11499e-10 1.49959e-07)
(9.07543e-10 -9.34114e-10 2.63928e-07)
(4.33999e-09 5.62225e-09 3.33727e-07)
(-5.89783e-10 -2.10897e-09 2.4256e-08)
(5.45403e-10 9.84427e-10 2.55144e-07)
(3.22701e-09 1.11752e-09 3.26537e-07)
(-2.73616e-09 2.03279e-09 2.03026e-07)
(-2.17566e-08 1.98284e-09 1.51918e-07)
(7.61238e-10 1.29978e-09 3.19127e-07)
(-5.02341e-10 3.70216e-09 5.54799e-08)
(-1.66861e-09 1.49466e-09 1.64595e-07)
(-1.81756e-09 3.99381e-09 8.11536e-08)
(-4.56854e-10 -4.17763e-10 3.08058e-07)
(-7.24559e-10 -1.26677e-09 1.48017e-08)
(-4.76979e-10 1.49641e-09 1.53584e-07)
(-3.38768e-10 4.17212e-10 2.04489e-07)
(-2.40537e-09 1.51787e-09 2.83006e-07)
(-5.20697e-09 1.80237e-09 2.03695e-07)
(-3.53927e-09 2.10748e-09 2.09656e-07)
(9.80533e-10 -1.82001e-09 6.4039e-08)
(-3.40134e-10 2.23379e-09 2.13089e-07)
(1.39709e-10 -2.54583e-09 3.29923e-07)
(2.43093e-10 2.05642e-09 5.6212e-08)
(2.23983e-09 2.17824e-09 3.74824e-07)
(1.1301e-09 3.16869e-10 2.15859e-07)
(-8.44943e-10 -3.49321e-09 1.65424e-07)
(-1.50888e-09 8.81106e-10 1.57492e-08)
(2.84275e-10 -4.34176e-10 2.85996e-07)
(-2.71931e-09 1.94459e-09 3.39687e-07)
(-1.61914e-09 9.17092e-10 1.34261e-07)
(-2.48059e-09 -1.75859e-09 1.70028e-08)
(3.93504e-09 3.35039e-09 9.32861e-08)
(6.45792e-09 -3.50732e-09 1.17094e-07)
(-7.80993e-10 1.6646e-09 4.24757e-08)
(-2.33116e-10 -4.72503e-10 2.41632e-08)
(4.77841e-09 2.24604e-10 1.68819e-07)
(-1.85078e-09 1.10975e-09 3.14624e-07)
(1.98019e-09 -1.45856e-10 1.63143e-07)
(-8.42314e-10 -1.93569e-10 2.65722e-07)
(1.11571e-09 2.13616e-09 1.84051e-08)
(-4.92306e-10 -6.68813e-10 2.134e-07)
(-1.43034e-09 -1.18708e-09 9.0587e-08)
(-1.15636e-09 9.09573e-10 7.08777e-08)
(2.53849e-11 -3.18178e-09 1.11523e-07)
(6.08463e-10 -8.61423e-10 1.52342e-07)
(9.33321e-10 1.27465e-09 8.99432e-08)
(-1.37756e-08 -2.17318e-09 4.54617e-07)
(-1.55444e-09 2.47238e-10 2.38075e-07)
(-9.70601e-09 1.14333e-09 3.09289e-07)
(1.20682e-09 -7.63481e-09 1.55924e-07)
(7.42007e-10 4.6819e-10 6.61691e-08)
(-1.81492e-09 -3.77226e-09 3.0635e-07)
(1.25798e-09 4.08831e-09 4.53998e-08)
(-1.16763e-09 -2.28083e-09 3.18938e-08)
(9.51576e-10 2.77241e-09 1.10102e-07)
(4.28234e-10 -5.81673e-10 1.93664e-07)
(-6.49725e-10 1.11767e-09 1.01895e-07)
(-3.76422e-09 8.47864e-10 4.87032e-08)
(1.17699e-10 2.74074e-10 2.16644e-08)
(-2.02072e-10 -7.56332e-11 1.94928e-07)
(3.36848e-09 1.93435e-09 2.33657e-07)
(-3.33528e-09 -4.70276e-10 1.58384e-07)
(-1.90156e-09 -6.97433e-09 1.21344e-07)
(-5.26922e-10 -4.54817e-10 2.09366e-07)
(3.03019e-09 -2.683e-09 9.94944e-08)
(-5.84988e-10 4.90169e-10 3.36771e-07)
(4.58133e-10 7.56299e-10 3.02846e-08)
(1.37047e-09 1.19488e-10 1.02369e-07)
(4.57791e-10 -1.54961e-09 6.02724e-08)
(-7.88725e-09 -4.6037e-10 1.91286e-07)
(7.91559e-10 -6.08433e-10 2.61346e-07)
(-1.65945e-09 -2.11838e-09 8.03425e-08)
(-4.47969e-10 -4.04824e-10 1.80515e-07)
(8.45508e-10 3.30899e-09 3.23156e-07)
(1.47908e-09 -1.67215e-09 1.70113e-08)
(2.0202e-09 1.78389e-09 2.24897e-07)
(-6.10756e-11 -2.193e-10 2.38209e-07)
(8.46788e-11 3.30561e-11 3.29224e-07)
(4.93963e-10 -8.50394e-10 1.94083e-07)
(1.64555e-10 -5.53962e-10 1.92402e-08)
(4.43189e-09 2.34913e-09 3.1006e-07)
(-4.92085e-10 5.84588e-09 6.39169e-08)
(-4.11412e-09 8.69812e-10 2.55757e-08)
(-1.76434e-09 1.53049e-09 2.32691e-07)
(-4.42093e-10 2.34441e-09 1.00078e-07)
(-1.78397e-09 -2.63337e-09 3.01255e-07)
(-6.01846e-10 -4.84435e-10 2.78726e-07)
(-1.6145e-09 7.76839e-10 2.72936e-07)
(-1.16214e-09 1.1375e-09 2.05616e-07)
(-2.89371e-09 4.92286e-09 8.74606e-08)
(1.07279e-09 2.74249e-10 2.16467e-07)
(-2.58469e-09 -5.83596e-09 1.25641e-07)
(-3.59134e-10 8.75049e-10 1.99813e-07)
(-9.32725e-10 -1.06401e-09 1.7402e-07)
(8.7775e-10 -1.25986e-09 7.94267e-08)
(-1.54924e-09 -7.95553e-10 2.84928e-07)
(1.12127e-09 9.00764e-10 2.97674e-07)
(-1.21507e-09 -1.25027e-09 3.35468e-08)
(-3.85514e-09 8.49407e-10 6.90236e-08)
(-2.6479e-10 1.01027e-09 1.91792e-07)
(-4.52217e-09 7.74764e-09 1.23914e-07)
(6.47261e-10 9.30534e-10 2.33489e-07)
(-5.90743e-10 3.41401e-10 1.72736e-07)
(-1.53015e-09 -1.37781e-09 2.99548e-07)
(-1.43562e-09 -2.3809e-09 2.83946e-08)
(-1.38981e-09 -1.22625e-09 3.30761e-08)
(-1.79494e-09 3.14197e-11 4.15296e-08)
(6.298e-10 -8.05391e-10 1.1442e-07)
(-2.79594e-09 -7.38449e-10 1.80845e-07)
(-4.05825e-09 6.10671e-10 4.11155e-07)
(2.89717e-09 -4.12222e-10 9.10071e-08)
(9.97789e-10 2.95999e-10 2.35438e-07)
(2.454e-09 1.70068e-09 1.99583e-08)
(1.36077e-09 1.09315e-09 1.15079e-07)
(2.7148e-09 1.58635e-09 2.8696e-08)
(6.6807e-10 2.33869e-10 1.55277e-07)
(-4.42887e-10 -1.00773e-09 1.58929e-07)
(-1.04006e-09 1.70522e-10 1.95539e-07)
(-1.24174e-09 4.31407e-09 1.94753e-07)
(3.45943e-10 3.19054e-10 2.70084e-07)
(-7.84876e-10 -4.65524e-10 2.05598e-07)
(3.27847e-09 -8.397e-10 3.72942e-07)
(-1.04092e-09 3.52954e-10 2.13141e-07)
(7.49078e-10 4.0661e-10 1.80718e-07)
(1.21524e-10 9.51431e-10 2.80497e-07)
(-1.00515e-09 2.54052e-09 2.80975e-07)
(-4.48152e-10 1.11357e-09 2.94986e-07)
(-5.50937e-10 -7.58447e-11 1.16994e-07)
(-2.87222e-09 4.17964e-10 2.80017e-07)
(2.42085e-09 4.11864e-09 8.50021e-08)
(-5.13185e-10 3.63228e-09 1.02265e-07)
(-1.80575e-09 7.89928e-10 2.21488e-07)
(-8.11902e-10 1.52456e-09 2.55794e-07)
(5.95836e-09 1.6966e-09 2.44531e-07)
(1.75985e-10 1.31593e-09 2.72224e-07)
(1.65434e-09 2.11854e-10 7.7001e-08)
(1.53642e-10 -5.34426e-09 1.12392e-07)
(-4.75299e-10 -1.5639e-09 2.98541e-07)
(4.21068e-09 5.50089e-10 2.22737e-07)
(-7.78289e-10 -1.18082e-09 6.46633e-08)
(-4.32841e-10 2.08349e-09 7.78119e-08)
(-3.07562e-09 3.61285e-09 1.68755e-07)
(-7.46033e-10 -4.99255e-10 1.78762e-07)
(-4.23383e-09 5.60541e-09 3.18279e-07)
(-8.22451e-10 2.23846e-09 1.54727e-07)
(-2.56715e-09 4.83028e-10 3.25328e-07)
(2.02628e-10 5.58283e-09 1.97058e-07)
(-1.22964e-09 -2.58423e-09 2.06859e-08)
(1.08074e-09 1.75352e-09 2.92077e-07)
(2.57209e-09 -1.95613e-09 3.04614e-08)
(2.36784e-09 1.24852e-09 5.49876e-08)
(-1.7476e-09 -1.27342e-09 3.32379e-07)
(-4.66504e-10 8.04468e-10 2.51408e-07)
(-3.96757e-09 2.03613e-09 2.91891e-08)
(-7.91752e-10 -2.30565e-09 3.04153e-07)
(-2.24449e-09 -3.91098e-09 2.51727e-07)
(-2.8539e-11 9.98184e-10 2.42478e-07)
(7.91426e-10 -7.0447e-10 3.0632e-07)
(2.1191e-09 -2.09497e-09 2.46235e-08)
(-9.13967e-10 7.93376e-10 2.63822e-07)
(-5.7746e-10 -8.63166e-10 1.38822e-07)
(-3.75999e-10 -8.94763e-10 1.52212e-07)
(-1.61082e-09 -5.28551e-10 2.54068e-07)
(-1.78041e-09 1.17193e-09 1.69582e-07)
(-8.88207e-10 -5.6612e-10 1.8249e-07)
(1.77034e-10 -1.8414e-09 2.57592e-07)
(-1.5367e-11 2.37659e-09 4.06464e-08)
(1.17395e-09 -2.27973e-09 2.7455e-07)
(1.28498e-09 9.89112e-10 1.91494e-07)
(-1.23451e-09 -1.83409e-09 3.38976e-07)
(-4.32102e-10 -1.4063e-09 2.55606e-07)
(1.88598e-09 -1.46731e-09 3.14011e-07)
(2.44367e-09 -2.61781e-09 1.42873e-07)
(-6.57219e-10 -1.33286e-09 2.07994e-08)
(9.73444e-10 5.8298e-10 3.73822e-08)
(-3.78314e-09 2.405e-09 5.02452e-07)
(-2.8227e-09 1.14115e-09 1.93339e-08)
(-2.20009e-09 -2.26937e-09 1.79418e-07)
(-1.43768e-09 4.28584e-09 7.61815e-08)
(8.46135e-10 -1.42524e-09 3.03704e-07)
(-6.73929e-10 -8.38118e-10 3.58678e-07)
(1.26093e-10 9.26125e-10 3.11693e-07)
(2.5394e-09 1.20979e-09 1.27258e-07)
(7.12253e-09 -8.4809e-12 3.02285e-07)
(1.246e-10 7.49469e-09 7.09193e-08)
(9.94077e-10 -2.73135e-09 8.92733e-08)
(-1.02971e-11 1.2595e-11 1.94065e-07)
(9.5412e-10 -2.26348e-09 1.60599e-07)
(-3.20201e-08 -3.89402e-09 2.69481e-07)
(4.23209e-10 -4.47854e-09 1.96486e-07)
(-8.09201e-10 -4.80921e-11 6.7411e-08)
(3.50919e-09 -1.52335e-10 1.0684e-07)
(-9.08917e-10 -3.28495e-09 2.11008e-07)
(-5.97622e-11 -1.58521e-11 2.0506e-07)
(-1.6111e-10 -1.11257e-09 3.95308e-07)
(-1.1549e-09 6.55396e-10 2.10135e-07)
(1.98098e-10 4.24277e-09 4.79132e-07)
(-9.52068e-09 -1.3974e-09 1.67432e-07)
(-3.2625e-09 5.38955e-10 3.40343e-07)
(-2.05989e-09 2.07899e-09 2.65669e-07)
(4.87663e-10 1.98547e-10 1.92457e-07)
(2.15645e-09 -2.82924e-10 3.28729e-07)
(-4.72454e-09 -4.29515e-09 1.07633e-07)
(3.05671e-09 -1.19985e-09 2.43082e-08)
(1.69462e-09 -1.60561e-10 2.90993e-07)
(1.75575e-09 3.96278e-09 6.10641e-08)
(2.49013e-11 -1.95192e-10 2.97471e-08)
(-3.84872e-09 -2.12135e-10 3.82335e-07)
(7.74601e-10 6.58066e-10 1.99609e-07)
(-3.0929e-09 4.62746e-09 1.07796e-07)
(-1.01313e-09 -1.49229e-09 2.41672e-07)
(7.09293e-10 2.97339e-09 3.18527e-07)
(-2.39636e-09 2.62924e-10 3.9626e-07)
(-1.05165e-09 -2.7718e-10 2.55028e-07)
(-9.36722e-11 -1.44769e-09 3.25636e-08)
(3.3794e-10 -5.69632e-10 3.11635e-07)
(-1.84393e-09 3.64633e-10 2.05897e-07)
(2.52932e-10 1.33425e-09 1.02663e-07)
(-1.8704e-10 -2.26271e-09 2.75453e-07)
(-5.46724e-10 5.18856e-10 2.37794e-07)
(9.06417e-10 8.22122e-10 1.75086e-07)
(8.69602e-10 9.76677e-10 2.01673e-07)
(-6.47111e-10 -2.41926e-09 2.71285e-07)
(1.19582e-09 1.63029e-09 2.01202e-07)
(-4.93128e-10 1.75602e-10 8.03963e-08)
(-3.93485e-10 9.95401e-10 2.09252e-08)
(3.62173e-10 2.98113e-09 4.10605e-08)
(1.18019e-09 3.68844e-10 2.25982e-07)
(-3.88875e-08 -1.01977e-10 2.67992e-07)
(-1.13852e-08 1.20299e-09 1.15836e-07)
(3.18411e-10 -4.34007e-10 1.15087e-07)
(3.1427e-09 -2.77754e-09 2.52489e-07)
(-7.52961e-10 1.045e-09 3.10462e-07)
(-4.97954e-09 9.90574e-10 2.27419e-07)
(1.58855e-09 6.34557e-10 3.5519e-07)
(-1.08443e-09 -1.17513e-09 3.41026e-07)
(-4.74455e-10 -7.75684e-10 2.21286e-07)
(-1.07839e-09 -1.00502e-10 1.36607e-07)
(-3.47733e-10 7.02811e-10 2.50132e-08)
(-4.77759e-08 1.77454e-09 2.40993e-07)
(6.54047e-10 2.46747e-09 9.0402e-08)
(-1.68583e-09 2.6391e-09 6.68098e-08)
(1.39851e-09 5.64019e-10 7.05636e-08)
(2.18354e-11 2.83285e-10 1.6882e-07)
(-5.65615e-10 4.77465e-10 1.77937e-07)
(-1.40497e-09 3.19964e-10 2.31139e-07)
(-1.19563e-09 1.38048e-09 1.77786e-08)
(4.68711e-10 -2.8202e-10 1.71494e-07)
(1.79684e-09 -1.01485e-09 6.743e-08)
(-3.2509e-10 6.20048e-10 1.80722e-07)
(-5.76515e-10 7.50925e-10 5.77338e-08)
(4.28454e-09 1.70096e-09 1.52564e-07)
(1.61631e-09 5.36473e-09 2.24784e-07)
(-1.7829e-09 1.93242e-10 1.83623e-07)
(2.69338e-09 -1.59287e-10 1.98947e-08)
(-8.2639e-11 5.3705e-09 1.16646e-07)
(-2.75156e-10 -1.03395e-09 2.39889e-07)
(2.15156e-11 -2.60069e-09 2.63984e-08)
(-1.90846e-08 -4.14275e-10 2.89281e-07)
(6.01104e-10 -3.92958e-09 1.85289e-07)
(2.11561e-10 -4.40892e-09 3.05918e-07)
(4.93506e-09 -5.22369e-09 2.05284e-07)
(2.29309e-09 7.27174e-10 9.66067e-08)
(2.50049e-09 -1.31995e-09 3.85775e-07)
(-1.8583e-08 -5.94392e-09 1.42128e-07)
(-1.92001e-09 -5.63753e-10 3.08907e-07)
(-1.71929e-08 1.02671e-09 1.55457e-07)
(-5.07196e-09 3.71797e-09 1.47185e-07)
(-1.03071e-09 3.41e-09 1.48849e-07)
(-5.25556e-10 -1.34857e-09 2.57445e-07)
(1.88399e-09 -3.43536e-09 5.13823e-07)
(9.2807e-10 -7.54802e-10 8.35208e-08)
(-7.01969e-10 -2.02734e-09 3.41781e-07)
(-2.72046e-09 9.90324e-10 1.23246e-07)
(1.26475e-09 -1.50977e-09 4.10605e-07)
(9.15981e-10 -1.87446e-09 3.13306e-07)
(-1.65375e-09 -5.47332e-09 7.31804e-08)
(-8.5066e-10 1.22165e-09 2.19556e-07)
(5.45286e-09 -3.86498e-10 3.80187e-07)
(-6.11569e-10 -5.9508e-10 2.27153e-07)
(4.22253e-10 -8.03881e-10 2.189e-07)
(2.91236e-09 -1.50044e-09 2.49292e-08)
(-2.73052e-09 -7.37711e-10 2.07559e-08)
(-3.01194e-09 3.02275e-09 2.96246e-07)
(2.26447e-10 -1.24147e-10 2.70028e-07)
(1.51212e-09 1.327e-09 2.07455e-07)
(-2.39779e-09 1.25828e-09 3.77373e-08)
(4.86629e-10 -5.34422e-10 8.52822e-08)
(-3.15076e-09 5.35613e-10 3.10774e-07)
(-7.1283e-10 -5.34107e-10 1.57963e-07)
(1.66199e-09 1.38409e-09 2.94929e-07)
(1.24113e-09 7.68931e-10 2.67974e-07)
(-2.92496e-10 -1.46309e-09 2.09129e-07)
(-3.3699e-10 -2.33959e-09 2.2374e-07)
(3.68711e-10 -7.65523e-10 1.26328e-07)
(-1.53633e-09 4.78933e-10 2.01063e-07)
(-3.14402e-09 3.83021e-09 9.19418e-08)
(-4.90854e-10 2.1408e-10 2.77683e-07)
(-1.6723e-09 -1.24456e-09 1.95004e-07)
(-1.57707e-09 2.22795e-10 2.10609e-07)
(-4.02251e-10 -2.8852e-10 2.09501e-07)
(-3.21702e-10 6.08511e-10 3.48874e-07)
(1.9445e-09 -3.4855e-10 2.6408e-07)
(3.10579e-09 4.52618e-09 7.12087e-08)
(1.2114e-09 1.31378e-10 4.7151e-08)
(-1.93151e-09 -1.95121e-09 2.07112e-08)
(-1.14172e-08 1.28878e-10 2.29092e-07)
(1.26242e-11 1.00621e-10 2.75118e-07)
(-1.96767e-09 1.83336e-10 2.70493e-07)
(1.6397e-11 -2.04868e-09 1.96075e-07)
(1.12446e-09 1.66106e-10 3.15513e-08)
(7.36166e-10 -2.63938e-09 2.37834e-08)
(-1.2576e-09 -2.57773e-09 1.8529e-07)
(-1.78873e-09 1.24055e-09 2.27534e-07)
(-7.7151e-10 -1.21792e-09 2.9429e-07)
(1.01201e-09 -8.88723e-10 3.16621e-07)
(-1.9995e-09 -3.81272e-10 2.00853e-07)
(-9.17423e-10 1.26605e-09 3.18288e-07)
(3.06201e-09 -6.04771e-10 3.78613e-07)
(-1.44764e-09 2.90159e-09 3.34256e-08)
(-1.50274e-10 9.29066e-10 1.86217e-07)
(3.43751e-09 -1.9807e-09 7.66949e-08)
(-9.89095e-09 -1.08938e-09 9.76012e-08)
(5.29716e-12 1.84187e-10 1.25797e-07)
(4.29839e-10 1.27587e-11 1.48118e-07)
(1.05976e-10 -1.51373e-10 2.50915e-07)
(-3.48958e-09 2.14139e-09 2.05981e-08)
(2.4559e-09 -1.41973e-09 3.35888e-07)
(-2.98037e-10 -1.88855e-10 2.50544e-07)
(-1.45463e-09 5.09569e-10 2.02498e-07)
(1.6148e-09 -1.40945e-09 2.10147e-07)
(-5.40048e-11 -1.25951e-09 1.68125e-07)
(-1.14313e-09 -1.21177e-09 2.47486e-07)
(-9.02031e-11 7.98488e-10 2.50334e-07)
(-1.86092e-09 8.36169e-10 2.82135e-07)
(-7.78472e-09 -1.12985e-09 1.68818e-07)
(-5.93819e-10 -6.51675e-10 2.56751e-07)
(-4.47001e-09 1.39951e-09 2.88563e-07)
(1.44721e-09 -1.17432e-09 1.96194e-08)
(2.75011e-10 1.2874e-09 2.87402e-07)
(2.13396e-09 2.43045e-09 1.94441e-07)
(-4.28641e-09 -3.9647e-09 6.8229e-08)
(-1.59102e-09 2.71067e-09 1.78148e-07)
(9.19208e-10 6.04119e-10 3.30499e-07)
(-1.95571e-11 -1.31889e-09 2.27901e-07)
(1.38629e-09 3.23564e-09 1.23882e-07)
(-2.18068e-09 1.46782e-09 1.93505e-08)
(-3.46579e-10 1.28926e-09 2.44067e-07)
(1.03525e-09 6.49599e-09 3.41469e-07)
(-6.19867e-10 1.8072e-10 2.30702e-07)
(-1.13607e-09 -5.07285e-11 1.9144e-07)
(-3.81428e-09 9.79852e-10 6.07872e-08)
(9.42341e-10 -4.05069e-11 2.51142e-07)
(-4.03529e-09 2.71328e-10 2.6977e-08)
(-3.34198e-11 6.05038e-10 1.68563e-07)
(-2.43938e-08 1.22692e-09 2.08661e-07)
(9.14996e-10 7.14591e-10 2.44756e-07)
(-5.43979e-10 3.14489e-09 9.31798e-08)
(-2.28629e-09 2.74293e-09 1.89069e-07)
(-4.90522e-10 1.6917e-09 1.19766e-07)
(2.84836e-09 -2.68247e-09 5.02799e-08)
(1.2241e-09 1.03935e-09 4.2986e-07)
(-1.11101e-09 1.27428e-11 1.99186e-07)
(-1.82732e-09 -6.96933e-10 1.89334e-08)
(8.13426e-10 -1.70525e-09 2.70147e-07)
(-1.03055e-09 -1.17455e-09 2.61443e-07)
(-6.26542e-10 2.24195e-09 4.10768e-08)
(3.11453e-09 5.00469e-09 1.33678e-07)
(-2.77832e-09 3.66514e-09 1.04003e-07)
(-6.52826e-10 1.1506e-09 1.86883e-07)
(3.27864e-11 -4.28172e-10 2.42191e-07)
(-1.28461e-09 1.33356e-09 3.53486e-08)
(3.13622e-09 -1.25595e-09 9.61597e-08)
(-4.10594e-10 2.09064e-09 1.07302e-07)
(1.85227e-09 1.2566e-09 1.7999e-07)
(-9.35236e-11 -7.2953e-10 3.12351e-07)
(-2.95603e-09 -1.9562e-09 2.48009e-08)
(2.61348e-09 1.3096e-09 3.58898e-07)
(-2.71841e-09 -1.40775e-09 2.34991e-07)
(-5.94911e-10 -1.65996e-09 2.55414e-07)
(-2.9753e-09 -6.11975e-09 1.14194e-07)
(2.17819e-09 8.20236e-10 3.21766e-07)
(1.29633e-09 -2.35342e-09 2.44053e-08)
(-1.07137e-09 -4.86893e-11 2.88036e-07)
(1.96578e-10 -4.58778e-10 2.93586e-08)
(3.69664e-10 -4.36219e-09 1.39671e-07)
(5.95114e-11 1.38539e-09 2.23917e-07)
(-2.55996e-09 3.64878e-09 1.44085e-07)
(-2.76291e-09 1.62881e-09 2.04631e-08)
(4.74217e-10 -1.94563e-09 5.38154e-08)
(5.58167e-10 4.8807e-09 8.03103e-08)
(1.89256e-09 -4.30679e-09 1.38443e-07)
(-1.7351e-09 3.19361e-10 3.25318e-07)
(-1.1676e-10 1.38193e-09 6.05517e-08)
(2.63734e-09 -4.69771e-09 1.42944e-07)
(-2.67728e-08 1.0211e-09 2.25576e-07)
(-1.11196e-09 -4.23441e-10 2.02809e-07)
(2.02538e-09 -1.81443e-11 3.08383e-08)
(7.97966e-10 2.01321e-09 2.31781e-07)
(-1.52349e-08 -7.79356e-09 1.47449e-07)
(1.72721e-09 5.34975e-11 1.92138e-07)
(-1.82648e-09 1.56427e-09 1.04816e-07)
(-1.34535e-09 -1.14806e-10 1.68187e-07)
(2.80856e-09 4.7797e-09 1.11798e-07)
(-1.01807e-09 5.23676e-10 1.63689e-07)
(-7.02425e-10 -2.60206e-10 1.51442e-07)
(4.2466e-09 -6.46272e-09 7.6486e-08)
(-1.68591e-10 1.4242e-10 2.81678e-07)
(-4.64577e-09 -1.32446e-09 7.13745e-08)
(2.2929e-09 -1.44853e-09 1.66116e-08)
(-1.34662e-09 8.69383e-10 3.13999e-07)
(1.88327e-10 -6.51249e-10 1.77407e-07)
(-1.95587e-09 9.98748e-10 2.97437e-07)
(1.55684e-09 -2.94852e-09 2.31105e-07)
(4.01943e-09 -5.76334e-10 4.35853e-07)
(3.7934e-09 -3.36279e-10 1.43977e-07)
(3.68276e-09 -6.40417e-10 3.93044e-07)
(2.37103e-09 4.92844e-09 1.02703e-07)
(-4.41312e-10 -4.3523e-10 1.44545e-07)
(4.47206e-09 1.7929e-09 3.10638e-07)
(-4.10522e-09 -2.70787e-09 3.44416e-08)
(-1.21064e-09 8.55557e-10 2.99328e-07)
(2.4594e-09 -3.09426e-09 1.20332e-07)
(1.64505e-09 2.78911e-09 3.17912e-08)
(-1.16384e-09 3.68423e-10 2.77642e-07)
(-2.42177e-09 1.40871e-10 6.58624e-08)
(-1.51677e-10 8.03144e-10 2.03359e-07)
(4.30571e-10 9.56102e-10 2.06495e-07)
(-8.51319e-10 2.58151e-09 3.75946e-07)
(3.24615e-10 6.61604e-09 1.00726e-07)
(2.6349e-09 -4.08797e-10 2.74417e-07)
(2.812e-09 7.84538e-10 1.57939e-07)
(-2.94078e-10 9.36498e-10 2.99282e-07)
(8.34929e-12 2.96107e-10 3.0424e-07)
(1.43017e-09 1.21684e-09 2.67839e-07)
(1.51035e-10 -4.67587e-10 1.58163e-07)
(3.37703e-09 -1.3764e-09 5.12214e-08)
(6.83676e-10 5.28978e-10 7.31737e-08)
(-2.82791e-10 8.20573e-11 1.70654e-07)
(-6.49436e-10 -2.83477e-09 2.81483e-07)
(4.33257e-10 2.29528e-09 3.01872e-08)
(1.9861e-10 -3.53751e-10 2.40758e-07)
(1.43795e-10 9.09048e-10 4.54704e-07)
(1.71784e-09 2.13064e-09 3.36274e-07)
(2.16869e-09 2.48513e-09 3.58035e-07)
(-2.4596e-09 1.73762e-09 2.54627e-07)
(-1.67252e-09 2.30583e-09 2.14062e-08)
(8.25262e-10 1.59417e-10 2.19634e-07)
(1.4513e-09 -2.14191e-09 1.51632e-07)
(-7.94419e-10 8.2109e-11 2.61123e-07)
(-1.53663e-10 2.10342e-10 1.65592e-07)
(-2.34494e-09 -1.4099e-09 3.77976e-08)
(-9.7572e-10 2.34435e-10 1.98359e-07)
(-3.07991e-09 4.12792e-09 1.55872e-07)
(8.34381e-10 -3.22111e-10 2.4734e-07)
(1.43878e-09 1.77919e-09 2.56636e-07)
(-1.39102e-09 1.74113e-09 2.00134e-07)
(1.33969e-09 1.691e-09 1.45253e-08)
(-2.25222e-09 1.01983e-09 2.14083e-08)
(-2.14021e-10 -9.5742e-10 1.781e-07)
(6.99495e-10 -1.14014e-09 2.96246e-07)
(-4.95754e-10 1.95383e-09 2.1761e-07)
(-1.17038e-09 -4.67063e-10 1.79456e-07)
(-5.53195e-10 2.57434e-09 1.65498e-07)
(-5.92433e-10 1.99949e-09 2.54642e-07)
(6.56826e-11 5.86076e-10 2.76775e-07)
(7.40427e-10 1.67167e-09 2.07062e-08)
(-2.84385e-10 -7.85037e-10 1.41182e-07)
(-1.86004e-08 1.32406e-09 1.73957e-07)
(-1.48698e-10 2.67165e-09 4.9098e-08)
(-6.25852e-10 5.83269e-09 8.86256e-08)
(-2.33881e-10 2.25362e-09 3.0756e-07)
(2.7773e-09 -7.51921e-10 2.13283e-07)
(3.67108e-10 -9.27673e-10 1.9868e-07)
(1.53785e-09 -8.52698e-10 2.40986e-07)
(-4.18032e-09 2.88208e-09 1.43395e-07)
(-5.42768e-10 -4.84982e-10 3.16321e-07)
(1.56757e-09 -5.31282e-09 1.85332e-07)
(3.07412e-09 -1.28256e-09 4.14043e-07)
(3.0193e-10 3.87398e-10 2.11533e-07)
(1.67784e-09 -7.17378e-10 2.28694e-07)
(1.85668e-09 -1.66175e-09 3.02773e-07)
(1.95672e-09 1.59026e-09 5.04855e-08)
(3.7058e-09 -3.65891e-10 5.29247e-07)
(-4.23355e-10 -1.7327e-09 3.55373e-08)
(-1.66691e-08 -2.26606e-09 1.48938e-07)
(3.89942e-09 -2.67188e-09 1.21882e-07)
(-1.654e-08 -9.91255e-11 1.61579e-07)
(1.42783e-09 7.46052e-10 2.16827e-07)
(-4.80156e-08 1.23376e-09 2.90711e-07)
(1.73451e-10 2.99006e-10 1.343e-07)
(-2.6813e-10 -3.24761e-11 3.12933e-07)
(-8.90774e-10 5.40326e-10 3.34876e-07)
(1.0353e-09 1.02322e-09 2.06464e-07)
(-6.57323e-10 -1.44173e-10 3.73233e-08)
(-5.38916e-09 1.71219e-10 1.18485e-07)
(-3.0135e-08 2.11512e-09 2.10263e-07)
(-4.0212e-10 -8.75558e-11 2.06936e-07)
(-6.2404e-10 2.19797e-09 1.03483e-07)
(-2.16538e-08 1.56685e-09 2.17873e-07)
(-6.9724e-09 9.82565e-10 2.35298e-07)
(1.84313e-09 2.55714e-09 3.17482e-07)
(-1.75715e-09 -7.79963e-10 4.68004e-08)
(1.62467e-09 2.73968e-09 5.66867e-08)
(-3.0964e-10 -1.58335e-10 2.89485e-08)
(1.20692e-09 1.08412e-09 2.10142e-08)
(-2.88231e-10 -3.72512e-11 4.68203e-08)
(-1.63717e-08 9.33655e-10 2.2181e-07)
(-9.89823e-10 -2.65955e-10 1.83478e-07)
(-1.93025e-09 -2.10738e-09 1.99826e-08)
(-2.8281e-09 7.58508e-10 2.19648e-08)
(6.43438e-10 8.91352e-10 3.34821e-07)
(-2.56854e-08 5.63825e-09 1.66162e-07)
(-2.3253e-09 1.23481e-10 4.95143e-08)
(-4.54884e-10 -2.89835e-10 2.27503e-07)
(-1.76254e-09 8.4596e-10 1.11274e-07)
(1.78004e-09 -3.99841e-10 2.05212e-07)
(1.56774e-09 2.31211e-09 4.69375e-08)
(-1.89121e-09 -2.46671e-09 9.75855e-08)
(4.88819e-10 1.97651e-09 1.97995e-07)
(6.2074e-10 6.20841e-10 2.61531e-07)
(2.14413e-10 2.16834e-09 3.96948e-07)
(-2.33849e-09 3.31071e-09 4.58972e-08)
(-7.25073e-10 -2.2878e-09 2.61012e-08)
(-3.58743e-08 3.99043e-10 2.01613e-07)
(-3.21403e-09 2.18815e-09 2.96955e-08)
(-2.39443e-10 3.38598e-09 3.14139e-07)
(-4.10678e-09 -1.27292e-09 3.09223e-08)
(8.73989e-10 3.17676e-09 1.53173e-07)
(-9.09798e-10 -5.68674e-10 2.94696e-07)
(2.8185e-09 1.28546e-09 4.18536e-07)
(-7.36395e-10 -1.47967e-09 6.26848e-08)
(1.23908e-09 -9.63231e-10 1.44514e-07)
(-2.17659e-09 -3.54424e-10 4.10017e-08)
(-3.87476e-09 -2.09833e-10 3.07682e-08)
(4.88778e-10 -1.11914e-09 2.51018e-07)
(-2.2139e-09 1.06382e-09 1.57763e-08)
(1.48428e-09 -6.50118e-11 1.7527e-07)
(-7.10561e-10 -3.21156e-09 6.49881e-08)
(-4.28199e-10 1.96902e-09 3.22363e-07)
(-3.1252e-10 6.6541e-10 2.27935e-07)
(3.07467e-09 1.24438e-09 2.05631e-08)
(-2.4067e-09 -6.42329e-09 1.41913e-07)
(-3.40962e-12 8.25946e-10 2.47018e-07)
(-1.48609e-10 1.62149e-09 3.32756e-08)
(9.35031e-10 -1.24108e-09 2.817e-07)
(-1.99352e-09 5.82808e-09 8.37662e-08)
(5.61662e-10 7.63873e-11 2.21823e-07)
(8.74556e-10 9.4963e-10 2.1712e-07)
(2.23221e-09 8.55899e-11 5.88569e-08)
(-3.07152e-09 -6.17027e-10 2.25896e-08)
(-1.7782e-09 -6.83694e-10 9.80209e-08)
(-3.9163e-08 1.78966e-10 2.43599e-07)
(-1.15174e-09 1.82344e-10 2.3457e-07)
(3.46501e-10 5.30182e-09 8.16752e-08)
(3.06719e-09 -3.51664e-10 1.92208e-07)
(4.1177e-10 1.12183e-09 2.61379e-08)
(1.0107e-09 7.49795e-10 1.92241e-07)
(1.04383e-09 1.38307e-09 2.45869e-08)
(-8.95604e-10 2.35306e-09 3.26954e-07)
(8.79655e-10 8.69871e-10 3.03271e-07)
(3.44046e-10 2.36787e-10 2.14293e-07)
(-1.56804e-09 -1.94645e-10 1.53944e-08)
(2.00663e-09 6.70466e-10 3.41126e-07)
(-6.10291e-10 8.26313e-10 1.62302e-07)
(5.52621e-10 1.06345e-09 3.52903e-07)
(1.49972e-10 5.75259e-10 6.62585e-08)
(-3.0169e-08 8.19637e-10 2.2252e-07)
(-2.14501e-09 1.6444e-09 2.60101e-07)
(1.23767e-09 -5.31991e-11 7.02691e-08)
(9.57113e-11 1.13815e-09 2.39761e-07)
(-3.94734e-08 4.60297e-09 2.10042e-07)
(-9.43876e-10 -5.63265e-10 1.85374e-07)
(-8.35959e-10 -1.94822e-09 3.47709e-08)
(-2.48804e-09 4.96273e-09 1.07487e-07)
(-1.0055e-10 5.58819e-11 1.81925e-07)
(8.7068e-10 -2.07978e-09 2.20872e-07)
(-1.12596e-09 1.43419e-09 3.40555e-08)
(-4.02323e-10 -3.78133e-09 2.24402e-07)
(4.70403e-09 2.92261e-09 1.65663e-07)
(-1.85091e-09 2.08565e-09 2.63632e-08)
(-3.79712e-10 -8.80712e-11 1.94639e-07)
(-1.55631e-08 7.31438e-10 1.58305e-07)
(-2.5086e-09 -5.74369e-09 3.30947e-07)
(-6.69241e-12 2.64803e-10 1.93879e-07)
(5.18497e-10 2.00975e-10 1.74916e-07)
(9.1845e-10 -6.16214e-10 2.99646e-07)
(1.44204e-09 5.50899e-10 2.59527e-07)
(2.0355e-09 6.88825e-10 7.47683e-08)
(-8.60603e-10 5.33695e-09 7.65626e-08)
(2.69641e-09 5.14589e-10 3.61101e-07)
(-2.68741e-08 -1.1366e-09 2.24759e-07)
(3.8529e-10 2.24057e-09 2.14077e-07)
(1.87188e-09 -1.14376e-09 1.92158e-07)
(2.98352e-09 -1.36126e-09 1.3261e-07)
(-6.00374e-10 1.66752e-09 3.21443e-07)
(-1.51166e-10 1.03661e-09 1.98133e-07)
(-2.20882e-09 -1.59767e-09 1.8781e-07)
(-3.20971e-09 3.08145e-09 2.33112e-07)
(-1.39283e-09 2.49499e-09 4.53006e-08)
(-1.84011e-09 -9.0812e-10 1.78083e-07)
(-2.72672e-09 -2.0241e-09 4.1927e-08)
(8.85751e-10 -1.93899e-09 3.0972e-07)
(1.25773e-10 -4.03582e-10 3.12239e-07)
(-5.881e-10 4.95965e-09 1.7254e-07)
(1.48862e-10 -1.52532e-09 1.66208e-07)
(1.12908e-09 -1.68551e-09 1.88497e-08)
(1.22708e-10 -1.00601e-09 1.09771e-07)
(-4.03449e-09 -1.83669e-09 7.94929e-08)
(-1.31724e-09 1.01821e-09 2.52394e-07)
(1.70516e-09 5.63034e-10 2.25916e-07)
(-2.38522e-08 -1.53985e-09 2.20549e-07)
(-2.60025e-09 5.47219e-10 3.03842e-07)
(-1.41076e-09 2.8614e-09 8.57145e-08)
(-1.12046e-08 5.08916e-10 1.36567e-07)
(2.14995e-10 -4.32425e-09 2.47961e-07)
(2.10156e-09 9.48998e-10 2.94107e-08)
(1.26458e-09 3.2784e-10 2.3193e-07)
(-2.65726e-10 1.65058e-09 5.68974e-08)
(-1.73889e-09 -6.51948e-10 2.06638e-07)
(4.37083e-09 -2.14359e-09 3.41864e-08)
(2.38426e-09 1.72183e-10 3.45645e-07)
(-1.02513e-08 -5.798e-10 2.03958e-07)