/*--------------------------------*- C++ -*----------------------------------*\
| =========                 |                                                 |
| \\      /  F ield         | OpenFOAM: The Open Source CFD Toolbox           |
|  \\    /   O peration     | Version:  2406                                  |
|   \\  /    A nd           | Website:  www.openfoam.com                      |
|    \\/     M anipulation  |                                                 |
\*---------------------------------------------------------------------------*/
FoamFile
{
    version     2.0;
    format      ascii;
    arch        "LSB;label=32;scalar=64";
    class       volScalarField;
    location    "36";
    object      nut;
}
// * * * * * * * * * * * * * * * * * * * * * * * * * * * * * * * * * * * * * //

dimensions      [0 2 -1 0 0 0 0];

internalField   nonuniform List<scalar> 
59516
(
1.77283e-05
3.43303e-05
1.65997e-05
4.99328e-05
0.00110181
0.000186199
2.74356e-05
2.16565e-05
1.5253e-05
8.55472e-05
0.000511082
6.71955e-05
1.83364e-05
0.000156053
7.85557e-05
6.92843e-05
0.000240749
9.41425e-05
2.61815e-05
0.000154913
0.000139765
5.18514e-05
7.19987e-05
0.000132858
6.48781e-05
6.91843e-05
0.000126667
0.000159549
8.09031e-05
0.000136797
0.000242485
0.000151714
3.06845e-05
3.45512e-05
5.91424e-05
4.03259e-05
0.000133479
8.57044e-05
2.80113e-05
8.95959e-05
1.88887e-05
0.000207913
6.61401e-05
3.3135e-05
4.12997e-05
6.95856e-05
2.60831e-05
0.000246351
0.000867458
0.000141669
0.0006239
0.000122133
1.30895e-05
2.00347e-05
0.000147421
2.77621e-05
0.00030396
0.000138915
0.000285701
5.19219e-05
7.84352e-05
0.000146803
0.000212483
0.000206775
3.27749e-05
8.00484e-05
0.000191502
0.000121653
0.00042686
2.16051e-05
0.000209928
0.000172228
0.000169366
5.65271e-05
0.000389755
0.000117135
0.000230305
6.83718e-05
0.000117875
0.00015064
0.000123418
9.4764e-05
5.36206e-05
0.000155441
9.28248e-05
0.000315102
0.000121308
4.94235e-05
7.06037e-05
5.31667e-05
0.000565053
6.76516e-05
0.000221834
5.43113e-05
0.000171952
0.00109363
6.58148e-05
6.99736e-05
7.83971e-05
7.5178e-05
0.000141351
0.000170536
0.000167247
6.96135e-05
3.46484e-05
0.00010983
0.000133076
1.33277e-05
2.61962e-05
7.62321e-05
0.000249933
0.000183768
8.12365e-05
0.000156417
0.000109863
2.19492e-05
7.05331e-05
4.13478e-05
0.000155868
6.56493e-05
0.00051849
0.000224573
9.88368e-05
0.000222652
0.000246358
2.89952e-05
0.000187244
0.000127196
0.000281143
0.000352347
0.000468754
1.68367e-05
0.000148752
4.37919e-05
2.79521e-05
1.35146e-05
0.000114022
1.42112e-05
0.000131151
3.64134e-05
0.000123775
0.000402158
0.000132757
3.02851e-05
0.000367895
4.96428e-05
3.38918e-05
2.33845e-05
0.000251132
1.97644e-05
3.07673e-05
0.000119085
0.000120887
7.56341e-05
2.41525e-05
0.000145529
3.00432e-05
1.59544e-05
2.9708e-05
0.000147976
8.381e-05
8.16348e-05
0.00012703
0.000175892
2.21295e-05
0.00022988
7.00196e-05
0.000311492
0.000139632
7.80785e-05
2.82824e-05
6.71624e-05
5.45505e-05
3.43503e-05
0.000104938
3.09897e-05
0.000237367
8.36158e-05
7.49053e-05
0.000106803
4.89662e-05
0.000122574
0.000198108
5.5307e-05
0.000334774
6.74344e-05
0.000103327
0.000143975
1.6966e-05
2.42718e-05
6.02974e-05
6.99679e-05
0.000160666
4.98944e-05
6.23105e-05
0.000104441
6.69624e-05
0.00010708
4.02276e-05
6.33569e-05
4.83613e-05
0.000495572
1.9216e-05
0.000136376
2.35071e-05
5.11099e-05
0.000384118
0.00014402
0.000149947
2.8861e-05
8.00201e-05
0.000180779
5.35371e-05
7.52605e-05
2.17777e-05
0.000190594
4.22343e-05
6.41407e-05
7.74464e-05
9.4583e-05
7.94336e-05
3.81758e-05
0.000203333
0.000143335
0.000240516
0.000259138
0.000177861
0.000121048
0.000254211
7.36779e-05
0.000224364
0.000269542
0.000507696
0.000162014
0.000120263
0.000104996
5.72095e-05
1.70722e-05
0.000120809
8.39364e-05
0.000467733
0.000158203
6.51091e-05
0.000175194
0.00040342
2.16206e-05
7.54497e-05
7.61445e-05
0.000177877
1.70839e-05
0.000134068
5.71907e-05
0.00051166
7.49295e-05
5.79215e-05
0.000107371
8.04804e-05
0.000100357
0.000120321
7.56566e-05
2.37127e-05
0.000141247
2.40556e-05
0.000266187
1.68151e-05
6.11733e-05
0.000135504
2.49832e-05
0.000151469
6.46378e-05
3.1964e-05
0.00025982
1.70279e-05
2.84325e-05
0.000170489
2.24944e-05
0.000143195
0.000115646
0.000160761
0.000120543
0.00044815
4.20142e-05
0.000179287
2.43466e-05
2.2064e-05
0.00024711
0.000388513
0.000181299
0.000436303
0.000572112
0.000290262
3.9559e-05
5.4523e-05
2.56309e-05
0.000194817
0.000191544
0.000151892
3.30682e-05
0.000520318
0.000253868
1.36184e-05
6.09993e-05
0.000155076
0.000164851
9.16209e-05
0.000155169
0.000108865
8.24171e-05
0.000177787
0.00017567
6.02574e-05
6.48691e-05
2.79641e-05
0.00013515
6.95649e-05
0.000147181
2.46867e-05
0.00108399
3.49921e-05
0.000113417
8.27994e-05
2.863e-05
0.000315023
0.000447328
0.000510928
0.000101856
3.99349e-05
3.323e-05
0.000217834
0.000133553
0.000110073
6.61202e-05
0.000163987
7.94708e-05
0.000115154
0.000123361
0.000159351
4.97227e-05
6.97931e-05
0.000279251
0.000129206
0.00043609
0.000283721
0.000110058
0.000108868
0.000387477
6.85645e-05
0.000448514
0.000325151
3.86731e-05
3.44097e-05
9.77265e-05
4.55572e-05
3.33422e-05
0.00012797
0.000130741
3.04896e-05
0.000143827
0.000263924
3.057e-05
2.68231e-05
3.65432e-05
0.000453507
7.29984e-05
2.78554e-05
8.05095e-05
8.7615e-05
0.000129772
0.00028841
8.04551e-05
0.000115011
0.000126012
0.000151736
3.01458e-05
0.000135193
0.000142595
3.13094e-05
0.000126759
0.000195425
6.02341e-05
6.47702e-05
1.49057e-05
0.000531808
0.000164614
7.08112e-05
4.20899e-05
0.000155589
4.87048e-05
2.51359e-05
2.4618e-05
3.29431e-05
3.13279e-05
0.000124566
0.000128712
0.000448938
0.000100397
7.60729e-05
7.4587e-05
0.000373778
0.000330018
6.21162e-05
2.02116e-05
2.13133e-05
0.000393207
0.000361981
0.000131234
3.80097e-05
5.66266e-05
5.71695e-05
9.52043e-05
0.000167282
0.000157055
2.09596e-05
0.000311918
0.000444633
0.000124985
0.000262284
1.50378e-05
0.000384372
0.000328721
0.000414498
0.000309964
0.000281609
1.9884e-05
0.000410757
7.0975e-05
0.000201371
2.61168e-05
0.000102594
0.000347083
4.94826e-05
6.53563e-05
0.000109698
0.000124972
0.000146615
0.000293063
0.000403555
5.86072e-05
1.90417e-05
0.000111941
0.000156824
2.61866e-05
0.000111295
0.00033055
9.03765e-05
3.24498e-05
0.000483702
3.14365e-05
0.000174871
2.58821e-05
6.6851e-05
0.000254623
0.000121047
2.56595e-05
6.33416e-05
0.000157469
0.000388778
0.000386936
0.00039185
1.92967e-05
0.000109602
0.000295579
4.5558e-05
0.000464175
3.01855e-05
0.000238113
6.06454e-05
0.000147757
0.000356878
2.67152e-05
0.000124483
1.73783e-05
0.000207328
3.02008e-05
3.30033e-05
0.000152356
0.000260485
2.20174e-05
0.000105641
2.86884e-05
0.000109225
5.31599e-05
0.000178095
0.000175837
0.000792391
0.000240856
0.000134864
2.23407e-05
1.99679e-05
9.26925e-05
0.000541711
0.000359246
0.000171905
0.000172427
0.00053726
0.000141257
7.38535e-05
6.5729e-05
0.00010744
0.000420705
0.000216355
6.60646e-05
6.35654e-05
1.91271e-05
0.000459103
0.000164841
8.90576e-05
9.15277e-05
0.000395214
0.000233253
0.000158569
0.000151083
0.000165019
0.000153606
5.82241e-05
8.57049e-05
6.51559e-05
0.000157026
0.000136365
0.000119467
7.33247e-05
3.54266e-05
6.94202e-05
6.19194e-05
0.000413292
0.000289336
0.000171695
1.80441e-05
0.00012028
0.000252528
7.12869e-05
0.000250729
7.79574e-05
3.96342e-05
0.000372085
9.71013e-05
0.000245683
0.000151625
0.000143744
5.58021e-05
0.000424305
3.45253e-05
2.78414e-05
0.000350377
8.49789e-05
0.000172972
6.42671e-05
0.000324275
2.90718e-05
0.000170671
6.77631e-05
0.000131307
0.000170686
4.60167e-05
0.000110215
4.64869e-05
0.000441774
3.92214e-05
6.33751e-05
0.000322317
2.86914e-05
0.000389222
0.000322303
0.000403421
0.000421428
0.00011702
7.70554e-05
0.000322254
0.000120175
0.000132167
0.000159343
0.000267896
0.000256213
0.000365898
1.28247e-05
0.000147731
0.000202493
3.30373e-05
0.000114807
1.95928e-05
0.000176167
0.000451448
3.18999e-05
2.48551e-05
0.000441294
4.4328e-05
0.000120678
0.000156471
0.000372073
0.000233636
0.000529325
0.000122321
2.59921e-05
7.10917e-05
0.00032564
0.000143892
0.000440246
0.000171585
0.000135293
6.48999e-05
3.38184e-05
4.63381e-05
3.81771e-05
1.80383e-05
1.81981e-05
0.000489128
3.409e-05
0.000259597
0.000234797
0.000407893
0.00031759
0.000140951
0.000152172
0.000122707
0.00020764
6.29822e-05
0.000567771
3.68516e-05
0.000161428
0.000292981
0.000193904
8.29672e-05
0.000274511
0.000121939
0.00148212
0.000706038
0.000385754
1.39522e-05
0.000172303
0.000370378
2.22093e-05
0.00011225
5.61457e-05
0.000161912
0.000170675
0.000187734
5.47961e-05
5.74521e-05
0.000164967
0.000158739
0.000586683
0.000209822
0.000123378
6.00511e-05
1.45364e-05
3.35158e-05
0.000140977
6.82616e-05
1.8541e-05
0.00024355
8.02138e-05
0.000123891
0.000153108
0.000391296
0.000183746
3.56071e-05
0.000173487
2.62064e-05
0.000390051
0.000215081
0.000115258
2.82061e-05
0.000109038
0.000180512
0.000348244
0.000140919
0.000214987
0.000137065
0.000107756
5.44938e-05
0.000151348
6.98702e-05
6.38681e-05
0.00012178
0.000175943
7.52717e-05
1.45779e-05
0.000453204
0.000118614
0.000156601
0.000122632
0.0006684
1.98247e-05
7.18619e-05
2.06321e-05
0.000112496
0.000485081
0.000161648
0.000143323
2.65108e-05
0.000215532
0.000145311
4.72553e-05
2.94822e-05
0.000109637
7.89522e-05
0.000883267
8.14761e-05
0.000105423
0.000546743
0.0004874
1.58753e-05
0.000118601
0.000137741
0.000428883
2.12933e-05
0.000120924
1.5451e-05
6.82268e-05
0.000164242
0.000369745
0.00124465
2.04638e-05
0.000266049
0.00034319
0.000225684
2.7946e-05
0.000117457
0.00012349
0.000367011
0.000985402
1.47016e-05
3.09551e-05
3.13332e-05
5.35336e-05
0.000169983
2.62471e-05
1.64398e-05
0.000156498
7.50598e-05
0.00014514
8.71106e-05
0.000231931
2.47115e-05
1.8728e-05
0.000139349
3.24657e-05
7.77021e-05
0.000324703
0.000341123
0.00118155
0.000168337
2.55244e-05
0.000839315
4.71479e-05
0.000177507
0.000353953
7.01981e-05
4.07153e-05
0.000182655
0.000230347
0.00134683
0.000113663
1.64962e-05
7.76052e-05
5.56858e-05
0.000446668
0.000132125
0.000141498
0.000104868
0.000353717
0.000122942
4.7649e-05
8.68157e-05
0.000134803
3.79656e-05
3.22178e-05
0.000335236
2.86029e-05
7.84346e-05
3.53464e-05
0.000465188
0.000154235
2.39595e-05
0.000125507
0.000175172
0.000103458
6.77074e-05
0.000154117
4.27268e-05
0.000200586
6.70348e-05
0.000144249
1.84496e-05
0.000161085
1.71818e-05
0.000289828
0.000556632
0.000287422
0.00012075
0.000319531
2.85793e-05
0.000111734
0.000296311
2.65505e-05
2.44589e-05
4.36442e-05
0.000185916
1.71308e-05
5.80586e-05
7.21451e-05
0.000125733
2.56097e-05
2.58967e-05
7.55983e-05
9.68487e-05
0.000264827
6.28556e-05
0.000120097
0.000184437
6.48574e-05
0.000147759
2.50287e-05
0.000112841
2.86598e-05
8.90134e-05
4.82841e-05
9.38244e-05
0.000162612
0.000128812
0.000611616
0.000105438
0.000161816
1.83318e-05
1.79756e-05
0.000162146
0.000128343
0.000156504
0.000287312
0.000117541
3.45485e-05
7.20796e-05
9.22737e-05
2.73084e-05
0.000387975
0.000142259
0.000125487
2.2323e-05
2.08287e-05
0.000140864
5.58338e-05
0.000331079
0.00027879
0.000229567
3.52792e-05
0.000117072
0.000530516
3.16128e-05
0.000135704
0.000240339
1.80191e-05
0.000140264
0.000143402
0.000362056
7.14006e-05
2.42906e-05
2.32844e-05
1.70503e-05
3.05221e-05
1.89724e-05
2.99145e-05
2.2161e-05
5.83759e-05
0.000168973
0.000314495
0.00156179
2.66686e-05
2.6494e-05
3.43677e-05
0.000139632
0.00011097
2.77936e-05
4.31507e-05
3.25602e-05
0.000520101
6.32172e-05
0.000458739
0.000372639
0.000224757
3.04096e-05
0.000325844
0.000154289
3.41056e-05
9.02688e-05
0.000120761
0.000102158
0.000366794
2.42671e-05
0.000353072
0.000537712
0.000295693
6.83465e-05
0.00143783
0.000134973
1.68384e-05
0.000305092
0.000169773
8.13298e-05
6.6448e-05
3.06335e-05
0.000105389
0.000102283
0.000269608
0.000258136
8.20775e-05
3.15257e-05
0.000139714
0.000112765
0.000157506
2.52974e-05
3.42014e-05
9.1783e-05
0.000450128
0.000386223
0.000141246
0.00032812
2.65079e-05
3.82761e-05
0.00014046
6.86507e-05
2.19806e-05
0.000331334
9.41073e-05
0.00023781
0.000204113
0.00020185
0.000422811
0.000232182
0.000276468
0.000262017
0.000487537
0.00140398
3.38998e-05
3.31528e-05
0.000132556
7.15639e-05
0.000170741
1.58464e-05
0.000132541
0.000205409
2.01853e-05
0.000586198
0.000589316
0.00044008
7.22047e-05
2.55274e-05
0.000372869
0.000294873
2.21718e-05
0.000425512
0.000166661
0.00038344
0.000118882
2.56251e-05
0.000198281
6.24934e-05
0.000124945
0.000206524
0.000148851
5.41139e-05
0.000112386
0.000335138
0.00011471
2.72938e-05
6.08921e-05
5.70794e-05
2.56163e-05
0.000503528
7.09503e-05
9.84279e-05
0.000197197
2.03622e-05
0.000457555
0.000513705
1.62069e-05
0.00044251
0.000305752
7.11863e-05
0.000468528
0.000119332
0.000123155
0.000274229
0.000181706
0.000197443
0.000351421
2.02841e-05
2.2313e-05
0.000344806
0.000165354
0.000217709
0.000361547
1.61483e-05
0.000177479
0.000155632
2.7448e-05
0.000119178
4.11901e-05
3.44943e-05
2.65198e-05
0.000142082
1.53483e-05
0.000183704
0.000209847
0.000573972
0.000408043
5.90759e-05
0.000148347
0.000391921
1.83352e-05
6.18582e-05
0.000121558
2.69447e-05
0.000125638
0.000447195
5.85614e-05
0.00014102
2.81083e-05
2.36935e-05
0.000150251
3.14899e-05
2.71787e-05
0.000123158
2.3889e-05
0.000135678
0.000139297
2.26367e-05
0.000357985
0.00018629
0.000396084
3.22117e-05
5.97334e-05
2.63995e-05
5.68319e-05
0.000152644
0.000163103
9.27867e-05
6.04919e-05
0.000179526
0.000138398
0.000478006
6.01556e-05
0.00031058
3.50358e-05
5.79184e-05
7.75932e-05
0.000104413
2.34406e-05
0.000408924
6.89216e-05
7.17413e-05
3.88873e-05
0.000173992
2.92942e-05
6.75597e-05
0.000450491
0.000130211
9.23872e-05
2.06085e-05
0.000171456
0.0001456
0.000132455
0.000364848
7.71192e-05
2.54779e-05
0.000175909
0.000181745
4.31361e-05
0.000172553
0.000114628
0.000119604
0.000219653
2.89485e-05
0.000151137
6.50248e-05
0.000232758
0.00015897
3.27277e-05
4.60991e-05
0.000147133
0.000413342
2.52558e-05
4.93613e-05
0.000117384
0.000122479
8.16673e-05
3.60618e-05
0.000155515
0.000187868
0.000177807
4.74604e-05
0.000145335
1.81653e-05
4.86324e-05
9.13196e-05
0.00024874
7.6292e-05
4.76502e-05
6.12069e-05
6.18106e-05
2.76835e-05
0.000121787
0.000176451
0.000265745
1.70964e-05
1.68907e-05
0.00017463
0.000145901
0.000101195
0.000201641
0.000334528
0.000141865
0.000173284
0.000279045
0.000318635
0.000133143
0.000134934
0.00030227
2.59098e-05
0.000180701
3.16728e-05
0.000321829
0.000156562
0.000314119
4.52517e-05
0.000129802
0.000155322
0.000101379
0.000365984
0.000229165
1.4777e-05
0.00011585
6.50671e-05
6.99823e-05
0.000121105
7.67817e-05
0.000178491
5.69484e-05
3.31163e-05
2.21102e-05
7.82583e-05
0.000155974
0.000469432
0.000300617
1.63801e-05
0.000325964
1.91655e-05
5.63803e-05
0.000138208
8.74708e-05
0.000241134
1.88184e-05
6.05238e-05
1.60371e-05
6.20495e-05
3.14793e-05
1.63031e-05
4.71633e-05
2.84709e-05
7.67846e-05
0.000187354
2.92127e-05
7.20375e-05
0.000183329
0.000163712
0.000120674
2.66498e-05
3.17521e-05
3.34321e-05
0.000149355
6.95711e-05
6.26627e-05
0.000128554
0.000146797
3.71461e-05
0.000308807
3.49809e-05
3.86526e-05
3.2288e-05
2.37816e-05
0.00012827
0.00011997
0.000137725
0.00048717
1.74976e-05
5.82362e-05
2.34688e-05
1.88083e-05
3.43773e-05
0.000203557
2.49332e-05
0.000145475
0.000173718
2.36259e-05
0.000149917
0.000434705
2.01941e-05
2.94939e-05
2.32284e-05
5.18658e-05
0.000104756
7.38713e-05
0.000139028
0.000510949
0.00058476
4.01547e-05
4.4576e-05
0.000118404
0.000246111
0.000130607
0.000215194
0.000201054
0.000267984
8.50438e-05
0.00015671
0.000180352
0.000125881
0.000160725
0.000110351
0.000133388
0.000222776
1.98763e-05
7.35711e-05
0.000533024
2.80586e-05
3.70259e-05
2.27213e-05
0.000183204
0.000201843
6.91972e-05
0.000129776
0.000247095
3.87047e-05
0.000146033
0.000111155
5.89344e-05
2.94275e-05
7.69298e-05
0.000496946
0.000140871
0.00019023
0.000278601
0.000407907
0.000151332
6.68981e-05
3.56963e-05
2.85703e-05
2.01053e-05
2.5552e-05
5.4928e-05
0.000439533
3.4718e-05
0.000130275
6.56924e-05
0.00018936
6.65233e-05
3.95183e-05
2.1173e-05
0.000175317
7.84046e-05
1.96685e-05
0.000278079
0.000200491
0.000130594
0.000112549
0.00018709
0.000297245
0.000427065
0.000151979
2.71372e-05
3.93434e-05
0.000314854
4.70687e-05
0.000142873
1.99629e-05
5.75124e-05
2.89819e-05
0.000256462
1.87049e-05
0.000165541
2.43897e-05
0.000157304
1.81018e-05
0.000152309
0.000108612
3.94182e-05
0.00028604
0.000161937
7.73798e-05
1.95785e-05
4.69505e-05
5.99952e-05
7.30795e-05
2.22681e-05
0.000395608
0.000132222
0.000405176
4.89236e-05
7.20359e-05
6.95664e-05
0.000176041
0.000117824
0.000350588
3.23161e-05
2.96524e-05
1.82242e-05
2.61103e-05
1.80434e-05
0.000147662
0.000114058
0.00017413
3.1288e-05
0.000563484
0.000112106
0.000121257
6.29577e-05
0.000174741
0.000127427
0.000174978
0.000248516
0.000559498
6.19466e-05
7.10966e-05
0.000385617
0.000115927
8.06018e-05
0.000472008
0.000192787
2.40851e-05
0.00171326
0.00019911
0.00015715
3.43508e-05
0.00010304
0.000359386
3.15251e-05
0.000108682
0.00029115
3.7133e-05
7.05939e-05
0.00011717
2.86307e-05
0.00049502
0.000124638
2.72647e-05
9.2067e-05
0.000124465
0.000189633
2.14676e-05
8.18451e-05
7.92483e-05
0.000161871
5.75221e-05
0.000130607
0.000136722
0.000126198
0.000159414
2.1284e-05
2.41919e-05
0.000409336
0.000146756
0.000229128
2.18144e-05
5.4023e-05
2.18729e-05
0.000121182
0.000119225
0.000138425
0.00140607
3.26294e-05
0.000581728
2.63854e-05
0.000138018
3.64784e-05
2.20957e-05
0.000197443
0.000113889
2.93879e-05
2.09656e-05
0.000144536
8.92872e-05
5.04487e-05
0.000436205
0.000165652
0.000123245
1.25448e-05
3.2246e-05
0.000217163
3.89465e-05
4.252e-05
0.000260162
2.3682e-05
8.8683e-05
3.07484e-05
0.000306691
1.85136e-05
2.47609e-05
2.52468e-05
3.25832e-05
0.000480075
3.92524e-05
0.000195444
2.96095e-05
0.000206714
0.000228677
7.75846e-05
4.02705e-05
4.58014e-05
0.000547577
0.000114712
2.86927e-05
3.05167e-05
1.62017e-05
0.000165887
0.000175322
0.000222948
7.33025e-05
0.000197946
9.90828e-05
0.000138139
3.0375e-05
0.000115132
0.000153651
0.000526085
6.50906e-05
0.000189225
2.80956e-05
0.00027211
0.000130609
0.000138732
2.05094e-05
7.54804e-05
0.000170068
3.64015e-05
6.77798e-05
4.16112e-05
0.000306319
9.76633e-05
0.000345314
2.0124e-05
2.42801e-05
3.43148e-05
0.000128309
0.000103965
7.87879e-05
0.000111845
1.83703e-05
0.000261734
8.1168e-05
7.02452e-05
1.72994e-05
5.12343e-05
8.55846e-05
6.49372e-05
2.48092e-05
0.000147715
9.11186e-05
6.9881e-05
0.000135877
2.60272e-05
2.7591e-05
2.14958e-05
2.98273e-05
7.8354e-05
2.20707e-05
3.28101e-05
0.000184922
2.04284e-05
0.000175919
0.000163082
0.000128245
3.57377e-05
1.59754e-05
8.15105e-05
3.75954e-05
1.93375e-05
0.000140315
4.74394e-05
2.49955e-05
8.16864e-05
2.5059e-05
0.000137556
6.60553e-05
9.35696e-05
2.26868e-05
6.38719e-05
2.41401e-05
0.000162124
1.18157e-05
0.000127164
2.86805e-05
0.000357047
7.61479e-05
6.31026e-05
0.000126931
0.00012092
0.000168329
2.35502e-05
0.000191354
0.000127302
0.000217476
2.93608e-05
7.49871e-05
2.63625e-05
2.52268e-05
0.000164824
2.5119e-05
1.5519e-05
0.00050478
0.000138582
0.000142699
2.59988e-05
2.71927e-05
4.07632e-05
0.000116667
0.000197866
0.000155716
0.000109634
2.77932e-05
5.97674e-05
1.46201e-05
0.000119413
0.000156967
0.000360705
0.000307791
0.000120719
1.90619e-05
0.000111385
2.33222e-05
7.80204e-05
0.000141008
1.7328e-05
7.81685e-05
3.01562e-05
0.000337212
1.52993e-05
3.84821e-05
0.000128917
0.00045001
0.000185313
6.24129e-05
0.000335679
0.000440615
3.65969e-05
0.000196589
0.000119152
0.000649514
0.000589734
7.85768e-05
5.17292e-05
0.000101432
0.000132862
1.69912e-05
5.96175e-05
3.87204e-05
8.17187e-05
2.21663e-05
0.000307399
4.69594e-05
0.000226383
0.000624022
6.32708e-05
8.65584e-05
0.00011405
0.000140923
3.10355e-05
3.72362e-05
8.78385e-05
0.000167996
0.000328721
0.000120147
0.000517481
7.34059e-05
0.000169317
2.70793e-05
0.000136716
0.000103143
0.000158863
0.000131044
6.4508e-05
4.32794e-05
3.41402e-05
9.59829e-05
0.000176089
6.0727e-05
3.7872e-05
0.000270211
2.23779e-05
0.000149077
2.94232e-05
0.000132111
1.94954e-05
0.000115771
6.01362e-05
0.000107765
0.000283285
0.000116723
0.000178775
0.000283045
0.000103158
0.00025403
3.93556e-05
0.000187535
0.000165138
3.77802e-05
0.000181289
1.20883e-05
2.01007e-05
2.67917e-05
0.000487792
1.98853e-05
0.000129736
0.000506576
6.05735e-05
2.85347e-05
0.000129343
1.7209e-05
0.000447578
3.76902e-05
1.98622e-05
0.000123604
2.9272e-05
1.54904e-05
2.6498e-05
5.186e-05
0.000141219
0.000157205
0.000218268
2.71281e-05
0.000244816
2.6083e-05
0.000160254
0.000575118
5.90509e-05
0.000457739
0.000150971
0.000120124
5.50479e-05
0.000120993
0.000129839
0.000195157
0.000518589
3.56997e-05
0.000160894
5.85676e-05
0.000130686
0.00017521
3.85527e-05
0.000313401
0.000435244
6.92422e-05
0.000232781
5.91612e-05
0.000302441
1.91012e-05
1.85781e-05
0.000274037
6.19607e-05
0.000140133
0.000124416
1.84376e-05
0.000189194
2.69294e-05
0.00015372
0.000167354
5.04725e-05
0.000181566
7.79787e-05
0.000184065
0.000395462
0.000123332
7.91462e-05
0.000285411
2.26779e-05
9.22937e-05
3.69056e-05
6.5205e-05
0.000188414
0.000269681
0.000181644
0.000137157
0.000114282
0.000118878
0.000172731
0.000525587
6.51832e-05
2.00929e-05
2.1609e-05
2.30314e-05
0.000201008
0.000132109
6.89627e-05
0.000341857
0.000177701
0.000151943
0.000102919
3.34574e-05
0.000182041
2.97096e-05
0.000127611
0.0001075
3.87374e-05
0.00116651
0.000149611
2.04005e-05
7.95886e-05
0.000146994
6.49205e-05
0.000148981
6.91696e-05
0.000246598
0.000157417
0.000493883
0.000113491
2.18702e-05
6.18094e-05
0.000443535
0.000141258
0.000163894
0.000281389
0.000121311
3.30203e-05
1.63868e-05
0.000521831
0.000166779
0.00019559
0.00014667
0.000524366
0.000154645
0.000110485
2.05804e-05
0.00049542
4.89778e-05
0.000101769
0.000300277
6.22971e-05
1.62906e-05
4.28131e-05
2.56584e-05
7.29428e-05
6.24281e-05
0.000137825
9.59903e-05
2.32806e-05
6.52744e-05
2.30114e-05
0.000141531
0.000100408
0.000290721
0.000178587
2.56013e-05
3.19035e-05
0.000140194
0.000224146
0.00016675
0.000138577
7.23517e-05
6.13701e-05
0.000178597
0.000168188
0.000172443
2.63533e-05
0.00018256
5.96777e-05
0.000137884
3.64595e-05
0.000154749
0.000104423
1.86834e-05
0.000132327
0.000142528
0.000189005
3.53939e-05
0.000193524
0.000114581
0.000315983
0.000510867
6.74342e-05
0.000105384
2.21369e-05
0.000101068
0.00042309
4.53829e-05
0.000123025
0.000265551
7.28636e-05
1.94769e-05
8.44172e-05
0.000150763
0.000126543
4.6212e-05
2.09047e-05
1.31087e-05
2.05834e-05
0.000303264
6.15142e-05
0.000108865
0.000172471
1.82231e-05
0.000507543
0.000414282
0.00012822
0.000120144
1.64201e-05
7.02064e-05
1.48253e-05
0.000205266
0.000107348
0.00013029
0.000266878
6.89688e-05
0.000114273
0.000131827
3.80488e-05
5.58732e-05
4.31497e-05
2.18069e-05
1.9797e-05
6.21193e-05
3.02452e-05
0.000337627
2.24933e-05
3.27806e-05
0.000146316
9.49864e-05
0.000175884
1.75821e-05
2.54075e-05
2.69981e-05
5.99152e-05
6.1216e-05
9.70342e-05
6.1547e-05
0.000146761
1.39946e-05
0.000289971
0.000203687
0.000137859
0.000117721
7.60692e-05
0.000160968
0.000134412
0.000269845
0.000407685
0.000157279
0.000128
6.34503e-05
0.000452434
0.000366111
5.05046e-05
2.10711e-05
0.000103141
2.83075e-05
2.34481e-05
0.000120258
0.000463971
4.57457e-05
3.22542e-05
2.46742e-05
3.71794e-05
0.000183376
4.47857e-05
2.72541e-05
8.32158e-05
0.00039379
0.000132258
0.000201709
0.000134825
0.00026226
0.000164528
7.27954e-05
8.05388e-05
0.000172247
0.000157031
6.64101e-05
0.000175546
7.04557e-05
0.000499945
0.000322301
3.98346e-05
0.000145053
0.000129596
3.56395e-05
0.000126704
0.000269139
2.05263e-05
0.000210028
9.93489e-05
1.63064e-05
0.000218403
0.000285222
0.000196463
0.000236267
6.64361e-05
4.96358e-05
1.79268e-05
0.000207057
0.000280456
6.18937e-05
3.14774e-05
0.000167593
0.000147305
2.84361e-05
1.61297e-05
0.000259087
0.000254151
0.000171627
2.64309e-05
2.72415e-05
4.59053e-05
2.81106e-05
0.000125481
3.1413e-05
3.63065e-05
0.000389925
1.46421e-05
2.33302e-05
0.000115832
1.89167e-05
3.94521e-05
0.000152549
1.53003e-05
6.75689e-05
3.95849e-05
7.86986e-05
0.000258182
0.00011882
0.000165428
3.28292e-05
0.000238459
2.91669e-05
0.000180948
1.59471e-05
3.04723e-05
1.52773e-05
0.000154946
1.52529e-05
0.000122927
0.000128959
3.91159e-05
0.000147823
0.00031368
0.000130458
0.000248419
5.99381e-05
2.57013e-05
0.000155932
2.95525e-05
0.000109841
2.3665e-05
7.95179e-05
9.64494e-05
0.000248552
6.94746e-05
9.77712e-05
0.000406051
0.000108831
0.00010748
9.49412e-05
0.000134519
3.95775e-05
0.000455648
0.00036757
7.09926e-05
4.47218e-05
0.000153317
0.00020824
0.000145388
4.45565e-05
0.000164763
0.000365626
0.000171854
0.000107692
3.3709e-05
2.57188e-05
4.70744e-05
2.45208e-05
0.000149581
0.000178832
0.000177959
0.000153294
6.86712e-05
7.68324e-05
2.48783e-05
2.39156e-05
9.62495e-05
0.000152601
6.80459e-05
0.000121003
0.000269834
0.000173411
6.15514e-05
6.76222e-05
2.88036e-05
6.99631e-05
0.000314897
0.000168833
5.11957e-05
0.00014003
0.000323547
8.72229e-05
0.00028727
0.00024846
1.80394e-05
0.000424696
6.54653e-05
0.000308288
2.60256e-05
3.29878e-05
0.0003191
3.00472e-05
0.0001257
6.01067e-05
0.000105896
7.79178e-05
0.000372266
6.04206e-05
0.000129719
0.000154403
0.000403906
6.07173e-05
1.66295e-05
0.000464986
0.00019115
0.000119571
0.000251652
2.77243e-05
2.61453e-05
0.000130903
1.53047e-05
0.000184627
9.85459e-05
2.74586e-05
6.81924e-05
7.34157e-05
2.2323e-05
0.000122385
0.000119325
0.000197355
3.10079e-05
0.000188999
0.000387001
3.73998e-05
4.89612e-05
4.31948e-05
9.48752e-05
2.33579e-05
0.000290133
0.000355926
0.000480215
0.000539121
0.00012178
0.000150206
0.000158576
6.18481e-05
0.000121533
0.000348084
0.000369789
2.95104e-05
8.3354e-05
0.000220494
0.000158008
0.000613508
0.000184582
0.000276776
0.000397077
8.19541e-05
8.24415e-05
1.23913e-05
0.000118179
0.000140252
4.90431e-05
2.62376e-05
9.14165e-05
2.58289e-05
5.7767e-05
2.30748e-05
0.000445668
2.13613e-05
3.77611e-05
0.000288457
8.4379e-05
0.000123573
0.000247725
0.000442902
7.02812e-05
0.000138211
2.61607e-05
0.000152749
0.000279555
3.31399e-05
0.000117555
0.00042224
0.000499917
0.000159494
2.50094e-05
0.000206731
9.48474e-05
0.000167128
6.60896e-05
3.14649e-05
7.15793e-05
6.53779e-05
3.67238e-05
6.45573e-05
0.000355262
2.85659e-05
0.000209892
4.84402e-05
2.63049e-05
3.2018e-05
0.00014894
3.69478e-05
0.000144907
3.12023e-05
5.89826e-05
5.77136e-05
0.000223847
8.31568e-05
0.000119838
0.000148056
0.000187604
2.46205e-05
0.000106038
2.73017e-05
0.000123063
0.000189098
3.01195e-05
0.00010302
2.09737e-05
0.000198515
2.48116e-05
0.000123748
0.000111342
0.000294976
0.000129252
0.000117214
6.72713e-05
2.19741e-05
2.66829e-05
0.000565607
0.000127353
0.00046481
8.61734e-05
2.79664e-05
2.25196e-05
2.82256e-05
0.000121844
0.00011079
0.000128148
6.63343e-05
0.000343669
6.90249e-05
9.16327e-05
5.95308e-05
0.000126829
2.65421e-05
0.00010827
0.000156513
0.00015302
6.72482e-05
1.40716e-05
0.000257513
7.15333e-05
0.000512497
0.000159071
1.97315e-05
5.51184e-05
0.000110093
0.000116276
0.000156767
2.85132e-05
0.000151863
0.000126165
5.31045e-05
2.11118e-05
0.000254216
9.84768e-05
0.000204952
4.26261e-05
0.000189361
2.73025e-05
6.59913e-05
8.00633e-05
0.000119766
3.23379e-05
4.21766e-05
4.1474e-05
2.00224e-05
0.000140514
2.15641e-05
2.05194e-05
0.000272435
3.33921e-05
0.000118193
5.60864e-05
0.000140147
3.14004e-05
0.000376438
7.079e-05
6.81498e-05
5.96349e-05
0.000193169
3.61424e-05
6.66113e-05
0.000136777
0.000100899
5.88225e-05
0.000123011
6.49728e-05
0.000480297
0.000153144
2.30474e-05
0.000160778
3.01813e-05
6.25735e-05
0.000122763
7.37999e-05
0.000107444
0.000168073
0.000138571
0.000123957
0.000117221
0.000200757
2.69976e-05
0.000339943
2.30757e-05
7.17913e-05
0.000157211
0.000422055
0.000134377
0.000158747
3.15911e-05
2.10797e-05
1.3458e-05
0.000111548
0.000152506
0.000110591
3.49375e-05
0.000189882
0.00030567
0.000139749
2.26108e-05
5.60907e-05
0.000473301
0.000523957
0.000118394
0.000123615
0.000139625
0.000124528
7.05863e-05
6.30708e-05
0.000118418
2.1703e-05
2.8134e-05
0.000156764
2.80651e-05
0.00017472
1.8596e-05
4.67156e-05
0.000359756
0.000139332
0.000183419
1.89086e-05
0.000102549
0.000361096
8.63843e-05
2.87138e-05
0.000139263
2.96081e-05
1.99971e-05
0.000119311
5.43596e-05
2.16103e-05
0.000482159
0.000372641
6.6933e-05
0.000139051
0.000152605
0.000107502
0.000269741
5.57552e-05
4.28607e-05
0.000182515
0.000208062
0.000121202
0.000251689
0.000128175
1.58131e-05
0.000157688
0.00013139
6.59824e-05
6.23497e-05
0.000115442
0.000118393
4.26885e-05
0.000100162
0.000369946
6.46347e-05
3.47948e-05
0.000131275
2.18528e-05
2.55188e-05
9.92892e-05
0.000290536
0.000323921
0.000173594
8.92836e-05
3.88203e-05
6.87673e-05
0.000169218
0.000284151
0.000210944
2.11627e-05
7.97438e-05
0.000169889
1.83645e-05
2.40336e-05
0.000149942
8.51309e-05
0.000142763
7.17677e-05
0.000121731
0.000246923
0.000113649
0.00038227
6.22609e-05
0.000150291
0.000263235
0.000143237
6.05836e-05
3.94335e-05
0.000152967
0.000175906
0.000264014
7.38587e-05
0.000167852
0.00022496
6.13018e-05
4.24975e-05
0.000123586
6.82912e-05
3.20564e-05
7.58087e-05
6.1109e-05
7.15057e-05
0.000615754
1.47089e-05
9.90748e-05
3.36459e-05
0.000118325
0.000114879
0.000258426
0.000131085
0.000112727
0.000131077
2.49678e-05
7.5262e-05
6.21715e-05
0.000161128
2.82657e-05
0.000151133
0.000207579
9.70249e-05
4.70157e-05
1.75875e-05
0.000453769
4.17253e-05
0.000158263
2.90614e-05
0.000173281
0.000172262
2.4295e-05
2.43358e-05
7.36792e-05
0.000106123
0.000220895
0.000124005
0.000308561
0.000145423
8.64909e-05
0.000225645
2.15026e-05
0.000118859
0.00015613
2.34807e-05
0.000140372
2.22594e-05
0.000147226
1.64756e-05
3.86556e-05
2.80514e-05
2.40739e-05
3.19243e-05
2.37426e-05
0.000142765
4.66177e-05
0.000132551
6.08806e-05
1.63797e-05
9.51027e-05
0.000162834
1.71549e-05
0.000183595
6.12985e-05
0.000125518
2.14753e-05
5.71727e-05
2.96036e-05
2.7508e-05
1.17289e-05
0.000115527
0.000172083
0.000255129
0.000440813
0.000138267
9.32663e-05
0.000155632
0.000119831
0.000533401
1.63792e-05
0.000347659
2.37916e-05
1.79933e-05
3.94972e-05
0.000455187
0.000158224
0.000142286
0.000191214
0.000121479
0.000144756
5.84452e-05
5.99047e-05
0.000152837
0.000108715
0.000296105
2.73172e-05
2.97842e-05
5.1452e-05
0.000104342
4.42638e-05
0.000102452
0.000139945
2.74865e-05
0.000101021
3.06514e-05