/*--------------------------------*- C++ -*----------------------------------*\
| =========                 |                                                 |
| \\      /  F ield         | OpenFOAM: The Open Source CFD Toolbox           |
|  \\    /   O peration     | Version:  2406                                  |
|   \\  /    A nd           | Website:  www.openfoam.com                      |
|    \\/     M anipulation  |                                                 |
\*---------------------------------------------------------------------------*/
FoamFile
{
    version     2.0;
    format      ascii;
    arch        "LSB;label=32;scalar=64";
    class       volScalarField;
    location    "36";
    object      p;
}
// * * * * * * * * * * * * * * * * * * * * * * * * * * * * * * * * * * * * * //

dimensions      [0 2 -2 0 0 0 0];

internalField   nonuniform List<scalar> 
59516
(
0.257492
0.0152048
0.0146382
0.00199954
0.271048
0.291609
0.258365
0.228242
0.0741989
-0.000556936
0.265763
0.259718
0.177907
0.256772
0.240673
0.0751727
0.258857
0.266732
0.262984
0.255652
0.262138
0.227678
0.258288
0.163661
0.0660261
0.157855
0.0928887
0.265464
0.26081
0.239624
0.274432
0.265607
0.118345
0.00159981
0.263221
0.214581
0.0641873
0.26958
0.261438
0.0132914
0.015647
0.265855
0.262328
0.00154143
0.260847
0.0408008
0.261693
0.262228
0.272723
0.263596
0.27876
0.00135102
0.120482
0.232748
0.261601
0.260633
0.267066
0.00170879
0.163405
0.264328
0.00165051
0.209764
0.164439
0.259223
0.00336927
0.261158
0.00836448
0.218705
0.27306
0.26073
0.222727
0.255747
0.0451356
0.256946
0.219931
0.260311
0.261679
0.0291319
0.181369
0.263441
0.00152305
0.263396
0.262418
0.10579
0.263381
0.254973
0.0743923
0.255775
0.119417
0.266702
0.269244
0.224106
0.250389
0.221109
0.222021
0.272429
0.239644
0.228996
0.263137
0.175715
0.0806592
0.14555
0.235055
0.00912164
0.0450904
0.00681985
0.00643412
0.0699425
0.125715
0.182928
0.271375
0.0868563
0.22472
0.27192
0.247567
0.203787
0.0319828
0.23324
0.233597
0.0322401
0.235104
0.231415
0.0603099
0.233058
0.269861
0.263321
0.247835
0.267448
0.278505
0.249404
0.246857
0.0156473
0.219798
0.250025
0.250673
0.216617
0.270249
0.243371
0.146715
0.253926
0.0880976
0.110347
0.228444
0.0874132
0.254677
0.252217
0.261216
0.256587
0.277547
0.25102
0.254522
0.00318347
0.247828
0.003186
0.249467
0.00555568
0.00418116
0.250282
0.25098
0.241502
0.254754
0.254481
0.240787
0.00457618
0.201993
0.0302377
0.0741866
0.252006
0.252747
0.00433822
0.249554
0.249578
0.244771
0.245655
0.245164
0.26224
0.204954
0.263023
0.0142718
0.20242
0.247608
0.129282
0.153662
0.24692
0.247486
0.0821895
0.113414
0.0633885
0.24869
0.246036
0.000416401
0.128129
0.251939
0.246005
0.253256
0.020689
0.147334
0.146798
0.00408428
0.244184
-0.000496953
0.0623665
0.229804
0.176744
0.20949
0.129211
0.252763
0.00347985
0.168502
0.237471
0.0423556
0.265232
0.236387
0.210567
0.237616
0.0934443
0.251389
0.0206425
0.193256
0.237905
0.237834
0.252288
0.244597
0.00464278
0.240793
0.204338
0.167849
0.176823
0.244291
0.0370717
0.240184
0.127251
0.244786
0.134251
0.141163
0.24499
0.243437
0.0511306
0.243215
0.0544134
0.248051
0.12956
0.125463
0.00342937
0.249164
0.24862
0.246108
0.0127592
0.24487
0.248258
0.0132313
0.24607
0.248472
0.152765
0.247422
0.248126
0.0756613
0.242514
0.186801
0.239169
0.17027
0.241049
0.242645
0.242489
0.214342
0.0577238
0.194459
0.0685635
0.239939
0.160821
0.258904
0.209078
0.0728562
0.163859
0.241203
0.214605
0.161121
0.239911
0.240813
0.0939324
0.244349
0.177492
0.164909
0.238512
0.236804
0.258148
0.247952
0.00771642
0.242801
0.215568
0.241941
0.23889
0.221545
0.0296687
0.224956
0.124998
0.21663
0.212084
0.239698
0.215396
0.21507
0.0605928
0.0982804
0.209012
0.218933
0.157408
0.0205551
0.214949
0.216322
0.080321
0.065991
0.216176
0.153657
0.144578
0.261056
0.218045
0.230447
0.273133
0.217337
0.0633343
0.127421
0.229297
0.13556
0.232565
0.177659
0.218687
0.265119
0.230509
0.167734
0.231941
0.0234135
0.254556
0.164812
0.23189
0.18916
0.239052
0.242742
0.208522
0.26451
0.237141
0.210728
0.208416
0.233059
0.0508576
0.103909
0.236943
0.0966057
0.24196
0.233322
0.187309
0.244091
0.245791
0.0379796
0.120126
0.167831
0.05178
0.00807053
0.271222
0.275795
0.203617
0.0340026
0.250636
0.264233
0.225316
0.0336416
0.231956
0.231367
0.251111
0.274862
0.235655
0.0854107
0.0837724
0.230907
0.172446
0.198889
0.230623
0.232369
0.22659
0.18396
0.220356
0.251622
0.00137251
0.264968
0.01062
0.0199166
0.23229
0.00782329
0.264513
0.231606
0.014696
0.0142292
0.057207
0.226911
0.269814
0.229764
0.270291
0.0118325
0.0751902
0.226866
0.227893
0.239081
0.224613
0.185252
0.2394
0.240684
0.0609027
0.145986
0.240809
0.239135
0.238098
0.0406036
0.0232556
0.0252535
0.133213
0.210138
0.0108505
0.0370104
0.0699633
0.00497437
0.226264
0.223855
0.230109
0.229736
0.241579
0.229498
0.17523
0.22344
0.151331
0.230146
0.190956
0.233641
0.22854
0.214493
0.134693
0.239487
0.264947
0.0240613
0.234284
0.171806
0.0830015
0.1747
0.19396
0.236103
0.234015
0.230602
0.228882
0.0802168
0.228593
0.176823
0.0295243
0.196321
0.275957
0.151026
0.0648418
0.231002
0.188926
0.228028
0.141533
0.228148
0.0639376
0.229156
0.0042837
0.00809178
0.225087
0.262359
0.222746
0.205663
0.0389643
0.209046
0.207148
0.0436851
0.216366
0.207204
0.202253
0.201588
0.101105
0.209655
0.204083
0.138144
0.202004
0.0891308
0.199482
0.265622
0.199642
0.278016
0.20074
0.243684
0.0868168
0.0999449
0.17394
0.00432259
0.00320174
0.188999
0.214267
0.218626
0.167313
0.204835
0.051552
0.224683
0.222504
0.266791
0.147356
0.129172
0.177496
0.222192
0.0219552
0.216704
0.257846
0.00497368
0.297652
0.2235
0.0671949
0.254273
0.187348
0.259842
0.208193
0.180083
0.199704
0.225949
0.183542
0.226204
0.250663
0.0770918
0.0773834
0.2705
0.00328808
0.224604
0.215481
0.270061
0.213649
0.254297
0.00104748
0.217392
0.0874642
0.000482042
0.162596
0.040884
0.267977
0.232463
0.0716422
0.00281775
0.239486
0.131919
0.216161
0.238428
0.215416
0.251372
0.000881069
0.107529
0.070631
0.21538
0.0373127
0.156863
0.224628
0.137526
0.223061
0.00278909
0.227761
0.0668622
0.223843
0.174839
0.119118
0.110988
0.225929
0.00244511
0.0448881
0.21426
0.0828502
0.168481
0.193444
0.12614
0.121222
0.213833
0.213228
0.246335
0.212383
0.120153
0.214029
0.211791
0.115241
0.102996
0.000992965
0.213104
0.21271
0.214507
0.098336
0.205383
0.0112039
0.215415
0.00597145
0.226283
0.000858379
0.0256858
0.181741
0.128701
0.0116023
0.215907
0.26828
0.0037681
0.0182742
0.21242
0.208899
0.0350728
0.211149
0.211949
0.142131
0.0419005
0.226399
0.218714
0.0147827
0.214145
0.214362
0.1561
0.210432
0.277062
0.214885
0.270285
0.183931
0.27271
0.186738
0.0244057
0.253507
0.0058982
0.00653157
0.274388
0.273062
0.188602
0.21417
0.267727
0.264537
0.13162
0.105743
0.173141
0.064679
0.184588
0.122177
0.264826
0.187666
0.190039
0.207129
0.195576
0.274928
0.176214
0.199425
0.0556769
0.199887
0.147755
0.0191009
0.199813
0.198849
0.200172
0.148975
0.0901838
0.283155
0.125118
0.128461
0.152731
0.238963
0.200578
0.0654143
0.185026
0.15265
0.014211
0.068239
0.202885
0.234468
0.160115
0.149313
0.20212
0.20203
0.0807408
0.245448
0.211911
0.138124
0.208928
0.166934
0.219505
0.206485
0.0108795
0.027078
0.187385
0.275552
0.146533
0.136562
0.0035533
0.156532
0.206089
0.117757
0.21644
0.211554
0.0896703
0.123142
0.214531
0.254055
0.226491
0.170466
0.274912
0.214418
0.0354738
0.223651
0.277703
0.0227798
0.122121
0.239513
0.201494
0.0779791
0.195421
0.0244108
0.0184394
0.170013
0.201959
0.274965
0.228357
0.201378
0.20094
0.207052
0.0909522
0.0114292
0.0662882
0.226703
0.274327
0.151088
0.204202
0.136117
0.0588274
0.200685
0.0627432
0.201594
0.259059
0.123736
0.00237328
0.23213
0.0961222
0.207656
0.0186321
0.0773771
0.154211
0.235301
0.205705
0.207593
0.275622
0.235622
0.0398417
0.27762
0.00362334
-0.000634911
0.206958
0.0427598
0.112162
0.153922
0.107761
0.275145
0.203447
0.231763
0.199233
0.046354
0.165668
0.0529619
0.126359
0.230127
0.198885
0.200815
0.198555
0.073302
0.248749
0.186311
0.0653028
0.199887
0.19817
0.197535
0.183571
0.199818
0.020184
0.0126608
0.198713
0.00377068
0.119707
0.137318
0.0110976
0.144447
0.169287
0.256411
0.18853
0.223041
0.173598
0.127193
0.200571
0.202496
0.202767
0.10844
0.201801
0.24923
0.0174266
0.00293193
0.134338
0.114557
0.0032547
0.20139
0.198551
0.200084
0.0191199
0.0311516
0.197779
0.238653
0.0300702
0.0394132
0.27514
0.266586
0.203946
0.0405873
0.213966
0.188161
0.219193
0.170609
0.195235
0.269111
0.170778
0.170205
0.0870198
0.172116
0.270096
0.0335723
0.193105
0.170702
0.102656
0.211517
0.218286
0.0884468
0.21015
0.23603
0.213162
0.170632
0.260291
0.0525411
0.17015
0.230597
0.0156984
0.183196
0.0702899
0.167329
0.0922857
0.269151
0.1744
0.00330763
0.168227
0.167361
0.178458
0.169395
0.155928
0.00495386
0.0430182
0.2106
0.181024
0.148766
0.21302
0.107967
0.23699
0.0245966
0.180414
0.0802498
0.163128
0.213508
0.0161131
0.183336
0.17965
0.271376
0.0258398
0.219394
0.241311
0.0412345
0.176379
0.0429532
0.142637
0.201953
0.218005
0.176016
0.174854
0.174236
0.275043
0.0320938
0.216897
0.106661
0.0195967
0.176918
0.2224
0.187917
0.186968
0.0333141
0.189941
0.191632
0.100151
0.243993
0.273616
0.256564
0.142095
0.191756
0.00419673
0.263824
0.172456
0.188923
0.156445
0.191168
0.189581
0.1946
0.212488
0.194651
0.218189
0.190107
0.253636
0.255154
0.189443
0.208689
0.188432
0.218159
0.218944
0.0138976
0.124375
0.148216
0.0136037
0.201536
0.192062
0.203273
0.105197
0.00667487
0.109924
0.188329
0.20654
0.206678
0.121271
0.140462
0.204098
0.271972
0.193399
0.00874592
0.0195977
0.227225
0.194784
0.115488
0.154702
0.192231
0.125267
0.184065
0.18455
0.184307
0.156655
0.208944
0.183768
0.276164
0.0247679
0.183507
0.276398
0.18412
0.243024
0.0421998
0.18224
0.115282
0.0878794
0.184322
0.183568
0.113261
0.115381
0.182443
0.0970311
0.180621
0.181453
0.188546
0.107578
0.179124
0.0316432
0.181893
0.181421
0.121582
0.17963
0.180161
0.257624
0.17465
0.146877
0.176137
0.178171
0.123402
0.0594543
0.106286
0.264593
0.18047
0.181492
0.15217
0.0609303
0.265094
0.154863
0.157819
0.153607
0.152426
0.0117781
0.00623475
0.0506696
0.101404
0.181554
0.180923
0.00607045
0.227152
0.170669
0.0776803
0.265124
0.148845
0.147777
0.267496
0.150743
0.219798
0.0464423
0.148704
0.213766
0.197864
0.149122
0.109939
0.0404902
0.149755
0.227173
0.202913
0.114901
0.0550296
0.0884186
0.156654
0.0916459
0.226876
0.0876343
0.154132
0.164943
0.271343
0.119081
0.0109567
0.0582561
0.0892498
0.151169
0.225214
0.163635
0.163403
0.0212284
0.129242
0.00863091
0.166036
0.165999
0.090478
0.0131996
0.199609
0.039897
0.247814
0.185195
0.181699
0.263588
0.0885828
0.214745
0.224109
0.14858
0.0163233
0.181786
0.261191
0.179893
0.177586
0.151147
0.0782754
0.181294
0.0176473
0.262579
0.22867
0.120887
0.180947
0.172696
0.226441
0.256122
0.216237
0.0304035
0.0791831
0.178321
0.186679
0.21082
0.117857
0.207146
0.266544
0.177053
0.209334
0.0709488
0.183812
0.137534
0.0851085
0.183398
0.183621
0.182529
0.20942
0.179211
0.0418817
0.180133
0.0779474
0.205524
0.0208902
0.17825
0.208873
0.0040509
0.0236843
0.174864
0.0665395
0.0458651
0.0705188
0.0593611
0.107064
0.0393455
0.177545
0.175741
0.0317519
0.174776
0.176033
0.207658
0.0103241
0.177357
0.170112
0.00232122
0.0251526
0.167098
0.0967796
0.00385831
0.0131733
0.167641
0.11975
0.172916
0.259213
0.0172532
0.207928
0.155234
0.172104
0.169078
0.152604
0.19617
0.180028
0.174165
0.158969
0.262203
0.229995
0.172701
0.175562
0.241132
0.0358128
0.227626
0.196446
0.118294
0.111699
0.17526
0.0798687
0.0204445
0.161632
0.166582
0.277084
0.13998
0.166841
0.164668
0.192384
0.0792042
0.164863
0.16592
0.252631
0.166391
0.0749175
0.169484
0.169289
0.135214
0.122567
0.148491
0.169217
0.166371
0.169124
0.113873
0.143442
0.172845
0.15025
0.112839
0.120003
0.120703
0.121109
0.140522
0.1674
0.143716
0.265269
0.242614
0.0434279
0.101718
0.106139
0.141749
0.139652
0.143985
0.185338
0.140445
0.139935
0.0842874
0.106053
0.19751
0.083608
0.0345511
0.143172
0.142057
0.144823
0.246377
0.0143878
0.00715437
0.0994956
0.153098
0.150167
0.227789
0.0353005
0.142314
0.265395
0.0412526
0.151415
0.151399
0.18087
0.00189503
0.149465
0.150042
0.149156
0.161754
0.00528799
0.00780517
0.162279
0.16223
0.158959
0.16067
0.166752
0.157501
0.078804
0.0165499
0.270234
0.202484
0.16271
0.161409
0.121595
0.257829
0.250525
0.232295
0.00145811
0.232571
0.163542
0.163743
0.162096
0.162919
0.163634
0.162154
0.222792
0.135882
0.216781
0.143552
0.0783016
0.0144368
0.164716
0.122107
0.00463466
0.145321
0.169571
0.261985
0.170853
0.11605
0.112305
0.199793
0.126872
0.167435
0.174102
0.171828
0.139119
0.150243
0.257964
0.166966
0.214981
0.0751486
0.0622204
0.164815
0.0644075
0.0232563
0.169713
0.169098
0.124921
0.0844583
0.0968449
0.243198
0.168639
0.0504999
0.0060735
0.151295
0.0285886
0.119098
0.163169
0.202426
0.150525
0.0262037
0.248195
0.0156271
0.24111
0.132169
0.228645
0.155331
0.0448034
0.164809
0.148432
0.0939664
0.113024
0.165414
0.165746
0.248973
0.20409
0.216576
0.254101
0.209836
0.20212
0.202523
0.221391
0.161811
0.160885
0.126644
0.0633332
0.0727276
0.0183435
0.229807
0.127267
0.158418
0.156519
0.157529
0.045027
0.154452
0.218068
0.00524939
0.154161
0.158852
0.182174
0.272716
0.219113
0.217866
0.155123
0.0130369
0.229102
0.157284
0.190833
0.165184
0.194832
0.206735
0.144582
0.226202
0.160472
0.203951
0.164922
0.0207023
0.219631
0.22673
0.12977
0.268369
0.0729599
0.0838917
0.073255
0.143124
0.213675
0.0592164
0.19024
0.0606663
0.161188
0.161199
0.138322
0.167425
0.151496
0.239316
0.196402
0.149654
0.20171
0.156772
0.273745
0.224288
0.156511
0.152054
0.196025
0.235215
0.153754
0.0269376
0.189695
0.239078
0.15065
0.137165
0.15503
0.157896
0.159417
0.160283
0.00398155
0.0732062
0.161511
0.267689
0.160106
0.130972
0.210418
0.128483
0.11166
0.240056
0.267856
0.220282
0.220372
0.222113
0.0355372
0.150071
0.180183
0.266326
0.254557
0.268393
0.272037
0.254318
0.133138
0.1299
0.266807
0.0576494
0.134195
0.201244
0.131054
0.219802
0.206777
0.266564
0.247449
0.219476
0.0727648
0.133302
0.147603
0.141692
0.148978
0.22253
0.202384
0.148214
0.143748
0.145899
0.0163276
0.235461
0.0421524
0.149652
0.177084
0.155257
0.151181
0.145674
0.0424516
0.152667
0.134374
0.15191
0.150954
0.226952
0.137489
0.0784983
0.0476315
0.212668
0.107925
0.107156
0.2075
0.0894572
0.0503371
0.0435946
0.0331909
0.204373
0.0675555
0.136889
0.170923
0.0327178
0.2323
0.233174
0.095566
0.092727
0.25164
0.141555
0.0159655
0.165433
0.0332169
0.19952
0.031627
0.0488396
0.0199783
0.0104697
0.0803962
0.228217
0.0469533
0.0251924
0.0262824
0.148488
0.0302543
0.14637
0.234019
0.150233
0.147614
0.203832
0.0464767
0.153209
0.15181
0.0126185
0.0732649
0.229084
0.153098
0.153589
0.205879
0.234502
0.222927
0.233508
0.0553953
0.258628
0.266783
0.153159
0.154105
0.0133555
0.24179
0.265654
0.15133
0.114609
0.150681
0.0181903
0.223722
0.00702768
0.0462264
0.142082
0.183741
0.14375
0.117088
0.230535
0.107585
0.218598
0.142421
0.143474
0.0707712
0.13532
0.122651
0.262044
0.23055
0.19725
0.142606
0.235608
0.0788114
0.0455353
0.0652322
0.0141666
0.142961
0.232571
0.142264
0.0143551
0.0119619
0.226654
0.144428
0.0685647
0.24278
0.144663
0.145147
0.227163
0.0205893
0.225325
0.145701
0.148699
0.149674
0.157293
0.149849
0.221266
0.217749
0.149863
0.250482
0.160326
0.217551
0.183253
0.147792
0.233524
0.144692
0.115908
0.25281
0.163701
0.147019
0.0122064
0.150558
0.149333
0.112283
0.143692
0.200245
0.0576101
0.230838
0.137031
0.210106
0.221093
0.147242
0.161044
0.0108525
0.0685953
0.0557303
0.145522
0.23129
0.0198413
0.142855
0.253101
0.0549077
0.208174
0.0521045
0.143695
0.175977
0.141825
0.00150307
0.189349
0.231421
0.112403
0.0363461
0.0560217
0.108772
0.110476
0.117681
0.228772
0.011353
0.0368096
0.123236
0.124452
0.216708
0.200477
0.125198
0.130628
0.119488
0.183269
0.254237
0.237583
0.159678
0.0303474
0.214169
0.213072
0.0952909
0.0496734
0.195376
0.0902631
0.123102
0.203856
0.159781
0.163735
0.139404
0.119269
0.129728
0.129452
0.127711
0.207758
0.132181
0.178696
0.250171
0.23129
0.201602
0.223543
0.12031
0.0879756
0.229804
0.133071
0.204487
0.15789
0.21095
0.260246
0.124858
0.00728815
0.134312
0.136329
0.143164
0.228158
0.133662
0.140526
0.162791
0.143003
0.162552
0.136326
0.00189499
0.161332
0.140666
0.139877
0.00533363
0.202662
0.256189
0.16088
0.168421
0.126649
0.142125
0.140815
0.0579747
0.254126
0.142589
0.142179
0.144165
0.0356948
0.228661
0.153394
0.1282
0.161037
0.0836032
0.109221
0.215924
0.132162
0.128489
0.104296
0.128938
0.13996
0.0874341
0.132311
0.228408
0.150139
0.0760862
0.227427
0.228473
0.115326
0.116434
0.0980839
0.132437
0.0583686
0.135856
0.064268
0.275782
0.212195
0.174915
0.0835023
0.0216308
0.237973
0.0195076
0.0224491
0.131734
0.00211852
0.132217
0.0312908
0.176173
0.0924409
0.130844
0.198361
0.177231
0.131963
0.0271009
0.0222195
0.172365
0.129818
0.0392605
0.132847
0.131268
0.15
0.137997
0.25934
0.204695
0.237775
0.173918
0.199646
0.131842
0.204063
0.175425
0.132157
0.239476
0.263068
0.198563
0.193668
0.132214
0.221682
0.129012
0.238541
0.170556
0.202269
0.0200762
0.0414863
0.191363
0.0108747
0.230721
0.27543
0.241162
0.0127109
0.0564024
0.0194587
0.226783
0.236493
0.00668213
0.177267
0.12489
0.221282
0.181938
0.124339
0.133098
0.0319873
0.194812
0.198641
0.0547443
0.259213
0.237446
0.142151
0.126401
0.270413
0.125459
0.264256
0.196917
0.194852
0.12673
0.247096
0.112633
0.245022
0.227917
0.249538
0.00732783
0.129856
0.25728
0.0684374
0.266081
0.130394
0.251136
0.0983211
0.0974889
0.103827
0.260276
0.212956
0.248462
0.211738
0.110753
0.25701
0.257509
0.0989132
0.258794
0.114961
0.204866
0.108833
0.212763
0.140083
0.0947768
0.133226
0.091959
0.134078
0.0212257
0.116468
0.1067
0.238951
0.103565
0.197717
0.148282
0.176105
0.114081
0.0395186
0.0851924
0.19928
0.108907
0.238531
0.0735842
0.118627
0.245604
0.203146
0.120745
0.2212
0.11899
0.108648
0.106424
0.13871
0.113804
0.00221761
0.0394377
0.043102
0.109312
0.109965
0.201724
0.0492087
0.0289542
0.103761
0.0692709
0.236863
0.215058
0.0350667
0.121584
0.178787
0.115265
0.122888
0.0989166
0.120577
0.214518
0.120101
0.16789
0.000689118
0.233655
0.164955
0.267713
0.12394
0.120139
0.0225408
0.239239
0.0921278
0.124613
0.204739
0.128811
0.125367
0.117855
0.115953
0.0326178
0.128161
0.122817
0.123654
0.118261
0.138378
0.120443
0.233665
0.0999758
0.125675
0.236028
0.267418
0.172612
0.103619
0.192666
0.123204
0.112725
0.107341
0.0583155
0.100547
0.092132
0.255066
0.101988
0.13883
0.136486
0.0348731
0.100712
0.233175
0.114934
0.117847
0.163477
0.154225
0.11267
0.179533
0.139037
0.116165
0.113517
0.129068
0.114003
0.231764
0.223043
0.103412
0.0998927
0.110091
0.0454558
0.116444
0.138839
0.200916
0.113439
0.117591
0.107488
0.119357
0.234389
0.0993587
0.226782
0.117277
0.113372
0.104881
0.113836
0.0885719
0.110354
0.0904546
0.0791097
0.11228
0.252128
0.127821
0.249929
0.164515
0.0759033
0.0253964
0.0978045
0.23344
0.114685
0.113348
0.0836806
0.11505
0.0832849
0.23548
0.23392
0.0871711
0.0877934
0.0916438
0.0921215
0.186303
0.146099
0.0898147
0.0903595
0.0682057
0.111604
0.0918141
0.0921575
0.0534027
0.0517699
0.00254196
0.092403
0.188389
0.0326349
0.146245
0.0957042
0.0984368
0.102976
0.131492
0.231082
0.116695
0.0845237
0.0129034
0.0205896
0.148132
0.0969034
0.0920023
0.126362
0.0340269
0.0225731
0.0981613
0.232613
0.109116
0.111039
0.052408
0.103153
0.261095
0.105669
0.103772
0.144913
0.105794
0.109445
0.23263
0.110008
0.124307
0.0204472
0.00455498
0.181283
0.0394455
0.0229927
0.11348
0.0937473
0.232983
0.111491
0.241681
0.24209
0.10837
0.231685
0.00795461
0.104733
0.111492
0.0369344
0.112574
0.242174
0.267844
0.0527268
0.237971
0.111051
0.199937
0.220431
0.111629
0.116395
0.240367
0.109378
0.259693
0.110974
0.134736
0.120573
0.260472
0.237747
0.136033
0.11387
0.110541
0.20832
0.134366
0.20833
0.237875
0.234241
0.114231
0.0135642
0.114708
0.106816
0.207003
0.0869687
0.207736
0.0448983
0.219967
0.000378767
0.233861
0.135256
0.0962345
0.105765
0.236565
0.103353
0.233363
0.226564
0.236204
0.0148732
0.00388493
0.209903
0.00410846
0.103228
0.133171
0.180062
0.100977
0.226965
0.153578
0.2312
0.0986107
0.229336
0.189531
0.206587
0.268945
0.139419
0.254223
0.0981924
0.0111534
0.153465
0.0109942
0.266277
0.0489589
0.148357
0.20689
0.108189
0.102937
0.0153446
0.0364246
0.104988
0.212559
0.236048
0.00735845
0.242447
0.13538
0.259156
0.0622736
0.214963
0.104817
0.190159
0.23782
0.187431
0.175573
0.198487
0.216744
0.231291
0.173355
0.0457941
0.202953
0.106791
0.106978
0.106608
0.0643226
0.253358
0.254443
0.204828
0.116606
0.226946
0.234045
0.116442
0.107616
0.106474
0.102831
0.253446
0.0517196
0.100616
0.159057
0.103144
0.202677
0.187245
0.123569
0.061173
0.104184
0.102262
0.144997
0.264844
0.167758
0.102377
0.228496
0.0729793
0.0558871
0.249144
0.00541856
0.0726159
0.015425
0.072722
0.0729277
0.229642
0.100999
0.188921
0.228131
0.125945
0.107543
0.237504
0.0768164
0.234507
0.0967031
0.0997938
0.10002
0.20666
0.173586
0.234006
0.211452
0.224574
0.0858738
0.149027
0.238129
0.221785
0.107614
0.22091
0.0748601
0.203366
0.0495348
0.205559
0.102917
0.184128
0.0911581
0.139066
0.221402
0.0727076
0.222156
0.0562415
0.111273
0.089198
0.0329557
0.0938691
0.088022
0.124096
0.23409
0.0919602
0.0430399
0.0194785
0.207596
0.0215099
0.22376
0.00449017
0.0962797
0.0527224
0.0952177
0.221753
0.225612
0.0490629
0.252291
0.0349186
0.00244622
0.206018
0.185738
0.0939799
0.222152
0.0710632
0.0211436
0.120941
0.00284825
0.153824
0.197614
0.142938
0.0961688
0.26329
0.0974746
0.157498
0.206075
0.129106
0.224854
0.0938763
0.140689
0.093051
0.145604
0.25183
0.0998832
0.0862096
0.146163
0.0936915
0.163183
0.0925508
0.0609687
0.0923327
0.251662
0.0920585
0.0883834
0.0912139
0.244969
0.116129
0.235511
0.255569
0.253806
0.179582
0.0507334
0.067155
0.188012
0.222528
0.0240551
0.0646788
0.0911932
0.0897185
0.223872
0.266417
0.00324261
0.0340206
0.0827532
0.23558
0.0344969
0.130472
0.224229
0.0888271
0.0875032
0.0884268
0.0857987
0.0887076
0.180723
0.109533
0.220316
0.0245775
0.0920129
0.0889084
0.246825
0.139211
0.242461
0.257466
0.0490801
0.0893453
0.066959
0.245058
0.247696
0.242021
0.240791
0.12343
0.0661023
0.236383
0.0493011
0.0891585
0.216413
0.0994091
0.0882799
0.0702179
0.0866574
0.21455
0.21313
0.0890354
0.157317
0.0998549
0.0992844
0.263748
0.0263736
0.055461
0.0891808
0.0898833
0.00855537
0.0897487
0.0685264
0.0950832
0.209765
0.0899314
0.0177572
0.0967011
0.00835268
0.247647
0.240197
0.124632
0.0922926
0.0949844
0.109412
0.081289
0.0739272
0.111489
0.0782281
0.0770291
0.0675154
0.078469
0.249167
0.22129
0.130854
0.206609
0.0827298
0.213422
0.0658263
0.206383
0.170492
0.197597
0.079882
0.148774
0.0192458
0.213693
0.231327
0.0914419
0.271469
0.0825217
0.0845614
0.141632
0.0225657
0.109987
0.0853564
0.21262
0.0648633
0.0912324
0.0885989
0.0618748
0.175828
0.0619784
0.0610054
0.0625368
0.0633591
0.0621094
0.208789
0.209358
0.215989
0.205884
0.0401144
0.0626545
0.243517
0.0686419
0.0388518
0.0680087
0.0674332
0.0413479
0.0683829
0.066957
0.0676797
0.0856214
0.0822887
0.151151
0.094028
0.10608
0.136826
0.118061
0.108898
0.0411857
0.0862247
0.0854589
0.0648409
0.0698662
0.0836171
0.165376
0.0178736
0.196595
0.263438
0.15356
0.252967
0.0844143
0.0195478
0.021156
0.0209977
0.114233
0.0221905
0.0811427
0.0834153
0.236617
0.271006
0.142105
0.0754776
0.240402
0.128585
0.158758
0.082779
0.161272
0.0828359
0.166338
0.0696447
0.0379677
0.045529
0.0787708
0.00159754
0.0850945
0.238749
0.063057
0.19405
0.0259345
0.0762389
0.0784679
0.222635
0.106707
0.166669
0.119509
0.165518
0.0774489
0.015663
0.241471
0.0930905
0.15422
0.237556
0.237605
0.0794534
0.0676328
0.0804724
0.121876
0.0797905
0.162323
0.222133
0.124942
0.0810202
0.0816683
0.129418
0.147929
0.182992
0.080949
0.0827588
0.0832099
0.238827
0.0819714
0.0833639
0.0307048
0.0731614
0.0394271
0.0153343
0.0387018
0.0243675
0.0716671
0.0735692
0.0125496
0.0585211
0.0120453
0.235937
0.0751029
0.0430641
0.236314
0.179791
0.112178
0.0650913
0.0783314
0.0127873
0.0763977
0.172082
0.1203
0.0750067
0.242425
0.03767
0.00392249
0.0758512
0.278542
0.118607
0.156342
0.0141729
0.0762906
0.0755312
0.182817
0.0142293
0.117459
0.151133
0.070134
0.0758669
0.0781738
0.270684
0.24976
0.243007
0.113954
0.0392761
0.0158061
0.014172
0.24464
0.014253
0.0485811
0.0791981
0.266863
0.0928344
0.0806611
0.219198
0.244034
0.172421
0.163494
0.079774
0.07755
0.236434
0.201486
0.213934
0.0240191
0.197273
0.0522256
0.108035
0.0431807
0.0769721
0.12187
0.249409
0.122655
0.120685
0.258113
0.0724658
0.238102
0.0547766
0.161362
0.190252
0.249062
0.122632
0.241697
0.0684852
0.0575619
0.0350034
0.0727141
0.242111
0.055378
0.0503134
0.147751
0.0568905
0.0570766
0.0613032
0.0204427
0.112064
0.0740516
0.0875341
0.0520511
0.067349
0.0599029
0.0415264
0.244369
0.167977
0.0552264
0.0760129
0.275671
0.142689
0.0727404
0.153554
0.0734713
0.136381
0.0715189
0.242709
0.0536299
0.27253
0.0472153
0.0419461
0.149087
0.0563777
0.163331
0.142712
0.172763
0.0235433
-0.00106617
0.032054
0.026702
0.0470626
0.0173284
0.0519128
0.0482601
0.0476384
0.256394
0.0322032
0.244942
0.245176
0.0376542
0.23277
0.0768437
0.239251
0.221669
0.0538247
0.235149
0.0540601
0.00205302
0.172259
0.11038
0.22674
0.220857
0.120581
0.0191908
0.0343403
0.174446
0.190535
0.0554793
0.0537892
0.0717194
0.19428
0.212184
0.155583
0.0199906
0.014639
0.0710499
0.177802
0.196182
0.21529
0.256806
0.073068
0.227392
0.207512
0.154307
0.273414
0.110238
0.141824
0.18036
0.0687765
0.247244
0.0124996
0.106267
0.207187
0.18647
0.220045
0.245795
0.0225368
0.106042
0.0712356
0.126443
0.0721588
0.117243
0.12986
0.125472
0.0910466
0.0717605
0.0708632
0.06863
0.0927617
0.255308
0.100297
0.0900315
0.0962441
0.24072
0.210727
0.0213909
0.246864
0.0714246
0.0685102
0.142769
0.0604597
0.0610678
0.084232
0.0218292
0.0597515
0.0644576
0.0154035
0.0567211
0.0556075
0.0609667
0.0798838
0.0668122
0.0674102
0.244717
0.0452485
0.0544421
0.040621
0.0732849
0.0401207
0.0377717
0.0695044
0.0169503
0.0182452
0.0986691
0.0412859
0.0366267
0.246148
0.0700253
0.0542869
0.0500326
0.0194823
0.0449933
0.0692859
0.0715124
0.0637521
0.111307
0.152656
0.176279
0.131427
0.0184371
0.0636169
0.0619366
0.0638215
0.202215
0.0968593
0.0709323
0.262644
0.0625904
0.0962307
0.0621613
0.064387
0.169113
0.175497
0.0619169
0.102944
0.222354
0.221186
0.0971246
0.0626303
0.243836
0.062614
0.133861
0.0631697
0.267474
0.063604
0.199622
0.0622011
0.168899
0.2059
0.238709
0.216221
0.0607948
0.208983
0.15057
0.168486
0.0626154
0.0265365
0.109488
0.153253
0.0625243
0.0620143
0.06289
0.109446
0.0564438
0.257579
0.184294
0.0246479
0.244541
0.0592696
0.237534
0.0247132
0.0543957
0.0578303
0.201673
0.0624138
0.173209
0.255521
0.0551668
0.05876
0.0943381
0.250805
0.201734
0.200823
0.059782
0.212109
0.180374
0.0582634
0.0969782
0.082112
0.0573252
0.0574754
0.172888
0.214825
0.0634152
0.0994178
0.0806453
0.241991
0.236917
0.241338
0.0623803
0.243418
0.0429801
0.189978
0.220251
0.125387
0.170375
0.0622923
0.248401
0.0309868
0.0346677
0.0371516
0.104401
0.0372804
0.111968
0.109884
0.0976191
0.121242
0.196433
0.0997548
0.147969
0.00916893
0.0427779
0.0848593
0.141029
0.0597328
0.157997
0.223773
0.11452
0.19203
0.184675
0.011659
0.0371026
0.167239
0.0433979
0.000433747
0.246981
0.203166
0.2362
0.0352646
0.246713
0.0933593
0.234054
0.0891641
0.237751
0.088178
0.243191
0.0402602
0.21268
0.0574508
0.180042
0.0903243
0.185943
0.0932024
0.281784
0.0581117
0.0779209
0.196983
0.180566
0.0560549
0.121106
0.180686
0.0581043
0.161914
0.0238287
0.161453
0.0534828
0.0517693
0.0787442
0.246532
0.0582009
0.0376942
0.0573406
0.0591249
0.105576
0.204642
0.0662025
0.0595885
0.105063
0.105197
0.0047896
0.239514
0.0575458
0.0755042
0.136269
0.187812
0.00190468
0.059257
0.244679
0.0493586
0.0477828
0.14883
0.0287353
0.0424588
0.220362
0.0597034
0.242017
0.109637
0.0383442
0.047075
0.122878
0.0447497
0.0573868
0.083866
0.0545444
0.0560129
0.0551679
0.0237547
0.143485
0.0535751
0.0750097
0.0513974
0.0686626
0.0763925
0.0530917
0.0500577
0.238997
0.0542025
0.0473278
0.0500635
0.244442
0.0581294
0.0489989
0.067126
0.178992
0.072161
0.0529485
0.0590265
0.0516223
0.0029414
0.242328
0.0729482
0.0518009
0.0386128
0.250334
0.0968367
0.0268885
0.0501772
0.0108572
0.105428
0.240979
0.0494017
0.239524
0.046094
0.0308278
0.24402
0.240497
0.24917
0.037348
0.245492
0.0153279
0.018385
0.0506435
0.0269897
0.0232312
0.0617816
0.18126
0.244991
0.234604
0.253939
0.232218
0.142349
0.103774
0.0392151
0.0474479
0.0553204
0.135185
0.151976
0.0933831
0.203414
0.0718526
0.0517914
0.164259
0.0649656
0.233145
0.232816
0.0294603
0.23467
0.152739
0.211942
0.25037
0.0484808
0.192771
0.154911
0.164566
0.154302
0.0491121
0.117925
0.235909
0.252195
0.0585501
0.230175
0.25011
0.240508
0.198634
0.0416015
0.253695
0.0440882
0.223435
0.224116
0.0438098
0.048522
0.039283
0.136461
0.246376
0.0995645
0.153633
0.0400421
0.170618
0.246746
0.0518666
0.200362
0.0501502
0.204472
0.232991
0.253956
0.231932
0.083416
0.0920262
0.109236
0.193811
0.0519814
0.217427
0.217958
0.0503505
0.206341
0.118148
0.0503247
0.153761
0.209772
0.0490919
0.236081
0.0414786
0.214411
0.257796
0.0461815
0.12943
0.0468676
0.157686
0.0490694
0.0238371
0.246801
0.160093
0.0785829
0.106315
0.135068
0.127965
0.0202628
0.121586
0.119408
0.235086
0.163944
0.260988
0.223988
0.0650595
0.24024
0.0252409
0.0261614
0.17274
0.146797
0.206534
0.205807
0.0276496
0.0239144
0.117568
0.243396
0.195476
0.223701
0.258368
0.027047
0.197948
0.161283
0.198622
0.204919
0.150597
0.247873
0.209302
0.213336
0.0602841
0.064776
0.257207
0.0271282
0.0241234
0.0449586
0.226708
0.244038
0.247454
0.0436373
0.041553
0.179291
0.0429023
0.0443733
0.18482
0.252576
0.2046
0.0676124
0.234087
0.117761
0.201849
0.203814
0.253873
0.0420666
0.147856
0.148469
0.0441621
0.0419149
0.0402616
0.0427072
0.157966
0.0441334
0.25319
0.19888
0.182831
0.044008
0.0391922
0.0856279
0.192786
0.254742
0.11478
0.103391
0.251878
0.0196017
0.0345257
0.0683711
0.106798
0.0340749
0.0434817
0.0448832
0.0826522
0.0452412
0.25176
0.253072
0.0910083
0.251805
0.145167
0.0820343
0.0405513
0.0655017
0.0613974
0.0730793
0.0433213
0.0371007
0.0470181
0.0539533
0.0394372
0.0637264
0.0679556
0.193782
0.0397024
0.0429924
0.0740541
0.0260171
0.0447899