/*--------------------------------*- C++ -*----------------------------------*\
| =========                 |                                                 |
| \\      /  F ield         | OpenFOAM: The Open Source CFD Toolbox           |
|  \\    /   O peration     | Version:  2406                                  |
|   \\  /    A nd           | Website:  www.openfoam.com                      |
|    \\/     M anipulation  |                                                 |
\*---------------------------------------------------------------------------*/
FoamFile
{
    version     2.0;
    format      ascii;
    arch        "LSB;label=32;scalar=64";
    class       surfaceScalarField;
    location    "36";
    object      phi;
}
// * * * * * * * * * * * * * * * * * * * * * * * * * * * * * * * * * * * * * //

dimensions      [0 3 -1 0 0 0 0];

oriented        oriented;

internalField   nonuniform List<scalar> 
113358
(
-1.5005e-05
3.1506e-05
-2.19336e-05
5.4324e-06
2.2702e-05
3.02832e-07
-6.13375e-06
-1.68712e-05
-2.62574e-05
2.00119e-05
-3.19722e-06
9.44204e-06
-2.406e-05
-6.46963e-06
2.38635e-05
6.66803e-06
-1.73066e-05
9.30824e-07
3.01721e-05
-1.37967e-05
1.36163e-05
-1.41964e-05
-7.96058e-06
8.5406e-06
-7.25781e-06
3.48382e-05
-2.51732e-05
-2.40778e-06
-8.00983e-07
-3.2623e-05
1.78213e-05
1.56005e-05
8.56899e-06
5.93056e-07
1.84102e-05
-2.7572e-05
7.72536e-06
3.8827e-06
-1.12953e-05
-3.09894e-07
-6.12486e-06
2.29449e-05
-2.14044e-05
4.58443e-06
-1.50746e-05
-1.45472e-08
-3.1472e-07
1.54035e-05
-4.58888e-05
3.58853e-06
1.24516e-05
2.98503e-05
1.26871e-06
-2.71583e-06
1.447e-06
2.06614e-06
-1.47209e-06
2.03294e-05
-2.0921e-05
1.09998e-06
3.34998e-07
1.22384e-05
-1.36751e-05
1.01706e-05
3.39507e-05
-2.82217e-05
-1.58998e-05
-1.95482e-05
1.08419e-05
6.7806e-06
1.92577e-06
1.49149e-05
-3.81755e-05
3.22632e-05
-9.00309e-06
2.47116e-05
3.40453e-06
2.75725e-05
-5.56887e-05
1.92074e-05
4.10339e-07
-4.78159e-07
-1.91397e-05
-1.15895e-05
4.62757e-05
4.29796e-06
-3.89799e-05
-5.01147e-07
-4.51647e-05
4.84983e-05
-2.83273e-06
-9.59158e-07
4.61518e-06
3.34567e-07
-3.99057e-06
-4.70371e-05
2.0627e-05
-3.89763e-06
3.03058e-05
-2.31228e-05
5.40425e-06
1.90684e-05
-1.34824e-06
-9.9029e-06
9.61193e-06
-1.82519e-07
4.73758e-07
-1.95701e-06
-7.52927e-06
5.43196e-06
4.05421e-06
1.93135e-05
-3.47527e-07
2.41399e-07
-2.3814e-06
2.37493e-06
6.23473e-09
-5.43485e-06
-2.58595e-05
2.7451e-05
3.84333e-06
5.15821e-06
-2.76492e-07
-8.15611e-06
3.2741e-06
2.05393e-05
-1.13186e-06
1.15668e-06
-2.05642e-05
-2.81857e-05
1.2807e-05
-2.9864e-06
1.83696e-05
1.75666e-05
2.27747e-06
-1.98849e-05
4.07924e-08
-3.39538e-05
8.37966e-06
-1.18486e-05
3.74262e-05
-3.80134e-08
-2.31253e-06
2.35097e-06
9.32863e-06
1.08409e-05
1.78866e-06
-2.19577e-05
7.26755e-06
-3.75556e-05
3.08147e-05
-5.27333e-07
-3.49296e-06
4.64597e-06
3.59975e-05
-3.7151e-05
-1.95191e-05
1.6377e-05
-2.04148e-05
2.35571e-05
4.29586e-07
-2.38725e-05
-3.10811e-05
5.45235e-05
-9.23083e-07
4.32722e-05
-1.20953e-05
-3.0254e-05
5.37165e-06
-1.88869e-05
-7.60993e-06
-5.82167e-06
3.26091e-05
-4.56905e-07
-2.63308e-05
-2.37418e-06
1.64507e-05
-1.10103e-05
-3.06637e-06
-3.04982e-05
-1.17878e-05
4.13627e-05
-1.08674e-05
3.5069e-05
1.25768e-06
-2.54594e-05
-3.40949e-05
4.27698e-06
-5.53809e-06
3.53558e-05
3.51516e-05
1.54509e-05
-4.65739e-05
-4.02832e-06
2.32243e-05
-1.61787e-05
1.55231e-06
-8.59795e-06
-1.10059e-05
3.25343e-06
1.10487e-05
-3.29626e-06
2.99062e-05
-7.7828e-06
1.6902e-05
-3.90265e-05
-1.03571e-05
-3.85833e-05
4.17099e-05
7.22891e-06
-2.09517e-06
7.80992e-06
-8.98416e-06
3.26902e-06
2.84477e-05
-1.23927e-05
2.02489e-05
-3.63043e-05
-2.12122e-05
4.85962e-06
3.71657e-05
-2.08139e-05
1.24999e-05
-6.13801e-06
4.93017e-06
-1.12931e-05
3.66497e-05
-9.37772e-06
-2.84205e-05
1.14927e-06
-1.28524e-05
-1.47724e-05
8.01143e-06
1.96133e-05
-3.07046e-05
-4.92171e-06
1.45996e-05
2.10245e-05
-3.02533e-06
3.45811e-06
-4.33457e-07
3.4028e-05
-5.72035e-06
-3.34725e-05
5.16481e-06
-1.51729e-05
-4.18497e-05
1.61145e-05
4.0908e-05
-4.23759e-06
4.49322e-06
-3.55305e-05
3.52734e-05
1.86824e-06
2.16646e-05
2.5088e-06
-2.60416e-05
3.77256e-06
-3.12225e-06
-6.49993e-07
-1.19632e-08
6.03957e-08
1.21175e-05
-1.21633e-05
6.2379e-06
-3.017e-05
3.26264e-05
-8.69393e-06
1.01371e-05
-2.43554e-05
2.31478e-05
-8.92978e-06
7.80051e-06
-8.05571e-06
2.52904e-07
-1.89374e-05
-6.35471e-06
3.29401e-05
-7.64853e-06
-2.55622e-07
4.33468e-06
-4.07909e-06
7.22028e-06
-2.9378e-05
9.38055e-06
1.27765e-05
4.42611e-05
-3.39257e-06
-2.93104e-06
-3.79396e-05
-2.73369e-05
-3.23206e-05
3.52676e-05
2.43893e-05
3.3996e-06
-3.67128e-05
5.97638e-06
3.5991e-05
-2.87503e-05
-8.94215e-07
-6.34621e-06
1.16182e-07
1.88202e-07
-1.6017e-05
1.57099e-05
6.76798e-06
7.95919e-06
1.26581e-05
-2.73854e-05
8.33253e-06
-4.37549e-06
3.42434e-06
-7.37651e-06
-1.60044e-05
-1.09249e-05
2.7303e-05
-3.73648e-07
-2.12383e-05
2.61078e-05
-1.864e-05
1.37705e-05
-3.26148e-06
4.1208e-09
3.2577e-06
-3.04746e-05
3.21128e-05
-3.28626e-05
2.54609e-05
-3.04586e-06
-1.01262e-06
-6.55895e-07
4.71496e-06
6.35444e-05
-6.15649e-05
1.90647e-06
-3.88613e-06
-1.22663e-05
3.82843e-06
1.18668e-05
-3.42868e-06
-4.60361e-06
2.57571e-05
-2.83525e-05
7.19948e-06
-1.79195e-05
-2.12744e-05
3.14576e-05
7.73596e-06
9.01865e-06
-1.27696e-05
1.83711e-05
-1.46203e-05
7.39927e-06
2.3792e-05
-4.94612e-05
1.82698e-05
-3.36102e-05
1.19736e-05
1.45806e-05
7.05495e-06
8.56249e-07
-2.89552e-05
2.35905e-05
4.50958e-06
-2.71081e-05
2.49697e-06
9.67147e-06
1.49396e-05
2.34718e-05
-2.02574e-05
7.03029e-06
-1.02425e-05
1.40081e-06
1.24886e-05
-1.3661e-05
-2.26118e-07
1.74165e-05
-2.41855e-06
-2.64365e-06
-1.23545e-05
1.57974e-05
1.81886e-05
-1.56114e-05
-1.83742e-05
2.51017e-06
-7.96369e-07
4.52962e-06
-6.2428e-06
4.95659e-06
-3.01815e-07
-4.65501e-06
4.25287e-08
4.11225e-06
-4.15444e-06
-4.9677e-07
3.11653e-06
-1.36818e-05
1.10609e-05
-2.03701e-05
4.1711e-05
4.29832e-07
-2.17681e-05
4.79083e-06
-2.16322e-05
1.67141e-05
1.27507e-07
-3.2278e-06
-4.3103e-06
1.20255e-06
6.33471e-06
-5.92838e-06
-1.44425e-05
3.7446e-06
1.66248e-05
-3.09987e-06
2.0252e-05
8.71519e-06
-2.58687e-05
4.30036e-06
3.87906e-06
-1.87269e-05
1.0549e-05
-2.73795e-06
2.83259e-05
-3.22588e-05
6.67042e-06
-7.85378e-06
8.07443e-06
-2.23735e-07
1.89887e-05
-2.35131e-05
3.7237e-06
8.02252e-07
1.84499e-05
1.08002e-05
-3.24354e-05
3.1849e-06
-2.62411e-05
-1.46783e-05
7.34024e-06
3.35787e-05
-2.31401e-06
-2.16696e-05
9.17777e-07
2.30653e-05
1.33901e-05
-1.39033e-05
1.01331e-07
4.1234e-07
1.63488e-05
-2.84765e-05
-5.52242e-06
1.76487e-05
-3.66286e-06
2.82171e-07
3.38078e-06
-4.31282e-06
-1.42008e-06
2.93123e-05
-2.35801e-05
-1.40129e-05
8.77382e-06
4.49654e-05
-3.97248e-05
-1.0317e-05
2.09047e-05
-3.09181e-05
2.03286e-05
1.62362e-06
-2.52318e-05
2.01866e-05
3.42291e-06
-3.70274e-06
-8.87803e-06
3.15994e-05
-1.90191e-05
2.31571e-05
-9.88059e-06
-1.02274e-05
-3.04914e-06
-2.73653e-06
-1.24736e-05
1.81652e-05
-2.95525e-06
6.40834e-06
-3.13001e-06
-3.27866e-06
-1.078e-06
-2.51441e-05
-6.47109e-06
3.2693e-05
-1.4748e-05
2.0627e-05
5.8739e-06
-1.1753e-05
5.40048e-06
-1.33607e-05
2.28664e-05
-1.49065e-05
-4.39659e-05
1.03736e-05
-7.28502e-07
3.43202e-05
-2.60161e-06
-4.32646e-05
3.91062e-05
6.75937e-06
5.28219e-08
-4.18127e-06
4.12713e-06
2.11409e-05
-3.25594e-05
6.1455e-07
1.08037e-05
3.65746e-05
4.17899e-06
-3.93661e-05
-1.38902e-06
1.1318e-05
1.17867e-06
-2.65479e-05
1.40492e-05
-9.39902e-06
1.29758e-05
1.48732e-05
-2.6811e-05
-2.23168e-05
1.30658e-05
3.60621e-05
6.08183e-06
3.18717e-06
-4.31228e-06
7.0408e-06
-5.30999e-06
-2.69489e-05
2.52181e-05
4.78267e-06
1.49554e-05
-6.7684e-06
-1.29695e-05
-7.20683e-06
1.55852e-05
3.20729e-05
-4.04513e-05
1.85823e-07
2.55507e-06
-2.74057e-06
-2.27915e-05
3.6195e-06
1.39924e-05
5.18135e-06
3.29626e-05
-1.76865e-05
-2.22978e-05
7.02188e-06
3.28138e-05
-8.17313e-06
-3.61898e-06
-2.10217e-05
-2.89399e-05
-7.54679e-07
-8.79968e-07
3.0574e-05
2.57478e-05
1.18907e-05
-3.58297e-05
-1.80877e-06
6.92721e-06
4.83172e-06
-1.1759e-05
1.80268e-06
-2.58936e-05
-1.99347e-07
2.42899e-05
4.10487e-05
-3.15574e-05
-2.95489e-06
-6.53661e-06
4.78503e-06
-6.74703e-07
-3.83086e-06
-2.7909e-07
-3.21233e-05
4.55162e-05
1.89759e-05
-3.237e-05
1.82292e-05
-2.92724e-05
-2.94101e-06
1.39841e-05
-2.47518e-05
2.68708e-05
-8.86328e-07
-1.23251e-06
-3.22953e-06
1.5974e-06
1.63283e-06
3.59503e-05
-3.95629e-06
1.00232e-05
-4.20178e-05
-2.66339e-05
3.59393e-05
-3.40572e-05
8.47139e-08
2.54301e-06
1.94194e-05
-2.20473e-05
2.86104e-06
-2.76151e-06
-9.93032e-08
-1.17332e-05
-6.5494e-06
1.1241e-06
1.71587e-05
-8.89061e-06
2.22626e-05
-1.70147e-05
3.64228e-06
1.66425e-06
-5.13588e-06
3.20888e-06
2.62325e-07
-2.03711e-06
-1.90255e-06
3.94062e-06
-2.34389e-05
2.33123e-05
2.33626e-05
-2.32354e-05
5.03742e-05
-1.27652e-05
-1.09425e-05
-2.66675e-05
1.37094e-05
5.98816e-07
-4.56462e-07
-1.38516e-05
3.40629e-05
-4.1602e-05
5.7556e-06
1.78345e-06
3.29756e-06
-5.58526e-08
-3.24163e-06
-5.88237e-06
2.85254e-05
-2.74121e-05
4.76856e-06
-1.45713e-05
1.52059e-05
-1.68733e-06
1.05228e-06
-1.10592e-05
9.68203e-06
6.68447e-07
7.08178e-07
2.64158e-06
-2.08294e-05
7.48849e-06
1.06999e-05
-1.14292e-05
-1.08045e-05
2.63277e-05
-4.09437e-06
-1.56134e-05
1.52979e-05
2.81305e-07
3.36632e-08
-3.06926e-05
-3.57e-05
3.58941e-05
-1.11925e-05
3.53055e-05
1.12039e-05
-3.53174e-05
5.85609e-06
3.07516e-05
6.62078e-06
-4.32284e-05
-1.41059e-05
6.21344e-06
1.90961e-05
-1.12039e-05
-1.80502e-08
7.46141e-08
1.13165e-05
-1.13739e-05
1.4659e-06
3.824e-05
-5.63705e-06
-3.40687e-05
-4.16028e-06
-2.70505e-06
4.51112e-06
2.35406e-06
4.56109e-06
-4.3045e-06
-2.56147e-07
-3.75372e-06
-1.29014e-05
1.04145e-06
-2.84417e-05
4.3058e-07
-5.56918e-06
3.35803e-05
-1.57902e-05
1.4187e-05
4.40755e-07
1.16306e-06
-4.72354e-07
8.77601e-06
-1.38692e-07
-8.16501e-06
-3.09268e-06
3.02308e-06
7.12231e-08
3.22305e-06
-8.24196e-07
2.14639e-05
-2.38629e-05
2.95229e-05
3.29821e-06
-2.56788e-05
-7.14425e-06
-3.36936e-06
-1.56265e-05
-1.02077e-05
1.45995e-05
-1.60557e-05
1.05897e-06
3.96897e-07
7.39621e-06
-3.11088e-05
3.67146e-05
-1.30024e-05
1.16912e-05
2.43937e-06
-6.15958e-06
-7.97243e-06
-1.64641e-05
-3.83616e-05
9.62342e-06
4.52031e-05
4.93662e-08
2.7867e-06
-2.11991e-07
-2.62461e-06
1.03935e-05
-6.75816e-07
1.65119e-06
-1.13694e-05
-1.05794e-05
2.21468e-07
1.04547e-05
-9.70701e-08
2.2997e-05
3.89602e-06
-2.89718e-05
2.07679e-06
-3.08382e-05
-1.76634e-05
3.95764e-05
8.92527e-06
-7.29279e-06
3.09731e-06
-6.77763e-06
6.63061e-06
2.77036e-05
-3.56466e-05
1.31184e-06
-2.32182e-05
-2.35266e-05
9.54472e-06
3.71955e-05
-2.94393e-06
3.2123e-06
-2.6799e-07
1.81581e-05
1.04208e-05
-2.15812e-06
-2.64259e-05
-7.30569e-07
-4.40368e-06
-2.91923e-05
3.43267e-05
-2.12469e-05
5.39737e-06
5.17506e-05
-3.5901e-05
2.70627e-05
-2.0189e-05
-1.05227e-05
3.64632e-06
2.79452e-06
-9.53657e-08
-2.69852e-06
4.37223e-05
-2.1593e-05
3.0072e-06
-2.5135e-05
9.99933e-06
-1.07467e-05
1.34497e-06
-5.96564e-07
2.47482e-06
2.3568e-06
-4.83181e-06
-1.65076e-05
-2.13735e-05
4.3105e-06
3.35732e-05
-1.20679e-05
2.3611e-07
1.24881e-05
-6.59316e-07
2.14847e-05
-4.43119e-05
5.29175e-07
2.22983e-05
-2.09986e-05
-2.59604e-05
3.44171e-05
1.25422e-05
-1.31327e-05
1.75933e-05
2.8353e-05
5.38969e-06
2.83898e-05
-2.97267e-05
-4.05309e-06
1.99369e-06
1.50149e-06
-1.34146e-05
9.9188e-06
-3.32834e-05
1.47123e-05
1.18724e-05
6.69774e-06
1.42287e-05
3.74303e-06
-1.62256e-06
-1.63459e-05
-3.40953e-06
-2.64026e-05
2.71263e-06
2.70988e-05
6.65494e-06
-2.54597e-06
2.64452e-05
-3.05545e-05
-2.20071e-06
-5.96194e-08
-5.49287e-06
7.7561e-06
7.08696e-07
1.05185e-05
-3.92615e-05
2.80343e-05
-1.38945e-05
-2.8177e-05
-1.08689e-06
4.31611e-05
3.75061e-07
5.35153e-06
-5.7269e-06
9.12501e-08
-2.08048e-07
1.17126e-05
-1.15944e-05
2.6178e-06
1.63676e-05
1.41573e-05
-3.31434e-05
2.96844e-07
-1.53969e-05
1.34979e-07
1.49657e-05
4.15312e-06
-2.0384e-05
-1.55432e-05
3.1774e-05
1.50317e-05
1.85723e-05
-1.61529e-05
-1.74513e-05
3.17269e-05
1.89684e-05
-4.26572e-05
-8.03844e-06
1.35437e-07
-4.68716e-06
4.55127e-06
2.91689e-06
1.42466e-06
-6.44735e-09
-4.33422e-06
2.10574e-06
2.68943e-06
3.49339e-07
-5.14421e-06
2.70498e-06
-3.17977e-06
1.57724e-05
1.75963e-07
-2.95797e-05
1.106e-05
1.83453e-05
5.71749e-05
6.00995e-06
-1.19708e-05
-5.12127e-05
-8.57722e-06
1.15413e-05
-2.79432e-06
-1.71752e-07
-1.61439e-05
1.53701e-05
-2.60196e-05
2.67926e-05
3.35042e-06
6.41293e-08
-3.41442e-06
1.21563e-06
8.98031e-06
-1.71584e-05
6.96391e-06
3.34298e-06
-5.04613e-06
1.70243e-06
2.70446e-05
-1.44572e-05
-7.18719e-06
-1.69851e-05
6.17845e-06
-1.57336e-05
2.65399e-05
3.29183e-05
-3.20044e-05
5.06504e-06
-5.97985e-06
1.51268e-05
5.1129e-06
-1.80784e-05
-2.16152e-06
3.16517e-06
-3.85175e-05
1.31251e-05
2.2226e-05
2.7866e-05
-5.69806e-06
4.70248e-06
4.89491e-05
-5.46779e-05
2.23505e-06
-3.23418e-05
2.51939e-06
3.34142e-05
-3.59185e-06
-2.86673e-05
-1.84443e-05
3.09674e-05
-1.20402e-05
-1.18379e-05
-1.63886e-05
4.02661e-05
-1.31473e-06
4.60142e-06
3.91483e-05
-4.24363e-05
1.47321e-06
2.83378e-05
-4.9404e-05
1.95926e-05
-1.12684e-07
7.09612e-08
1.88914e-05
-1.88508e-05
-4.14314e-05
6.9866e-06
3.209e-06
3.12373e-05
1.28187e-05
-1.28865e-05
4.41603e-06
-4.34922e-06
7.91677e-07
1.17531e-05
-1.49751e-05
2.43058e-06
-2.35185e-05
3.5691e-05
-4.59112e-06
-7.58208e-06
-3.53122e-05
2.61087e-05
1.65713e-06
7.54833e-06
-2.85738e-05
2.83992e-05
3.72295e-05
-3.70559e-05
3.2849e-05
-2.67681e-05
1.20722e-06
-7.28724e-06
-1.36458e-05
1.76127e-05
-1.06225e-05
6.65515e-06
-7.86585e-06
1.82e-05
1.55404e-06
-1.18861e-05
-3.68556e-05
2.97726e-06
4.03099e-05
-6.43048e-06
-4.70644e-06
-2.56071e-05
3.91145e-07
2.99289e-05
2.531e-06
-8.77472e-06
7.03544e-06
1.00024e-05
8.27439e-07
-9.54942e-06
-1.28032e-06
1.00342e-05
1.89824e-05
-2.21719e-05
-6.84446e-06
-1.01892e-05
1.40398e-05
2.40205e-05
-2.78706e-05
9.48709e-07
4.42788e-06
-3.73517e-05
3.19755e-05
1.75755e-05
-2.66541e-05
8.80082e-06
2.7692e-07
-3.97381e-05
-6.40566e-06
1.08309e-05
-3.37335e-06
-8.924e-07
-2.52477e-05
2.95157e-05
-3.47693e-06
4.45363e-08
3.43178e-06
-5.13792e-06
-6.62246e-06
4.27176e-05
-3.09577e-05
5.59319e-06
-5.32058e-06
-2.74605e-07
2.64529e-07
2.12219e-07
-1.00562e-05
9.57994e-06
-1.89286e-05
1.82862e-05
3.2369e-05
5.91745e-06
3.2859e-05
-2.3615e-05
-1.51611e-05
4.73013e-06
-4.79698e-06
6.74848e-08
-4.4984e-06
5.02582e-05
-2.78825e-05
-1.78798e-05
-2.69103e-05
2.88817e-05
1.95135e-05
-2.20387e-06
2.47819e-05
1.12553e-05
-3.38339e-05
-3.29083e-05
-1.22331e-05
4.39087e-05
1.23229e-06
-5.03204e-06
4.56649e-06
4.65458e-07
3.21464e-05
-3.42587e-05
-3.58861e-07
2.46942e-06
-2.09166e-05
-1.30802e-05
1.88233e-05
1.51727e-05
-3.86532e-06
1.7576e-06
-2.18816e-05
2.39885e-05
-2.85442e-05
-7.61802e-06
7.53441e-07
3.54086e-05
-1.78267e-05
-8.92036e-06
-6.86343e-06
1.62647e-05
-3.71916e-05
-3.22514e-06
2.41503e-05
8.1438e-06
-3.39344e-05
-1.03404e-05
3.61322e-05
7.86151e-06
-7.48723e-06
-3.74188e-07
-2.86931e-05
4.81608e-05
-6.83429e-06
-1.26369e-05
-6.38722e-06
-2.68753e-05
3.0415e-05
2.84728e-06
-4.4674e-05
4.57785e-05
-5.30346e-06
4.19927e-06
-2.64568e-05
-6.61462e-06
1.88443e-05
1.4226e-05
-2.68845e-05
-5.75982e-06
3.27006e-05
-6.01082e-08
-3.91089e-07
1.03055e-07
-1.32683e-05
1.35573e-05
3.64245e-06
1.75934e-07
-3.81873e-06
-6.66979e-06
6.73588e-06
-6.45663e-08
4.30787e-05
-3.66024e-05
-4.9963e-05
4.3496e-05
3.11344e-06
1.23085e-07
-3.23644e-06
-3.00475e-05
2.95694e-05
-3.8456e-07
8.63079e-07
-1.10385e-05
9.33744e-06
2.28535e-07
1.46999e-06
4.75352e-06
4.95805e-05
-2.67082e-05
-2.76254e-05
-2.81881e-05
-8.81006e-06
3.52888e-06
3.34673e-05
3.35452e-05
1.49917e-05
-1.50453e-05
-3.34911e-05
1.34514e-05
-5.0096e-06
1.70153e-06
-1.0144e-05
3.73666e-05
-3.5147e-06
-2.69517e-05
-6.89934e-06
-4.19705e-06
6.24639e-06
-6.89447e-06
4.84671e-06
-2.74039e-06
8.71804e-06
3.23039e-06
-9.20805e-06
-1.43202e-05
-7.29731e-06
4.02897e-05
-1.86745e-05
6.54046e-06
2.52351e-05
-2.47273e-05
-7.04841e-06
-2.25445e-05
2.32416e-05
1.50008e-05
-1.5698e-05
2.36604e-05
-2.14158e-05
-2.8752e-06
6.26827e-07
-6.94859e-08
-1.16297e-05
-4.72705e-08
1.17482e-05
-7.43909e-06
1.399e-05
-1.49228e-06
-5.05853e-06
-3.32703e-05
-1.14787e-05
1.65905e-05
2.81601e-05
2.36632e-05
-1.99912e-05
-4.04435e-06
3.72274e-07
9.13075e-06
-3.13011e-05
-3.57227e-05
5.78912e-05
2.00247e-05
-2.6039e-05
-1.27309e-05
1.87448e-05
-6.23497e-06
-5.42058e-05
1.47743e-05
4.56689e-05
1.78641e-05
-1.58899e-05
2.37338e-06
-4.34792e-06
3.09849e-05
-1.11161e-05
-3.67647e-05
1.68997e-05
1.28881e-05
2.17157e-05
-5.02865e-05
1.56834e-05
-7.74338e-06
3.08605e-05
-2.71469e-05
4.03048e-06
-2.91989e-05
3.31439e-05
3.37396e-05
-3.76849e-05
-1.61346e-07
-1.45508e-05
1.27228e-05
1.98895e-06
4.34073e-06
-4.07427e-06
-2.67389e-07
3.79501e-05
-4.7053e-05
1.35936e-06
-4.29847e-06
5.82809e-06
3.03211e-06
-4.56274e-06
-3.14784e-06
1.35636e-07
-1.52653e-06
4.53826e-06
1.81678e-05
-2.42461e-06
1.81181e-05
-2.75344e-05
1.15353e-06
8.26277e-06
-9.28186e-06
-2.28412e-06
8.82935e-06
2.48011e-05
-3.24932e-05
1.84964e-05
-1.08052e-05
-2.75785e-05
-3.97899e-06
3.30948e-05
-1.53806e-06
-5.48439e-05
-8.40548e-06
4.85426e-05
1.47101e-05
-4.08184e-05
1.11477e-05
9.40103e-07
2.87302e-05
-4.35279e-06
3.5431e-07
8.91337e-07
3.10521e-06
-2.64237e-05
-3.17909e-05
2.44037e-05
3.38115e-05
1.887e-05
1.64282e-05
-2.82537e-05
-7.04569e-06
1.76736e-07
1.49584e-05
-1.26884e-05
-2.44658e-06
-3.16185e-07
-1.87545e-05
3.67846e-05
-1.77141e-05
3.87392e-05
-2.77157e-05
-1.47262e-05
2.82982e-05
-3.1885e-05
6.40694e-06
-2.81855e-06
-3.97006e-06
-2.62518e-05
2.84566e-05
1.76398e-06
4.00825e-05
-2.7307e-06
-4.1323e-05
2.34346e-05
-2.61634e-05
6.36254e-06
-3.63477e-06
1.84263e-06
-1.22472e-05
-1.01304e-06
1.14184e-05
-2.64616e-06
2.54651e-06
-3.06775e-06
3.16729e-06
-1.88294e-06
4.69394e-06
1.54208e-06
-4.35711e-06
-7.41441e-06
-1.95694e-05
-1.44785e-06
2.84313e-05
1.09502e-05
8.7145e-06
-2.97824e-05
1.01176e-05
-1.87098e-05
5.92668e-07
6.6968e-06
1.14203e-05
-1.77942e-06
-1.85535e-05
1.80167e-05
-2.34316e-05
2.76398e-05
8.70976e-06
-1.29162e-05
-3.37525e-05
3.90518e-05
-1.23485e-05
7.04942e-06
-5.85016e-06
-1.96403e-05
2.2575e-06
2.32324e-05
1.44613e-06
3.45342e-05
-4.03355e-05
4.3581e-06
1.74087e-05
-5.5253e-05
1.19167e-05
2.5925e-05
4.96338e-06
-3.79425e-05
2.07427e-05
1.22343e-05
1.55207e-06
2.07251e-05
-7.10272e-06
-1.51755e-05
-4.1431e-06
1.98393e-06
4.06254e-06
-1.9036e-06
-3.95231e-06
7.89223e-06
-2.92684e-05
2.53284e-05
-1.58464e-06
-1.14899e-05
3.06161e-07
1.2769e-05
1.71675e-07
1.18268e-05
-1.93692e-07
-1.18059e-05
1.73583e-07
2.5758e-07
1.20372e-05
-1.24672e-05
-9.26256e-06
-1.58355e-05
2.79916e-05
-2.89528e-06
3.40936e-06
-3.33658e-05
1.79758e-05
1.19807e-05
3.29555e-05
8.4406e-07
2.56775e-06
-3.63652e-05
2.81437e-06
-2.88371e-06
6.92506e-08
1.07638e-05
2.17865e-05
-2.75877e-05
-1.16095e-05
4.87077e-08
1.33937e-07
1.14241e-05
2.11721e-06
-2.71763e-05
9.85698e-06
1.52014e-05
9.1936e-07
7.63677e-06
-7.72706e-06
-8.27834e-07
-5.82744e-06
-1.23689e-05
2.36511e-05
-5.45556e-06
2.89114e-05
-3.16658e-05
2.72422e-05
-2.44879e-05
1.90425e-05
-8.69914e-06
-3.23891e-05
2.20457e-05
-2.03894e-06
-1.93658e-06
3.97487e-06
1.20832e-05
2.60792e-06
-3.4996e-06
-1.11914e-05
-2.48838e-05
3.72005e-05
3.01918e-06
2.54284e-06
-5.56195e-06
2.09558e-06
-3.0875e-05
-3.00817e-07
2.90804e-05
-2.36562e-07
6.16611e-07
2.1406e-05
-1.2795e-06
2.27371e-05
-4.48885e-05
2.34307e-05
-7.29885e-06
-2.09511e-05
-2.99015e-06
3.12397e-05
5.79997e-06
-9.57581e-06
9.87213e-06
-6.09628e-06
-7.16434e-06
-3.48388e-05
-4.35776e-06
4.63586e-05
1.97664e-05
3.71021e-06
-2.27488e-05
-7.27834e-07
6.35522e-06
3.02319e-05
-5.00526e-05
1.34667e-05
-2.40734e-06
-1.42454e-05
-8.30848e-06
2.49617e-05
-1.95816e-05
-6.25361e-06
1.02456e-05
1.55888e-05
-1.13064e-06
-1.17015e-06
-1.33773e-05
1.56774e-05
3.85535e-05
-1.60955e-05
-9.34629e-06
-1.3112e-05
-2.38809e-05
5.81938e-05
-3.22119e-05
-2.10037e-06
1.16112e-05
2.99429e-07
3.12549e-07
-1.22211e-05
2.99868e-05
-3.57912e-05
3.58011e-05
-2.9995e-05
-5.40412e-06
1.69505e-05
-1.37132e-05
2.1665e-06
1.42307e-05
-5.20505e-05
2.08728e-06
3.57316e-05
9.67585e-06
4.61242e-05
-3.9513e-05
-1.62881e-05
6.6469e-06
-6.4719e-06
-1.06262e-05
1.04522e-05
-2.27221e-05
-1.37272e-05
4.02738e-05
-3.82419e-06
3.54175e-05
-2.85017e-05
-4.23762e-05
3.54617e-05
1.80156e-05
1.50814e-05
-9.43095e-06
-2.36688e-05
1.51564e-07
-1.54196e-05
9.245e-08
4.0577e-06
-4.14842e-06
-3.51571e-06
3.40417e-06
1.11211e-07
2.61831e-05
-2.46967e-05
-2.27216e-05
2.12349e-05
-7.12612e-06
9.04655e-06
-2.58729e-05
2.39526e-05
3.82414e-05
-2.986e-05
-6.24213e-06
-2.13909e-06
-4.95796e-06
1.2235e-06
3.23686e-06
-8.44988e-06
2.98202e-05
-8.11013e-06
-1.32598e-05
-4.29244e-05
1.08481e-06
1.47679e-05
2.707e-05
1.46477e-05
-6.22773e-06
-1.43888e-05
5.96801e-06
8.12694e-06
3.68493e-05
-3.45012e-05
-1.04775e-05
-2.14235e-05
-4.31095e-06
4.07895e-05
-1.50555e-05
2.16923e-06
2.36967e-05
5.2247e-06
-3.10902e-05
8.05081e-06
2.59573e-05
-3.18387e-05
1.9467e-05
-1.43757e-05
-7.52587e-06
2.43572e-06
2.23127e-05
-2.85896e-05
1.26319e-05
-1.35453e-05
8.66616e-06
8.03e-06
-3.15019e-06
9.49389e-06
1.12011e-05
2.23502e-05
-4.30479e-05
4.49212e-06
-2.75871e-05
-4.30976e-06
2.74059e-05
4.52267e-07
2.72166e-05
2.47226e-06
-3.01431e-05
1.25414e-05
2.37906e-05
-3.95999e-05
3.26854e-06
-5.62865e-05
4.66716e-05
-7.41481e-07
1.55159e-07
3.86533e-05
-3.01242e-06
-3.57932e-05
-3.45934e-06
7.66548e-06
-1.05108e-05
6.30253e-06
-8.46758e-07
-3.70564e-06
2.53175e-07
4.29813e-06
-3.5755e-06
3.44744e-06
1.28315e-07
-4.97103e-06
-8.07041e-06
3.75261e-05
-2.44847e-05
-2.98475e-05
4.44615e-06
-1.30888e-05
3.849e-05
4.36178e-05
-1.06264e-05
-1.40951e-05
-1.88996e-05
3.47995e-06
-3.21595e-05
1.15753e-05
1.7104e-05
3.59347e-06
-3.25456e-06
-1.24879e-06
9.08828e-07
-4.15363e-06
3.99842e-06
1.54598e-07
1.94639e-06
2.74898e-05
-4.93645e-06
-2.45002e-05
-5.35572e-06
2.61964e-05
-3.41576e-05
1.33151e-05
1.16796e-05
1.97311e-05
-4.55217e-05
1.41106e-05
-2.0538e-06
2.58493e-05
1.90512e-05
-4.28458e-05
-4.17462e-05
2.22598e-05
2.43583e-05
-4.87145e-06
3.79666e-05
-3.87566e-05
7.70147e-06
-6.91077e-06
-3.15616e-05
-6.42602e-07
-9.54254e-06
2.41551e-07
5.52384e-06
-5.76526e-06
3.01883e-05
4.07778e-06
-2.4935e-05
-9.33234e-06
-1.92962e-06
-2.80796e-06
1.32991e-05
-8.56155e-06
3.03305e-06
5.32683e-07
9.97746e-06
-1.35435e-05
-3.35485e-05
1.49183e-05
1.62784e-05
2.35187e-06
1.38943e-05
-2.20032e-05
-3.17556e-06
1.12818e-05
-2.46638e-05
5.67331e-06
4.0437e-05
-2.14467e-05
-3.26721e-06
-2.01349e-07
3.47146e-06
-1.46094e-05
3.72603e-05
2.61775e-05
-4.88279e-05
3.27572e-05
9.20146e-07
-5.21054e-05
1.84285e-05
-2.31877e-06
3.36167e-05
-2.94575e-06
-2.83525e-05
1.90366e-05
-1.48291e-05
1.14237e-05
-1.56274e-05
-1.31578e-06
-2.40248e-05
2.70435e-05
-1.70306e-06
-2.11091e-05
-3.3264e-06
-1.44902e-05
3.89225e-05
-8.01591e-06
-8.46889e-06
-1.48526e-05
3.13359e-05
-1.26224e-06
3.46851e-05
-3.73208e-06
-2.96909e-05
2.32245e-05
-2.30422e-05
5.60064e-07
-7.42536e-07
3.70081e-05
8.42338e-08
-2.56346e-05
-1.14591e-05
-8.62421e-06
-4.31672e-06
-2.46133e-05
3.75555e-05
-3.12706e-07
-3.26993e-06
3.58202e-06
-3.10529e-05
4.63665e-05
-3.57684e-06
-1.17374e-05
2.74957e-06
1.91021e-05
6.16238e-06
-2.80099e-05
-4.51291e-06
1.04635e-05
3.7066e-06
-9.65825e-06
-1.62661e-05
-4.05169e-06
1.69071e-05
3.40682e-06
2.05238e-05
1.45877e-05
-5.18011e-05
1.66903e-05
1.23651e-05
-9.54634e-06
3.10765e-05
-3.38957e-05
-2.48457e-06
2.02805e-05
1.68289e-06
-1.94792e-05
3.15559e-06
-3.10546e-06
-5.04599e-08
2.52623e-06
3.16667e-05
1.37717e-06
-3.55693e-05
2.87697e-05
-4.55234e-06
-2.76179e-05
3.39819e-06
-5.37755e-06
6.62547e-06
-3.05926e-05
2.93445e-05
-2.88263e-05
-4.45349e-06
2.24186e-05
1.08563e-05
1.10924e-05
-1.05027e-05
-9.9375e-08
-4.90725e-07
-4.23137e-05
2.74261e-05
-1.65134e-06
1.65371e-05
-4.8772e-06
4.11634e-06
7.60726e-07
1.35323e-05
-1.15936e-05
1.78118e-05
-1.97486e-05
1.95598e-05
1.64095e-05
-8.55315e-06
1.41827e-05
-3.83917e-05
-1.71477e-05
4.13592e-05
1.38724e-07
-1.60833e-05
1.61595e-05
-2.14504e-07
8.90526e-06
-1.45654e-05
-1.68028e-05
2.24638e-05
1.43983e-05
6.23186e-06
-2.37974e-06
-1.82503e-05
-4.42379e-06
1.04832e-06
5.63009e-06
-2.25444e-06
-4.38533e-06
5.45579e-05
-1.85309e-05
-3.16392e-05
1.49535e-05
1.71955e-05
-7.97269e-07
-3.13527e-05
1.49936e-07
3.16158e-06
-3.3119e-06
-1.05694e-06
5.45502e-06
3.20863e-05
-3.64862e-05
4.0084e-05
5.24741e-06
-1.94762e-05
-2.58554e-05
-1.11308e-06
5.87326e-06
-4.6296e-06
-1.29061e-07
1.40689e-05
-1.28749e-06
-1.52776e-05
2.49292e-06
-4.23627e-06
-1.34392e-05
6.86562e-06
1.0811e-05
-6.0052e-06
2.75419e-05
4.50453e-06
-2.60404e-05
2.95096e-05
-3.94645e-06
-3.20982e-05
6.53467e-06
-3.00671e-06
5.82198e-06
-2.81534e-06
2.6532e-06
-1.16203e-05
1.03691e-05
-1.40249e-06
7.05358e-07
1.11027e-05
-1.17173e-05
-9.07005e-08
1.10102e-05
1.28017e-05
-1.45053e-06
-2.23614e-05
2.07074e-05
2.80946e-05
-1.92917e-05
-1.40378e-07
4.13438e-06
-3.9939e-06
-4.01089e-05
1.99273e-05
3.72827e-05
-1.70973e-05
3.973e-05
6.98415e-06
-4.15921e-05
-5.12214e-06
2.71854e-05
-1.81612e-05
-3.01337e-05
8.34048e-06
1.4328e-05
-3.42747e-05
-1.98807e-06
-7.39922e-06
4.36622e-05
-9.85688e-08
4.07574e-06
-3.97753e-06
3.83535e-05
-1.49691e-06
-4.43903e-06
-3.24184e-05
4.29778e-06
-4.29368e-06
-5.15333e-09
-1.2507e-05
3.14898e-06
-7.74193e-06
1.70998e-05
-2.16001e-05
-1.8102e-05
1.63428e-05
2.33585e-05
2.13782e-05
-1.63795e-05
-4.46531e-06
-5.33286e-07
-4.33872e-08
3.28825e-06
-3.24345e-06
-7.36999e-07
-4.29698e-06
1.25604e-08
5.02006e-06
8.02661e-06
3.1818e-06
-5.61862e-06
-5.58928e-06
-1.24312e-05
1.34439e-05
-1.7506e-06
-2.61762e-07
4.2042e-05
-1.22028e-06
-4.05604e-05
-7.68956e-06
-7.64586e-07
1.00795e-05
-1.62534e-06
3.65886e-06
-1.45612e-05
1.14952e-05
-5.9231e-07
1.07831e-05
-2.02196e-05
1.438e-05
-4.94394e-06
8.55961e-06
1.9815e-05
3.32862e-06
-3.17035e-05
5.87987e-06
-6.0374e-06
1.5814e-07
1.59599e-05
-1.30044e-05
-3.29175e-05
2.99674e-05
1.07764e-06
1.19416e-06
1.59795e-05
-1.82517e-05
4.16536e-06
1.8507e-05
-2.3552e-05
8.79881e-07
1.2238e-05
-5.48516e-07
-1.93079e-06
-9.75917e-06
1.05036e-05
2.18829e-05
-3.22392e-05
-1.48461e-07
1.48513e-05
-9.42183e-08
-1.28629e-06
-1.34703e-05
-2.61731e-05
9.50088e-06
1.30775e-06
1.5363e-05
-1.19901e-05
-1.12302e-05
-1.49579e-06
1.0491e-05
-1.83363e-05
1.37906e-05
-5.94425e-06
-4.31718e-06
-1.7637e-05
-2.65559e-05
4.85098e-05
-6.11903e-06
7.59194e-06
-1.7453e-06
2.72403e-07
4.75403e-08
2.73454e-06
-2.78175e-06
-7.73234e-06
4.0114e-05
1.21319e-05
-4.4516e-05
2.97168e-05
1.24357e-05
-1.10399e-05
-3.11146e-05
2.77582e-05
-2.34424e-05
2.71165e-05
-3.14315e-05
3.55526e-05
-3.92546e-05
4.42445e-06
-7.22622e-07
-5.53335e-05
2.40682e-05
1.02146e-05
2.10515e-05
-1.23788e-05
-1.5397e-06
1.35901e-05
3.28591e-07
3.36136e-05
-4.49161e-05
1.57341e-05
-4.43135e-06
1.11858e-05
-1.2268e-05
3.89195e-06
-2.81028e-06
-1.69334e-05
1.53536e-05
-1.04094e-05
-1.46383e-05
4.9109e-05
5.42055e-06
-3.98909e-05
-5.75712e-06
1.5245e-07
5.60421e-06
-4.8027e-06
1.07037e-05
-3.98527e-05
-2.09665e-05
-3.66757e-07
2.10288e-07
2.11224e-05
4.92128e-06
1.12373e-07
-5.03402e-06
8.40754e-06
-5.2099e-07
-3.05777e-05
2.26902e-05
-5.85878e-08
-2.11779e-07
1.12118e-05
-1.09413e-05
8.47233e-06
1.81098e-05
-3.0418e-05
3.83408e-06
2.6016e-05
1.81356e-06
1.71869e-06
-2.95474e-05
-2.79229e-06
6.28997e-06
3.95378e-05
-4.3036e-05
-9.27131e-06
-1.13296e-06
-3.75261e-07
1.07802e-05
-9.13264e-06
7.87815e-06
-3.13789e-05
3.26353e-05
-1.46815e-06
2.58792e-05
-2.25576e-05
-1.85385e-06
3.7423e-05
1.14667e-05
-1.70902e-05
-3.17991e-05
8.15086e-06
-4.44234e-05
2.9066e-05
-3.75253e-05
4.79499e-05
-2.29778e-06
2.08114e-05
-8.13244e-06
1.70368e-05
-1.42542e-05
-3.53363e-06
6.92692e-06
1.08608e-05
-7.49829e-06
7.97125e-07
6.84639e-06
-1.43283e-07
-1.21208e-05
3.02988e-05
-2.12148e-05
3.03664e-06
-3.34976e-05
2.97138e-05
3.16458e-05
-2.78618e-05
-3.53184e-06
3.2426e-06
1.81187e-07
1.07668e-07
3.3286e-05
-4.88373e-05
-1.8176e-05
3.37268e-05
-4.45249e-05
-1.77588e-05
2.98697e-05
3.2414e-05
4.00879e-05
4.24015e-06
2.09771e-06
-4.64245e-05
3.43127e-05
-2.29713e-05
2.87469e-05
-3.90671e-05
-3.73444e-06
1.53545e-05
2.74455e-05
3.43749e-06
2.89602e-07
-3.72825e-06
3.81113e-05
-3.52637e-05
-1.1986e-05
9.13862e-06
-2.10099e-05
-7.4162e-06
6.16471e-06
2.2265e-05
1.5538e-05
2.6601e-05
-1.52143e-05
-2.69236e-05
7.13586e-06
2.25534e-05
-2.19145e-05
-7.77471e-06
4.96064e-07
-6.80619e-06
6.30984e-06
-1.74742e-05
-1.53162e-05
1.50035e-05
1.77877e-05
1.69599e-06
2.07866e-05
-4.88033e-06
-1.76003e-05
-3.49311e-05
3.51057e-05
-6.55892e-06
-2.97779e-06
3.78299e-05
-3.69055e-05
2.05284e-06
2.04855e-05
4.2159e-06
1.12028e-05
-3.59032e-05
-6.37606e-08
-2.3758e-06
2.43852e-06
-3.4683e-06
3.44823e-06
2.11274e-08
-2.49816e-05
-1.20784e-05
1.45136e-05
2.25448e-05
-3.20077e-05
-7.94902e-07
3.87892e-05
-5.98661e-06
-9.59693e-06
3.52034e-05
-3.64759e-05
1.08695e-05
-2.59919e-05
2.11845e-05
-9.44583e-06
1.42524e-05
3.72223e-07
2.14219e-05
-2.4013e-05
2.21836e-06
-3.60134e-05
8.09815e-06
2.34385e-05
4.47724e-06
2.22953e-06
4.66857e-05
-1.76656e-05
-3.12495e-05
2.34256e-06
-4.38161e-06
-2.28059e-05
-1.17212e-05
9.54552e-06
2.03838e-05
-1.32806e-06
3.50525e-06
-2.25611e-05
-2.08957e-06
-4.91517e-06
6.18461e-06
8.22291e-07
1.42234e-05
-4.31974e-06
-1.01035e-05
2.00099e-07
1.30376e-05
-4.40488e-05
4.21978e-05
-1.11902e-05
-1.70463e-05
2.99954e-05
4.31421e-06
-1.72645e-05
-3.60379e-06
4.20643e-06
2.83285e-05
-2.89321e-05
-3.85558e-05
2.85711e-06
3.7795e-07
3.53157e-05
-2.17052e-05
2.60196e-06
1.74206e-05
1.6817e-06
-2.55383e-05
1.57809e-05
3.60638e-05
-2.63064e-05
-1.47105e-05
-2.71621e-05
7.48611e-06
3.43891e-05
5.11326e-06
-4.0918e-05
-4.80515e-06
4.06086e-05
-3.1148e-05
4.17905e-06
-1.42235e-06
2.8392e-05
-3.23585e-05
-2.28524e-06
-2.25584e-06
3.69e-05
7.23103e-06
-3.88057e-06
3.50748e-05
-3.84266e-05
7.42654e-06
-4.25458e-06
-2.00742e-08
-3.15327e-06
4.71237e-06
-4.93663e-05
-7.53121e-06
5.21855e-05
-4.28741e-06
2.71484e-06
2.19308e-06
-6.19707e-07
-2.87888e-05
-7.55495e-06
1.58103e-05
2.05332e-05
-1.50664e-06
1.46202e-05
2.76933e-06
-1.5884e-05
-1.31038e-05
-1.41876e-05
9.37182e-06
-6.18422e-06
2.47222e-06
3.20498e-05
-2.83389e-05
2.48149e-05