/*--------------------------------*- C++ -*----------------------------------*\
| =========                 |                                                 |
| \\      /  F ield         | OpenFOAM: The Open Source CFD Toolbox           |
|  \\    /   O peration     | Version:  2406                                  |
|   \\  /    A nd           | Website:  www.openfoam.com                      |
|    \\/     M anipulation  |                                                 |
\*---------------------------------------------------------------------------*/
FoamFile
{
    version     2.0;
    format      ascii;
    arch        "LSB;label=32;scalar=64";
    class       volVectorField;
    location    "36";
    object      U;
}
// * * * * * * * * * * * * * * * * * * * * * * * * * * * * * * * * * * * * * //

dimensions      [0 1 -1 0 0 0 0];

internalField   nonuniform List<vector> 
59516
(
(0.107009 0.000175461 -0.000513281)
(0.0995241 -7.99747e-05 -0.000372572)
(0.114806 -0.00120797 -0.000278993)
(0.129638 0.00179089 0.00188427)
(0.113847 0.00023163 -0.00452425)
(0.10109 -0.00483611 -0.0107965)
(0.129816 -0.000216063 -0.00160845)
(0.104514 0.000837579 1.40058e-05)
(0.114175 0.000904658 0.000108405)
(0.056343 -0.000990509 0.00223186)
(0.152281 4.69181e-05 -0.0017772)
(0.0615642 0.000511721 -0.00345365)
(0.121072 0.0010615 -0.000143971)
(0.0205159 -8.19645e-05 -0.000222702)
(0.0626618 0.00156036 0.00322105)
(0.0534795 0.0036924 -0.00182195)
(0.163947 0.000115876 -0.000293041)
(0.070313 0.00393366 -0.00418584)
(0.115156 0.00521248 0.000903461)
(0.160964 -0.000331736 0.00057204)
(0.054853 0.000704133 -0.00105212)
(0.148309 -0.000308385 0.000372451)
(0.153903 0.000472119 -0.000592346)
(0.034759 -0.00106856 -0.000208949)
(0.158649 -0.000547055 0.00108441)
(0.0675626 0.00138006 0.000836435)
(0.0432595 0.000849908 -0.00278445)
(0.0447729 0.00367324 0.00031412)
(0.0666294 0.00234337 -0.00023486)
(0.0182339 -0.00284765 0.000740375)
(0.108334 -0.0210144 -0.0046214)
(0.0460208 0.00351916 -0.00056156)
(0.133808 0.000139956 0.00083519)
(0.113555 -0.000721647 0.00243117)
(0.138832 0.00398552 0.00318956)
(0.145837 -0.000141218 -0.000100662)
(0.0176244 -0.00170057 -0.00247316)
(0.0701957 0.00267358 -0.00665982)
(0.096656 -0.00323467 -0.000189008)
(0.155891 -0.00146089 -0.000172319)
(0.103472 -0.000719706 7.63159e-05)
(0.143682 -0.00775167 -0.00713615)
(0.148019 -0.00244 -0.00186361)
(0.109707 -0.000794782 0.000416729)
(0.143448 -0.00302441 0.000172307)
(0.0568039 -0.000850439 -0.00138818)
(0.133116 -0.00208701 -0.00326325)
(0.160291 -0.00292131 -0.000387954)
(0.111864 -0.00903065 0.012448)
(0.14945 0.0054609 0.00461578)
(0.104046 0.0104753 -0.0145296)
(0.0453022 -0.00364802 0.00245413)
(0.12175 0.000896104 -0.00219171)
(0.128812 -0.000435913 -7.1344e-05)
(0.0484672 0.00278965 4.02154e-05)
(0.130361 0.00160084 -0.000493033)
(0.144044 0.00776545 0.00820246)
(0.0490042 0.00401532 -0.00283875)
(0.164535 -6.74607e-05 -7.38332e-05)
(0.134829 0.00571462 0.00729486)
(0.148128 -0.000199411 0.000434297)
(0.0197755 0.00241522 -0.0008315)
(0.15896 0.000381959 -0.000306104)
(0.16046 0.00130254 0.000488888)
(0.125257 0.000393254 -0.000569072)
(0.146107 0.0027319 0.0036405)
(0.0271209 -0.00181248 0.00246459)
(0.0421578 0.000233115 -0.000187188)
(0.121419 -0.00504495 0.0222192)
(0.136487 0.00124406 -0.00136632)
(0.0381066 0.00109478 0.000316172)
(0.158541 0.000833555 9.31271e-05)
(0.0239463 0.0015024 -0.0036875)
(0.142443 -9.46236e-05 0.000137677)
(0.168938 -0.00034894 6.85394e-05)
(0.156436 -0.000837465 -0.00107773)
(0.160967 -0.00100649 -0.00173074)
(0.147127 3.97763e-05 -0.000400423)
(0.0472064 -0.00162669 0.00148345)
(0.149796 0.00270762 0.00623638)
(0.039647 0.00239496 0.00107492)
(0.145445 0.00334163 0.00465701)
(0.139134 0.00164646 0.00447825)
(0.0208456 -0.000807135 0.00292561)
(0.145456 0.00275885 0.00496334)
(0.165963 -0.00028055 0.000525382)
(0.0336636 -0.00124635 0.000533114)
(0.149666 0.000382164 0.000745959)
(0.0559163 0.000766989 0.00249095)
(0.107386 0.0082584 -0.00557112)
(0.131455 -0.000797167 -0.0111307)
(0.137705 0.00181259 -0.000153669)
(0.164318 -8.29558e-05 -7.22298e-05)
(0.13658 0.00116364 -0.000256998)
(0.154902 0.000336503 5.75734e-05)
(0.109964 -0.0105843 0.00400914)
(0.139996 -0.000662884 0.000908727)
(0.0547849 -0.00176743 -0.00423917)
(0.0652979 0.00225775 -0.000822981)
(0.147046 -0.000836125 0.00145917)
(0.0387322 0.000679511 0.00144699)
(0.0254336 0.00124066 -0.00291497)
(0.0240266 0.000849225 0.00334317)
(0.0560511 -0.000848778 -0.00287745)
(0.136195 0.00056399 -0.000264709)
(0.14451 3.63654e-05 0.000461555)
(0.0412889 0.00359165 -0.00147289)
(0.107684 0.000344179 -0.000651967)
(0.103402 -0.000706041 -6.11153e-05)
(0.0677168 0.000430726 -0.0027867)
(0.124886 0.0127801 -0.0133897)
(0.0319417 0.00324921 -0.00039584)
(0.0684773 0.00084417 -0.00407124)
(0.118032 0.0172554 -0.0086562)
(0.156483 -6.94812e-05 -6.80784e-05)
(0.103229 0.00108705 0.000932164)
(0.0557583 0.000546047 -0.00221634)
(0.134085 0.000143925 0.000834433)
(0.0227028 -0.000303124 0.00108115)
(0.145964 0.00152463 0.000362011)
(0.169422 -0.00043134 0.000280428)
(0.160864 0.000126394 0.000295842)
(0.156184 -0.000424589 0.000536886)
(0.159486 -0.000361274 0.000480187)
(0.132217 -0.0173934 0.00280163)
(0.0908505 0.00112708 -0.00255585)
(0.0308448 -0.000502016 0.00203659)
(0.13812 -0.0129409 -0.000859564)
(0.0898415 -0.00275563 0.0131201)
(0.167081 0.000541389 0.000151761)
(0.167846 0.000453532 0.000693049)
(0.115283 0.00155353 0.00189897)
(0.024178 0.00139613 -0.00167798)
(0.148033 -0.000106446 0.000644224)
(0.104492 0.0010505 0.00030114)
(0.11866 -0.000885909 -0.00178438)
(0.107583 0.0126674 -0.00888223)
(0.131945 -0.000353946 0.000512427)
(0.0409025 0.00275195 0.000116619)
(0.10129 0.000461828 -0.0012989)
(0.0453033 -0.000914346 -0.00227248)
(0.169256 -0.000287937 0.000181059)
(0.0192782 0.000865219 0.00169233)
(0.127559 -0.00122836 -0.000439011)
(0.165092 0.000413764 0.000130608)
(0.1414 0.00142077 -3.02539e-05)
(0.140943 -0.00368311 -0.000985213)
(0.120054 0.000853126 -0.00219908)
(0.0621337 -0.00100941 0.00173333)
(0.109324 -0.000768508 -0.000867894)
(0.106434 -4.19962e-05 -0.000821449)
(0.0363296 -0.00133827 1.0635e-05)
(0.161573 -0.000838675 0.0010538)
(0.152516 -0.000455875 0.000692721)
(0.092254 -0.000463727 0.00194989)
(0.0194506 -0.000407616 0.00211912)
(0.116017 7.21161e-05 -0.000197785)
(0.116566 0.00112624 -0.000218244)
(0.0853305 0.00117757 0.000109662)
(0.0200144 0.00241722 -0.00263978)
(0.0664575 0.00148206 -0.00337035)
(0.068443 -0.00358533 -0.00236576)
(0.0359737 -0.00151666 0.000353194)
(0.0261166 -0.000227787 -0.000521932)
(0.102462 0.00172658 0.0023342)
(0.165013 0.000312649 0.00108778)
(0.0627464 -0.0006748 0.000357524)
(0.166125 0.000530793 -0.000101054)
(0.0203723 -0.00123797 0.00236291)
(0.135315 -0.00045537 0.000264454)
(0.0863917 0.00134276 0.00115732)
(0.0532951 0.000754328 -0.00080919)
(0.0655354 0.00163232 0.00091198)
(0.137452 -0.000682058 0.000663527)
(0.051234 -0.000849285 0.000297563)
(0.135404 -0.000951614 -0.00404322)
(0.161868 -9.1017e-05 -0.00106627)
(0.149154 -0.00407835 -0.00236225)
(0.068572 -0.000966302 0.00325908)
(0.0418679 -0.000148417 -0.00053494)
(0.145253 0.00180752 0.000819998)
(0.0341954 -0.00295541 -0.00128285)
(0.0295842 -0.000394004 -0.0023439)
(0.0657174 -0.00174414 0.000137602)
(0.166158 -0.00016787 0.000596551)
(0.0599522 0.000296289 0.000700564)
(0.0360393 -0.000659405 -0.00277803)
(0.0236029 -1.33867e-05 0.00032469)
(0.123719 0.000126926 5.14093e-05)
(0.102579 -0.00169598 -0.000178051)
(0.13495 -0.000731954 0.00277502)
(0.0529068 0.00314959 0.000119362)
(0.158939 -0.000500105 -0.000170638)
(0.0581392 0.00236502 -5.20094e-08)
(0.153265 -0.00029254 -0.000187247)
(0.0299622 -0.000245463 0.000839679)
(0.0580934 0.000739537 -0.00025008)
(0.0415395 -0.00108159 0.000265164)
(0.112055 0.00278224 0.00369859)
(0.151879 0.000545597 -0.000197371)
(0.0824717 -0.00273592 0.000380765)
(0.16845 -0.000515751 0.00022684)
(0.105046 -0.000667621 0.000887014)
(0.0199067 0.00218712 -0.00142869)
(0.129988 -0.00147755 -0.000493299)
(0.144631 5.96752e-05 0.000124671)
(0.168016 -2.90914e-05 3.61362e-05)
(0.149305 -0.000756424 1.39677e-05)
(0.0233639 -0.000669694 0.000209648)
(0.115999 -0.00187622 -3.62747e-05)
(0.0514333 0.00361036 0.00304152)
(0.024047 -0.00390473 -0.000620519)
(0.144003 0.000405234 -0.00138747)
(0.0568081 -0.00110715 0.000779845)
(0.118163 0.00124245 0.000113229)
(0.16369 -0.000433925 0.000132582)
(0.139835 0.000898887 0.000186062)
(0.155335 -0.00111023 0.000525982)
(0.0552601 0.00227395 -0.00280116)
(0.154622 -0.000415317 0.000673119)
(0.0565 0.00225243 0.00177904)
(0.106287 0.000496927 -7.88506e-05)
(0.158092 0.000771251 0.00102836)
(0.0407356 -0.000191877 0.000763767)
(0.160642 -0.000927876 0.000321193)
(0.162403 -5.37328e-05 -0.000782845)
(0.0285924 -0.000300669 0.00145522)
(0.0477598 0.00155437 -0.00224609)
(0.16201 0.00015408 0.000868657)
(0.0553926 0.000200081 -0.00400518)
(0.164499 -0.000711502 0.000362627)
(0.163266 0.000445251 -0.000466516)
(0.16635 0.000502449 0.00102717)
(0.0255149 -0.00204661 -0.00143273)
(0.0334105 0.000909286 -0.00163654)
(0.0349328 0.000872957 -0.00123216)
(0.0645278 0.000355473 0.000453975)
(0.0990734 -0.00144389 0.000651933)
(0.1527 0.000841371 0.0012709)
(0.0583092 -0.00120436 0.00143699)
(0.167935 -7.03948e-05 0.000739025)
(0.020993 0.000410544 0.00311353)
(0.0551933 5.30796e-06 0.000837137)
(0.025502 0.000217401 0.00278586)
(0.166806 0.000678817 0.000342604)
(0.0950611 -0.000490755 -0.000438922)
(0.144453 0.00012919 0.000767807)
(0.0665097 0.000586165 -0.00141662)
(0.162892 -0.00013269 0.000250904)
(0.106737 0.000248073 0.000403611)
(0.160665 -0.00137478 0.000485452)
(0.140446 0.000123735 0.000713613)
(0.167921 0.000222759 0.000759989)
(0.143856 0.000370758 -0.000323294)
(0.145839 0.00122491 0.000714579)
(0.154404 0.000311478 0.000545665)
(0.0565174 0.000139825 -0.000229401)
(0.151083 0.000674838 0.00141316)
(0.0428921 -0.000354238 -0.00238452)
(0.0611754 0.000485074 0.00214014)
(0.131741 0.000821303 -0.000836555)
(0.157107 -0.000699013 0.000798028)
(0.117064 0.00256211 0.00149391)
(0.16542 -0.000265616 0.000761775)
(0.101216 -0.000114154 0.00218938)
(0.0590758 0.002382 -0.00149113)
(0.155854 7.49335e-05 -0.000850017)
(0.095072 0.00172045 0.000570374)
(0.0474787 -0.000777841 -0.000687923)
(0.0527966 6.72237e-05 -0.0014423)
(0.0986559 0.000478666 -0.00273218)
(0.162421 -0.000761147 -0.00029307)
(0.10086 -0.00222375 0.000101517)
(0.0953896 -0.00115365 0.000911396)
(0.159189 -0.00127707 5.36658e-05)
(0.0951271 -0.000596059 0.00263011)
(0.021879 0.00262375 -0.00150938)
(0.15789 -0.000186312 0.00109779)
(0.0263309 0.00169043 -0.00222367)
(0.0415089 -0.00169077 0.00110655)
(0.165641 0.000179525 0.00106255)
(0.14005 -0.000463045 -0.000232278)
(0.0258046 0.00276909 0.00280626)
(0.122964 0.000946176 0.000275853)
(0.126937 0.00227333 4.89951e-05)
(0.161554 0.000462299 0.000478475)
(0.166339 -0.000572565 5.66131e-05)
(0.0250104 0.00296592 0.000603351)
(0.165393 -7.91192e-05 0.0007546)
(0.166572 -0.00123781 0.000143587)
(0.162593 -1.522e-05 0.00103664)
(0.135737 6.9817e-05 0.000903035)
(0.136699 0.00140787 0.000984931)
(0.097809 0.000437056 -0.000357313)
(0.164928 0.00116414 0.000218254)
(0.029019 -0.00103452 -0.00134491)
(0.154552 -0.00136732 0.000462703)
(0.140343 -0.0010492 -0.000558177)
(0.167269 -0.000864924 0.000664896)
(0.15939 -0.000783692 0.000476919)
(0.118573 -0.000742991 0.000511992)
(0.0611866 0.000811759 0.0013012)
(0.023737 -0.00033524 0.00166251)
(0.0294641 -0.000732417 0.000513206)
(0.160996 -0.00134664 -0.000499831)
(0.0213653 -0.00126407 0.00311804)
(0.0651239 -0.0003011 -0.00110705)
(0.0533821 0.00294075 0.00117727)
(0.161063 -0.000425393 0.000769227)
(0.166181 -6.48653e-05 -0.000494039)
(0.153238 -0.000337306 -0.000312053)
(0.0603769 -0.000149328 -0.00132616)
(0.105303 0.00135649 -0.00207756)
(0.0414067 -0.00339306 0.00276412)
(0.0556954 0.0011261 0.00142134)
(0.152575 1.19523e-05 4.55378e-06)
(0.100777 0.00123897 -0.00091694)
(0.107738 0.0124012 0.0035375)
(0.0920189 -0.0018787 0.000953328)
(0.0445275 -0.000249763 -0.00047363)
(0.0659863 -0.000964759 0.00194305)
(0.11008 -0.000728202 -0.00162216)
(0.165759 -3.36264e-06 -4.98658e-05)
(0.168729 -0.000131568 0.000461439)
(0.168289 -0.000249567 0.00103377)
(0.158459 -0.00137314 0.000296064)
(0.0974316 0.00337368 0.00446922)
(0.128117 0.00105552 0.000659786)
(0.158724 0.00164791 0.000584633)
(0.156859 -0.000428875 1.51227e-05)
(0.159014 -0.000476019 0.000938216)
(0.0582392 0.0013083 -0.00319762)
(0.0231175 -0.0014657 -0.0027576)
(0.148851 -0.000812172 0.000313907)
(0.0410943 -0.00190801 0.00220627)
(0.0330403 0.000212029 5.30225e-05)
(0.156158 0.000430544 0.00151431)
(0.145814 -0.00055038 0.000498345)
(0.0605204 -0.00145944 -0.00276314)
(0.163374 -0.00106692 0.000590288)
(0.161434 -0.00151212 0.000337134)
(0.167806 -0.000813605 -0.000616648)
(0.164781 -0.000577729 -0.000400036)
(0.0337962 0.00150486 4.81591e-05)
(0.157147 0.000253824 -0.00021708)
(0.164618 -0.0011941 0.000912428)
(0.0595232 -3.0497e-05 0.000786769)
(0.166396 -0.000114117 0.00136676)
(0.163929 -0.000321028 0.000408573)
(0.132758 8.5961e-05 -0.00092388)
(0.124282 0.00010362 -0.000799194)
(0.149176 -0.000710107 0.00117988)
(0.14338 -0.00133877 0.000532505)
(0.071877 -0.000402957 -0.000237996)
(0.0327661 0.00131903 -0.00103405)
(0.0361818 -0.00263715 -0.000219022)
(0.0975737 0.000514813 0.000141431)
(0.0862977 -0.00671421 0.0105703)
(0.0746359 -0.0042033 -0.00606193)
(0.0859314 0.00032285 0.000239385)
(0.117075 0.000113033 0.00194149)
(0.132632 0.00021255 0.000507539)
(0.156225 -0.000752588 0.00340554)
(0.155508 9.49548e-05 0.000742885)
(0.133413 -0.000598257 -0.000182808)
(0.14757 0.000302184 0.000525718)
(0.147497 0.00109249 0.000417099)
(0.0325962 -0.00095877 -0.000353467)
(0.113881 -0.0224204 0.00277917)
(0.0600667 0.00159077 0.000588411)
(0.0428359 -0.00194192 -0.000510326)
(0.0430686 0.0008595 0.000329196)
(0.157422 -0.000170297 -0.000202962)
(0.0963695 -0.000397633 5.09713e-05)
(0.157399 0.00054595 -0.000815338)
(0.0206957 0.00117445 -0.00177205)
(0.12814 -0.000368601 0.000176617)
(0.046141 0.00111853 -0.000861915)
(0.159617 -0.000601033 -0.000145276)
(0.0495541 -0.000664631 -0.000467494)
(0.0636889 -0.00145456 0.00125999)
(0.109165 -0.00259061 0.000832353)
(0.150413 -0.000665691 0.00130951)
(0.0205151 0.00170488 -0.00219867)
(0.056076 -0.000566383 0.00251923)
(0.134049 9.06928e-06 0.00059781)
(0.0242446 -0.00151075 -0.00185014)
(0.130674 0.00124627 0.00853238)
(0.118134 -0.000636963 0.00245318)
(0.13313 -4.68483e-05 -0.00192032)
(0.0970063 0.00212665 -0.00264744)
(0.0909307 -0.00111523 0.0019706)
(0.158456 0.00115855 -8.10492e-05)
(0.0772556 -0.00783287 -0.00714959)
(0.168582 0.00106008 0.00026234)
(0.11134 0.00846387 0.00897394)
(0.0613838 -0.00259893 0.00035257)
(0.0644787 -0.000370814 -0.00149794)
(0.167899 0.000907973 0.000258039)
(0.168776 0.00121943 0.000411455)
(0.0542545 -0.000518616 0.000578702)
(0.135513 0.000646153 -0.00055325)
(0.100632 -0.000561092 -0.00229634)
(0.167049 -0.00036832 0.0007116)
(0.166578 -0.00028445 0.00107214)
(0.0473671 0.00132976 -0.00345371)
(0.133827 -0.000903851 -7.99845e-05)
(0.145054 -0.00156968 0.00137336)
(0.147631 0.000516329 -0.000202401)
(0.154682 0.000448578 0.00045879)
(0.0224491 -0.000743117 -0.0028551)
(0.0217698 0.00111631 -0.00274853)
(0.127852 0.00100554 -0.00154284)
(0.165494 0.000156206 2.54911e-05)
(0.167723 -0.00144993 -0.00073704)
(0.03596 0.000386857 -0.00255119)
(0.160864 -0.00124084 0.000564851)
(0.109537 -0.00106269 -0.000373664)
(0.162839 0.000155341 0.00090499)
(0.166674 0.00116704 0.000363372)
(0.168243 0.000892431 -0.000209319)
(0.164706 0.00100848 0.000603176)
(0.164584 0.00162094 0.000629174)
(0.0916424 0.000548947 0.000280356)
(0.166485 0.00133206 3.40654e-05)
(0.0578984 -0.00114421 -0.00290318)
(0.160481 0.000110836 -0.000288957)
(0.111833 -0.000335323 -0.0011475)
(0.150482 0.000920045 0.000669785)
(0.164704 0.000330067 -0.000206188)
(0.148818 -0.000286231 6.54219e-05)
(0.143806 0.000673885 -0.000838538)
(0.0417837 0.00238371 0.00216626)
(0.0351543 0.000830453 0.000368352)
(0.0221222 0.0019165 -0.00221969)
(0.151207 0.00371485 0.00655692)
(0.17252 6.27536e-05 -1.02886e-05)
(0.138667 -0.000841813 0.000563641)
(0.128259 0.00129271 0.000353441)
(0.0320226 -3.5155e-05 0.00115311)
(0.0245506 -0.0004167 0.00279765)
(0.116625 -0.000328993 0.00177505)
(0.149349 -0.000382245 0.00137673)
(0.165039 -0.000360872 0.000723522)
(0.152995 0.000645122 -8.58824e-05)
(0.136696 -0.000854108 -0.0010907)
(0.170295 0.000836433 -1.2705e-05)
(0.135401 0.000927289 0.000621316)
(0.0273801 -0.000588426 0.00259019)
(0.124499 -0.000393035 0.000491363)
(0.0594393 0.000577716 0.00301995)
(0.0704952 -0.00702779 0.00150537)
(0.15081 0.00021966 2.3394e-05)
(0.0962869 0.000244224 0.00013602)
(0.14545 8.29151e-05 -6.78128e-05)
(0.0214487 -0.00398701 -0.00150975)
(0.168397 0.00141817 -0.000106824)
(0.167687 6.40957e-05 -0.000227285)
(0.165624 0.00120021 0.000385602)
(0.0943023 0.000948576 0.000159144)
(0.150592 -0.000108735 0.00112395)
(0.163199 0.000433177 0.00100951)
(0.122633 0.000377349 0.000112107)
(0.166762 0.001179 0.000253181)
(0.0990233 0.00366984 -0.00279684)
(0.163433 0.000533817 -0.000173183)
(0.147974 -0.00231505 -0.000640146)
(0.0212888 -0.00139364 0.00146543)
(0.166952 -0.000502594 -0.000576367)
(0.118044 0.00196289 -4.98943e-05)
(0.0475049 -0.0013369 0.00383923)
(0.0933514 0.000666373 -0.00150619)
(0.160751 -0.000133197 -0.000518161)
(0.130505 -0.000282227 0.000700625)
(0.0869834 0.0002234 -0.00246151)
(0.0211366 -0.00189928 -0.00215339)
(0.165599 -0.000768479 -0.00047952)
(0.126075 0.00177187 -0.00166101)
(0.157275 -0.000376421 -0.00022816)
(0.125681 0.000153896 0.000730543)
(0.0379155 0.001731 0.00174281)
(0.140633 5.68313e-05 -0.000525109)
(0.0262471 0.00213484 -0.00330553)
(0.157642 0.000220726 -0.000521947)
(0.102279 0.0114017 -0.0036517)
(0.161035 -0.000514398 -0.000564683)
(0.0531328 -7.00501e-05 0.00181855)
(0.108698 -0.00123286 -0.0016415)
(0.0973759 0.000406999 -0.00137305)
(0.0357581 0.00212893 0.00179179)
(0.166459 0.000303636 0.00054267)
(0.160997 0.000460497 0.000771015)
(0.0227016 0.000798472 0.00220481)
(0.155991 -0.00106377 0.000242025)
(0.166795 -0.000727405 0.00068166)
(0.0381102 -7.01809e-05 -0.00215859)
(0.0628725 0.00277243 7.29527e-06)
(0.0549185 0.00193858 0.00146283)
(0.151124 0.000857936 0.000639032)
(0.165361 -2.97347e-05 0.000291688)
(0.0327661 -0.00082685 0.00150407)
(0.0553165 -0.00181818 -0.000686386)
(0.0579273 0.00114791 -7.2465e-05)
(0.116645 0.00142756 0.000257248)
(0.166027 -5.91927e-05 0.00038644)
(0.0237948 0.00124326 -0.0031655)
(0.156697 -0.000920417 0.000884183)
(0.150609 0.00195563 0.000158202)
(0.166092 0.000122048 0.00114016)
(0.0900993 0.00386565 -0.00372583)
(0.16316 0.00114469 0.000287428)
(0.0234207 -0.000247809 -0.0025665)
(0.159788 -0.000569414 -0.000172456)
(0.0279193 -0.000470754 -6.06834e-05)
(0.0602359 -0.00184529 0.000399435)
(0.15271 -0.000933382 0.000152136)
(0.0617259 -0.00181002 -0.000608201)
(0.0211955 0.00247541 0.00221552)
(0.0377793 0.000718239 -0.00120853)
(0.0464319 -0.00241283 0.00149832)
(0.0598779 0.00119297 -0.00164822)
(0.146348 -0.000202323 -0.000767446)
(0.0511583 -0.00117092 -4.30711e-05)
(0.0603499 0.00197264 -0.00113232)
(0.128128 -0.00696144 -0.0135324)
(0.160639 0.000511805 0.000791363)
(0.0245669 0.00159308 0.000256238)
(0.108319 7.01792e-05 -0.00100962)
(0.08136 0.00879455 -0.00343753)
(0.16294 -0.00145739 -0.000153429)
(0.0594606 -0.000186376 -0.00135141)
(0.158068 0.000738781 0.00103177)
(0.0584042 -0.00243591 -0.00156648)
(0.124041 0.000453684 0.00073948)
(0.165724 0.000638255 -0.000514351)
(0.0521606 0.00247176 -0.00465853)
(0.166495 -8.78574e-05 9.6426e-05)
(0.0477343 0.00213017 0.00242912)
(0.0197362 0.00301791 0.00112928)
(0.144732 0.000736178 -6.23506e-05)
(0.165728 0.000596654 0.000212316)
(0.130612 0.000907354 -0.000326669)
(0.126324 0.00170969 -0.000631404)
(0.166499 -0.00149804 0.000402448)
(0.0617685 0.00162156 -0.00019969)
(0.161076 -0.00147127 0.000426728)
(0.0580413 -0.0017936 0.00251714)
(0.164888 0.000706781 -1.96774e-05)
(0.127404 -0.00149562 -0.00129148)
(0.0287017 0.000716871 -0.00403508)
(0.152175 0.000213797 -0.000722695)
(0.0532801 0.00014601 0.00174402)
(0.0267193 -0.00196204 -0.001886)
(0.148847 -0.000602005 -0.000256736)
(0.0439941 -0.001205 0.00108336)
(0.137727 0.000529242 0.000162246)
(0.164531 0.000195591 0.000812273)
(0.131232 0.000772378 0.000551164)
(0.0546618 -0.00249547 -0.00258734)
(0.168544 0.00161931 0.000244612)
(0.0916556 -0.00130163 0.00108446)
(0.172005 0.000374448 0.000421954)
(0.168856 0.00012301 0.000109079)
(0.168674 0.00098425 0.000655513)
(0.165532 0.000510266 6.40238e-05)
(0.0449165 -0.00246387 -0.00203856)
(0.0523186 0.00021264 -0.000580327)
(0.166809 0.000287787 4.43043e-06)
(0.158154 0.000906195 0.00135969)
(0.0325015 -0.00226389 -0.00109521)
(0.156649 0.000121224 0.00023448)
(0.170051 0.000131748 0.000317982)
(0.166781 -0.001327 -0.000285758)
(0.168452 -0.00153253 -0.000244014)
(0.117808 -0.000269232 -0.00136706)
(0.0218722 0.00218886 0.0019184)
(0.168478 0.000641196 -6.76023e-05)
(0.101433 -0.00096614 -0.00143597)
(0.148147 -8.19248e-06 0.000453035)
(0.0971408 0.000149601 -3.1161e-05)
(0.0298818 0.00215576 -0.000178562)
(0.165687 0.000703224 0.00045614)
(0.0928288 0.00221239 0.00212445)
(0.133955 -0.000454294 0.000168078)
(0.168653 -0.00150331 -3.35206e-05)
(0.14084 -0.00148065 -0.000516938)
(0.0176525 0.00156944 -0.00210021)
(0.0225603 -0.00136746 -0.0022177)
(0.16341 -0.000897908 6.32187e-05)
(0.159417 -0.000718833 -3.73565e-05)
(0.168541 0.001286 0.000885207)
(0.148624 7.62499e-05 0.00104084)
(0.0932221 -0.00136157 0.000588165)
(0.148174 -0.00111768 -0.000472584)
(0.16516 0.000116778 0.000331978)
(0.0206069 0.0017747 0.000401494)
(0.164178 -0.000907633 0.000344912)
(0.134855 -0.0144538 -0.000244138)
(0.0380649 -0.000666959 0.00196435)
(0.055207 -0.00354048 0.000904464)
(0.144234 -0.000543713 -0.000912885)
(0.141104 -0.00174167 0.000768187)
(0.138037 0.000658453 -0.000216565)
(0.125471 -0.000730987 0.000551248)
(0.1065 -0.00361126 0.00108643)
(0.168217 0.000271368 -0.000276024)
(0.0992629 0.00107188 -0.0027664)
(0.167088 0.0013442 3.93137e-06)
(0.162697 0.000349455 -0.000143494)
(0.170929 -0.00128362 0.00046089)
(0.163527 -0.00133794 0.000144919)
(0.0407008 -0.000468599 0.00197801)
(0.159043 -0.00108064 0.000290601)
(0.0329627 0.000926225 -0.00137088)
(0.0944287 -0.00918718 0.0054177)
(0.060819 0.00182288 0.00149693)
(0.127191 -0.00246765 -0.0127841)
(0.131481 -0.00085248 -0.000477048)
(0.117449 -0.0189501 -0.004177)
(0.161388 8.18978e-05 -0.000407242)
(0.167801 -0.0001349 -5.26952e-05)
(0.151591 0.000424281 -0.000205938)
(0.16191 -0.000199566 0.00112392)
(0.0341896 0.000203759 -0.0005818)
(0.100942 -0.00381684 -0.00255587)
(0.112472 -0.00209786 -0.0160224)
(0.16444 0.000322979 5.13014e-05)
(0.114013 -0.0024639 -0.000516054)
(0.136726 -0.0128846 -0.00442829)
(0.154727 -0.00262778 0.0038123)
(0.112614 0.000891616 0.000674671)
(0.0355253 -0.000758286 0.00124684)
(0.054395 -0.00261075 0.00158923)
(0.0246281 0.000114178 -0.000272952)
(0.0235063 0.000160504 -0.00180762)
(0.0347236 -0.000114526 0.000182597)
(0.133761 -0.00842222 0.00518229)
(0.138405 -0.000166508 0.000755001)
(0.0238451 -0.000801893 0.00331455)
(0.0225512 0.00163119 0.00252518)
(0.167942 0.000551067 1.94378e-05)
(0.0961467 -0.0125878 0.00854867)
(0.0373188 0.00162767 0.000656395)
(0.146893 0.000253254 -0.000239056)
(0.107433 -0.00102224 -0.00158679)
(0.135062 0.000108338 0.00119584)
(0.0419258 0.00217216 -0.00122796)
(0.0542641 0.00162022 -0.000601889)
(0.112861 -0.00115205 0.000140593)
(0.1617 0.000266403 -0.000472937)
(0.150131 0.000374229 -0.000734228)
(0.0359659 0.00298673 -0.00108076)
(0.0239745 -0.0018533 0.00119359)
(0.106234 -0.0151859 -0.0112586)
(0.0256148 -0.00335374 3.00154e-05)
(0.134974 -0.000920188 -0.00113154)
(0.0273016 0.00152193 -0.00347766)
(0.105984 -0.000446691 0.00223555)
(0.164591 -0.000555151 -0.000225571)
(0.168875 -0.000652788 0.00106592)
(0.0437752 0.000630353 -0.000966876)
(0.0995688 -0.000411587 -0.000999933)
(0.0350415 0.001284 -0.00137964)
(0.027864 0.00329179 -0.00123025)
(0.164878 -0.000109395 -0.00079465)
(0.0191065 -0.00161326 -0.00249926)
(0.158264 -0.00122221 -0.000553127)
(0.0477957 0.000909529 -0.00224157)
(0.152605 -0.00093546 -0.00018673)
(0.141395 -0.000430646 -0.00015004)
(0.0217905 -0.000581727 0.00346646)
(0.0566912 -0.002734 0.00018372)
(0.147191 0.000272989 0.000409513)
(0.0339447 -0.00166058 3.90284e-05)
(0.154092 -0.000689782 -0.000496667)
(0.0538072 -0.00209428 0.00335691)
(0.109945 0.000261395 -0.000102975)
(0.166954 -0.00058873 -0.000799282)
(0.0361021 0.00108216 0.000840493)
(0.0233898 0.00100244 -0.00308508)
(0.0502695 0.000906481 -0.000364508)
(0.110777 0.0174093 0.00375492)
(0.106294 0.000402385 0.000342486)
(0.0558685 -0.0023923 0.00273595)
(0.0862895 0.000297171 0.00135377)
(0.0304387 -0.00117219 0.000750088)
(0.167229 -0.000530547 -0.000957563)
(0.0231148 -0.000343137 -0.00159246)
(0.163658 -0.00125192 -0.000144775)
(0.145206 -0.000491517 0.000330558)
(0.160781 -0.000262855 0.000170595)
(0.0192763 0.00197644 9.03954e-05)
(0.14963 -0.000746427 0.00055141)
(0.0835009 0.00052205 -8.23039e-05)
(0.15439 0.000497031 0.00016692)
(0.0541845 -0.00044343 -0.000199291)
(0.108142 -0.0130418 0.00671114)
(0.157432 -0.00162599 -0.000180119)
(0.0397482 0.000526131 -0.00046285)
(0.169125 0.000773835 0.000224257)
(0.108858 0.0020067 -0.0204985)
(0.118868 0.000289225 -0.000642747)
(0.0325476 0.000827728 -0.00180357)
(0.0505391 -0.000479473 -0.00256582)
(0.166153 -7.13067e-05 -7.71581e-05)
(0.133177 0.00135946 -6.22021e-06)
(0.0319839 0.00160701 0.000591632)
(0.111164 0.00121066 -0.0014432)
(0.0602452 -0.000780557 -0.00185655)
(0.0244196 -0.00216381 0.00141047)
(0.165612 9.37676e-05 -0.000318131)
(0.103334 -0.00130051 0.0100866)
(0.132275 0.00152076 -0.00199066)
(0.163109 -0.000222672 8.85678e-06)
(0.164507 -3.22744e-05 0.000521994)
(0.160472 -0.000486671 -0.000337619)
(0.133833 0.000713353 0.000353305)
(0.04326 0.00117992 0.000391953)
(0.0397049 -0.0020345 -0.00192878)
(0.168345 0.00123312 0.000342319)
(0.107568 -0.00942207 0.00877179)
(0.12333 -0.00119332 0.000539833)
(0.130069 -0.00139181 0.000517329)
(0.0822565 0.00183234 0.000883394)
(0.14698 -0.000139193 0.000798348)
(0.157709 0.000109613 -0.000826606)
(0.100735 -0.000541939 -0.00135803)
(0.105759 0.00200172 0.000260874)
(0.0373035 0.000263015 -0.00233826)
(0.0721478 0.000647358 -0.00052158)
(0.0433544 -0.00119719 -0.0033011)
(0.149349 -0.000414918 0.000940463)
(0.164806 -0.000222823 1.1571e-05)
(0.0955721 0.00147438 -0.00234082)
(0.0995683 0.000763223 -0.000510285)
(0.0208415 0.0022021 -0.000426966)
(0.0803215 -0.000421304 -0.000610269)
(0.0582073 -0.00204546 -0.00252032)
(0.164692 -0.000196206 -0.00106851)
(0.165339 -0.00114323 -0.000648216)
(0.104814 -0.00959744 0.00607615)
(0.156079 -0.000658469 0.00119564)
(0.082869 -0.00244855 -0.00187561)
(0.101704 -0.0025549 0.0079525)
(0.134057 -0.00107576 0.0020789)
(0.0263366 -0.00206084 -0.000128978)
(0.165325 -0.000808814 -0.000461505)
(0.0498715 0.00146478 -4.20588e-05)
(0.138931 -0.000432099 0.00117144)
(0.0284202 0.00404081 -0.000224807)
(0.164818 0.000704759 -0.000895899)
(0.101646 -0.00435556 0.00268578)
(0.154073 -3.85212e-05 -0.000448307)
(0.117399 0.000475993 0.000315258)
(0.145228 6.53325e-05 0.000270775)
(0.148585 0.000659227 0.000296042)
(0.168001 0.000699604 -0.000316195)
(0.0344817 -0.00201406 -3.45912e-05)
(0.0476219 0.000655086 -0.00105724)
(0.0288827 -0.000769863 -0.00026596)
(0.16377 -0.000159148 0.000645055)
(0.15266 0.000330318 -0.000924845)
(0.136673 0.00172426 -0.000558758)
(0.156663 0.0006905 -0.00076595)
(0.0209876 0.000379959 0.000553548)
(0.0994202 -8.80577e-05 -0.000223293)
(0.0905181 0.000830104 -0.00177313)
(0.164071 -0.000128379 1.01768e-05)
(0.127847 -0.000944924 -0.000386848)
(0.144099 -0.000170774 -0.000391904)
(0.107023 -0.000265866 0.00142045)
(0.165604 -6.85783e-05 0.000267483)
(0.0206496 -0.00239922 -0.00253873)
(0.0865044 -0.00344398 0.000491256)
(0.14934 -0.000142057 0.00035491)
(0.0261641 -0.00228351 0.00197974)
(0.0443422 -0.000740122 -0.00204629)
(0.0621737 -0.00109637 0.000604939)
(0.0217705 0.00135462 -0.00231849)
(0.0962354 0.000466517 -0.00128957)
(0.161289 0.00080844 9.63702e-05)
(0.0601013 -0.00184869 -0.00151246)
(0.0192706 -0.00250622 -0.00175961)
(0.106402 0.000432347 -0.000816605)
(0.0256168 0.000213522 0.000392609)
(0.10014 0.00130179 -0.000664354)
(0.162829 0.000198808 -7.01577e-05)
(0.167981 3.75693e-05 -0.000422271)
(0.162705 7.07867e-05 -0.000378206)
(0.158784 0.00112059 -0.000431472)
(0.163195 0.000140733 -0.000140864)
(0.130927 0.000601548 0.00165053)
(0.046864 0.00101525 -0.00115385)
(0.163607 0.000603296 0.000761409)
(0.125681 -0.000195219 0.000851482)
(0.0891624 0.000549712 -0.00154237)
(0.0968867 -0.000916687 0.00136529)
(0.157047 -1.36944e-05 -1.09141e-05)
(0.117131 -0.00130279 -0.000486549)
(0.066247 8.93854e-05 0.00178319)
(0.151926 0.00025325 0.000959033)
(0.033508 0.00115571 0.000477181)
(0.0887745 2.14578e-05 0.000826992)
(0.0976115 -0.000277602 0.000269188)
(0.0615702 0.000284909 0.00106828)
(0.156246 -0.000110745 0.000317989)
(0.105985 -0.0125788 0.0134389)
(0.127138 0.0075895 0.00510334)
(0.0330386 0.000589595 -0.00280713)
(0.0267025 -0.00172953 0.000892238)
(0.0564052 0.00208693 -0.00105039)
(0.0206283 -0.00134829 -0.00163645)
(0.126572 0.000503382 -0.000470063)
(0.149858 0.00122043 -0.000524583)
(0.129923 0.00158688 8.01211e-05)
(0.110319 0.00995994 -0.011437)
(0.133009 0.000224613 0.00035295)
(0.144191 0.000932301 -0.000286899)
(0.0253972 -0.00199677 0.00488274)
(0.15213 0.000989153 5.06094e-05)
(0.127446 -0.00396833 0.0125179)
(0.0444558 0.000803889 -0.00115256)
(0.0224102 -0.00371429 0.000780832)
(0.116363 0.000229661 0.000887434)
(0.111133 -0.00107747 -0.00076171)
(0.0260321 -0.00177909 0.00295261)
(0.158261 -0.000721087 -0.00049832)
(0.0234298 -0.00260188 0.00191313)