/*--------------------------------*- C++ -*----------------------------------*\
| =========                 |                                                 |
| \\      /  F ield         | OpenFOAM: The Open Source CFD Toolbox           |
|  \\    /   O peration     | Version:  2406                                  |
|   \\  /    A nd           | Website:  www.openfoam.com                      |
|    \\/     M anipulation  |                                                 |
\*---------------------------------------------------------------------------*/
FoamFile
{
    version     2.0;
    format      ascii;
    arch        "LSB;label=32;scalar=64";
    class       volVectorField;
    location    "36";
    object      U:Transformed;
}
// * * * * * * * * * * * * * * * * * * * * * * * * * * * * * * * * * * * * * //

dimensions      [0 1 -1 0 0 0 0];

internalField   nonuniform List<vector> 
59516
(
(0.000241791 -0.000485573 0.107009)
(0.000328293 -0.000193468 0.0995241)
(-0.000333172 0.00119416 0.114806)
(-0.00259749 -0.000103898 0.129638)
(-0.0045218 0.000275214 0.113847)
(-0.0104407 0.00556267 0.10109)
(-0.000638265 -0.00149211 0.129816)
(-0.000256651 -0.000797411 0.104514)
(-0.000911115 5.22799e-06 0.114175)
(0.00220462 0.00104973 0.056343)
(-0.00171486 -0.000468928 0.152281)
(-0.00260039 -0.0023297 0.0615642)
(-0.000924816 -0.00054058 0.121072)
(0.000115602 -0.000207245 0.0205159)
(8.0415e-05 -0.00357819 0.0626618)
(-0.00141401 0.00386702 0.0534795)
(3.72676e-05 -0.000312908 0.163947)
(-0.00551583 -0.00160328 0.070313)
(-0.00510192 -0.00139879 0.115156)
(1.22019e-05 0.000661158 0.160964)
(-0.00112835 0.000574093 0.054853)
(0.000416371 0.00024588 0.148309)
(-0.000196492 -0.000731547 0.153903)
(0.000947769 0.000535916 0.034759)
(0.000572604 0.00107114 0.158649)
(-0.000394189 0.00156487 0.0675626)
(-0.000545329 0.00285974 0.0432595)
(-0.00334378 -0.00155256 0.0447729)
(-0.00213733 -0.000989121 0.0666294)
(0.00229966 0.00183543 0.0182339)
(-0.0214823 0.00121402 0.108334)
(-0.00282152 0.0021769 0.0460208)
(-0.000760659 -0.000372194 0.133808)
(-0.00236427 -0.000917367 0.113555)
(-0.0050975 -0.000270515 0.138832)
(3.18357e-05 0.000170475 0.145837)
(-0.00267089 0.00136924 0.0176244)
(-0.00683023 -0.00220207 0.0701957)
(-0.00320644 0.000466437 0.096656)
(0.00146981 -5.96242e-05 0.155891)
(0.000138959 -0.000710276 0.103472)
(-0.0105362 2.56755e-05 0.143682)
(-0.00299189 0.000689373 0.148019)
(-0.000771444 0.000458492 0.109707)
(-0.00291753 0.000815312 0.143448)
(0.0015739 0.000416088 0.0568039)
(-0.00387346 2.77881e-05 0.133116)
(-0.00289467 0.000552636 0.160291)
(-0.0153147 0.00140132 0.111864)
(-0.00715029 -1.59346e-05 0.14945)
(-0.0179043 0.000525171 0.104046)
(-0.00395234 -0.00192607 0.0453022)
(0.000276821 -0.00235158 0.12175)
(-0.000364506 0.000249491 0.128812)
(-0.00271541 0.000640567 0.0484672)
(-0.00164918 0.000293217 0.130361)
(-0.0112948 -0.00010098 0.144044)
(-0.00461297 -0.00170347 0.0490042)
(-2.54413e-05 9.67213e-05 0.164535)
(-0.00925906 -0.000376431 0.134829)
(0.000113817 0.000464139 0.148128)
(-0.0015061 0.00206308 0.0197755)
(8.26309e-05 0.000482457 0.15896)
(-0.00133482 0.000392268 0.16046)
(-0.000624479 0.000297519 0.125257)
(-0.0045458 0.000228502 0.146107)
(0.000220554 0.00305134 0.0271209)
(-0.00013125 0.000268617 0.0421578)
(-0.0227814 0.00038829 0.121419)
(-0.00150442 -0.00107295 0.136487)
(-0.000674397 -0.000918527 0.0381066)
(-0.000720792 -0.000428889 0.158541)
(0.00368928 -0.00149802 0.0239463)
(6.75828e-05 -0.000152778 0.142443)
(-0.000324961 0.00014442 0.168938)
(-0.00136413 4.48362e-05 0.156436)
(-0.00200031 -8.50664e-05 0.160967)
(-0.000365247 0.000168866 0.147127)
(0.00192069 0.00107596 0.0472064)
(-0.00674863 0.00082436 0.149796)
(-0.00262411 7.27741e-05 0.039647)
(-0.00570793 0.000523281 0.145445)
(-0.00474285 0.000520451 0.139134)
(-0.00267358 0.00143618 0.0208456)
(-0.00561605 0.000840237 0.145456)
(7.12907e-05 0.000591314 0.165963)
(0.000658439 0.00118493 0.0336636)
(0.000802963 0.000240323 0.149666)
(-0.00229237 -0.00124021 0.0559163)
(-0.00964501 -0.00249243 0.107386)
(-0.0111589 -7.86831e-05 0.131455)
(-0.00135612 0.00121245 0.137705)
(1.64738e-05 0.000108754 0.164318)
(-0.000179882 0.00117802 0.13658)
(-0.000252112 0.000230192 0.154902)
(-0.0113181 -1.96039e-05 0.109964)
(-0.000862806 -0.000721642 0.139996)
(0.00202361 0.00412303 0.0547849)
(-0.00217472 -0.0010224 0.0652979)
(0.00130411 0.00106189 0.147046)
(-0.00125289 0.00099287 0.0387322)
(0.0028431 0.00139752 0.0254336)
(0.00304888 0.00161316 0.0240266)
(-0.00194978 0.00228002 0.0560511)
(0.000607351 -0.000138854 0.136195)
(-0.000381156 0.000262822 0.14451)
(0.00191875 -0.00337457 0.0412889)
(-0.000615012 -0.000406548 0.107684)
(-0.000462046 0.000537347 0.103402)
(-0.00150914 0.00238196 0.0677168)
(-0.0185081 -0.000251532 0.124886)
(0.00245348 -0.00216667 0.0319417)
(-0.00256315 0.00327382 0.0684773)
(-0.0193048 -5.38468e-05 0.118032)
(-4.67551e-05 -8.5301e-05 0.156483)
(0.00083533 -0.00116311 0.103229)
(-0.0019794 -0.00113679 0.0557583)
(-0.000612942 -0.000584205 0.134085)
(-0.000416989 -0.00104254 0.0227028)
(-0.00102043 0.00118923 0.145964)
(0.000478837 0.000188171 0.169422)
(7.48166e-05 0.00031289 0.160864)
(0.000462893 0.000504235 0.156184)
(-0.000475088 0.000367952 0.159486)
(-0.0175727 0.00125757 0.132217)
(-0.00279266 6.08459e-05 0.0908505)
(-0.00192621 -0.000830326 0.0308448)
(-0.0127881 0.0021615 0.13812)
(-0.0130502 0.00306971 0.0898415)
(0.000548361 -0.00012423 0.167081)
(0.000577156 -0.000594054 0.167846)
(0.0014992 0.00194215 0.115283)
(-0.000587885 -0.00210219 0.024178)
(0.000316439 0.000571158 0.148033)
(0.00103264 0.000357608 0.104492)
(-0.00159916 0.00118807 0.11866)
(-0.0154073 0.00140418 0.107583)
(0.000314738 0.0005374 0.131945)
(-0.000370351 0.00272941 0.0409025)
(-0.00102684 0.000919799 0.10129)
(-0.00101464 0.00222951 0.0453033)
(-0.000251009 -0.000229531 0.169256)
(-0.000943683 -0.00164987 0.0192782)
(-0.000396154 0.00124284 0.127559)
(-0.000273501 0.000336832 0.165092)
(-0.00120181 0.000758385 0.1414)
(-0.00360287 0.00124712 0.140943)
(-0.00202668 0.0012068 0.120054)
(0.00095136 -0.00176586 0.0621337)
(-0.000174504 0.00114603 0.109324)
(4.50703e-05 -0.000821287 0.106434)
(0.00015711 0.00132906 0.0363296)
(0.000965511 0.000938965 0.161573)
(0.000798474 0.000223885 0.152516)
(-0.000471209 -0.0019481 0.092254)
(-0.00186351 0.00108819 0.0194506)
(0.000115319 -0.000176128 0.116017)
(-0.00093315 0.000667299 0.116566)
(-0.00102906 0.000582863 0.0853305)
(-0.00291996 -0.00207008 0.0200144)
(0.00280334 0.00238684 0.0664575)
(0.00377473 -0.00205007 0.068443)
(-0.000661442 0.00140979 0.0359737)
(-0.000251962 -0.000510701 0.0261166)
(0.00290017 0.000136319 0.102462)
(-0.000970692 0.000582037 0.165013)
(0.000761598 -5.60977e-05 0.0627464)
(-0.0005266 -0.000121016 0.166125)
(0.00123497 0.00236448 0.0203723)
(-0.000312166 -0.000424087 0.135315)
(-0.00136409 -0.0011321 0.0863917)
(-0.000869501 0.000683935 0.0532951)
(1.49172e-05 -0.00186975 0.0655354)
(0.000548991 -0.000777226 0.137452)
(0.000531644 0.000726074 0.051234)
(-0.00410295 -0.000647265 0.135404)
(-0.00105686 0.000168097 0.161868)
(-0.00468072 0.000551371 0.149154)
(0.000530732 -0.00335763 0.068572)
(0.000469498 0.000296243 0.0418679)
(-0.000860525 -0.00178858 0.145253)
(0.000947518 0.00307935 0.0341954)
(-0.00108308 -0.00211566 0.0295842)
(0.000567976 0.0016548 0.0657174)
(0.000367413 -0.00049906 0.166158)
(-0.000382279 0.000657602 0.0599522)
(-0.00278544 0.000627401 0.0360393)
(0.000128231 0.000298597 0.0236029)
(-0.000128253 -4.80036e-05 0.123719)
(0.00147881 0.000849209 0.102579)
(-0.00284182 -0.000400697 0.13495)
(-0.000829092 -0.00304085 0.0529068)
(-0.000400011 -0.000345273 0.158939)
(0.00177068 -0.0015678 0.0581392)
(-0.000266229 0.000223077 0.153265)
(0.000453255 0.000748247 0.0299622)
(0.000777725 6.78083e-05 0.0580934)
(0.000315509 -0.00106799 0.0415395)
(-0.00462035 -0.000269685 0.112055)
(0.000460009 -0.000353586 0.151879)
(-0.00170343 -0.00217452 0.0824717)
(-0.000418028 -0.000377767 0.16845)
(0.000274843 0.00107563 0.105046)
(0.00173082 -0.00195676 0.0199067)
(0.00116765 0.00103107 0.129988)
(-3.70827e-05 -0.00013315 0.144631)
(4.3215e-05 1.68699e-05 0.168016)
(0.000379999 -0.000654197 0.149305)
(0.000199824 -0.000672691 0.0233639)
(0.00165805 0.000878855 0.115999)
(-0.000395976 0.00470412 0.0514333)
(-0.00386822 0.000817823 0.024047)
(-0.00109187 0.000947156 0.144003)
(-0.000250949 0.00133078 0.0568081)
(-0.000699735 -0.0010329 0.118163)
(-0.000353453 -0.000284499 0.16369)
(-0.00082717 0.000398004 0.139835)
(-0.000877953 0.000859337 0.155335)
(-0.00182833 0.0031104 0.0552601)
(0.000766291 0.000195896 0.154622)
(-0.00116232 -0.0026244 0.0565)
(-0.000191035 0.000465467 0.106287)
(-0.000847351 -0.000966619 0.158092)
(0.000450173 -0.000646143 0.0407356)
(-0.000873462 -0.000448533 0.160642)
(0.00061174 0.000491435 0.162403)
(-0.00103562 -0.00106562 0.0285924)
(-0.0026675 0.000587733 0.0477598)
(-0.000223673 0.000853391 0.16201)
(-0.00202152 0.00346338 0.0553926)
(0.00045601 0.000655582 0.164499)
(-0.000558355 0.000322684 0.163266)
(-0.000849754 -0.000765148 0.16635)
(-0.00129002 -0.00213943 0.0255149)
(-0.00140386 -0.00123865 0.0334105)
(-0.00150982 2.64289e-05 0.0349328)
(0.000355179 -0.000454205 0.0645278)
(-0.00153172 -0.00040455 0.0990734)
(-0.0015072 0.000226798 0.1527)
(0.00185625 -0.000264115 0.0583092)
(0.000711713 0.000211133 0.167935)
(0.00258122 0.00178884 0.020993)
(0.000652644 0.000524293 0.0551933)
(0.00241264 0.00140978 0.025502)
(0.000717672 0.000251233 0.166806)
(-0.000264906 -0.000602758 0.0950611)
(-0.000768341 0.000125972 0.144453)
(-0.000424062 0.00147329 0.0665097)
(0.000208643 0.000192426 0.162892)
(-0.000407472 -0.000241679 0.106737)
(0.00141238 -0.000361747 0.160665)
(-0.000685903 0.000232575 0.140446)
(0.000696032 0.000377816 0.167921)
(6.23249e-05 0.000487951 0.143856)
(-0.000521721 0.00131865 0.145839)
(-0.000234576 0.000582875 0.154404)
(-0.000266146 -3.6639e-05 0.0565174)
(-0.0015497 0.000225512 0.151083)
(0.00122156 0.00207827 0.0428921)
(-0.00030699 0.00217285 0.0611754)
(-0.00107406 0.000469849 0.131741)
(-0.000498666 0.000936376 0.157107)
(0.00285245 0.000812215 0.117064)
(0.000106939 0.000799635 0.16542)
(0.00217459 0.000278477 0.101216)
(8.07578e-05 -0.00280907 0.0590758)
(-0.000248131 -0.00081644 0.155854)
(0.00179726 0.000234797 0.095072)
(-0.000571455 -0.000867015 0.0474787)
(-0.000293689 0.00141368 0.0527966)
(-0.00179804 0.00211211 0.0986559)
(-0.000677838 -0.000453618 0.162421)
(-0.00134167 0.00177631 0.10086)
(-0.000507044 0.00138002 0.0953896)
(-0.00125615 0.000236354 0.159189)
(9.78157e-05 0.00269503 0.0951271)
(-0.00130056 -0.00273329 0.021879)
(0.000584224 0.000947917 0.15789)
(0.00222332 -0.00169088 0.0263309)
(0.00178743 0.000942479 0.0415089)
(-0.000870921 -0.000634612 0.165641)
(-0.000259873 0.000448141 0.14005)
(-0.00350753 0.00180005 0.0258046)
(-0.000320093 -0.000932139 0.122964)
(-0.00113182 -0.00197217 0.126937)
(-1.90145e-05 0.000665054 0.161554)
(0.000429763 -0.000382544 0.166339)
(0.0021524 -0.00212789 0.0250104)
(-0.000572974 0.000497375 0.165393)
(-0.000692893 -0.00103571 0.166572)
(-0.000401643 -0.000955789 0.162593)
(-0.000860586 -0.00028238 0.135737)
(-0.00143518 0.000944688 0.136699)
(-0.000476052 -0.000303423 0.097809)
(0.000113349 -0.00117899 0.164928)
(-1.0971e-05 0.00169673 0.029019)
(0.000660851 -0.00128333 0.154552)
(0.000941743 0.000724908 0.140343)
(-0.000609171 -0.000905037 0.167269)
(-0.00026945 -0.000876938 0.15939)
(0.000712165 -0.00055407 0.118573)
(0.00104653 -0.0011211 0.0611866)
(-0.000750042 -0.00152111 0.023737)
(0.000767254 0.000459496 0.0294641)
(-0.0012122 0.000770615 0.160996)
(-0.00311926 0.00126105 0.0213653)
(-0.000798572 -0.000823719 0.0651239)
(-0.00100741 0.00300319 0.0533821)
(0.000448732 -0.00075585 0.161063)
(-0.000312242 -0.000388313 0.166181)
(6.19911e-05 0.000455312 0.153238)
(0.0012048 0.00057398 0.0603769)
(0.00248119 -2.95439e-06 0.105303)
(7.27486e-05 0.00437583 0.0414067)
(0.00062018 -0.00170402 0.0556954)
(-8.09562e-06 9.9023e-06 0.152575)
(0.000598713 -0.00142034 0.100777)
(-0.0128016 -0.00155682 0.107738)
(0.000198198 -0.0020974 0.0920189)
(-0.000534507 -3.17666e-05 0.0445275)
(0.00216734 -9.40849e-05 0.0659863)
(-0.000474171 -0.00171372 0.11008)
(-4.83085e-05 -1.28139e-05 0.165759)
(-6.87661e-05 -0.000474876 0.168729)
(-0.000924915 0.000524882 0.168289)
(6.55151e-05 0.00140317 0.158459)
(-0.00554026 -0.000813172 0.0974316)
(-0.00122812 0.000202882 0.128117)
(-0.00123069 0.0012421 0.158724)
(0.000397462 0.000161822 0.156859)
(0.00104313 -0.000136857 0.159014)
(-0.0025564 -0.00232406 0.0582392)
(0.00290698 -0.00114108 0.0231175)
(0.000866842 -8.21315e-05 0.148851)
(0.00118157 0.00266684 0.0410943)
(2.76581e-05 -0.000216801 0.0330403)
(-0.00157194 -8.66426e-05 0.156158)
(0.000565844 0.000480715 0.145814)
(-0.00173646 0.00259801 0.0605204)
(-0.00068489 -0.00100881 0.163374)
(0.000359481 0.00150696 0.161434)
(-0.0010148 0.000111341 0.167806)
(-0.000679503 -0.000179094 0.164781)
(-9.72181e-05 -0.00150249 0.0337962)
(0.000170411 -0.000287246 0.157147)
(-0.00147425 0.000291529 0.164618)
(0.000146647 0.000773583 0.0595232)
(-0.000112987 -0.00136686 0.166396)
(-0.000376898 0.000357686 0.163929)
(0.000687283 0.000623367 0.132758)
(0.000535897 0.000601882 0.124282)
(-0.000355837 -0.00133032 0.149176)
(0.000852162 0.00116176 0.14338)
(-0.000440873 0.000156994 0.071877)
(-0.000616147 0.00155867 0.0327661)
(0.00031914 0.00262692 0.0361818)
(0.00050958 0.000159258 0.0975737)
(-0.0125224 -3.28381e-05 0.0862977)
(-0.0073358 0.000775114 0.0746359)
(0.000237746 -0.000324058 0.0859314)
(0.00145722 -0.0012879 0.117075)
(-0.000321671 0.000446432 0.132632)
(-0.00342068 0.000680472 0.156225)
(0.000695494 0.000277819 0.155508)
(-0.000424243 -0.000459726 0.133413)
(-0.000316403 -0.000517286 0.14757)
(-0.00116436 -0.000108513 0.147497)
(-0.000453153 0.000915878 0.0325962)
(-0.0225765 0.000838555 0.113881)
(0.000434575 0.00163949 0.0600667)
(-0.00108089 0.00169209 0.0428359)
(0.000853583 0.00034425 0.0430686)
(2.03612e-05 0.000264159 0.157422)
(-0.000306334 0.000258592 0.0963695)
(-0.000956746 0.000217887 0.157399)
(-0.0013918 0.00160698 0.0206957)
(0.000350221 -0.000210725 0.12814)
(0.00122954 -0.000694442 0.046141)
(-0.000287124 0.000547636 0.159617)
(-0.000494834 0.000644534 0.0495541)
(0.00178861 0.000710077 0.0636889)
(0.000784956 0.00260536 0.109165)
(-0.00146045 0.000158293 0.150413)
(0.00277737 -0.000164254 0.0205151)
(-3.97277e-05 0.0025818 0.056076)
(-0.000153757 -0.000577769 0.134049)
(1.97602e-05 -0.00238851 0.0242446)
(-0.00862089 -0.000187136 0.130674)
(0.000383245 -0.00250538 0.118134)
(9.20675e-05 -0.00191868 0.13313)
(0.00233205 -0.00246843 0.0970063)
(0.00215837 0.00068445 0.0909307)
(0.00102707 -0.000542167 0.158456)
(-0.0101011 -0.00323091 0.0772556)
(-0.00104782 -0.000307662 0.168582)
(-0.0123137 0.00073534 0.11134)
(-0.00211528 0.00155059 0.0613838)
(-0.000446486 0.00147715 0.0644787)
(-0.000342753 -0.0008795 0.167899)
(0.000618838 -0.00112842 0.168776)
(0.000602868 -0.000490315 0.0542545)
(-0.000278325 -0.000803825 0.135513)
(-0.0022213 0.000808613 0.100632)
(0.000514545 -0.000614229 0.167049)
(0.000487007 -0.000996609 0.166578)
(-0.00107041 -0.00354268 0.0473671)
(-0.000518509 0.000744643 0.133827)
(0.00208045 -0.000147462 0.145054)
(-0.000397471 -0.000386755 0.147631)
(0.000298378 -0.00056805 0.154682)
(0.00262263 -0.00135118 0.0224491)
(-0.0028639 -0.000773746 0.0217698)
(-0.00129987 0.00130453 0.127852)
(0.000138784 -7.60865e-05 0.165494)
(0.00122251 0.00107285 0.167723)
(-0.00228486 0.00119902 0.03596)
(0.000917907 -0.00100806 0.160864)
(-0.00111054 0.000188786 0.109537)
(-0.000734835 -0.000550595 0.162839)
(0.000939246 0.000782194 0.166674)
(0.000779223 0.000482761 0.168243)
(-0.000230364 -0.0011523 0.164706)
(-0.000247891 -0.00172101 0.164584)
(0.000267476 -0.000555337 0.0916424)
(-0.00127212 0.000396568 0.166485)
(-0.00197988 0.002412 0.0578984)
(-0.000283679 0.000123723 0.160481)
(-0.000959046 -0.000713742 0.111833)
(-0.00112683 0.00015919 0.150482)
(-0.00031624 -0.000226827 0.164704)
(-0.000137227 0.00025957 0.148818)
(0.00105889 -0.000189804 0.143806)
(0.00182241 0.00265586 0.0417837)
(0.000903183 9.79514e-05 0.0351543)
(-0.00206309 -0.00208414 0.0221222)
(-0.00753565 8.50635e-05 0.151207)
(7.91632e-06 6.30968e-05 0.17252)
(-0.00100872 9.39863e-05 0.138667)
(1.07259e-05 -0.00134012 0.128259)
(0.00114126 0.000168586 0.0320226)
(0.000759912 -0.00272452 0.0245506)
(-0.00079156 -0.00162248 0.116625)
(-0.00117408 0.000814269 0.149349)
(-0.000432667 -0.000683017 0.165039)
(0.000489017 -0.000429442 0.152995)
(-0.00136081 -0.000259484 0.136696)
(-0.000490854 0.00067738 0.170295)
(0.00109504 -0.00021628 0.135401)
(-0.00118582 0.0023768 0.0273801)
(-0.000100468 0.000621144 0.124499)
(0.0026641 -0.00153506 0.0594393)
(-0.00714401 -0.000786831 0.0704952)
(6.35045e-06 0.000220811 0.15081)
(0.000279425 8.29406e-06 0.0962869)
(6.14316e-05 -8.77476e-05 0.14545)
(-0.00363367 0.00222981 0.0214487)
(0.00123126 -0.000711778 0.168397)
(-0.000199475 -0.000126399 0.167687)
(-0.00118975 0.000416777 0.165624)
(0.00072463 -0.000632483 0.0943023)
(-4.8373e-05 -0.00112816 0.150592)
(-0.000753814 -0.000799075 0.163199)
(-4.41886e-05 0.000391162 0.122633)
(-0.00109994 0.000494237 0.166762)
(-0.00456627 -0.000662733 0.0990233)
(-0.000377992 -0.00041482 0.163433)
(-0.00229221 0.000717664 0.147974)
(0.00157036 -0.00127424 0.0212888)
(0.000159754 0.000747849 0.166952)
(0.00129551 0.0014755 0.118044)
(-0.00298444 -0.00276045 0.0475049)
(-0.000833709 0.00142042 0.0933514)
(0.000447093 0.000293837 0.160751)
(-1.11992e-05 -0.00075525 0.130505)
(0.000973377 0.00227189 0.0869834)
(-0.00238197 0.00160331 0.0211366)
(-0.000235153 0.000874759 0.165599)
(0.000382227 0.00239841 0.126075)
(-0.000422578 0.000123201 0.157275)
(-0.000745833 -3.33033e-05 0.125681)
(-0.00237912 0.000611174 0.0379155)
(0.000527688 -2.26829e-05 0.140633)
(-0.00392612 0.000263988 0.0262471)
(-3.12545e-05 0.000565838 0.157642)
(-0.011957 0.000601398 0.102279)
(0.000602015 0.00047016 0.161035)
(-0.000310187 0.00179327 0.0531328)
(-0.00131442 0.00157695 0.108698)
(-0.00039882 0.00137545 0.0973759)
(0.0020257 -0.00190772 0.0357581)
(0.000474022 0.000402479 0.166459)
(-0.000898007 1.02997e-05 0.160997)
(-0.002191 -0.00083564 0.0227016)
(0.000469698 -0.000984663 0.155991)
(-0.000657469 -0.000749341 0.166795)
(-0.000581293 0.00208004 0.0381102)
(0.00146485 0.00235385 0.0628725)
(-0.00146708 0.00193537 0.0549185)
(-0.000527913 0.000930443 0.151124)
(2.23856e-05 -0.000292344 0.165361)
(-0.00119076 0.00123613 0.0327661)
(0.00180413 -0.000722495 0.0553165)
(-0.00022166 0.00112863 0.0579273)
(0.00120039 0.000814357 0.116645)
(-4.97114e-05 -0.000387773 0.166027)
(-0.00283611 -0.00187684 0.0237948)
(0.00114106 0.000571779 0.156697)
(-0.00174226 -0.000902243 0.150609)
(-0.000386861 -0.00107945 0.166092)
(-0.00234751 -0.00482848 0.0900993)
(0.00110451 0.000415922 0.16316)
(0.00124404 -0.00225848 0.0234207)
(-0.000594343 -2.70104e-05 0.159788)
(0.00018694 -0.000436286 0.0279193)
(0.000159425 -0.00188128 0.0602359)
(4.05865e-05 0.000944828 0.15271)
(-0.00109668 0.00156313 0.0617259)
(-0.0028618 0.0016871 0.0211955)
(0.000332908 -0.00136586 0.0377793)
(0.000322708 0.0028218 0.0464319)
(0.000818554 -0.00186273 0.0598779)
(-0.000780556 0.000143668 0.146348)
(-9.8647e-05 0.00116755 0.0511583)
(0.00111347 -0.00198334 0.0603499)
(-0.015207 0.000579985 0.128128)
(-0.000880745 -0.000335394 0.160639)
(0.00161349 -1.44544e-05 0.0245669)
(0.000372917 0.000940843 0.108319)
(-0.00840639 -0.00430037 0.08136)
(0.00146474 4.53678e-05 0.16294)
(-0.00103614 0.00088739 0.0594606)
(-0.0012644 -0.000107898 0.158068)
(0.00146722 0.00249696 0.0584042)
(-0.000771481 0.000396834 0.124041)
(-0.000768666 -0.000284744 0.165724)
(0.00289602 -0.00440733 0.0521606)
(-9.96509e-05 8.41819e-05 0.166495)
(-0.00310703 -0.000885781 0.0477343)
(0.00272418 -0.001721 0.0197362)
(-0.000620698 0.000400725 0.144732)
(0.000175929 -0.000608377 0.165728)
(-0.000858869 0.000438573 0.130612)
(0.000850983 -0.00161169 0.126324)
(0.00153545 -0.000220164 0.166499)
(0.00162743 -0.000144269 0.0617685)
(0.00150926 -0.000262453 0.161076)
(0.00133995 0.00278523 0.0580413)
(-0.00050342 -0.000496483 0.164888)
(0.00183415 0.000735332 0.127404)
(-0.00342105 -0.00225659 0.0287017)
(-0.000615476 0.000434956 0.152175)
(0.00108896 -0.00137006 0.0532801)
(0.0013826 0.00234414 0.0267193)
(-0.000623948 0.000197516 0.148847)
(-0.00161767 9.40973e-05 0.0439941)
(-0.000102725 0.000543938 0.137727)
(0.000343071 0.000761804 0.164531)
(-0.000297172 0.000901132 0.131232)
(0.000176161 0.00359036 0.0546618)
(0.00161832 -0.000251078 0.168544)
(0.00163187 0.000455286 0.0916556)
(-0.000169014 0.000538229 0.172005)
(4.63392e-06 0.000164342 0.168856)
(0.000900665 0.000766322 0.168674)
(0.000158071 -0.000489371 0.165532)
(0.00296135 -0.00120698 0.0449165)
(0.000488823 0.000378215 0.0523186)
(-0.000276419 8.02084e-05 0.166809)
(-0.000364891 -0.00159274 0.158154)
(0.000466473 0.00247125 0.0325015)
(0.000129225 -0.000230167 0.156649)
(5.37769e-05 0.000339967 0.170051)
(0.000851992 0.00105673 0.166781)
(0.00102034 0.00116923 0.168452)
(-0.00113798 0.000803941 0.117808)
(-0.00170894 0.00235603 0.0218722)
(0.000633047 0.000122287 0.168478)
(0.000970831 -0.0014328 0.101433)
(-0.000450708 4.6584e-05 0.148147)
(-9.01429e-05 0.000123392 0.0971408)
(-0.00185385 -0.00111463 0.0298818)
(-0.00081501 0.000195821 0.165687)
(-0.00183423 0.00245836 0.0928288)
(0.000451886 -0.000174449 0.133955)
(0.000945515 0.00116922 0.168653)
(-0.000978899 0.00122528 0.14084)
(0.00162811 0.00205506 0.0176525)
(-0.00237342 0.00107471 0.0225603)
(-0.000196369 -0.00087845 0.16341)
(0.000376416 -0.000613537 0.159417)
(-0.000383967 0.00151326 0.168541)
(-0.000969299 -0.000386819 0.148624)
(-0.000311604 0.00145008 0.0932221)
(-0.000344733 0.00116349 0.148174)
(3.91948e-05 0.000349729 0.16516)
(0.000736877 0.00166366 0.0206069)
(-0.000330706 -0.000912905 0.164178)
(-0.0144194 0.00102644 0.134855)
(-0.000115283 0.00207128 0.0380649)
(-0.000389858 0.00363332 0.055207)
(-0.000109681 0.00105686 0.144234)
(0.00183741 -0.000497455 0.141104)
(0.000255056 -0.000644521 0.138037)
(0.000800695 -0.000443964 0.125471)
(-0.00310476 0.00214055 0.1065)
(-0.000288639 -0.000257909 0.168217)
(0.000839583 -0.00284552 0.0992629)
(0.00124057 -0.000517578 0.167088)
(0.000232225 0.000297961 0.162697)
(0.00125404 -0.000536179 0.170929)
(0.00100278 -0.000897504 0.163527)
(0.00157749 0.00128205 0.0407008)
(0.00111362 -0.000109953 0.159043)
(-0.000392683 -0.00160717 0.0329627)
(-0.0105684 -0.00143671 0.0944287)
(0.0019458 -0.00133326 0.060819)
(-0.0130199 -7.80293e-05 0.127191)
(0.000865815 0.000452395 0.131481)
(-0.0193986 0.000498445 0.117449)
(0.000208436 0.000359316 0.161388)
(-0.000143776 -1.74143e-05 0.167801)
(-0.000403235 0.000244594 0.151591)
(0.000811885 0.000802414 0.16191)
(-0.000602135 -0.000132069 0.0341896)
(-0.00459124 0.000145868 0.100942)
(-0.0161195 0.0011314 0.112472)
(-0.000319541 -6.95755e-05 0.16444)
(-0.000687545 0.00242165 0.114013)
(-0.0135888 0.000983275 0.136726)
(-0.00458491 0.000646115 0.154727)
(0.000653778 0.000907046 0.112614)
(-0.00133382 -0.000592055 0.0355253)
(0.00155899 0.00262892 0.054395)
(-0.000263428 -0.000134704 0.0246281)
(0.00135005 0.00121269 0.0235063)
(-0.000213763 -2.76269e-05 0.0347236)
(-0.00987283 0.000563035 0.133761)
(-0.000746661 -0.00020062 0.138405)
(-0.00230336 -0.00251472 0.0238451)
(-0.0029036 0.000778758 0.0225512)
(0.000322741 0.000447092 0.167942)
(-0.0148624 0.00326246 0.0961467)
(-0.00175257 9.30675e-05 0.0373188)
(-0.000293708 -0.000187139 0.146893)
(-0.00170169 0.000816758 0.107433)
(0.00117154 -0.000263159 0.135062)
(0.00140035 0.00206523 0.0419258)
(-0.00105164 -0.00137166 0.0542641)
(0.000278636 0.00112665 0.112861)
(0.000383792 0.000383854 0.1617)
(8.10942e-05 0.000820098 0.150131)
(-0.00183249 0.00259433 0.0359659)
(-0.000665993 -0.00210139 0.0239745)
(-0.018903 0.000210265 0.106234)
(-0.00277236 0.00188746 0.0256148)
(-0.00010288 0.00145483 0.134974)
(-0.00362592 -0.00112387 0.0273016)
(0.000604732 0.00219807 0.105984)
(-0.000508132 -0.000317611 0.164591)
(0.00113723 0.000518669 0.168875)
(-0.000514253 -0.00103331 0.0437752)
(0.000853715 -0.000663657 0.0995688)
(-0.00186019 -0.000302904 0.0350415)
(-0.00350903 -0.000190028 0.027864)
(0.000321048 -0.000735095 0.164878)
(-0.00268123 0.00128838 0.0191065)
(0.00134026 -5.87038e-05 0.158264)
(-0.000522583 -0.00236195 0.0477957)
(-0.000202708 0.000932128 0.152605)
(-0.000193866 0.000412775 0.141395)
(0.0032582 0.00131866 0.0217905)
(-0.000961423 -0.00256596 0.0566912)
(-2.0317e-06 0.000492158 0.147191)
(-0.000151598 0.0016541 0.0339447)
(0.000511469 -0.000678879 0.154092)
(-0.00128054 0.00374367 0.0538072)
(0.000278384 3.78609e-05 0.109945)
(0.000672488 0.000730216 0.166954)
(0.00136921 5.24998e-05 0.0361021)
(-0.00318032 -0.000638883 0.0233898)
(-0.00091194 -0.000350629 0.0502695)
(-0.0178094 8.13851e-05 0.110777)
(-0.000521903 8.2628e-05 0.106294)
(0.000237018 0.00362662 0.0558685)
(0.00137698 -0.000157876 0.0862895)
(0.000479524 0.00130642 0.0304387)
(0.000879199 0.000652239 0.167229)
(0.000981327 0.00130026 0.0231148)
(-0.000448299 0.00117784 0.163658)
(0.000421178 0.000416493 0.145206)
(0.000258133 0.000177658 0.160781)
(-0.00196344 -0.000243727 0.0192763)
(0.00088018 0.000294091 0.14963)
(-0.000313981 0.000425119 0.0835009)
(0.000241764 0.000465245 0.15439)
(0.000122643 0.000470432 0.0541845)
(-0.0146619 0.000398335 0.108142)
(-0.00129832 0.000995311 0.157432)
(0.000700099 -3.00924e-05 0.0397482)
(6.75138e-05 0.000802841 0.169125)
(-0.0204578 0.00238558 0.108858)
(-0.000605244 -0.000361184 0.118868)
(-0.000782507 -0.00182365 0.0325476)
(-0.00116984 0.00233341 0.0505391)
(-9.18326e-05 5.10373e-05 0.166153)
(0.000524984 -0.00125402 0.133177)
(-0.00105747 0.00134695 0.0319839)
(-0.000199301 -0.00187318 0.111164)
(0.00171067 0.00106284 0.0602452)
(-0.00171444 0.00193188 0.0244196)
(-0.000323085 -7.49369e-05 0.165612)
(-0.0101588 0.000477447 0.103334)
(-0.00100266 -0.00229568 0.132275)
(-5.6303e-06 0.000222777 0.163109)
(0.00048764 0.000189014 0.164507)
(0.000491865 -0.000330006 0.160472)
(0.000743633 0.000284088 0.133833)
(0.00117771 0.000398545 0.04326)
(-0.000446303 0.00276771 0.0397049)
(0.00125707 0.000239902 0.168345)
(-0.0128617 -0.00054397 0.107568)
(0.000221967 0.0012908 0.12333)
(0.00126704 -0.000774194 0.130069)
(0.00185064 -0.000844377 0.0822565)
(-0.000274522 0.000762477 0.14698)
(-0.000120325 0.000825114 0.157709)
(-0.00118474 -0.000856937 0.100735)
(-0.0014562 0.001398 0.105759)
(-0.00114695 0.00205454 0.0373035)
(-0.000745493 -0.000367911 0.0721478)
(-0.00281955 -0.00209301 0.0433544)
(0.000427113 -0.000934988 0.149349)
(6.63854e-05 -0.000213018 0.164806)
(-0.000325755 0.00274721 0.0955721)
(8.91767e-05 -0.000913755 0.0995683)
(0.00124838 -0.00186362 0.0208415)
(8.97872e-05 -0.000736114 0.0803215)
(-0.00295418 -0.00134488 0.0582073)
(-0.000859526 0.000664398 0.164692)
(0.00124795 0.000412063 0.165339)
(-0.0113356 -0.000731802 0.104814)
(-0.00133571 0.000281098 0.156079)
(-0.00136393 0.00276641 0.082869)
(-0.00834423 0.000378999 0.101704)
(0.000116235 -0.00233786 0.134057)
(0.00188189 0.000849805 0.0263366)
(0.000901418 0.000233691 0.165325)
(-0.000232913 0.00144676 0.0498715)
(-0.00116912 -0.000438331 0.138931)
(0.0036336 -0.00178203 0.0284202)
(0.00113692 8.21039e-05 0.164818)
(-0.0051089 -0.000288953 0.101646)
(-0.000131396 -0.000430347 0.154073)
(0.000270388 -0.000502839 0.117399)
(-6.90415e-05 0.000269853 0.145228)
(1.62268e-05 0.000722467 0.148585)
(-0.000562568 0.000522438 0.168001)
(0.000184958 0.00200585 0.0344817)
(-9.48938e-05 -0.00124012 0.0476219)
(-0.000358882 0.000731182 0.0288827)
(-2.39227e-06 0.000664393 0.16377)
(0.000937017 -0.00029402 0.15266)
(0.00176091 0.000429534 0.136673)
(0.000820667 -0.000624479 0.156663)
(0.000247552 -0.000624101 0.0209876)
(-4.26992e-05 0.000236201 0.0994202)
(0.00137425 -0.00139446 0.0905181)
(-9.43757e-05 8.76241e-05 0.164071)
(-0.000998832 -0.000211819 0.127847)
(-7.45096e-05 -0.000420953 0.144099)
(-0.00132687 0.000572517 0.107023)
(1.07752e-05 0.000275924 0.165604)
(-0.00283165 0.00204528 0.0206496)
(0.000387643 0.00345718 0.0865044)
(-0.00024698 0.000291791 0.14934)
(-0.000155931 0.00301819 0.0261641)
(0.000298376 0.00215547 0.0443422)
(-0.00110019 -0.000597954 0.0621737)
(-0.00246054 -0.00107523 0.0217705)
(0.00137133 -9.33082e-06 0.0962354)
(-0.000814129 -7.50161e-06 0.161289)
(-0.000429318 0.00234965 0.0601013)
(0.00235206 0.00196091 0.0192706)
(-0.000319032 -0.000867171 0.106402)
(0.000443773 5.28986e-05 0.0256168)
(-6.04064e-06 0.0014615 0.10014)
(0.000112417 0.000178352 0.162829)
(0.000319672 0.00027845 0.167981)
(0.000242296 0.000298904 0.162705)
(0.000986695 0.000684339 0.158784)
(0.000137987 0.000143556 0.163195)
(-0.000350165 0.00172148 0.130927)
(0.0011074 -0.00106573 0.046864)
(0.000971319 1.57834e-05 0.163607)
(-1.88074e-05 -0.000873371 0.125681)
(-0.000755274 -0.00145281 0.0891624)
(-0.00156367 -0.000509195 0.0968867)
(8.15988e-06 -1.54942e-05 0.157047)
(-0.00112488 0.000817708 0.117131)
(0.00101886 0.00146618 0.066247)
(-0.000546476 -0.000827795 0.151926)
(0.000341531 -0.0012028 0.033508)
(0.000682245 0.000467886 0.0887745)
(0.000275349 -0.000271492 0.0976115)
(-0.000886807 0.000660283 0.0615702)
(0.000206306 0.00026612 0.156246)
(-0.0184011 -0.000479907 0.105985)
(-0.00914347 0.000203911 0.127138)
(-0.000568438 0.00281149 0.0330386)
(0.00192111 -0.000310918 0.0267025)
(-0.000201633 0.00232765 0.0564052)
(0.00206223 -0.000493021 0.0206283)
(-0.000552952 0.000410605 0.126572)
(-3.05324e-05 0.00132805 0.149858)
(-0.000839943 0.00134875 0.129923)
(-0.0151188 0.00119492 0.110319)
(-0.000405883 0.000101406 0.133009)
(2.28438e-05 0.00097518 0.144191)
(0.00436593 0.0029609 0.0253972)
(-0.000502582 0.000853461 0.15213)
(-0.0131289 -0.000278859 0.127446)
(-0.00135984 -0.00035422 0.0444558)
(0.00284706 0.00250996 0.0224102)
(-0.000359346 -0.000843299 0.116363)