/*--------------------------------*- C++ -*----------------------------------*\
| =========                 |                                                 |
| \\      /  F ield         | OpenFOAM: The Open Source CFD Toolbox           |
|  \\    /   O peration     | Version:  2406                                  |
|   \\  /    A nd           | Website:  www.openfoam.com                      |
|    \\/     M anipulation  |                                                 |
\*---------------------------------------------------------------------------*/
FoamFile
{
    version     2.0;
    format      ascii;
    arch        "LSB;label=32;scalar=64";
    class       volScalarField;
    location    "67";
    object      epsilon;
}
// * * * * * * * * * * * * * * * * * * * * * * * * * * * * * * * * * * * * * //

dimensions      [0 2 -3 0 0 0 0];

internalField   nonuniform List<scalar> 
59516
(
0.0100317
0.0084601
0.00640837
0.00509067
0.00921558
0.345174
0.00614408
0.00813801
0.00712033
0.0189592
0.00697233
0.0231011
0.00675739
0.0685692
0.016459
0.0196531
0.00398706
0.0380436
0.0128883
0.00310001
0.0312821
0.0036102
0.00428712
0.0275401
0.00288473
0.0147112
0.027181
0.0418934
0.0216533
0.0480362
0.0457913
0.037391
0.00457405
0.00681395
0.00828981
0.0038023
0.0464087
0.0437592
0.015281
0.00284257
0.00861392
0.00943318
0.00680617
0.00891177
0.00619105
0.0202447
0.00855013
0.00570577
0.0126247
0.00753755
0.0271111
0.0220451
0.00619196
0.0057325
0.0247593
0.00855956
0.00939105
0.0229509
0.00206935
0.0106058
0.00338259
0.0358128
0.00234041
0.00412451
0.00567817
0.00619596
0.0453668
0.0226049
0.020025
0.00705296
0.021982
0.00339619
0.0364902
0.00497694
0.00180411
0.00522576
0.00524121
0.00351623
0.0202113
0.00730555
0.0256076
0.00729925
0.00794848
0.0406018
0.00761248
0.00266531
0.0283512
0.00402003
0.0184739
0.0253686
0.00986677
0.00418141
0.0021896
0.00444132
0.00271499
0.0106311
0.0041322
0.0202823
0.0289631
0.00356816
0.0230408
0.0351117
0.0348385
0.0178238
0.00468871
0.00350137
0.0248655
0.0078976
0.00855756
0.0144319
0.0198573
0.0189593
0.0156421
0.0300795
0.00284254
0.00969908
0.0177332
0.00473704
0.0332554
0.00357762
0.00161958
0.00242641
0.00282929
0.00244155
0.0154306
0.0180712
0.0337812
0.0125209
0.0817456
0.00190125
0.00169489
0.00740505
0.0343637
0.00356671
0.00885928
0.00633117
0.0364441
0.00489249
0.0236465
0.00984454
0.0210651
0.00160062
0.0459423
0.00542538
0.00256166
0.00406887
0.00700004
0.00799128
0.252762
0.00764606
0.0096209
0.0256786
0.00244479
0.00312941
0.0108102
0.0513477
0.00634446
0.0065508
0.0127904
0.0442841
0.014728
0.0139764
0.0282579
0.0522202
0.00917274
0.00208607
0.0158811
0.00214053
0.0415312
0.00443045
0.0122321
0.0220476
0.013476
0.00438931
0.0206667
0.0087391
0.00230397
0.00706875
0.0139651
0.0269366
0.00366216
0.0334718
0.0456508
0.0173029
0.00186806
0.0187652
0.0289108
0.0415707
0.00599178
0.00926762
0.00457284
0.0206769
0.00271963
0.0181373
0.00329282
0.0331688
0.0196857
0.0250476
0.00722196
0.00317231
0.0129138
0.00157676
0.00835802
0.0439317
0.00518748
0.00383494
0.0021373
0.00314448
0.044956
0.00682881
0.0224396
0.0572347
0.00388133
0.0189213
0.00667742
0.00221091
0.00417911
0.0029241
0.0192612
0.00294303
0.0196352
0.00787921
0.002528
0.0228273
0.00226798
0.00219115
0.0229552
0.0204485
0.00222962
0.0184077
0.00209106
0.00215206
0.00171132
0.0282284
0.0290234
0.0262848
0.0178311
0.00831756
0.00296077
0.0214762
0.00169051
0.0410942
0.0198718
0.0354025
0.00184882
0.0109446
0.00368104
0.0138772
0.00219902
0.00813599
0.00241675
0.00407114
0.00167184
0.00369224
0.00374276
0.00289845
0.0213197
0.00315973
0.0202241
0.0164507
0.0050645
0.00260677
0.00706385
0.00194658
0.0091649
0.0195003
0.00280425
0.0107817
0.0180222
0.0213532
0.0116139
0.00216859
0.0089228
0.0102305
0.00242984
0.0106285
0.0332134
0.0026579
0.0258858
0.0223521
0.00176721
0.00421916
0.0318534
0.00621686
0.00561127
0.00366773
0.00181875
0.0321963
0.00181585
0.00173728
0.00207848
0.0047174
0.0043988
0.00975027
0.00218215
0.0195798
0.00273696
0.00394331
0.00166206
0.00227447
0.00633601
0.0176467
0.0343699
0.0193967
0.00262544
0.0425855
0.0135843
0.0214349
0.00236296
0.00203094
0.00303258
0.0176879
0.00826762
0.0239842
0.0267182
0.00289276
0.00948738
0.0117125
0.0110907
0.0247946
0.0151515
0.00811824
0.00202804
0.00167366
0.00172066
0.00277943
0.0189563
0.00515566
0.00238304
0.00278296
0.00259845
0.0182776
0.0358774
0.00336582
0.0206107
0.0281837
0.00263749
0.00380368
0.0276752
0.0020893
0.00238035
0.00171457
0.00206578
0.0267896
0.00280318
0.00197058
0.0198209
0.00172632
0.00205121
0.00486955
0.00548953
0.00319828
0.00369219
0.0162922
0.0322682
0.023838
0.00931953
0.0524103
0.0968256
0.0136548
0.00698458
0.00500621
0.00639303
0.00299008
0.00472839
0.0033327
0.003414
0.0276332
0.0360365
0.0194784
0.0235014
0.0244375
0.002759
0.00967568
0.00276459
0.038379
0.00521948
0.0241274
0.00247792
0.0238579
0.0164981
0.00773981
0.0071117
0.0406326
0.0183699
0.00454851
0.0305639
0.0121173
0.0068833
0.00465393
0.0102824
0.0102089
0.00268349
0.0671242
0.00168741
0.0281879
0.0155299
0.0157962
0.00181313
0.00182545
0.0210958
0.0049544
0.00963892
0.00172782
0.00179862
0.0184428
0.00506289
0.0036514
0.00348279
0.00292136
0.0344154
0.0364034
0.00510521
0.00197867
0.00173
0.025577
0.0022882
0.00768528
0.00190653
0.00191098
0.00173072
0.00201208
0.00207487
0.0105673
0.00182404
0.0158491
0.00242108
0.0079537
0.00312478
0.00202959
0.00368106
0.003856
0.0232241
0.0284668
0.0368426
0.0076631
0.00150743
0.0042518
0.00528126
0.0287781
0.0378609
0.00669963
0.00326663
0.00193382
0.00299338
0.00428312
0.00157827
0.00438234
0.0259587
0.00574533
0.0181085
0.114979
0.00307976
0.00962229
0.00378048
0.0401258
0.00180879
0.00186985
0.00189925
0.0110627
0.00321836
0.00204373
0.00570225
0.00177439
0.0149372
0.00217975
0.00348784
0.0358767
0.00183866
0.00639039
0.0196946
0.0101665
0.00226219
0.00511832
0.0127275
0.0379328
0.00200584
0.00516897
0.00276665
0.00532681
0.0251444
0.00404498
0.0539867
0.00261083
0.0169911
0.00230581
0.0180259
0.00774601
0.00930665
0.0258163
0.00157704
0.00207902
0.0414573
0.00256752
0.00174674
0.0242894
0.0158124
0.0177309
0.00310933
0.00188034
0.0843343
0.0197086
0.01913
0.00701463
0.00180218
0.0328989
0.00287022
0.00436216
0.00176766
0.114203
0.00228833
0.0296688
0.00292546
0.0366572
0.0206402
0.00324202
0.0171692
0.0386187
0.0266096
0.0178022
0.0192575
0.00377932
0.021866
0.0161803
0.0123213
0.00219384
0.0241257
0.00762113
0.0677606
0.00211326
0.021287
0.0024831
0.0196578
0.00546453
0.00192274
0.0187607
0.00199095
0.0532808
0.0469426
0.00345827
0.00177789
0.00492457
0.00554996
0.00183988
0.0171665
0.00233843
0.0173952
0.00202496
0.00533436
0.0253171
0.00310392
0.0182228
0.0250261
0.00359956
0.0244172
0.00444507
0.00177778
0.00488516
0.0182388
0.00182549
0.0117752
0.00156976
0.00168864
0.00178002
0.00180453
0.0221041
0.0204245
0.00187508
0.00267503
0.0303892
0.00268072
0.00174972
0.00193621
0.00175958
0.00675577
0.040092
0.00191665
0.00853267
0.00321714
0.0091234
0.0225718
0.00177048
0.0110946
0.00442971
0.00168731
0.0039687
0.0467678
0.0353222
0.00200263
0.00232736
0.00167267
0.00335167
0.011573
0.00365702
0.00201199
0.0312738
0.00191371
0.013726
0.0245975
0.0162807
0.00388782
0.00398503
0.00449077
0.0057446
0.00883017
0.00178468
0.0102442
0.00199647
0.0021824
0.001504
0.00203036
0.023184
0.00252934
0.0304426
0.0948993
0.0167787
0.0108223
0.00457306
0.0299433
0.00223039
0.00195662
0.00344518
0.00208227
0.0273649
0.0104259
0.0142693
0.00194499
0.00699895
0.0125013
0.00675339
0.00696663
0.0242196
0.0207764
0.0228261
0.0394258
0.0256639
0.0112831
0.00422619
0.0441633
0.0385133
0.00165078
0.0656702
0.0267579
0.0037048
0.00760438
0.00472824
0.026353
0.0201032
0.00703719
0.00221818
0.00332646
0.0277187
0.0294517
0.0596081
0.0309662
0.00451561
0.0282212
0.00865681
0.00194331
0.00185758
0.0225005
0.00891478
0.0282545
0.0321718
0.00193413
0.0441839
0.00244606
0.0184026
0.00303809
0.00401371
0.038481
0.0194282
0.00352479
0.0257412
0.00272967
0.0207306
0.00818109
0.00174125
0.0261806
0.03624
0.0194754
0.0190518
0.00848538
0.0206909
0.013464
0.03388
0.00171582
0.0254372
0.00229352
0.00385433
0.00236715
0.0465974
0.00346684
0.0119809
0.00293934
0.0214633
0.0140932
0.00283019
0.0252561
0.00161007
0.0294958
0.0060165
0.0304171
0.0177289
0.00180581
0.00499695
0.0275854
0.00695156
0.0177964
0.0311069
0.00189834
0.0121217
0.00497592
0.00217737
0.00200224
0.00228699
0.00483109
0.0197184
0.0231079
0.00182818
0.0125801
0.00667757
0.00501448
0.0141884
0.00352239
0.00259137
0.00880834
0.00864756
0.0307739
0.0114673
0.0267531
0.00323249
0.00203959
0.0106534
0.00920984
0.0407245
0.0136197
0.0197272
0.00201791
0.00194903
0.0127676
0.00272637
0.0133848
0.0160047
0.00451954
0.0359662
0.00194744
0.0231092
0.00426532
0.0320006
0.00199579
0.0106338
0.00295508
0.0069628
0.00369284
0.00349176
0.00169543
0.024428
0.0173736
0.0348211
0.00204984
0.00302571
0.00459772
0.00278586
0.0567152
0.00900349
0.0108215
0.00204764
0.00526822
0.0037937
0.00869696
0.00182762
0.0385352
0.0121321
0.00325839
0.0233622
0.0220089
0.0160247
0.0377299
0.0106398
0.00236687
0.0171608
0.0427348
0.00811863
0.0223379
0.00867362
0.00210437
0.00162546
0.00216716
0.00252392
0.00205826
0.00538304
0.0290085
0.00196003
0.00517394
0.0120826
0.00891618
0.00253857
0.00674364
0.0148227
0.00299264
0.0263689
0.0112317
0.00993654
0.0168117
0.00298964
0.0423963
0.0152828
0.0280323
0.0333792
0.0177659
0.0380951
0.00545914
0.00322881
0.00527094
0.0301628
0.00469493
0.00360868
0.0363322
0.00299607
0.010304
0.0231625
0.0369486
0.00676658
0.0074259
0.0294059
0.00271649
0.0356528
0.00199461
0.0030732
0.00577556
0.00306245
0.0050626
0.00870803
0.00183261
0.0528088
0.0284221
0.00900401
0.00885833
0.0445033
0.00394309
0.0127649
0.00197675
0.0023953
0.0140182
0.00317553
0.00166888
0.0109871
0.0193337
0.0022744
0.00936753
0.0234894
0.00275353
0.00212903
0.00295891
0.00983592
0.00505822
0.00806874
0.012096
0.0086138
0.00911578
0.00479132
0.0183244
0.00288304
0.002021
0.00930103
0.00391951
0.00755196
0.00580263
0.0261201
0.0176468
0.00568444
0.00411487
0.00463451
0.00172077
0.00329933
0.00171181
0.00169669
0.228157
0.00665903
0.0019259
0.0339485
0.00403539
0.00342385
0.0342519
0.00304466
0.00201389
0.00857658
0.0020266
0.00175033
0.00195618
0.0167306
0.0106158
0.0236408
0.00745423
0.00218311
0.0299051
0.0331184
0.0193714
0.00607727
0.0226791
0.00333047
0.00221762
0.00220835
0.00290564
0.0115844
0.0167105
0.00305889
0.00278159
0.00734253
0.0117321
0.00309841
0.00191807
0.00178448
0.0274751
0.00168542
0.0101902
0.0129837
0.0266536
0.0186516
0.0110856
0.00203437
0.020506
0.00231688
0.00218478
0.00248731
0.00176461
0.00223151
0.00179617
0.00213713
0.00174787
0.00962782
0.00449741
0.00593861
0.0268639
0.0218144
0.00277021
0.00523154
0.0265302
0.00241561
0.00826578
0.00176974
0.00172949
0.00185941
0.00360736
0.0109486
0.00192646
0.122634
0.00967077
0.00188717
0.0700795
0.00205947
0.025643
0.0124142
0.00271791
0.0141055
0.0240076
0.00259447
0.00299055
0.00332201
0.0263555
0.00219998
0.0265063
0.0105111
0.0157438
0.0175684
0.0091951
0.00172539
0.016488
0.00308846
0.00244444
0.00741991
0.00178018
0.00170507
0.00753861
0.00165799
0.00217266
0.0146463
0.00177271
0.0187354
0.0275168
0.00230844
0.0078879
0.0195336
0.00196736
0.0078183
0.013107
0.00763898
0.0414632
0.00226165
0.00209799
0.00701104
0.0307161
0.0193771
0.00929314
0.0191186
0.00449481
0.00499896
0.00864263
0.04153
0.00735887
0.00226307
0.00857363
0.00179052
0.00202621
0.0276772
0.0029168
0.00185675
0.00720245
0.0038985
0.0273103
0.00656039
0.00306406
0.00150996
0.0163049
0.00282772
0.0109286
0.00720796
0.0353232
0.00643821
0.0117127
0.0237694
0.00596917
0.023971
0.00272378
0.0078884
0.00184155
0.0660669
0.00157419
0.00971501
0.0201055
0.0094763
0.00414622
0.0343819
0.0026568
0.00326897
0.0214732
0.0495216
0.0209081
0.00157066
0.00349261
0.00206917
0.00883018
0.0221475
0.00351869
0.0329142
0.00782956
0.00194874
0.00814437
0.0205652
0.00385074
0.0359651
0.0117755
0.00320059
0.00179201
0.0366002
0.00313202
0.00570118
0.0192232
0.00239121
0.00282042
0.00151276
0.00745839
0.00965027
0.019158
0.00239123
0.00348885
0.0353017
0.0259004
0.0185103
0.00212466
0.0100728
0.00259351
0.021433
0.00210886
0.0270892
0.00452018
0.0154057
0.0024218
0.00185801
0.00422338
0.00421923
0.0336845
0.0283162
0.0035774
0.00457561
0.0324996
0.0272014
0.00247978
0.00327792
0.00268237
0.0085918
0.00438511
0.00233478
0.00228152
0.0172847
0.0115978
0.0165209
0.00364344
0.0121062
0.0283981
0.0270407
0.00185141
0.00746852
0.00981173
0.00265222
0.00268775
0.0331277
0.00234051
0.00203083
0.0234575
0.0339587
0.00217966
0.00168639
0.0339716
0.0487316
0.0018511
0.00893296
0.0359004
0.0154866
0.00182596
0.00212964
0.00206626
0.00518304
0.00251623
0.0322437
0.0275255
0.00193171
0.00218036
0.00898757
0.00311566
0.0211911
0.0193276
0.0207872
0.00682399
0.0457581
0.00324205
0.00410113
0.0100931
0.0179793
0.0389547
0.00175159
0.00173138
0.00629737
0.00191117
0.00818595
0.00310466
0.0220669
0.0184193
0.210898
0.00789882
0.00391233
0.00882741
0.0201328
0.0110505
0.00662549
0.00380296
0.0103562
0.003117
0.00214508
0.00811906
0.0199218
0.0315759
0.00258065
0.0324739
0.00628841
0.00574853
0.0113389
0.0349155
0.00361909
0.0166544
0.0446777
0.0376778
0.00475102
0.00187738
0.00509422
0.00496296
0.0121294
0.00762946
0.0515926
0.025931
0.0233178
0.00164382
0.00884752
0.00374935
0.0078439
0.00799796
0.00489056
0.0368579
0.00615646
0.0359964
0.00251791
0.00754579
0.0310803
0.00165239
0.00996272
0.00496442
0.011028
0.0203156
0.0368833
0.00320515
0.0217711
0.00188449
0.00174672
0.00566829
0.0158046
0.0325193
0.0087374
0.0238419
0.00249922
0.00255147
0.00212497
0.0205799
0.00267714
0.00261558
0.00292442
0.00264796
0.0372259
0.0218607
0.0022899
0.00773914
0.0164294
0.00168344
0.0056996
0.00521136
0.009342
0.0263257
0.131902
0.0225473
0.00287909
0.00222142
0.0057793
0.0352519
0.027045
0.00348748
0.00629227
0.0153925
0.00165165
0.00276443
0.00247793
0.00210873
0.00169749
0.00265976
0.00391472
0.00716543
0.00665352
0.00698755
0.0141088
0.0167848
0.00164438
0.00495324
0.0271423
0.0199552
0.00204413
0.0305336
0.00366847
0.0096037
0.00231302
0.00356643
0.00698208
0.00183087
0.00217809
0.00246799
0.0194674
0.0222411
0.00359264
0.00161711
0.0361976
0.0118308
0.00576381
0.00203179
0.00421565
0.0466646
0.00845969
0.00438223
0.0126791
0.00193858
0.00652576
0.0393882
0.00564315
0.032859
0.0106023
0.043339
0.00286197
0.00346631
0.00192979
0.0374608
0.019504
0.0121061
0.0032677
0.0222276
0.0211512
0.0104105
0.00187628
0.0267976
0.00152371
0.00339278
0.0158496
0.016795
0.0221235
0.00253393
0.00174532
0.00390913
0.00586712
0.00928335
0.00921654
0.00950831
0.0298013
0.0307603
0.025088
0.0106165
0.00164032
0.0282111
0.0466619
0.0211858
0.0344548
0.00299103
0.0321938
0.00218213
0.00172368
0.00378744
0.0161093
0.00212025
0.0272228
0.0168025
0.00172738
0.00240859
0.00616744
0.00987961
0.00237043
0.0368139
0.00499302
0.00304754
0.00195171
0.010333
0.00297891
0.00180199
0.00829064
0.0249573
0.0328975
0.00823724
0.00173541
0.0294805
0.0121281
0.00241476
0.0252169
0.027075
0.0090711
0.0445378
0.0147
0.0384028
0.0221569
0.0265518
0.0400267
0.0261161
0.0420526
0.00806838
0.0127164
0.00182926
0.0402457
0.00196285
0.00526071
0.0034887
0.00681225
0.0030602
0.0282957
0.00263461
0.0107058
0.010445
0.00166107
0.0050856
0.047492
0.00641905
0.0116887
0.029618
0.0303351
0.00428979
0.0103388
0.0329559
0.00351086
0.00416739
0.00174202
0.00246394
0.0214808
0.00664787
0.0115709
0.0110551
0.00425009
0.00409878
0.00222841
0.0103379
0.00306396
0.00481267
0.010544
0.00842379
0.00801438
0.00631713
0.0110712
0.00183668
0.00468897
0.0431786
0.00455594
0.0475934
0.11972
0.0204386
0.0041406
0.00431787
0.00786799
0.00303524
0.00664052
0.0135457
0.0071916
0.0426309
0.0350527
0.0547808
0.0192848
0.0203934
0.00258473
0.0215136
0.00644861
0.0318943
0.0295092
0.00166234
0.0195829
0.00273053
0.00524224
0.00230785
0.0267886
0.0222118
0.00574025
0.00351293
0.0408758
0.00438784
0.0177262
0.00793358
0.00187622
0.00318197
0.00195679
0.0089716
0.0093989
0.0114415
0.0156362
0.0266105
0.0220928
0.030502
0.00777112
0.00204498
0.0136781
0.0180843
0.00931945
0.00336795
0.00316714
0.0193891
0.00469278
0.0324675
0.0157495
0.00341174
0.0215134
0.0124373
0.00992639
0.00620827
0.00861594
0.00351773
0.0105042
0.00889583
0.0024016
0.00744002
0.00249841
0.0363123
0.0376865
0.00550396
0.00870638
0.00344825
0.00774169
0.00958032
0.040761
0.00462273
0.00522527
0.00370453
0.0108077
0.0234001
0.0183108
0.0226262
0.00589046
0.0165319
0.0082177
0.0365724
0.00663577
0.0234928
0.0126509
0.00202496
0.0191345
0.00333199
0.00288848
0.0252415
0.0322508
0.00738763
0.067035
0.00312081
0.00240052
0.0119194
0.00363547
0.0178833
0.00639414
0.0296383
0.00783358
0.00609562
0.00162218
0.0452715
0.00267718
0.00538418
0.0125245
0.00461253
0.027174
0.00251755
0.0284006
0.00333257
0.0057827
0.00389557
0.00501429
0.0235845
0.0357724
0.00561363
0.00189733
0.0240658
0.00786892
0.0289853
0.00552346
0.0181153
0.0394927
0.00988539
0.00362171
0.0113141
0.0019514
0.00695831
0.00414174
0.0295795
0.00185923
0.0277917
0.0136273
0.00205157
0.0019285
0.0054166
0.0378756
0.0217614
0.00182143
0.00178772
0.00368892
0.00360582
0.00320524
0.05237
0.00455269
0.00395906
0.00503851
0.0201347
0.00530281
0.00208433
0.00492629
0.00217404
0.0019096
0.0189982
0.00332997
0.0222473
0.00303421
0.00989516
0.00480029
0.00320054
0.00226222
0.00206782
0.02632
0.00149747
0.0194862
0.0319314
0.00543193
0.0207858
0.00306435
0.0388436
0.0200141
0.0211627
0.0124008
0.00543135
0.0292644
0.0295536
0.00409417
0.0102202
0.00190738
0.00872713
0.0363848
0.011345
0.0246123
0.00735427
0.00321199
0.0194536
0.00333607
0.00192836
0.00275354
0.00251406
0.00188742
0.00282069
0.00196062
0.00366489
0.0183295
0.0418381
0.00404756
0.043674
0.00642869
0.00610874
0.01241
0.00172344
0.00545858
0.0249903
0.00226074
0.0233637
0.00960267
0.0173367
0.00497075
0.00172322
0.0129735
0.0082591
0.0230575
0.00565055
0.00623472
0.0112098
0.0040222
0.0453144
0.0318608
0.00189455
0.00558099
0.0022162
0.00853681
0.0515151
0.0016632
0.0165314
0.00174968
0.00284854
0.0279323
0.00333338
0.00244919
0.0269168
0.0194199
0.0016698
0.00906499
0.0349034
0.00324428
0.0219617
0.0354315
0.00985093
0.0019814
0.00182887
0.00382183
0.00228649
0.00371568
0.00204285
0.00715826
0.00811836
0.00198123
0.00362111
0.0404278
0.0257196
0.00588702
0.00240934
0.00661704
0.0365605
0.0337856
0.00378656
0.0230824
0.00339045
0.0024724
0.00185374
0.0226665
0.0131421
0.00209682
0.00691887
0.00335403
0.00420685
0.0190237
0.0279704
0.00213718
0.0315163
0.015267
0.0277984
0.0233409
0.00239934
0.00176964
0.00365915
0.00801335
0.01032
0.0103641
0.0023097
0.00310473
0.0200142
0.00164022
0.00260184
0.00267746
0.0337998
0.00577903
0.0334952
0.0105646
0.0223413
0.00292129
0.00402174
0.0117396
0.0287423
0.0121692
0.0162167
0.0451198
0.0033308
0.0353778
0.0196089
0.00219845
0.00249518
0.0017035
0.0259922
0.00796113
0.0209652
0.00181598
0.00283788
0.00236299
0.0020812
0.0237293
0.00399638
0.00666289
0.00174747
0.00230824
0.00233107
0.00265485
0.00174817
0.0405917
0.0280505
0.00686909
0.00163262
0.00383906
0.0237759
0.00203385
0.0180052
0.00596511
0.00417741
0.0116881
0.0202592
0.0180799
0.0429886
0.00304851
0.00406119
0.0189117
0.00614043
0.0414358
0.00318253
0.00171564
0.037015
0.00629858
0.00532126
0.00254099
0.0917349
0.0433617
0.0294794
0.0154924
0.0177394
0.0346029
0.0288822
0.0401636
0.0118689
0.0024916
0.004313
0.00292302
0.00556318
0.0376722
0.0028193
0.006523
0.0451485
0.0448634
0.032497
0.0108046
0.0230216
0.00292107
0.0148813
0.00173306
0.00791002
0.0231144
0.0115177
0.00307669
0.0018674
0.00366811
0.00276858
0.00216669
0.0214407
0.00798395
0.00325739
0.0035445
0.0504633
0.013382
0.00801546
0.00577088
0.00669362
0.00192302
0.0184376
0.0330812
0.0383498
0.00958125
0.0016577
0.00151471
0.00377211
0.0179158
0.00789371
0.0237571
0.00940805
0.00242024
0.0235764
0.0174387
0.00213198
0.00359463
0.00298629
0.00259563
0.0109959
0.0156536
0.00363656
0.00865542
0.00595794
0.00388505
0.00485938
0.00212981
0.0126718
0.00415288
0.0405429
0.0308291
0.0435994
0.0102283
0.00644709
0.00900499
0.0233394
0.00345522
0.0219194
0.0187271
0.0396896
0.00648571
0.00174177
0.00224308
0.0389317
0.0182617
0.0220836
0.0339338
0.018844
0.0018415
0.00157572
0.0293234
0.0253132
0.0189544
0.00176213
0.00158588
0.0039044
0.0103065
0.00300108
0.00397562
0.00944092
0.0266354
0.001638
0.00402055
0.00411815
0.00599679
0.00382352
0.00219272
0.0136538
0.00598788
0.0152898
0.00956337
0.0024625
0.00205512
0.0480306
0.00212623
0.0340629
0.00290084
0.00325504
0.00241576
0.00261961
0.0203011
0.0363922
0.0195899
0.00189167
0.00189609
0.0053107
0.00234104
0.0324614
0.0106056
0.00263193
0.00197039
0.0073429
0.0232034
0.0150516
0.00756563
0.0021346
0.0022498
0.00241613
0.00182866
0.00326333
0.00367413
0.0109389
0.00226503
0.00277087
0.00363369
0.0109458
0.0268415
0.0364329
0.0136877
0.00814274
0.0019045
0.00192169
0.0309665
0.00727336
0.0044167
0.00456518
0.00991046
0.00262427
0.00405312
0.00493523
0.00158579
0.00873963
0.00483616
0.0205427
0.00722232
0.00400486
0.035356
0.00573866
0.00327824
0.00448136
0.00281623
0.00191031
0.0348232
0.00242466
0.0118294
0.00200417
0.0141312
0.00219851
0.00541663
0.0103527
0.00599516
0.0357705
0.00570498
0.0228136
0.0253466
0.00381392
0.0326655
0.00205843
0.00284119
0.00195337
0.0220543
0.00909134
0.0369803
0.00474958
0.0264691
0.00992469
0.00303452
0.00250935
0.00196056
0.00349369
0.00308099
0.00186825
0.00315104
0.00289999
0.00313912
0.0223218
0.00925025
0.00159797
0.00167813
0.0178928
0.00364527
0.00252237
0.00208619
0.0354696
0.00448642
0.035015
0.00169874
0.0296934
0.0258547
0.00671165
0.00480954
0.00416678
0.00664877
0.0275802
0.00252135
0.0283577
0.0281296
0.00332825
0.0213214
0.0118341
0.00507047
0.0028648
0.037817
0.0178411
0.0286711
0.00211212
0.00255803
0.0164303
0.00307141
0.0104586
0.017025
0.00491703
0.0250614
0.00437639
0.00312117
0.00202896
0.00270709
0.00197651
0.00182759
0.00607903
0.00149128
0.0033557
0.00212535
0.0079621
0.0094974
0.0016856
0.0129629
0.00307558
0.00357403
0.00300733
0.00368891
0.00163449
0.00412667
0.0247643
0.00272969
0.00164348
0.0179735
0.00615518
0.00170169
0.105941
0.0028648
0.00224565
0.0101523
0.00535793
0.0206881
0.00719559
0.0020554
0.00320085
0.00988617
0.0215421
0.0177983
0.00542898
0.0238511
0.0305117
0.0306442
0.00428695
0.00209881
0.00157681
0.00463285
0.00366551
0.00414987
0.0169543
0.00768883
0.0018335
0.00162745
0.00154966
0.00148771
0.0323539
0.0477736
0.0412906
0.0153511
0.00318318
0.00198448
0.00174261
0.0111237
0.00318537
0.002314
0.0378525
0.00157365
0.00257695
0.00192683
0.00192618
0.0144426
0.0197759
0.00636307
0.0208774
0.00265846
0.00382486
0.00920812
0.00321327
0.0101615
0.0164652
0.00890678
0.00168734
0.0115051
0.00531935
0.00205083
0.0192057
0.0242144
0.00270082
0.00171534
0.0190366
0.0249901
0.0105746
0.0369547
0.0018644
0.00623372
0.0195996
0.00164062
0.00164404
0.00224662
0.00539307
0.00243826
0.00310344
0.00271421
0.00384899
0.0113478
0.00367832
0.0159278
0.0134026
0.0202686
0.00182426
0.00670563
0.00254263
0.00429324
0.0102368
0.00846265
0.0380668
0.00851947
0.0388525
0.0104669
0.00389523
0.00319345
0.00209283
0.0030523
0.027231
0.0222641
0.00292623
0.0131186
0.0162984
0.00535369
0.0230374
0.00205699
0.0039993
0.00275328
0.00659819
0.00270098
0.00616693
0.00294762
0.0256325
0.00210121
0.027497
0.0285816
0.0163915
0.00471002
0.00616193
0.00159373
0.0280934
0.0070734
0.00319555
0.00862287
0.0123755
0.0111221
0.0250898
0.0180181
0.0241702
0.0162516
0.0015742
0.0205597
0.00318805
0.0176194
0.0405022
0.0100385
0.0233346
0.0486695
0.0366522
0.00405558
0.00688621
0.00223563
0.0162488
0.00160439
0.0262999
0.00716727
0.018094
0.00319613
0.0026882
0.040826
0.00479324
0.00281616
0.00296862
0.00451107
0.00510458
0.00230443
0.00292332
0.00240549
0.00409398
0.0257533
0.0109117
0.0212497
0.00311008
0.0332608
0.0110912
0.00342127
0.0142448
0.00782156
0.0405353
0.00699185
0.00835347
0.00188437
0.0054423
0.00248807
0.00418011
0.00234475
0.00463588
0.00157721
0.0195655
0.0206504
0.0031553
0.00255959
0.0043452
0.00332438
0.00256719
0.00342767
0.0035365
0.0278011
0.0034466
0.00163558
0.0272592
0.00556543
0.0275958
0.00499731
0.0155565
0.0226869
0.0029932
0.0245534
0.0264511
0.0366481
0.030294
0.0266075
0.00210179
0.00982535
0.00174217
0.00488451
0.0174205
0.00263733
0.00172578
0.00249403
0.0377276
0.00381893
0.00747986
0.00702652
0.00298973
0.0303664
0.0287273
0.00378371
0.0260709
0.00191211
0.0215979
0.00576894
0.0155832
0.00156009
0.00160399
0.00274584
0.0236174
0.0369991
0.0259434
0.00348724
0.0183122
0.0484786
0.00677373
0.0101973
0.0300529
0.00927705
0.0180173
0.00524792
0.00360354
0.00186446
0.00311881
0.0953031
0.00774483
0.035905
0.00174043
0.00319946
0.00587146
0.00279531
0.0104444
0.00744542
0.0363988
0.00376007
0.00878501
0.0017261
0.00191572
0.0184774
0.0442109
0.00223274
0.00273591
0.00207824
0.01609
0.00427409
0.0363626
0.025623
0.0224391
0.00219239
0.0301955
0.00724592
0.0417514
0.0212318
0.00380875
0.0206956
0.0267456
0.0273086
0.00363977
0.00316269
0.0020438
0.0197701
0.00491732
0.00231379
0.00623161
0.00625836
0.00340772
0.00203967
0.00202087
0.035847
0.00317819
0.0134752
0.0153781
0.0224072
0.00196391
0.00216301
0.00942035
0.00359834
0.0442901
0.0070124
0.00531528
0.0401504
0.00281473
0.00252523
0.00363979
0.0184881
0.00200626
0.0199661
0.00168878
0.0181075
0.0378681
0.00197012
0.00247667
0.0163611
0.00370269
0.00242618
0.0022077
0.00189377
0.0186398
0.0293257
0.00223071
0.0036
0.00379189
0.00281713
0.0204521
0.00449263
0.0187911
0.0159569
0.00284104
0.00180411
0.00910953
0.00331736
0.00615234
0.0251484
0.0655479
0.00193645
0.00282814
0.0205017
0.0308941
0.0114857
0.00355264
0.0038653
0.037704
0.010685
0.00283646
0.00216549
0.00277494
0.00353962
0.00713061
0.00161345
0.00345228
0.00238649
0.0108977
0.0278513
0.0370427
0.00599899
0.0081073
0.00342125
0.00297124
0.00214986
0.00254521
0.00189425
0.00261782
0.00299529
0.00216544
0.00877045
0.00283182
0.00274782
0.00971491
0.0026592
0.00986281
0.0281606
0.00599937
0.00443873
0.00481967
0.00563211
0.00481338
0.0102452
0.0202658
0.003698
0.00293616
0.00377142
0.00644454
0.0322236
0.00683606
0.00840535
0.0363052
0.00400871
0.0287425
0.00616426
0.00333319
0.00398884
0.00463843
0.00744038
0.0250269
0.0330506
0.0660108
0.00191343
0.0210421
0.00290979
0.00259568
0.022422
0.00158891
0.00951394
0.00177048
0.0062447
0.00599442
0.0135856
0.00149272
0.00212184
0.043268
0.00256466
0.0252027
0.0448888
0.00427588
0.0165056
0.00232654
0.002512
0.00195407
0.00840986
0.0119205
0.00377582
0.00263325
0.00382624
0.0193898
0.0326832
0.00612671
0.00303717
0.00687702
0.00185066
0.0118203
0.00945347
0.00276841
0.00244399
0.00252709
0.0102583
0.00758317
0.0111515
0.00497877
0.00377165
0.00718682
0.00830486
0.0255446
0.00349854
0.00393854
0.0029737
0.00233579
0.00375521
0.00188243
0.0245045
0.00588976
0.0131487
0.0196685
0.00300978
0.0129869
0.00166618
0.00220144
0.00386708
0.0364793
0.00903509
0.00347159
0.00212053
0.0178473
0.00262719
0.0126249
0.00511519
0.0121269
0.00733138
0.00331618
0.00262055
0.0453555
0.00434247
0.00251618
0.00276028
0.00992231
0.00340312
0.0029964
0.132284
0.00154819
0.022238
0.00385018
0.00218117
0.0025914
0.00631198
0.0099036
0.0136434
0.0175027
0.0260339
0.0022776
0.00231802
0.0884045
0.0245571
0.00377718
0.00412142
0.0194481
0.00837454
0.00413596
0.00448973
0.00389869
0.0395558
0.00305543
0.0203264
0.0225361
0.00245353
0.0190945
0.0114052
0.0335925
0.0218166
0.0116958
0.019422
0.0057374
0.0183881
0.00679093
0.0277361
0.0348555
0.00577351
0.0289824
0.0172425
0.00390697
0.0310683
0.00360629
0.0185116
0.015015
0.0209366
0.00195037
0.0296461
0.0277722
0.00477741
0.00330961
0.00547078
0.0213969
0.00446752
0.0112955
0.00562387
0.0155826
0.00900021
0.00161215
0.00947553
0.00197208
0.00411865
0.00487404
0.00222611
0.0465369
0.00550407
0.00650777
0.00311041
0.0312494
0.00644439
0.046581
0.00931051
0.0095107
0.0023019
0.00282853
0.00713164
0.00339864
0.020672
0.00187993
0.00268044
0.0120939
0.00154982
0.0154418
0.00294419
0.00471965
0.0172888
0.0149936
0.0154385
0.00223596
0.00342469
0.0168178
0.00489971
0.00606807
0.0397077
0.00273025
0.0360495
0.0223725
0.00722995
0.00330756
0.00433681
0.0192652
0.00224414
0.0027734
0.00927683
0.0183559
0.0111652
0.0283635
0.00365199
0.010415
0.00483862
0.0101134
0.00182766
0.0040051
0.0254826
0.00464569
0.00177122
0.0100884
0.046733
0.0154033
0.00381423
0.0192631
0.011054
0.0175342
0.00398964
0.01071
0.0206363
0.0202301
0.00189562
0.0351633
0.00316343
0.0304616
0.00234893
0.00902984
0.00317362
0.0264458
0.00379703
0.00198123
0.00337163
0.00214369
0.00903518
0.0405167
0.0400077
0.0312653
0.0465573
0.00311151
0.0261055
0.00196625
0.00355273
0.00561325
0.00259888
0.0335254
0.0171313
0.0194843
0.00355126
0.0295558
0.00343713
0.00959773
0.00422671
0.0172418
0.0263028
0.0303123
0.00307412
0.0190373
0.00252413
0.00556892
0.00565642
0.0192874
0.020347
0.0062802
0.00867179
0.0219445
0.00204625
0.00293615
0.0123454
0.00954263
0.00404923
0.00293103
0.00275537
0.00196366
0.00213032
0.00837809
0.011894
0.00222542
0.0471195
0.0303578
0.0052307
0.0031783
0.00164594
0.0312237
0.0215813
0.00158536
0.00931852
0.00153459
0.0245749
0.00165482
0.00201927
0.00297886
0.0172699
0.011707
0.0331845
0.0369151
0.00626289
0.0391709
0.00524941
0.0137347
0.00548536
0.00466607
0.00254001
0.0339115
0.0525889
0.00245653
0.00520616
0.0266852
0.00275812
0.0028341
0.0273929
0.0382473
0.0418011
0.022816
0.0133951
0.0374823
0.0107382
0.00181338
0.0265849
0.0446511
0.00604297
0.00307671
0.0022564
0.00365195
0.00931459
0.0497339
0.00199995
0.0244852
0.00238608
0.0215017
0.00838838
0.00552194
0.00844176
0.00677581
0.0283053
0.00216148
0.0102174
0.00181926
0.0352782
0.00618277
0.0198617
0.00853314
0.0146746
0.0325063
0.00742314
0.00739223
0.00619536
0.013042
0.00362624
0.0208905
0.027005
0.0209009
0.00506283
0.00712047
0.00518001
0.0272031
0.00701804
0.0367424
0.0494364
0.00418887
0.00212021
0.0196824
0.0253674
0.010399
0.0022688
0.00619247
0.00284521
0.00571895
0.00436122
0.00344464
0.00369503
0.00173086
0.0190782
0.0381046
0.00542475
0.00174227