/*--------------------------------*- C++ -*----------------------------------*\
| =========                 |                                                 |
| \\      /  F ield         | OpenFOAM: The Open Source CFD Toolbox           |
|  \\    /   O peration     | Version:  2406                                  |
|   \\  /    A nd           | Website:  www.openfoam.com                      |
|    \\/     M anipulation  |                                                 |
\*---------------------------------------------------------------------------*/
FoamFile
{
    version     2.0;
    format      ascii;
    arch        "LSB;label=32;scalar=64";
    class       volVectorField;
    location    "67";
    object      momentum:angularMomentum;
}
// * * * * * * * * * * * * * * * * * * * * * * * * * * * * * * * * * * * * * //

dimensions      [1 1 -1 0 0 0 0];

internalField   nonuniform List<vector> 
59516
(
(-2.36543e-09 -1.50012e-09 2.22803e-07)
(6.02858e-10 -3.68846e-10 1.63931e-07)
(-9.35374e-10 9.33723e-10 2.01075e-07)
(-2.87971e-09 -5.61689e-10 1.7166e-07)
(-8.01813e-09 5.27958e-10 1.99985e-07)
(-5.20282e-09 2.76862e-09 5.03649e-08)
(-4.55256e-09 -2.73367e-09 2.09129e-07)
(-6.01321e-10 -1.05431e-09 1.91072e-07)
(-1.2102e-09 2.05724e-10 1.54569e-07)
(2.90058e-09 1.59943e-09 7.6169e-08)
(-3.43757e-09 -3.54199e-10 2.08442e-07)
(-5.15179e-09 -3.78912e-09 1.01531e-07)
(-2.40868e-09 -2.13253e-09 3.16771e-07)
(4.20657e-11 -1.6763e-10 1.5375e-08)
(6.09873e-10 -8.81612e-09 1.45809e-07)
(-2.37631e-09 5.72614e-09 8.18566e-08)
(-4.95679e-09 -9.30418e-10 2.7031e-07)
(-1.30775e-08 -3.61352e-09 1.59724e-07)
(-1.74206e-08 -3.44091e-09 3.29723e-07)
(-4.39783e-09 1.20849e-09 3.74268e-07)
(-2.6745e-09 1.24525e-09 9.93618e-08)
(8.30706e-10 1.99012e-09 3.17242e-07)
(-6.88023e-09 -1.58877e-09 3.51244e-07)
(8.77539e-10 5.95793e-10 3.33194e-08)
(-3.22767e-10 1.42493e-09 3.13634e-07)
(-5.08031e-10 4.8923e-09 1.93832e-07)
(-6.08693e-10 3.62835e-09 5.01626e-08)
(-5.84924e-09 -2.46767e-09 7.40274e-08)
(-5.96283e-09 -1.91146e-09 1.44289e-07)
(1.57804e-09 1.29975e-09 1.27618e-08)
(-3.76108e-08 2.1048e-09 1.89464e-07)
(-5.42318e-09 4.16796e-09 8.3672e-08)
(-9.11558e-10 -5.4343e-10 1.73063e-07)
(-2.91495e-09 -1.79131e-09 1.72771e-07)
(-6.52563e-09 2.38145e-13 1.3367e-07)
(-1.5642e-09 5.02328e-10 3.9954e-07)
(-1.86237e-09 9.72752e-10 1.23848e-08)
(-1.30639e-08 -4.1521e-09 1.31643e-07)
(-1.09427e-08 1.09695e-09 2.66368e-07)
(-2.84248e-10 1.47853e-09 2.8453e-07)
(-1.52641e-10 -1.49274e-09 2.51884e-07)
(-3.31636e-08 -1.24676e-10 4.06993e-07)
(-1.25153e-08 2.30547e-09 3.43334e-07)
(-6.72748e-10 3.37169e-10 1.08061e-07)
(-1.03979e-08 1.27738e-09 2.64672e-07)
(2.5507e-09 7.13711e-10 9.8855e-08)
(-1.36078e-08 3.44361e-10 3.24315e-07)
(-8.44358e-09 9.81036e-10 2.55054e-07)
(-3.43108e-08 3.12124e-09 2.51867e-07)
(-1.40272e-08 5.46457e-10 2.41319e-07)
(-2.81932e-08 8.17169e-10 1.63915e-07)
(-7.0338e-09 -3.37298e-09 7.32021e-08)
(1.10273e-09 -6.59028e-09 3.10603e-07)
(-7.55277e-10 1.16607e-09 2.95752e-07)
(-5.10697e-09 1.33347e-09 8.2017e-08)
(-6.13508e-09 1.12126e-09 2.45983e-07)
(-1.67624e-08 1.0061e-10 2.03477e-07)
(-7.38243e-09 -2.77247e-09 7.34454e-08)
(-3.94653e-10 2.58672e-10 2.15122e-07)
(-1.12151e-08 -3.50663e-10 1.45875e-07)
(-7.02082e-10 4.2052e-10 2.09034e-07)
(-1.15031e-09 1.58016e-09 1.45882e-08)
(-1.44055e-09 -2.53597e-10 2.74441e-07)
(-7.72543e-09 -1.39738e-10 3.44892e-07)
(-1.69901e-09 1.36293e-09 2.84269e-07)
(-1.01314e-08 1.7398e-10 2.15573e-07)
(1.33092e-10 1.95797e-09 1.72338e-08)
(-2.07469e-10 5.28245e-10 6.38605e-08)
(-3.72059e-08 6.3009e-10 1.98343e-07)
(-4.72149e-09 -1.02467e-09 1.68885e-07)
(-8.21989e-10 -1.14903e-09 4.9763e-08)
(-2.67208e-09 -7.46668e-10 1.58799e-07)
(3.38757e-09 -1.36141e-09 2.22198e-08)
(-2.52319e-09 -5.49692e-10 1.86248e-07)
(-1.24488e-09 -8.98244e-10 3.94705e-07)
(-1.00435e-08 4.7736e-10 3.60725e-07)
(-6.74217e-09 1.63087e-10 2.15253e-07)
(8.58562e-10 4.76549e-11 2.26994e-07)
(3.2785e-09 1.72015e-09 8.12568e-08)
(-1.09816e-08 9.37965e-10 1.93371e-07)
(-3.30301e-09 3.72986e-12 4.82061e-08)
(-8.95565e-09 5.05029e-10 1.7162e-07)
(-8.43673e-09 4.9993e-10 1.82954e-07)
(-2.20407e-09 1.20573e-09 1.73061e-08)
(-1.095e-08 1.16036e-09 2.15325e-07)
(-2.24765e-09 1.81256e-09 3.88605e-07)
(6.01139e-10 1.06587e-09 3.02838e-08)
(-2.80711e-09 2.90829e-10 5.01676e-07)
(-3.83058e-09 -2.00253e-09 1.06704e-07)
(-1.55527e-08 -3.87584e-09 1.66756e-07)
(-1.61313e-08 -3.99041e-11 1.83365e-07)
(-1.16349e-09 1.51629e-09 1.89697e-07)
(-1.16064e-09 -1.16886e-11 2.66766e-07)
(-1.09369e-11 1.22364e-09 1.82308e-07)
(9.85419e-11 -1.23642e-10 1.87343e-07)
(-1.87491e-08 -1.1716e-10 1.83414e-07)
(-3.24044e-10 -2.8824e-10 1.24032e-07)
(3.46577e-09 6.29228e-09 8.15245e-08)
(-4.43557e-09 -1.75681e-09 1.15033e-07)
(2.39017e-09 1.44277e-09 2.07928e-07)
(-2.00554e-09 1.38813e-09 5.97997e-08)
(2.75321e-09 1.45999e-09 2.50535e-08)
(2.77365e-09 1.44597e-09 2.21362e-08)
(-3.14257e-09 3.49647e-09 8.18961e-08)
(1.44115e-09 -6.57243e-12 2.31842e-07)
(1.91153e-10 -7.95591e-10 1.65006e-07)
(2.47455e-09 -4.40604e-09 5.28973e-08)
(-1.01508e-09 -4.47409e-10 1.3444e-07)
(-3.29565e-10 1.21814e-09 1.71242e-07)
(-3.94206e-09 6.23416e-09 1.82121e-07)
(-4.20646e-08 -5.39689e-10 2.80324e-07)
(3.06253e-09 -2.95606e-09 4.12641e-08)
(-7.19914e-09 9.19313e-09 1.8086e-07)
(-3.62291e-08 -9.41588e-11 2.19233e-07)
(-3.52602e-10 2.08734e-10 2.23304e-07)
(1.51917e-09 -1.64398e-09 1.33105e-07)
(-3.94686e-09 -2.5926e-09 1.21871e-07)
(-3.46223e-10 -6.55875e-10 1.42734e-07)
(-3.10206e-10 -8.26914e-10 1.74983e-08)
(-1.44544e-09 1.47508e-09 2.62793e-07)
(1.3521e-10 -1.53273e-10 4.37703e-07)
(-3.64905e-10 6.2848e-10 1.82092e-07)
(7.93491e-10 1.43768e-10 1.60384e-07)
(-3.53105e-10 2.8369e-10 1.88956e-07)
(-1.81118e-08 1.1532e-09 1.33089e-07)
(-5.35661e-09 1.78921e-10 1.43605e-07)
(-2.10247e-09 -1.02853e-09 3.42898e-08)
(-2.10312e-08 3.15928e-09 2.12296e-07)
(-2.37427e-08 5.59459e-09 1.63212e-07)
(-4.01328e-11 -2.71141e-10 1.671e-07)
(-3.5956e-10 -1.69789e-10 3.00017e-07)
(4.96394e-09 5.60036e-09 3.17279e-07)
(-4.80707e-10 -1.9023e-09 2.15437e-08)
(-4.67645e-10 9.54188e-10 2.54215e-07)
(3.11536e-09 1.06563e-09 3.08299e-07)
(-3.55817e-09 1.66643e-09 1.92378e-07)
(-2.20197e-08 1.98289e-09 1.51777e-07)
(2.46868e-10 1.13966e-09 3.08206e-07)
(-4.90421e-10 3.41283e-09 4.96257e-08)
(-1.95426e-09 1.39002e-09 1.56601e-07)
(-1.73916e-09 3.65372e-09 7.32975e-08)
(-4.30525e-10 -8.27273e-10 3.48806e-07)
(-6.05879e-10 -1.12348e-09 1.3214e-08)
(-7.77992e-10 1.10797e-09 1.48382e-07)
(-1.95034e-09 -3.84189e-11 2.23121e-07)
(-4.825e-09 1.39675e-09 2.83978e-07)
(-8.55026e-09 1.92655e-09 2.02715e-07)
(-6.19782e-09 2.32231e-09 2.04217e-07)
(9.7619e-10 -1.81767e-09 6.40332e-08)
(-9.78457e-10 2.02052e-09 2.03519e-07)
(-1.48113e-09 -2.8685e-09 3.1376e-07)
(2.17742e-10 1.8981e-09 4.9637e-08)
(1.94132e-09 2.35668e-09 3.92856e-07)
(-2.15313e-10 -4.1694e-11 2.18943e-07)
(-1.8342e-09 -3.54667e-09 1.55161e-07)
(-1.28387e-09 7.87042e-10 1.38545e-08)
(-1.15339e-09 -9.59179e-10 2.71827e-07)
(-4.82739e-09 2.32826e-09 3.25223e-07)
(-2.12103e-09 8.53456e-10 1.26292e-07)
(-2.14482e-09 -1.51365e-09 1.49019e-08)
(3.44593e-09 3.40375e-09 8.66281e-08)
(5.85494e-09 -3.48904e-09 1.08849e-07)
(-6.54894e-10 1.42727e-09 3.7873e-08)
(-2.0152e-10 -4.01061e-10 2.12248e-08)
(4.95121e-09 1.79208e-10 1.58224e-07)
(-1.97864e-09 -1.2425e-10 3.39896e-07)
(2.38838e-09 -1.74414e-10 1.50618e-07)
(-2.07759e-09 -5.85575e-10 2.93369e-07)
(9.43299e-10 1.93591e-09 1.66416e-08)
(4.04464e-10 -8.81534e-10 2.15297e-07)
(-1.57125e-09 -1.2005e-09 8.48048e-08)
(-1.21828e-09 8.10859e-10 6.48429e-08)
(-2.55735e-10 -2.98639e-09 1.019e-07)
(-1.66777e-10 -5.83843e-10 1.50309e-07)
(6.57846e-10 1.01474e-09 8.1529e-08)
(-1.9649e-08 -1.84532e-09 4.52757e-07)
(-1.19914e-09 4.90228e-10 2.55491e-07)
(-1.45325e-08 1.11195e-09 3.10065e-07)
(8.24054e-10 -6.82795e-09 1.44238e-07)
(6.67137e-10 4.86448e-10 5.91866e-08)
(-3.6261e-09 -4.45972e-09 3.07951e-07)
(1.08101e-09 3.85824e-09 4.0684e-08)
(-9.79312e-10 -1.9957e-09 2.81322e-08)
(8.71429e-10 2.27357e-09 1.00892e-07)
(-4.41802e-10 -1.12019e-09 2.15955e-07)
(-5.89328e-10 1.09851e-09 9.3847e-08)
(-3.45733e-09 6.19538e-10 4.40382e-08)
(1.24937e-10 2.29221e-10 1.91904e-08)
(-6.78026e-10 8.45286e-11 1.88311e-07)
(3.33534e-09 1.73634e-09 2.19866e-07)
(-3.08141e-09 -1.32304e-10 1.5884e-07)
(-2.22411e-09 -6.42065e-09 1.10097e-07)
(-2.02602e-09 -6.80589e-10 2.18419e-07)
(2.45962e-09 -2.00625e-09 9.01756e-08)
(-2.24254e-09 -8.44349e-11 3.39797e-07)
(3.98885e-10 6.82557e-10 2.75535e-08)
(1.23541e-09 4.84231e-10 9.28404e-08)
(4.44092e-10 -1.54822e-09 5.38228e-08)
(-7.80727e-09 4.49294e-11 1.80604e-07)
(6.18558e-10 -1.37424e-09 2.66674e-07)
(-1.52144e-09 -2.20375e-09 7.50709e-08)
(-2.60269e-10 -3.64266e-10 2.07615e-07)
(3.12805e-10 3.42339e-09 3.03425e-07)
(1.27441e-09 -1.52143e-09 1.51198e-08)
(8.06874e-10 1.41367e-09 2.16722e-07)
(-8.34249e-10 -7.01789e-10 2.38962e-07)
(-1.13362e-09 -5.01601e-10 3.66401e-07)
(2.07506e-09 -1.03854e-09 2.02759e-07)
(1.84726e-10 -5.68158e-10 1.73106e-08)
(4.77056e-09 2.87011e-09 2.95814e-07)
(-6.56607e-10 5.4932e-09 5.80808e-08)
(-4.1046e-09 8.3861e-10 2.50577e-08)
(-1.46359e-09 2.02437e-09 2.31055e-07)
(-5.88491e-10 2.2793e-09 9.06913e-08)
(-2.48073e-09 -3.15727e-09 2.87345e-07)
(7.06961e-10 -2.22459e-10 2.97279e-07)
(-3.65986e-09 9.70144e-10 2.72896e-07)
(-1.61321e-09 1.28251e-09 2.09237e-07)
(-2.50923e-09 4.70417e-09 7.92114e-08)
(1.10208e-09 -2.10094e-10 2.20724e-07)
(-1.84587e-09 -5.66223e-09 1.13373e-07)
(-9.22435e-10 5.07243e-10 1.9228e-07)
(-1.05556e-09 -1.07045e-09 1.85002e-07)
(6.44748e-10 -9.51024e-10 6.96415e-08)
(7.80855e-10 -3.48924e-10 3.08654e-07)
(7.55154e-10 2.67092e-10 3.23429e-07)
(-1.06865e-09 -1.16871e-09 3.04407e-08)
(-3.46784e-09 7.89143e-10 6.22188e-08)
(1.28453e-10 1.1129e-09 2.07171e-07)
(-4.53934e-09 7.44641e-09 1.1296e-07)
(5.64692e-11 8.57077e-10 2.5031e-07)
(-5.01009e-10 3.4913e-10 1.87482e-07)
(-1.69716e-09 -7.92791e-10 3.44629e-07)
(-1.21379e-09 -2.09781e-09 2.52949e-08)
(-1.1978e-09 -1.06824e-09 2.96082e-08)
(-1.70181e-09 -4.39729e-11 3.71122e-08)
(-2.52421e-10 -6.60248e-10 1.04558e-07)
(-2.35983e-09 -3.52348e-10 1.68964e-07)
(-4.72136e-09 1.14474e-09 4.26998e-07)
(2.93761e-09 -5.11968e-10 8.29149e-08)
(4.97201e-10 4.91869e-10 2.70434e-07)
(2.14231e-09 1.51968e-09 1.76567e-08)
(1.42403e-09 1.09788e-09 1.05298e-07)
(2.38303e-09 1.49569e-09 2.53098e-08)
(4.16009e-10 4.89629e-10 1.7524e-07)
(-8.845e-10 -5.10773e-10 1.4752e-07)
(-1.88484e-09 3.88783e-10 1.98067e-07)
(-2.63153e-09 4.41517e-09 1.79637e-07)
(-1.21883e-09 -7.07699e-10 2.85679e-07)
(-1.37145e-09 -4.98421e-10 1.95128e-07)
(-7.59197e-10 -3.18264e-10 3.90199e-07)
(-1.33514e-09 1.123e-11 2.1276e-07)
(8.42436e-10 2.30488e-10 2.09072e-07)
(5.10125e-10 2.78661e-09 2.82723e-07)
(-2.34854e-09 2.56645e-09 2.84199e-07)
(-2.18856e-09 1.10167e-09 3.053e-07)
(-4.80495e-10 1.91864e-10 1.06938e-07)
(-4.18983e-09 7.97072e-10 2.87207e-07)
(2.35737e-09 3.61134e-09 7.62386e-08)
(-4.85335e-10 3.2673e-09 9.32366e-08)
(-2.05444e-09 1.13694e-09 2.15309e-07)
(-3.54882e-10 5.2314e-10 2.68061e-07)
(7.53769e-09 1.57839e-09 2.33471e-07)
(7.04839e-10 1.80054e-10 2.9953e-07)
(1.5677e-09 -5.35104e-11 7.17869e-08)
(-2.52439e-10 -4.83505e-09 1.02272e-07)
(-1.49587e-09 -2.42812e-09 3.10686e-07)
(4.75525e-09 2.29702e-10 2.07825e-07)
(-7.14033e-10 -1.19324e-09 5.81221e-08)
(-7.46023e-10 1.97268e-09 7.11863e-08)
(-4.60146e-09 4.06816e-09 1.6341e-07)
(1.90037e-10 -2.73185e-10 1.95401e-07)
(-4.86136e-09 6.23627e-09 2.98586e-07)
(-1.42678e-09 2.55143e-09 1.43768e-07)
(-2.33811e-09 -1.03282e-09 3.43324e-07)
(-6.70593e-11 4.79872e-09 1.82793e-07)
(-1.05436e-09 -2.27903e-09 1.82081e-08)
(1.42795e-09 4.84147e-10 3.02992e-07)
(2.29517e-09 -1.7893e-09 2.70325e-08)
(2.2275e-09 1.092e-09 4.95606e-08)
(-2.46481e-09 -5.41441e-10 3.80733e-07)
(-6.3792e-10 -6.83266e-10 2.48154e-07)
(-3.51651e-09 1.83685e-09 2.63347e-08)
(-1.44561e-10 -2.37218e-09 2.91946e-07)
(-2.78735e-09 -4.14079e-09 2.40609e-07)
(-4.19221e-09 3.69711e-10 2.53415e-07)
(-6.24718e-12 -9.02046e-10 3.46781e-07)
(1.81429e-09 -1.90603e-09 2.18256e-08)
(3.68934e-10 1.16981e-09 3.00501e-07)
(3.71247e-11 5.83345e-11 1.62624e-07)
(-4.98941e-10 -5.2742e-10 1.67603e-07)
(-2.0678e-09 1.07638e-09 2.51037e-07)
(-9.86212e-10 4.19395e-10 1.70271e-07)
(-6.44251e-10 -8.70972e-10 1.71146e-07)
(3.47752e-10 -1.00938e-09 2.73679e-07)
(-1.91727e-12 2.12041e-09 3.64463e-08)
(-3.43732e-10 -8.57014e-10 2.91107e-07)
(1.48466e-10 9.3661e-10 1.89543e-07)
(-4.69527e-10 8.76333e-10 3.92379e-07)
(-1.51756e-09 1.3385e-09 2.80157e-07)
(1.02602e-09 -1.73543e-09 3.03515e-07)
(2.23484e-09 -2.78834e-09 1.29509e-07)
(-5.55571e-10 -1.19376e-09 1.85846e-08)
(8.17747e-10 5.16636e-10 3.3214e-08)
(-4.97858e-09 8.92766e-10 5.1533e-07)
(-2.43798e-09 9.88585e-10 1.69526e-08)
(-2.21475e-09 -2.18689e-09 1.66012e-07)
(-1.29536e-09 3.99117e-09 6.98905e-08)
(-1.49904e-09 -1.67107e-09 3.24838e-07)
(-1.22182e-09 -2.52139e-10 3.87292e-07)
(-1.21398e-09 1.67111e-09 3.16433e-07)
(2.14636e-09 1.74773e-09 1.17531e-07)
(8.54382e-09 2.35711e-10 2.86891e-07)
(5.06963e-11 6.896e-09 6.38133e-08)
(3.32705e-10 -2.67898e-09 8.63065e-08)
(-3.22754e-10 9.8625e-10 2.04459e-07)
(5.70402e-10 -2.02143e-09 1.50678e-07)
(-3.18608e-08 -3.82806e-09 2.69464e-07)
(6.294e-10 -4.58264e-09 1.86537e-07)
(-5.99668e-10 -1.05898e-10 6.05346e-08)
(3.47473e-09 -3.02819e-10 9.80484e-08)
(-1.36648e-09 -3.38229e-09 2.01905e-07)
(-5.33188e-10 -9.28991e-11 2.25536e-07)
(1.07439e-09 -2.7628e-09 4.50171e-07)
(-7.33499e-10 1.39771e-09 2.42027e-07)
(3.88741e-10 4.78092e-09 4.95102e-07)
(-1.03192e-08 -9.95779e-10 1.66583e-07)
(-2.82264e-09 -6.70335e-10 3.31901e-07)
(-1.86539e-09 3.05845e-10 2.86381e-07)
(9.18846e-10 3.08218e-10 2.00478e-07)
(2.61189e-09 7.49548e-10 3.44107e-07)
(-5.11595e-09 -4.01677e-09 1.0042e-07)
(2.7016e-09 -1.18181e-09 2.18346e-08)
(2.71784e-09 3.90298e-10 2.95467e-07)
(1.56311e-09 3.7288e-09 5.45531e-08)
(2.51399e-11 -6.00717e-11 2.6404e-08)
(-5.00986e-09 -3.44165e-10 4.02345e-07)
(4.55792e-10 -2.15441e-10 1.9833e-07)
(-3.70625e-09 4.54525e-09 1.06131e-07)
(-5.30525e-10 -8.5934e-10 2.65454e-07)
(8.21744e-10 1.09438e-09 3.34547e-07)
(-8.81744e-10 -7.93408e-10 4.52784e-07)
(-2.12336e-09 -3.88131e-11 2.78423e-07)
(-6.493e-11 -1.42116e-09 2.93517e-08)
(-7.79684e-10 3.64362e-10 3.19111e-07)
(-9.39343e-10 1.67617e-10 2.31169e-07)
(5.84495e-10 1.34972e-09 9.35951e-08)
(-3.34666e-10 -1.62406e-09 3.15373e-07)
(-5.29265e-11 2.49749e-10 2.64741e-07)
(1.05696e-09 6.39016e-10 1.7103e-07)
(8.2683e-10 1.49203e-09 1.96543e-07)
(-9.57946e-10 -3.69773e-09 2.79198e-07)
(6.21997e-10 1.42204e-09 2.00583e-07)
(-3.2616e-10 2.48493e-10 7.43273e-08)
(-3.81267e-10 9.30033e-10 1.892e-08)
(3.94956e-10 2.7644e-09 3.6954e-08)
(1.04176e-09 -8.78401e-10 2.11114e-07)
(-3.91689e-08 -2.06669e-10 2.67865e-07)
(-1.14178e-08 1.1832e-09 1.15791e-07)
(5.79759e-10 -5.52739e-10 1.06207e-07)
(3.21341e-09 -2.83911e-09 2.41332e-07)
(-2.52854e-09 1.52901e-09 3.05511e-07)
(-6.57521e-09 2.35531e-10 2.324e-07)
(7.99623e-10 3.00335e-09 3.60924e-07)
(-1.30687e-09 -2.49566e-09 3.33156e-07)
(9.64008e-11 -7.79213e-10 2.24116e-07)
(-8.61296e-10 -1.27858e-11 1.39159e-07)
(-3.46888e-10 6.81125e-10 2.25115e-08)
(-4.78708e-08 1.7306e-09 2.41095e-07)
(6.69873e-10 2.05754e-09 8.26807e-08)
(-1.37916e-09 2.31256e-09 5.98913e-08)
(1.40013e-09 5.27661e-10 6.35879e-08)
(1.4086e-10 8.29126e-10 1.76074e-07)
(-8.7368e-10 5.59033e-10 1.67395e-07)
(-1.88748e-09 6.91277e-10 2.38738e-07)
(-1.0062e-09 1.23236e-09 1.576e-08)
(3.65329e-10 -4.66226e-10 1.66278e-07)
(1.5736e-09 -9.77659e-10 6.07156e-08)
(-1.20752e-10 1.45268e-10 1.91347e-07)
(-6.04499e-10 7.06019e-10 5.21553e-08)
(3.65593e-09 1.75782e-09 1.41901e-07)
(1.28098e-09 5.75075e-09 2.09901e-07)
(-1.89488e-09 -5.76429e-10 1.85491e-07)
(2.32405e-09 -2.32359e-10 1.75229e-08)
(-2.68536e-10 4.43082e-09 1.06904e-07)
(7.67205e-11 -9.42854e-10 2.35687e-07)
(9.83246e-11 -2.39858e-09 2.34083e-08)
(-2.13372e-08 -6.22451e-10 2.89748e-07)
(8.73824e-10 -4.19292e-09 1.77354e-07)
(-1.21783e-09 -4.97788e-09 2.99006e-07)
(4.75239e-09 -5.85778e-09 1.93025e-07)
(2.43538e-09 8.31413e-10 8.98087e-08)
(1.34588e-09 3.12856e-10 4.00716e-07)
(-1.87524e-08 -5.94435e-09 1.42013e-07)
(-2.46748e-10 9.22815e-11 3.51924e-07)
(-1.74217e-08 1.18635e-09 1.55532e-07)
(-5.14471e-09 3.71119e-09 1.34989e-07)
(-6.51036e-10 3.2182e-09 1.37157e-07)
(4.98311e-10 -1.89546e-10 2.86878e-07)
(9.39439e-10 -1.95416e-10 5.65703e-07)
(9.03209e-10 -7.87813e-10 7.59319e-08)
(-1.16763e-09 -1.22138e-09 3.3049e-07)
(-2.60205e-09 8.33877e-10 1.14655e-07)
(-6.50196e-10 -1.16454e-09 4.63532e-07)
(8.40682e-10 -1.71694e-09 3.52936e-07)
(-1.56453e-09 -5.18795e-09 6.57544e-08)
(-5.79778e-10 1.75966e-09 2.14263e-07)
(6.53742e-09 -8.1343e-10 3.81161e-07)
(-1.50725e-09 -4.08182e-10 2.27703e-07)
(3.38036e-10 -1.37488e-09 2.23509e-07)
(2.54234e-09 -1.35029e-09 2.21821e-08)
(-2.43249e-09 -6.25408e-10 1.87097e-08)
(-3.29771e-09 3.12422e-09 2.89381e-07)
(-2.82876e-10 -1.02297e-10 2.97773e-07)
(1.0178e-09 1.25428e-09 2.3535e-07)
(-2.26275e-09 1.21462e-09 3.37031e-08)
(7.47017e-10 -4.09282e-10 9.23182e-08)
(-3.88717e-09 -8.45277e-10 2.93235e-07)
(1.44715e-10 2.90305e-10 1.77742e-07)
(-1.59014e-09 1.79575e-09 3.24464e-07)
(1.47969e-10 -1.04769e-09 3.03011e-07)
(1.53039e-12 -1.30778e-09 2.27348e-07)
(-7.06852e-10 -2.33879e-09 2.41124e-07)
(3.96935e-10 -7.52987e-10 1.16777e-07)
(-6.67534e-10 5.80179e-10 2.2611e-07)
(-2.68047e-09 3.26159e-09 8.39465e-08)
(-7.53066e-10 7.79564e-10 2.96445e-07)
(-1.58624e-09 -1.14631e-09 1.8388e-07)
(-1.46459e-09 -6.3591e-10 2.16915e-07)
(-4.37761e-10 8.43029e-11 2.31624e-07)
(-5.18988e-10 8.97535e-10 3.49055e-07)
(2.01561e-09 -1.89128e-09 2.67145e-07)
(2.74397e-09 4.20581e-09 6.38318e-08)
(1.16848e-09 -7.64727e-11 4.22019e-08)
(-1.66436e-09 -1.71281e-09 1.82244e-08)
(-1.31785e-08 1.08909e-10 2.32355e-07)
(3.68203e-10 -4.14894e-10 3.1332e-07)
(-1.64761e-09 5.49578e-10 2.71999e-07)
(-2.54774e-10 -1.33719e-09 1.89514e-07)
(1.0552e-09 2.36252e-10 2.813e-08)
(6.2589e-10 -2.36724e-09 2.11808e-08)
(-6.69872e-10 -2.77846e-09 1.76031e-07)
(-1.20205e-09 1.8226e-09 2.35702e-07)
(-8.2246e-10 -8.84334e-10 3.25699e-07)
(1.3549e-09 -2.84528e-10 3.21343e-07)
(-1.85285e-09 4.30803e-10 1.96039e-07)
(-2.55473e-10 -1.72195e-10 3.67389e-07)
(3.55502e-09 8.59562e-10 3.7103e-07)
(-1.21876e-09 2.57365e-09 2.98361e-08)
(4.04098e-10 1.3627e-09 1.79623e-07)
(3.21858e-09 -1.77976e-09 6.91982e-08)
(-9.91444e-09 -1.08861e-09 9.75831e-08)
(-3.97159e-10 5.60623e-10 1.30246e-07)
(6.72149e-10 -6.63159e-10 1.37332e-07)
(-1.02762e-11 4.38032e-10 2.5333e-07)
(-3.07217e-09 1.96066e-09 1.81097e-08)
(-2.35399e-10 -1.40531e-09 3.72697e-07)
(1.12364e-10 5.02213e-10 2.81988e-07)
(-5.59269e-10 -7.7985e-10 2.26709e-07)
(1.27429e-09 -1.46076e-09 1.95143e-07)
(8.01265e-10 -2.14197e-09 1.72761e-07)
(-6.36299e-10 -2.21182e-10 2.72246e-07)
(-5.65881e-10 1.11066e-09 2.42414e-07)
(-5.48573e-10 -5.09744e-11 3.23797e-07)
(-9.08213e-09 -8.58484e-10 1.66377e-07)
(-5.99846e-10 2.1851e-10 2.76229e-07)
(-5.0559e-09 2.46404e-09 2.90162e-07)
(1.26129e-09 -1.11231e-09 1.75169e-08)
(-7.69154e-10 -8.05731e-10 3.21186e-07)
(2.39727e-09 3.14441e-09 1.88087e-07)
(-4.0019e-09 -3.70267e-09 6.16795e-08)
(-1.957e-09 2.74146e-09 1.66865e-07)
(-6.63818e-10 8.8328e-10 3.53847e-07)
(-2.88561e-10 -2.27257e-09 2.20173e-07)
(1.19334e-09 2.96321e-09 1.13968e-07)
(-1.87245e-09 1.32629e-09 1.71465e-08)
(-6.33157e-10 -5.96867e-10 2.65772e-07)
(1.48254e-09 6.76638e-09 3.30973e-07)
(-1.01029e-09 -1.1422e-10 2.39771e-07)
(-1.17923e-09 -3.27307e-10 1.85163e-07)
(-3.32648e-09 9.86967e-10 5.45995e-08)
(2.74845e-10 -8.87312e-11 2.51277e-07)
(-4.01208e-09 3.27326e-10 2.64211e-08)
(3.37161e-11 8.47164e-10 1.77585e-07)
(-2.4387e-08 1.22603e-09 2.08665e-07)
(2.5215e-09 6.31173e-10 2.63202e-07)
(-3.22142e-10 2.99074e-09 8.39931e-08)
(-2.32629e-09 2.58254e-09 1.77858e-07)
(-1.82498e-11 1.42897e-09 1.11992e-07)
(2.63426e-09 -2.2217e-09 4.51431e-08)
(4.09549e-10 -8.54077e-10 5.02603e-07)
(-1.49553e-10 -6.02285e-10 2.21933e-07)
(-1.60058e-09 -6.35182e-10 1.6664e-08)
(-1.03667e-09 3.94035e-10 2.87426e-07)
(-9.32765e-10 4.75731e-10 3.03844e-07)
(-5.99286e-10 2.20432e-09 3.69199e-08)
(3.10998e-09 4.45627e-09 1.22661e-07)
(-2.47339e-09 3.53474e-09 9.50402e-08)
(-9.92599e-10 -5.03167e-10 1.92698e-07)
(7.18241e-10 -8.64174e-10 2.75165e-07)
(-1.32493e-09 1.30087e-09 3.49695e-08)
(2.73293e-09 -1.2944e-09 8.63871e-08)
(-3.31599e-10 1.89379e-09 9.75333e-08)
(1.92672e-09 1.725e-09 1.72397e-07)
(-3.88189e-11 -1.42761e-09 3.57987e-07)
(-2.58729e-09 -1.81582e-09 2.24335e-08)
(2.09224e-09 8.5063e-10 3.68929e-07)
(-6.44717e-09 -1.13681e-09 2.37083e-07)
(1.27396e-10 -1.27842e-09 2.88644e-07)
(-2.97657e-09 -6.12223e-09 1.14195e-07)
(-1.42924e-10 6.66969e-10 3.39229e-07)
(1.08571e-09 -2.12354e-09 2.17271e-08)
(-3.00058e-09 -6.37111e-10 2.9918e-07)
(1.49283e-10 -3.43607e-10 2.62907e-08)
(-8.72121e-10 -4.05505e-09 1.35559e-07)
(-1.04959e-10 1.72069e-09 2.27251e-07)
(-2.40487e-09 3.40685e-09 1.31433e-07)
(-2.41142e-09 1.4291e-09 1.80158e-08)
(4.95351e-10 -1.71866e-09 4.81877e-08)
(8.09438e-10 4.74844e-09 7.19341e-08)
(1.76182e-09 -4.12853e-09 1.26598e-07)
(-2.61956e-09 -4.66372e-10 3.23875e-07)
(4.26689e-11 1.29754e-09 5.51201e-08)
(2.56136e-09 -4.02086e-09 1.3104e-07)
(-2.73548e-08 1.09652e-09 2.25784e-07)
(-3.50556e-10 5.27195e-12 2.22009e-07)
(1.80117e-09 2.91852e-11 2.75698e-08)
(3.91347e-10 2.54254e-09 2.2169e-07)
(-1.54289e-08 -7.8148e-09 1.47279e-07)
(-1.30483e-10 5.06593e-10 2.08899e-07)
(-2.05244e-09 1.43653e-09 9.74729e-08)
(-8.53322e-10 -5.63688e-10 1.82131e-07)
(2.29628e-09 4.66595e-09 1.02246e-07)
(-8.40195e-10 1.12451e-09 1.58904e-07)
(-8.87087e-10 8.83755e-10 1.6824e-07)
(3.50454e-09 -5.88551e-09 6.89171e-08)
(3.84899e-10 -3.90024e-10 3.06703e-07)
(-4.78384e-09 -1.18453e-09 7.10237e-08)
(2.00515e-09 -1.26485e-09 1.46323e-08)
(-7.58897e-10 1.59637e-09 3.17585e-07)
(-2.87038e-10 4.1207e-10 2.01373e-07)
(-2.28673e-09 1.43989e-09 2.89699e-07)
(1.12053e-09 -3.288e-09 2.23871e-07)
(2.29003e-09 7.00273e-10 4.8982e-07)
(4.00321e-09 -5.22837e-10 1.31948e-07)
(1.97539e-09 -4.74741e-10 4.20375e-07)
(1.89892e-09 4.63551e-09 9.4533e-08)
(-2.22534e-10 -4.8796e-11 1.58549e-07)
(4.03895e-09 2.2643e-09 3.01231e-07)
(-3.59203e-09 -2.41432e-09 3.07566e-08)
(-2.52764e-09 5.04212e-10 3.04673e-07)
(2.29715e-09 -2.56376e-09 1.08921e-07)
(1.34629e-09 2.609e-09 2.83391e-08)
(-2.80252e-09 1.22525e-09 2.75394e-07)
(-2.29664e-09 1.15745e-10 5.94825e-08)
(-5.24772e-11 -3.57804e-10 2.02026e-07)
(-3.71911e-10 1.0039e-09 2.37296e-07)
(2.99928e-11 6.13585e-10 3.71511e-07)
(1.66244e-10 6.15859e-09 9.25064e-08)
(1.10505e-09 4.83475e-10 3.03988e-07)
(3.16681e-09 5.68723e-10 1.47344e-07)
(-5.65651e-11 1.45956e-10 3.39028e-07)
(-7.89624e-10 3.56209e-10 3.37895e-07)
(-1.08945e-09 1.69249e-09 3.00081e-07)
(-9.39766e-10 4.66076e-10 1.78959e-07)
(3.21916e-09 -1.24521e-09 4.63395e-08)
(3.81056e-10 6.10312e-10 6.69971e-08)
(8.54547e-10 2.97706e-10 1.89163e-07)
(1.04612e-09 -2.81699e-09 2.92411e-07)
(4.7955e-10 2.12606e-09 2.6769e-08)
(1.06449e-09 -2.62718e-10 2.53125e-07)
(9.3898e-11 1.26735e-09 5.02825e-07)
(-1.36053e-10 8.16522e-10 3.69046e-07)
(3.98184e-10 1.17058e-09 4.03638e-07)
(-4.16643e-09 1.23762e-09 2.42651e-07)
(-1.46055e-09 2.10174e-09 1.90933e-08)
(6.49198e-10 4.97487e-11 2.39415e-07)
(1.0182e-09 -1.78023e-09 1.43565e-07)
(-9.4462e-10 2.61898e-09 2.7019e-07)
(-2.07327e-10 6.76278e-10 1.56163e-07)
(-1.97158e-09 -1.30882e-09 3.34839e-08)
(-1.14779e-10 -2.68266e-10 2.28667e-07)
(-3.57403e-09 4.47299e-09 1.46223e-07)
(-4.77219e-10 -3.74885e-10 2.41834e-07)
(6.18814e-11 2.66095e-10 2.94942e-07)
(-7.49541e-10 2.27472e-09 1.99216e-07)
(1.14595e-09 1.55381e-09 1.29299e-08)
(-1.97538e-09 9.46187e-10 1.89495e-08)
(-9.54532e-11 7.99867e-10 2.00524e-07)
(2.48233e-09 -6.12324e-10 3.22657e-07)
(-1.55067e-09 3.62769e-10 2.51212e-07)
(-9.88508e-10 -1.30585e-09 1.8662e-07)
(-5.65463e-10 2.64357e-09 1.55649e-07)
(-8.27381e-10 1.87065e-09 2.56759e-07)
(9.23292e-11 1.80143e-09 3.0597e-07)
(6.51721e-10 1.55265e-09 1.84167e-08)
(-4.38143e-10 6.6403e-10 1.60835e-07)
(-1.95344e-08 1.12479e-09 1.74187e-07)
(-7.00683e-11 2.47799e-09 4.37144e-08)
(-5.9628e-10 5.33442e-09 8.1844e-08)
(-1.40868e-09 1.54992e-09 3.05549e-07)
(2.29529e-09 -1.19147e-09 2.1091e-07)
(-1.59832e-11 -6.92034e-10 1.96057e-07)
(1.23733e-09 -1.09327e-09 2.31444e-07)
(-3.90148e-09 2.85402e-09 1.34412e-07)
(1.44138e-09 1.40923e-10 3.64034e-07)
(1.18412e-09 -5.70473e-09 1.74377e-07)
(4.00009e-10 -7.60183e-10 4.50216e-07)
(1.08429e-10 9.18783e-10 2.30328e-07)
(-2.1498e-10 -2.77036e-10 2.59736e-07)
(-1.62083e-10 -1.69053e-10 3.37841e-07)
(1.87709e-09 1.27418e-09 4.51377e-08)
(-6.04546e-10 -1.07396e-10 5.57106e-07)
(-2.71985e-10 -1.61827e-09 3.17011e-08)
(-1.66872e-08 -2.26132e-09 1.48944e-07)
(3.91995e-09 -2.78147e-09 1.10942e-07)
(-1.69232e-08 -9.69848e-11 1.6164e-07)
(9.95123e-10 1.31881e-09 2.10921e-07)
(-4.83553e-08 1.12985e-09 2.90783e-07)
(7.25947e-11 6.11133e-10 1.47042e-07)
(-1.36074e-09 5.86885e-11 3.37304e-07)
(-4.17205e-09 4.24084e-10 3.42947e-07)
(-7.2769e-11 4.08771e-10 2.26056e-07)
(-6.62568e-10 -2.23666e-10 3.29533e-08)
(-5.3484e-09 1.64872e-10 1.18483e-07)
(-3.01148e-08 2.1118e-09 2.10306e-07)
(-1.79442e-10 -2.4846e-10 2.32487e-07)
(-7.40606e-10 1.91162e-09 9.76749e-08)
(-2.2901e-08 1.46185e-09 2.1824e-07)
(-9.22159e-09 1.62565e-10 2.39177e-07)
(1.44499e-09 3.29344e-09 3.0071e-07)
(-1.64269e-09 -6.19032e-10 4.19304e-08)
(1.35817e-09 2.54782e-09 5.15543e-08)
(-2.24684e-10 -1.42116e-10 2.57584e-08)
(1.03295e-09 9.66018e-10 1.8456e-08)
(-1.96105e-10 4.34952e-12 4.19566e-08)
(-1.86119e-08 4.33069e-10 2.21598e-07)
(-1.02849e-09 -1.03507e-09 1.82444e-07)
(-1.66556e-09 -1.88476e-09 1.75648e-08)
(-2.45441e-09 6.63311e-10 1.94174e-08)
(3.00821e-10 -3.12127e-10 3.91167e-07)
(-2.5772e-08 5.66598e-09 1.66161e-07)
(-2.01063e-09 2.12283e-10 4.44548e-08)
(-1.1348e-09 1.48569e-11 2.28197e-07)
(-1.53206e-09 1.04709e-09 1.04547e-07)
(1.84301e-09 -6.98118e-10 2.00408e-07)
(1.35458e-09 2.08492e-09 4.21096e-08)
(-1.84525e-09 -2.35008e-09 9.01959e-08)
(2.81347e-10 2.16613e-09 1.87644e-07)
(1.49795e-09 2.61475e-10 2.83406e-07)
(1.5251e-09 1.1001e-09 4.04357e-07)
(-2.11521e-09 2.85929e-09 4.04357e-08)
(-5.66692e-10 -2.03099e-09 2.32968e-08)
(-3.58748e-08 3.79425e-10 2.01614e-07)
(-2.75263e-09 2.09245e-09 2.64997e-08)
(-6.56524e-10 2.76379e-09 3.08388e-07)
(-3.48319e-09 -1.13292e-09 2.70367e-08)
(6.69365e-10 3.04329e-09 1.43938e-07)
(-2.5177e-09 1.48433e-10 3.29241e-07)
(2.96659e-09 6.67571e-10 4.50927e-07)
(-4.38613e-10 -1.23572e-09 5.59133e-08)
(1.37826e-09 -6.16319e-10 1.3574e-07)
(-2.07339e-09 -2.51083e-10 3.7107e-08)
(-3.44616e-09 -2.37394e-10 2.74944e-08)
(-6.0983e-10 -1.05962e-09 2.81986e-07)
(-1.90094e-09 9.4736e-10 1.385e-08)
(7.2523e-10 2.07292e-10 1.8852e-07)
(-3.99075e-10 -3.08769e-09 5.84103e-08)
(-5.25106e-10 2.85969e-09 3.30402e-07)
(-3.58056e-10 1.3144e-09 2.25949e-07)
(2.71983e-09 1.08998e-09 1.82173e-08)
(-2.6121e-09 -6.04454e-09 1.29839e-07)
(2.79944e-10 1.47711e-09 2.49414e-07)
(-1.32213e-10 1.47124e-09 2.99017e-08)
(1.00793e-09 1.23844e-09 2.9863e-07)
(-1.89831e-09 5.29494e-09 7.61406e-08)
(2.01815e-10 1.89902e-10 2.08592e-07)
(7.33815e-11 -2.69254e-10 2.46581e-07)
(1.89102e-09 -7.9862e-11 5.28644e-08)
(-2.68221e-09 -5.57276e-10 2.02703e-08)
(-1.83398e-09 -6.80171e-10 8.81618e-08)
(-3.90839e-08 2.10202e-10 2.43643e-07)
(-1.3825e-09 -7.11181e-11 2.19028e-07)
(1.23606e-11 5.03191e-09 7.41079e-08)
(2.33645e-09 -5.98288e-10 1.76516e-07)
(3.29318e-10 9.588e-10 2.31215e-08)
(3.55596e-10 -3.90791e-11 2.20014e-07)
(1.06325e-09 1.42951e-09 2.22501e-08)
(-1.88392e-09 3.92906e-10 3.4425e-07)
(-1.07566e-10 -7.5776e-10 2.99714e-07)
(-8.63041e-10 -1.34598e-10 2.28533e-07)
(-1.3386e-09 -1.37626e-10 1.37033e-08)
(2.03799e-10 -1.36498e-09 3.45265e-07)
(-1.99631e-09 9.31105e-10 1.5342e-07)
(-2.69102e-10 -5.2577e-11 3.64192e-07)
(2.52621e-10 7.3527e-10 6.03355e-08)
(-3.00685e-08 8.07013e-10 2.22572e-07)
(-2.11719e-09 5.85336e-10 2.65135e-07)
(1.02112e-09 -1.70989e-10 6.24504e-08)
(-8.12728e-10 -5.73588e-11 2.78628e-07)
(-3.94729e-08 4.58876e-09 2.10066e-07)
(-1.09843e-09 -6.76429e-10 1.7912e-07)
(-7.27525e-10 -1.75023e-09 3.12654e-08)
(-2.47382e-09 4.81588e-09 9.61931e-08)
(-1.53295e-10 2.81814e-10 2.06533e-07)
(2.00324e-09 -1.45237e-09 2.15311e-07)
(-1.07944e-09 1.26491e-09 3.02577e-08)
(-3.09881e-10 -4.44801e-09 2.14271e-07)
(3.6706e-09 3.17705e-09 1.53088e-07)
(-1.57318e-09 1.87477e-09 2.33738e-08)
(-4.70612e-10 -6.73089e-13 2.16818e-07)
(-1.54656e-08 7.4767e-10 1.5832e-07)
(-2.38853e-09 -5.31352e-09 3.201e-07)
(-7.23783e-11 7.15561e-10 2.10812e-07)
(7.22276e-10 8.50942e-10 1.9396e-07)
(-8.58551e-11 1.09779e-10 3.23457e-07)
(1.5633e-09 -7.94907e-10 2.52286e-07)
(1.70487e-09 5.8691e-10 6.72917e-08)
(-8.85803e-10 4.59666e-09 6.89656e-08)
(-8.57392e-10 1.72112e-09 4.02359e-07)
(-2.67257e-08 -1.14965e-09 2.24792e-07)
(2.92039e-10 1.75626e-09 2.03895e-07)
(2.05465e-09 -1.99006e-09 1.84635e-07)
(2.99611e-09 -1.50888e-09 1.22843e-07)
(-1.2707e-09 3.43288e-09 3.23595e-07)
(8.84596e-10 1.11742e-09 2.07955e-07)
(-1.69598e-09 -1.84128e-09 1.759e-07)
(-3.52568e-09 2.23294e-09 2.19043e-07)
(-1.69355e-09 2.31136e-09 4.29173e-08)
(-1.12363e-09 -7.08048e-10 1.63994e-07)
(-2.31423e-09 -1.78609e-09 3.7111e-08)
(2.07188e-09 -1.82044e-09 3.15181e-07)
(1.01971e-09 -8.68112e-10 3.40109e-07)
(-1.6377e-09 4.86476e-09 1.60979e-07)
(1.00497e-11 -1.70201e-09 1.5729e-07)
(9.68984e-10 -1.46814e-09 1.68855e-08)
(3.1916e-10 -9.7419e-10 1.00879e-07)
(-3.5407e-09 -1.67817e-09 7.21716e-08)
(-1.60483e-09 3.4279e-10 2.76578e-07)
(9.21263e-10 4.48485e-10 2.51e-07)
(-2.37548e-08 -1.53643e-09 2.20569e-07)
(-1.84866e-09 1.20979e-09 3.22183e-07)
(-1.49139e-09 2.64661e-09 7.94547e-08)
(-1.11837e-08 5.10418e-10 1.36574e-07)
(1.25341e-09 -3.7073e-09 2.41507e-07)
(1.7426e-09 8.81826e-10 2.55402e-08)
(3.75312e-10 -4.89614e-10 2.57716e-07)
(-1.79983e-10 1.44703e-09 5.16858e-08)
(-1.99408e-09 -2.74908e-10 2.05882e-07)
(3.81638e-09 -1.99249e-09 3.01171e-08)