/*--------------------------------*- C++ -*----------------------------------*\
| =========                 |                                                 |
| \\      /  F ield         | OpenFOAM: The Open Source CFD Toolbox           |
|  \\    /   O peration     | Version:  2406                                  |
|   \\  /    A nd           | Website:  www.openfoam.com                      |
|    \\/     M anipulation  |                                                 |
\*---------------------------------------------------------------------------*/
FoamFile
{
    version     2.0;
    format      ascii;
    arch        "LSB;label=32;scalar=64";
    class       volVectorField;
    location    "67";
    object      momentum:momentum;
}
// * * * * * * * * * * * * * * * * * * * * * * * * * * * * * * * * * * * * * //

dimensions      [1 1 -1 0 0 0 0];

internalField   nonuniform List<vector> 
59516
(
(2.22803e-07 -2.54302e-09 -1.17417e-09)
(1.63931e-07 -1.5974e-10 -6.88453e-10)
(2.01075e-07 -9.74947e-10 -8.92324e-10)
(1.7166e-07 1.67437e-09 2.40929e-09)
(1.99985e-07 3.71035e-10 -8.02692e-09)
(5.03649e-08 -2.40657e-09 -5.37987e-09)
(2.09129e-07 -3.65587e-09 -3.85141e-09)
(1.91072e-07 1.19184e-09 -2.29493e-10)
(1.54569e-07 1.22641e-09 -5.32387e-11)
(7.6169e-08 -1.52145e-09 2.94223e-09)
(2.08442e-07 -4.74888e-10 -3.42299e-09)
(1.01531e-07 3.24117e-10 -6.38697e-09)
(3.16771e-07 3.21109e-09 1.95764e-10)
(1.5375e-08 -9.97999e-11 -1.411e-10)
(1.45809e-07 3.47807e-09 8.12398e-09)
(8.18566e-08 5.67196e-09 -2.50288e-09)
(2.7031e-07 -4.5553e-09 -2.1644e-09)
(1.59724e-07 9.15909e-09 -1.00095e-08)
(3.29723e-07 1.76702e-08 1.75575e-09)
(3.74268e-07 -4.38848e-09 -1.24201e-09)
(9.93618e-08 1.72541e-09 -2.39302e-09)
(3.17242e-07 -2.09611e-09 5.06915e-10)
(3.51244e-07 -2.80513e-09 -6.4802e-09)
(3.33194e-08 -1.02085e-09 -2.87952e-10)
(3.13634e-07 -1.35137e-09 5.55333e-10)
(1.93832e-07 4.52729e-09 1.92259e-09)
(5.01626e-08 9.95617e-10 -3.54178e-09)
(7.40274e-08 6.34058e-09 3.16277e-10)
(1.44289e-07 6.10651e-09 -1.38548e-09)
(1.27618e-08 -1.9863e-09 4.83917e-10)
(1.89464e-07 -3.67861e-08 -8.11097e-09)
(8.3672e-08 6.75635e-09 -1.06513e-09)
(1.73063e-07 8.85098e-11 1.05755e-09)
(1.72771e-07 -1.54781e-09 3.05124e-09)
(1.3367e-07 5.30401e-09 3.8015e-09)
(3.9954e-07 7.77756e-10 -1.44712e-09)
(1.23848e-08 -1.20363e-09 -1.72218e-09)
(1.31643e-07 5.05407e-09 -1.27421e-08)
(2.66368e-07 -1.09394e-08 -1.12977e-09)
(2.8453e-07 5.13282e-10 -1.41541e-09)
(2.51884e-07 -1.38164e-09 5.85361e-10)
(4.06993e-07 -2.42594e-08 -2.26124e-08)
(3.43334e-07 -9.76149e-09 -8.16459e-09)
(1.08061e-07 -6.8976e-10 3.00838e-10)
(2.64672e-07 -1.04304e-08 -9.76551e-10)
(9.8855e-08 -1.35103e-09 -2.27819e-09)
(3.24315e-07 -7.5407e-09 -1.13327e-08)
(2.55054e-07 -8.32238e-09 -1.73044e-09)
(2.51867e-07 -2.02458e-08 2.78762e-08)
(2.41319e-07 1.1085e-08 8.61307e-09)
(1.63915e-07 1.65029e-08 -2.28732e-08)
(7.32021e-08 -6.44482e-09 4.39495e-09)
(3.10603e-07 2.82634e-09 -6.05472e-09)
(2.95752e-07 -1.35158e-09 3.21577e-10)
(8.2017e-08 5.27796e-09 -4.92169e-11)
(2.45983e-07 5.95152e-09 -1.86437e-09)
(2.03477e-07 1.17049e-08 1.19993e-08)
(7.34454e-08 6.46414e-09 -4.51683e-09)
(2.15122e-07 -3.27216e-12 -4.7186e-10)
(1.45875e-07 7.00208e-09 8.76774e-09)
(2.09034e-07 -8.11346e-10 -1.07117e-10)
(1.45882e-08 1.8472e-09 -6.38723e-10)
(2.74441e-07 4.76354e-10 1.38296e-09)
(3.44892e-07 6.08989e-09 4.75552e-09)
(2.84269e-07 7.94199e-10 -2.02817e-09)
(2.15573e-07 5.81075e-09 8.30124e-09)
(1.72338e-08 -1.16944e-09 1.57599e-09)
(6.38605e-08 4.12607e-10 -3.89669e-10)
(1.98343e-07 -8.2432e-09 3.62867e-08)
(1.68885e-07 1.57826e-09 -4.56635e-09)
(4.9763e-08 1.35236e-09 4.08724e-10)
(1.58799e-07 2.74203e-09 -4.2286e-10)
(2.22198e-08 1.38964e-09 -3.37609e-09)
(1.86248e-07 2.37836e-09 1.00602e-09)
(3.94705e-07 -1.01396e-09 -1.15259e-09)
(3.60725e-07 -6.2851e-09 -7.84842e-09)
(2.15253e-07 -3.77132e-09 -5.59111e-09)
(2.26994e-07 -4.76634e-10 7.15695e-10)
(8.12568e-08 -2.66615e-09 2.56887e-09)
(1.93371e-07 4.0191e-09 1.02627e-08)
(4.82061e-08 2.97638e-09 1.43215e-09)
(1.7162e-07 4.97049e-09 7.46679e-09)
(1.82954e-07 2.51542e-09 8.06853e-09)
(1.73061e-08 -6.49651e-10 2.42687e-09)
(2.15325e-07 4.93166e-09 9.84518e-09)
(3.88605e-07 -2.88073e-09 1.96751e-10)
(3.02838e-08 -1.12203e-09 4.88359e-10)
(5.01676e-07 -2.15247e-09 -1.82518e-09)
(1.06704e-07 1.33059e-09 4.11254e-09)
(1.66756e-07 1.32095e-08 -9.07844e-09)
(1.83365e-07 -1.22599e-09 -1.60847e-08)
(1.89697e-07 1.84131e-09 -5.12275e-10)
(2.66766e-07 8.9222e-10 -7.42401e-10)
(1.82308e-07 1.14526e-09 -4.31025e-10)
(1.87343e-07 -1.58097e-10 -1.82479e-12)
(1.83414e-07 -1.75636e-08 6.56226e-09)
(1.24032e-07 -2.66135e-10 3.42431e-10)
(8.15245e-08 -3.0741e-09 -6.49263e-09)
(1.15033e-07 4.3718e-09 -1.90997e-09)
(2.07928e-07 -1.03567e-09 2.59266e-09)
(5.97997e-08 8.91874e-10 2.27016e-09)
(2.50535e-08 1.30794e-09 -2.82861e-09)
(2.21362e-08 7.88556e-10 3.02691e-09)
(8.18961e-08 -1.21847e-09 -4.54052e-09)
(2.31842e-07 1.40686e-09 -3.12578e-10)
(1.65006e-07 -5.92611e-10 -5.64196e-10)
(5.28973e-08 4.66531e-09 -1.94201e-09)
(1.3444e-07 3.4555e-10 -1.05412e-09)
(1.71242e-07 -1.1812e-09 4.44104e-10)
(1.82121e-07 1.12024e-09 -7.29038e-09)
(2.80324e-07 2.90226e-08 -3.04534e-08)
(4.12641e-08 4.19826e-09 -7.01396e-10)
(1.8086e-07 2.37195e-09 -1.14331e-08)
(2.19233e-07 3.23798e-08 -1.62512e-08)
(2.23304e-07 -2.76926e-10 3.0201e-10)
(1.33105e-07 1.50739e-09 1.65478e-09)
(1.21871e-07 1.40201e-09 -4.50929e-09)
(1.42734e-07 -1.12952e-10 7.32997e-10)
(1.74983e-08 -2.56734e-10 8.45046e-10)
(2.62793e-07 1.97347e-09 6.08772e-10)
(4.37703e-07 4.6205e-11 1.99097e-10)
(1.82092e-07 -2.53961e-10 6.80916e-10)
(1.60384e-07 -1.63274e-11 8.06245e-10)
(1.88956e-07 -2.65821e-10 3.66746e-10)
(1.33089e-07 -1.79397e-08 2.7452e-09)
(1.43605e-07 2.10549e-09 -4.92871e-09)
(3.42898e-08 -6.68509e-10 2.24306e-09)
(2.12296e-07 -2.1191e-08 -1.79838e-09)
(1.63212e-07 -5.00457e-09 2.3874e-08)
(1.671e-07 9.37657e-11 -2.57558e-10)
(3.00017e-07 2.44277e-10 -3.13753e-10)
(3.17279e-07 5.12035e-09 5.45773e-09)
(2.15437e-08 1.29251e-09 -1.47622e-09)
(2.54215e-07 -9.58943e-10 4.57815e-10)
(3.08299e-07 3.16852e-09 8.95291e-10)
(1.92378e-07 -1.00957e-09 -3.79715e-09)
(1.51777e-07 1.81158e-08 -1.26735e-08)
(3.08206e-07 -9.28431e-10 7.05546e-10)
(4.96257e-08 3.44354e-09 1.73039e-10)
(1.56601e-07 1.05137e-09 -2.15544e-09)
(7.32975e-08 -1.44575e-09 -3.77944e-09)
(3.48806e-07 -9.11888e-10 1.95429e-10)
(1.3214e-08 5.52489e-10 1.15067e-09)
(1.48382e-07 -1.08032e-09 -8.15942e-10)
(2.23121e-07 6.80881e-10 1.82803e-09)
(2.83978e-07 4.85446e-09 1.29065e-09)
(2.02715e-07 -8.16198e-09 -3.19386e-09)
(2.04217e-07 3.45179e-09 -5.64723e-09)
(6.40332e-08 -1.03594e-09 1.78429e-09)
(2.03519e-07 -9.25378e-10 -2.04537e-09)
(3.1376e-07 -1.77605e-09 -2.69587e-09)
(4.9637e-08 -1.91053e-09 8.59293e-12)
(3.92856e-07 -2.15272e-09 2.16528e-09)
(2.18943e-07 1.05134e-10 -1.92471e-10)
(1.55161e-07 2.58496e-11 3.9928e-09)
(1.38545e-08 -2.52729e-10 1.48455e-09)
(2.71827e-07 -1.34173e-09 -6.70885e-10)
(3.25223e-07 5.35845e-09 -1.07218e-10)
(1.26292e-07 2.22834e-09 5.11549e-10)
(1.49019e-08 1.76869e-09 -1.93988e-09)
(8.66281e-08 2.27182e-09 -4.27771e-09)
(1.08849e-07 -5.83397e-09 -3.52399e-09)
(3.7873e-08 -1.52634e-09 3.69159e-10)
(2.12248e-08 -1.82531e-10 -4.10052e-10)
(1.58224e-07 2.98912e-09 3.95117e-09)
(3.39896e-07 -6.29227e-10 1.88003e-09)
(1.50618e-07 -2.11679e-09 1.11982e-09)
(2.93369e-07 2.13763e-09 -2.99689e-10)
(1.66416e-08 -1.05227e-09 1.87891e-09)
(2.15297e-07 -8.32604e-10 -4.97458e-10)
(8.48048e-08 1.54861e-09 1.22957e-09)
(6.48429e-08 1.07951e-09 -9.881e-10)
(1.019e-07 2.74157e-09 1.21149e-09)
(1.50309e-07 5.70212e-11 6.04513e-10)
(8.1529e-08 -1.16218e-09 3.34379e-10)
(4.52757e-07 -5.71862e-09 -1.88888e-08)
(2.55491e-07 -4.01983e-10 -1.23154e-09)
(3.10065e-07 -1.23029e-08 -7.8146e-09)
(1.44238e-07 -1.71201e-09 6.661e-09)
(5.91866e-08 -1.6686e-10 -8.08617e-10)
(3.07951e-07 5.6426e-09 1.09489e-09)
(4.0684e-08 -3.63391e-09 -1.68799e-09)
(2.81322e-08 -3.31282e-10 -2.19821e-09)
(1.00892e-07 -2.41902e-09 2.77252e-10)
(2.15955e-07 8.0837e-10 8.92493e-10)
(9.3847e-08 5.24526e-10 1.13089e-09)
(4.40382e-08 -6.59272e-10 -3.44997e-09)
(1.91904e-08 1.36216e-11 2.60703e-10)
(1.88311e-07 6.80041e-10 -6.64037e-11)
(2.19866e-07 -3.7527e-09 -2.3791e-10)
(1.5884e-07 -4.93584e-10 3.0445e-09)
(1.10097e-07 6.79202e-09 -1.99764e-10)
(2.18419e-07 -2.13353e-09 1.2642e-10)
(9.01756e-08 3.17147e-09 1.28375e-10)
(3.39797e-07 -5.90705e-10 -2.16499e-09)
(2.75535e-08 -2.33762e-10 7.55215e-10)
(9.28404e-08 1.32588e-09 -5.23963e-11)
(5.38228e-08 -1.56124e-09 3.95876e-10)
(1.80604e-07 5.08317e-09 5.92596e-09)
(2.66674e-07 1.00631e-09 -1.12182e-09)
(7.50709e-08 -2.66978e-09 2.0871e-10)
(2.07615e-07 -4.38876e-10 8.84188e-11)
(3.03425e-07 -2.47617e-09 2.38454e-09)
(1.51198e-08 1.63174e-09 -1.12973e-09)
(2.16722e-07 -1.29481e-09 -9.86396e-10)
(2.38962e-07 9.43591e-10 5.45999e-10)
(3.66401e-07 8.19458e-10 -9.30153e-10)
(2.02759e-07 -1.96345e-09 -1.23665e-09)
(1.73106e-08 -5.74531e-10 1.63832e-10)
(2.95814e-07 -5.55234e-09 -4.09102e-10)
(5.80808e-08 4.10374e-09 3.71022e-09)
(2.50577e-08 -4.13289e-09 -6.85692e-10)
(2.31055e-07 1.34565e-10 -2.4944e-09)
(9.06913e-08 -2.01011e-09 1.22514e-09)
(2.87345e-07 4.01444e-09 8.16523e-11)
(2.97279e-07 2.13118e-10 -7.09832e-10)
(2.72896e-07 3.49695e-09 1.45159e-09)
(2.09237e-07 -1.9433e-09 6.86196e-10)
(7.92114e-08 3.18609e-09 -4.27484e-09)
(2.20724e-07 -1.27817e-10 1.11462e-09)
(1.13373e-07 4.27428e-09 4.14713e-09)
(1.9228e-07 9.12919e-10 5.24177e-10)
(1.85002e-07 9.70948e-10 1.14775e-09)
(6.96415e-08 -2.65736e-10 1.11782e-09)
(3.08654e-07 2.87573e-10 -8.05471e-10)
(3.23429e-07 -3.15861e-10 -7.36089e-10)
(3.04407e-08 -3.67449e-10 1.54042e-09)
(6.22188e-08 2.00367e-09 -2.93836e-09)
(2.07171e-07 5.82498e-10 9.56942e-10)
(1.1296e-07 6.0151e-10 -8.70016e-09)
(2.5031e-07 -8.56795e-10 -6.06017e-11)
(1.87482e-07 3.82785e-10 -4.75791e-10)
(3.44629e-07 1.27819e-09 1.36934e-09)
(2.52949e-08 -1.96005e-09 -1.42559e-09)
(2.96082e-08 7.86958e-10 -1.39878e-09)
(3.71122e-08 1.0434e-09 -1.34515e-09)
(1.04558e-07 7.01573e-10 -8.62543e-11)
(1.68964e-07 -2.05367e-09 1.21465e-09)
(4.26998e-07 3.02939e-09 3.79796e-09)
(8.29149e-08 -1.84315e-09 2.34403e-09)
(2.70434e-07 -3.87128e-10 5.82473e-10)
(1.76567e-08 3.14813e-10 2.60765e-09)
(1.05298e-07 4.73299e-11 1.79749e-09)
(2.53098e-08 1.29946e-10 2.81053e-09)
(1.7524e-07 3.48664e-10 5.39661e-10)
(1.4752e-07 -1.01662e-09 -9.85886e-11)
(1.98067e-07 3.96676e-10 1.88319e-09)
(1.79637e-07 3.10878e-09 -4.09318e-09)
(2.85679e-07 3.72577e-10 -1.35925e-09)
(1.95128e-07 9.8163e-10 1.07968e-09)
(3.90199e-07 7.84407e-10 2.49753e-10)
(2.1276e-07 -1.95323e-10 1.32082e-09)
(2.09072e-07 4.3046e-10 7.59952e-10)
(2.82723e-07 2.03154e-09 -1.9744e-09)
(2.84199e-07 2.183e-09 2.70865e-09)
(3.053e-07 -4.94337e-10 2.39981e-09)
(1.06938e-07 1.58701e-11 -5.17141e-10)
(2.87207e-07 2.00346e-09 3.76512e-09)
(7.62386e-08 -8.33168e-10 -4.23141e-09)
(9.32366e-08 7.07235e-10 3.22655e-09)
(2.15309e-07 1.48212e-09 -1.82118e-09)
(2.68061e-07 -4.64804e-10 4.28455e-10)
(2.33471e-07 6.91123e-09 3.3975e-09)
(2.9953e-07 5.47613e-10 4.78891e-10)
(7.17869e-08 1.71254e-10 1.55924e-09)
(1.02272e-07 3.88282e-09 -2.89225e-09)
(3.10686e-07 -4.80157e-10 -2.8112e-09)
(2.07825e-07 4.62605e-09 1.12464e-09)
(5.81221e-08 -1.00058e-09 -9.65659e-10)
(7.11863e-08 4.25805e-10 -2.06561e-09)
(1.6341e-07 1.903e-09 -5.83969e-09)
(1.95401e-07 1.25155e-10 -3.08351e-10)
(2.98586e-07 -7.90355e-09 2.40161e-10)
(1.43768e-07 -2.55006e-09 1.42922e-09)
(3.43324e-07 -2.16572e-09 -1.35762e-09)
(1.82793e-07 -1.29451e-09 4.62131e-09)
(1.82081e-08 2.19004e-09 -1.22857e-09)
(3.02992e-07 7.53719e-10 1.30589e-09)
(2.70325e-08 1.73335e-09 -2.33771e-09)
(4.95606e-08 -2.03487e-09 1.41899e-09)
(3.80733e-07 1.38478e-09 2.1097e-09)
(2.48154e-07 6.43411e-10 -6.78098e-10)
(2.63347e-08 2.80689e-09 2.80379e-09)
(2.91946e-07 2.02161e-09 1.24948e-09)
(2.40609e-07 4.98532e-09 -2.49081e-10)
(2.53415e-07 -2.66599e-09 3.25634e-09)
(3.46781e-07 -5.25492e-10 7.33201e-10)
(2.18256e-08 2.59339e-09 4.46002e-10)
(3.00501e-07 1.06821e-09 6.02918e-10)
(1.62624e-07 6.88495e-11 -6.39577e-12)
(1.67603e-07 2.45649e-10 6.83206e-10)
(2.51037e-07 1.78803e-09 1.49578e-09)
(1.70271e-07 7.53915e-10 7.61655e-10)
(1.71146e-07 1.02874e-09 -3.39626e-10)
(2.73679e-07 9.74261e-10 4.36562e-10)
(3.64463e-08 -1.30215e-09 -1.67349e-09)
(2.91107e-07 -3.48934e-10 8.54909e-10)
(1.89543e-07 -3.02179e-10 -8.9887e-10)
(3.92379e-07 9.04133e-10 4.13471e-10)
(2.80157e-07 1.67072e-09 1.14161e-09)
(3.03515e-07 -1.12459e-09 1.67324e-09)
(1.29509e-07 2.11429e-09 2.88082e-09)
(1.85846e-08 -2.89271e-10 1.28454e-09)
(3.3214e-08 -8.0518e-10 5.36011e-10)
(5.1533e-07 -3.72067e-09 -3.42635e-09)
(1.69526e-08 -9.85855e-10 2.43908e-09)
(1.66012e-07 -8.82229e-10 -2.98485e-09)
(6.98905e-08 3.91068e-09 1.52117e-09)
(3.24838e-07 1.54948e-09 1.62442e-09)
(3.87292e-07 -9.12663e-10 -8.50564e-10)
(3.16433e-07 -1.25275e-10 -2.06171e-09)
(1.17531e-07 3.49645e-10 -2.74576e-09)
(2.86891e-07 4.87669e-09 -7.01927e-09)
(6.38133e-08 -5.38678e-09 4.30581e-09)
(8.63065e-08 2.10707e-09 1.68756e-09)
(2.04459e-07 1.03771e-09 -5.25537e-12)
(1.50678e-07 1.52094e-09 -1.44855e-09)
(2.69464e-07 3.08717e-08 8.75818e-09)
(1.86537e-07 -4.20975e-09 1.91698e-09)
(6.05346e-08 -2.20118e-10 -5.67772e-10)
(9.80484e-08 -1.41366e-09 3.18858e-09)
(2.01905e-07 -1.86288e-09 -3.13637e-09)
(2.25536e-07 -8.30787e-11 -5.34806e-10)
(4.50171e-07 -2.11084e-09 2.08129e-09)
(2.42027e-07 5.18154e-10 1.49102e-09)
(4.95102e-07 -4.65132e-09 1.17201e-09)
(1.66583e-07 6.6481e-09 7.95492e-09)
(3.31901e-07 1.67444e-09 2.36915e-09)
(2.86381e-07 1.07104e-09 1.55759e-09)
(2.00478e-07 -9.64489e-10 9.50636e-11)
(3.44107e-07 -2.09337e-09 1.73251e-09)
(1.0042e-07 2.02233e-09 -6.18204e-09)
(2.18346e-08 -1.4827e-09 -2.5489e-09)
(2.95467e-07 -2.72194e-09 3.60623e-10)
(5.45531e-08 -2.70575e-09 3.00436e-09)
(2.6404e-08 5.66893e-11 3.2046e-11)
(4.02345e-07 1.30786e-09 4.84837e-09)
(1.9833e-07 1.54182e-10 4.79988e-10)
(1.06131e-07 -2.23545e-09 -5.42203e-09)
(2.65454e-07 -9.04035e-10 4.50159e-10)
(3.34547e-07 -1.10643e-09 8.05454e-10)
(4.52784e-07 -9.50882e-11 -1.18234e-09)
(2.78423e-07 -1.9829e-09 -7.60431e-10)
(2.93517e-08 1.4208e-09 7.24521e-11)
(3.19111e-07 -8.5548e-10 9.3915e-11)
(2.31169e-07 -7.68847e-10 5.65097e-10)
(9.35951e-08 2.67057e-10 1.44639e-09)
(3.15373e-07 6.20811e-11 1.65702e-09)
(2.64741e-07 -1.61398e-11 2.54785e-10)
(1.7103e-07 -1.23446e-10 -1.22893e-09)
(1.96543e-07 5.85512e-10 -1.60218e-09)
(2.79198e-07 -1.99542e-09 3.25717e-09)
(2.00583e-07 -1.53278e-09 2.44267e-10)
(7.43273e-08 -3.99743e-10 -9.12961e-11)
(1.892e-08 7.98798e-10 -6.1012e-10)
(3.6954e-08 -2.78713e-09 -1.72594e-10)
(2.11114e-07 1.01057e-09 -9.14117e-10)
(2.67865e-07 -2.10893e-08 3.30074e-08)
(1.15791e-07 -6.52185e-09 -9.44625e-09)
(1.06207e-07 5.49795e-10 5.82552e-10)
(2.41332e-07 2.48531e-10 4.28075e-09)
(3.05511e-07 -1.76003e-11 2.95484e-09)
(2.324e-07 -2.42854e-09 6.11482e-09)
(3.60924e-07 -2.23692e-09 2.15771e-09)
(3.33156e-07 -2.38766e-09 -1.49509e-09)
(2.24116e-07 -1.17606e-10 7.76296e-10)
(1.39159e-07 8.26249e-10 2.43529e-10)
(2.25115e-08 -7.14072e-10 -2.72697e-10)
(2.41095e-07 -4.7544e-08 5.84562e-09)
(8.26807e-08 2.06806e-09 6.36659e-10)
(5.98913e-08 -2.62394e-09 -6.04101e-10)
(6.35879e-08 1.40918e-09 5.02975e-10)
(1.76074e-07 -5.97092e-10 -5.9226e-10)
(1.67395e-07 -1.03721e-09 -4.54748e-12)
(2.38738e-07 8.97555e-10 -1.79857e-09)
(1.576e-08 8.4002e-10 -1.35112e-09)
(1.66278e-07 -4.07833e-10 4.29539e-10)
(6.07156e-08 1.41892e-09 -1.1911e-09)
(1.91347e-07 -1.70279e-10 -8.17853e-11)
(5.21553e-08 -7.30641e-10 -5.74496e-10)
(1.41901e-07 -3.24506e-09 2.4342e-09)
(2.09901e-07 -5.72642e-09 1.38567e-09)
(1.85491e-07 -1.5184e-09 1.27172e-09)
(1.75229e-08 1.35517e-09 -1.90229e-09)
(1.06904e-07 -1.16814e-09 4.28249e-09)
(2.35687e-07 -3.03056e-10 8.96112e-10)
(2.34083e-08 -1.45674e-09 -1.90808e-09)
(2.89748e-07 2.92751e-09 2.11446e-08)
(1.77354e-07 -1.29722e-09 4.08184e-09)
(2.99006e-07 -1.57443e-09 -4.87684e-09)
(1.93025e-07 4.26749e-09 -6.21991e-09)
(8.98087e-08 -1.31621e-09 2.21132e-09)
(4.00716e-07 1.10478e-09 8.29889e-10)
(1.42013e-07 -1.4564e-08 -1.32242e-08)
(3.51924e-07 2.42554e-10 -1.02802e-10)
(1.55532e-07 1.20869e-08 1.26029e-08)
(1.34989e-07 -6.29233e-09 8.04686e-10)
(1.37157e-07 -1.08443e-09 -3.09914e-09)
(2.86878e-07 -1.49909e-10 5.11633e-10)
(5.65703e-07 3.57065e-10 8.90638e-10)
(7.59319e-08 -7.68644e-10 9.19577e-10)
(3.3049e-07 7.09199e-10 -1.53368e-09)
(1.14655e-07 -5.44607e-10 -2.67758e-09)
(4.63532e-07 8.88354e-10 9.94849e-10)
(3.52936e-07 -4.91688e-10 1.8474e-09)
(6.57544e-08 1.94968e-09 -5.05582e-09)
(2.14263e-07 -1.81515e-09 3.71176e-10)
(3.81161e-07 -4.72111e-09 4.59463e-09)
(2.27703e-07 9.93909e-10 -1.2044e-09)
(2.23509e-07 1.204e-09 7.44954e-10)
(2.21821e-08 -7.59864e-10 -2.77658e-09)
(1.87097e-08 9.16603e-10 -2.33837e-09)
(2.89381e-07 2.58891e-09 -3.73271e-09)
(2.97773e-07 -1.59922e-10 -2.54771e-10)
(2.3535e-07 -1.29648e-09 -9.63481e-10)
(3.37031e-08 3.61188e-10 -2.54261e-09)
(9.23182e-08 -8.47849e-10 8.18443e-11)
(2.93235e-07 -2.98906e-09 -2.6249e-09)
(1.77742e-07 9.44097e-11 -3.10333e-10)
(3.24464e-07 -7.8219e-10 2.26748e-09)
(3.03011e-07 -6.35906e-10 -8.45683e-10)
(2.27348e-07 9.67945e-10 8.79411e-10)
(2.41124e-07 2.38449e-09 5.3273e-10)
(1.16777e-07 7.43523e-10 4.1439e-10)
(2.2611e-07 8.18771e-10 -3.344e-10)
(8.39465e-08 -1.54569e-09 -3.92858e-09)
(2.96445e-07 -2.72628e-11 -1.08355e-09)
(1.8388e-07 -5.75222e-10 -1.87064e-09)
(2.16915e-07 6.09339e-10 1.47584e-09)
(2.31624e-07 8.85484e-11 -4.36922e-10)
(3.49055e-07 -1.01875e-09 1.92506e-10)
(2.67145e-07 2.77962e-10 -2.74998e-09)
(6.38318e-08 3.63664e-09 3.4631e-09)
(4.22019e-08 1.13627e-09 2.83006e-10)
(1.82244e-08 1.57747e-09 -1.79315e-09)
(2.32355e-07 6.46173e-09 1.14862e-08)
(3.1332e-07 -4.28476e-10 -3.52305e-10)
(2.71999e-07 -1.18613e-09 1.26877e-09)
(1.89514e-07 1.35786e-09 9.60407e-11)
(2.813e-08 -1.1234e-10 1.07547e-09)
(2.11808e-08 -3.27951e-10 2.42652e-09)
(1.76031e-07 -1.11451e-09 2.63181e-09)
(2.35702e-07 2.40884e-10 2.16997e-09)
(3.25699e-07 -3.31618e-10 1.16126e-09)
(3.21343e-07 1.28503e-09 5.15172e-10)
(1.96039e-07 -1.67881e-09 -8.94567e-10)
(3.67389e-07 1.51454e-11 3.07714e-10)
(3.7103e-07 1.90619e-09 3.12145e-09)
(2.98361e-08 -5.73757e-10 2.78924e-09)
(1.79623e-07 -3.18542e-10 1.3852e-09)
(6.91982e-08 6.27296e-10 3.62399e-09)
(9.75831e-08 -9.7521e-09 2.09233e-09)
(1.30246e-07 5.02138e-10 4.68926e-10)
(1.37332e-07 9.02005e-10 -2.79197e-10)
(2.5333e-07 -1.28615e-10 4.18851e-10)
(1.81097e-08 -3.43056e-09 -1.2303e-09)
(3.72697e-07 3.97886e-10 -1.3682e-09)
(2.81988e-07 -4.49128e-10 2.51253e-10)
(2.26709e-07 -2.46305e-11 9.59344e-10)
(1.95143e-07 1.93757e-09 5.88352e-11)
(1.72761e-07 -1.09091e-09 2.00997e-09)
(2.72246e-07 5.21485e-10 4.26441e-10)
(2.42414e-07 9.94196e-10 7.51901e-10)
(3.23797e-07 4.11833e-10 3.65957e-10)
(1.66377e-07 6.97091e-09 -5.88459e-09)
(2.76229e-07 4.84286e-11 -6.36566e-10)
(2.90162e-07 -5.58413e-09 -6.71692e-10)
(1.75169e-08 -1.10793e-09 1.26513e-09)
(3.21186e-07 1.06352e-09 3.31251e-10)
(1.88087e-07 3.95023e-09 1.7287e-10)
(6.16795e-08 -1.79371e-09 5.14856e-09)
(1.66865e-07 1.63177e-09 -2.94666e-09)
(3.53847e-07 1.08533e-09 -2.07108e-10)
(2.20173e-07 -6.14265e-10 2.20692e-09)
(1.13968e-07 3.58448e-10 -3.1743e-09)
(1.71465e-08 -1.55839e-09 -1.68421e-09)
(2.65772e-07 7.55279e-10 -4.32078e-10)
(3.30973e-07 4.77221e-09 -5.02074e-09)
(2.39771e-07 -5.98688e-10 -8.21772e-10)
(1.85163e-07 -2.26364e-11 1.2236e-09)
(5.45995e-08 2.5345e-09 2.36978e-09)
(2.51277e-07 -4.64438e-11 -2.85055e-10)
(2.64211e-08 2.13544e-09 -3.41231e-09)
(1.77585e-07 2.547e-10 -8.08673e-10)
(2.08665e-07 2.32544e-08 -7.4473e-09)
(2.63202e-07 -2.37949e-09 -1.04613e-09)
(8.39931e-08 7.66292e-11 3.00706e-09)
(1.77858e-07 -1.97913e-09 -2.85731e-09)
(1.11992e-07 2.67541e-11 -1.42884e-09)
(4.51431e-08 2.5111e-09 2.36001e-09)
(5.02603e-07 6.82011e-10 -6.57297e-10)
(2.21933e-07 -4.45379e-10 4.32147e-10)
(1.6664e-08 5.64585e-10 1.62683e-09)
(2.87426e-07 9.51928e-10 5.69019e-10)
(3.03844e-07 5.06027e-10 9.16683e-10)
(3.69199e-08 -9.03403e-11 -2.28254e-09)
(1.22661e-07 5.42739e-09 -2.71629e-10)
(9.50402e-08 3.54016e-09 2.46561e-09)
(1.92698e-07 -6.22171e-10 9.22677e-10)
(2.75165e-07 -7.39758e-10 8.45828e-10)
(3.49695e-08 -9.39476e-10 1.60159e-09)
(8.63871e-08 -2.88931e-09 -8.92349e-10)
(9.75333e-08 1.91588e-09 -1.60602e-10)
(1.72397e-07 2.46091e-09 7.94846e-10)
(3.57987e-07 -3.56523e-10 1.38292e-09)
(2.24335e-08 1.23554e-09 -2.90942e-09)
(3.68929e-07 -1.50128e-09 1.68737e-09)
(2.37083e-07 6.38513e-09 -1.44514e-09)
(2.88644e-07 -4.24586e-10 1.21257e-09)
(1.14195e-07 4.9014e-09 -4.72419e-09)
(3.39229e-07 -6.60354e-11 6.78906e-10)
(2.17271e-08 -3.02349e-10 -2.36575e-09)
(2.9918e-07 -2.75148e-09 -1.356e-09)
(2.62907e-08 -3.71315e-10 -4.97687e-11)
(1.35559e-07 -3.62085e-09 2.02325e-09)
(2.27251e-07 -1.72101e-09 9.94492e-11)
(1.31433e-07 -3.9491e-09 -1.33962e-09)
(1.80158e-08 2.09299e-09 1.86458e-09)
(4.81877e-08 9.7686e-10 -1.4983e-09)
(7.19341e-08 -3.94632e-09 2.76214e-09)
(1.26598e-07 2.59284e-09 -3.66414e-09)
(3.23875e-07 2.66806e-10 -2.64734e-09)
(5.51201e-08 -1.29404e-09 1.0426e-10)
(1.3104e-07 4.26021e-09 -2.13974e-09)
(2.25784e-07 -1.25707e-08 -2.43201e-08)
(2.22009e-07 2.85784e-10 2.03088e-10)
(2.75698e-08 1.77078e-09 3.30722e-10)
(2.2169e-07 7.45576e-10 -2.46207e-09)
(1.47279e-07 1.60829e-08 -6.36093e-09)
(2.08899e-07 1.67543e-10 -4.95572e-10)
(9.74729e-08 -9.89221e-11 -2.50326e-09)
(1.82131e-07 1.25227e-10 1.015e-09)
(1.02246e-07 -4.15434e-09 -3.12816e-09)
(1.58904e-07 1.18447e-09 7.5332e-10)
(1.6824e-07 -3.04691e-10 -1.21454e-09)
(6.89171e-08 2.93958e-09 -6.18707e-09)
(3.06703e-07 3.30911e-10 -4.36766e-10)
(7.10237e-08 3.37701e-09 3.58943e-09)
(1.46323e-08 2.21983e-09 8.32362e-10)
(3.17585e-07 1.41961e-09 -1.0531e-09)
(2.01373e-07 -3.94e-10 -3.11378e-10)
(2.89699e-07 2.45017e-09 -1.13977e-09)
(2.23871e-07 3.02974e-09 -1.69918e-09)
(4.8982e-07 -2.35741e-09 -4.21006e-10)
(1.31948e-07 3.98305e-09 -6.59067e-10)
(4.20375e-07 -1.91125e-09 6.88956e-10)
(9.4533e-08 -3.14484e-09 3.89921e-09)
(1.58549e-07 1.89251e-10 -1.26833e-10)
(3.01231e-07 -3.08386e-09 -3.45398e-09)
(3.07566e-08 7.9398e-10 -4.25456e-09)
(3.04673e-07 1.67212e-09 -1.96143e-09)
(1.08921e-07 8.43259e-11 3.44132e-09)
(2.83391e-08 -1.99829e-09 -2.15086e-09)
(2.75394e-07 -2.92426e-09 -8.96694e-10)
(5.94825e-08 -1.72191e-09 1.52413e-09)
(2.02026e-07 -3.61412e-10 1.25877e-11)
(2.37296e-07 -5.51919e-10 9.17344e-10)
(3.71511e-07 5.94853e-10 1.53414e-10)
(9.25064e-08 -4.17817e-09 -4.52756e-09)
(3.03988e-07 9.09776e-10 7.9195e-10)
(1.47344e-07 -2.26685e-09 2.28332e-09)
(3.39028e-07 9.60178e-11 1.23626e-10)
(3.37895e-07 -2.80582e-10 8.19551e-10)
(3.00081e-07 -8.83643e-10 1.80848e-09)
(1.78959e-07 -6.33175e-10 -8.36347e-10)
(4.63395e-08 -2.61947e-09 -2.24765e-09)
(6.69971e-08 4.66462e-10 -5.47812e-10)
(1.89163e-07 -7.29577e-10 -5.35347e-10)
(2.92411e-07 2.12687e-11 3.00488e-09)
(2.6769e-08 -1.99421e-09 -8.79347e-10)
(2.53125e-07 -3.65748e-10 1.03363e-09)
(5.02825e-07 3.87516e-10 1.2103e-09)
(3.69046e-07 -4.07742e-10 -7.20393e-10)
(4.03638e-07 -1.0557e-09 -6.43662e-10)
(2.42651e-07 5.71412e-10 -4.30863e-09)
(1.90933e-08 1.95849e-09 1.64768e-09)
(2.39415e-07 6.35495e-10 -1.41698e-10)
(1.43565e-07 -1.27069e-09 -1.60975e-09)
(2.7019e-07 2.48572e-09 1.25402e-09)
(1.56163e-07 6.07127e-10 -3.62952e-10)
(3.34839e-08 2.36476e-09 -8.97462e-11)
(2.28667e-07 -1.15489e-10 2.67961e-10)
(1.46223e-07 3.99614e-09 4.10027e-09)
(2.41834e-07 4.719e-10 3.81558e-10)
(2.94942e-07 -2.431e-10 -1.24653e-10)
(1.99216e-07 -2.39456e-09 4.76071e-11)
(1.29299e-08 1.20842e-09 -1.50574e-09)
(1.89495e-08 -1.18943e-09 -1.8392e-09)
(2.00524e-07 7.76699e-10 2.13627e-10)
(3.22657e-07 -1.7244e-09 -1.88769e-09)
(2.51212e-07 -1.9785e-10 1.58021e-09)
(1.8662e-07 -7.41748e-10 1.46021e-09)
(1.55649e-07 -2.48071e-09 1.07438e-09)
(2.56759e-07 -1.76649e-09 -1.03123e-09)
(3.0597e-07 4.94756e-10 1.73462e-09)
(1.84167e-08 1.6348e-09 4.03579e-10)
(1.60835e-07 6.70787e-10 4.27727e-10)
(1.74187e-07 -1.95577e-08 -5.95473e-10)
(4.37144e-08 -7.32558e-10 2.36827e-09)
(8.1844e-08 -5.20646e-09 1.30554e-09)
(3.05549e-07 2.0307e-10 -2.08456e-09)
(2.1091e-07 -2.08995e-09 1.52319e-09)
(1.96057e-07 5.21477e-10 -4.55222e-10)
(2.31444e-07 -1.07285e-09 1.25508e-09)
(1.34412e-07 -4.58825e-09 1.52151e-09)
(3.64034e-07 -2.09433e-10 1.43303e-09)
(1.74377e-07 1.65154e-09 -5.58736e-09)
(4.50216e-07 6.6347e-10 -5.45613e-10)
(2.30328e-07 9.14076e-10 1.42773e-10)
(2.59736e-07 1.98178e-10 2.89293e-10)
(3.37841e-07 3.31894e-11 2.31837e-10)
(4.51377e-08 -3.31245e-10 2.24439e-09)
(5.57106e-07 6.13971e-10 7.0795e-12)
(3.17011e-08 1.01556e-09 -1.28896e-09)
(1.48944e-07 -1.45018e-08 8.56003e-09)
(1.10942e-07 3.76406e-09 2.98905e-09)
(1.6164e-07 -3.2118e-09 -1.6616e-08)
(2.10921e-07 -9.56879e-10 -1.34682e-09)
(2.90783e-07 -4.72102e-08 -1.05214e-08)
(1.47042e-07 3.50476e-10 -5.05886e-10)
(3.37304e-07 -1.33243e-09 -2.82272e-10)
(3.42947e-07 4.19341e-09 -3.33033e-11)
(2.26056e-07 -3.7781e-10 1.72187e-10)
(3.29533e-08 3.01979e-10 -6.30739e-10)
(1.18483e-07 -4.44336e-09 -2.98147e-09)
(2.10306e-07 -3.91738e-09 -2.99335e-08)
(2.32487e-07 1.93273e-10 2.3786e-10)
(9.76749e-08 -1.95884e-09 -6.04746e-10)
(2.1824e-07 -2.16376e-08 -7.64252e-09)
(2.39177e-07 -6.12216e-09 6.89807e-09)
(3.0071e-07 2.34964e-09 2.72285e-09)
(4.19304e-08 -8.24667e-10 1.5497e-09)
(5.15543e-08 -2.53197e-09 1.38749e-09)
(2.57584e-08 1.24529e-10 -2.34888e-10)
(1.8456e-08 1.53344e-10 -1.40594e-09)
(4.19566e-08 -7.80946e-11 1.79937e-10)
(2.21598e-07 -1.61755e-08 9.21643e-09)
(1.82444e-07 -9.87301e-10 1.07443e-09)
(1.75648e-08 -6.34928e-10 2.43378e-09)
(1.94174e-08 1.38363e-09 2.13299e-09)
(3.91167e-07 -6.19206e-11 -4.29048e-10)
(1.66161e-07 -2.18246e-08 1.48319e-08)
(4.44548e-08 1.91194e-09 6.57423e-10)
(2.28197e-07 2.62975e-10 -1.10401e-09)
(1.04547e-07 -1.22966e-09 -1.3898e-09)
(2.00408e-07 4.52143e-10 1.91824e-09)
(4.21096e-08 2.18807e-09 -1.18075e-09)
(9.01959e-08 2.78872e-09 -1.07277e-09)
(1.87644e-07 -2.18425e-09 1.78004e-11)
(2.83406e-07 -1.51309e-10 -1.51305e-09)
(4.04357e-07 -6.90452e-10 -1.74913e-09)
(4.04357e-08 3.37016e-09 -1.13649e-09)
(2.32968e-08 -1.8114e-09 1.07931e-09)
(2.01614e-07 -2.88084e-08 -2.13827e-08)
(2.64997e-08 -3.45117e-09 2.11446e-10)
(3.08388e-07 -1.4118e-09 -2.46503e-09)
(2.70367e-08 1.51497e-09 -3.33481e-09)
(1.43938e-07 -7.6848e-10 3.01979e-09)
(3.29241e-07 -2.45475e-09 5.78855e-10)
(4.50927e-07 -1.0225e-09 2.86371e-09)
(5.59133e-08 8.43185e-10 -1.00421e-09)
(1.3574e-07 -2.25899e-10 -1.49278e-09)
(3.7107e-08 1.35916e-09 -1.58577e-09)
(2.74944e-08 3.25314e-09 -1.16168e-09)
(2.81986e-07 -1.07291e-09 -5.86129e-10)
(1.385e-08 -1.17743e-09 -1.76769e-09)
(1.8852e-07 -5.53351e-10 -5.12573e-10)
(5.84103e-08 1.42294e-09 -2.76917e-09)
(3.30402e-07 -2.86825e-09 -4.76102e-10)
(2.25949e-07 -1.34443e-09 -2.19895e-10)
(1.82173e-08 -4.75067e-10 2.89134e-09)
(1.29839e-07 -6.54015e-09 7.65458e-10)
(2.49414e-07 1.05667e-09 1.06943e-09)
(2.99017e-08 -1.4767e-09 3.73222e-11)
(2.9863e-07 1.21635e-09 -1.03448e-09)
(7.61406e-08 -3.04699e-09 4.7282e-09)
(2.08592e-07 2.68869e-10 6.70939e-11)
(2.46581e-07 -1.02344e-10 2.59631e-10)
(5.28644e-08 1.58336e-09 1.03697e-09)
(2.02703e-08 8.63764e-10 -2.59975e-09)
(8.81618e-08 1.806e-09 -7.51336e-10)
(2.43643e-07 3.82125e-08 8.20954e-09)
(2.19028e-07 8.45716e-10 1.09596e-09)
(7.41079e-08 -3.54347e-09 3.57269e-09)
(1.76516e-07 8.32928e-10 2.26345e-09)
(2.31215e-08 -8.6517e-10 5.28421e-10)
(2.20014e-07 -3.399e-10 -1.11552e-10)
(2.22501e-08 -3.63071e-10 -1.74418e-09)
(3.4425e-07 -8.44276e-10 -1.72937e-09)
(2.99714e-07 7.64073e-10 4.43142e-11)
(2.28533e-07 4.54347e-10 -7.46006e-10)
(1.37033e-08 1.34525e-09 3.31766e-11)
(3.45265e-07 1.00008e-09 9.51081e-10)
(1.5342e-07 2.0753e-09 7.38461e-10)
(3.64192e-07 -2.30157e-10 1.49024e-10)
(6.03355e-08 -7.31259e-10 -2.64007e-10)
(2.22572e-07 -2.67505e-08 1.37543e-08)
(2.65135e-07 -1.93332e-09 -1.04277e-09)
(6.24504e-08 6.87606e-10 -7.74027e-10)
(2.78628e-07 -3.44398e-10 7.38381e-10)
(2.10066e-07 3.88573e-09 -3.95483e-08)
(1.7912e-07 5.45695e-10 -1.16889e-09)
(3.12654e-08 8.10152e-10 -1.71355e-09)
(9.61931e-08 -9.42266e-10 -5.33147e-09)
(2.06533e-07 -3.10072e-10 -8.23013e-11)
(2.15311e-07 2.11916e-09 1.27731e-09)
(3.02577e-08 1.53572e-09 6.37785e-10)
(2.14271e-07 2.98816e-09 -3.30934e-09)
(1.53088e-07 -1.15623e-09 -4.71488e-09)
(2.33738e-08 -2.01248e-09 1.39269e-09)
(2.16818e-07 2.82893e-11 -4.69762e-10)
(1.5832e-07 -1.95938e-09 1.53592e-08)
(3.201e-07 3.48701e-09 -4.66683e-09)
(2.10812e-07 -7.18752e-10 -2.5731e-11)
(1.9396e-07 -5.9191e-10 9.4627e-10)
(3.23457e-07 1.3353e-10 3.99013e-11)
(2.52286e-07 1.63162e-09 -6.43126e-10)
(6.72917e-08 1.70813e-09 5.77368e-10)
(6.89656e-08 -3.29745e-09 -3.32277e-09)
(4.02359e-07 -9.95831e-10 1.6449e-09)
(2.24792e-07 -1.95921e-08 1.82136e-08)
(2.03895e-07 -1.62614e-09 7.24849e-10)
(1.84635e-07 -2.3976e-09 1.55994e-09)
(1.22843e-07 3.07558e-09 1.33949e-09)
(3.23595e-07 -6.609e-10 3.60036e-09)
(2.07955e-07 -8.99013e-10 -1.10585e-09)
(1.759e-07 -4.46804e-10 -2.46314e-09)
(2.19043e-07 3.94807e-09 1.35247e-09)
(4.29173e-08 6.67735e-10 -2.7865e-09)
(1.63994e-07 1.115e-09 -7.21567e-10)
(3.7111e-08 -9.4501e-10 -2.76636e-09)
(3.15181e-07 -2.04803e-09 1.84722e-09)
(3.40109e-07 -1.16776e-09 -6.55565e-10)
(1.60979e-07 3.56881e-09 -3.68938e-09)
(1.5729e-07 1.32269e-09 -1.07118e-09)
(1.68855e-08 1.72459e-09 -3.46637e-10)
(1.00879e-07 -4.07693e-10 -9.40582e-10)
(7.21716e-08 -2.42202e-09 -3.08003e-09)
(2.76578e-07 4.31401e-10 -1.58332e-09)
(2.51e-07 -8.15736e-10 -6.2003e-10)
(2.20569e-07 -2.01141e-08 1.27309e-08)
(3.22183e-07 -2.8936e-10 2.1903e-09)
(7.94547e-08 -2.30626e-09 -1.97736e-09)
(1.36574e-07 -3.42202e-09 1.06595e-08)
(2.41507e-07 -2.67864e-09 2.85307e-09)
(2.55402e-08 -1.94188e-09 -2.08214e-10)
(2.57716e-07 -4.9039e-10 3.74297e-10)
(5.16858e-08 1.45514e-09 -9.41048e-11)
(2.05882e-07 -2.64285e-10 1.99551e-09)
(3.01171e-08 4.29117e-09 -3.4738e-10)
(3.75132e-07 2.79694e-10 -1.56578e-09)
(2.0396e-07 -8.67746e-09 5.3394e-09)