/*--------------------------------*- C++ -*----------------------------------*\
| =========                 |                                                 |
| \\      /  F ield         | OpenFOAM: The Open Source CFD Toolbox           |
|  \\    /   O peration     | Version:  2406                                  |
|   \\  /    A nd           | Website:  www.openfoam.com                      |
|    \\/     M anipulation  |                                                 |
\*---------------------------------------------------------------------------*/
FoamFile
{
    version     2.0;
    format      ascii;
    arch        "LSB;label=32;scalar=64";
    class       volVectorField;
    location    "67";
    object      momentum:angularVelocity;
}
// * * * * * * * * * * * * * * * * * * * * * * * * * * * * * * * * * * * * * //

dimensions      [0 1 -1 0 0 0 0];

internalField   nonuniform List<vector> 
59516
(
(-0.00109572 -0.000694886 0.103207)
(0.000346341 -0.000211902 0.0941781)
(-0.000511226 0.000510324 0.109897)
(-0.00212817 -0.000415101 0.12686)
(-0.00455711 0.000300066 0.113662)
(-0.0104429 0.00555708 0.101091)
(-0.00276097 -0.00165788 0.126829)
(-0.000308818 -0.000541457 0.0981281)
(-0.000854622 0.000145278 0.109154)
(0.00193135 0.00106498 0.0507172)
(-0.00254059 -0.000261776 0.154053)
(-0.00302847 -0.00222743 0.059685)
(-0.000880049 -0.000779151 0.115737)
(5.18367e-05 -0.000206567 0.0189463)
(0.000237844 -0.00343819 0.0568637)
(-0.0014232 0.00342947 0.0490251)
(-0.00311893 -0.000585442 0.170086)
(-0.00573275 -0.00158405 0.0700178)
(-0.00604043 -0.0011931 0.114328)
(-0.00195588 0.00053746 0.166451)
(-0.00144577 0.000673152 0.0537126)
(0.000387671 0.00092874 0.148049)
(-0.00302613 -0.000698787 0.154488)
(0.000824569 0.00055983 0.0313082)
(-0.000166295 0.000734146 0.161589)
(-0.000162235 0.00156232 0.0618985)
(-0.000474133 0.00282626 0.0390734)
(-0.00349405 -0.00147407 0.0442203)
(-0.002696 -0.000864238 0.0652382)
(0.0019849 0.00163485 0.0160522)
(-0.021511 0.00120381 0.108361)
(-0.00295044 0.00226755 0.0455212)
(-0.000690946 -0.000411911 0.131179)
(-0.00184812 -0.00113571 0.109539)
(-0.00681044 2.48538e-07 0.139504)
(-0.000571759 0.000183614 0.146043)
(-0.00233248 0.0012183 0.015511)
(-0.00693854 -0.00220528 0.0699187)
(-0.00390088 0.000391041 0.0949552)
(-0.000161019 0.000837545 0.161178)
(-5.92337e-05 -0.00057927 0.0977458)
(-0.0117378 -4.41274e-05 0.14405)
(-0.0054109 0.000996756 0.148438)
(-0.000642553 0.000322036 0.10321)
(-0.00559966 0.00068792 0.142536)
(0.00134167 0.000375413 0.0519978)
(-0.00554829 0.000140406 0.132232)
(-0.00541977 0.000629708 0.163714)
(-0.0152416 0.00138652 0.111885)
(-0.00879041 0.000342447 0.151227)
(-0.0178974 0.000518748 0.104055)
(-0.00393433 -0.00188666 0.0409453)
(0.000414814 -0.00247907 0.11684)
(-0.00031715 0.000489649 0.12419)
(-0.00293551 0.000766483 0.0471438)
(-0.00323003 0.000590328 0.129506)
(-0.0119432 7.16846e-05 0.144978)
(-0.00434158 -0.00163048 0.043193)
(-0.000327956 0.000214957 0.178766)
(-0.0104006 -0.000325194 0.135279)
(-0.000502372 0.000300902 0.149574)
(-0.00139271 0.00191314 0.0176623)
(-0.000901707 -0.000158737 0.171785)
(-0.00374995 -6.78294e-05 0.167412)
(-0.000706156 0.000566468 0.11815)
(-0.00694282 0.000119224 0.147727)
(0.000183959 0.00270628 0.0238204)
(-0.000124877 0.000317953 0.0384379)
(-0.0227978 0.000386085 0.121534)
(-0.00378731 -0.000821929 0.13547)
(-0.000562015 -0.000785621 0.0340242)
(-0.00276877 -0.000773684 0.164545)
(0.00324233 -0.00130304 0.0212671)
(-0.00193385 -0.0004213 0.142746)
(-0.000596609 -0.000430483 0.189162)
(-0.00440554 0.000209392 0.15823)
(-0.00515077 0.000124593 0.164445)
(0.000562537 3.12239e-05 0.148729)
(0.00171559 0.000900129 0.0425205)
(-0.00862666 0.000736821 0.151903)
(-0.00241041 2.7219e-06 0.0351789)
(-0.00767148 0.000432611 0.147011)
(-0.00644707 0.00038203 0.139807)
(-0.00234623 0.0012835 0.0184224)
(-0.00746618 0.000791186 0.146818)
(-0.00103459 0.000834322 0.178875)
(0.000599717 0.00106335 0.0302122)
(-0.000837199 8.67377e-05 0.149621)
(-0.00184281 -0.000963376 0.0513332)
(-0.00998956 -0.00248946 0.107108)
(-0.0115692 -2.86189e-05 0.131508)
(-0.000854611 0.00111375 0.139336)
(-0.000772388 -7.77859e-06 0.177529)
(-8.22178e-06 0.000919864 0.137049)
(8.69417e-05 -0.000109087 0.165289)
(-0.0112369 -7.02174e-05 0.109926)
(-0.00036487 -0.000324556 0.139659)
(0.00212221 0.00385298 0.0499203)
(-0.00247987 -0.000982213 0.0643137)
(0.00170581 0.00102967 0.148394)
(-0.00117832 0.000815569 0.0351342)
(0.00246606 0.00130772 0.0224406)
(0.00265895 0.00138617 0.0212207)
(-0.0019558 0.00217605 0.0509686)
(0.00083057 -3.78786e-06 0.133616)
(0.000172004 -0.000715892 0.148476)
(0.0017225 -0.00306697 0.0368209)
(-0.000765854 -0.000337559 0.101432)
(-0.000187367 0.000692545 0.0973561)
(-0.00134496 0.00212698 0.0621364)
(-0.0187507 -0.000240572 0.124957)
(0.00211159 -0.00203818 0.0284512)
(-0.00250242 0.00319554 0.0628669)
(-0.0195073 -5.06991e-05 0.118045)
(-0.000255268 0.000151114 0.161662)
(0.00109882 -0.0011891 0.096275)
(-0.00164673 -0.0010817 0.0508475)
(-0.000319857 -0.000605928 0.131864)
(-0.000358671 -0.000956107 0.0202322)
(-0.00080898 0.000825568 0.147079)
(6.01108e-05 -6.81411e-05 0.194591)
(-0.000347718 0.000598877 0.173515)
(0.000786645 0.000142528 0.159)
(-0.000321457 0.000258263 0.17202)
(-0.0180194 0.00114731 0.13241)
(-0.00334836 0.000111841 0.0897658)
(-0.00169078 -0.000827129 0.0275754)
(-0.0137075 0.00205913 0.138369)
(-0.0130693 0.00307958 0.0898414)
(-4.4715e-05 -0.000302099 0.186179)
(-0.000228664 -0.000107978 0.190797)
(0.00171474 0.00193459 0.109601)
(-0.00047916 -0.00189618 0.0214743)
(-0.000271324 0.000553613 0.147494)
(0.000996918 0.000341002 0.098656)
(-0.00207959 0.000973952 0.112436)
(-0.0155936 0.00140422 0.107483)
(0.000102069 0.000471201 0.12743)
(-0.000361563 0.00251611 0.0365865)
(-0.00120263 0.000855406 0.0963708)
(-0.000970875 0.00203966 0.0409177)
(-0.000236543 -0.000454527 0.191644)
(-0.000789111 -0.00146324 0.0172102)
(-0.00064616 0.000920219 0.123238)
(-0.00157459 -3.10171e-05 0.180134)
(-0.00241075 0.000697867 0.141886)
(-0.0059162 0.00133304 0.140265)
(-0.00354903 0.00132981 0.11694)
(0.000947147 -0.00176359 0.0621281)
(-0.000501993 0.00103662 0.104414)
(-0.000477815 -0.000925382 0.101219)
(0.000140726 0.00122673 0.0320802)
(0.000836835 0.00101588 0.169346)
(-0.00015213 -2.94589e-05 0.154695)
(-0.0010229 -0.00197791 0.0865302)
(-0.00158561 0.000972016 0.0171106)
(-0.000467884 -0.000389101 0.11027)
(-0.00165655 0.000798958 0.111602)
(-0.00134804 0.000542419 0.0802654)
(-0.00252472 -0.00178175 0.0175414)
(0.0024549 0.00242485 0.0617143)
(0.00342228 -0.00203939 0.0636236)
(-0.000554646 0.00120879 0.0320756)
(-0.000217811 -0.000433484 0.0229407)
(0.00300505 0.000108767 0.096031)
(-0.00103775 -6.51662e-05 0.178268)
(0.000918592 -6.70812e-05 0.0579292)
(-0.00129887 -0.000366091 0.18341)
(0.00104412 0.00214283 0.0184203)
(0.000256466 -0.000558972 0.136518)
(-0.00149848 -0.0011449 0.0808772)
(-0.000916058 0.000609709 0.0487574)
(-0.00015028 -0.00175493 0.0598805)
(-0.000150476 -0.000526777 0.135617)
(0.000374727 0.000578025 0.0464411)
(-0.0058523 -0.000549615 0.13485)
(-0.000815299 0.000333307 0.173709)
(-0.00700829 0.000536239 0.149529)
(0.000362402 -0.00300279 0.0634327)
(0.000422125 0.000307796 0.0374498)
(-0.00171928 -0.00211453 0.146012)
(0.000814223 0.00290606 0.0306435)
(-0.000908396 -0.00185118 0.026095)
(0.000520138 0.00135705 0.0602203)
(-0.000379055 -0.00096109 0.185284)
(-0.000346743 0.000646331 0.0552168)
(-0.00255835 0.000458444 0.0325873)
(0.000136116 0.00024973 0.0209074)
(-0.000430336 5.36495e-05 0.119519)
(0.00146427 0.000762279 0.0965248)
(-0.0026255 -0.000112729 0.135339)
(-0.000969727 -0.00279944 0.048003)
(-0.00153804 -0.000516667 0.165812)
(0.00143727 -0.00117234 0.0526938)
(-0.00102058 -3.84264e-05 0.154642)
(0.000394639 0.00067529 0.0272601)
(0.000701081 0.000274796 0.052686)
(0.000306067 -0.00106703 0.0370945)
(-0.0045735 2.63197e-05 0.105798)
(0.000359471 -0.000798629 0.154976)
(-0.00156176 -0.00226216 0.0770604)
(-0.000242874 -0.00033992 0.193739)
(0.000101681 0.00111282 0.0986319)
(0.00149132 -0.00178038 0.0176933)
(0.000466363 0.000817081 0.125262)
(-0.000506523 -0.000426098 0.145088)
(-0.000578532 -0.000255987 0.186989)
(0.00159631 -0.000798934 0.15598)
(0.000224318 -0.00068993 0.0210207)
(0.00178476 0.00107376 0.11067)
(-0.000528366 0.00442033 0.046737)
(-0.00385926 0.000788486 0.0235599)
(-0.000905751 0.00125279 0.14299)
(-0.00033405 0.00129382 0.0514799)
(-0.000973031 -0.00123839 0.112707)
(0.000415184 -0.000130646 0.174586)
(-0.00187508 0.000497041 0.139815)
(-0.00121872 0.000968891 0.158071)
(-0.0015854 0.00297223 0.050048)
(0.000787215 -0.00015007 0.157663)
(-0.000830078 -0.00254627 0.0509831)
(-0.000490673 0.000269819 0.10228)
(-0.000958945 -0.000972472 0.168069)
(0.000330673 -0.000487753 0.0357171)
(0.000440246 -0.000196723 0.174019)
(0.000411993 0.000145719 0.176455)
(-0.000910829 -0.000996111 0.0259451)
(-0.00239951 0.000546035 0.0430513)
(0.000108506 0.000940086 0.175001)
(-0.0020292 0.00332872 0.0504959)
(3.97838e-05 0.00060383 0.176349)
(-0.000473542 0.000329989 0.177203)
(-0.000942497 -0.000440267 0.191386)
(-0.00109069 -0.00188505 0.0227295)
(-0.00120991 -0.00107904 0.0299076)
(-0.00143149 -3.6988e-05 0.0312172)
(-0.000142355 -0.000372351 0.0589663)
(-0.0012928 -0.000193029 0.0925648)
(-0.00175347 0.000425145 0.158584)
(0.00188216 -0.000328024 0.0531245)
(0.000354648 0.000350846 0.192898)
(0.00225338 0.00159847 0.0185721)
(0.000682984 0.00052656 0.0505025)
(0.0021178 0.00132921 0.0224927)
(0.000446896 0.000525982 0.188251)
(-0.00052905 -0.000305511 0.0882368)
(-0.00139241 0.000287211 0.146321)
(-0.000898686 0.00150781 0.0613473)
(-0.000735093 -0.000426823 0.172297)
(-0.000711994 -0.000258758 0.101302)
(-0.000327066 -0.00013711 0.1681)
(-0.000879773 7.39984e-06 0.140196)
(0.000782778 0.000214166 0.194267)
(0.000261623 0.00142914 0.144998)
(-0.001219 0.0013321 0.147513)
(-0.00114556 0.000576646 0.159803)
(-0.000232117 9.26854e-05 0.0516596)
(-0.00226062 0.00043006 0.154962)
(0.00118953 0.00182228 0.03847)
(-0.00029033 0.00195451 0.0557746)
(-0.00122198 0.000676251 0.128066)
(-0.000217967 0.00032131 0.164642)
(0.00360852 0.000755624 0.11177)
(0.000428302 0.000109412 0.182013)
(0.00206071 -7.03383e-05 0.0943623)
(-0.000132688 -0.00254141 0.0537566)
(-0.000780922 -0.00126761 0.162194)
(0.0020297 9.80448e-05 0.088707)
(-0.000524275 -0.00087613 0.0426759)
(-0.000506187 0.0013385 0.048301)
(-0.00269006 0.00237829 0.0955311)
(0.000172666 -0.000248213 0.17754)
(-0.00154053 0.00197623 0.0946196)
(-0.000879614 0.00157297 0.0886336)
(-0.00114408 -0.000505377 0.167994)
(-3.23719e-05 0.00231651 0.0882406)
(-0.00111518 -0.00241047 0.0192583)
(0.000771921 0.000261719 0.163791)
(0.00198395 -0.00154668 0.0233669)
(0.00168149 0.000824323 0.0374122)
(-0.00122834 -0.000269828 0.189739)
(-0.000355363 -0.000380623 0.138238)
(-0.00310877 0.00162387 0.0232812)
(-5.84439e-05 -0.000959033 0.118029)
(-0.00140556 -0.00208805 0.12133)
(-0.00279312 0.000246325 0.168841)
(-3.39237e-06 -0.000489832 0.18831)
(0.0018428 -0.00193598 0.0221685)
(0.000231288 0.000733367 0.188387)
(4.45459e-05 6.99955e-05 0.195132)
(-0.000532971 -0.000563392 0.179034)
(-0.00110473 0.00057506 0.134117)
(-0.000794981 0.000338073 0.137255)
(-0.000345299 -0.000466815 0.091729)
(0.000222654 -0.000646271 0.175228)
(-1.36881e-06 0.00151384 0.0260204)
(-0.000193497 -0.000482439 0.163873)
(0.000108809 0.000686429 0.138914)
(-0.000231689 0.000432429 0.193621)
(-0.000946317 0.000834658 0.1747)
(0.000387436 -0.000655314 0.11461)
(0.000957088 -0.00119413 0.0554635)
(-0.000634037 -0.00136236 0.0212094)
(0.000644536 0.000407205 0.0261788)
(-0.00159524 0.000286061 0.165123)
(-0.00269413 0.00109245 0.0187337)
(-0.000803895 -0.000793783 0.0602579)
(-0.000907689 0.0027967 0.0489739)
(-0.00079499 -0.00088622 0.172272)
(-0.000566087 -0.00011682 0.179439)
(-0.000596832 0.00082157 0.155569)
(0.00101833 0.000829202 0.0557619)
(0.00297631 8.2112e-05 0.099941)
(2.95994e-05 0.00402627 0.0372578)
(0.000207566 -0.00167135 0.0538445)
(-0.000253752 0.000775397 0.160748)
(0.000357929 -0.00126845 0.0945511)
(-0.0127379 -0.00153045 0.107732)
(0.000294762 -0.00214615 0.0873596)
(-0.000396103 -6.99497e-05 0.0399853)
(0.00214606 -0.000187026 0.0605565)
(-0.000712876 -0.0017645 0.105332)
(-0.000431 -7.50945e-05 0.182311)
(0.000458582 -0.00117924 0.192145)
(-0.000587432 0.00111937 0.19383)
(0.000128565 0.00158115 0.16374)
(-0.00600495 -0.000579462 0.096938)
(-0.00106254 -0.000252338 0.124939)
(-0.00111448 0.000182728 0.171099)
(0.000748891 0.000251209 0.163397)
(0.00126343 0.000362575 0.166453)
(-0.00276818 -0.00217343 0.054336)
(0.00256926 -0.00112392 0.0207651)
(0.00139025 0.000199648 0.15114)
(0.00105193 0.00250937 0.0367127)
(2.7923e-05 -6.67221e-05 0.0293271)
(-0.00204619 -0.000140568 0.164331)
(0.000332954 -0.000157379 0.14488)
(-0.00208081 0.00255185 0.0595857)
(-0.000358644 -0.000580927 0.179451)
(0.000416473 0.00055465 0.169554)
(-0.000373396 -0.000335987 0.191742)
(-0.00137196 -2.50783e-05 0.179897)
(-6.73879e-05 -0.00147496 0.0304628)
(-0.000393167 0.000183735 0.160917)
(-0.000751016 0.000134012 0.184822)
(0.000338884 0.000782552 0.0542655)
(-0.000202165 -0.000981059 0.190511)
(-3.64861e-05 0.000172171 0.182506)
(0.000801431 0.000484528 0.129682)
(0.000509538 0.000919471 0.121121)
(-0.00052676 -0.00203333 0.153527)
(0.000443244 0.00101337 0.142938)
(-0.000291598 0.000222161 0.0664511)
(-0.000597014 0.00145631 0.0296263)
(0.000348028 0.00243593 0.0325631)
(0.000449808 -0.000379273 0.0911542)
(-0.012613 -6.65508e-05 0.0862568)
(-0.00735678 0.000762362 0.0746072)
(0.000432886 -0.000412711 0.0793011)
(0.00149001 -0.00131645 0.111902)
(-0.00108021 0.000653203 0.130517)
(-0.00451682 0.000161798 0.159647)
(0.000350088 0.00131492 0.158018)
(-0.000511261 -0.000976331 0.130334)
(6.42874e-05 -0.000519639 0.149458)
(-0.000929955 -1.38051e-05 0.150252)
(-0.000452051 0.000887617 0.0293361)
(-0.0226213 0.000817792 0.113929)
(0.00044509 0.00136711 0.0549364)
(-0.000884266 0.00148272 0.0384001)
(0.000854569 0.000322059 0.038811)
(0.00013135 0.000773148 0.164186)
(-0.00047318 0.000302769 0.0906599)
(-0.00128533 0.000470741 0.162574)
(-0.0011713 0.00143457 0.0183458)
(0.000272974 -0.000348364 0.124243)
(0.00107678 -0.000668992 0.0415464)
(-0.00010665 0.000128303 0.169001)
(-0.000518854 0.000605991 0.0447659)
(0.00152619 0.000733813 0.0592373)
(0.000622102 0.00279283 0.101938)
(-0.00155217 -0.000472176 0.151943)
(0.00239652 -0.000239604 0.0180693)
(-0.000129095 0.00213006 0.0513929)
(4.28713e-05 -0.000526866 0.131702)
(9.03026e-05 -0.00220289 0.0214985)
(-0.00963841 -0.000281173 0.130885)
(0.000557123 -0.00267328 0.113076)
(-0.00052998 -0.00216629 0.130122)
(0.00224573 -0.00276807 0.0912133)
(0.00229229 0.000782565 0.0845322)
(0.000552815 0.000128505 0.164593)
(-0.0101932 -0.00323115 0.0771933)
(-0.00013466 5.03616e-05 0.192058)
(-0.0124777 0.000849677 0.111394)
(-0.00214562 0.00154776 0.0562974)
(-0.000282017 0.00139407 0.0594142)
(0.000324985 -0.000123617 0.187094)
(0.000308579 -6.41887e-05 0.185818)
(0.000586718 -0.000511758 0.0493249)
(-0.000462955 -0.000484269 0.131037)
(-0.00212461 0.000680872 0.0936171)
(-0.000264523 -0.000473775 0.188582)
(0.000446972 -0.00091286 0.187648)
(-0.00101267 -0.00335798 0.0425605)
(-0.000353396 0.00107258 0.130601)
(0.00249424 -0.000310351 0.145426)
(-0.000979594 -0.000265286 0.147989)
(0.000238868 -0.000971541 0.157939)
(0.00228942 -0.00121596 0.0199753)
(-0.00255131 -0.000655958 0.0196236)
(-0.0014232 0.00134833 0.124889)
(-0.000173368 -6.26953e-05 0.182498)
(0.00082287 0.00101406 0.190276)
(-0.00215618 0.00115742 0.0321158)
(0.00140907 -0.000772011 0.174136)
(-0.0013701 -0.000297932 0.103356)
(0.000149183 0.000299267 0.183229)
(-0.00089864 0.00101484 0.183365)
(9.28997e-05 -0.000657778 0.190241)
(1.2053e-06 -0.00102998 0.179055)
(-0.000519963 -0.00172042 0.177372)
(0.00028795 -0.000546243 0.0847143)
(-0.000552733 0.000480402 0.187224)
(-0.00168797 0.00205392 0.0528635)
(-0.000435219 0.000450533 0.171324)
(-0.00090969 -0.000657398 0.105453)
(-0.00104646 -0.000454365 0.154989)
(-0.000344156 6.62768e-05 0.182097)
(-0.000221383 0.000382858 0.148895)
(0.00109761 -0.00102991 0.145475)
(0.0016101 0.00246788 0.0374551)
(0.000871179 -5.70155e-05 0.0314643)
(-0.00177775 -0.0018295 0.0194659)
(-0.00869821 7.18834e-05 0.153361)
(0.000230891 -0.00026017 0.196475)
(-0.000844639 0.000281738 0.139439)
(-0.000166656 -0.000874706 0.123967)
(0.00107096 0.00023978 0.0285501)
(0.00064608 -0.0024436 0.021864)
(-0.000421633 -0.00174882 0.110798)
(-0.000789001 0.00119632 0.15471)
(-0.00046124 -0.000495939 0.182654)
(0.000654702 -0.000137487 0.155277)
(-0.00126101 0.000293194 0.13342)
(-0.000136687 -9.21302e-05 0.196566)
(0.00127136 0.000307399 0.132689)
(-0.000998332 0.00210817 0.0244399)
(0.000270167 0.000911055 0.12009)
(0.00249443 -0.00137933 0.0536293)
(-0.00716098 -0.000786279 0.0704821)
(-0.00047613 0.000672097 0.156144)
(0.000436943 -0.000431099 0.0892752)
(-5.9569e-06 0.000253917 0.14685)
(-0.00319902 0.00204162 0.0188575)
(-0.000118016 -0.000704546 0.18685)
(7.52046e-05 0.000336128 0.188733)
(-0.000457427 -0.000637841 0.185426)
(0.000571829 -0.000655506 0.0875694)
(0.000717707 -0.0019186 0.154745)
(-0.000419595 -0.000145854 0.179527)
(-0.000277213 0.000544087 0.118753)
(-0.000324247 -3.01296e-05 0.191387)
(-0.00532729 -0.00050356 0.0975917)
(-0.000381828 0.000139091 0.175832)
(-0.00259265 0.00126355 0.148794)
(0.00136861 -0.00120696 0.0190074)
(-0.0004468 -0.000468048 0.186576)
(0.00145536 0.00190894 0.114185)
(-0.00278635 -0.00257801 0.0429448)
(-0.00102549 0.00143655 0.0874388)
(-0.000322874 0.000429618 0.172107)
(-0.000165241 -0.00130136 0.12608)
(0.0008379 0.0020806 0.0800217)
(-0.00204529 0.00144871 0.0187292)
(-0.000429594 -0.000404972 0.180325)
(0.000547373 0.00249824 0.1222)
(-0.000688739 -7.78664e-05 0.163458)
(-0.000774165 -0.000214878 0.12156)
(-0.00207486 0.000615612 0.034056)
(0.000153907 -4.96873e-05 0.140709)
(-0.00390354 0.00031847 0.0257063)
(3.15316e-05 0.000792276 0.16608)
(-0.0119537 0.00060096 0.102281)
(0.001659 0.000415275 0.173172)
(-0.000183691 0.00170537 0.0478944)
(-0.00133742 0.00148474 0.102253)
(-1.48381e-05 0.00116183 0.0910557)
(0.00187343 -0.00158003 0.0321049)
(0.000158594 -0.000330733 0.194628)
(-0.00012088 -0.000486814 0.179383)
(-0.00191914 -0.000761599 0.0199806)
(-0.000598607 0.000227528 0.165969)
(-0.000595087 0.000303508 0.193847)
(-0.000556006 0.00204512 0.0342536)
(0.00146272 0.00209591 0.0576909)
(-0.00130606 0.00186651 0.0501856)
(-0.000802673 -0.00040689 0.155827)
(0.000490394 -0.000590033 0.187875)
(-0.00122814 0.00120583 0.0324147)
(0.00157214 -0.000744611 0.0496948)
(-0.000179014 0.00102236 0.0526535)
(0.00124864 0.00111791 0.111724)
(-2.06337e-05 -0.00075883 0.190284)
(-0.00248233 -0.00174215 0.0215234)
(0.000913484 0.000371389 0.161076)
(-0.00413206 -0.000728592 0.151949)
(8.28437e-05 -0.000831337 0.187701)
(-0.00234851 -0.00483044 0.0900999)
(-7.24731e-05 0.000338204 0.172015)
(0.00104191 -0.00203787 0.0208505)
(-0.00166457 -0.000353438 0.16597)
(0.000141965 -0.000326762 0.0250018)
(-0.00037612 -0.00174882 0.0584625)
(-7.15813e-05 0.0011735 0.154984)
(-0.00103024 0.00145949 0.0563056)
(-0.00249772 0.00148024 0.0186606)
(0.000347745 -0.00120653 0.0338286)
(0.000467981 0.00274534 0.0415892)
(0.000762004 -0.00178563 0.0547552)
(-0.00117844 -0.000209803 0.145699)
(3.60497e-05 0.00109625 0.0465694)
(0.00108139 -0.00169758 0.0553242)
(-0.0155375 0.000622821 0.128245)
(-0.000277664 4.17574e-06 0.175846)
(0.00143488 2.325e-05 0.0219631)
(0.00018289 0.00118822 0.103603)
(-0.00851345 -0.00431209 0.0812665)
(-0.000110654 0.000429609 0.177154)
(-0.00116432 0.000814928 0.0552953)
(-0.00080198 -0.000529772 0.171172)
(0.0011996 0.00243753 0.0534145)
(-0.000636688 0.000852138 0.120415)
(-0.000970741 0.000967095 0.184106)
(0.00238996 -0.00401369 0.0469988)
(0.000227507 -0.000230536 0.181287)
(-0.00319937 -0.000792199 0.0474997)
(0.00238232 -0.00150276 0.0173846)
(-0.000349798 0.000735815 0.146384)
(-0.000268142 0.000384943 0.188116)
(-0.00100415 0.000632288 0.127214)
(0.000612492 -0.00179726 0.12237)
(0.000874809 0.000267509 0.187115)
(0.00171744 -0.000224306 0.0566079)
(0.000809547 -0.000194557 0.172277)
(0.00107315 0.00261969 0.0534239)
(-0.000253853 -5.56633e-05 0.180862)
(0.00165652 0.000928667 0.123546)
(-0.00299339 -0.00201196 0.0256308)
(-0.00128502 0.000256336 0.154892)
(0.00101712 -0.00113517 0.0482276)
(0.00113151 0.00219277 0.0238179)
(-0.00150246 0.00065687 0.147642)
(-0.00153408 7.73139e-05 0.0397325)
(-3.55408e-05 -0.000242326 0.136824)
(-0.000296332 0.00079989 0.189073)
(1.04696e-05 0.000214185 0.129684)
(9.02164e-05 0.00334212 0.050201)
(0.000678707 0.000296945 0.186706)
(0.00183778 0.000330043 0.0855074)
(-3.25094e-05 8.38846e-05 0.194848)
(-0.000438248 0.000197699 0.187535)
(-0.000686097 0.00106586 0.188979)
(-0.000983547 0.000487789 0.187296)
(0.00282291 -0.00109193 0.0406355)
(0.000272452 0.000436369 0.0479024)
(0.000835292 0.000290998 0.184901)
(0.000587773 -0.00158275 0.164294)
(0.000516315 0.00228906 0.0288212)
(0.000692607 -0.000170937 0.164695)
(3.51161e-05 0.000473965 0.188048)
(-6.74781e-05 0.000404969 0.183035)
(0.000187341 0.000550745 0.189907)
(-0.00192768 0.00057261 0.112267)
(-0.00149235 0.0021475 0.019509)
(0.000497991 3.81616e-05 0.183652)
(0.000681113 -0.00119086 0.0960358)
(-0.000535924 0.00148586 0.15329)
(-0.000121623 0.000396722 0.0916091)
(-0.00155868 -0.00103472 0.0264715)
(-9.58735e-05 -0.00022408 0.191003)
(-0.0021285 0.00266387 0.0870825)
(-0.000258453 -0.000203031 0.130973)
(4.06664e-05 0.000174869 0.193826)
(-0.000527473 0.00160079 0.140194)
(0.00139266 0.00188832 0.0157136)
(-0.00208168 0.000997104 0.0199692)
(-8.75801e-05 0.000733892 0.183984)
(0.00133581 -0.000329506 0.17363)
(-0.00120101 0.000280968 0.194566)
(-0.000818677 -0.0010815 0.154557)
(-0.000318515 0.00148908 0.0876742)
(-0.000481447 0.00108852 0.149406)
(5.50956e-05 0.00107497 0.182582)
(0.000648597 0.0015452 0.0183284)
(-0.000509508 0.000772189 0.187032)
(-0.0151435 0.000871961 0.135033)
(-5.43227e-05 0.00192114 0.033891)
(-0.000371437 0.00332294 0.0509826)
(-0.000660617 0.000726851 0.143291)
(0.00151852 -0.000788254 0.139533)
(-1.11047e-05 -0.000480806 0.136215)
(0.000644229 -0.000569219 0.120503)
(-0.00289767 0.00211971 0.0998287)
(0.000766513 7.49416e-05 0.19359)
(0.00063421 -0.00305543 0.0933957)
(0.000161424 -0.000306773 0.181685)
(8.33966e-05 0.000706667 0.177153)
(-0.000160679 -0.00020706 0.194131)
(-8.75403e-05 -9.1305e-05 0.182467)
(0.00151329 0.00102723 0.0363895)
(-0.000181671 -3.22735e-05 0.167415)
(-0.00025228 -0.00150103 0.0294044)
(-0.0105799 -0.00143371 0.0944327)
(0.00195604 -0.00138794 0.0553597)
(-0.0133216 -7.63442e-05 0.127239)
(0.000603428 0.000799709 0.127899)
(-0.0195358 0.000456466 0.117478)
(8.72371e-05 0.000734398 0.1767)
(-0.000729654 3.14699e-05 0.180869)
(-0.0018886 0.000191974 0.155245)
(-5.70659e-05 0.00032056 0.177274)
(-0.000606939 -0.000204887 0.0301866)
(-0.00455651 0.000140461 0.100941)
(-0.0161087 0.00112963 0.112495)
(-0.000142592 -0.000197437 0.184744)
(-0.000815974 0.00210616 0.107615)
(-0.0143715 0.000917382 0.136956)
(-0.00606394 0.0001069 0.157278)
(0.000512553 0.00116822 0.106665)
(-0.00124694 -0.000469896 0.0318286)
(0.00130326 0.00244481 0.0494701)
(-0.000191151 -0.000120906 0.0219141)
(0.00115544 0.00108058 0.0206448)
(-0.000145438 3.22576e-06 0.0311166)
(-0.0112238 0.00026116 0.133633)
(-0.000775828 -0.000780793 0.137624)
(-0.0019875 -0.00224907 0.02096)
(-0.00251993 0.000681019 0.0199358)
(0.000150888 -0.000156559 0.196205)
(-0.0149125 0.00327851 0.096146)
(-0.00151541 0.000159997 0.0335055)
(-0.000732716 9.59272e-06 0.147341)
(-0.00147917 0.00101095 0.100938)
(0.00121299 -0.000459472 0.1319)
(0.00120995 0.0018623 0.0376133)
(-0.00102608 -0.0013068 0.050155)
(0.000160373 0.00123473 0.106961)
(0.000926153 0.000161665 0.175225)
(0.000576816 0.000416074 0.152934)
(-0.00165751 0.00224059 0.0316861)
(-0.000520517 -0.00186551 0.0213986)
(-0.0189033 0.000199928 0.106235)
(-0.00237436 0.00180491 0.0228581)
(-0.000282084 0.0011875 0.132503)
(-0.00307535 -0.00100026 0.023871)
(0.000463148 0.00210572 0.0995937)
(-0.00140617 8.29015e-05 0.183885)
(0.00119699 0.000269357 0.181944)
(-0.0003063 -0.000862954 0.0390464)
(0.000949605 -0.000424638 0.0935239)
(-0.00177199 -0.000214584 0.031713)
(-0.00312089 -0.000214986 0.0248992)
(-0.000400559 -0.000696 0.185219)
(-0.00230221 0.00114734 0.0167736)
(0.000654862 0.000187179 0.170228)
(-0.000293501 -0.00227084 0.042958)
(-0.000248583 0.00135377 0.156411)
(-0.000222113 0.000815365 0.140164)
(0.00288219 0.00115504 0.0193048)
(-0.00104348 -0.00241466 0.0518677)
(0.000166811 0.000880167 0.148619)
(-0.000134871 0.00150082 0.030503)
(0.000551344 0.000677436 0.163353)
(-0.00121938 0.0034012 0.0489089)
(0.000100028 9.41238e-05 0.103387)
(5.64265e-05 -0.000207042 0.189608)
(0.00115993 -4.89864e-05 0.0324264)
(-0.00277722 -0.000577016 0.0209883)
(-0.000940549 -0.000348822 0.0452133)
(-0.0177734 9.55896e-05 0.110797)
(-0.00062647 -3.22268e-05 0.0992514)
(8.45503e-06 0.00344199 0.0506923)
(0.00104892 -0.000268594 0.0792447)
(0.000383505 0.00111656 0.0269259)
(0.000309329 -3.39946e-05 0.191388)
(0.000999586 0.00134392 0.0209179)
(-0.000943005 0.000196671 0.172316)
(-5.15023e-05 -0.000362815 0.143503)
(-0.000647528 -0.000100987 0.171466)
(-0.00167615 -0.00017233 0.0171587)
(8.93935e-05 -0.00059873 0.151446)
(-0.00102705 0.000479032 0.078931)
(-0.000117728 -2.30017e-05 0.159329)
(0.000206587 0.000601285 0.0493408)
(-0.014613 0.000392201 0.108168)
(-0.00128148 0.000354288 0.160479)
(0.000577603 -9.67209e-05 0.0353255)
(-0.00057329 -4.04603e-05 0.196542)
(-0.0204576 0.00237821 0.108871)
(-0.000704347 -0.000433748 0.114858)
(-0.000681006 -0.00163832 0.0292663)
(-0.00116316 0.00226436 0.0452287)
(-0.000140005 0.000257383 0.188628)
(0.00120787 -0.000875718 0.129823)
(-0.00101378 0.00118797 0.0284172)
(-0.000153508 -0.00220344 0.106145)
(0.00133486 0.00115537 0.0556722)
(-0.00145719 0.00173655 0.0216505)
(-0.000400429 -5.7271e-07 0.184483)
(-0.0100952 0.000488043 0.103344)
(-0.000954662 -0.00212374 0.12794)
(-6.08915e-05 0.000601999 0.177356)
(0.000679291 0.0008003 0.182417)
(-4.59786e-05 5.87907e-05 0.173224)
(0.000806162 -0.000409918 0.130099)
(0.000986416 0.000339578 0.0389341)
(-0.000459372 0.0023838 0.0357651)
(-0.000399716 0.000802386 0.18758)
(-0.0127907 -0.000550214 0.107584)
(0.000168245 0.00101179 0.117464)
(0.00139076 -0.00134704 0.124977)
(0.00185845 -0.000935941 0.0761984)
(-0.000581031 0.00156969 0.147964)
(0.000704116 0.000889438 0.165527)
(-0.00090967 -0.000987606 0.0943472)
(-0.00159955 0.00101305 0.0993762)
(-0.00139458 0.00190332 0.0353409)
(-0.000455222 -0.000286855 0.0664396)
(-0.00239302 -0.0018469 0.0383745)
(0.000999071 -0.000877822 0.151982)
(0.000538223 -0.000458207 0.179516)
(-0.000907142 0.00269465 0.0891681)
(6.02035e-06 -0.0010196 0.094226)
(0.00107138 -0.00162328 0.0186697)
(0.000233535 -0.000712831 0.0738147)
(-0.00259261 -0.00122881 0.0528464)
(-0.00104718 0.000223677 0.180473)
(0.000674237 0.000328229 0.183697)
(-0.0112893 -0.000730177 0.104824)
(-0.000949629 0.000621452 0.1655)
(-0.00144188 0.00255875 0.076817)
(-0.0083287 0.000380117 0.101709)
(0.000677644 -0.00200431 0.130568)
(0.00156045 0.000789655 0.0228706)
(0.00026753 -0.000349007 0.183705)
(-0.000157758 0.00126835 0.0453034)
(-0.0013407 -0.000184832 0.138423)
(0.00317267 -0.00165642 0.0250372)
(0.000693243 -0.000307666 0.178879)
(-0.00506928 -0.000291552 0.101647)
(-0.000780539 2.09805e-05 0.159322)
(0.000544629 -0.000434074 0.111086)
(-0.000762841 0.000921103 0.146237)
(0.000162484 0.00144665 0.149624)
(-0.00040649 -0.000167638 0.191717)
(0.000199774 0.00192196 0.0308651)
(-6.61133e-05 -0.00107475 0.0427264)
(-0.000286801 0.000635995 0.0257143)
(-0.00030055 0.000987459 0.182559)
(0.000374185 3.91087e-06 0.158882)
(0.00128373 0.000882474 0.134688)
(0.00073784 -0.00135563 0.160895)
(0.00021158 -0.00056576 0.018822)
(0.000127322 0.000334671 0.0934354)
(0.00158077 -0.00144486 0.0842539)
(-0.000674702 -0.00022659 0.181471)
(-0.000931692 -9.47871e-06 0.123988)
(5.08595e-05 -0.000526825 0.145323)
(-0.00126418 0.000392785 0.101837)
(-0.000297859 -0.000164349 0.187366)
(-0.00250413 0.00182012 0.0185303)
(0.000333436 0.0033119 0.0804851)
(-0.000768331 0.000476949 0.153175)
(-0.00017511 0.00278937 0.0231301)
(0.000378817 0.00204527 0.0406542)
(-0.0010132 -0.000420128 0.0568625)
(-0.00215101 -0.00093494 0.0191947)
(0.00135011 -1.21055e-05 0.0900217)
(-0.000140967 0.000479701 0.172088)
(-0.000666626 0.00218159 0.0561762)
(0.0020586 0.0018178 0.0169796)
(-0.000384095 -0.000785244 0.0994218)
(0.000362986 9.59134e-05 0.0231952)
(-8.53212e-06 0.00133974 0.093594)
(-0.000259686 0.000173091 0.178874)
(-0.000192161 4.02725e-05 0.195444)
(3.86806e-06 -0.000238719 0.177991)
(0.000524212 0.000697129 0.166006)
(-0.000325928 -0.00013987 0.180515)
(-0.00103653 0.0021533 0.127602)
(0.000883123 -0.00103067 0.0423371)
(0.000382945 -0.000556429 0.181148)
(9.97622e-05 -0.00106233 0.120454)
(-0.000828766 -0.00153628 0.083378)
(-0.00151136 -0.000561145 0.0918191)
(-0.000568916 -0.000107252 0.166395)
(-0.00129885 0.000648955 0.111387)
(0.00085111 0.00133731 0.0604532)
(-0.00119834 -0.00106374 0.155438)
(0.000385657 -0.00118647 0.0300205)
(0.000477575 0.000346144 0.0822932)
(0.000273464 -0.000159158 0.0914818)
(-0.000725471 0.000674694 0.0562938)
(-0.000157529 -0.000296641 0.162152)
(-0.0184073 -0.000497323 0.106009)
(-0.0096915 0.000376074 0.127228)
(-0.000556808 0.00255411 0.0291809)
(0.00165575 -0.000256153 0.0237741)
(-0.000124501 0.00223393 0.0517851)
(0.00184499 -0.000402384 0.0183285)
(-0.000518524 0.000621476 0.124082)
(0.000813814 0.00112964 0.155179)
(-0.00123383 0.00127263 0.125804)
(-0.015343 0.00120023 0.110211)
(-0.000118594 -0.000240318 0.132299)
(0.000795497 0.000601753 0.147097)
(0.00385295 0.00278135 0.0227043)
(-4.74991e-05 0.000911424 0.15903)
(-0.0131337 -0.000368012 0.127564)
(-0.00124353 -0.000353601 0.0400596)
(0.00250345 0.00231201 0.0197008)