/*--------------------------------*- C++ -*----------------------------------*\
| =========                 |                                                 |
| \\      /  F ield         | OpenFOAM: The Open Source CFD Toolbox           |
|  \\    /   O peration     | Version:  2406                                  |
|   \\  /    A nd           | Website:  www.openfoam.com                      |
|    \\/     M anipulation  |                                                 |
\*---------------------------------------------------------------------------*/
FoamFile
{
    version     2.0;
    format      ascii;
    arch        "LSB;label=32;scalar=64";
    class       volScalarField;
    location    "67";
    object      nut;
}
// * * * * * * * * * * * * * * * * * * * * * * * * * * * * * * * * * * * * * //

dimensions      [0 2 -1 0 0 0 0];

internalField   nonuniform List<scalar> 
59516
(
2.15952e-06
1.10467e-05
7.01135e-09
8.3424e-08
0.0010851
0.000186194
5.52201e-09
2.82867e-06
2.382e-07
6.89175e-05
0.000337308
5.80307e-05
4.3386e-07
0.000146692
6.15116e-05
5.73247e-05
1.00193e-05
9.15484e-05
1.24985e-05
1.16311e-08
0.000131974
5.18813e-14
2.60052e-08
0.000118214
2.6194e-16
4.94294e-05
0.000112525
0.000155087
7.0544e-05
0.000125399
0.000242105
0.000146688
9.39537e-12
7.19172e-07
1.35309e-05
4.81657e-12
0.000122459
8.31709e-05
1.68744e-05
2.29811e-13
2.0967e-06
0.000158663
1.28789e-05
5.47945e-06
8.38947e-07
5.63172e-05
3.56233e-06
7.45839e-05
0.000861309
5.79958e-05
0.000623636
0.000105474
6.54117e-09
4.64284e-09
0.000135489
2.72346e-06
0.000238818
0.000121076
1.05487e-08
2.29432e-05
2.6283e-11
0.000132466
7.13811e-09
7.7479e-06
9.27097e-07
3.6993e-06
0.000174593
0.000106335
0.000423691
3.59919e-08
0.000190214
6.83183e-08
0.000154983
7.83497e-11
1.01882e-06
1.06548e-05
4.76133e-05
2.74455e-12
0.000101586
4.8466e-05
0.000109054
1.83048e-05
7.0631e-06
0.000142557
2.19849e-05
1.43765e-06
0.000109743
1.85994e-13
5.70007e-05
4.84438e-05
0.000526841
6.287e-10
5.93631e-09
1.34326e-09
4.22486e-09
0.00108654
2.7653e-10
5.52287e-05
7.22672e-05
6.88632e-12
0.000124866
0.000155606
0.000152718
5.65311e-05
2.05436e-11
7.34929e-10
0.000116549
6.46716e-07
4.482e-06
5.8051e-05
0.000242912
0.000165216
6.14151e-05
0.000153447
9.99534e-11
3.22447e-06
5.64034e-05
6.08763e-10
0.000141095
1.79029e-12
2.78295e-06
5.50237e-08
2.71961e-13
2.06396e-08
0.000231834
2.06056e-05
0.000170259
0.00010387
0.000280982
4.65483e-07
1.06623e-06
9.23004e-07
0.000136034
1.19053e-15
6.95016e-06
2.15659e-08
0.000111601
4.0776e-15
0.000115599
1.14543e-05
0.000107865
7.97954e-08
0.000121071
1.69644e-10
1.29421e-06
1.88061e-13
1.82464e-06
8.21377e-07
0.000251054
1.60377e-06
8.99921e-06
0.000106128
3.16729e-11
5.86972e-13
9.67757e-06
0.000133033
5.48581e-07
1.2212e-07
1.48131e-05
0.00013552
6.12933e-05
5.89027e-05
0.000113872
0.00016078
3.72768e-06
1.37315e-08
5.53325e-05
2.90493e-07
0.000128332
2.11798e-08
1.40473e-05
5.65263e-05
4.04251e-05
7.14214e-15
9.20912e-05
6.44278e-06
1.02341e-08
2.46223e-05
5.56225e-05
9.46707e-05
8.44402e-14
0.000109973
0.000181815
4.35947e-05
1.63579e-07
5.37244e-05
9.23321e-05
0.000131602
4.03669e-08
6.22845e-06
2.65879e-08
5.76546e-05
1.39581e-09
4.08854e-05
1.99967e-14
9.48951e-05
5.35284e-05
9.42475e-05
3.54707e-06
2.1403e-14
2.46561e-05
6.41479e-07
3.48366e-06
0.000124585
1.41638e-10
2.69291e-12
1.11325e-06
4.62327e-09
0.000137108
1.91159e-06
6.7027e-05
0.000176529
2.41364e-12
6.19114e-05
4.7594e-07
5.31319e-09
5.20558e-13
2.77137e-15
6.19243e-05
4.42322e-13
6.43031e-05
8.93234e-06
3.02168e-09
0.000126494
2.30378e-08
5.46787e-08
0.00016036
0.000106522
4.52627e-08
5.94679e-05
2.13333e-09
9.14428e-08
2.04761e-06
0.000147255
0.000107801
9.3782e-05
4.56366e-05
1.24525e-06
5.13857e-11
6.71796e-05
1.62024e-06
0.000144637
5.24209e-05
0.000159036
1.27345e-06
8.20751e-06
5.15128e-10
5.82045e-05
1.27636e-10
1.8256e-06
2.4574e-13
3.72027e-10
3.39051e-06
2.15709e-11
1.36522e-11
2.15114e-11
6.92991e-05
1.56543e-11
0.000104901
5.75461e-05
5.98934e-10
3.13726e-10
1.77589e-06
4.33074e-08
2.46858e-06
5.02715e-05
1.69329e-09
9.99888e-06
0.000130529
5.37415e-05
1.21812e-05
5.41143e-08
4.44491e-06
1.08179e-05
2.63044e-10
9.1482e-06
0.000130713
2.72852e-11
0.000145555
0.000105419
1.56317e-06
1.01202e-12
0.000163837
3.3061e-07
2.32345e-09
4.29351e-06
5.7661e-07
0.000164651
2.29168e-06
1.09021e-05
1.04924e-07
1.14995e-10
4.04494e-10
7.80048e-06
9.20381e-10
0.000172619
1.99947e-09
2.40291e-15
3.68339e-06
1.743e-07
8.09117e-09
4.9764e-05
0.000141174
0.000149057
7.62921e-14
0.000141983
9.03588e-05
6.73274e-05
5.56782e-09
6.97641e-09
3.9393e-16
5.01058e-05
3.9483e-06
0.000118981
6.0518e-05
4.08602e-09
7.03019e-06
0.00108022
1.32203e-05
0.000101112
6.32968e-05
3.00078e-06
2.61059e-07
1.31293e-06
6.18556e-06
2.94559e-12
2.94841e-05
1.02343e-08
4.64517e-09
1.02201e-10
1.17345e-12
5.3694e-05
0.000150003
1.52343e-11
0.000101499
0.000110769
1.93462e-10
3.88244e-15
6.33865e-05
7.40493e-08
8.10764e-12
1.16732e-06
5.03639e-08
9.82632e-05
2.9379e-13
9.10471e-07
5.64625e-05
1.31159e-06
3.10918e-07
1.40673e-08
7.47211e-08
6.83225e-11
4.84331e-16
2.21626e-05
0.000114393
0.000116388
9.0872e-06
0.000142799
0.000263562
1.45775e-05
1.61048e-06
2.74658e-08
0.000229402
3.4147e-13
8.75718e-12
6.61139e-13
1.06461e-11
0.000117124
0.000287666
6.4396e-05
0.000101413
0.00011058
3.8002e-10
1.02596e-05
1.30536e-10
0.000130004
1.12332e-09
0.000111864
2.21824e-08
5.16156e-05
4.92948e-05
6.45698e-07
0.00036079
0.000150484
5.91595e-05
3.03631e-12
0.000140558
2.47505e-05
6.61524e-07
2.1781e-13
1.31498e-05
1.22427e-05
1.4376e-10
0.000127946
9.27472e-07
9.72906e-05
5.97802e-05
5.85508e-05
2.99137e-07
1.01443e-07
5.03797e-05
1.7783e-10
4.53517e-06
5.73729e-07
3.47203e-07
0.00011414
3.15397e-08
2.6809e-12
6.18103e-14
5.00567e-13
0.000153068
0.000144627
2.12316e-10
6.5951e-08
1.90776e-06
0.000110998
2.29895e-08
1.5822e-06
4.17884e-07
1.86187e-07
1.05367e-06
5.82216e-08
2.63825e-08
5.32021e-06
5.59669e-07
5.69019e-05
5.83203e-09
2.48714e-06
1.00218e-11
3.74328e-07
1.40538e-14
3.27309e-11
9.70249e-05
0.000111268
0.000133697
0.000167649
8.37679e-07
1.86308e-11
2.21584e-08
0.000100443
0.000143022
3.27402e-07
2.01837e-11
1.70063e-07
1.4963e-13
1.60443e-12
3.9398e-06
1.84025e-13
0.000158178
6.87692e-08
5.25328e-05
0.000254342
1.01643e-09
1.01613e-05
4.4076e-12
0.000144371
3.22121e-07
2.05898e-06
5.63041e-07
6.69917e-06
2.17063e-11
6.06077e-08
4.57246e-07
2.26011e-06
1.73295e-05
3.31299e-08
7.4821e-15
0.000134797
5.57156e-07
1.68013e-07
0.000108424
4.36362e-06
2.69593e-09
6.53291e-10
1.75161e-05
0.00013964
4.16406e-08
1.91151e-10
1.04652e-10
9.98138e-10
9.56634e-05
6.60972e-12
0.000173275
8.66445e-09
0.000792522
4.14992e-08
0.000117388
1.06569e-06
3.49847e-06
8.31281e-05
2.3118e-06
4.85981e-07
0.000156678
2.73449e-09
6.3475e-06
0.000125387
5.56113e-05
5.2629e-05
7.72078e-11
1.63473e-06
0.000213838
5.34594e-05
5.13393e-05
6.68257e-08
2.44587e-06
0.000151162
2.73115e-13
6.5641e-09
2.22236e-07
0.000233241
4.93449e-10
0.000137435
6.50714e-09
0.000139433
4.59945e-05
8.92385e-14
5.09896e-05
0.000143513
0.000121158
0.000102972
5.86048e-05
3.18379e-16
5.81961e-05
4.96503e-05
0.000387324
1.28499e-07
0.000155398
1.36232e-06
0.000119346
4.13527e-08
5.89682e-05
1.13201e-07
6.30983e-05
1.64492e-08
6.31376e-07
8.36861e-05
1.9092e-09
0.000148979
0.000131834
1.20896e-14
8.8819e-07
7.50418e-11
9.94877e-09
6.2064e-07
6.47996e-05
2.56209e-09
5.21197e-05
2.55578e-07
1.01339e-07
0.000155217
5.24828e-14
0.000112975
0.000154717
1.53593e-14
9.76079e-05
4.72194e-10
1.63374e-06
7.74266e-09
5.13323e-05
2.16406e-07
1.34802e-05
1.1836e-06
3.00426e-09
7.60326e-07
9.78776e-07
0.000103049
6.24648e-05
1.2949e-07
2.79066e-12
0.00011853
6.32934e-10
9.403e-08
4.22665e-08
7.78525e-07
9.58352e-08
0.000134668
1.64326e-08
7.36807e-06
6.32576e-11
3.89032e-06
0.000159161
2.5487e-06
1.1795e-05
3.38158e-16
2.77749e-06
9.92174e-13
0.000110107
0.000142591
1.11467e-06
1.89229e-09
3.92107e-06
1.0635e-08
1.0988e-05
2.5162e-12
2.23152e-07
0.00013077
2.72803e-06
0.000151892
0.000119042
5.17211e-05
5.01123e-14
1.82856e-13
6.24211e-13
2.41381e-09
2.85885e-06
5.98616e-06
1.21719e-05
2.86097e-08
3.12943e-08
2.69956e-08
3.09067e-07
0.000126125
3.93663e-10
0.000109896
0.000207498
5.04886e-05
0.000535914
1.91112e-12
0.000159217
4.03066e-07
1.38948e-09
1.58227e-13
3.59385e-08
0.000109026
0.00148493
0.000700967
1.23677e-06
1.58382e-07
0.000149285
0.000197085
7.36912e-07
9.92502e-05
4.55786e-05
0.000147071
0.000155091
0.000170893
3.3474e-05
2.04141e-09
0.000150697
0.000145093
6.13747e-06
0.000209335
0.000108063
1.0385e-13
3.91803e-07
1.51884e-11
0.000124838
5.552e-05
1.71376e-07
6.44289e-08
1.22458e-11
0.000110032
0.000138654
0.000391296
0.000168389
2.22139e-11
0.000157416
4.80444e-06
4.13972e-07
6.1151e-11
0.000101191
4.39139e-06
9.73873e-05
0.000165317
2.86641e-07
0.000129185
4.58707e-09
0.000118598
6.97312e-12
4.89051e-14
0.000138429
5.64763e-05
2.71964e-14
0.000109386
6.65783e-09
6.18889e-05
1.85948e-06
1.27285e-06
0.000106152
0.00014415
0.000106382
0.000667161
1.75959e-06
6.10181e-05
1.02408e-05
0.000101854
1.98735e-06
0.00014576
1.43761e-10
1.63625e-18
8.64666e-09
0.000134244
6.05928e-15
1.25642e-05
2.78394e-11
6.60101e-05
0.000881161
9.59652e-14
9.25192e-05
4.12006e-06
0.000486757
5.15215e-09
0.000106891
0.00011872
1.00991e-06
1.93035e-09
0.000107463
4.19069e-07
5.47652e-05
0.0001497
2.32989e-07
0.00124555
1.804e-13
3.88488e-08
2.58075e-07
1.40325e-08
3.11218e-12
0.00010168
0.000109934
3.72273e-07
0.000984199
5.51452e-08
2.26415e-09
1.89846e-05
1.02886e-13
3.6086e-09
6.76206e-06
1.85467e-06
0.000144277
5.28568e-05
0.000130174
2.22659e-12
1.13946e-07
9.27229e-06
3.59002e-06
0.000127972
1.68788e-05
6.24747e-05
6.45834e-08
4.10453e-07
0.00118149
5.83904e-10
1.26596e-05
0.000839844
3.91368e-09
0.000160426
4.13086e-07
5.9888e-05
3.10714e-12
0.0001655
4.08543e-10
0.00134901
5.04421e-12
1.82543e-07
9.44029e-13
3.47094e-13
6.89113e-07
0.000118612
0.00012185
9.4984e-05
7.28886e-07
7.30766e-11
1.2817e-09
4.76606e-14
0.000124087
1.35724e-05
1.27793e-05
2.32939e-07
1.9129e-09
5.59446e-11
8.38861e-06
1.56086e-06
0.000141849
1.00723e-05
9.17753e-10
0.000157129
9.08299e-05
5.16434e-05
0.000140636
1.69467e-05
2.03499e-09
5.24894e-05
0.000132402
2.22037e-06
0.000146132
1.95174e-06
1.99789e-07
4.00976e-06
1.71012e-07
3.97511e-13
4.77584e-07
1.80152e-08
0.000101927
1.02039e-07
2.15322e-11
1.2195e-05
1.20346e-05
2.67497e-09
1.81157e-07
4.24078e-05
1.15475e-14
0.000111429
1.09967e-05
5.71914e-06
5.98848e-05
5.15127e-13
0.000264253
4.94261e-05
0.000106665
0.000168348
5.05843e-05
0.000133912
1.13685e-09
2.29815e-11
1.55457e-09
8.54905e-05
4.02164e-11
8.30625e-12
0.000147734
2.1074e-10
0.000579834
9.2095e-05
0.000147414
7.45752e-08
1.20781e-06
0.000146999
5.3186e-11
0.000142486
8.5785e-08
3.00699e-11
5.36402e-08
8.0465e-14
2.44588e-06
5.42964e-06
7.36386e-07
0.000130254
0.000113253
3.46789e-06
4.5762e-06
0.000129019
1.35359e-13
0.000311682
9.88501e-08
6.32757e-08
1.95991e-05
6.86449e-11
7.06821e-06
1.17688e-05
0.000118483
2.05889e-08
3.33168e-06
0.000123891
2.34686e-09
1.58568e-06
4.32028e-15
6.88216e-06
5.06195e-11
1.48941e-06
1.31111e-05
2.58597e-06
7.42529e-06
2.44768e-12
4.63219e-05
3.00507e-08
8.50165e-07
0.00155942
1.76819e-16
2.4029e-06
2.05753e-07
0.000124435
9.58454e-05
6.60289e-08
1.78653e-12
8.29429e-12
4.10325e-06
9.03035e-13
2.74836e-06
6.77462e-07
0.000224641
1.48108e-06
6.04945e-07
0.000140069
2.25662e-12
9.63691e-11
0.000109361
3.9896e-11
9.63526e-07
3.21052e-06
6.46105e-07
3.60409e-06
1.5839e-07
5.47117e-05
0.00143824
0.000120612
4.57483e-07
2.65766e-07
0.000154632
7.65469e-05
5.44472e-05
2.67159e-07
9.21457e-05
2.86501e-11
1.67444e-07
2.28333e-08
1.58605e-12
1.50387e-05
0.000119495
6.70881e-11
3.31381e-10
2.95783e-07
1.50035e-05
7.23803e-13
3.34848e-06
9.26005e-07
0.000126011
2.41752e-09
9.09097e-06
1.78768e-05
0.000124174
5.51181e-05
7.89969e-06
3.61177e-07
8.1524e-05
6.32887e-09
1.8426e-10
8.18381e-08
5.10351e-07
1.3052e-09
1.93975e-07
3.00968e-07
1.26222e-06
0.00139923
6.60929e-13
5.95031e-07
0.000117862
5.77545e-05
8.36242e-09
8.47018e-11
0.00011659
4.75122e-09
1.53445e-06
1.09683e-05
1.0796e-05
3.43438e-06
2.19067e-12
7.44929e-06
1.44214e-06
0.000294702
6.76292e-06
2.7102e-06
0.000166238
1.97604e-06
0.00010589
1.24516e-05
6.73079e-08
4.66449e-05
0.000109998
1.80414e-07
5.72893e-09
1.4007e-16
0.000100659
1.27004e-06
0.000102026
9.71551e-06
4.62274e-05
4.50582e-05
7.43134e-06
5.97992e-06
5.56776e-05
2.20839e-11
2.82486e-08
1.34755e-06
4.03299e-06
6.33379e-06
2.47736e-07
1.77043e-06
2.45473e-07
5.39533e-05
4.10049e-06
0.000104375
0.000109891
2.45582e-08
9.20791e-05
0.000178333
1.38304e-06
1.80616e-06
1.15363e-05
0.000225349
0.000150892
1.99744e-09
1.8984e-06
2.20891e-07
0.00016109
0.000134642
7.46768e-06
0.000102694
7.03803e-10
6.28938e-08
4.72685e-06
0.000129761
4.37225e-07
1.85296e-09
0.000127908
8.75072e-06
2.0157e-06
5.39337e-05
4.31465e-09
1.1636e-06
9.04166e-07
6.67176e-10
0.000108527
1.47725e-07
2.59163e-09
1.15416e-07
4.32591e-05
4.95286e-09
9.13588e-06
5.93115e-07
0.000137225
5.70454e-07
1.05798e-05
0.000108509
6.54831e-09
0.000118657
2.03609e-11
2.19795e-06
1.96957e-07
0.000185452
1.5717e-06
9.99841e-06
4.72784e-05
7.44006e-06
1.72846e-10
0.000139207
5.43589e-10
1.06218e-12
4.96265e-05
0.000164908
0.000118321
1.10056e-06
7.27003e-15
2.64247e-07
1.18483e-05
4.65467e-05
1.19774e-11
9.44333e-05
1.62223e-06
2.33009e-06
2.48284e-05
5.84553e-05
7.30856e-15
0.000158811
1.22852e-05
1.34982e-13
2.96743e-06
0.000121392
2.60624e-11
2.3728e-09
0.000154775
5.02634e-10
2.24868e-09
6.90965e-08
1.28761e-05
4.65411e-06
0.000158642
9.00216e-09
3.43123e-15
0.000157608
0.000102791
0.000105017
1.02565e-08
1.17278e-05
3.44887e-09
5.41428e-05
1.41368e-08
0.000145534
1.71027e-12
3.34247e-05
9.23392e-10
1.26917e-06
4.68629e-16
7.88013e-12
0.000106648
0.000109341
5.13005e-12
5.00068e-12
0.000139906
0.000170523
1.82129e-08
3.33461e-16
4.49017e-10
2.73761e-06
3.82361e-13
3.12114e-13
8.36889e-08
5.74676e-05
2.19792e-05
4.96779e-05
2.01415e-13
1.49454e-05
0.000108872
0.000160753
1.29611e-08
9.33028e-07
3.24394e-06
9.04139e-09
1.17568e-09
9.1219e-05
1.41729e-09
4.39395e-07
0.000123889
0.000156951
2.38129e-07
1.06187e-07
0.000119729
0.000124557
3.17323e-08
5.29707e-06
0.000164786
1.92879e-05
4.09719e-08
3.21804e-09
2.78304e-07
1.59912e-11
4.33583e-13
0.000141382
8.91166e-05
8.19392e-07
3.21726e-09
1.50099e-06
2.51497e-10
5.36457e-05
5.74262e-05
0.000105119
1.82903e-05
0.000164325
6.81472e-15
1.60214e-15
7.98499e-06
6.04204e-05
0.000142318
1.99981e-06
1.11714e-07
8.99292e-09
5.19888e-07
2.9296e-06
1.03375e-15
0.000122615
7.07934e-05
0.000241043
1.73491e-06
5.11461e-13
1.92182e-06
5.15303e-05
1.42036e-05
5.00126e-08
1.04506e-15
9.98935e-06
1.00465e-14
1.81354e-09
2.61722e-06
5.70439e-05
0.000168004
6.25151e-09
0.000107484
2.5677e-07
1.56442e-08
1.31068e-05
0.000136898
4.25691e-12
4.66895e-05
0.000117124
0.00013396
1.51387e-09
7.1047e-07
3.08515e-08
9.37003e-08
1.38313e-05
1.64337e-06
0.000124394
0.000107504
0.000121013
9.40474e-07
3.02506e-06
9.73991e-12
1.46727e-06
7.42603e-07
3.21614e-09
0.000186937
4.97328e-08
0.000132957
1.08631e-10
1.57007e-06
0.00013536
1.99485e-07
3.75925e-06
7.39355e-11
7.46729e-06
4.41364e-05
9.46407e-05
4.90121e-13
0.000121785
4.09261e-06
1.03446e-05
9.01522e-08
3.14417e-05
0.000106724
0.000181617
0.000115458
6.54142e-08
4.93257e-08
2.20409e-07
6.99228e-05
5.76697e-09
1.43999e-08
2.40263e-10
1.24407e-10
9.819e-05
0.000115749
4.91925e-09
7.98565e-07
5.72109e-05
2.00047e-06
1.19324e-07
1.05121e-09
7.9938e-06
0.0001652
0.000201379
5.63038e-05
4.50789e-12
4.3608e-09
1.11338e-06
0.000134397
9.88773e-05
8.32274e-15
3.46023e-07
5.69861e-05
6.89528e-07
4.27933e-11
5.13155e-10
1.12984e-08
5.41177e-07
2.34453e-11
1.14672e-10
3.84157e-06
3.58233e-07
2.59153e-07
1.47138e-05
4.18472e-05
1.0031e-06
1.73648e-09
0.000114932
5.30919e-05
1.19278e-10
5.91325e-05
2.67197e-16
4.24591e-06
6.40148e-11
4.78096e-12
2.07742e-07
1.14025e-08
1.03175e-08
8.2867e-12
9.8481e-05
0.000169282
8.57758e-06
9.09806e-07
0.000138169
1.25443e-05
2.19779e-07
3.952e-08
7.8042e-12
0.000131461
2.06664e-06
8.63858e-11
1.33639e-05
1.04403e-08
3.97978e-07
0.000151733
2.54113e-08
0.000142674
5.98362e-06
0.000138827
2.87969e-11
4.83845e-16
1.2315e-08
0.000147523
6.16677e-05
8.41676e-06
6.06151e-17
4.99029e-05
5.9153e-05
7.73928e-06
4.84423e-07
0.000116485
4.28227e-07
5.49525e-16
5.51673e-05
5.38939e-05
0.000159926
8.03744e-12
1.51927e-07
6.06858e-17
1.9577e-08
4.42924e-06
4.29954e-06
5.23981e-06
0.000132784
0.000102052
0.000158756
1.41288e-05
2.2114e-06
0.000100043
0.000111009
5.25705e-05
0.000160698
1.19409e-10
0.000159066
1.76996e-08
3.16471e-06
1.7841e-11
5.3786e-05
1.63628e-06
0.000103923
6.20588e-05
2.02463e-06
8.57033e-10
1.51134e-07
0.00171373
1.56586e-08
0.000143987
1.52328e-08
1.24514e-13
5.2489e-07
1.31217e-05
3.77445e-12
1.97187e-08
8.33171e-06
5.96328e-05
0.000104535
1.85534e-06
1.01227e-06
0.000110796
1.18893e-05
4.64199e-14
0.000111483
0.000171646
3.83674e-06
7.87182e-05
6.10453e-05
0.000147768
4.74956e-05
0.000116124
0.000124847
0.000112716
0.000145466
2.09889e-06
1.15545e-05
4.07622e-07
0.000134672
4.5711e-09
7.61361e-13
1.51528e-15
1.18503e-06
2.86911e-10
0.000106135
1.00233e-10
0.00140653
1.17149e-05
3.01851e-06
7.30686e-09
0.000126563
4.92741e-07
9.55599e-06
0.000181591
0.000101462
1.07181e-14
6.02477e-06
0.000132199
2.06329e-11
5.65345e-12
4.95927e-07
1.03576e-10
0.000106727
1.35922e-08
1.39542e-05
0.000183065
9.60053e-14
9.10348e-14
8.54383e-08
8.0378e-06
1.19498e-13
6.69998e-11
0.000268973
3.11368e-06
3.01988e-06
2.19134e-07
1.21528e-05
4.71799e-06
1.8296e-11
0.000192005
2.62508e-15
0.000203901
0.000228192
6.39995e-05
2.41986e-12
1.89959e-13
0.000437563
2.38571e-11
1.32841e-06
1.64716e-05
2.69006e-07
0.000152186
0.000159043
0.000220774
5.93124e-05
0.000178138
1.33296e-13
0.000121041
5.10664e-07
0.00010315
0.000139255
3.10484e-06
5.22405e-05
2.55701e-08
3.75783e-10
1.96532e-07
0.00011721
0.000120778
6.82596e-09
1.41123e-10
0.00015626
5.43048e-11
5.31987e-05
9.09347e-06
5.07453e-08
2.78298e-11
3.18088e-07
3.10664e-06
5.65375e-06
1.17037e-05
0.000108882
9.2927e-05
6.44477e-05
0.000100832
1.65192e-06
1.2456e-09
5.64484e-05
5.56623e-05
4.52884e-06
5.47595e-15
5.46808e-13
5.24309e-05
1.77815e-10
0.000134634
7.19871e-05
3.44608e-14
0.000118222
1.21549e-05
9.02414e-06
1.84675e-07
6.87755e-06
2.25672e-10
8.16384e-06
8.68692e-06
3.78379e-10
9.31668e-07
3.00891e-10
0.00014967
0.000117777
3.77717e-07
3.11722e-06
1.65662e-12
7.74938e-06
4.91087e-06
0.000128856
1.741e-09
2.15061e-09
6.72823e-11
8.02179e-06
0.000120617
5.18715e-05
8.05926e-05
2.18991e-08
4.99426e-05
2.14904e-06
0.000148443
8.08803e-09
0.000112164
1.15594e-05
7.07665e-07
6.12331e-05
2.85756e-14
1.56819e-10
0.00010682
0.000154226
7.59536e-07
0.000187437
4.60182e-10
8.81596e-09
1.25613e-05
2.90593e-12
1.74318e-05
2.69393e-07
0.000150771
2.29926e-06
1.50014e-08
2.31493e-06
0.000127073
2.18733e-11
1.02446e-09
1.23838e-05
3.43609e-10
0.000104121
2.28093e-09
0.000141036
7.9275e-11
4.43797e-08
3.51393e-12
1.09546e-14
0.000105663
0.00014319
0.000108289
1.10653e-07
0.00010527
1.20016e-06
9.95053e-05
3.68007e-07
6.08849e-05
0.000128207
3.44515e-06
2.02153e-11
1.10126e-05
8.05656e-07
7.6129e-08
9.06439e-12
0.000114603
3.52258e-06
0.000169768
4.93835e-05
9.57733e-07
2.90795e-06
7.7339e-09
0.000180877
0.000104578
1.68672e-05
1.05291e-05
7.57823e-12
7.71344e-15
4.1196e-11
0.00012185
8.2222e-17
1.15074e-11
1.02924e-07
6.74082e-05
8.11919e-10
3.09622e-07
9.56212e-09
8.01024e-09
1.9834e-05
5.17397e-05
9.68585e-13
0.000100913
3.41004e-09
9.27977e-06
7.39456e-11
4.59194e-11
9.82966e-12
6.15378e-07
0.000106116
1.29866e-06
5.97408e-05
0.000154586
1.46622e-08
0.000119745
4.8933e-11
0.000145696
0.000112371
5.35479e-05
2.1041e-05
1.29781e-08
8.55497e-05
0.000161189
1.91039e-09
1.38968e-05
1.07263e-08
2.97218e-06
0.000136732
1.13588e-05
0.000115973
9.56124e-07
1.01888e-09
4.90419e-05
2.14344e-10
3.94802e-09
1.87698e-12
1.49168e-09
2.80843e-09
8.21303e-14
5.17428e-08
9.88561e-18
0.000167645
0.000151337
1.44372e-13
0.000166782
4.28334e-07
2.38121e-08
1.29862e-05
1.19756e-06
8.81781e-09
0.000114795
4.80885e-06
4.87852e-05
9.06106e-06
0.000112096
1.63427e-11
2.95039e-06
2.56517e-05
3.13922e-06
0.000109099
2.46387e-07
8.63326e-09
1.19036e-05
1.11096e-13
0.000128895
0.000142352
8.63752e-09
5.20803e-08
2.41453e-08
3.75204e-06
0.000146469
4.91249e-06
4.53695e-05
1.89406e-06
2.56683e-09
0.000106473
3.33608e-14
1.81682e-10
0.000114846
0.00017709
3.59657e-06
1.00071e-05
0.000146383
2.43599e-15
0.000118577
0.00016066
1.38073e-05
1.25383e-07
3.49699e-06
1.2554e-11
6.58892e-08
7.16848e-13
8.73489e-07
9.72746e-07
1.3188e-06
1.0848e-08
1.6799e-12
0.000127406
0.000110592
1.72532e-09
3.51832e-08
2.39471e-06
0.000140221
0.000154741
6.09538e-16
0.000164221
1.30719e-12
8.15956e-09
2.8972e-06
0.000109417
5.75391e-05
2.81572e-07
2.75159e-07
8.22219e-12
7.18558e-14
5.17559e-05
0.000170741
6.4096e-08
0.000165132
0.000117742
0.000102129
0.00010567
3.82981e-10
2.39748e-06
6.8553e-15
1.1662e-06
7.36839e-06
5.24101e-06
2.07557e-09
3.77558e-10
5.67016e-05
4.48348e-07
2.10876e-09
2.45519e-09
9.31504e-05
9.44028e-07
0.000165988
1.04996e-05
0.000112237
6.3721e-11
4.40224e-15
0.00116755
0.000136067
8.17179e-06
6.32356e-05
0.000135508
1.51477e-14
0.000136433
5.89051e-05
1.05855e-08
8.29486e-10
1.49486e-06
0.000100949
2.24053e-06
4.96688e-05
7.90857e-07
1.30553e-09
1.59016e-09
5.07782e-08
0.000107748
1.2302e-13
2.91799e-08
2.42097e-06
3.41736e-11
2.97865e-10
3.95281e-11
5.46176e-06
0.000142379
9.97852e-05
3.66884e-07
1.41978e-06
1.37879e-14
8.87072e-05
2.9575e-08
4.95607e-05
2.6256e-10
1.75089e-14
1.19606e-05
6.12897e-05
4.93892e-05
0.000125457
3.0475e-12
2.4795e-19
5.1537e-05
1.83886e-07
0.000129695
3.7857e-12
4.83257e-08
0.000163004
8.43645e-07
1.96479e-07
7.89898e-11
0.000223766
0.000152844
0.000123117
5.63176e-05
4.94752e-05
0.000162725
0.000152152
0.000156015
1.17141e-05
1.61991e-08
1.0105e-09
7.04658e-09
4.30093e-07
0.000141864
1.63312e-11
1.11634e-08
0.000120724
0.000130781
0.000176867
1.42098e-05
0.000175113
1.42722e-11
0.00030255
6.18518e-06
2.09714e-05
9.2237e-05
8.46027e-06
2.21046e-11
1.08259e-06
6.65575e-16
1.12109e-10
1.85375e-08
6.17648e-05
2.4414e-06
3.46658e-13
1.13359e-07
0.000116573
3.2018e-05
1.68676e-06
1.43813e-09
7.76513e-07
3.33663e-07
4.8042e-05
9.93707e-05
0.000157755
6.13663e-06
5.39736e-06
4.76161e-08
9.92509e-09
0.000103151
1.3226e-06
6.03584e-05
2.67805e-06
2.56043e-09
9.47275e-05
0.000113175
5.92192e-07
1.39026e-12
1.71887e-11
8.60378e-11
1.70425e-05
4.61868e-05
7.65768e-17
2.68716e-06
6.79564e-08
5.60827e-13
1.80849e-11
6.66717e-07
1.02474e-05
6.3994e-14
0.000133967
8.43971e-05
0.000160543
3.99743e-06
6.47551e-07
8.4757e-06
4.97412e-05
1.25778e-13
8.36521e-05
4.94927e-05
0.00013491
1.16528e-07
1.50072e-09
4.08296e-10
0.000125799
0.000102738
6.23702e-05
0.000147381
0.000116975
2.80644e-09
3.39445e-08
0.000142923
0.000113462
5.09962e-05
4.83586e-07
2.01521e-08
6.10792e-14
8.23663e-06
7.09481e-13
3.08614e-16
5.31294e-06
0.000106896
4.01183e-06
5.21224e-12
6.55005e-15
4.25306e-08
1.97159e-15
1.99874e-10
2.58331e-05
1.60629e-07
6.42109e-05
0.000345728
4.55982e-11
9.43967e-09
0.000124332
2.86052e-08
0.000150055
3.65785e-14
1.42591e-13
9.21703e-10
2.67904e-09
5.56676e-05
0.000160467
5.64517e-05
2.34007e-06
6.77612e-07
4.53474e-07
4.92521e-10
0.000116391
1.37809e-05
5.34774e-11
2.78066e-08
6.81994e-07
0.000189151
8.72267e-05
1.45181e-06
3.04004e-10
2.81549e-07
2.48677e-08
2.73892e-10
6.87117e-15
2.75176e-15
4.28278e-06
1.87766e-08
5.22216e-07
2.16324e-13
1.12818e-05
0.000151962
0.000134285
1.43816e-05
1.27072e-06
1.97514e-09
1.09336e-08
0.000156583
1.06751e-06
7.64563e-15
6.50063e-09
1.13283e-05
5.33718e-12
2.21001e-16
1.11388e-11
1.10606e-07
9.51685e-07
6.60238e-13
0.00010136
2.70657e-07
5.88192e-12
0.000139334
6.92203e-08
1.02297e-11
4.208e-12
4.27378e-15
1.19385e-08
0.000107261
3.451e-09
1.36623e-05
1.90485e-08
1.60607e-05
1.87488e-10
4.29008e-11
1.2786e-05
3.68807e-09
0.000141436
2.58036e-09
0.000108012
0.000115102
5.85536e-15
0.000134904
1.15451e-07
2.63267e-10
2.81478e-09
5.06168e-05
7.31287e-06
0.000142948
1.34876e-13
9.93022e-05
9.11609e-06
4.389e-14
2.57765e-14
4.1956e-09
6.80549e-13
1.62889e-12
3.92984e-07
3.78273e-12
4.84211e-12
5.81399e-12
0.000118324
1.20714e-05
6.8728e-07
1.44573e-07
5.67181e-05
9.62449e-17
2.37401e-10
3.61261e-09
0.000132847
2.46932e-11
0.000149684
5.55024e-07
0.000156272
9.55946e-05
1.73058e-06
1.28385e-11
4.13655e-12
8.7399e-07
0.000136339
9.72554e-10
0.000162775
0.000139408
9.05196e-14
6.42705e-05
8.22771e-06
4.8818e-11
2.25297e-12
0.000139178
5.38707e-05
0.000109076
1.26303e-07
1.4773e-09
4.79037e-05
2.35062e-15
1.13629e-05
5.67685e-05
6.34031e-05
0.000153025
7.22639e-12
4.74773e-09
1.85507e-08
1.4513e-14
7.15409e-08
8.24087e-10
2.93785e-08
3.12415e-07
4.22052e-13
5.10523e-07
4.46426e-06
1.16592e-05
2.19694e-08
1.38145e-05
2.47953e-10
1.0045e-14
5.26895e-11
1.02467e-11
3.99529e-08
9.65767e-11
0.000113783
1.07325e-10
7.72593e-08
4.60492e-05
1.38386e-07
1.78773e-06
0.000190246
8.95079e-12
1.15465e-08
8.39912e-06
4.51409e-09
0.000113697
9.02062e-07
6.01817e-10
7.95476e-11
8.96554e-06
5.59655e-05
6.0625e-05
2.46322e-09
0.000109114
0.000109821
0.000179242
2.43083e-14
8.99392e-11
2.69982e-08
1.69781e-11
6.82919e-16
3.35223e-14
7.30967e-05
8.96794e-07
1.09027e-08
6.77959e-09
1.09611e-06
4.52642e-07
0.000108522
0.000137633
0.000145057
4.61068e-05
5.80824e-10
5.84535e-07
3.47758e-07
1.15153e-05
5.40325e-11
1.31556e-09
0.000143909
2.40062e-06
1.05284e-08
1.98563e-08
1.23141e-06
6.33238e-05
6.61837e-05
3.82736e-08
9.79988e-05
3.88913e-11
1.84307e-14
4.5429e-06
3.00522e-12
1.07563e-05
4.31706e-05
5.54996e-06
1.60121e-06
8.51126e-06
1.55119e-08
1.13267e-07
7.49832e-05
0.000109452
1.37017e-07
2.10539e-06
5.63498e-05
0.000121468
1.04137e-05
0.000147772
8.24796e-09
2.78937e-07
0.00010222
1.0066e-07
8.27075e-07
2.878e-12
9.7676e-09
1.73869e-09
2.76783e-12
1.44334e-09
7.32609e-10
1.39903e-05
2.75704e-10
4.95486e-05
1.83237e-05
5.29882e-05
7.92264e-08
1.1563e-06
1.94381e-08
5.99278e-11
8.13915e-06
6.43278e-06
0.000136353
8.62028e-06
0.000132436
1.25946e-05
1.20761e-12
1.83879e-15
9.56203e-10
3.73873e-14
0.000107853
0.000130514
1.60503e-08
1.08878e-05
8.98066e-05
1.22106e-07
0.000107487
6.37181e-10
2.63617e-13
1.39416e-12
1.63293e-07
1.27265e-08
5.53196e-07
2.96674e-10
9.87356e-05
4.84198e-08
0.000114059
0.000105182
5.03073e-05
5.14915e-13
6.94596e-07
2.12207e-06
0.00011196
0.000307288
5.04487e-12
5.9959e-06
1.03798e-05
1.16961e-05
0.000108979
9.6957e-05
0.000113118
5.10282e-05
1.28072e-08
5.67749e-05
1.55185e-13
4.77025e-05
0.000115899
7.6603e-06
9.58482e-05
0.000143316
0.000138954
3.02823e-09
1.03147e-07
7.21708e-08
5.64026e-05
2.53555e-06
0.000143919
1.05667e-06
4.32726e-05
1.22331e-10
8.83129e-12
0.000143757
1.21932e-11
1.37716e-08
2.15771e-10
6.52641e-10
3.54017e-12
4.85584e-08
4.77467e-13
1.4218e-09
3.78099e-11
0.000170031
1.10335e-05
5.39518e-05
2.0153e-13
0.000107745
1.45322e-05
3.19314e-17
2.45671e-05
1.15053e-06
0.000129005
2.14333e-07
1.65091e-06
1.29847e-07
1.76814e-09
1.14324e-10
1.59059e-12
6.73334e-11
1.14141e-10
1.31087e-07
5.53644e-05
5.55827e-05
3.23386e-14
1.31511e-08
1.93526e-12
1.00229e-12
8.55528e-10
6.26001e-11
5.57614e-13
0.000108928
7.63418e-14
4.48762e-07
0.000136423
2.10473e-09
0.000143213
3.56186e-09
4.97892e-05
0.000108193
4.75706e-14
9.55614e-05
0.000150298
0.000125593
0.000110051
0.000103874
3.32306e-08
7.22862e-06
5.4218e-07
8.93595e-13
5.40145e-05
3.7969e-10
8.4192e-07
1.23057e-09
0.000145421
4.0045e-14
1.44289e-06
3.1176e-07
2.47635e-10
0.000137889
9.84531e-05
2.70872e-13
0.00017196
2.99164e-07
0.000124407
4.19833e-09
4.14109e-05
2.60635e-06
1.29025e-06
5.43707e-12
0.000109136
0.000128111
0.000108968
2.06288e-14
5.12495e-05
0.000108932
5.57603e-07
1.22031e-05
0.000142483
5.96809e-06
0.000155755
1.74991e-10
2.22846e-13
1.32708e-07
7.63743e-10
0.000181245
1.57245e-06
9.26719e-05
1.55242e-07
1.37789e-12
8.95414e-07
5.37908e-10
9.44929e-06
1.41965e-06
0.000106669
2.89046e-13
2.61854e-06
1.36615e-06
1.14856e-06
5.35114e-05
0.000127392
3.56438e-11
1.42307e-11
2.27529e-09
4.38e-05
3.18156e-11
0.000167569
0.00019042
0.000106998
1.35215e-08
0.000115099
4.49448e-07
0.000144039
0.000115806
2.76149e-09
5.11715e-05
0.000103146
0.000105822
1.87852e-16
1.31035e-12
6.8084e-07
5.23744e-05
7.06756e-12
1.42208e-13
5.24393e-07
1.4635e-07
3.60165e-11
3.67705e-09
1.68398e-07
0.000158037
1.32974e-11
2.46145e-05
5.23763e-05
0.000153684
7.29372e-09
6.394e-10
5.12995e-06
2.26262e-13
0.000156371
1.0086e-06
4.2946e-11
0.000136504
1.08567e-14
2.01186e-09
4.86865e-12
0.0001075
9.05811e-09
9.96105e-05
6.36744e-07
4.9007e-05
0.000137629
1.35815e-07
6.25828e-12
4.73539e-05
2.13497e-15
2.97479e-10
5.72993e-11
5.03549e-08
5.91182e-05
0.000152532
2.8888e-09
1.3431e-13
9.25944e-12
1.76365e-10
5.66958e-05
9.00277e-15
6.06957e-05
4.63554e-05
2.61525e-14
1.53762e-05
3.22391e-06
1.45856e-11
1.13087e-06
0.000103631
0.000113828
6.58318e-08
1.24797e-10
9.79132e-05
0.000117295
1.03865e-05
2.05585e-11
4.66116e-12
0.000147123
1.05744e-05
2.70923e-11
8.14845e-11
2.86028e-12
1.55834e-15
1.1196e-06
3.79868e-07
6.98355e-16
3.75984e-11
1.2049e-05
0.00015696
0.000157555
7.11232e-09
3.34072e-06
4.85751e-13
3.63477e-11
6.95894e-10
3.80956e-12
7.3518e-09
1.33666e-11
1.31875e-13
3.91669e-10
4.52138e-06
2.56772e-12
1.57017e-10
7.34565e-06
1.70902e-09
7.45627e-06
0.000132732
1.88413e-08
3.28455e-11
1.73031e-12
2.31227e-09
3.34386e-10
7.01191e-06
0.000125917
5.24066e-15
1.29878e-10
1.49452e-14
8.16271e-09
8.44456e-05
5.24661e-05
9.96009e-07
0.000168654
1.332e-10
0.000112765
4.95462e-07
3.87942e-15
5.12249e-17
1.81565e-13
1.90826e-07
0.000102433
0.000156129
0.000253392
4.80298e-06
0.000122453
2.64791e-13
7.93715e-10
0.000104427
3.50857e-06
2.77651e-06
2.32049e-07
6.5498e-08
1.55811e-07
2.54195e-05
6.21978e-07
1.7552e-09
0.000129401
4.06967e-09
0.000106348
0.000132644
1.47119e-09
4.76262e-05
1.48128e-10
2.07038e-11
4.48523e-08
5.95304e-06
1.15016e-05
7.5874e-12
1.28363e-14
1.25451e-12
8.92625e-05
0.000126556
4.32367e-07
7.08761e-11
1.61613e-06
8.0456e-07
1.14219e-05