/*--------------------------------*- C++ -*----------------------------------*\
| =========                 |                                                 |
| \\      /  F ield         | OpenFOAM: The Open Source CFD Toolbox           |
|  \\    /   O peration     | Version:  2406                                  |
|   \\  /    A nd           | Website:  www.openfoam.com                      |
|    \\/     M anipulation  |                                                 |
\*---------------------------------------------------------------------------*/
FoamFile
{
    version     2.0;
    format      ascii;
    arch        "LSB;label=32;scalar=64";
    class       volScalarField;
    location    "67";
    object      p;
}
// * * * * * * * * * * * * * * * * * * * * * * * * * * * * * * * * * * * * * //

dimensions      [0 2 -2 0 0 0 0];

internalField   nonuniform List<scalar> 
59516
(
0.233903
0.013518
0.012832
0.00178173
0.247361
0.267867
0.234705
0.207937
0.0681013
-0.00053063
0.242048
0.235991
0.163043
0.233151
0.218702
0.069164
0.234999
0.242966
0.239327
0.232014
0.238456
0.207341
0.2346
0.150379
0.0603324
0.145112
0.085553
0.24174
0.237122
0.217719
0.250681
0.241896
0.109214
0.0013197
0.239502
0.195766
0.0587865
0.245809
0.237724
0.0118171
0.0139204
0.24208
0.238625
0.00148026
0.237132
0.0368959
0.237932
0.238447
0.24899
0.239764
0.255008
0.0010482
0.111227
0.211558
0.237905
0.237018
0.243258
0.00141804
0.150022
0.240581
0.00135421
0.191404
0.151282
0.235604
0.00291836
0.237439
0.00725801
0.199402
0.249305
0.236988
0.202949
0.232006
0.0410571
0.233285
0.200674
0.23658
0.237995
0.0261319
0.166304
0.239661
0.00131382
0.23967
0.238718
0.0973547
0.239677
0.231638
0.068476
0.232271
0.110069
0.242935
0.245496
0.204124
0.227176
0.201473
0.202428
0.248707
0.217745
0.20856
0.239422
0.161445
0.0742245
0.133959
0.213822
0.00775595
0.0410774
0.00621417
0.00556506
0.0642315
0.115987
0.167749
0.247613
0.0800435
0.204611
0.248157
0.225014
0.186387
0.0287232
0.211961
0.212541
0.0287266
0.213837
0.210526
0.0553389
0.212037
0.246086
0.239555
0.225107
0.243697
0.254763
0.226414
0.224185
0.0137124
0.200449
0.226937
0.227659
0.197437
0.246493
0.220944
0.134993
0.230697
0.0810615
0.101683
0.20803
0.080418
0.231292
0.228962
0.237484
0.232939
0.253796
0.227826
0.231047
0.00276689
0.225083
0.00259949
0.2265
0.00491425
0.00348038
0.227142
0.227746
0.219443
0.231317
0.231081
0.2189
0.00403383
0.184701
0.0270811
0.068336
0.228746
0.229384
0.00382241
0.226569
0.226583
0.222212
0.223049
0.222623
0.238523
0.187366
0.239303
0.0124381
0.184955
0.224889
0.11924
0.141446
0.224269
0.22444
0.0756721
0.104518
0.0581822
0.225873
0.223544
0.000298374
0.118187
0.228467
0.223491
0.229871
0.0183909
0.13563
0.135117
0.00361354
0.22197
-0.000569408
0.0570933
0.209095
0.162188
0.191112
0.119521
0.229458
0.00315286
0.154758
0.215786
0.03839
0.241516
0.214828
0.192242
0.215917
0.0860779
0.228091
0.01839
0.176937
0.216386
0.21616
0.229142
0.222129
0.00399337
0.218825
0.18661
0.154146
0.162312
0.221718
0.0334058
0.217963
0.11743
0.222316
0.12367
0.130157
0.222444
0.221006
0.0466723
0.220888
0.0497259
0.225015
0.119458
0.115819
0.00291802
0.226307
0.225852
0.223433
0.0110801
0.222402
0.225443
0.011537
0.223705
0.225488
0.140388
0.224456
0.225292
0.0696172
0.220426
0.171217
0.217352
0.156285
0.219185
0.220715
0.220383
0.195693
0.0528717
0.177547
0.0631319
0.218039
0.14777
0.235247
0.190716
0.0670304
0.15037
0.218914
0.195719
0.148044
0.21778
0.218807
0.0865789
0.222021
0.162745
0.151524
0.216805
0.215082
0.234431
0.225295
0.00661651
0.220646
0.196792
0.219743
0.217323
0.201915
0.026573
0.204879
0.115369
0.19748
0.193176
0.217791
0.196659
0.195986
0.0554702
0.0905173
0.190778
0.199484
0.144752
0.0182705
0.195995
0.196628
0.0738739
0.0604305
0.197146
0.141284
0.13319
0.23732
0.198739
0.209734
0.249411
0.198096
0.0580604
0.117611
0.208629
0.124853
0.211446
0.162959
0.199139
0.241392
0.209888
0.154001
0.21102
0.0209718
0.231026
0.151426
0.210991
0.173276
0.217306
0.220451
0.190403
0.240712
0.215589
0.192302
0.190326
0.211785
0.0463361
0.0956586
0.215596
0.0889901
0.219788
0.212144
0.17172
0.221673
0.223511
0.0342739
0.110909
0.154117
0.0472196
0.00694209
0.247472
0.252052
0.186172
0.03066
0.227594
0.240452
0.20501
0.0301743
0.21103
0.210447
0.227958
0.251104
0.214333
0.0786255
0.0771725
0.210152
0.15825
0.18155
0.209926
0.211502
0.206349
0.168887
0.200879
0.228429
0.00100133
0.241302
0.00927153
0.0177048
0.211483
0.0069015
0.240755
0.210894
0.0128355
0.0126484
0.0523618
0.206463
0.246068
0.209081
0.246562
0.0102387
0.0692873
0.206399
0.207639
0.217266
0.204713
0.169705
0.217705
0.218644
0.0557966
0.134537
0.218812
0.217244
0.216289
0.0367172
0.0207408
0.0225551
0.122621
0.19192
0.00930484
0.0331599
0.0643091
0.00435249
0.206245
0.203949
0.209611
0.209239
0.219567
0.208821
0.160807
0.203637
0.139223
0.209275
0.174807
0.212461
0.207934
0.195718
0.124156
0.217697
0.241101
0.0214949
0.213092
0.158012
0.0764099
0.160399
0.177703
0.214908
0.212919
0.210061
0.208408
0.0739503
0.208066
0.162281
0.0264641
0.179664
0.252209
0.138934
0.059508
0.210377
0.173071
0.207859
0.130577
0.207652
0.0586838
0.208391
0.0038094
0.00711811
0.205084
0.238629
0.202966
0.187699
0.0351675
0.19063
0.189054
0.0395254
0.197309
0.189095
0.184754
0.184094
0.0931429
0.191022
0.186448
0.127221
0.184711
0.0820734
0.182354
0.241883
0.182524
0.254263
0.183546
0.221361
0.079863
0.0921289
0.159726
0.00361493
0.00282286
0.173079
0.19555
0.19932
0.153731
0.187078
0.0468711
0.204726
0.202773
0.243072
0.135631
0.119061
0.1629
0.202573
0.0195525
0.197494
0.234285
0.00443304
0.273909
0.203444
0.0616915
0.230921
0.171686
0.236127
0.190096
0.165191
0.182588
0.205806
0.168359
0.206046
0.227493
0.0709294
0.0711761
0.246764
0.0028866
0.204593
0.196529
0.246304
0.19495
0.230845
0.000720703
0.198106
0.0806356
0.000203008
0.149405
0.0371344
0.24425
0.211509
0.0659038
0.00192943
0.21752
0.121629
0.197209
0.21683
0.196674
0.228177
0.000682259
0.0992691
0.0648477
0.196257
0.0336041
0.144179
0.204477
0.126659
0.203246
0.00250244
0.207538
0.0614068
0.204108
0.160661
0.10972
0.102363
0.205526
0.00203878
0.0407164
0.195365
0.0759587
0.154801
0.177099
0.116368
0.111808
0.195063
0.194424
0.223512
0.193768
0.11088
0.195326
0.193327
0.106179
0.0948549
0.000866309
0.194177
0.194057
0.195706
0.0905076
0.187525
0.00974763
0.196478
0.0052193
0.206063
0.000918552
0.0228957
0.166514
0.118588
0.0101967
0.19685
0.244516
0.0033587
0.0161542
0.193863
0.19055
0.0316458
0.192771
0.193301
0.131039
0.0378812
0.205961
0.199663
0.0127754
0.195245
0.195634
0.143499
0.192139
0.253313
0.196057
0.246559
0.168432
0.248961
0.171331
0.0219665
0.230046
0.00509
0.00564529
0.250664
0.249331
0.173026
0.19538
0.244004
0.240787
0.12135
0.0972758
0.15896
0.0592818
0.169236
0.112563
0.241011
0.171903
0.174102
0.189124
0.178883
0.251178
0.161734
0.182574
0.0508867
0.182562
0.135909
0.0168697
0.182625
0.181628
0.183046
0.13701
0.0830261
0.259409
0.115496
0.1186
0.140594
0.217178
0.183103
0.0599566
0.169636
0.140376
0.0123452
0.0625327
0.185825
0.213365
0.14716
0.137519
0.184781
0.184662
0.0743354
0.222946
0.193446
0.12738
0.19058
0.153366
0.200035
0.188476
0.00951325
0.0242853
0.171624
0.251812
0.134804
0.125873
0.00298926
0.143968
0.188205
0.108591
0.197412
0.192967
0.0825521
0.113608
0.195894
0.230642
0.206223
0.156578
0.251163
0.1957
0.0318771
0.20376
0.253959
0.0203062
0.112728
0.217583
0.184262
0.0717051
0.178784
0.0218199
0.0163516
0.15614
0.18455
0.251239
0.207693
0.184023
0.183696
0.188948
0.083824
0.0100423
0.0607747
0.206382
0.250586
0.138917
0.186442
0.125478
0.054123
0.18332
0.0576953
0.184212
0.235375
0.114242
0.00212493
0.211081
0.0884663
0.189414
0.0165735
0.0712041
0.141817
0.213988
0.187616
0.189644
0.251879
0.214193
0.0359462
0.253881
0.00301548
-0.000616872
0.188894
0.0387151
0.10313
0.141636
0.0990952
0.25141
0.185854
0.210888
0.181941
0.0420276
0.15212
0.048335
0.116593
0.20951
0.182151
0.183773
0.181441
0.0674546
0.225868
0.17084
0.060025
0.182655
0.181111
0.180549
0.16825
0.182771
0.0179141
0.0110993
0.181836
0.00324784
0.110489
0.126539
0.00962485
0.132946
0.155385
0.232781
0.172742
0.203288
0.15937
0.117249
0.183087
0.184792
0.185542
0.099763
0.184322
0.226166
0.0153733
0.00265644
0.124206
0.105537
0.00277294
0.184056
0.181559
0.18302
0.016991
0.0279925
0.180836
0.216892
0.0269806
0.0353513
0.251388
0.242862
0.186275
0.0366837
0.195108
0.172338
0.199857
0.156597
0.178472
0.245361
0.15678
0.156217
0.0801516
0.15831
0.246368
0.0301623
0.176763
0.156642
0.09449
0.193005
0.198966
0.0814599
0.191651
0.214465
0.194517
0.156914
0.236606
0.0479
0.156475
0.209871
0.0138129
0.167935
0.0645712
0.153724
0.0850135
0.24539
0.160134
0.00280652
0.154463
0.153794
0.163844
0.155711
0.14341
0.00434999
0.038999
0.192187
0.165915
0.136683
0.194597
0.0994831
0.215568
0.0220022
0.16561
0.0738232
0.149929
0.194678
0.0142456
0.168148
0.164776
0.2477
0.0233006
0.20006
0.219199
0.0371977
0.161882
0.0388954
0.13145
0.184699
0.198796
0.161753
0.160635
0.160033
0.251299
0.0288923
0.197793
0.0981335
0.0173396
0.162367
0.202648
0.172404
0.171214
0.0299153
0.173827
0.17534
0.0923491
0.221646
0.2499
0.232887
0.13098
0.175826
0.00373136
0.240079
0.15831
0.172873
0.143754
0.175175
0.173457
0.177882
0.193835
0.178059
0.198933
0.173866
0.230467
0.231632
0.173616
0.190405
0.172834
0.198735
0.19965
0.0122718
0.114822
0.136509
0.0120231
0.184246
0.175942
0.185794
0.0969109
0.00601431
0.101208
0.172376
0.188657
0.1886
0.112191
0.129347
0.186157
0.248264
0.177009
0.00792494
0.0173419
0.206966
0.178264
0.10639
0.142206
0.175952
0.115737
0.16879
0.169267
0.169129
0.143937
0.190706
0.16842
0.252422
0.0220097
0.168177
0.252649
0.168467
0.220726
0.038192
0.166885
0.106266
0.0809261
0.169268
0.168541
0.104394
0.106395
0.167309
0.0894575
0.165744
0.166401
0.172667
0.099171
0.164496
0.0283593
0.166649
0.16646
0.112233
0.164941
0.165315
0.233947
0.16042
0.135451
0.161619
0.163379
0.113731
0.0544971
0.0980995
0.240817
0.165572
0.166525
0.140041
0.0557648
0.241298
0.142463
0.145102
0.141405
0.140246
0.0103667
0.0054014
0.0461021
0.0934173
0.16682
0.165963
0.0052985
0.206846
0.156574
0.0716537
0.241389
0.137128
0.135854
0.243763
0.138447
0.200397
0.0421934
0.136831
0.194995
0.180869
0.137109
0.101072
0.0367076
0.13781
0.206751
0.185464
0.105865
0.0502272
0.081386
0.143962
0.0844622
0.206568
0.0807297
0.141586
0.151642
0.247608
0.109658
0.00966675
0.0531496
0.0821224
0.139257
0.205135
0.150481
0.150173
0.0188839
0.119112
0.00753058
0.15253
0.152526
0.083646
0.011615
0.182495
0.0359131
0.225046
0.169838
0.166591
0.239838
0.0815841
0.195827
0.204153
0.136645
0.0143451
0.166633
0.237468
0.16505
0.16303
0.139074
0.0721071
0.166715
0.0154331
0.238868
0.208287
0.111582
0.165954
0.158859
0.206205
0.232488
0.197216
0.0271541
0.0728578
0.163779
0.171032
0.19219
0.108691
0.18909
0.24284
0.162556
0.191323
0.0653995
0.168765
0.126842
0.0783945
0.168372
0.16821
0.167422
0.191268
0.164523
0.0377793
0.165237
0.0716025
0.187675
0.018473
0.163441
0.190651
0.00346224
0.0211478
0.160509
0.0610441
0.041638
0.0648135
0.0543115
0.0986363
0.0356039
0.163404
0.161351
0.0285904
0.160534
0.161624
0.189562
0.00908098
0.162917
0.156179
0.00209141
0.022523
0.153567
0.0892071
0.00339591
0.0115386
0.153949
0.110428
0.158931
0.235477
0.0149478
0.189923
0.142837
0.158106
0.155346
0.140351
0.179344
0.165155
0.15985
0.146092
0.238463
0.209344
0.15866
0.161124
0.219169
0.0322402
0.207231
0.179926
0.108867
0.102911
0.161011
0.0735119
0.0183664
0.148567
0.153026
0.253334
0.128928
0.153298
0.151299
0.176165
0.072993
0.151501
0.152536
0.229232
0.152988
0.0689427
0.155748
0.155418
0.124727
0.113024
0.136786
0.1556
0.152707
0.155431
0.105043
0.132262
0.158748
0.138274
0.103948
0.110582
0.111436
0.111726
0.129697
0.153687
0.132275
0.241538
0.220351
0.039406
0.0937691
0.0975371
0.130586
0.128531
0.13251
0.170067
0.129589
0.128824
0.077535
0.0977475
0.180661
0.0769858
0.0311016
0.131732
0.130813
0.133378
0.223801
0.0127282
0.00625385
0.0916897
0.140941
0.138049
0.207333
0.031603
0.131143
0.241644
0.037309
0.139678
0.139106
0.166122
0.00165733
0.137855
0.137984
0.137296
0.148648
0.00466648
0.00680502
0.149064
0.149187
0.146069
0.147729
0.153204
0.144739
0.0724889
0.014509
0.246486
0.185073
0.149292
0.14836
0.112246
0.234101
0.227433
0.211447
0.00120506
0.211612
0.150122
0.150107
0.149058
0.149817
0.150401
0.149055
0.203158
0.12535
0.197415
0.132233
0.0721774
0.0127412
0.15133
0.112769
0.00407446
0.133887
0.155753
0.238193
0.156866
0.106877
0.103668
0.182563
0.117083
0.153834
0.159996
0.157994
0.128314
0.138367
0.23419
0.153297
0.196048
0.0690038
0.057103
0.151285
0.0591426
0.0207586
0.155873
0.155536
0.115359
0.0775853
0.0891194
0.220954
0.154831
0.0459416
0.00520761
0.139265
0.025775
0.109634
0.149726
0.184993
0.138574
0.0234049
0.224972
0.0137317
0.219163
0.121707
0.208132
0.142898
0.040799
0.151403
0.136685
0.0865984
0.104083
0.151934
0.15227
0.226078
0.186577
0.197598
0.230703
0.191583
0.184724
0.185053
0.201857
0.148634
0.148131
0.116831
0.0580978
0.0668766
0.0162904
0.209356
0.117442
0.145849
0.143726
0.145103
0.0409486
0.14186
0.198832
0.00470164
0.141987
0.146133
0.16716
0.249018
0.199855
0.19865
0.142535
0.0114565
0.20885
0.144695
0.174508
0.15169
0.178269
0.188738
0.133255
0.206155
0.147563
0.186345
0.151735
0.0183334
0.200148
0.206491
0.119743
0.244629
0.0670631
0.0772849
0.0673681
0.131789
0.194879
0.0542645
0.174123
0.0556375
0.148046
0.148015
0.127578
0.153671
0.139399
0.217358
0.179541
0.137751
0.18439
0.144357
0.250032
0.20431
0.143815
0.14005
0.179322
0.213893
0.141569
0.0240456
0.173688
0.217123
0.138652
0.126524
0.14286
0.145419
0.146671
0.147409
0.00343993
0.0673275
0.148501
0.243903
0.146951
0.120681
0.192214
0.118386
0.102788
0.218467
0.244106
0.200696
0.200823
0.202322
0.0320863
0.138061
0.165374
0.242599
0.231066
0.244661
0.248291
0.230816
0.122646
0.119642
0.243056
0.0529627
0.123854
0.183818
0.120735
0.200307
0.188848
0.242819
0.224633
0.199983
0.0667403
0.122808
0.136072
0.130603
0.13709
0.202606
0.184903
0.136698
0.132459
0.134532
0.014368
0.214205
0.0379304
0.13756
0.162587
0.1429
0.139031
0.13416
0.0382757
0.14037
0.123786
0.139665
0.138765
0.206832
0.126678
0.0722142
0.0434128
0.193982
0.0993729
0.0985389
0.18951
0.0824091
0.0460072
0.0396326
0.0295558
0.186721
0.0620665
0.126103
0.156914
0.02947
0.211422
0.212086
0.0880428
0.0854032
0.228502
0.130325
0.0139774
0.151911
0.0297807
0.182566
0.0284845
0.044384
0.0177664
0.00909455
0.0739145
0.207816
0.0426915
0.0225545
0.0235499
0.136897
0.0272641
0.134816
0.213056
0.138175
0.13582
0.186202
0.0418894
0.14096
0.139703
0.0109971
0.0673845
0.208585
0.140902
0.141371
0.188029
0.21331
0.203234
0.212425
0.0505638
0.234976
0.243012
0.141064
0.141754
0.0117871
0.219747
0.24192
0.139296
0.105726
0.138659
0.0160461
0.203793
0.00608367
0.0419458
0.130882
0.168469
0.132547
0.107937
0.209685
0.0990032
0.199615
0.131154
0.132303
0.0650092
0.124817
0.11319
0.238254
0.209942
0.18047
0.131266
0.214304
0.0725151
0.0414187
0.0599068
0.0123305
0.131374
0.211714
0.131063
0.0125024
0.0104577
0.206477
0.133461
0.0629156
0.220453
0.133469
0.133798
0.206634
0.0183175
0.205241
0.134251
0.136707
0.138037
0.144491
0.137814
0.201632
0.198534
0.138115
0.227379
0.147319
0.19832
0.168015
0.135959
0.212718
0.133297
0.10689
0.229493
0.150418
0.135391
0.0108509
0.138601
0.137299
0.103453
0.132291
0.183086
0.0526303
0.210143
0.126237
0.191823
0.201417
0.135634
0.147952
0.00957656
0.0631117
0.0509845
0.133973
0.21056
0.017581
0.131478
0.229642
0.0503183
0.190243
0.0474142
0.132393
0.161582
0.130502
0.00117281
0.173418
0.210394
0.103569
0.0324983
0.0512821
0.100038
0.10167
0.108593
0.208495
0.0100281
0.0331165
0.113697
0.114892
0.197663
0.183258
0.11555
0.120374
0.110218
0.168036
0.230985
0.216048
0.146766
0.0271508
0.195385
0.194308
0.087881
0.0453258
0.17875
0.0832483
0.113521
0.186311
0.146948
0.150455
0.12837
0.109858
0.119452
0.119194
0.117763
0.189649
0.121727
0.164033
0.227013
0.210178
0.18427
0.203413
0.110948
0.0810101
0.209244
0.122571
0.186992
0.145174
0.192201
0.236458
0.115224
0.00635755
0.123937
0.125614
0.131706
0.207726
0.12319
0.129598
0.149622
0.131605
0.149369
0.125645
0.0017664
0.14824
0.129305
0.128877
0.00467726
0.185161
0.232616
0.147882
0.154684
0.116943
0.131217
0.129695
0.0529984
0.2306
0.131376
0.130977
0.133005
0.031975
0.208209
0.141123
0.11804
0.147952
0.0769847
0.100463
0.197056
0.121885
0.118455
0.0957789
0.118986
0.12883
0.0803805
0.122
0.208287
0.138086
0.0700847
0.207267
0.208191
0.106361
0.107313
0.0902972
0.12195
0.053473
0.125171
0.0589025
0.252044
0.193635
0.160524
0.0768604
0.0192348
0.216082
0.0172694
0.0199915
0.121296
0.00205803
0.121808
0.0280248
0.161627
0.0850768
0.120576
0.181139
0.162622
0.121677
0.0242903
0.0197867
0.158174
0.119591
0.0354064
0.122439
0.12108
0.138135
0.127247
0.235624
0.186936
0.216043
0.15977
0.182599
0.121319
0.186478
0.161036
0.121878
0.217567
0.23931
0.181649
0.177282
0.12195
0.201967
0.119072
0.217001
0.156691
0.184657
0.0178413
0.037408
0.17524
0.00946674
0.20982
0.251679
0.219106
0.0111911
0.0515511
0.0172353
0.206571
0.215021
0.00570654
0.162663
0.115297
0.20175
0.166554
0.114715
0.12267
0.0285676
0.178313
0.181677
0.050126
0.235557
0.215845
0.130859
0.116616
0.246658
0.115964
0.24054
0.180121
0.178231
0.116919
0.224101
0.103709
0.222178
0.207571
0.226601
0.00630856
0.120033
0.233678
0.06288
0.242334
0.120293
0.228023
0.0905266
0.0898352
0.0955493
0.236518
0.194238
0.225674
0.193177
0.101969
0.233469
0.233843
0.0910869
0.23504
0.105898
0.187173
0.100209
0.194122
0.129408
0.0875219
0.122827
0.0846048
0.123624
0.0188643
0.107291
0.0981245
0.217149
0.0952968
0.181088
0.136466
0.16171
0.105198
0.035554
0.0783701
0.182308
0.100285
0.216839
0.0676389
0.109482
0.223143
0.185609
0.111531
0.201665
0.10989
0.0998033
0.0975855
0.127777
0.10488
0.00193989
0.035621
0.039059
0.100384
0.101036
0.184348
0.044869
0.0259399
0.095606
0.0637214
0.21543
0.196093
0.0316674
0.112136
0.164185
0.106193
0.113584
0.0912636
0.111107
0.195672
0.110649
0.154101
0.000640642
0.212417
0.151547
0.243989
0.114149
0.110824
0.0201298
0.217454
0.0848659
0.114867
0.186984
0.11855
0.115863
0.10873
0.10683
0.0293707
0.118387
0.11358
0.114146
0.109165
0.127463
0.111144
0.212804
0.0921005
0.116131
0.21448
0.243671
0.158391
0.0954553
0.176324
0.113846
0.10387
0.0990071
0.053342
0.0926011
0.0846339
0.231593
0.0936896
0.127999
0.125735
0.0314536
0.0928298
0.212261
0.105899
0.108769
0.150258
0.142016
0.103542
0.164587
0.128097
0.10708
0.104704
0.118792
0.105003
0.210948
0.203163
0.0951876
0.0920935
0.101474
0.0413063
0.107444
0.127779
0.18372
0.104484
0.108394
0.0990212
0.11031
0.213306
0.0915399
0.206619
0.108282
0.104585
0.0964639
0.104938
0.0815886
0.101568
0.0832854
0.0728169
0.1038
0.228889
0.11794
0.226938
0.151084
0.0699659
0.0225311
0.0900855
0.212276
0.105772
0.104489
0.076848
0.106354
0.0765808
0.214124
0.212676
0.0802579
0.0809324
0.0843156
0.0849198
0.170705
0.134529
0.0824871
0.083073
0.062623
0.102825
0.0844603
0.0848834
0.0488268
0.0473924
0.00225027
0.085165
0.172636
0.0293407
0.134588
0.0881034
0.0909507
0.0948092
0.121264
0.210101
0.107656
0.0778599
0.0112841
0.0183132
0.136387
0.0894092
0.084699
0.116633
0.0305998
0.0201102
0.0905309
0.211743
0.100481
0.102241
0.0478071
0.0948995
0.23735
0.0972052
0.095375
0.133845
0.0975982
0.100823
0.211595
0.101531
0.11449
0.0180839
0.00391133
0.166062
0.0355924
0.02063
0.10462
0.0863756
0.212123
0.102733
0.21948
0.220153
0.0998937
0.211133
0.00699922
0.0964941
0.102649
0.0333218
0.103729
0.219707
0.244119
0.0479081
0.216011
0.102222
0.182947
0.200859
0.102799
0.107179
0.218462
0.100583
0.235934
0.102206
0.124133
0.111213
0.236739
0.216143
0.125565
0.104956
0.101936
0.1905
0.123874
0.189978
0.216236
0.213113
0.105148
0.0117565
0.105687
0.0983305
0.189074
0.080142
0.189705
0.0406933
0.200273
0.000258689
0.212936
0.124482
0.0888566
0.097813
0.21507
0.0953799
0.212699
0.206351
0.214658
0.0130494
0.00345246
0.191509
0.00360799
0.0952121
0.122556
0.165164
0.0930711
0.206649
0.141216
0.210476
0.0908457
0.208908
0.173443
0.18862
0.245187
0.128499
0.230804
0.0904551
0.0097987
0.141204
0.00956509
0.242525
0.0445168
0.136765
0.188848
0.0995038
0.094869
0.0134786
0.0327229
0.0968746
0.193936
0.214814
0.00664011
0.220162
0.124658
0.235417
0.0569485
0.196246
0.0967706
0.174187
0.216471
0.171713
0.161217
0.181759
0.197695
0.210537
0.159177
0.0416342
0.185642
0.0980442
0.098456
0.0979362
0.0589266
0.229994
0.231011
0.187155
0.107562
0.206608
0.212946
0.107098
0.0990455
0.097849
0.0947129
0.230073
0.0472096
0.0925023
0.146159
0.095091
0.185189
0.171559
0.114113
0.0561093
0.0961365
0.0942286
0.133522
0.241108
0.154399
0.0942967
0.207997
0.0670102
0.0511442
0.226168
0.00464169
0.0667118
0.0135337
0.0668645
0.06716
0.209054
0.09304
0.172895
0.207723
0.116225
0.099047
0.215916
0.070618
0.213193
0.0892113
0.0917539
0.0921096
0.188909
0.159357
0.212814
0.192915
0.204625
0.0790788
0.137041
0.21665
0.202309
0.0990734
0.20157
0.0687062
0.185711
0.0451314
0.187672
0.0948277
0.168813
0.0840965
0.128121
0.201793
0.0668611
0.202458
0.0513879
0.102477
0.0820213
0.0295756
0.0865837
0.0810338
0.114209
0.212929
0.0846351
0.0392088
0.0172974
0.189622
0.0192265
0.203948
0.00418223
0.0889027
0.0479819
0.0876871
0.202192
0.20574
0.0447249
0.229092
0.0313968
0.0021892
0.188282
0.170258
0.0864976
0.202414
0.0653597
0.0186413
0.111517
0.00247
0.141489
0.180597
0.131672
0.0885482
0.239543
0.0899889
0.144799
0.188229
0.118819
0.204674
0.0864833
0.129709
0.0857047
0.134146
0.228606
0.0920058
0.0793035
0.134598
0.0864846
0.149976
0.0848576
0.0557463
0.0849629
0.228434
0.0847215
0.0814629
0.0841062
0.222471
0.10717
0.214224
0.23205
0.230382
0.164795
0.0460729
0.0616543
0.172205
0.202953
0.0214587
0.0594124
0.0841442
0.0826672
0.204255
0.24268
0.00295353
0.0305892
0.0757776
0.214103
0.031144
0.120388
0.204234
0.0817997
0.0806242
0.0811608
0.078925
0.081506
0.165477
0.100822
0.200828
0.0216822
0.0845807
0.0815066
0.22417
0.128368
0.220384
0.233729
0.0446257
0.0822048
0.0615318
0.222537
0.224937
0.219852
0.219235
0.113834
0.0607524
0.214999
0.0447218
0.0819995
0.197096
0.0915321
0.0810873
0.0645744
0.0798056
0.195656
0.194623
0.0821434
0.144584
0.0919188
0.0912771
0.24003
0.0236359
0.0505974
0.0818102
0.0826055
0.00730934
0.0826458
0.0629167
0.0876435
0.191436
0.0828715
0.0157495
0.0890808
0.00737629
0.224831
0.217926
0.114988
0.0850627
0.0876675
0.100643
0.0750115
0.0680965
0.102687
0.0720131
0.0708256
0.0619536
0.0723588
0.226176
0.201681
0.12083
0.188806
0.0763512
0.194911
0.060438
0.188232
0.156536
0.180763
0.0734396
0.137047
0.0170927
0.195254
0.210392
0.084227
0.247705
0.0758737
0.0777883
0.130378
0.0201084
0.10128
0.0785198
0.194111
0.0595818
0.0840922
0.0813662
0.056645
0.161214
0.0568071
0.0559521
0.05717
0.0579874
0.0568735
0.190643
0.191111
0.197072
0.1878
0.0364694
0.0574005
0.221215
0.0629801
0.0349861
0.0623513
0.0619679
0.0373882
0.0627202
0.0614734
0.0620911
0.079056
0.0756376
0.13904
0.0866231
0.0976523
0.126252
0.109126
0.100183
0.0374219
0.0794745
0.0787631
0.0595087
0.0643054
0.0767025
0.152041
0.0157822
0.179858
0.239687
0.141254
0.229659
0.0779631
0.0173047
0.0189904
0.0185781
0.105144
0.0199615
0.0746297
0.0767605
0.215209
0.247266
0.130934
0.0695348
0.218589
0.118513
0.145889
0.076183
0.148197
0.0764099
0.152738
0.0639395
0.0341359
0.041427
0.0723305
0.00144111
0.0782814
0.216935
0.0578284
0.177751
0.0232438
0.0700218
0.0721669
0.20295
0.0982675
0.152971
0.110204
0.151883
0.0713859
0.0138367
0.21941
0.0857149
0.141662
0.216009
0.216118
0.0731193
0.0620663
0.0738537
0.112365
0.0734869
0.148977
0.202583
0.115288
0.074597
0.0752446
0.119296
0.136146
0.167773
0.0744076
0.0762553
0.0766898
0.216953
0.0753164
0.0767113
0.0275916
0.0673151
0.0355828
0.0134417
0.0350769
0.0217617
0.066063
0.0676558
0.0110365
0.0535459
0.0106373
0.21468
0.0689998
0.0390596
0.214833
0.164944
0.103179
0.0597235
0.0721031
0.0109977
0.0705396
0.158036
0.111172
0.0689256
0.220332
0.0339978
0.00312123
0.0697441
0.254794
0.109386
0.14365
0.0124138
0.0701163
0.0695048
0.167817
0.0125853
0.108394
0.139155
0.0644877
0.0695766
0.0718158
0.246944
0.226727
0.220623
0.105142
0.0355208
0.0137481
0.0124309
0.221899
0.0125538
0.0441129
0.072952
0.243147
0.0855738
0.074291
0.19991
0.221684
0.158394
0.150289
0.0733252
0.071446
0.214867
0.184043
0.195186
0.0214206
0.18052
0.047644
0.0994406
0.039144
0.0708677
0.112534
0.226613
0.113246
0.11141
0.234441
0.0666768
0.216451
0.0501365
0.148134
0.173801
0.226372
0.113239
0.219971
0.0629022
0.0525917
0.031457
0.066844
0.219798
0.0507181
0.0457711
0.136107
0.0520495
0.0522749
0.0561888
0.0179982
0.103335
0.0682845
0.080631
0.0473946
0.0618587
0.05474
0.0375543
0.22201
0.154098
0.0505194
0.0700928
0.25192
0.131495
0.0670477
0.14132
0.067551
0.125773
0.0656255
0.22032
0.0490565
0.248787
0.0428302
0.0378326
0.137328
0.0515829
0.150099
0.131453
0.158646
0.0208328
-0.000968472
0.0287855
0.0238828
0.0427018
0.0153987
0.0472226
0.0438665
0.0432509
0.232823
0.028961
0.222383
0.222682
0.0337705
0.211844
0.0706824
0.217429
0.201929
0.049069
0.213878
0.0492461
0.00146734
0.158239
0.101611
0.206399
0.201217
0.111291
0.0170696
0.0307921
0.160145
0.174424
0.0506074
0.0490294
0.0659937
0.177621
0.193474
0.143111
0.0177852
0.0128286
0.0651312
0.163113
0.179409
0.196366
0.2332
0.0671727
0.206834
0.189452
0.14198
0.24967
0.101501
0.130569
0.165512
0.0632493
0.224579
0.0107553
0.0978693
0.189195
0.170939
0.200545
0.223387
0.0200785
0.0976726
0.0655026
0.116638
0.0663117
0.108028
0.119757
0.115797
0.0838476
0.0661184
0.0651849
0.0629955
0.0854737
0.23174
0.0921758
0.0828248
0.0887226
0.218664
0.192055
0.0190614
0.224129
0.0656357
0.0629308
0.131453
0.0554706
0.0561766
0.0773893
0.019499
0.054408
0.0590486
0.0135642
0.0518971
0.0508535
0.0558481
0.0735315
0.061311
0.0617811
0.222427
0.041058
0.0498093
0.0364627
0.0674637
0.0361454
0.0340912
0.0637846
0.014966
0.0161429
0.0909494
0.0373602
0.0330577
0.223547
0.0643737
0.0496164
0.045621
0.0172771
0.0407944
0.0637434
0.0659508
0.0584138
0.102481
0.140225
0.161839
0.121208
0.0162979
0.0582206
0.0566976
0.0584009
0.184765
0.0893036
0.0651943
0.238932
0.0572865
0.0885286
0.0567142
0.0591493
0.15528
0.161124
0.0567674
0.0947714
0.202724
0.201632
0.0894006
0.0574528
0.221563
0.0574192
0.123317
0.0581335
0.243709
0.0584264
0.182521
0.0570743
0.155121
0.187957
0.216901
0.197171
0.0556212
0.190734
0.138523
0.154777
0.0575937
0.0237403
0.100798
0.140925
0.0573392
0.0569609
0.0577675
0.100745
0.0514729
0.233945
0.169023
0.0218695
0.222179
0.0541249
0.215876
0.022142
0.0499289
0.0529416
0.184252
0.05731
0.15899
0.231935
0.0503544
0.0538033
0.0869089
0.227682
0.184269
0.183315
0.0551317
0.19342
0.165422
0.0532753
0.089353
0.0755239
0.052361
0.0526101
0.158605
0.195931
0.0580679
0.091591
0.0742481
0.219868
0.214989
0.219268
0.0574339
0.221137
0.0388662
0.174036
0.200598
0.115493
0.156306
0.0569613
0.225793
0.0276784
0.0312927
0.0334856
0.0961602
0.0333577
0.102963
0.101054
0.0899154
0.111801
0.179612
0.0917842
0.135985
0.00766344
0.0386929
0.0781185
0.130007
0.0546645
0.145232
0.20381
0.105573
0.17559
0.169408
0.0101189
0.0335049
0.153624
0.0392682
0.000317488
0.224156
0.185672
0.214864
0.0316937
0.224013
0.0859106
0.212889
0.0821405
0.216064
0.08127
0.220872
0.036372
0.19398
0.0527264
0.165267
0.0831201
0.170285
0.0857227
0.258041
0.0530633
0.0716847
0.180343
0.165587
0.0513405
0.111689
0.165732
0.0530699
0.148813
0.0214535
0.148365
0.0487199
0.0473606
0.0724561
0.223901
0.053317
0.0341604
0.0523808
0.0541849
0.0971774
0.186951
0.0607028
0.054555
0.0967281
0.0968053
0.00422411
0.217917
0.052579
0.0695404
0.125538
0.171875
0.00165751
0.0541057
0.222461
0.0450641
0.0436381
0.137008
0.025855
0.0384355
0.200902
0.054493
0.219884
0.100937
0.0345685
0.0426838
0.113367
0.0401215
0.052464
0.0775551
0.0497351
0.0510395
0.0507197
0.0209977
0.13223
0.0489421
0.0690525
0.0466913
0.0631111
0.0702185
0.0484702
0.045337
0.217366
0.0494651
0.0429844
0.045433
0.222007
0.053244
0.0445083
0.0616441
0.164199
0.0663367
0.0484625
0.0540398
0.0472582
0.00271752
0.220173
0.0670266
0.0473215
0.0349779
0.227219
0.0892173
0.0240543
0.0460589
0.00970468
0.097104
0.218985
0.0448748
0.2176
0.0418436
0.0275965
0.221631
0.218424
0.226293
0.0337166
0.222944
0.0132436
0.0162529
0.0460807
0.024259
0.0207455
0.0565864
0.166386
0.222482
0.21349
0.230478
0.211559
0.131188
0.0953915
0.0353268
0.043202
0.0506926
0.124583
0.139723
0.0860133
0.185931
0.0660553
0.0472994
0.150923
0.0595653
0.212342
0.211819
0.0265317
0.21351
0.140555
0.193429
0.22706
0.0443266
0.176486
0.142572
0.151236
0.141947
0.044617
0.108836
0.214543
0.228934
0.0536322
0.209533
0.227059
0.218505
0.181582
0.0375145
0.230329
0.0399439
0.203538
0.20422
0.039695
0.0441331
0.0354862
0.12589
0.22366
0.09162
0.141294
0.0360494
0.156648
0.224031
0.0472883
0.183094
0.0456472
0.187028
0.21198
0.230262
0.211235
0.0768547
0.0847894
0.100448
0.177271
0.0474538
0.198498
0.198675
0.0458143
0.188414
0.108939
0.0460385
0.141248
0.191539
0.044561
0.214832
0.0374972
0.195668
0.234149
0.0417935
0.119338
0.0425081
0.144984
0.0446594
0.0213295
0.224091
0.147133
0.0722928
0.0977612
0.124574
0.117949
0.0179695
0.112237
0.110279
0.213508
0.15053
0.237338
0.204017
0.059822
0.218209
0.0225951
0.0235198
0.158719
0.135233
0.188573
0.187898
0.0249263
0.0212786
0.108438
0.221043
0.178785
0.203757
0.234749
0.0242121
0.181
0.148229
0.181481
0.187192
0.138573
0.225079
0.191063
0.194543
0.0552544
0.0593385
0.233483
0.0243085
0.0215885
0.0407702
0.206429
0.221504
0.22459
0.0396343
0.0374875
0.164445
0.0389474
0.0400661
0.169334
0.229275
0.186978
0.0621094
0.213065
0.108491
0.184365
0.186241
0.230513
0.037991
0.136084
0.136906
0.040118
0.038511
0.036517
0.0387458
0.145176
0.0402259
0.229742
0.181986
0.167805
0.0401139
0.0354578
0.0789874
0.176425
0.231057
0.105861
0.0951584
0.228717
0.0173698
0.031014
0.0629342
0.0983669
0.0304882
0.039329
0.0408458
0.0760454
0.0409924
0.228664
0.229743
0.0838022
0.228748
0.133678
0.0754767
0.0366717
0.0601276
0.0565361
0.0672848
0.0392908
0.0334334
0.0426667
0.049208
0.0358189
0.0584106
0.0624189