/*--------------------------------*- C++ -*----------------------------------*\
| =========                 |                                                 |
| \\      /  F ield         | OpenFOAM: The Open Source CFD Toolbox           |
|  \\    /   O peration     | Version:  2406                                  |
|   \\  /    A nd           | Website:  www.openfoam.com                      |
|    \\/     M anipulation  |                                                 |
\*---------------------------------------------------------------------------*/
FoamFile
{
    version     2.0;
    format      ascii;
    arch        "LSB;label=32;scalar=64";
    class       surfaceScalarField;
    location    "67";
    object      phi;
}
// * * * * * * * * * * * * * * * * * * * * * * * * * * * * * * * * * * * * * //

dimensions      [0 3 -1 0 0 0 0];

oriented        oriented;

internalField   nonuniform List<scalar> 
113358
(
-1.46403e-05
3.02708e-05
-2.12789e-05
5.64861e-06
2.14289e-05
2.67148e-07
-5.73581e-06
-1.59607e-05
-2.52105e-05
1.88993e-05
-2.91093e-06
9.22225e-06
-2.36593e-05
-6.13236e-06
2.31941e-05
6.59756e-06
-1.72874e-05
9.19588e-07
3.013e-05
-1.37622e-05
1.36156e-05
-1.41962e-05
-7.96037e-06
8.54096e-06
-7.1932e-06
3.36369e-05
-2.46103e-05
-1.83333e-06
-7.05809e-07
-3.05642e-05
1.66891e-05
1.45807e-05
8.07874e-06
5.72118e-07
1.77632e-05
-2.64143e-05
6.88404e-06
3.49049e-06
-1.00987e-05
-2.76344e-07
-6.07469e-06
2.3092e-05
-2.1816e-05
4.79868e-06
-1.4658e-05
1.22747e-07
-3.51547e-07
1.48868e-05
-4.39925e-05
3.40903e-06
1.16728e-05
2.89104e-05
1.18575e-06
-2.5224e-06
1.33662e-06
1.87182e-06
-1.36561e-06
1.84387e-05
-1.89445e-05
9.81459e-07
3.18934e-07
1.12067e-05
-1.25073e-05
9.74811e-06
3.59948e-05
-2.93756e-05
-1.63673e-05
-1.9509e-05
1.07858e-05
6.7086e-06
2.01458e-06
1.5063e-05
-3.79571e-05
3.17539e-05
-8.85977e-06
2.64688e-05
3.02237e-06
2.80765e-05
-5.75675e-05
1.88953e-05
3.69501e-07
-4.82881e-07
-1.8782e-05
-1.15898e-05
4.65367e-05
4.35228e-06
-3.93e-05
-9.45219e-07
-4.52418e-05
4.95407e-05
-3.35379e-06
-8.75647e-07
4.14172e-06
3.10347e-07
-3.57629e-06
-4.8049e-05
2.09643e-05
-4.17156e-06
3.12572e-05
-2.1115e-05
4.95118e-06
1.7388e-05
-1.22376e-06
-9.03528e-06
8.74635e-06
-1.79528e-07
4.68529e-07
-1.88126e-06
-7.44655e-06
5.32747e-06
4.00032e-06
1.88629e-05
-4.09659e-07
4.42048e-07
-2.10553e-06
2.0976e-06
7.93193e-09
-5.44167e-06
-2.58639e-05
2.74669e-05
3.83873e-06
5.07059e-06
-2.60401e-07
-8.07919e-06
3.26897e-06
2.01578e-05
-1.04965e-06
1.1726e-06
-2.02807e-05
-2.72405e-05
1.25694e-05
-2.93067e-06
1.76017e-05
1.75059e-05
2.57875e-06
-1.9826e-05
-2.58691e-07
-3.41427e-05
8.68234e-06
-1.19184e-05
3.73782e-05
-3.48272e-08
-2.04317e-06
2.07816e-06
9.35016e-06
1.07755e-05
1.75599e-06
-2.18816e-05
7.3149e-06
-3.69765e-05
3.03708e-05
-7.09327e-07
-3.50263e-06
4.36388e-06
3.7268e-05
-3.81304e-05
-1.83895e-05
1.56308e-05
-1.94025e-05
2.21611e-05
9.19628e-08
-2.41154e-05
-3.10153e-05
5.50387e-05
-1.34404e-06
4.33925e-05
-1.23858e-05
-2.96628e-05
5.08306e-06
-1.78615e-05
-7.11992e-06
-6.4024e-06
3.24313e-05
-2.98161e-07
-2.57309e-05
-2.17085e-06
1.50697e-05
-1.00614e-05
-2.8379e-06
-3.04429e-05
-1.21411e-05
4.12399e-05
-1.17608e-05
3.58402e-05
1.58939e-06
-2.56687e-05
-3.41003e-05
4.25093e-06
-5.51758e-06
3.5367e-05
3.55928e-05
1.58856e-05
-4.71111e-05
-4.36731e-06
2.32255e-05
-1.61794e-05
1.55248e-06
-8.59862e-06
-9.93795e-06
2.86073e-06
1.00913e-05
-3.01378e-06
2.86135e-05
-7.67117e-06
1.61922e-05
-3.71347e-05
-1.01458e-05
-3.71277e-05
4.04111e-05
6.86296e-06
-2.0605e-06
7.53585e-06
-8.75822e-06
3.28283e-06
2.79495e-05
-1.20255e-05
2.01406e-05
-3.60646e-05
-2.13893e-05
4.97242e-06
3.74328e-05
-2.10159e-05
1.10828e-05
-5.40286e-06
4.25385e-06
-9.93377e-06
3.97608e-05
-1.03533e-05
-3.05738e-05
1.16557e-06
-1.3029e-05
-1.4785e-05
8.1585e-06
1.96555e-05
-3.08261e-05
-5.08986e-06
1.44991e-05
2.14165e-05
-2.7047e-06
3.1019e-06
-3.97203e-07
3.64485e-05
-6.25115e-06
-3.59977e-05
5.80036e-06
-1.60139e-05
-4.33345e-05
1.735e-05
4.19983e-05
-3.94742e-06
4.30711e-06
-3.33978e-05
3.30378e-05
1.58215e-06
2.17375e-05
3.11791e-06
-2.64377e-05
3.31689e-06
-2.74697e-06
-5.70019e-07
-2.3265e-08
7.02303e-08
1.11153e-05
-1.11621e-05
6.24088e-06
-3.01978e-05
3.26594e-05
-8.70247e-06
9.67462e-06
-2.42475e-05
2.34819e-05
-8.9091e-06
6.98143e-06
-7.19943e-06
2.17827e-07
-1.97652e-05
-6.41727e-06
3.43606e-05
-8.17808e-06
-2.3323e-07
3.8785e-06
-3.64536e-06
7.56497e-06
-2.93394e-05
8.75834e-06
1.3016e-05
4.98718e-05
-3.62198e-06
-3.41811e-06
-4.28305e-05
-2.72899e-05
-3.3243e-05
3.59377e-05
2.45951e-05
3.97178e-06
-3.74877e-05
6.22609e-06
3.67412e-05
-2.96279e-05
-8.60847e-07
-6.25268e-06
1.04388e-07
1.61583e-07
-1.45274e-05
1.42615e-05
6.41375e-06
8.48525e-06
1.29747e-05
-2.78737e-05
7.41999e-06
-3.89479e-06
3.0036e-06
-6.52898e-06
-1.6124e-05
-1.12175e-05
2.73396e-05
1.82463e-09
-2.11522e-05
2.61001e-05
-1.88906e-05
1.39428e-05
-2.89678e-06
1.13479e-09
2.8956e-06
-3.08624e-05
3.45851e-05
-3.54246e-05
2.73084e-05
-2.72104e-06
-9.00653e-07
-6.02198e-07
4.2239e-06
6.42654e-05
-6.17924e-05
1.85439e-06
-4.32731e-06
-1.13233e-05
3.51334e-06
1.089e-05
-3.0797e-06
-4.64462e-06
2.57614e-05
-2.82897e-05
7.17292e-06
-1.799e-05
-2.12963e-05
3.14734e-05
7.81291e-06
9.1114e-06
-1.31095e-05
1.85066e-05
-1.45081e-05
7.79424e-06
2.61919e-05
-5.34557e-05
1.94701e-05
-3.37059e-05
1.2126e-05
1.46167e-05
6.96308e-06
9.63167e-07
-3.11622e-05
2.53618e-05
4.83718e-06
-2.70988e-05
2.50623e-06
9.68301e-06
1.49095e-05
2.33809e-05
-2.03063e-05
6.97032e-06
-1.00448e-05
1.23857e-06
1.13642e-05
-1.24209e-05
-1.81717e-07
1.712e-05
-2.4306e-06
-2.51371e-06
-1.21757e-05
1.6015e-05
1.83811e-05
-1.61033e-05
-1.82922e-05
2.29016e-06
-7.15875e-07
4.08899e-06
-5.66335e-06
4.39808e-06
-2.66489e-07
-4.1314e-06
3.14479e-08
3.64967e-06
-3.68118e-06
-4.70451e-07
2.90258e-06
-1.24396e-05
1.00072e-05
-2.03102e-05
4.09492e-05
4.32298e-07
-2.10707e-05
4.81566e-06
-2.22968e-05
1.72457e-05
2.3523e-07
-2.89033e-06
-3.81657e-06
1.08525e-06
5.62154e-06
-5.59075e-06
-1.3587e-05
3.61137e-06
1.55666e-05
-2.97615e-06
1.90519e-05
8.25932e-06
-2.43353e-05
3.9425e-06
3.51578e-06
-1.70465e-05
9.58842e-06
-2.71588e-06
2.83816e-05
-3.22822e-05
6.6165e-06
-7.03963e-06
7.21297e-06
-1.73459e-07
1.73392e-05
-2.14974e-05
3.43784e-06
7.20689e-07
1.84037e-05
1.08547e-05
-3.24489e-05
3.19043e-06
-2.67376e-05
-1.51596e-05
7.48596e-06
3.44111e-05
-2.08107e-06
-2.03277e-05
8.69421e-07
2.15392e-05
1.22195e-05
-1.2681e-05
9.98087e-08
3.62162e-07
1.60457e-05
-2.81428e-05
-5.35276e-06
1.74499e-05
-3.27521e-06
2.58368e-07
3.01672e-06
-4.45967e-06
-1.31888e-06
2.95435e-05
-2.37648e-05
-1.60455e-05
1.02106e-05
5.1361e-05
-4.55253e-05
-1.11307e-05
2.28458e-05
-3.3249e-05
2.15336e-05
1.64405e-06
-2.55779e-05
2.04062e-05
3.52757e-06
-4.10545e-06
-9.51925e-06
3.38404e-05
-2.02154e-05
2.31886e-05
-9.81898e-06
-1.02987e-05
-3.07086e-06
-2.84213e-06
-1.22325e-05
1.8115e-05
-3.0404e-06
5.73675e-06
-2.80456e-06
-2.93225e-06
-1.1043e-06
-2.49981e-05
-6.61162e-06
3.2714e-05
-1.47491e-05
2.06306e-05
5.87005e-06
-1.17516e-05
6.06449e-06
-1.49186e-05
2.54218e-05
-1.65678e-05
-4.9904e-05
1.20283e-05
-8.94148e-07
3.87693e-05
-2.50185e-06
-4.15399e-05
3.76656e-05
6.37597e-06
5.3133e-08
-3.71727e-06
3.66442e-06
2.06904e-05
-3.23745e-05
6.61562e-07
1.10224e-05
3.47631e-05
3.97289e-06
-3.74602e-05
-1.27603e-06
1.053e-05
1.20446e-06
-2.50972e-05
1.33629e-05
-9.41936e-06
1.29919e-05
1.48312e-05
-2.58019e-05
-2.15552e-05
1.2947e-05
3.44106e-05
5.40719e-06
2.88363e-06
-3.89223e-06
6.78298e-06
-5.01105e-06
-2.57304e-05
2.39588e-05
4.27278e-06
1.35948e-05
-6.08566e-06
-1.17822e-05
-8.14751e-06
1.78077e-05
3.6092e-05
-4.5752e-05
1.68957e-07
2.28356e-06
-2.45236e-06
-2.20295e-05
3.49164e-06
1.36692e-05
4.86881e-06
3.55757e-05
-1.93196e-05
-2.41786e-05
7.92238e-06
3.28017e-05
-7.88313e-06
-3.74344e-06
-2.11753e-05
-2.86508e-05
-1.17257e-06
-7.46259e-07
3.05695e-05
2.5591e-05
1.14351e-05
-3.49902e-05
-2.03585e-06
6.92834e-06
4.83016e-06
-1.17585e-05
1.8035e-06
-2.4751e-05
-1.33448e-07
2.30809e-05
3.887e-05
-2.99274e-05
-2.91015e-06
-6.03223e-06
4.18916e-06
-5.97389e-07
-3.35077e-06
-2.41431e-07
-3.31075e-05
4.71038e-05
2.01875e-05
-3.41835e-05
1.80388e-05
-2.96781e-05
-2.91404e-06
1.45535e-05
-2.33152e-05
2.54266e-05
-8.78727e-07
-1.23277e-06
-2.85471e-06
1.40961e-06
1.4449e-06
3.40056e-05
-3.7795e-06
9.7543e-06
-3.998e-05
-2.56755e-05
3.50558e-05
-3.26953e-05
6.06722e-08
2.27565e-06
1.84605e-05
-2.07968e-05
2.51863e-06
-2.43751e-06
-8.12811e-08
-1.08314e-05
-6.07752e-06
1.01528e-06
1.58936e-05
-8.28804e-06
2.06619e-05
-1.57518e-05
3.37792e-06
1.50241e-06
-4.55923e-06
2.8566e-06
2.00058e-07
-1.79504e-06
-1.67509e-06
3.47002e-06
-2.17566e-05
2.18382e-05
2.18855e-05
-2.19672e-05
5.4532e-05
-1.35012e-05
-1.20445e-05
-2.89863e-05
1.26232e-05
4.59911e-07
-3.97359e-07
-1.26857e-05
3.77923e-05
-4.59516e-05
6.42256e-06
1.73672e-06
2.98888e-06
-4.74122e-08
-2.94135e-06
-6.02067e-06
2.89482e-05
-2.77653e-05
4.83797e-06
-1.36943e-05
1.43085e-05
-1.55661e-06
9.42303e-07
-1.00989e-05
8.81819e-06
5.94738e-07
6.85984e-07
2.37922e-06
-1.90631e-05
7.00787e-06
9.67607e-06
-1.13472e-05
-1.0706e-05
2.60871e-05
-4.03363e-06
-1.42291e-05
1.3955e-05
2.42801e-07
3.15767e-08
-3.01729e-05
-3.60769e-05
3.58068e-05
-1.16762e-05
3.77459e-05
1.20745e-05
-3.81441e-05
6.01473e-06
3.03336e-05
7.08853e-06
-4.34369e-05
-1.3053e-05
5.89283e-06
1.74968e-05
-1.03362e-05
-2.17973e-08
7.12592e-08
1.01718e-05
-1.02212e-05
1.21012e-06
3.85702e-05
-5.68311e-06
-3.40967e-05
-3.75827e-06
-2.40848e-06
4.02322e-06
2.14358e-06
4.0415e-06
-3.81888e-06
-2.22436e-07
-3.37923e-06
-1.18461e-05
9.96294e-07
-3.1705e-05
4.25704e-07
-6.31351e-06
3.75929e-05
-1.45069e-05
1.30449e-05
4.03346e-07
1.05819e-06
-4.18419e-07
7.96811e-06
-1.34707e-07
-7.41486e-06
-2.74694e-06
2.67777e-06
6.91698e-08
3.08907e-06
-8.4805e-07
2.08823e-05
-2.3123e-05
2.77599e-05
3.12667e-06
-2.42647e-05
-6.62189e-06
-3.38361e-06
-1.5842e-05
-1.00355e-05
1.32141e-05
-1.45639e-05
1.01139e-06
3.37855e-07
8.04906e-06
-3.25569e-05
3.81949e-05
-1.3687e-05
1.06202e-05
2.15967e-06
-5.5331e-06
-7.24678e-06
-1.66632e-05
-3.85363e-05
1.01003e-05
4.51e-05
5.74068e-08
2.52301e-06
-2.00316e-07
-2.38013e-06
9.40815e-06
-6.30208e-07
1.45813e-06
-1.02362e-05
-9.52858e-06
2.12089e-07
9.40814e-06
-9.12122e-08
2.19932e-05
3.61511e-06
-2.75964e-05
1.98821e-06
-3.17822e-05
-1.77913e-05
4.05692e-05
9.00469e-06
-6.87592e-06
2.94059e-06
-6.28962e-06
7.54151e-06
3.18399e-05
-4.08482e-05
1.46634e-06
-2.1874e-05
-2.20701e-05
8.77431e-06
3.51699e-05
-2.61699e-06
2.85973e-06
-2.42749e-07
1.74483e-05
9.97148e-06
-1.93376e-06
-2.54856e-05
-7.196e-07
-4.41386e-06
-2.93873e-05
3.45204e-05
-2.355e-05
5.7613e-06
5.76403e-05
-3.98515e-05
2.83004e-05
-2.07813e-05
-1.13894e-05
3.87032e-06
2.52496e-06
-1.03276e-07
-2.42165e-06
4.16227e-05
-2.09425e-05
2.95419e-06
-2.36341e-05
9.06356e-06
-9.77859e-06
1.26606e-06
-5.50882e-07
2.42318e-06
2.30884e-06
-4.73205e-06
-1.65921e-05
-2.10076e-05
4.3529e-06
3.32466e-05
-1.08941e-05
2.04477e-07
1.12956e-05
-6.06189e-07
2.05816e-05
-4.2116e-05
5.52322e-07
2.0982e-05
-2.26232e-05
-2.72386e-05
3.64602e-05
1.34008e-05
-1.31488e-05
1.81106e-05
2.78399e-05
5.40823e-06
2.91836e-05
-3.04514e-05
-4.1405e-06
1.79701e-06
1.36495e-06
-1.20983e-05
8.93578e-06
-3.39361e-05
1.47986e-05
1.21807e-05
6.95687e-06
1.28058e-05
3.37227e-06
-1.45873e-06
-1.47189e-05
-3.30906e-06
-2.53592e-05
2.68006e-06
2.59885e-05
6.93852e-06
-2.71647e-06
2.8409e-05
-3.26309e-05
-1.88292e-06
-8.00054e-08
-4.77373e-06
6.73631e-06
6.8548e-07
1.1291e-05
-4.22293e-05
3.02527e-05
-1.52305e-05
-3.09497e-05
-1.1217e-06
4.73012e-05
3.44787e-07
4.862e-06
-5.20673e-06
7.61548e-08
-1.83123e-07
1.06387e-05
-1.05313e-05
2.77388e-06
1.79191e-05
1.51449e-05
-3.58377e-05
2.52014e-07
-1.40176e-05
1.58522e-07
1.36069e-05
4.4993e-06
-2.172e-05
-1.67364e-05
3.39582e-05
1.61327e-05
2.0327e-05
-1.77614e-05
-1.8698e-05
3.64624e-05
2.19448e-05
-4.91114e-05
-9.29572e-06
1.31872e-07
-4.18556e-06
4.05386e-06
2.60404e-06
1.27048e-06
-2.39141e-09
-3.87197e-06
1.8541e-06
2.43763e-06
2.96622e-07
-4.5885e-06
2.37669e-06
-2.86869e-06
1.44471e-05
1.98008e-07
-2.76395e-05
1.03467e-05
1.70947e-05
5.98445e-05
5.99561e-06
-1.25401e-05
-5.32996e-05
-7.71653e-06
1.05076e-05
-2.64416e-06
-1.47137e-07
-1.85667e-05
1.75012e-05
-2.97921e-05
3.08578e-05
2.97218e-06
5.75646e-08
-3.02992e-06
1.14922e-06
8.19807e-06
-1.56815e-05
6.33389e-06
2.95203e-06
-4.45153e-06
1.49937e-06
3.05013e-05
-1.63146e-05
-8.12225e-06
-1.57134e-05
5.67599e-06
-1.46311e-05
2.46685e-05
3.34471e-05
-3.26143e-05
5.25223e-06
-6.08511e-06
1.38474e-05
4.60567e-06
-1.66001e-05
-1.85274e-06
3.48871e-06
-4.0717e-05
1.41695e-05
2.30592e-05
2.63389e-05
-5.36644e-06
4.45401e-06
5.21539e-05
-5.74911e-05
1.83353e-06
-3.24401e-05
2.50109e-06
3.34981e-05
-3.55842e-06
-3.30525e-05
-2.13809e-05
3.58671e-05
-1.19033e-05
-1.19617e-05
-1.67791e-05
4.06443e-05
-1.45104e-06
4.56976e-06
4.01082e-05
-4.32274e-05
1.38868e-06
2.98781e-05
-5.11459e-05
1.98792e-05
-8.21556e-08
3.08924e-08
1.73597e-05
-1.73085e-05
-4.28284e-05
7.24706e-06
3.07388e-06
3.25078e-05
1.15866e-05
-1.16764e-05
3.94871e-06
-3.85888e-06
6.95607e-07
1.06632e-05
-1.35862e-05
2.22743e-06
-2.2771e-05
3.47457e-05
-4.61019e-06
-7.36517e-06
-3.69866e-05
2.73457e-05
1.69665e-06
7.94384e-06
-2.67736e-05
2.72002e-05
3.54532e-05
-3.58801e-05
3.63849e-05
-2.97557e-05
1.12862e-06
-7.7566e-06
-1.27715e-05
1.64235e-05
-9.80792e-06
6.15603e-06
-7.21375e-06
1.65887e-05
1.38048e-06
-1.07554e-05
-3.8289e-05
3.19975e-06
4.1772e-05
-6.68174e-06
-4.28549e-06
-2.40327e-05
4.01557e-07
2.79167e-05
2.27234e-06
-7.84133e-06
6.26495e-06
9.10229e-06
7.39948e-07
-8.72307e-06
-1.11927e-06
9.76794e-06
1.83281e-05
-2.13137e-05
-6.78233e-06
-1.08022e-05
1.53495e-05
2.63224e-05
-3.08699e-05
8.42706e-07
4.15616e-06
-3.51895e-05
3.01902e-05
1.63477e-05
-2.48581e-05
8.36044e-06
1.50309e-07
-4.18227e-05
-6.68493e-06
1.15222e-05
-3.17896e-06
-8.40306e-07
-2.34633e-05
2.7482e-05
-3.06773e-06
4.47924e-08
3.02304e-06
-5.44883e-06
-6.76827e-06
4.44583e-05
-3.22413e-05
4.97186e-06
-4.73678e-06
-2.35095e-07
2.53793e-07
1.90133e-07
-9.1676e-06
8.72357e-06
-2.13938e-05
2.11848e-05
3.66716e-05
5.78441e-06
3.25522e-05
-2.33214e-05
-1.50148e-05
4.28433e-06
-4.36102e-06
7.66483e-08
-4.35859e-06
4.79913e-05
-2.62936e-05
-1.73394e-05
-2.57846e-05
2.7274e-05
1.9092e-05
-1.95104e-06
2.61684e-05
1.06964e-05
-3.4914e-05
-3.72425e-05
-1.37447e-05
4.97416e-05
1.24557e-06
-4.47674e-06
4.05685e-06
4.19716e-07
3.65809e-05
-3.89405e-05
-5.18537e-07
2.87794e-06
-2.43099e-05
-1.54899e-05
2.21744e-05
1.76254e-05
-4.23757e-06
1.97649e-06
-2.42655e-05
2.65263e-05
-2.83071e-05
-7.32579e-06
5.96694e-07
3.50358e-05
-1.80614e-05
-8.97962e-06
-6.66504e-06
1.52637e-05
-3.49471e-05
-2.98997e-06
2.26737e-05
8.58605e-06
-3.58605e-05
-1.08542e-05
3.81292e-05
7.08399e-06
-6.7404e-06
-3.43537e-07
-3.04377e-05
5.1067e-05
-7.17542e-06
-1.34536e-05
-6.41542e-06
-2.66495e-05
2.99908e-05
3.07443e-06
-5.14803e-05
5.28792e-05
-5.97359e-06
4.57516e-06
-2.92777e-05
-7.09601e-06
2.11545e-05
1.52186e-05
-2.59998e-05
-5.62524e-06
3.17918e-05
-1.66107e-07
-3.25667e-07
9.89362e-08
-1.19938e-05
1.22207e-05
3.25909e-06
1.64421e-07
-3.42357e-06
-5.92641e-06
5.98617e-06
-5.9938e-08
4.34237e-05
-3.77438e-05
-5.11314e-05
4.54521e-05
2.74511e-06
1.12919e-07
-2.85793e-06
-2.78833e-05
2.74393e-05
-3.33003e-07
7.77227e-07
-1.00904e-05
8.54044e-06
2.16026e-07
1.33377e-06
5.40616e-06
5.31877e-05
-2.87843e-05
-2.98094e-05
-3.07528e-05
-9.42333e-06
3.68144e-06
3.64938e-05
3.36753e-05
1.55985e-05
-1.54012e-05
-3.38734e-05
1.23727e-05
-4.61319e-06
1.4914e-06
-9.2513e-06
3.54747e-05
-3.53676e-06
-2.56011e-05
-6.33704e-06
-3.7525e-06
5.57529e-06
-6.22703e-06
4.40438e-06
-2.52876e-06
8.41521e-06
3.08588e-06
-8.97236e-06
-1.5005e-05
-7.9119e-06
4.24589e-05
-1.95417e-05
6.03273e-06
2.3796e-05
-2.32116e-05
-6.61715e-06
-2.25509e-05
2.3236e-05
1.49944e-05
-1.56795e-05
2.25069e-05
-2.03821e-05
-2.68883e-06
5.63919e-07
-4.81277e-08
-1.05275e-05
-4.97177e-08
1.06256e-05
-6.75088e-06
1.27643e-05
-1.42898e-06
-4.5848e-06
-3.19043e-05
-1.09343e-05
1.56559e-05
2.71826e-05
2.60342e-05
-2.18415e-05
-4.47936e-06
2.86973e-07
1.0458e-05
-3.52584e-05
-4.1029e-05
6.58297e-05
2.29853e-05
-3.01098e-05
-1.44594e-05
2.15844e-05
-6.36481e-06
-5.6171e-05
1.47903e-05
4.77452e-05
1.76742e-05
-1.56967e-05
2.48137e-06
-4.45891e-06
2.9967e-05
-1.05707e-05
-3.62258e-05
1.68293e-05
1.35846e-05
2.36882e-05
-5.39906e-05
1.67178e-05
-7.89083e-06
3.23164e-05
-2.85729e-05
4.1474e-06
-3.00184e-05
3.48369e-05
3.51704e-05
-3.99887e-05
-2.33854e-08
-1.35836e-05
1.17941e-05
1.81272e-06
3.91829e-06
-3.68531e-06
-2.3286e-07
3.85287e-05
-4.78067e-05
1.38717e-06
-3.87751e-06
5.16116e-06
2.75167e-06
-4.03555e-06
-2.78413e-06
1.38974e-07
-1.37242e-06
4.01799e-06
1.95569e-05
-2.54145e-06
1.77248e-05
-2.71193e-05
1.0197e-06
8.37461e-06
-9.16412e-06
-2.29759e-06
8.61958e-06
2.72636e-05
-3.55036e-05
2.00871e-05
-1.18466e-05
-2.90118e-05
-4.1594e-06
3.50353e-05
-1.86413e-06
-6.25769e-05
-9.70841e-06
5.5691e-05
1.65943e-05
-4.4383e-05
1.22675e-05
1.04536e-06
3.10708e-05
-3.90297e-06
3.04594e-07
8.172e-07
2.78102e-06
-2.70856e-05
-3.27577e-05
2.45866e-05
3.52569e-05
2.12059e-05
1.8417e-05
-3.19909e-05
-7.63168e-06
1.05992e-07
1.35905e-05
-1.15149e-05
-2.18149e-06
-5.23956e-07
-2.11592e-05
4.20011e-05
-2.03187e-05
4.30854e-05
-3.0683e-05
-1.65072e-05
2.78399e-05
-3.12721e-05
6.19329e-06
-2.76139e-06
-3.96312e-06
-2.54482e-05
2.76863e-05
1.72536e-06
4.13316e-05
-2.87335e-06
-4.24209e-05
2.31345e-05
-2.60774e-05
6.55025e-06
-3.60731e-06
1.72029e-06
-1.13996e-05
-9.26155e-07
1.06055e-05
-2.40491e-06
2.31605e-06
-2.75842e-06
2.84729e-06
-1.71886e-06
4.23231e-06
1.39282e-06
-3.90661e-06
-6.8853e-06
-1.83586e-05
-1.47029e-06
2.67143e-05
1.09297e-05
8.75906e-06
-2.97812e-05
1.00925e-05
-1.87058e-05
5.98694e-07
6.69713e-06
1.141e-05
-1.58262e-06
-1.71837e-05
1.66853e-05
-2.21622e-05
2.63069e-05
8.37035e-06
-1.25152e-05
-3.2987e-05
3.84348e-05
-1.23131e-05
6.86542e-06
-6.16686e-06
-1.98513e-05
2.05182e-06
2.39664e-05
1.52609e-06
3.48399e-05
-4.09702e-05
4.60392e-06
1.72474e-05
-5.40378e-05
1.13865e-05
2.54045e-05
4.94225e-06
-3.84949e-05
2.09838e-05
1.25686e-05
1.6036e-06
2.12748e-05
-7.33915e-06
-1.55394e-05
-3.72718e-06
1.81186e-06
3.64606e-06
-1.73082e-06
-3.96719e-06
7.8959e-06
-2.9277e-05
2.53483e-05
-1.50033e-06
-1.0399e-05
2.69021e-07
1.16301e-05
1.62275e-07
1.06774e-05
-1.60399e-07
-1.06796e-05
1.72377e-07
2.37871e-07
1.09321e-05
-1.13422e-05
-9.65499e-06
-1.63199e-05
2.90887e-05
-3.11361e-06
3.13681e-06
-3.14461e-05
1.69764e-05
1.13329e-05
3.38692e-05
8.36213e-07
2.71935e-06
-3.74243e-05
2.49587e-06
-2.55633e-06
6.06444e-08
1.04864e-05
2.10265e-05
-2.65712e-05
-1.05294e-05
3.89603e-08
1.30083e-07
1.03603e-05
2.2923e-06
-2.89693e-05
1.04965e-05
1.61808e-05
8.17577e-07
6.87619e-06
-6.95823e-06
-7.35692e-07
-5.43032e-06
-1.14567e-05
2.19606e-05
-5.07395e-06
2.68714e-05
-2.99461e-05
2.58346e-05
-2.27603e-05
1.90958e-05
-8.79154e-06
-3.26598e-05
2.23555e-05
-1.80398e-06
-1.71745e-06
3.52129e-06
1.11066e-05
2.31234e-06
-3.20776e-06
-1.02109e-05
-2.42674e-05
3.63569e-05
2.67372e-06
2.2624e-06
-4.93605e-06
2.41237e-06
-3.11099e-05
-3.69854e-07
2.90674e-05
-1.40878e-07
5.36971e-07
2.06301e-05
-1.43668e-06
2.18386e-05
-4.38914e-05
2.3489e-05
-6.93282e-06
-1.97293e-05
-2.76176e-06
2.94235e-05
5.47271e-06
-8.8371e-06
9.18941e-06
-5.82491e-06
-7.35562e-06
-3.63203e-05
-4.52797e-06
4.82044e-05
1.97354e-05
3.74284e-06
-2.27419e-05
-7.36343e-07
7.32953e-06
3.43381e-05
-5.68287e-05
1.51607e-05
-2.4422e-06
-1.42249e-05
-8.31551e-06
2.49827e-05
-1.79678e-05
-5.76476e-06
9.55362e-06
1.41787e-05
-1.02811e-06
-1.16902e-06
-1.22024e-05
1.43992e-05
4.31979e-05
-1.78335e-05
-1.03082e-05
-1.50559e-05
-2.66999e-05
6.43019e-05
-3.48875e-05
-2.7129e-06
1.05237e-05
2.87767e-07
2.82267e-07
-1.10942e-05
2.90836e-05
-3.4982e-05
3.46034e-05
-2.87048e-05
-5.05489e-06
1.58805e-05
-1.28189e-05
1.99296e-06
1.63141e-05
-5.88418e-05
2.15024e-06
4.03774e-05
1.06725e-05
5.22259e-05
-4.44916e-05
-1.84073e-05
5.92791e-06
-5.78736e-06
-9.63636e-06
9.49641e-06
-2.19784e-05
-1.37277e-05
3.93849e-05
-3.67892e-06
3.54338e-05
-2.91815e-05
-4.16412e-05
3.53885e-05
1.83084e-05
1.47965e-05
-9.47912e-06
-2.36255e-05
1.23867e-07
-1.57513e-05
7.6508e-08
3.63925e-06
-3.71561e-06
-3.19115e-06
3.08023e-06
1.10875e-07
2.58629e-05
-2.43121e-05
-2.20546e-05
2.05042e-05
-7.86502e-06
1.01573e-05
-2.85781e-05
2.62852e-05
4.31511e-05
-3.36966e-05
-6.9882e-06
-2.46531e-06
-4.42784e-06
1.09889e-06
2.85839e-06
-9.14757e-06
3.22951e-05
-8.64035e-06
-1.45071e-05
-4.03708e-05
1.03748e-06
1.40236e-05
2.53103e-05
1.63243e-05
-7.3387e-06
-1.57995e-05
6.8136e-06
9.47402e-06
3.98726e-05
-3.78306e-05
-1.15163e-05
-2.42567e-05
-4.75078e-06
4.61947e-05
-1.71878e-05
2.2972e-06
2.56401e-05
5.82674e-06
-3.37638e-05
8.69853e-06
2.78255e-05
-3.42268e-05
1.7936e-05
-1.32002e-05
-6.98271e-06
2.24705e-06
2.50502e-05
-3.18822e-05
1.41613e-05
-1.23901e-05
7.83975e-06
7.40513e-06
-2.85469e-06
1.03465e-05
1.18693e-05
2.36156e-05
-4.58324e-05
4.17579e-06
-2.62089e-05
-4.03043e-06
2.60639e-05
3.215e-07
2.8281e-05
2.49906e-06
-3.11018e-05
1.40889e-05
2.60135e-05
-4.36465e-05
3.54458e-06
-5.65955e-05
4.71913e-05
-7.41959e-07
2.69663e-07
3.91995e-05
-2.98486e-06
-3.64849e-05
-3.07e-06
6.95003e-06
-9.5e-06
5.62031e-06
-7.66182e-07
-3.29999e-06
2.1978e-07
3.84618e-06
-3.15654e-06
3.03854e-06
1.17967e-07
-4.86259e-06
-8.34984e-06
3.81285e-05
-2.4916e-05
-3.39476e-05
5.12024e-06
-1.49641e-05
4.37917e-05
4.39658e-05
-1.04594e-05
-1.44681e-05
-1.90393e-05
3.30991e-06
-3.12081e-05
1.13589e-05
1.65396e-05
3.20108e-06
-2.89042e-06
-1.12802e-06
8.17191e-07
-3.69945e-06
3.56757e-06
1.31781e-07
1.81832e-06
2.60718e-05
-4.60984e-06
-2.32799e-05
-5.71901e-06
2.72747e-05
-3.52789e-05
1.37229e-05
1.30275e-05
2.15049e-05
-5.03173e-05
1.57851e-05
-1.97425e-06
2.59391e-05
1.93365e-05
-4.33016e-05
-4.07235e-05
2.20836e-05
2.35037e-05
-4.86382e-06
4.36416e-05
-4.48301e-05
9.09059e-06
-7.90183e-06
-3.11314e-05
-4.91473e-07
-9.10026e-06
2.22556e-07
4.93594e-06
-5.15837e-06
2.91241e-05
3.87052e-06
-2.4119e-05
-8.87587e-06
-1.77526e-06
-2.50287e-06
1.1963e-05
-7.68499e-06
3.03713e-06
5.32779e-07
9.9719e-06
-1.35418e-05
-3.46926e-05
1.56552e-05
1.66965e-05
2.34096e-06
1.2907e-05
-2.05166e-05
-2.9537e-06
1.05634e-05
-2.50284e-05
5.61174e-06
4.10358e-05
-2.16199e-05
-2.87929e-06
-1.80937e-07
3.06032e-06
-1.61021e-05
4.06138e-05
2.95223e-05
-5.40334e-05
3.70485e-05
9.67475e-07
-5.84915e-05
2.04754e-05
-2.39453e-06
3.75718e-05
-3.23725e-06
-3.19397e-05
1.7663e-05
-1.36921e-05
1.06524e-05
-1.46233e-05
-1.31333e-06
-2.4927e-05
2.78766e-05
-1.6352e-06
-2.36619e-05
-3.43057e-06
-1.55897e-05
4.2682e-05
-7.72567e-06
-8.2838e-06
-1.43328e-05
3.03426e-05
-1.32591e-06
3.97081e-05
-4.62713e-06
-3.37548e-05
2.28078e-05
-2.2791e-05
8.33451e-07
-8.5034e-07
3.94568e-05
1.09916e-07
-2.71819e-05
-1.23847e-05
-8.55739e-06
-4.537e-06
-2.45074e-05
3.76019e-05
-2.79004e-07
-2.93027e-06
3.20933e-06
-3.51288e-05
5.18941e-05
-3.7223e-06
-1.30426e-05
2.7585e-06
1.84842e-05
5.94633e-06
-2.71891e-05
-4.11789e-06
9.53563e-06
3.31121e-06
-8.72917e-06
-1.51639e-05
-3.75458e-06
1.56951e-05
3.22346e-06
2.24192e-05
1.50775e-05
-5.55015e-05
1.80049e-05
1.20935e-05
-9.4734e-06
2.98396e-05
-3.24596e-05
-2.30012e-06
1.87672e-05
1.51071e-06
-1.79777e-05
2.81488e-06
-2.77373e-06
-4.12983e-08
2.89501e-06
3.41074e-05
1.52748e-06
-3.85298e-05
2.78443e-05
-4.33544e-06
-2.69391e-05
3.43092e-06
-5.64004e-06
6.72715e-06
-3.18303e-05
3.07428e-05
-2.79194e-05
-4.36082e-06
2.15421e-05
1.07378e-05
1.00603e-05
-9.53229e-06
-7.7255e-08
-4.50614e-07
-4.24073e-05
2.78514e-05
-1.64128e-06
1.61969e-05
-4.78801e-06
4.02598e-06
7.62024e-07
1.41218e-05
-1.20462e-05
1.89558e-05
-2.10316e-05
1.95606e-05
1.64083e-05
-8.55276e-06
1.51858e-05
-4.0709e-05
-1.89374e-05
4.44611e-05
1.49792e-07
-1.46027e-05
1.46458e-05
-1.92785e-07
8.52331e-06
-1.36924e-05
-1.58038e-05
2.09729e-05
1.34583e-05
5.89678e-06
-2.34089e-06
-1.70142e-05
-3.98278e-06
9.28944e-07
5.05665e-06
-2.00293e-06
-5.16522e-06
6.38735e-05
-2.18618e-05
-3.68467e-05
1.6693e-05
1.90166e-05
-1.08917e-06
-3.46207e-05
1.3148e-07
2.80075e-06
-2.93191e-06
-7.48084e-07
5.37018e-06
3.38623e-05
-3.84855e-05
4.66974e-05
6.00116e-06
-2.28723e-05
-2.98256e-05
-1.03315e-06
5.25912e-06
-4.14056e-06
-8.52921e-08
1.27994e-05
-1.14462e-06
-1.39773e-05
2.32281e-06
-3.88895e-06
-1.22959e-05
6.35343e-06
9.83154e-06
-6.44772e-06
2.87542e-05
4.41188e-06
-2.67185e-05
3.35197e-05
-4.36112e-06
-3.65717e-05
7.41294e-06
-2.97052e-06
5.75202e-06
-2.78153e-06
2.35946e-06
-1.03906e-05
9.28242e-06
-1.25143e-06
6.4438e-07
1.00563e-05
-1.05944e-05
-1.06011e-07
1.03899e-05
1.22715e-05
-1.45402e-06
-2.12071e-05
2.34296e-05
3.23288e-05
-2.22392e-05
-1.28043e-07
3.75909e-06
-3.63116e-06
-4.1169e-05
2.00429e-05
3.88536e-05
-1.77266e-05
3.99039e-05
6.95614e-06
-4.21353e-05
-4.72486e-06
3.06996e-05
-2.05921e-05
-3.37697e-05
8.34103e-06
1.43275e-05
-3.62951e-05
-1.86207e-06
-7.93419e-06
4.60914e-05
-8.52866e-08
3.64034e-06
-3.55496e-06
3.96407e-05
-1.41112e-06
-4.53736e-06
-3.36924e-05
3.8353e-06
-3.8283e-06
-6.89026e-09
-1.22105e-05
2.99457e-06
-7.35237e-06
1.65682e-05
-2.16168e-05
-1.8626e-05
1.6499e-05
2.37437e-05
1.95159e-05
-1.4848e-05
-4.17553e-06
-4.92675e-07
-4.21618e-08
2.90622e-06
-2.86418e-06
-6.68703e-07
-3.81751e-06
2.10675e-08
4.46512e-06
7.16515e-06
2.89238e-06
-5.11442e-06
-4.94323e-06
-1.12646e-05
1.22281e-05
-1.63225e-06
-4.73307e-07
4.24784e-05
-1.16667e-06
-4.08381e-05
-6.98711e-06
-6.91032e-07
9.18415e-06
-1.50568e-06
3.39786e-06
-1.33507e-05
1.04572e-05
-5.04517e-07
1.07917e-05
-2.01811e-05
1.44472e-05
-5.05787e-06
9.27032e-06
2.18296e-05
3.54789e-06
-3.46483e-05
5.27934e-06
-5.42008e-06
1.40795e-07
1.5439e-05
-1.25622e-05
-3.13631e-05
2.84857e-05
1.11286e-06
1.18443e-06
1.59475e-05
-1.82448e-05
4.62073e-06
1.97043e-05
-2.55253e-05
1.19927e-06
1.13252e-05
-5.37218e-07
-1.73528e-06
-9.05286e-06
1.133e-05
2.38264e-05
-3.49262e-05
-2.29633e-07
1.35484e-05
-1.00792e-07
-1.15909e-06
-1.22886e-05
-2.53553e-05
9.23654e-06
1.26982e-06
1.48489e-05
-1.31251e-05
-1.25713e-05
-1.71097e-06
9.38243e-06
-1.65731e-05
1.25254e-05
-5.33496e-06
-4.56045e-06
-1.93419e-05
-2.89498e-05
5.28518e-05
-6.09617e-06
7.53408e-06
-1.74036e-06
3.02442e-07
3.7841e-08
2.42106e-06
-2.4589e-06
-7.94651e-06
4.08226e-05
1.20538e-05
-4.49296e-05
3.35574e-05
1.42753e-05
-1.24325e-05
-3.53998e-05
2.75076e-05
-2.28078e-05
2.602e-05
-3.07192e-05
3.44603e-05
-3.78479e-05
4.14235e-06
-7.55315e-07
-6.21037e-05
2.71345e-05
1.20087e-05
2.29612e-05
-1.1187e-05
-1.41182e-06
1.23644e-05
2.34349e-07
3.61195e-05
-4.81338e-05
1.69152e-05
-4.90091e-06
1.02504e-05
-1.12644e-05
3.56749e-06
-2.55382e-06
-1.8363e-05
1.66712e-05
-1.14332e-05
-1.38841e-05
4.76454e-05
5.17606e-06
-3.89379e-05
-5.16278e-06
1.38787e-07
5.02396e-06
-4.82122e-06
1.09559e-05
-4.02769e-05
-1.91702e-05
-3.1668e-07
1.86021e-07
1.9301e-05
4.36012e-06
1.30271e-07
-4.49041e-06
8.61874e-06
-5.80999e-07
-3.0185e-05
2.21474e-05
-5.93938e-08
-1.95259e-07
1.0172e-05
-9.91764e-06
8.16156e-06
1.82732e-05
-3.0227e-05
3.79166e-06
2.99295e-05
1.94339e-06
2.05427e-06
-3.39266e-05
-2.5347e-06
6.63279e-06
3.87033e-05
-4.28011e-05
-8.48427e-06
-1.03183e-06
-3.6491e-07
9.88092e-06
-1.00705e-05
8.5629e-06
-3.48317e-05
3.63386e-05
-1.28785e-06
2.4141e-05
-2.11301e-05
-1.72285e-06
4.23496e-05
1.30258e-05
-1.9236e-05
-3.6139e-05
9.09847e-06
-4.9229e-05
3.1983e-05
-4.23619e-05
5.41046e-05
-2.26881e-06
2.34551e-05
-9.41779e-06
1.95198e-05
-1.29732e-05
-3.16483e-06
6.24964e-06
9.88827e-06
-6.83817e-06
6.99413e-07
6.22797e-06
-8.93469e-08
-1.31671e-05
3.3644e-05
-2.37939e-05
3.31714e-06
-3.41271e-05
3.08114e-05
3.28293e-05
-2.95133e-05
-3.09503e-06
2.85816e-06
1.83173e-07
5.38767e-08
3.53938e-05
-5.12336e-05
-1.9166e-05
3.50063e-05
-4.88398e-05
-1.97683e-05
3.25842e-05
3.6023e-05
4.47516e-05
4.54249e-06
1.94078e-06
-5.12344e-05
3.83178e-05
-2.6019e-05
3.24528e-05
-3.73397e-05
-3.66325e-06
1.43448e-05
2.66576e-05
3.06605e-06
2.59476e-07
-3.32557e-06
4.15467e-05
-3.82765e-05
-1.30505e-05
9.78074e-06
-1.99334e-05
-7.02133e-06
5.78422e-06
2.11709e-05
1.56839e-05
2.79042e-05
-1.62072e-05
-2.73806e-05
6.73799e-06
2.12022e-05
-2.06235e-05
-7.31666e-06
4.32446e-07
-6.05685e-06
5.62434e-06
-1.98092e-05
-1.79147e-05
1.73022e-05
2.04219e-05
1.4791e-06
1.96783e-05
-4.49989e-06
-1.66575e-05
-3.40434e-05
3.40192e-05
-6.39092e-06
-3.06233e-06
4.36044e-05
-4.25141e-05
1.97245e-06
2.0536e-05
4.21519e-06
1.11019e-05
-3.58528e-05
-4.73663e-08
-2.11487e-06
2.16228e-06
-3.07335e-06
3.06491e-06
8.53335e-09
-2.84495e-05
-1.31957e-05
1.60002e-05
2.56441e-05
-3.50051e-05
-5.83246e-07
4.23497e-05
-6.76212e-06
-1.10677e-05
4.08589e-05
-4.20467e-05
1.22554e-05
-2.67157e-05
2.19969e-05
-1.00096e-05
1.47285e-05
3.38067e-07
2.02184e-05
-2.26016e-05
2.04509e-06
-3.63525e-05
7.96999e-06
2.39242e-05
4.45787e-06
2.59488e-06
5.12534e-05
-1.91646e-05
-3.46834e-05
2.09892e-06
-3.90295e-06
-2.58737e-05
-1.35897e-05
1.10138e-05
2.0506e-05
-1.28898e-06
3.3659e-06
-2.25829e-05
-1.88657e-06
-4.3351e-06
5.47194e-06
7.49639e-07
1.31074e-05
-3.97584e-06
-9.32737e-06
1.95777e-07
1.29864e-05
-4.40286e-05
4.21069e-05
-1.10653e-05
-1.66867e-05
2.93571e-05
4.46443e-06
-1.71345e-05
-3.53645e-06
4.3286e-06
2.77272e-05
-2.85192e-05
-3.69666e-05
2.7968e-06
3.49865e-07
3.38203e-05
-2.03708e-05
2.37662e-06
1.64568e-05
1.53753e-06
-2.90024e-05
1.81087e-05
4.14907e-05
-3.05971e-05
-1.38254e-05
-2.56896e-05
6.91232e-06
3.26027e-05
5.81598e-06
-4.44896e-05
-5.68047e-06
4.43548e-05
-3.40703e-05
4.44017e-06
-1.37512e-06
3.10054e-05
-3.68504e-05
-2.74105e-06
-2.29304e-06
4.18845e-05
7.54324e-06
-4.27509e-06
3.97942e-05
-4.30633e-05
6.63831e-06
-3.77177e-06
2.83145e-09
-2.86963e-06
5.07046e-06
-5.25e-05
-8.34259e-06
5.57721e-05
-3.80028e-06
2.41098e-06
1.95179e-06
-5.62733e-07
-2.87895e-05
-7.55641e-06
1.58116e-05
2.05343e-05
-1.35061e-06
1.32747e-05
2.49025e-06
-1.44142e-05
-1.31011e-05
-1.41965e-05
9.30749e-06
-6.05442e-06
2.43465e-06
3.12733e-05
-2.76541e-05
2.47859e-05