/*--------------------------------*- C++ -*----------------------------------*\
| =========                 |                                                 |
| \\      /  F ield         | OpenFOAM: The Open Source CFD Toolbox           |
|  \\    /   O peration     | Version:  2406                                  |
|   \\  /    A nd           | Website:  www.openfoam.com                      |
|    \\/     M anipulation  |                                                 |
\*---------------------------------------------------------------------------*/
FoamFile
{
    version     2.0;
    format      ascii;
    arch        "LSB;label=32;scalar=64";
    class       volVectorField;
    location    "67";
    object      U;
}
// * * * * * * * * * * * * * * * * * * * * * * * * * * * * * * * * * * * * * //

dimensions      [0 1 -1 0 0 0 0];

internalField   nonuniform List<vector> 
59516
(
(0.103207 -0.00117798 -0.000543898)
(0.0941781 -9.17708e-05 -0.000395516)
(0.109897 -0.000532855 -0.000487698)
(0.12686 0.0012374 0.00178052)
(0.113662 0.000210879 -0.00456211)
(0.101091 -0.00483039 -0.0107983)
(0.126829 -0.00221716 -0.00233575)
(0.0981281 0.00061209 -0.00011786)
(0.109154 0.000866066 -3.75962e-05)
(0.0507172 -0.00101306 0.00195909)
(0.154053 -0.000350974 -0.00252981)
(0.059685 0.000190532 -0.00375457)
(0.115737 0.00117322 7.15252e-05)
(0.0189463 -0.000122981 -0.000173875)
(0.0568637 0.00135641 0.00316826)
(0.0490251 0.00339702 -0.00149901)
(0.170086 -0.00286631 -0.00136189)
(0.0700178 0.00401505 -0.00438782)
(0.114328 0.00612696 0.00060879)
(0.166451 -0.00195172 -0.000552369)
(0.0537126 0.000932717 -0.00129361)
(0.148049 -0.000978204 0.000236565)
(0.154488 -0.00123378 -0.00285019)
(0.0313082 -0.000959227 -0.00027057)
(0.161589 -0.000696249 0.000286116)
(0.0618985 0.00144575 0.000613963)
(0.0390734 0.000775522 -0.00275882)
(0.0442203 0.00378755 0.000188928)
(0.0652382 0.00276096 -0.000626425)
(0.0160522 -0.00249841 0.000608683)
(0.108361 -0.0210393 -0.00463897)
(0.0455212 0.00367574 -0.000579476)
(0.131179 6.70889e-05 0.000801608)
(0.109539 -0.00098133 0.00193452)
(0.139504 0.0055355 0.00396741)
(0.146043 0.000284291 -0.000528962)
(0.015511 -0.00150747 -0.00215691)
(0.0699187 0.00268434 -0.00676764)
(0.0949552 -0.00389969 -0.000402743)
(0.161178 0.00029076 -0.00080179)
(0.0977458 -0.000536156 0.000227154)
(0.14405 -0.00858631 -0.00800338)
(0.148438 -0.00422032 -0.00352991)
(0.10321 -0.000658801 0.000287335)
(0.142536 -0.0056172 -0.00052591)
(0.0519978 -0.000710644 -0.00119833)
(0.132232 -0.00307455 -0.00462064)
(0.163714 -0.00534197 -0.00111074)
(0.111885 -0.00899365 0.0123832)
(0.151227 0.0069466 0.00539752)
(0.104055 0.0104762 -0.0145201)
(0.0409453 -0.00360489 0.0024583)
(0.11684 0.00106318 -0.0022776)
(0.12419 -0.000567543 0.000135034)
(0.0471438 0.0030338 -2.82901e-05)
(0.129506 0.00313338 -0.000981559)
(0.144978 0.00833975 0.00854951)
(0.043193 0.00380154 -0.00265633)
(0.178766 -2.71916e-06 -0.000392115)
(0.135279 0.00649351 0.00813092)
(0.149574 -0.000580556 -7.66474e-05)
(0.0176623 0.00223645 -0.000773319)
(0.171785 0.000298171 0.00086566)
(0.167412 0.00295606 0.00230835)
(0.11815 0.00033009 -0.000842961)
(0.147727 0.00398198 0.00568866)
(0.0238204 -0.00161639 0.00217832)
(0.0384379 0.00024835 -0.000234544)
(0.121534 -0.00505099 0.0222346)
(0.13547 0.00126599 -0.00366287)
(0.0340242 0.000924644 0.000279455)
(0.164545 0.00284125 -0.000438161)
(0.0212671 0.00133006 -0.00323134)
(0.142746 0.00182284 0.000771039)
(0.189162 -0.000485939 -0.000552378)
(0.15823 -0.00275693 -0.00344267)
(0.164445 -0.00288115 -0.00427141)
(0.148729 -0.000312295 0.00046893)
(0.0425205 -0.00139516 0.00134426)
(0.151903 0.00315722 0.0080619)
(0.0351789 0.00217204 0.00104513)
(0.147011 0.00425776 0.00639611)
(0.139807 0.0019222 0.00616569)
(0.0184224 -0.000691553 0.0025834)
(0.146818 0.00336262 0.00671287)
(0.178875 -0.001326 9.05645e-05)
(0.0302122 -0.00111938 0.000487204)
(0.149621 -0.00064196 -0.000544347)
(0.0513332 0.000640121 0.00197846)
(0.107108 0.00848451 -0.00583111)
(0.131508 -0.000879271 -0.0115358)
(0.139336 0.00135248 -0.000376278)
(0.177529 0.00059376 -0.000494057)
(0.137049 0.000860946 -0.000324021)
(0.165289 -0.000139486 -1.60998e-06)
(0.109926 -0.0105264 0.00393296)
(0.139659 -0.000299665 0.000385574)
(0.0499203 -0.00188238 -0.00397566)
(0.0643137 0.00244422 -0.00106784)
(0.148394 -0.000739136 0.00185032)
(0.0351342 0.000524004 0.00133379)
(0.0224406 0.00117153 -0.0025336)
(0.0212207 0.000755945 0.00290173)
(0.0509686 -0.000758325 -0.00282583)
(0.133616 0.000810807 -0.000180147)
(0.148476 -0.000533246 -0.000507677)
(0.0368209 0.00324745 -0.0013518)
(0.101432 0.000260708 -0.000795305)
(0.0973561 -0.000671548 0.000252486)
(0.0621364 0.000382204 -0.00248735)
(0.124957 0.0129371 -0.0135749)
(0.0284512 0.00289466 -0.000483607)
(0.0628669 0.000824491 -0.00397414)
(0.118045 0.0174347 -0.00875031)
(0.161662 -0.000200482 0.000218642)
(0.096275 0.0010903 0.00119691)
(0.0508475 0.000584951 -0.00188138)
(0.131864 -0.000104351 0.000677176)
(0.0202322 -0.000296845 0.000977072)
(0.147079 0.0011045 0.000340715)
(0.194591 2.05415e-05 8.85131e-05)
(0.173515 -0.000241999 0.000648844)
(0.159 -1.61865e-05 0.000799288)
(0.17202 -0.000241996 0.000333875)
(0.13241 -0.0178481 0.00273118)
(0.0897658 0.00131612 -0.00308088)
(0.0275754 -0.000537606 0.00180384)
(0.138369 -0.0138117 -0.00117213)
(0.0898414 -0.0027548 0.0131416)
(0.186179 0.000104472 -0.000286965)
(0.190797 0.000155349 -0.000199532)
(0.109601 0.00176877 0.00188532)
(0.0214743 0.00128835 -0.00147147)
(0.147494 -0.000556372 0.000265621)
(0.098656 0.00101393 0.000286494)
(0.112436 -0.000590049 -0.00221926)
(0.107483 0.012829 -0.00897491)
(0.12743 -0.000383865 0.000291712)
(0.0365865 0.00253875 0.000127573)
(0.0963708 0.000647003 -0.00132643)
(0.0409177 -0.000807077 -0.00210984)
(0.191644 -0.000501018 0.000107374)
(0.0172102 0.000719575 0.00149866)
(0.123238 -0.00089726 -0.000677679)
(0.180134 0.000549702 0.00147585)
(0.141886 0.00242547 0.000644857)
(0.140265 -0.00564753 -0.00220993)
(0.11694 0.00197658 -0.00323375)
(0.0621281 -0.00100512 0.00173121)
(0.104414 -0.00047476 -0.00104937)
(0.101219 -0.000572955 -0.000869691)
(0.0320802 -0.00123477 5.55358e-06)
(0.169346 -0.000927964 0.000933377)
(0.154695 7.42829e-05 -0.000135991)
(0.0865302 1.44158e-05 0.00222671)
(0.0171106 -0.000312127 0.00183346)
(0.11027 -0.000544287 -0.000272152)
(0.111602 0.00183879 -3.67924e-05)
(0.0802654 0.00141623 0.000325118)
(0.0175414 0.00208197 -0.00228348)
(0.0617143 0.00161846 -0.00304746)
(0.0636236 -0.00341003 -0.00205981)
(0.0320756 -0.0012927 0.00031265)
(0.0229407 -0.000197287 -0.000443202)
(0.096031 0.00181419 0.00239809)
(0.178268 -0.000330015 0.000986033)
(0.0579292 -0.000814135 0.000430691)
(0.18341 0.00133641 -0.000187361)
(0.0184203 -0.00116473 0.00207973)
(0.136518 -0.000527945 -0.000315433)
(0.0808772 0.00147689 0.00117262)
(0.0487574 0.000811718 -0.000742982)
(0.0598805 0.00161106 0.000711925)
(0.135617 5.14479e-05 0.000545427)
(0.0464411 -0.000662008 0.000190471)
(0.13485 -0.00170325 -0.00562587)
(0.173709 -0.000273308 -0.000837322)
(0.149529 -0.00593309 -0.00376859)
(0.0634327 -0.000752908 0.00292937)
(0.0374498 -0.000105579 -0.000511645)
(0.146012 0.00267538 0.000519132)
(0.0306435 -0.00273709 -0.00127141)
(0.026095 -0.000307292 -0.00203903)
(0.0602203 -0.00144386 0.000165486)
(0.185284 0.000693561 0.000765736)
(0.0552168 0.000308615 0.00066538)
(0.0325873 -0.000487847 -0.0025529)
(0.0209074 1.48404e-05 0.000284029)
(0.119519 0.000431615 -4.21457e-05)
(0.0965248 -0.0016475 -0.000104446)
(0.135339 -0.000420556 0.00259405)
(0.048003 0.00296136 -8.70986e-05)
(0.165812 -0.00161966 9.59715e-05)
(0.0526938 0.00185324 7.50157e-05)
(0.154642 -0.000268831 -0.000985288)
(0.0272601 -0.000231273 0.000747174)
(0.052686 0.000752425 -2.97343e-05)
(0.0370945 -0.001076 0.000272837)
(0.105798 0.00297772 0.00347143)
(0.154976 0.000584809 -0.00065194)
(0.0770604 -0.00274054 0.000214241)
(0.193739 -0.000409543 8.25092e-05)
(0.0986319 -0.000804911 0.000775124)
(0.0176933 0.00190947 -0.00132202)
(0.125262 -0.000748381 -0.000570124)
(0.145088 0.000572911 0.000331509)
(0.186989 0.000418202 -0.000474694)
(0.15598 -0.00151046 -0.000951335)
(0.0210207 -0.000697669 0.000198945)
(0.11067 -0.00207723 -0.000153053)
(0.046737 0.00330224 0.00298557)
(0.0235599 -0.00388587 -0.000644707)
(0.14299 8.32767e-05 -0.00154368)
(0.0514799 -0.00114102 0.000695438)
(0.112707 0.0015746 3.20269e-05)
(0.174586 0.00012516 -0.000416871)
(0.139815 0.00179162 0.000743704)
(0.158071 -0.00146809 0.000518396)
(0.050048 0.00201306 -0.00270097)
(0.157663 -9.12995e-05 0.000796174)
(0.0509831 0.00192212 0.00186494)
(0.10228 0.000485611 0.000278826)
(0.168069 0.000882075 0.0010427)
(0.0357171 -0.000136288 0.0005733)
(0.174019 0.000162134 -0.000454125)
(0.176455 -0.000172326 -0.000401592)
(0.0259451 -0.000313182 0.00131292)
(0.0430513 0.00138641 -0.00203315)
(0.175001 0.000492047 0.000808347)
(0.0504959 0.000268889 -0.00388918)
(0.176349 -0.000603631 -4.26953e-05)
(0.177203 0.000361799 -0.000449706)
(0.191386 0.00070983 0.000760445)
(0.0227295 -0.00176127 -0.001281)
(0.0299076 0.000794914 -0.00141292)
(0.0312172 0.000877659 -0.00113148)
(0.0589663 0.000395656 -4.86436e-05)
(0.0925648 -0.00112508 0.000665433)
(0.158584 0.00112509 0.00141053)
(0.0531245 -0.00118093 0.00150185)
(0.192898 -0.000276135 0.000415473)
(0.0185721 0.000331133 0.00274284)
(0.0505025 2.27001e-05 0.000862101)
(0.0224927 0.000115483 0.00249771)
(0.188251 0.000374551 0.000579728)
(0.0882368 -0.000608074 -5.89693e-05)
(0.146321 0.000293042 0.0013912)
(0.0613473 0.00106167 -0.00139785)
(0.172297 0.000224706 -0.000819784)
(0.101302 0.000509618 0.000560519)
(0.1681 0.000337927 0.000107595)
(0.140196 -0.000128706 0.000870339)
(0.194267 0.000399977 0.000706136)
(0.144998 0.0010419 -0.00101259)
(0.147513 0.00113308 0.00140592)
(0.159803 -0.000258751 0.00125613)
(0.0516596 7.66649e-06 -0.00024982)
(0.154962 0.00108096 0.00203147)
(0.03847 -0.000420417 -0.00213517)
(0.0557746 0.000423071 0.00193014)
(0.128066 0.000881564 -0.00108324)
(0.164642 -0.00028548 0.000263155)
(0.11177 0.00330862 0.00162649)
(0.182013 0.000332763 0.000291003)
(0.0943623 0.00022511 0.00204958)
(0.0537566 0.0020409 -0.00152024)
(0.162194 -0.000250667 -0.00146759)
(0.088707 0.00197456 0.000480036)
(0.0426759 -0.000734673 -0.00070903)
(0.048301 0.000288915 -0.00140154)
(0.0955311 0.00111251 -0.00341394)
(0.17754 0.000113715 -0.000280164)
(0.0946196 -0.00250458 7.61054e-05)
(0.0886336 -0.00157212 0.000881119)
(0.167994 -0.00105972 -0.000664309)
(0.0882406 -0.000624904 0.00223087)
(0.0192583 0.00231635 -0.00129943)
(0.163791 0.000407444 0.000705938)
(0.0233669 0.00149831 -0.00202073)
(0.0374122 -0.00153607 0.00107117)
(0.189739 0.000690106 0.00105137)
(0.138238 0.000358421 -0.000377744)
(0.0232812 0.00248143 0.00247869)
(0.118029 0.000817305 0.000505147)
(0.12133 0.00251392 -0.000125603)
(0.168841 -0.00177626 0.00216958)
(0.18831 -0.000285355 0.000398145)
(0.0221685 0.00263414 0.00045301)
(0.188387 0.000669669 0.000377975)
(0.195132 8.26124e-05 -7.67428e-06)
(0.179034 0.000262403 0.000729803)
(0.134117 0.000955261 0.000799123)
(0.137255 0.000607728 0.000613967)
(0.091729 0.000551374 -0.000182029)
(0.175228 0.000623788 0.000279516)
(0.0260204 -0.000929649 -0.00119477)
(0.163873 -0.000196425 0.000481254)
(0.138914 -0.000221463 -0.000658771)
(0.193621 0.000446147 0.000204028)
(0.1747 0.00104182 0.000711881)
(0.11461 -0.000424656 0.000631832)
(0.0554635 0.000905462 0.00123374)
(0.0212094 -0.000330126 0.00146596)
(0.0261788 -0.000634631 0.000422476)
(0.165123 -0.00119218 -0.00109788)
(0.0187337 -0.00108943 0.00269535)
(0.0602579 -0.000320225 -0.00108342)
(0.0489739 0.0027403 0.00106592)
(0.172272 0.000821736 0.000861479)
(0.179439 -0.000422851 -0.00039408)
(0.155569 -6.1589e-05 -0.0010136)
(0.0557619 0.000165887 -0.00130271)
(0.099941 0.00169884 -0.00244522)
(0.0372578 -0.00314511 0.00251397)
(0.0538445 0.00131455 0.00105283)
(0.160748 0.000815851 -4.13181e-06)
(0.0945511 0.000954394 -0.000908966)
(0.107732 0.0123425 0.00350151)
(0.0873596 -0.00197152 0.000897764)
(0.0399853 -0.000145396 -0.000375034)
(0.0605565 -0.000873102 0.00196932)
(0.105332 -0.000971844 -0.00163621)
(0.182311 -6.71563e-05 -0.000432308)
(0.192145 -0.000900965 0.000888351)
(0.19383 0.00041497 0.0011941)
(0.16374 -0.00153828 0.000387606)
(0.096938 0.00386865 0.00462911)
(0.124939 0.00063032 0.000891833)
(0.171099 0.000639896 0.000930583)
(0.163397 -0.000786092 7.74802e-05)
(0.166453 -0.00101262 0.000838055)
(0.054336 0.00109426 -0.00334503)
(0.0207651 -0.00141007 -0.00242405)
(0.15114 -0.00139235 0.000184468)
(0.0367127 -0.00182089 0.00202185)
(0.0293271 6.29652e-05 3.55938e-05)
(0.164331 0.00053417 0.00198023)
(0.14488 0.00011263 0.00035063)
(0.0595857 -0.00125505 -0.0030441)
(0.179451 -0.000611142 0.000304315)
(0.169554 -0.000560754 0.000408217)
(0.191742 -4.02674e-05 -0.00050069)
(0.179897 -0.00128121 -0.000491338)
(0.0304628 0.00147458 7.51947e-05)
(0.160917 -0.000431389 4.73581e-05)
(0.184822 -0.000614703 0.000451802)
(0.0542655 0.000154837 0.000838603)
(0.190511 3.7502e-05 0.00100097)
(0.182506 -1.11264e-05 0.000175642)
(0.129682 -9.36019e-05 -0.000931824)
(0.121121 0.000360825 -0.000987351)
(0.153527 -0.00109725 0.00179107)
(0.142938 -0.00109228 0.000174068)
(0.0664511 -0.000357383 -8.16218e-05)
(0.0296263 0.00125081 -0.000955369)
(0.0325631 -0.00245597 -0.000152087)
(0.0911542 0.000436339 -0.000394695)
(0.0862568 -0.0067911 0.0106289)
(0.0746072 -0.00420219 -0.00608646)
(0.0793011 0.000410513 0.000434971)
(0.111902 0.000115239 0.00198491)
(0.130517 -7.519e-06 0.00126233)
(0.159647 -0.00166828 0.00420056)
(0.158018 -0.000979361 0.000944678)
(0.130334 -0.00093408 -0.000584897)
(0.149458 -7.84287e-05 0.000517693)
(0.150252 0.000892115 0.000262942)
(0.0293361 -0.000930552 -0.000355369)
(0.113929 -0.0224669 0.00276234)
(0.0549364 0.0013741 0.000423022)
(0.0384001 -0.00168237 -0.000387327)
(0.038811 0.000860096 0.000306991)
(0.164186 -0.00055678 -0.000552273)
(0.0906599 -0.000561749 -2.46289e-06)
(0.162574 0.000611211 -0.00122478)
(0.0183458 0.000977848 -0.00157281)
(0.124243 -0.000304733 0.000320952)
(0.0415464 0.000970938 -0.000815043)
(0.169001 -0.000150393 -7.22341e-05)
(0.0447659 -0.000627124 -0.000493101)
(0.0592373 -0.00135467 0.00101617)
(0.101938 -0.00278102 0.000672946)
(0.151943 -0.00124378 0.00104172)
(0.0180693 0.00139743 -0.00196161)
(0.0513929 -0.000561569 0.00205875)
(0.131702 -0.000169347 0.000500747)
(0.0214985 -0.00133789 -0.00175241)
(0.130885 0.00132241 0.0095514)
(0.113076 -0.00082707 0.00260245)
(0.130122 -0.000685165 -0.00212232)
(0.0912133 0.00201659 -0.0029392)
(0.0845322 -0.00123888 0.00208139)
(0.164593 0.000453786 0.000340875)
(0.0771933 -0.00791647 -0.00718821)
(0.192058 0.000132371 -5.6103e-05)
(0.111394 0.00865675 0.00902634)
(0.0562974 -0.00262424 0.000335597)
(0.0594142 -0.000469755 -0.00134249)
(0.187094 -9.77667e-05 0.000333673)
(0.185818 0.000117286 0.00029255)
(0.0493249 -0.000499306 0.000597351)
(0.131037 0.000281192 -0.000608091)
(0.0936171 -0.000444679 -0.00218628)
(0.188582 0.000361415 0.000404741)
(0.187648 -0.00026142 0.000982221)
(0.0425605 0.00126196 -0.00327246)
(0.130601 -0.0011064 0.000226246)
(0.145426 -0.00180126 0.001753)
(0.147989 0.000645961 -0.000782762)
(0.157939 0.000850789 0.00052641)
(0.0199753 -0.000684271 -0.00250036)
(0.0196236 0.000961376 -0.00245259)
(0.124889 0.0011173 -0.00161094)
(0.182498 -9.80124e-05 -0.000156143)
(0.190276 -0.00104817 -0.000778953)
(0.0321158 0.000344177 -0.00242286)
(0.174136 -0.00159926 0.000154379)
(0.103356 -0.00105354 -0.000925192)
(0.183229 9.73241e-05 -0.000319913)
(0.183365 -0.000442041 0.00128142)
(0.190241 -0.000399244 -0.000530949)
(0.179055 0.000762335 0.000692607)
(0.177372 0.00175404 0.000391878)
(0.0847143 0.000539378 0.000300613)
(0.187224 0.000677961 -0.000276891)
(0.0528635 -0.000973368 -0.00247394)
(0.171324 -1.5756e-05 -0.000626216)
(0.105453 -0.000329884 -0.00107279)
(0.154989 0.00043538 0.0010545)
(0.182097 6.96145e-05 -0.000343497)
(0.148895 -0.000434566 8.21166e-05)
(0.145475 0.000151365 -0.00149751)
(0.0374551 0.0021339 0.00203207)
(0.0314643 0.000847162 0.000211)
(0.0194659 0.00168494 -0.00191531)
(0.153361 0.00426493 0.00758119)
(0.196475 -0.000268687 -0.000220922)
(0.139439 -0.000608061 0.000650426)
(0.123967 0.000888222 6.28236e-05)
(0.0285501 -0.000114018 0.00109153)
(0.021864 -0.000338529 0.00250479)
(0.110798 -0.000701498 0.00165652)
(0.15471 0.000158111 0.00142432)
(0.182654 -0.000185973 0.000651239)
(0.155277 0.000620941 0.000248937)
(0.13342 -0.00114256 -0.00060882)
(0.196566 8.10333e-06 0.000164638)
(0.132689 0.000681699 0.0011163)
(0.0244399 -0.000469985 0.00228477)
(0.12009 -0.000212967 0.000926098)
(0.0536293 0.00048616 0.00280863)
(0.0704821 -0.00704372 0.00151124)
(0.156144 0.000601983 0.000562167)
(0.0892752 0.000586365 -0.000181497)
(0.14685 -7.4555e-05 0.000242798)
(0.0188575 -0.00357222 -0.00128111)
(0.18685 0.000199479 -0.000685945)
(0.188733 -0.000300598 0.000168162)
(0.185426 -2.01453e-05 0.000784649)
(0.0875694 0.000869471 2.6402e-05)
(0.154745 -0.000977143 0.00180037)
(0.179527 0.000343882 0.000281208)
(0.118753 0.000487035 0.00036834)
(0.191387 0.000243423 0.000216307)
(0.0975917 0.00408892 -0.00345171)
(0.175832 3.08269e-05 -0.000405202)
(0.148794 -0.00286352 -0.000344441)
(0.0190074 -0.00120221 0.00137278)
(0.186576 0.000617796 0.000192423)
(0.114185 0.00239815 0.000104948)
(0.0429448 -0.00124888 0.00358472)
(0.0874388 0.000855062 -0.00154408)
(0.172107 0.000527894 -0.000100735)
(0.12608 -0.000351752 0.00126377)
(0.0800217 0.000251682 -0.00222882)
(0.0187292 -0.00170224 -0.00183967)
(0.180325 0.000512453 -0.000293163)
(0.1222 0.00176196 -0.00185372)
(0.163458 -0.000408139 -0.00056022)
(0.12156 -1.48608e-05 0.000803295)
(0.034056 0.00158087 0.00147813)
(0.140709 -2.60074e-05 -0.000159624)
(0.0257063 0.00207766 -0.00331999)
(0.16608 0.000238198 -0.000756279)
(0.102281 0.0113986 -0.00365042)
(0.173172 -0.00156557 -0.00068829)
(0.0478944 4.36954e-05 0.00171468)
(0.102253 -0.00113783 -0.0016427)
(0.0910557 2.17525e-05 -0.00116172)
(0.0321049 0.00178585 0.00167839)
(0.194628 0.000264103 -0.000254532)
(0.179383 -0.00035999 0.000349295)
(0.0199806 0.000676951 0.00195061)
(0.165969 0.000549674 0.000328569)
(0.193847 0.000322836 0.000584827)
(0.0342536 -8.3816e-05 -0.0021177)
(0.0576909 0.00255266 -0.000127755)
(0.0501856 0.00186937 0.00130196)
(0.155827 -0.000503124 0.00074613)
(0.187875 -0.000505085 0.000577507)
(0.0324147 -0.000870839 0.00148458)
(0.0496948 -0.00166209 -0.00051333)
(0.0526535 0.00103429 -8.67011e-05)
(0.111724 0.00159482 0.00051511)
(0.190284 -0.000189506 0.000735076)
(0.0215234 0.00118542 -0.00279139)
(0.161076 -0.000655464 0.000736715)
(0.151949 0.0040923 -0.000926206)
(0.187701 -0.000276102 0.000788513)
(0.0900999 0.00386721 -0.00372739)
(0.172015 -3.34849e-05 0.000344257)
(0.0208505 -0.000290151 -0.00227031)
(0.16597 -0.00152639 -0.00075224)
(0.0250018 -0.000353111 -4.73288e-05)
(0.0584625 -0.00156156 0.000872566)
(0.154984 -0.00117372 6.78239e-05)
(0.0563056 -0.00169179 -0.000573893)
(0.0186606 0.0021679 0.00193131)
(0.0338286 0.000685772 -0.00105184)
(0.0415892 -0.00228159 0.00159695)
(0.0547552 0.00112143 -0.00158478)
(0.145699 0.000120026 -0.00119094)
(0.0465694 -0.0010933 8.80862e-05)
(0.0553242 0.00179863 -0.000903386)
(0.128245 -0.00714016 -0.0138138)
(0.175846 0.00022636 0.000160859)
(0.0219631 0.00141067 0.000263465)
(0.103603 0.000348433 -0.00115061)
(0.0812665 0.00887433 -0.00350987)
(0.177154 0.000142083 -0.000420263)
(0.0552953 -5.61174e-05 -0.00142007)
(0.171172 0.000117692 0.000953928)
(0.0534145 -0.00217027 -0.00163418)
(0.120415 0.000897572 0.000570856)
(0.184106 -0.000333424 -0.00132907)
(0.0469988 0.00200468 -0.00421935)
(0.181287 0.000195595 -0.000258164)
(0.0474997 0.0022585 0.00240056)
(0.0173846 0.00263738 0.000988927)
(0.146384 0.000654343 -0.000485405)
(0.188116 -0.000368063 -0.00029088)
(0.127214 0.00107593 -0.000500498)
(0.12237 0.00165609 -0.000928791)
(0.187115 -0.000900548 -0.000160828)
(0.0566079 0.00170879 -0.000282751)
(0.172277 -0.000783262 0.000282346)
(0.0534239 -0.00177726 0.00220358)
(0.180862 0.000215885 -0.000144684)
(0.123546 -0.0012648 -0.0014166)
(0.0256308 0.000661657 -0.0035455)
(0.154892 0.000850084 -0.000997169)
(0.0482276 3.73375e-05 0.00152373)
(0.0238179 -0.00167949 -0.00180772)
(0.147642 -0.00156773 -0.000480728)
(0.0397325 -0.00115018 0.00101807)
(0.136824 -0.00024477 8.52512e-06)
(0.189073 -0.000439759 0.000730923)
(0.129684 0.000207647 5.35527e-05)
(0.050201 -0.00226739 -0.00245699)
(0.186706 0.000558774 0.000486406)
(0.0855074 -0.00131551 0.00132506)
(0.194848 5.51839e-05 7.10509e-05)
(0.187535 -0.000155726 0.000454858)
(0.188979 -0.000556485 0.00113891)
(0.187296 -0.000662673 -0.00087531)
(0.0406355 -0.00229703 -0.00197098)
(0.0479024 0.000333517 -0.000391681)
(0.184901 -0.000713138 -0.000523285)
(0.164294 1.195e-05 0.00168832)
(0.0288212 -0.0021471 -0.000946763)
(0.164695 -0.000237973 0.000672527)
(0.188048 0.000144924 0.000452629)
(0.183035 -0.000202227 -0.000357292)
(0.189907 -0.000496696 -0.000302836)
(0.112267 0.000264375 -0.00199347)
(0.019509 0.00200113 0.00168355)
(0.183652 0.00048748 -0.000108694)
(0.0960358 -0.00085001 -0.00107682)
(0.15329 0.00141026 0.000711459)
(0.0916091 0.000356156 -0.000212917)
(0.0264715 0.00186952 -7.0951e-05)
(0.191003 -9.64665e-05 0.000223825)
(0.0870825 0.00237988 0.0024419)
(0.130973 0.000255573 0.000206645)
(0.193826 -0.000159757 -8.19178e-05)
(0.140194 -0.00168512 3.35024e-05)
(0.0157136 0.00146858 -0.00182991)
(0.0199692 -0.00125343 -0.00193817)
(0.183984 0.000712636 0.000196007)
(0.17363 -0.000927942 -0.00101581)
(0.194566 -0.000153237 0.00122389)
(0.154557 -0.000614312 0.00120933)
(0.0876742 -0.00139734 0.00060518)
(0.149406 -0.00102791 -0.000600064)
(0.182582 0.000295236 0.0010351)
(0.0183284 0.00162696 0.000401645)
(0.187032 0.000780046 0.000497396)
(0.135033 -0.0151615 -0.000461623)
(0.033891 -0.000567939 0.00183608)
(0.0509826 -0.00324323 0.000813255)
(0.143291 9.52321e-05 -0.000977578)
(0.139533 -0.00138266 0.00100771)
(0.136215 0.000362308 -0.000316276)
(0.120503 -0.000558588 0.000653468)
(0.0998287 -0.00340774 0.00113004)
(0.19359 -0.000111375 0.000762073)
(0.0933957 0.000884556 -0.00299256)
(0.181685 0.000267744 -0.000220183)
(0.177153 0.000703047 0.000109811)
(0.194131 0.000148121 0.000216222)
(0.182467 1.79255e-05 0.000125214)
(0.0363895 -0.000267046 0.0018094)
(0.167415 0.000184503 2.12744e-06)
(0.0294044 0.000941981 -0.00119557)
(0.0944327 -0.00919436 0.00542718)
(0.0553597 0.00187825 0.00149153)
(0.127239 -0.00252826 -0.0130797)
(0.127899 -0.000580238 -0.000816691)
(0.117478 -0.0190732 -0.00425072)
(0.1767 0.000421166 -0.000607922)
(0.180869 -0.000714475 -0.000151359)
(0.155245 0.00189827 -1.50757e-05)
(0.177274 -0.000296281 0.00013503)
(0.0301866 0.000276625 -0.000577783)
(0.100941 -0.00378547 -0.00254003)
(0.112495 -0.00209544 -0.0160118)
(0.184744 0.000153583 0.000189013)
(0.107615 -0.00215819 -0.000666288)
(0.136956 -0.0135786 -0.00479605)
(0.157278 -0.00402581 0.00453603)
(0.106665 0.000833441 0.000965825)
(0.0318286 -0.00062599 0.00117635)
(0.0494701 -0.00242961 0.0013314)
(0.0219141 0.000105944 -0.000199832)
(0.0206448 0.000171529 -0.00157267)
(0.0311166 -5.79178e-05 0.000133448)
(0.133633 -0.00975455 0.00555791)
(0.137624 -0.000744758 0.000810483)
(0.02096 -0.000757655 0.00290421)
(0.0199358 0.00142057 0.00218994)
(0.196205 -3.10586e-05 -0.000215205)
(0.096146 -0.0126284 0.00858218)
(0.0335055 0.00144102 0.000495498)
(0.147341 0.000169797 -0.000712835)
(0.100938 -0.00118721 -0.00134182)
(0.1319 0.000297581 0.0012625)
(0.0376133 0.00195443 -0.00105467)
(0.050155 0.00155072 -0.000596532)
(0.106961 -0.00124506 1.01466e-05)
(0.175225 -9.35517e-05 -0.00093549)
(0.152934 -0.000261139 -0.000661544)
(0.0316861 0.00264092 -0.000890571)
(0.0213986 -0.0016638 0.000991368)
(0.106235 -0.0151798 -0.011267)
(0.0228581 -0.00297691 0.000182389)
(0.132503 -0.000606598 -0.00105913)
(0.023871 0.00133759 -0.00294434)
(0.0995937 -0.000531728 0.00208946)
(0.183885 -0.001371 0.000323297)
(0.181944 -0.000412566 0.00115547)
(0.0390464 0.000588829 -0.000701277)
(0.0935239 -0.000155642 -0.00102851)
(0.031713 0.00116159 -0.00135526)
(0.0248992 0.00294608 -0.00105203)
(0.185219 -0.000704731 -0.000384991)
(0.0167736 -0.00142597 -0.00214083)
(0.170228 -0.00049966 -0.000462839)
(0.042958 0.0010465 -0.00203659)
(0.156411 -0.00135782 -0.000225385)
(0.140164 -0.000833995 -0.000136408)
(0.0193048 -0.000503425 0.00306393)
(0.0518677 -0.00261265 0.000305783)
(0.148619 0.000629638 0.00063724)
(0.030503 -0.00150639 3.80728e-05)
(0.163353 0.000665353 -0.000565867)
(0.0489089 -0.00195723 0.00303716)
(0.103387 0.000133263 3.32547e-05)
(0.189608 -7.86972e-05 0.000199643)
(0.0324264 0.000971211 0.000636067)
(0.0209883 0.000894361 -0.00269184)
(0.0452133 0.000926195 -0.000385319)
(0.110797 0.0173772 0.0037333)
(0.0992514 0.000383231 0.000496626)
(0.0506923 -0.00242385 0.00244384)
(0.0792447 0.000373933 0.00101615)
(0.0269259 -0.00100753 0.000615369)
(0.191388 -0.000295676 -9.70376e-05)
(0.0209179 -0.000341332 -0.00163975)
(0.172316 -0.000422607 -0.000865645)
(0.143503 0.000365837 2.12176e-05)
(0.171466 0.00034089 -0.000559718)
(0.0171587 0.00168447 4.15426e-05)
(0.151446 0.000438669 0.000417178)
(0.078931 0.00106769 0.000379921)
(0.159329 -0.00010069 6.51956e-05)
(0.0493408 -0.000598004 -0.000215898)
(0.108168 -0.0130005 0.00668445)
(0.160479 -0.00117019 -0.000631163)
(0.0353255 0.000388949 -0.000437834)
(0.196542 -0.000242935 0.000520847)
(0.108871 0.00201386 -0.0204967)
(0.114858 0.000349917 -0.000749533)
(0.0292663 0.00075835 -0.00160398)
(0.0452287 -0.00044304 -0.00250679)
(0.188628 -0.000283191 -7.51663e-05)
(0.129823 0.00127776 0.000770165)
(0.0284172 0.0014423 0.000598989)
(0.106145 0.00148026 -0.00163937)
(0.0556722 -0.000420476 -0.00171462)
(0.0216505 -0.0018641 0.00129001)
(0.184483 2.40704e-05 -0.000399705)
(0.103344 -0.00127899 0.0100257)
(0.12794 0.00139371 -0.00186527)
(0.177356 -0.000604683 -2.16474e-05)
(0.182417 -0.000556684 0.000889955)
(0.173224 7.15106e-05 2.13686e-05)
(0.130099 0.000841392 -0.000331647)
(0.0389341 0.000988299 0.000334057)
(0.0357651 -0.00171003 -0.00172317)
(0.18758 -0.000464257 0.000766852)
(0.107584 -0.00937665 0.00871688)
(0.117464 -0.000936826 0.000417588)
(0.124977 -0.0016229 0.0010559)
(0.0761984 0.00190775 0.000830868)
(0.147964 -0.000302197 0.00164627)
(0.165527 -0.000715592 -0.000880231)
(0.0943472 -0.000239651 -0.00132115)
(0.0993762 0.00179118 0.000613595)
(0.0353409 0.000549857 -0.00229459)
(0.0664396 0.000451724 -0.000292332)
(0.0383745 -0.000977184 -0.00286054)
(0.151982 -0.000987571 0.00089074)
(0.179516 -0.000616366 -0.00034602)
(0.0891681 0.0019768 -0.00204359)
(0.094226 0.00079237 -0.000641697)
(0.0186697 0.00190683 -0.000383266)
(0.0738147 -0.000298316 -0.00068824)
(0.0528464 -0.00177348 -0.0022553)
(0.180473 0.000281498 -0.00103314)
(0.183697 -0.000597006 -0.000453777)
(0.104824 -0.00955907 0.00605026)
(0.1655 -0.000148639 0.00112512)
(0.076817 -0.0022297 -0.00191171)
(0.101709 -0.00254844 0.00793834)
(0.130568 -0.00144818 0.00154249)
(0.0228706 -0.00173891 -0.000186451)
(0.183705 -0.00034956 0.000266807)
(0.0453034 0.00127546 -8.24844e-05)
(0.138423 -0.00017769 0.00134166)
(0.0250372 0.00356737 -0.000288787)
(0.178879 0.00013337 -0.00074663)
(0.101647 -0.00432456 0.00266098)
(0.159322 -0.000767676 -0.000142668)
(0.111086 0.000382426 0.000582058)
(0.146237 -0.000242829 0.00117106)
(0.149624 0.00137593 0.000475432)
(0.191717 0.000331987 0.000288308)
(0.0308651 -0.00193229 -1.07274e-05)
(0.0427264 0.000580751 -0.000906746)
(0.0257143 -0.000666512 -0.000206169)
(0.182559 -0.000525137 0.000888615)
(0.158882 0.000228705 -0.000296182)
(0.134688 0.00155588 7.72441e-05)
(0.160895 0.000473404 -0.00146903)
(0.018822 0.000351596 0.000491152)
(0.0934354 -0.00028445 -0.000217494)
(0.0842539 0.00100797 -0.00188957)
(0.181471 -0.000388606 -0.00059628)
(0.123988 -0.000915011 -0.000175769)
(0.145323 -7.36021e-05 -0.000524132)
(0.101837 -0.000379975 0.00126809)
(0.187366 -0.000238423 -0.000242662)
(0.0185303 -0.00213302 -0.00224359)
(0.0804851 -0.0033004 0.000432712)
(0.153175 -0.000578124 0.000695403)
(0.0231301 -0.00213188 0.00180731)
(0.0406542 -0.000795886 -0.00192176)
(0.0568625 -0.000899684 0.000627416)
(0.0191947 0.00117921 -0.00202742)
(0.0900217 0.000456559 -0.00127063)
(0.172088 0.000192513 -0.000461436)
(0.0561762 -0.0015868 -0.00163884)
(0.0169796 -0.00220192 -0.00164127)
(0.0994218 0.000327917 -0.000810314)
(0.0231952 0.000131706 0.000351585)
(0.093594 0.00119471 -0.000606343)
(0.178874 0.000111326 0.000291554)
(0.195444 0.000145469 0.000131858)
(0.177991 -0.000184379 0.000151677)
(0.166006 0.000871231 -4.1761e-05)
(0.180515 -0.000133244 0.000328693)
(0.127602 0.000242235 0.00237749)
(0.0423371 0.00079465 -0.00110032)
(0.181148 0.000673115 -5.63537e-05)
(0.120454 -0.000356375 0.00100573)
(0.083378 0.000560802 -0.00165303)
(0.0918191 -0.000952384 0.00130079)
(0.166395 -0.000211776 0.000538813)
(0.111387 -0.00125812 -0.00072477)
(0.0604532 1.51552e-05 0.00158511)
(0.155438 0.00079552 0.00139094)
(0.0300205 0.00113443 0.000519145)
(0.0822932 -5.80074e-08 0.000589825)
(0.0914818 -0.000274781 0.000156873)
(0.0562938 0.000358045 0.000923755)
(0.162152 0.000162915 -0.000293718)
(0.106009 -0.0125959 0.013432)
(0.127228 0.00813657 0.00527852)
(0.0291809 0.000576027 -0.00254985)
(0.0237741 -0.00149429 0.000757758)
(0.0517851 0.00196668 -0.00106684)
(0.0183285 -0.00117149 -0.00148105)
(0.124082 0.000445508 -0.000675739)
(0.155179 0.000688828 -0.00120992)
(0.125804 0.00171142 0.000461473)
(0.110211 0.0101163 -0.0115977)
(0.132299 -0.000190451 0.000188535)
(0.147097 0.000363021 -0.000929052)
(0.0227043 -0.00192688 0.00434376)
(0.15903 0.000829953 -0.000379641)
(0.127564 -0.00405524 0.0124974)
(0.0400596 0.000762965 -0.00104368)
(0.0197008 -0.00335015 0.000623818)
(0.111249 0.000435344 0.000377906)
(0.104096 -0.00150154 -0.000625504)
(0.0232221 -0.00160788 0.0025949)