/*--------------------------------*- C++ -*----------------------------------*\
| =========                 |                                                 |
| \\      /  F ield         | OpenFOAM: The Open Source CFD Toolbox           |
|  \\    /   O peration     | Version:  2406                                  |
|   \\  /    A nd           | Website:  www.openfoam.com                      |
|    \\/     M anipulation  |                                                 |
\*---------------------------------------------------------------------------*/
FoamFile
{
    version     2.0;
    format      ascii;
    arch        "LSB;label=32;scalar=64";
    class       volScalarField;
    location    "52";
    object      epsilon;
}
// * * * * * * * * * * * * * * * * * * * * * * * * * * * * * * * * * * * * * //

dimensions      [0 2 -3 0 0 0 0];

internalField   nonuniform List<scalar> 
59516
(
0.0107398
0.00957032
0.00736845
0.00647051
0.00923987
0.345178
0.00674734
0.00928537
0.00815008
0.0210572
0.00712706
0.0237874
0.00779406
0.0713179
0.0182456
0.0215838
0.00448679
0.0381812
0.0131256
0.00380303
0.0317823
0.00456866
0.00479364
0.0300264
0.00366559
0.0163925
0.0295475
0.0422727
0.0221168
0.0518779
0.0457981
0.0377522
0.00550388
0.00826231
0.00855257
0.00468521
0.0500253
0.0438925
0.0156307
0.00374793
0.00962872
0.00951086
0.00702466
0.0104149
0.00654339
0.0221497
0.00879535
0.00593091
0.0126341
0.00772463
0.0271132
0.024347
0.00712588
0.00673709
0.0253973
0.00889882
0.00947605
0.025371
0.00337846
0.0107642
0.00451869
0.0388976
0.00374014
0.0046746
0.00669754
0.00661602
0.0492001
0.0245959
0.0200347
0.00744293
0.0239129
0.00420739
0.0394373
0.00566097
0.0032418
0.00555692
0.00553756
0.00458739
0.0222693
0.00753974
0.0282661
0.00759063
0.00826098
0.0437152
0.00786882
0.00359157
0.0307062
0.00459828
0.0202649
0.0254683
0.00991395
0.00552161
0.00330202
0.00571025
0.00413194
0.0106441
0.00536336
0.0225026
0.0293415
0.00469548
0.0250339
0.0380991
0.0377469
0.0196539
0.00569392
0.00487949
0.0273895
0.00897554
0.00982097
0.0160169
0.0198796
0.0206096
0.0174553
0.0301021
0.00388465
0.0111108
0.0194423
0.0059726
0.036223
0.0046559
0.00322969
0.00392257
0.00378783
0.00388082
0.0154592
0.018378
0.0365468
0.0125846
0.0817541
0.00319502
0.00311148
0.00829825
0.0370486
0.0043637
0.00990208
0.00732503
0.0364897
0.00563264
0.0259324
0.0109864
0.0230106
0.0029659
0.0498969
0.00660067
0.00366869
0.00496901
0.00731652
0.00873134
0.252777
0.00863167
0.0105739
0.0280699
0.00337386
0.00409656
0.0121004
0.0558442
0.00755729
0.00753019
0.0141674
0.0478828
0.0163284
0.0154494
0.0307157
0.0566927
0.0104175
0.00337333
0.0173313
0.00336684
0.0441025
0.00589981
0.0136173
0.0240816
0.014894
0.00537631
0.0224835
0.0089621
0.00364204
0.00725696
0.0153651
0.0295059
0.00454642
0.0363279
0.0495207
0.0189538
0.00319239
0.0207208
0.0312248
0.0448375
0.00696972
0.01044
0.00596811
0.0226503
0.00373633
0.0198179
0.00402096
0.0356361
0.0217583
0.0275258
0.00867681
0.00405078
0.0147287
0.00312643
0.00945043
0.0475415
0.00613505
0.00482122
0.00325477
0.00461461
0.0485098
0.00797518
0.024678
0.0577811
0.00493084
0.0207873
0.00777754
0.00340007
0.00511196
0.0037243
0.0213941
0.00399783
0.021659
0.00907636
0.00384965
0.0250681
0.00361606
0.00354137
0.0249051
0.0223481
0.00348142
0.0202492
0.00326107
0.00353953
0.00327961
0.0305904
0.0316334
0.028586
0.0195645
0.00954998
0.00414485
0.0236237
0.00312359
0.0444406
0.0217801
0.0384424
0.00324913
0.0121995
0.00480435
0.0152767
0.00320251
0.0092695
0.00336504
0.00515829
0.00317889
0.00489076
0.00477658
0.00392071
0.0231591
0.00430468
0.0222626
0.0182851
0.00600825
0.00372247
0.00808712
0.00316571
0.0104469
0.0213271
0.00403091
0.0119734
0.0198735
0.023343
0.0123401
0.00348437
0.00983387
0.0115381
0.00354564
0.0118164
0.0360099
0.00363478
0.0281071
0.0244063
0.00331027
0.00529536
0.0343568
0.00730476
0.00663102
0.0042823
0.00322317
0.0348201
0.0033771
0.00350422
0.00351171
0.00585601
0.00566955
0.011016
0.00335578
0.0213364
0.0040215
0.00483117
0.00327168
0.00367959
0.00734461
0.0193533
0.0372083
0.0210492
0.00351987
0.0462853
0.0147915
0.0235303
0.00359969
0.00321902
0.00382044
0.0194868
0.00952792
0.0262469
0.0275999
0.00424018
0.0107182
0.0117194
0.0125267
0.0269198
0.0168625
0.00943537
0.00339988
0.00320327
0.0033849
0.00378443
0.0191946
0.00628947
0.00377227
0.00398279
0.00361466
0.0196145
0.0386912
0.00448949
0.0225835
0.0307974
0.00385914
0.00475239
0.0280922
0.00352697
0.00338203
0.0031673
0.00347611
0.02909
0.00382317
0.00355342
0.0216988
0.00331075
0.003596
0.00606994
0.00660152
0.00435238
0.00459591
0.0179856
0.0351724
0.0259488
0.0105426
0.0524426
0.0968517
0.0153605
0.00813983
0.0059293
0.00660014
0.0039255
0.00569805
0.00448495
0.00466786
0.029917
0.0360424
0.0215093
0.025696
0.0266807
0.00405288
0.0108791
0.00396677
0.0417453
0.0063424
0.0263097
0.00380724
0.0260659
0.0179211
0.00880797
0.0072666
0.0438471
0.0199654
0.005692
0.0333089
0.0122618
0.0081272
0.00542573
0.0114367
0.0115775
0.00382263
0.067169
0.00326664
0.0282257
0.0168946
0.017302
0.00330657
0.00318597
0.0233196
0.00580342
0.0109966
0.00323231
0.00324835
0.0201762
0.00620422
0.00459809
0.00446077
0.0039623
0.0370737
0.0389145
0.00602878
0.00326876
0.00319871
0.0279615
0.00368465
0.00855398
0.00352397
0.00334438
0.00324457
0.003408
0.00340992
0.0118768
0.00336685
0.0174951
0.00376668
0.00921135
0.00436418
0.00351791
0.00462465
0.00506815
0.0252998
0.0310306
0.0399111
0.00781594
0.00287377
0.00547879
0.00620565
0.0314273
0.0409446
0.00798022
0.00454444
0.00339946
0.00405583
0.0051943
0.00317337
0.00529232
0.0281789
0.00681506
0.0202219
0.114996
0.00443406
0.0107491
0.00494217
0.0434339
0.00326645
0.00335927
0.00345513
0.0123246
0.00448523
0.00350798
0.00692282
0.00345092
0.0153383
0.00351869
0.0044517
0.0387298
0.00321762
0.00757423
0.0214298
0.0114364
0.00347537
0.00619463
0.0143537
0.0410764
0.00317796
0.00616261
0.00385314
0.00642094
0.0274438
0.00514057
0.0546377
0.00395236
0.016992
0.00371383
0.0197149
0.00901098
0.0106687
0.0280558
0.00327732
0.00374515
0.0450926
0.00382298
0.00348094
0.0265742
0.0175685
0.0194279
0.00433367
0.00353143
0.0846758
0.0219028
0.0210254
0.00825636
0.00345894
0.0352238
0.00387292
0.00495751
0.00331016
0.114204
0.00341504
0.0320686
0.00379451
0.0397323
0.0213721
0.00426822
0.0189939
0.041918
0.0289487
0.0196285
0.0211083
0.00454042
0.0239103
0.0176308
0.0123581
0.00372197
0.0261356
0.0086842
0.0678117
0.00343634
0.0228968
0.00406925
0.0216288
0.0067124
0.0034604
0.0206377
0.00324584
0.0534469
0.0507544
0.00434721
0.00336266
0.00607835
0.00660618
0.00326667
0.0190433
0.00353795
0.0189371
0.003524
0.0063126
0.0272832
0.00406525
0.0200032
0.0271033
0.00453326
0.0266128
0.00558705
0.00343944
0.00602994
0.019866
0.00323493
0.0131378
0.0029292
0.00290015
0.00330964
0.00338893
0.0241513
0.02244
0.00329964
0.00371502
0.0333356
0.00394378
0.00301721
0.00315481
0.00312459
0.00766966
0.0434171
0.00310333
0.00984037
0.00446462
0.0102307
0.0246086
0.00348678
0.0125467
0.00532682
0.0031793
0.0050682
0.0506232
0.0381974
0.00353552
0.00376477
0.00337126
0.00483977
0.012879
0.00482642
0.00343704
0.0337389
0.00352753
0.0137714
0.0270645
0.0177932
0.00471901
0.00498323
0.0054967
0.00673699
0.00997294
0.00338446
0.0115816
0.00330859
0.00352244
0.00277394
0.00347746
0.0252868
0.00372657
0.0332089
0.0949057
0.0185031
0.0108598
0.00563133
0.029957
0.00373954
0.00308726
0.00424838
0.00347676
0.0298179
0.0104273
0.01428
0.00353497
0.00809828
0.0125557
0.00693316
0.00807447
0.0263682
0.0227892
0.0246986
0.0429826
0.0276944
0.0113838
0.00545191
0.0480064
0.0417639
0.00337726
0.0656844
0.0292841
0.00483822
0.00871566
0.00583184
0.0288603
0.0218137
0.00827785
0.00361356
0.00445274
0.0306002
0.0319747
0.05961
0.0334047
0.00551244
0.0308497
0.00987735
0.00348955
0.00288285
0.024675
0.0102747
0.0305238
0.0345306
0.00346942
0.047827
0.00380668
0.0203288
0.00418759
0.00511278
0.0416246
0.0212386
0.00456235
0.027974
0.00408081
0.0227819
0.0092526
0.00328317
0.0283202
0.0388869
0.0213821
0.0190564
0.00981028
0.0226982
0.0148634
0.0369342
0.00330446
0.0274657
0.00331083
0.00464939
0.00363821
0.0500289
0.0043387
0.0131343
0.00408547
0.0235931
0.0140977
0.00369998
0.0274565
0.00324904
0.0294996
0.00692677
0.0329746
0.0195537
0.00341429
0.00591436
0.0302499
0.00791909
0.0192543
0.0336239
0.00343263
0.0121243
0.00587737
0.0035926
0.00352184
0.00359312
0.0057001
0.0215515
0.024954
0.00327602
0.0125846
0.00779757
0.00608403
0.0157035
0.00448306
0.00393744
0.00997624
0.00982969
0.0319808
0.0129113
0.0294261
0.00437874
0.00338474
0.011992
0.010263
0.0436944
0.0153253
0.0218327
0.00340404
0.00332596
0.0127705
0.00403532
0.0149325
0.0160056
0.00566198
0.0394264
0.00334342
0.0251104
0.00525017
0.0349171
0.00315556
0.0106353
0.00410534
0.00804629
0.00491577
0.00450374
0.00323868
0.0266127
0.0191634
0.0378892
0.00365786
0.00422024
0.00581089
0.00366324
0.0606959
0.0102525
0.0122151
0.00356854
0.006422
0.00508545
0.0100734
0.00350504
0.0412507
0.0135985
0.0046494
0.0255417
0.0238702
0.0177931
0.040819
0.0121809
0.00363686
0.0184415
0.0462487
0.00923017
0.0240851
0.00986152
0.0035519
0.00335207
0.00362478
0.00348122
0.00357485
0.00627948
0.0313546
0.00342561
0.00618689
0.0133251
0.0103799
0.00383587
0.00780065
0.0164454
0.00385531
0.0287369
0.0125958
0.0114438
0.01846
0.00403497
0.0424044
0.0153589
0.0307887
0.036055
0.0195496
0.0414372
0.00657082
0.00450693
0.00641667
0.0302094
0.00595946
0.00490841
0.0392361
0.00429329
0.0103403
0.0252574
0.0401583
0.0079097
0.00844788
0.0319198
0.00384378
0.038495
0.00327998
0.00432461
0.00699972
0.00404033
0.00545441
0.00989971
0.00334853
0.0572943
0.030779
0.010329
0.010055
0.0479543
0.00501414
0.0127955
0.00331559
0.00389564
0.0156656
0.00445731
0.00329149
0.0123938
0.021249
0.00370499
0.0105426
0.025791
0.00401283
0.00379394
0.00386104
0.0110656
0.00597046
0.00914717
0.013661
0.0099017
0.0104254
0.00568252
0.0198983
0.00435913
0.00350396
0.00931121
0.00475638
0.00874993
0.00696997
0.0284711
0.0193501
0.00670659
0.00515047
0.00563584
0.00336482
0.0043253
0.003238
0.00306647
0.228186
0.00781075
0.00336465
0.0365855
0.00483608
0.00469065
0.0372647
0.00418845
0.00358496
0.00984785
0.00347483
0.00346267
0.00342079
0.0183635
0.0106192
0.024957
0.00851216
0.0036677
0.0324757
0.0334491
0.0210587
0.00726549
0.0247975
0.00459062
0.00364244
0.00357932
0.00386888
0.0131006
0.0184032
0.004316
0.00373594
0.00809642
0.0133252
0.00413539
0.00358878
0.00320753
0.0299447
0.00289774
0.0114935
0.0147634
0.0289605
0.020715
0.012469
0.00351558
0.0225853
0.00370228
0.00335208
0.00384169
0.00323718
0.00345257
0.00307012
0.00353794
0.00331905
0.00963639
0.00549007
0.00705041
0.0290089
0.0240824
0.00411829
0.00606114
0.0292272
0.00376492
0.00956904
0.00358311
0.00349193
0.00349945
0.0047144
0.0124605
0.00349846
0.12265
0.0109164
0.0035069
0.0700931
0.00373749
0.0279589
0.0137626
0.00421468
0.0154398
0.0261799
0.00412972
0.00441688
0.00415786
0.0283962
0.00382777
0.0288018
0.0119434
0.0175187
0.0195512
0.0102767
0.0033738
0.0182323
0.00428654
0.00378995
0.00853528
0.0034048
0.00337918
0.00822223
0.00310797
0.00366941
0.0161892
0.00337418
0.0204846
0.0299445
0.00378505
0.00803012
0.0212503
0.00348404
0.00903193
0.014499
0.00776229
0.0448512
0.00351505
0.00377411
0.00818762
0.0332738
0.0214861
0.0105772
0.0210375
0.00557997
0.0060912
0.00988538
0.0449691
0.00834418
0.00344132
0.00870402
0.00358311
0.0036642
0.027775
0.00427991
0.00337471
0.00815399
0.00511751
0.0297811
0.00785877
0.00442693
0.00290073
0.0177877
0.00414388
0.012308
0.00845695
0.0380572
0.00768365
0.0132003
0.0261311
0.00710692
0.0260773
0.00390808
0.00910489
0.00330952
0.0661167
0.00297341
0.0110764
0.0221039
0.0106261
0.00536337
0.0372456
0.00397093
0.004409
0.0232646
0.0534902
0.0229218
0.00313422
0.00445236
0.00348086
0.00994449
0.0242743
0.00462693
0.0356521
0.00912531
0.0035339
0.00830987
0.0224778
0.00480443
0.0389646
0.0133287
0.00412325
0.00339484
0.0374441
0.00432033
0.00676684
0.0209884
0.00350427
0.0041324
0.00269452
0.00776305
0.01109
0.0207964
0.00366486
0.00439411
0.0380897
0.0273419
0.0202106
0.00338149
0.0113226
0.00385392
0.0236691
0.00333112
0.029052
0.00549864
0.0155249
0.00360873
0.0033911
0.00497015
0.00537437
0.0363897
0.0310658
0.00476971
0.00567027
0.0355426
0.0295369
0.00378979
0.0041029
0.00392225
0.00976358
0.00553787
0.00316783
0.00366129
0.0191829
0.0133677
0.0179478
0.00470955
0.0133306
0.0307443
0.0290388
0.00310379
0.00849381
0.0111092
0.00395711
0.00386503
0.0359579
0.00357477
0.00349107
0.0257663
0.0367997
0.00360625
0.00301855
0.0371625
0.0520807
0.00317852
0.0101997
0.0391589
0.0170148
0.00312257
0.00320728
0.00352492
0.00574063
0.00349645
0.0349432
0.0301638
0.00343242
0.00344689
0.0103269
0.00436198
0.023388
0.0213233
0.0228965
0.00703981
0.0492816
0.00416647
0.00502656
0.0112702
0.0199508
0.0420431
0.00339088
0.00297817
0.00728375
0.00331823
0.00932782
0.00388694
0.0240673
0.0203023
0.210908
0.00907609
0.00502597
0.00994313
0.0222126
0.0123798
0.00764929
0.00474848
0.0113637
0.00409084
0.00325559
0.00941107
0.0219008
0.0339506
0.00392959
0.0357165
0.00742551
0.0069031
0.0128008
0.0374275
0.00479393
0.0184439
0.0485412
0.0405829
0.00589773
0.00327676
0.00623204
0.00612061
0.0136298
0.00888748
0.0519924
0.0282593
0.0253756
0.00323857
0.00994525
0.00488209
0.00915226
0.0093331
0.00599853
0.0399088
0.00737817
0.0389323
0.00364596
0.0087546
0.0338641
0.00316567
0.0114577
0.00608902
0.0125582
0.0221336
0.0398253
0.00412827
0.0238465
0.00368586
0.00353627
0.00693637
0.0174469
0.0356252
0.00882317
0.0259813
0.00398763
0.00397415
0.00356928
0.0230131
0.00396237
0.00403091
0.00417836
0.00388441
0.0407845
0.0240044
0.00361441
0.00885588
0.0180713
0.00336713
0.00672459
0.00638984
0.0104434
0.0283529
0.13199
0.0248816
0.00409901
0.0035056
0.00695743
0.0371947
0.0291253
0.00447639
0.00756119
0.0171197
0.00320568
0.00388665
0.00370217
0.00343094
0.00317639
0.00375685
0.00512054
0.00834849
0.00785774
0.00829517
0.0155844
0.0183428
0.00318881
0.00614544
0.0298056
0.0218057
0.00311359
0.0313596
0.0045756
0.0107863
0.00340252
0.00470613
0.00815289
0.00311528
0.0034368
0.00351756
0.0212743
0.0242398
0.0042154
0.00313694
0.0389926
0.0132194
0.0069407
0.00343226
0.00524054
0.049889
0.00971524
0.00560169
0.0141969
0.00317809
0.00753894
0.0424632
0.00670442
0.0354929
0.0118105
0.0472911
0.00399991
0.00430839
0.00320267
0.0408036
0.0216003
0.0134109
0.00406749
0.0242036
0.0233548
0.0116618
0.00344961
0.029479
0.0029318
0.00426011
0.0176509
0.0185756
0.0238202
0.00357057
0.0031454
0.00471621
0.00706741
0.0105133
0.0102065
0.0106641
0.0326306
0.0334707
0.0271592
0.0119382
0.00334151
0.0307863
0.0502061
0.0231274
0.0368518
0.00430915
0.0349219
0.0035047
0.00349532
0.00484996
0.0176822
0.00385228
0.0296353
0.0188539
0.00337224
0.00361293
0.00727787
0.00988353
0.00361148
0.039724
0.00607239
0.00407668
0.00355419
0.0116498
0.00412738
0.00307217
0.00960632
0.0274235
0.0360466
0.00966772
0.00335555
0.0323274
0.0136137
0.00327499
0.0274923
0.029552
0.0103194
0.0446932
0.0162609
0.0415499
0.023909
0.0292519
0.0432558
0.0283296
0.0456915
0.00925883
0.0142003
0.00339525
0.0433977
0.00315897
0.00631004
0.00440454
0.00786952
0.00436011
0.0309381
0.0038091
0.0107095
0.0117903
0.00336875
0.00610838
0.0513999
0.00775161
0.0131641
0.0317649
0.0330186
0.00518045
0.0117658
0.0355115
0.00472177
0.00526902
0.00329484
0.00362574
0.0236059
0.00760287
0.0130564
0.0111185
0.00519958
0.00507298
0.00362094
0.0116785
0.0040369
0.00580502
0.0105972
0.00952836
0.00917932
0.00740794
0.0124967
0.00353682
0.00589186
0.0433708
0.00525334
0.0477627
0.119786
0.0219949
0.00514399
0.00542026
0.00797258
0.0042252
0.00778667
0.0150896
0.00829522
0.0460401
0.038086
0.0549513
0.021238
0.0222042
0.00345728
0.0235169
0.00769896
0.0349024
0.0321233
0.00327107
0.0215548
0.00415075
0.00639733
0.00380133
0.0287979
0.0243852
0.00672595
0.00471663
0.0440705
0.0054136
0.0197458
0.00929809
0.00325322
0.00435774
0.00339772
0.0103328
0.0107719
0.0130541
0.0172941
0.0288749
0.024288
0.0330823
0.00882628
0.00334175
0.015325
0.0198504
0.0103878
0.00423085
0.00425008
0.0212981
0.00554177
0.035159
0.0175208
0.00445703
0.0235814
0.013927
0.0112563
0.00727878
0.00965153
0.00477606
0.0116893
0.0101814
0.00367029
0.00867632
0.00369814
0.0390247
0.0402621
0.00648636
0.00983811
0.00461469
0.00891389
0.0107872
0.0438697
0.0058356
0.00620797
0.00494679
0.012145
0.0259075
0.0203668
0.0249835
0.00692669
0.0183413
0.00951198
0.0393729
0.00759209
0.0256022
0.0143083
0.00359337
0.0211015
0.00428068
0.00417077
0.0276816
0.0348568
0.00801535
0.067562
0.00442905
0.00372801
0.0132181
0.00479467
0.018067
0.00758312
0.0317991
0.00910788
0.00696407
0.00322639
0.0489046
0.00383986
0.00655105
0.0140884
0.00573419
0.0294913
0.00390613
0.0308976
0.00461489
0.00695915
0.00509102
0.00576206
0.0257958
0.038702
0.0059183
0.00324991
0.0264635
0.00918932
0.0316027
0.00643446
0.0199406
0.0426504
0.0110899
0.0048155
0.0127761
0.00338171
0.00796421
0.00501089
0.0323918
0.00344503
0.0298142
0.0150113
0.00356712
0.00354384
0.00668508
0.0405393
0.023767
0.00368312
0.00361497
0.00498523
0.00456652
0.00444635
0.0565318
0.00531965
0.00520604
0.00611636
0.0222992
0.00622619
0.00352169
0.0061621
0.00346741
0.00380771
0.0206646
0.00424485
0.0243339
0.00439634
0.0112186
0.00600401
0.00435623
0.00329463
0.0035307
0.0288739
0.00307039
0.0214369
0.0345966
0.00644682
0.0227584
0.00424102
0.0418366
0.0219241
0.0229844
0.0140303
0.00666541
0.0318677
0.0316928
0.00529585
0.0114764
0.00321438
0.00995359
0.0392027
0.012841
0.0268738
0.00859243
0.00459457
0.0216227
0.00467869
0.00314784
0.00381122
0.00381668
0.00316573
0.00382953
0.00323676
0.00455559
0.0200254
0.045122
0.00500831
0.0470829
0.00721506
0.00716649
0.0137913
0.00328025
0.00639124
0.0274138
0.0033915
0.0256975
0.0108152
0.0189093
0.00579098
0.00324224
0.0142979
0.00937392
0.0253903
0.0067117
0.00725232
0.0125957
0.00510219
0.0491309
0.034639
0.00306714
0.00661306
0.00353289
0.0098469
0.0558236
0.00329433
0.0182785
0.00312451
0.00421804
0.0304951
0.00425177
0.00349956
0.0293185
0.0210421
0.00323876
0.0104064
0.037946
0.00409059
0.0228196
0.0381462
0.011226
0.00331759
0.00339222
0.0050348
0.00373332
0.00473262
0.00351579
0.00817919
0.00942892
0.00325374
0.00472586
0.0439834
0.0281232
0.00700892
0.00375889
0.00764075
0.039513
0.0354448
0.00471059
0.0250217
0.00447582
0.00374696
0.00335816
0.0247903
0.0144356
0.00348885
0.00825981
0.00460067
0.00515567
0.020812
0.0305653
0.00349636
0.0342293
0.0168318
0.0301498
0.0254122
0.00354923
0.00343208
0.00469665
0.00923333
0.0116562
0.0118107
0.00351081
0.00448639
0.0221012
0.00293921
0.00397202
0.00398026
0.0363763
0.00677141
0.0364108
0.0119318
0.024348
0.00401253
0.00494677
0.0117408
0.0310935
0.0135807
0.01807
0.0482362
0.00428017
0.0378366
0.0212731
0.0034956
0.00372141
0.00326033
0.0281772
0.00908927
0.0230463
0.00335138
0.00410726
0.00356208
0.00340437
0.0258985
0.00484295
0.00774969
0.0033701
0.00342642
0.00351045
0.0037843
0.00346673
0.0435785
0.0289754
0.00794278
0.00321963
0.00485452
0.0261579
0.00334662
0.0198393
0.00695852
0.00510892
0.0130467
0.0207922
0.0199927
0.0468446
0.0040855
0.00484673
0.0209197
0.00721815
0.0447069
0.00431484
0.0028868
0.0399682
0.00733873
0.00622494
0.00366868
0.0917475
0.0467801
0.0319837
0.0171454
0.0193388
0.0376089
0.0313848
0.0437013
0.0133612
0.00381512
0.00564085
0.00424807
0.0067332
0.040572
0.00385972
0.0077053
0.0489137
0.0483016
0.03372
0.0122794
0.0251055
0.00409653
0.0149125
0.00344961
0.00809976
0.0253308
0.0129308
0.0042181
0.00334843
0.00453926
0.00379066
0.00358271
0.0234108
0.00906893
0.00427856
0.00420246
0.0540011
0.0134805
0.00920267
0.0065888
0.0078057
0.00338662
0.0203822
0.0342133
0.0413247
0.010629
0.00324341
0.00284603
0.00450342
0.0189976
0.00904315
0.0248632
0.0105366
0.00367992
0.0255613
0.0191526
0.0035571
0.00470246
0.00412842
0.00369767
0.0123932
0.0171029
0.00450105
0.00988505
0.00696421
0.00501097
0.00597441
0.00369642
0.0141003
0.00501291
0.0436985
0.0335731
0.0475471
0.0114314
0.00756508
0.0100779
0.0253855
0.00439057
0.0242276
0.0204902
0.0427711
0.00744439
0.00292419
0.0034189
0.0421705
0.0198001
0.0244084
0.0365372
0.0205865
0.00302448
0.00290495
0.031803
0.0276995
0.0209251
0.00338669
0.00283332
0.00492704
0.0114759
0.00404689
0.00490523
0.0107487
0.0288376
0.00314603
0.00514737
0.0050237
0.00709104
0.00471461
0.00329723
0.015403
0.00709197
0.0168569
0.00962717
0.0035562
0.00325551
0.0512293
0.00354061
0.0368027
0.00388162
0.0043296
0.00358947
0.0038719
0.0220622
0.0391793
0.0216935
0.00357928
0.00332129
0.0064791
0.00343132
0.0353583
0.012009
0.00374603
0.00329734
0.00852567
0.0253156
0.0150965
0.00860046
0.00327608
0.00377455
0.00379714
0.00291253
0.00414055
0.00457655
0.0124796
0.00352276
0.00373252
0.0046973
0.0124557
0.0291533
0.039388
0.0154065
0.00927401
0.00305012
0.00312716
0.0334974
0.00854202
0.00526741
0.00571003
0.0111975
0.00366934
0.00488554
0.0060835
0.00287786
0.0099806
0.00580662
0.0225406
0.00848138
0.00489384
0.0380248
0.00657017
0.00439827
0.00558029
0.00367723
0.00310231
0.0378954
0.00364867
0.0134037
0.00322333
0.0156414
0.00330637
0.00619025
0.0116581
0.00688035
0.0385304
0.00650657
0.0248053
0.0276898
0.00463644
0.0351
0.00350597
0.00395631
0.00316775
0.0240173
0.010289
0.0399668
0.00577895
0.0285738
0.0109779
0.00404408
0.00333813
0.00325401
0.00458607
0.00421379
0.00333767
0.0043587
0.00400813
0.0042498
0.0244336
0.01065
0.00301818
0.00298615
0.0197081
0.00447955
0.00365888
0.00321796
0.0382705
0.00563292
0.038133
0.00305505
0.0323043
0.0281183
0.00792002
0.00583878
0.00531462
0.00775102
0.0299012
0.00379174
0.0304817
0.0304596
0.00428206
0.0231239
0.0134026
0.00611295
0.00391338
0.041008
0.0196539
0.0308687
0.00358399
0.00390423
0.0180478
0.00396287
0.0117818
0.0186903
0.0052471
0.0270484
0.00549647
0.00448569
0.00344215
0.00355786
0.00333658
0.0029436
0.00711224
0.00277811
0.00433137
0.00366177
0.00914001
0.0107469
0.00291518
0.0145907
0.00436796
0.00456201
0.00417238
0.00486681
0.00298503
0.00534763
0.0272158
0.00392347
0.0029816
0.0197661
0.00703857
0.00320943
0.106096
0.00405978
0.00365343
0.011405
0.00640056
0.0226472
0.00808973
0.00308555
0.00436926
0.0111363
0.0223241
0.0194071
0.00638428
0.0259156
0.0313346
0.0332625
0.00517307
0.00311177
0.00290081
0.0056324
0.00456388
0.00511059
0.0188282
0.00891988
0.00308662
0.00287676
0.00299135
0.00297508
0.035258
0.0516466
0.0446115
0.0168985
0.00452451
0.0035533
0.00317375
0.0125612
0.00437482
0.0035457
0.0411179
0.00328853
0.00397426
0.0032231
0.00351881
0.015932
0.0219521
0.00726193
0.023076
0.00376618
0.0048014
0.0106125
0.00436299
0.0113521
0.0183202
0.0100816
0.00327698
0.0128805
0.00652381
0.00338994
0.0192582
0.0264394
0.00372654
0.00335902
0.0208575
0.0274531
0.011847
0.0372604
0.00315638
0.00758345
0.0215707
0.00304252
0.00321478
0.00321907
0.00637501
0.00375742
0.00411294
0.00400153
0.00496048
0.0127918
0.00479179
0.0169515
0.0148663
0.0222053
0.00322551
0.00794474
0.00396077
0.00538681
0.0115226
0.00978216
0.0411843
0.00988
0.0419735
0.0117342
0.0050218
0.00401686
0.00322517
0.00398312
0.0295917
0.023879
0.00383944
0.0145929
0.0177176
0.00637872
0.0251953
0.00310581
0.00477154
0.00367887
0.00773891
0.00371407
0.00722071
0.00423809
0.0278464
0.0035296
0.0301051
0.0312707
0.0181149
0.0055602
0.00731834
0.00329318
0.0308613
0.00722189
0.00434374
0.00994552
0.0138786
0.0124079
0.0271873
0.0196077
0.0264206
0.0178807
0.00278437
0.0224408
0.00422212
0.019424
0.0439648
0.0113675
0.0254326
0.0526384
0.0396454
0.0053155
0.00791416
0.0036833
0.017986
0.00322878
0.0289383
0.00824933
0.0197383
0.0044713
0.00367113
0.0439848
0.00580581
0.0041687
0.00418064
0.00580369
0.00599235
0.00377794
0.0039356
0.00369579
0.00507372
0.0280772
0.0122487
0.0234254
0.00407234
0.0362797
0.0124613
0.00420803
0.015898
0.00896865
0.0434951
0.00820197
0.00963842
0.00314543
0.00663639
0.0035464
0.00533123
0.00340572
0.00551839
0.00284692
0.0216232
0.0224186
0.00407044
0.0039893
0.00541312
0.00431536
0.00377282
0.00474854
0.00456144
0.030285
0.00424977
0.0031694
0.0301919
0.00658656
0.0303055
0.00606519
0.0171884
0.0245012
0.00390044
0.0266533
0.0291303
0.0398967
0.0332393
0.029108
0.00335343
0.0100645
0.00316688
0.00579513
0.0193567
0.00383552
0.00329769
0.00365154
0.0409072
0.00467445
0.00858317
0.0078798
0.00420824
0.0329564
0.0314609
0.00466634
0.02825
0.00328426
0.0235983
0.00685846
0.0170103
0.00303544
0.00306868
0.00382282
0.0257183
0.0396465
0.028439
0.00410181
0.0198421
0.0522743
0.00791694
0.0113139
0.0326179
0.0106475
0.0196068
0.00610661
0.0045003
0.0032291
0.00453533
0.0957769
0.00888996
0.0389531
0.00317356
0.00429073
0.00689225
0.0039985
0.0118466
0.00851155
0.0396715
0.00473478
0.0100789
0.00322294
0.00344231
0.0202865
0.0476563
0.00331813
0.00379031
0.00336841
0.0176585
0.00539374
0.0391948
0.0271624
0.0244326
0.00344299
0.0326607
0.00826974
0.0452236
0.0231419
0.00489938
0.0226478
0.0289478
0.0299017
0.00450613
0.00431118
0.00358437
0.0217987
0.00603389
0.00318881
0.00717453
0.0073699
0.00464015
0.00338127
0.00346181
0.0390091
0.00437176
0.013596
0.0169627
0.0242368
0.00324535
0.00336145
0.010617
0.00474883
0.0475479
0.00808693
0.00635837
0.0434287
0.0036544
0.00375502
0.0046858
0.0201275
0.00321698
0.0219368
0.00303707
0.0198871
0.0407209
0.00336498
0.00351794
0.0179143
0.00462112
0.00358523
0.00328139
0.00319038
0.0203996
0.0317485
0.00348866
0.00464053
0.00471092
0.00397248
0.0224495
0.00545283
0.0206738
0.0176841
0.00378375
0.0036954
0.0101194
0.00451337
0.00734159
0.0274431
0.0656031
0.00328598
0.00405632
0.0225056
0.0334305
0.0128058
0.0046667
0.00497561
0.0407158
0.0118894
0.00397493
0.00334621
0.00385327
0.00443496
0.00815575
0.00311777
0.00421233
0.00355057
0.0122853
0.0302028
0.0399023
0.0072107
0.00912273
0.00449979
0.00402009
0.00339042
0.00360767
0.00321533
0.00376221
0.00397039
0.00342805
0.00991947
0.00393139
0.00405219
0.0110592
0.0039107
0.0109672
0.0306628
0.00695175
0.0054144
0.00576281
0.00653785
0.00576729
0.0116598
0.0221743
0.00457798
0.00425099
0.00483918
0.00737968
0.0352187
0.00706914
0.00970812
0.0386696
0.00518743
0.0310166
0.00707994
0.00421757
0.00479833
0.00550292
0.00850405
0.0272971
0.0360029
0.0661542
0.00351247
0.0228623
0.00391281
0.00379747
0.0246571
0.00323466
0.0107637
0.00320734
0.00732727
0.0069353
0.0151075
0.00291855
0.00321593
0.0470865
0.00388114
0.0276761
0.0483884
0.00553405
0.0180478
0.00339975
0.00358526
0.00337723
0.00958664
0.0133909
0.00474612
0.00360231
0.00476644
0.0210241
0.0355581
0.00723362
0.0042328
0.00812719
0.00340579
0.0131822
0.0106551
0.00371223
0.00346723
0.00356655
0.0116436
0.00887084
0.0125827
0.00587749
0.00474441
0.00829274
0.00960733
0.0280521
0.00443551
0.00483957
0.00394649
0.00373694
0.00464877
0.00317327
0.026768
0.00676535
0.0145617
0.0212405
0.00398715
0.0142855
0.00305013
0.00337289
0.00463694
0.0393098
0.0101579
0.00470053
0.00322657
0.0193823
0.00392716
0.0141291
0.00595089
0.0135496
0.00837845
0.00407537
0.00352575
0.0489579
0.00531088
0.00337775
0.00390559
0.011232
0.00433821
0.00399982
0.132294
0.0029505
0.0244196
0.00459794
0.00338736
0.00365664
0.00764754
0.0110532
0.0150434
0.0193206
0.0281568
0.00335328
0.00334394
0.0884614
0.0264889
0.0046497
0.00509756
0.0213616
0.00939753
0.00488155
0.00527652
0.00476991
0.0425144
0.00396933
0.0204394
0.0245664
0.00354858
0.0209229
0.0126867
0.0362977
0.0238176
0.0130746
0.0213202
0.00686694
0.0203699
0.00800693
0.0299298
0.0381531
0.00679984
0.0313988
0.0190215
0.00479638
0.0335188
0.00460769
0.0202616
0.016576
0.0220326
0.00314532
0.0323831
0.0301913
0.00585987
0.00462341
0.00654772
0.0233894
0.00565586
0.0125577
0.00658441
0.0173266
0.0101822
0.00308742
0.0106462
0.00321225
0.00536049
0.00573161
0.00331645
0.0501215
0.00641687
0.00749577
0.00411026
0.0340513
0.00738138
0.0501404
0.0104444
0.0107573
0.00361268
0.00412187
0.0080996
0.0044139
0.0206752
0.00345626
0.00371723
0.0136498
0.00293151
0.0171355
0.00388863
0.00574886
0.0189574
0.0150083
0.0170775
0.00329917
0.00473166
0.0184962
0.00583841
0.00718521
0.0430416
0.00374208
0.0394208
0.0242988
0.00829352
0.00437079
0.00517986
0.0209182
0.00341987
0.00383834
0.010109
0.0201511
0.0125488
0.0308114
0.00472097
0.0118361
0.00576733
0.011527
0.00343372
0.00509682
0.0277516
0.00571869
0.00343091
0.0114329
0.0502055
0.0170869
0.00484563
0.0211089
0.0122129
0.0194316
0.00516381
0.0120804
0.0227876
0.0222213
0.0031604
0.0382979
0.00430027
0.0332335
0.00331281
0.0101549
0.0040745
0.0289499
0.00494431
0.00312362
0.00406287
0.00334134
0.0104583
0.0438719
0.0434734
0.0312767
0.0500049
0.00438244
0.0285807
0.00313575
0.0043579
0.00649433
0.00383677
0.036612
0.0190314
0.0214621
0.0043238
0.0318797
0.00456404
0.010589
0.00521598
0.0187351
0.0284742
0.0330773
0.00416453
0.0209759
0.00343348
0.00648369
0.00655492
0.0211884
0.021627
0.00716434
0.0100075
0.0242085
0.00351962
0.00419324
0.0135916
0.0106306
0.00488755
0.00369718
0.00413749
0.00328059
0.00355873
0.00965919
0.0130585
0.00366647
0.0507952
0.0326393
0.0062981
0.00415389
0.00312236
0.0338582
0.0235149
0.00297557
0.0104312
0.00293293
0.0267584
0.00303508
0.0030918
0.00419003
0.0191152
0.0130268
0.0356993
0.0394702
0.00729714
0.0422152
0.00627283
0.0148405
0.00635811
0.00574581
0.00371521
0.0363373
0.0562616
0.00338446
0.00610082
0.0291472
0.00366396
0.00421992
0.0298401
0.041258
0.0447173
0.0246613
0.014797
0.0401818
0.0122376
0.00330443
0.0287863
0.0454929
0.00687056
0.00415964
0.00352406
0.00475509
0.0105831
0.0534356
0.00321965
0.0268549
0.00365326
0.0233132
0.00954467
0.00650368
0.00938298
0.00785433
0.0306931
0.00341448
0.0102899
0.0031438
0.0382263
0.00713358
0.0217764
0.00977207
0.0164547
0.0351965
0.00845611
0.00867595
0.00741135
0.014607
0.00441149
0.0227841
0.0292709
0.0229702
0.00587158
0.0080733
0.00600889
0.0294837
0.00813087
0.0381376
0.0535892
0.00508839
0.00314288
0.0215999
0.0278289
0.0115777
0.00352536
0.00720567
0.00407758
0.00666662
0.00537811
0.00406835
0.00481304
0.00310522
0.0210009
0.0410406
0.00649689
0.0033933
0.00332117
0.0114002
0.0488697
0.0108232
0.00357564
0.0201822
0.00987342
0.00726367