/*--------------------------------*- C++ -*----------------------------------*\
| =========                 |                                                 |
| \\      /  F ield         | OpenFOAM: The Open Source CFD Toolbox           |
|  \\    /   O peration     | Version:  2406                                  |
|   \\  /    A nd           | Website:  www.openfoam.com                      |
|    \\/     M anipulation  |                                                 |
\*---------------------------------------------------------------------------*/
FoamFile
{
    version     2.0;
    format      ascii;
    arch        "LSB;label=32;scalar=64";
    class       volScalarField;
    location    "52";
    object      k;
}
// * * * * * * * * * * * * * * * * * * * * * * * * * * * * * * * * * * * * * //

dimensions      [0 2 -2 0 0 0 0];

internalField   nonuniform List<scalar> 
59516
(
0.000395834
0.000765211
6.68583e-05
0.000250648
0.00754172
0.0173739
0.00010451
0.00040687
0.00014994
0.00288626
0.00343008
0.00262814
0.000198447
0.00712309
0.00239658
0.00253213
0.000680517
0.00420516
0.00087413
0.000211438
0.00449692
4.32926e-05
0.00016337
0.00408244
1.49376e-05
0.00206638
0.00396949
0.00556687
0.00287225
0.00583437
0.0070271
0.00519775
3.15663e-05
0.000346147
0.000800164
5.14919e-05
0.00567395
0.00421914
0.00113933
6.62284e-05
0.000358093
0.00263457
0.000707872
0.000608135
0.000269905
0.00257937
0.000437029
0.00150642
0.00759267
0.0014944
0.00901545
0.00356658
6.67578e-05
7.61085e-05
0.00407701
0.000404656
0.00330762
0.00384048
0.000339471
0.00107937
0.000138576
0.00542404
0.000363874
0.000642802
0.000265384
0.000475037
0.00672854
0.00356226
0.00615562
0.000131202
0.00524379
0.000287504
0.00577305
0.000109594
0.000634374
0.000647418
0.00120771
9.90557e-05
0.00338384
0.00137794
0.00389503
0.000884681
0.000600823
0.0057497
0.000957679
0.000552929
0.00395748
4.86319e-05
0.00243458
0.00237763
0.0053306
0.000191083
0.000314332
0.000149404
0.000331796
0.00778512
0.000149527
0.00250219
0.00328981
0.000114953
0.00397064
0.00575039
0.00561911
0.00242579
5.60612e-05
0.000252566
0.00401701
0.000197402
0.000516122
0.00221074
0.00464542
0.00467283
0.00242746
0.00453037
0.000165895
0.000476056
0.00238087
0.000121765
0.00535564
0.000105077
0.000840462
0.000443852
6.6004e-05
0.000398576
0.00397038
0.00137291
0.00606985
0.0024218
0.010524
0.000560927
0.000668926
0.000233073
0.00540833
2.35336e-05
0.000634155
8.34895e-05
0.00443453
9.86635e-06
0.00378915
0.000838422
0.00347822
0.000502165
0.00571388
8.20923e-05
0.000625674
6.59259e-05
0.000333477
0.000272717
0.019832
0.000312043
0.000737504
0.00378286
0.000126055
8.1552e-05
0.00078083
0.00611177
0.000271123
0.000143904
0.00103431
0.00576902
0.00225352
0.00212371
0.00409534
0.00682594
0.000473722
0.000358716
0.00224392
0.000527198
0.00561771
0.000291718
0.000968311
0.00262251
0.00170634
3.07469e-05
0.00314283
0.000558224
0.000348673
0.000943651
0.00209716
0.00366291
3.51235e-05
0.00443628
0.00688111
0.00199542
0.000497144
0.00239306
0.00366708
0.0057879
9.67483e-05
0.000585265
0.000245857
0.00260706
0.000248777
0.00198904
3.36871e-05
0.0040994
0.00238617
0.00353035
0.000515245
5.43271e-05
0.00141079
0.000702004
0.000434129
0.00573644
5.26568e-05
6.49161e-05
0.000647668
0.000329797
0.00602166
0.000347296
0.0029709
0.00739062
7.75504e-05
0.00260327
0.000212868
0.000278672
7.0294e-05
2.96136e-05
0.00263827
8.97004e-05
0.00268949
0.000715457
0.000299412
0.00390387
0.000376761
0.000418518
0.0048898
0.00337859
0.000389819
0.00254012
0.000272217
0.00044139
0.000771055
0.00508749
0.00406467
0.00360152
0.0020943
0.000306493
0.000194001
0.00281905
0.000715676
0.00588869
0.00238684
0.00590693
0.000681067
0.00071987
0.000156154
0.00222105
0.000175329
0.000333067
9.52132e-05
0.00013008
0.000841516
0.000156732
0.000109123
0.000153803
0.00276924
0.000154943
0.003447
0.00234021
5.1864e-05
0.000212563
0.000307928
0.000375009
0.000378958
0.00233017
0.000242831
0.000772613
0.00354608
0.00249636
0.000905917
0.000399968
0.000467606
0.000821111
0.000220981
0.000723988
0.00509864
0.000126858
0.00499952
0.00355059
0.00072358
6.87716e-05
0.00552181
0.000185225
8.23789e-05
0.000596149
0.000617988
0.00571136
0.000759947
0.00108018
0.000461074
8.28932e-05
0.00014542
0.000688225
0.000246836
0.00472072
0.000269669
2.44344e-05
0.000870298
0.000476793
8.15562e-05
0.00221731
0.00547464
0.00435907
5.92381e-05
0.00582377
0.00256416
0.00290792
0.000289571
0.000306763
1.67225e-05
0.00224363
0.000491155
0.00400947
0.00288389
0.000290633
0.000637179
0.00821723
0.00095678
0.00357351
0.00239334
0.000465178
0.000481614
0.000728299
0.000920178
0.000109744
0.00166061
0.000132774
0.000362278
0.000192141
0.000104416
0.00232304
0.0056155
0.00010573
0.00329834
0.00395438
0.00022371
2.80709e-05
0.00295377
0.000455689
0.000110485
0.00066873
0.000440686
0.00369349
9.117e-05
0.000683976
0.00251375
0.000713587
0.000583926
0.000133667
0.000175976
0.000148493
1.90905e-05
0.00142842
0.00425177
0.00384617
0.000725107
0.00602577
0.0111192
0.00108288
0.000319046
0.000159429
0.00274534
6.33098e-05
4.35191e-05
9.70086e-05
0.000152253
0.00404358
0.00682028
0.00268113
0.00355147
0.00379851
0.000244828
0.000782496
0.000184647
0.00540644
9.16088e-05
0.00376712
0.000357264
0.00255675
0.00219554
0.000220378
0.00368999
0.00586452
0.00247657
8.48931e-05
0.00527846
0.00117805
0.000248471
1.89906e-05
0.000867919
0.000846903
0.000184958
0.00648193
0.000702162
0.00352018
0.00228874
0.00229243
0.000573074
0.000473278
0.00241345
3.16229e-05
0.000525842
0.000620951
0.000565275
0.0033145
0.000145479
6.92608e-05
4.86203e-05
8.76861e-05
0.00562026
0.00544896
3.88907e-05
0.000431627
0.000712534
0.00389641
0.000399312
0.000282632
0.00066646
0.000531727
0.000688215
0.000453621
0.000405086
0.000564927
0.000647753
0.00222972
0.000337013
0.00041959
0.000166859
0.000552826
3.91091e-05
0.000145462
0.00345051
0.00409448
0.00542545
0.00248753
0.000636356
0.000129036
5.71201e-05
0.00388192
0.00578367
0.000237536
0.000184067
0.000530943
8.83129e-05
3.35783e-05
0.000888202
3.09987e-05
0.00512167
0.000137251
0.00231302
0.0118154
0.000264823
0.000745231
0.000105973
0.00583962
0.000577415
0.000738742
0.000633947
0.000638678
0.000178416
0.000493679
0.000272628
0.000832509
0.00115366
0.000379377
3.88774e-05
0.00539376
0.000550003
0.000182049
0.00333399
0.000524824
0.000285685
9.01316e-05
0.00110849
0.00544911
0.000324245
4.55668e-05
0.000169101
9.02617e-05
0.00355076
0.000104777
0.00707271
0.000333127
0.00951595
0.000420272
0.00336021
0.000293112
0.000477758
0.00337881
0.000917138
0.000681583
0.00603269
0.000278886
0.000979073
0.00396616
0.00221869
0.00228094
0.000188107
0.000784058
0.00977587
0.00242307
0.00234004
0.00014155
0.000829202
0.00535429
8.89417e-05
0.000170845
0.00060603
0.0136548
0.000208439
0.00504376
0.000231212
0.00579182
0.00222419
6.43084e-05
0.00224884
0.00561703
0.00408046
0.00309097
0.00252963
1.42343e-05
0.00264736
0.00209406
0.00476371
0.000545048
0.0049718
0.000290333
0.00624335
0.000405286
0.00263345
0.000520659
0.00272496
0.000160435
0.000629908
0.00289319
0.000315238
0.00620356
0.00593382
3.20721e-05
0.000693791
8.73701e-05
0.000107176
0.000596679
0.0025815
0.000271554
0.00226058
0.000535466
0.000123513
0.00496885
6.90422e-05
0.00338149
0.00500219
4.28834e-05
0.00348157
0.000127288
0.000807976
0.000138036
0.00231773
0.000514139
0.000926942
0.000618431
0.000327356
0.000659816
0.000698876
0.00342303
0.00265828
0.000495149
0.000113024
0.00434272
0.000261513
0.000433241
0.000380683
0.000581853
0.00010329
0.00568312
0.000318066
0.000661454
0.000192232
0.000461913
0.0048502
0.000885176
0.00088957
1.74758e-05
0.000765127
6.14766e-05
0.0055192
0.00537623
0.000664249
0.000354543
0.00090345
0.000338944
0.000835525
0.000107374
0.000514108
0.00505456
0.000793757
0.00309089
0.0039578
0.00214081
2.4653e-05
5.67385e-05
5.28675e-05
6.9626e-05
0.000403018
0.000938427
0.000865525
0.000398929
0.000395578
0.000431705
0.000544018
0.00385776
0.000231727
0.00415509
0.0101769
0.00215447
0.00544749
7.69225e-05
0.00459123
0.000569476
0.000252433
7.68068e-05
0.000428096
0.00388865
0.00959755
0.0072912
0.000706371
0.000127164
0.00289721
0.00256516
0.000242452
0.00358004
0.00223279
0.00458486
0.00601575
0.00535978
0.00132235
0.000172723
0.00615943
0.00560087
0.000994327
0.00808009
0.00399189
7.30293e-05
0.000180088
6.53375e-05
0.00409769
0.00251267
0.000174469
0.000434446
0.000147031
0.0040523
0.0050632
0.0100842
0.00555812
9.74667e-05
0.00520825
0.000527089
0.000631862
0.000173525
0.00345151
0.000548569
0.00377983
0.00557536
0.000586783
0.00563006
0.000323403
0.00341946
0.000135862
6.31819e-05
0.00560998
0.00248803
5.83597e-05
0.00374936
0.000311791
0.0027266
0.000314504
0.000706814
0.00384404
0.00548164
0.00333492
0.0078293
0.000366695
0.0026099
0.000857687
0.00425455
0.000761258
0.0049496
0.000170049
2.54391e-06
0.000305773
0.00581395
4.6923e-05
0.00093218
0.000161793
0.00283168
0.00836842
5.50548e-05
0.00355115
0.000906609
0.00801233
6.20645e-05
0.0041159
0.00331367
0.000720935
5.01425e-05
0.00394108
0.000178937
0.0023034
0.00532064
0.000565637
0.0090849
2.16774e-05
0.000420335
0.000554431
0.000350293
3.78474e-05
0.00327989
0.00368318
0.00057912
0.00850268
0.000110676
9.97491e-05
0.00123246
4.95365e-05
0.000301862
0.000604589
0.000343022
0.00468162
0.001898
0.00424238
0.000109998
0.000454104
0.000754882
0.00044057
0.00563693
0.00113594
0.0026873
0.000429382
0.000565382
0.0088689
0.000256642
0.000945179
0.00955214
0.000139579
0.00604166
0.000570845
0.00274531
4.34419e-05
0.00586131
0.000234819
0.00949713
0.000134948
0.000151335
0.000127312
6.84503e-05
0.0006481
0.00379647
0.00339863
0.00409586
0.000664341
0.00020291
0.000133486
5.12939e-05
0.00636748
0.00086891
0.000896471
0.000561088
9.87329e-05
0.000163188
0.000731577
0.000786778
0.00552271
0.000822667
0.000252651
0.00491962
0.00324176
0.00215132
0.00548392
0.00107613
0.000274365
0.00221584
0.00566509
0.000349054
0.00464216
0.000352798
0.000528805
0.000902367
0.000518699
7.67023e-05
0.000614297
0.000134508
0.00385793
0.000491268
5.9111e-05
0.000879072
0.000884491
0.000317745
0.00015744
0.00185861
3.27265e-05
0.00389468
0.000849519
0.000616687
0.00233187
9.9243e-05
0.00728003
0.0018394
0.00399221
0.00576494
0.00223038
0.00563543
9.4799e-05
0.000170653
0.000101952
0.00348791
0.000112146
0.000152531
0.00584258
0.000217015
0.0056122
0.00336485
0.00568371
0.00013106
0.000275942
0.00520646
0.000168083
0.00555685
0.000428564
0.000193726
0.000188183
5.76909e-05
0.000391115
0.00057505
0.000636263
0.00618265
0.00398231
0.000476102
0.000487931
0.00579077
7.22949e-05
0.00429287
0.000452391
0.000476431
0.00123445
0.000189492
0.000960888
0.000890209
0.00346516
0.000415363
0.000438918
0.00395545
0.000257221
0.00074135
4.08342e-05
0.00063746
3.89016e-05
0.000303349
0.000978915
0.00039804
0.000669673
3.01592e-05
0.00212587
0.000389818
0.000630044
0.00878976
8.43587e-06
0.000397947
0.000208768
0.00406176
0.0029786
0.000125814
6.36959e-05
5.06678e-05
0.000896334
8.33379e-05
0.000776089
0.000573739
0.0173193
0.000323236
0.000580592
0.00548998
2.90455e-05
0.000182133
0.00440094
0.000163613
0.000670027
0.000456578
0.000587065
0.000893309
0.000535374
0.00225333
0.00922087
0.00387441
0.000214537
0.000547344
0.00535845
0.00358506
0.00241324
0.000223239
0.00332586
0.000176702
0.000487738
0.000372633
8.86753e-05
0.00102421
0.00322948
0.000189056
0.000220626
0.000200442
0.00102527
9.54464e-05
0.000845025
0.000638052
0.00417947
0.000316471
0.000745682
0.00115749
0.00417615
0.00240774
0.000708116
0.000571759
0.00304441
0.000368024
0.000222024
0.00039248
0.000589668
0.00025265
0.000471304
0.000532768
0.000722527
0.00866321
4.04524e-05
0.000219559
0.00410728
0.0026702
0.000326513
2.7603e-05
0.00413958
0.00033043
0.000333707
0.00112804
0.00109747
0.00084736
9.24316e-05
0.000709925
0.000717743
0.015108
0.000635431
0.000793758
0.00741602
0.000794987
0.00381291
0.000927798
0.000436344
0.00191016
0.00371144
0.000507487
0.000320141
1.29259e-05
0.00370576
0.000710975
0.00379439
0.000795676
0.00199833
0.00206223
0.000628936
0.000920884
0.00229399
0.0001671
0.000354024
0.000291494
0.000850462
0.000929192
0.000152212
0.000700195
0.000527084
0.00217664
0.000837611
0.00318098
0.00405009
0.000433635
0.00185394
0.00483865
0.00070841
0.000348584
0.000888347
0.00289145
0.00612022
0.000300438
0.000800643
0.000166844
0.00564571
0.00379327
0.000659236
0.00326907
0.000113651
0.000170566
0.000549317
0.00559678
0.000189061
0.000248572
0.00222362
0.00106711
0.000766004
0.00264989
0.000309225
0.000700073
0.000235722
0.000159979
0.00398968
0.000197319
0.000283523
0.000516853
0.00194954
0.000296463
0.000793891
0.00024897
0.00544093
0.000269021
0.000853893
0.00371193
9.33809e-05
0.00390707
0.00017248
0.000389701
0.000536261
0.00774494
0.000659551
0.000774142
0.00230975
0.000662369
0.00013009
0.00535455
0.000265174
0.000110046
0.00240377
0.00670749
0.00363589
0.000692855
3.7216e-05
0.000493567
0.000787858
0.00237432
0.000126861
0.00402649
0.000347481
0.00079544
0.00100492
0.00260204
4.09934e-05
0.00590458
0.000935302
5.83332e-05
0.000820428
0.00467716
0.000159695
8.3086e-05
0.00441857
0.000211923
0.000272639
0.000418118
0.000756739
0.000565113
0.00449004
0.000309125
2.51429e-05
0.00582278
0.00370655
0.00325777
0.00033612
0.000832739
0.000277543
0.00252413
0.000319731
0.00487443
4.55053e-05
0.00150649
0.000216494
0.000686775
6.78678e-06
8.05566e-05
0.00423589
0.00405987
0.000122083
6.91858e-05
0.0053672
0.00542898
0.000324896
1.67313e-05
0.000224827
0.00039503
7.84175e-05
5.95298e-05
0.000423352
0.00237604
0.00128181
0.00216526
7.37113e-05
0.000994043
0.0040828
0.00535886
0.000340049
0.000230249
0.000450552
0.00030103
0.000212043
0.00403341
0.000296
0.000555906
0.00396976
0.00581353
0.000492768
0.000462866
0.00458332
0.00593931
0.000408243
0.000566754
0.00587544
0.00127696
0.000410668
0.000246766
0.000517745
7.38397e-05
9.31426e-05
0.00528422
0.00358722
0.000650395
0.000299795
0.000329017
0.0002072
0.0024835
0.00252726
0.00339695
0.000818267
0.0064316
4.11388e-05
2.41997e-05
0.000667738
0.00252353
0.00586031
0.000795959
0.000420031
6.8574e-05
0.00056839
0.000393438
1.87213e-05
0.00377095
0.00279356
0.01733
0.000346899
7.24079e-05
0.000336108
0.00237136
0.00096581
0.000102227
2.38277e-05
0.000784841
4.31216e-05
0.000248666
0.000424718
0.00253262
0.00567181
0.000338857
0.00422235
0.000176651
0.000130247
0.000923122
0.00534304
0.000116292
0.0020988
0.00562854
0.00554916
0.000119363
0.000589303
0.00016457
0.000180377
0.000973096
0.000366806
0.00561499
0.00376547
0.00389862
0.000753599
0.000412398
0.000107646
0.000362317
0.00027308
0.000124264
0.00630901
0.00016496
0.0053652
0.000181637
0.000338825
0.00506081
0.000583731
0.000517499
7.71877e-05
0.000719975
0.00211768
0.00417762
7.5614e-05
0.00373355
0.000953325
0.0011166
0.000208445
0.00161794
0.00419987
0.00270004
0.00381673
0.000435654
0.000392861
0.000513491
0.00288425
0.000278968
0.00036101
0.000211477
0.000209647
0.0043803
0.00369654
0.000314268
0.000262888
0.00234241
0.000820434
0.000134565
0.000117109
0.000646367
0.00542413
0.0123514
0.00267708
0.000152438
0.000317133
0.000315779
0.00528055
0.00376757
4.21951e-05
0.000239177
0.0022917
0.000682302
0.000151975
0.000244834
0.000350196
0.000607018
0.000161294
0.000148942
0.000467169
0.000245943
0.000205432
0.00105396
0.00196303
0.000676689
0.00011646
0.00408517
0.00241372
0.000194915
0.00302675
1.58631e-05
0.00049781
0.000190205
0.00012961
0.000173286
0.000365205
0.000313694
0.000143932
0.00316034
0.00498932
0.000698033
0.000665244
0.0055824
0.000907449
0.000217316
0.000419281
5.51154e-05
0.00601495
0.00035691
0.000127439
0.00100171
0.000326507
0.000184819
0.00596309
0.000128145
0.00547887
0.000596044
0.00586914
0.000159437
1.38368e-05
0.000336302
0.00568612
0.00269759
0.000753891
1.29942e-05
0.00248338
0.00262532
0.000678444
0.000636227
0.00406606
0.000591556
1.94501e-05
0.0022153
0.00222111
0.00470445
0.000118204
0.000501954
7.31267e-06
0.000128332
0.000491814
0.0005286
0.00052365
0.00508285
0.00404493
0.00495716
0.000930997
0.000850159
0.00381341
0.00557621
0.00244717
0.00575137
0.000225149
0.00571634
0.000366001
0.000927657
0.000112574
0.00222418
0.000806982
0.00379795
0.00248765
0.000819164
0.000258575
0.000154075
0.00924119
0.00032052
0.00559959
0.000130671
8.01675e-05
0.000641735
0.000890105
0.000124201
0.000370052
0.000702197
0.00295625
0.00420298
0.000410711
0.000720309
0.00412541
0.000903464
5.31107e-05
0.00389978
0.00526365
0.000473414
0.0041153
0.00226033
0.00577727
0.00239763
0.00396564
0.00546072
0.00390699
0.00611445
0.000365072
0.000909258
0.000614305
0.00559942
0.000287806
3.87893e-05
2.68946e-05
0.000274461
0.000209995
0.00391329
0.00019874
0.00911033
0.000865253
0.000910337
8.72411e-05
0.00572049
0.000290536
0.000805686
0.00573629
0.00396978
1.93419e-05
0.000607488
0.00511965
0.000153497
7.15146e-05
0.000637864
0.000192036
0.00352149
6.63757e-05
0.000957031
0.00304737
3.43639e-05
4.34061e-05
0.000449084
0.000697299
6.1437e-05
5.55087e-05
0.00365452
0.000411457
0.000422827
0.000182869
0.000896331
0.000928522
7.80369e-05
0.00633244
1.44205e-05
0.00684186
0.0127677
0.00270418
5.27491e-05
6.73484e-05
0.00427552
0.000175807
0.000296806
0.00114504
0.000175635
0.00611614
0.0058782
0.00872293
0.00254398
0.00499026
5.60964e-05
0.00368617
0.000235678
0.00415354
0.00516056
0.000859171
0.00233787
0.000379339
9.62123e-05
0.000499098
0.00400108
0.00378049
7.00673e-05
0.000187219
0.00604163
9.8626e-05
0.00230646
0.000738848
0.000447843
0.00017836
0.000539438
0.000453011
0.000597007
0.000916997
0.00298704
0.00355575
0.00286834
0.00402243
0.000309818
0.000320257
0.00212896
0.00239441
0.000491014
2.84905e-05
8.02853e-05
0.00235255
3.22876e-05
0.00511566
0.00260814
5.43859e-05
0.00369405
0.000918659
0.000733012
0.000157393
0.000630828
0.00019544
0.000693025
0.000736601
0.000248499
0.000280004
0.000214049
0.00555766
0.00515603
0.000179256
0.000417637
0.000123504
0.000649658
0.000523168
0.00549473
0.000141084
7.00911e-05
0.000167599
0.000721343
0.00388823
0.00234629
0.00312682
0.000115545
0.00214256
0.000405776
0.00554149
5.9578e-05
0.0038026
0.000919936
0.000656604
0.00251571
4.99134e-05
0.000213735
0.00377741
0.00534504
0.000240817
0.00832489
0.00024466
0.000329421
0.000923149
0.000123801
0.00118901
0.000219777
0.00519131
0.000407544
6.22866e-05
0.000803502
0.00566866
0.00017019
9.74911e-05
0.000929057
0.000135216
0.00387858
0.000315465
0.00500417
0.000192736
0.000166372
0.000121765
6.09989e-06
0.00365309
0.00560283
0.00184263
0.000466484
0.00366842
0.00031252
0.00382474
0.000170941
0.00249467
0.0055952
0.000454612
0.000143599
0.000873209
0.000613337
0.000108331
6.09284e-05
0.00416346
0.000836742
0.00523633
0.00193041
0.000630024
0.000802411
0.000151701
0.00625092
0.00348845
0.0012372
0.00112145
0.000146855
4.13786e-05
0.0001749
0.00615353
4.25236e-06
0.000124064
0.000194519
0.00277409
6.88966e-05
0.000534089
0.000166603
0.000334216
0.00128624
0.00232301
0.000112479
0.00353362
0.000287853
0.000743354
8.9423e-05
0.000148489
0.000143162
0.000592096
0.00384473
0.000758229
0.00253989
0.00545482
0.000100712
0.00361296
0.000161581
0.00557733
0.00349941
0.00253947
0.00126104
0.000128475
0.00365048
0.00524976
0.000187415
0.00097751
0.000372504
0.000416527
0.00538515
0.000885729
0.00386572
0.000276038
0.000264301
0.00229036
0.000233015
0.000308756
0.000106618
0.000296628
0.000332465
7.5594e-05
0.000388888
1.4527e-05
0.00456677
0.00595076
4.48141e-05
0.00639903
0.000126052
0.00010421
0.0009536
0.000726767
7.59192e-05
0.00392183
0.000838074
0.00250181
0.000728964
0.0032401
1.87073e-05
0.000791833
0.00131928
0.000398477
0.0036033
0.000160577
8.20808e-05
0.000864689
6.07837e-05
0.00576912
0.00542224
0.000301457
0.000134073
0.000375893
0.000495098
0.00650553
0.000891852
0.00201438
0.00075184
0.000311719
0.0039889
4.06834e-05
0.000159041
0.00399149
0.00471481
0.000790633
0.00076234
0.00559145
2.53525e-05
0.00355685
0.00586857
0.000926701
0.000459785
0.000797737
0.000130662
0.000446358
7.43684e-05
0.000623716
0.000223114
0.000320529
0.00033479
9.24311e-05
0.00559825
0.00386745
7.66954e-05
0.000403056
0.000344896
0.00562139
0.00560651
2.37695e-05
0.00487109
0.000123954
0.000309527
0.000787426
0.003651
0.00206
0.000525085
0.000200351
0.000145383
3.96805e-05
0.00232746
0.00537119
0.000402448
0.00570272
0.00310842
0.00383173
0.00355133
0.000215003
0.000859216
6.73078e-05
0.000300938
0.000668148
0.000589444
0.000267395
0.00025372
0.00252229
0.000537865
0.000306503
0.0002923
0.00398617
0.000249898
0.00575316
0.000820302
0.00364109
0.000151582
3.02833e-05
0.00945311
0.00504248
0.000745915
0.00249471
0.00577251
4.45652e-05
0.00541414
0.00252257
0.000353118
0.000240289
0.000733805
0.00369056
0.000370613
0.00240566
0.000672214
0.000242839
0.000243038
0.000407856
0.00362619
1.98999e-05
9.67615e-05
0.000834716
0.00016409
0.00023757
0.000174892
0.000967511
0.0056565
0.00376846
0.000194072
0.000749755
4.33075e-05
0.00334828
0.000398412
0.00221752
5.34271e-05
3.44002e-05
0.000881262
0.00253955
0.0022111
0.00555624
0.000115138
6.49592e-06
0.00233283
0.000154188
0.00550694
0.000119817
0.000362789
0.00592637
0.000250581
0.000155325
0.00017514
0.00996011
0.00624977
0.00438058
0.00230291
0.00216417
0.0058142
0.0053117
0.00617561
0.000895552
0.000349314
0.000174001
0.000310559
0.000261346
0.00563895
0.000121268
9.21175e-05
0.00565893
0.005787
0.0057083
0.00098645
0.00506021
0.000155072
0.00454136
0.00100113
0.000916242
0.00334615
0.00075212
0.000161309
0.000686584
1.8601e-05
0.00015898
0.000412388
0.00267174
0.000359617
9.7361e-05
0.000255021
0.00568239
0.00138136
0.00033731
4.23108e-05
0.000253756
0.000582272
0.00222176
0.00406423
0.00593558
0.000564402
0.000891388
0.000462394
0.00021539
0.00316681
0.000296469
0.00276452
0.000386311
0.000296291
0.00339842
0.0032205
0.000572557
9.39503e-05
0.000163721
0.000172709
0.00105626
0.00199565
1.0129e-05
0.000409032
0.000103595
9.12575e-05
6.15898e-05
0.000628204
0.000841853
1.71947e-05
0.0056201
0.00365332
0.00627069
0.000489095
0.000239484
0.000667915
0.00249116
7.16264e-05
0.00313883
0.00222301
0.00545594
9.89784e-05
0.000303396
0.000231109
0.00543121
0.00311472
0.00284399
0.00546641
0.0034203
0.000319737
0.000443432
0.0051074
0.00385967
0.00230164
0.000691823
0.000395684
5.34906e-05
0.000676875
0.000100998
1.86753e-05
0.000575067
0.00379667
0.000862469
8.69101e-05
2.53209e-05
0.000139834
2.23703e-05
0.000199345
0.00143111
0.000178999
0.0024066
0.00404205
0.000177848
0.00031296
0.00595961
0.000411344
0.00545423
6.05258e-05
7.42148e-05
0.000233539
0.000277246
0.00247465
0.00589677
0.00249905
0.000843132
0.000613458
0.000252199
0.000186551
0.00436488
0.000955604
0.000172159
0.000404424
0.000243107
0.00531646
0.00243635
0.00028048
0.000225271
0.000567805
0.000402962
0.000206247
3.45814e-05
2.07356e-05
0.00054545
0.000313357
0.000497904
7.64956e-05
0.00088927
0.00517229
0.00537951
0.00106218
0.000281742
0.00024325
0.000312187
0.00539678
0.00030175
9.16092e-06
0.000156327
0.000812488
0.000122163
9.6729e-06
7.55289e-05
0.000456685
0.000267491
2.96037e-05
0.00331444
0.000189285
3.91369e-05
0.00557445
8.18249e-05
0.000114687
6.29878e-05
2.97293e-05
0.000311653
0.00433111
0.000270732
0.000979971
0.000369533
0.00111998
0.000189418
2.11613e-05
0.000892584
4.80528e-05
0.00553222
4.80418e-05
0.00355994
0.00393815
1.37578e-05
0.00522548
0.000498666
0.000215682
0.000293526
0.00248595
0.000651405
0.0055685
4.8092e-05
0.00370465
0.000692251
7.94736e-05
4.63129e-05
0.000320267
8.6754e-05
0.000127786
0.000594344
0.000134879
0.000137095
0.000128125
0.00376284
0.000871082
0.000591434
0.000459758
0.00235095
1.12724e-05
0.00020635
0.000245069
0.00541631
9.16778e-05
0.00569693
0.000541394
0.00524249
0.00358632
0.000379879
5.70128e-05
8.69578e-05
0.000271855
0.00472213
0.00026088
0.00529328
0.00491211
5.7345e-05
0.00272683
0.000766146
5.7642e-05
0.000126318
0.00558926
0.00230877
0.00396308
0.000500393
0.000272928
0.00208769
3.27289e-05
0.000843423
0.00230792
0.00136917
0.00502315
8.66884e-05
0.000303425
0.000420424
4.60425e-05
0.000451628
0.000241785
9.47448e-05
0.00052654
7.68027e-05
0.000608655
0.000483778
0.000824929
0.00035889
0.00101405
0.000226826
4.48814e-05
0.00017731
0.000119456
0.000457379
0.000129742
0.0038714
0.000208954
0.000473605
0.0021139
0.00010546
0.000732276
0.0103924
0.000166795
0.000372592
0.000713832
8.87016e-05
0.00348957
0.000211873
0.000192396
0.000173808
0.00072776
0.00251106
0.00247887
7.08633e-05
0.00365242
0.00405912
0.00584374
1.7803e-05
0.000167069
0.000426918
5.25393e-05
2.24804e-05
2.5027e-05
0.00269279
0.000298502
0.000336259
0.000372467
0.000625967
0.000666793
0.00428565
0.00612517
0.00581241
0.00195037
0.000241662
0.000643464
0.00057113
0.000876341
0.000174834
0.000280794
0.00564293
0.000910253
0.000371749
0.000376568
0.000712976
0.0022893
0.0027569
7.32445e-05
0.00336231
0.000174576
5.67693e-05
0.000550495
0.000134014
0.000775758
0.00196729
0.000552797
0.000784341
0.000723447
0.00016696
0.000460094
0.00257517
0.00374896
0.000409577
0.000816302
0.00242715
0.00400847
0.00079075
0.00516573
0.000352603
0.000223714
0.00327832
0.000509403
0.000719762
0.000117959
6.7817e-05
0.000311429
9.66387e-05
0.000271728
0.000136758
0.00094829
0.000135494
0.00205508
0.00118733
0.00243719
0.000476934
0.00031347
0.000379705
0.000105025
0.000706217
0.000623802
0.00547342
0.000726831
0.0054947
0.000877297
9.31108e-05
2.88453e-05
0.000247672
5.75296e-05
0.0039317
0.00388665
0.000288857
0.000894833
0.00280572
0.000141756
0.00363188
0.000200378
2.01306e-05
8.06635e-05
0.000158185
0.000310806
0.000228178
0.000222495
0.00363119
0.000466389
0.00412807
0.00394191
0.00215863
1.50504e-05
0.000232267
0.0008611
0.00407421
0.00333497
0.000128932
0.000581365
0.000860403
0.000855433
0.00375378
0.00304015
0.00378924
0.00215332
0.000378337
0.00259169
8.50039e-05
0.00212626
0.00515316
0.000700152
0.00341783
0.00638225
0.00562661
0.000177318
0.000114252
0.000449813
0.00220595
0.000873364
0.00431076
0.00023748
0.00202937
0.000203231
0.000108976
0.00597817
4.59487e-05
0.000322973
0.000213224
0.000147305
2.62406e-05
0.00043908
8.41929e-05
0.000294352
6.92713e-05
0.00546442
0.000842712
0.00250482
6.74633e-05
0.00435462
0.000984234
7.71601e-06
0.00142172
0.000301648
0.00540813
0.000179558
0.000336677
0.000433177
9.5548e-05
0.000156578
9.91567e-05
0.000165249
5.85227e-05
0.000464734
0.00244759
0.00250212
4.96611e-05
0.000384387
5.89028e-05
7.24702e-05
0.000237273
0.00019456
8.57066e-05
0.00395103
5.69736e-05
0.000647888
0.00437321
7.8174e-05
0.0044742
9.21047e-05
0.00205556
0.00357502
4.69962e-05
0.00350403
0.00515704
0.00543074
0.00413377
0.00373666
0.000364406
0.000618987
0.000596004
3.31249e-05
0.00236312
0.000215626
0.000682706
0.000222767
0.00568442
2.20385e-05
0.000317108
0.000153724
0.000196876
0.00513948
0.00385345
2.49356e-05
0.00536291
0.000519386
0.00373176
8.75255e-05
0.00187114
0.000740307
0.000682367
0.000141746
0.00372686
0.0053402
0.00385332
4.48593e-05
0.00223302
0.00546923
0.000232842
0.000826882
0.00520773
0.000627605
0.00453618
3.59409e-05
3.52703e-05
0.000472106
0.000278925
0.00932476
0.000309284
0.00413199
0.000518338
0.000102482
0.000213226
0.000202554
0.00078698
0.000296151
0.00455685
5.18388e-05
0.000412148
0.000686825
0.00069127
0.00235956
0.00565084
0.000158978
0.000122686
0.000310636
0.00195786
0.000105014
0.00599756
0.00536345
0.0036127
0.000325184
0.00423909
0.000185121
0.00576286
0.00359912
0.000151248
0.00241743
0.00382121
0.00395273
1.23457e-05
0.000109237
0.000642092
0.0024237
5.89157e-05
6.69422e-05
0.000189221
0.000177473
0.000169428
0.000344511
0.000520728
0.00580572
0.00015554
0.00125281
0.00213497
0.00466852
0.00033866
0.000255986
0.00053548
9.29609e-05
0.00615157
0.000258771
4.90797e-05
0.00586216
4.01903e-05
0.000264508
0.000106546
0.00320155
0.000320782
0.00327954
0.000588306
0.00219036
0.00542519
0.000495054
0.000140579
0.00209211
2.25883e-05
0.000208705
0.00017665
0.000422039
0.00252616
0.00529747
0.000300182
6.12447e-05
4.80064e-05
0.000190026
0.00253559
2.46827e-05
0.00260229
0.00205924
5.24009e-05
0.0012192
0.000398085
0.00015878
0.000294851
0.00374636
0.00594276
0.000457558
0.000214487
0.00324772
0.00431778
0.000816923
0.000133197
9.90569e-05
0.00570964
0.000802811
0.000166742
0.000220275
0.000115606
2.46579e-05
0.000248177
0.000633503
1.4301e-05
0.000189317
0.000879123
0.00525462
0.00589307
0.000112863
0.000425013
8.2239e-05
0.000139099
0.000260038
0.000120763
0.000374183
0.000149888
7.40411e-05
0.000265903
0.000485736
0.000116412
0.000234686
0.000655661
0.000263285
0.00064178
0.00489055
7.36665e-05
4.54072e-05
2.99762e-05
7.20578e-05
6.80478e-05
0.000659399
0.00370707
2.48547e-05
0.000222402
5.71175e-05
7.29942e-05
0.00375249
0.0013523
0.000299018
0.00611109
0.000121344
0.00407503
0.000167294
2.57066e-05
5.00334e-06
2.72963e-05
0.000151547
0.00366841
0.00552802
0.00983682
0.00090181
0.00365353
8.7687e-05
0.000244565
0.00348973
0.000923919
0.000409533
0.000558478
0.000130808
0.000114709
0.00135571
0.000643738
0.000229897
0.00582096
0.000305392
0.00375327
0.00594618
0.000167864
0.0020569
0.000177867
0.000137867
0.000457809
0.000573932
0.000891289
6.17653e-05
5.44353e-05
5.5143e-05
0.00297723
0.00461626
0.000221159
0.000191201
0.000347677
0.000668596
0.000870205
0.000638682
7.83248e-05
0.00013468
0.00013658
0.000804889
0.000337624
0.00107811
3.16737e-05
4.55927e-05
0.000293034
0.000507909
0.00396211
4.13284e-05
4.99797e-05
7.76551e-05
0.000391794
3.2022e-05
0.000369813
0.00376332
7.09769e-05
0.00198406
0.00310386
7.65848e-05
0.000943705
0.000448861
0.000251033
2.18506e-05
0.00541535
0.000594583
0.000134036
0.000213615
0.00217659
0.000252807
0.00109916
4.41368e-05
0.00112241
0.000335441
9.14392e-06
6.97553e-05
0.00597882
4.85643e-05
3.9938e-05
0.00017798
0.000606234
7.19054e-05
0.000100497
0.0123954
0.000630519
0.00349915
6.38039e-06
0.000318401
0.000170058
0.000321827
0.000686307
0.00111402
0.00324504
0.00518967
0.000192517
0.000142562
0.00889141
0.00360781
3.16891e-05
7.1729e-05
0.00270902
0.000285847
7.44872e-06
4.99487e-06
1.74014e-05
0.00576812
3.87638e-05
0.00179488
0.00374476
0.000153824
0.00227288
0.000736081
0.00529567
0.0039024
0.000804926
0.00245624