/*--------------------------------*- C++ -*----------------------------------*\
| =========                 |                                                 |
| \\      /  F ield         | OpenFOAM: The Open Source CFD Toolbox           |
|  \\    /   O peration     | Version:  2406                                  |
|   \\  /    A nd           | Website:  www.openfoam.com                      |
|    \\/     M anipulation  |                                                 |
\*---------------------------------------------------------------------------*/
FoamFile
{
    version     2.0;
    format      ascii;
    arch        "LSB;label=32;scalar=64";
    class       volVectorField;
    location    "52";
    object      momentum:angularMomentum;
}
// * * * * * * * * * * * * * * * * * * * * * * * * * * * * * * * * * * * * * //

dimensions      [1 1 -1 0 0 0 0];

internalField   nonuniform List<vector> 
59516
(
(-1.81783e-09 -1.33685e-09 2.23546e-07)
(5.62465e-10 -3.99861e-10 1.66245e-07)
(-8.42072e-10 1.2339e-09 2.03235e-07)
(-3.067e-09 -6.17702e-10 1.72994e-07)
(-8.01835e-09 5.34141e-10 2.00034e-07)
(-5.20286e-09 2.76894e-09 5.03647e-08)
(-3.77037e-09 -2.58874e-09 2.097e-07)
(-6.00863e-10 -1.1538e-09 1.94606e-07)
(-1.32906e-09 2.48229e-10 1.56538e-07)
(3.06295e-09 1.61112e-09 7.84536e-08)
(-3.29888e-09 -3.58226e-10 2.08439e-07)
(-5.06348e-09 -3.79883e-09 1.01772e-07)
(-2.52343e-09 -1.91418e-09 3.20544e-07)
(5.38062e-11 -1.65931e-10 1.55072e-08)
(5.32167e-10 -8.93891e-09 1.49615e-07)
(-2.38648e-09 5.93447e-09 8.37771e-08)
(-4.04464e-09 -7.76134e-10 2.69523e-07)
(-1.30419e-08 -3.60905e-09 1.59755e-07)
(-1.72269e-08 -3.55523e-09 3.29858e-07)
(-2.67784e-09 1.31171e-09 3.73063e-07)
(-2.62279e-09 1.2195e-09 9.95021e-08)
(8.30543e-10 1.75796e-09 3.18026e-07)
(-5.62071e-09 -1.53409e-09 3.51397e-07)
(9.0134e-10 5.88544e-10 3.4241e-08)
(2.10374e-10 1.40612e-09 3.12568e-07)
(-5.55835e-10 4.83237e-09 1.98568e-07)
(-6.51976e-10 3.64665e-09 5.14682e-08)
(-5.83109e-09 -2.48235e-09 7.40837e-08)
(-5.85267e-09 -1.96349e-09 1.445e-07)
(1.64244e-09 1.33798e-09 1.31856e-08)
(-3.76157e-08 2.105e-09 1.89454e-07)
(-5.4086e-09 4.13705e-09 8.37097e-08)
(-1.02894e-09 -4.23166e-10 1.7418e-07)
(-3.22369e-09 -1.74153e-09 1.74454e-07)
(-6.41661e-09 -5.49189e-11 1.3361e-07)
(-1.33946e-09 3.28044e-10 3.9924e-07)
(-1.92637e-09 1.00959e-09 1.27888e-08)
(-1.30507e-08 -4.14318e-09 1.31663e-07)
(-1.07603e-08 1.16245e-09 2.6661e-07)
(4.4142e-10 1.24845e-09 2.82294e-07)
(-4.21025e-11 -1.61905e-09 2.55332e-07)
(-3.29476e-08 -4.9465e-11 4.06951e-07)
(-1.1938e-08 2.30381e-09 3.43289e-07)
(-6.90324e-10 4.0595e-10 1.09835e-07)
(-9.80762e-09 1.40078e-09 2.6482e-07)
(2.64046e-09 7.25763e-10 1.01046e-07)
(-1.31263e-08 3.5722e-10 3.24485e-07)
(-8.04512e-09 1.05863e-09 2.54723e-07)
(-3.43581e-08 3.11544e-09 2.51869e-07)
(-1.38691e-08 4.35847e-10 2.41148e-07)
(-2.81965e-08 8.19283e-10 1.63913e-07)
(-7.06661e-09 -3.36975e-09 7.51722e-08)
(8.60337e-10 -6.61116e-09 3.13952e-07)
(-7.54877e-10 1.1206e-09 2.98969e-07)
(-5.067e-09 1.28187e-09 8.21648e-08)
(-5.85862e-09 9.74604e-10 2.46105e-07)
(-1.67546e-08 4.94977e-11 2.03444e-07)
(-7.499e-09 -2.80231e-09 7.60451e-08)
(-3.60951e-10 -1.93332e-10 2.11286e-07)
(-1.1163e-08 -3.9148e-10 1.45814e-07)
(-3.54586e-10 6.15376e-10 2.08693e-07)
(-1.16712e-09 1.6084e-09 1.49972e-08)
(-1.31029e-09 3.3125e-10 2.69475e-07)
(-7.11599e-09 -4.75336e-11 3.43608e-07)
(-1.27152e-09 1.1984e-09 2.89069e-07)
(-9.81125e-09 1.45447e-10 2.15392e-07)
(1.40529e-10 2.02432e-09 1.77846e-08)
(-2.26875e-10 5.11536e-10 6.53426e-08)
(-3.72267e-08 6.18641e-10 1.98327e-07)
(-4.35799e-09 -1.05697e-09 1.69046e-07)
(-8.67592e-10 -1.20034e-09 5.13222e-08)
(-2.13608e-09 -8.29485e-10 1.58213e-07)
(3.50705e-09 -1.41164e-09 2.29249e-08)
(-2.04039e-09 -5.68735e-10 1.86185e-07)
(-1.53952e-10 -9.20314e-10 3.83208e-07)
(-9.1659e-09 5.12898e-10 3.6053e-07)
(-6.24225e-09 1.94397e-10 2.14994e-07)
(4.67254e-10 1.34782e-10 2.26721e-07)
(3.37365e-09 1.81951e-09 8.36962e-08)
(-1.08337e-08 9.22512e-10 1.93197e-07)
(-3.381e-09 1.05563e-11 4.98594e-08)
(-8.78621e-09 4.84132e-10 1.71485e-07)
(-8.27659e-09 4.97593e-10 1.82841e-07)
(-2.27318e-09 1.23365e-09 1.78242e-08)
(-1.07662e-08 1.14058e-09 2.15176e-07)
(-8.36945e-10 1.7352e-09 3.84825e-07)
(6.0552e-10 1.08007e-09 3.11731e-08)
(-9.05719e-10 4.15107e-10 5.02231e-07)
(-4.0796e-09 -2.16837e-09 1.09154e-07)
(-1.55164e-08 -3.86508e-09 1.66776e-07)
(-1.61078e-08 -3.33981e-11 1.83396e-07)
(-1.44907e-09 1.682e-09 1.89474e-07)
(-5.06963e-10 -6.19772e-11 2.62797e-07)
(-1.2731e-10 1.59794e-09 1.82456e-07)
(-1.71409e-10 2.51187e-10 1.84591e-07)
(-1.87864e-08 -1.16166e-10 1.83426e-07)
(-4.10964e-10 -3.27465e-10 1.24256e-07)
(3.41754e-09 6.43768e-09 8.37389e-08)
(-4.39158e-09 -1.76298e-09 1.15152e-07)
(2.1339e-09 1.56245e-09 2.07757e-07)
(-2.04195e-09 1.46943e-09 6.12831e-08)
(2.86233e-09 1.49503e-09 2.59007e-08)
(2.87887e-09 1.50994e-09 2.28868e-08)
(-3.13356e-09 3.55943e-09 8.37428e-08)
(1.36642e-09 -9.82318e-11 2.33381e-07)
(2.6027e-11 -5.46253e-10 1.64194e-07)
(2.55856e-09 -4.50233e-09 5.44352e-08)
(-1.01277e-09 -5.35258e-10 1.36587e-07)
(-4.21302e-10 1.16918e-09 1.7419e-07)
(-4.08373e-09 6.44388e-09 1.86463e-07)
(-4.20409e-08 -5.30048e-10 2.80311e-07)
(3.17588e-09 -2.99246e-09 4.24413e-08)
(-7.24346e-09 9.33527e-09 1.85351e-07)
(-3.62114e-08 -8.89343e-11 2.19226e-07)
(7.10936e-11 2.12674e-11 2.21948e-07)
(1.42825e-09 -1.62678e-09 1.3592e-07)
(-4.12354e-09 -2.63496e-09 1.24952e-07)
(-4.02847e-10 -7.11565e-10 1.43455e-07)
(-3.23116e-10 -8.51464e-10 1.80547e-08)
(-1.49217e-09 1.60591e-09 2.62654e-07)
(8.45785e-10 4.08798e-11 4.20973e-07)
(-5.17677e-10 5.96074e-10 1.78601e-07)
(8.54205e-10 3.72121e-10 1.60076e-07)
(-6.64955e-10 4.12544e-10 1.85408e-07)
(-1.81038e-08 1.16216e-09 1.33068e-07)
(-5.27589e-09 1.80595e-10 1.43719e-07)
(-2.16073e-09 -1.02728e-09 3.52304e-08)
(-2.09552e-08 3.18725e-09 2.1225e-07)
(-2.37445e-08 5.58981e-09 1.63206e-07)
(3.37651e-10 -2.4256e-10 1.63206e-07)
(9.10663e-12 -3.6489e-10 2.90893e-07)
(4.73252e-09 5.66927e-09 3.21468e-07)
(-5.03945e-10 -1.95544e-09 2.22618e-08)
(4.00375e-10 9.70947e-10 2.54989e-07)
(3.75057e-09 1.06474e-09 3.12158e-07)
(-3.34874e-09 1.69228e-09 1.95383e-07)
(-2.20053e-08 1.98729e-09 1.5178e-07)
(3.77962e-10 1.20358e-09 3.11371e-07)
(-4.92749e-10 3.50954e-09 5.11281e-08)
(-1.67151e-09 1.40151e-09 1.57904e-07)
(-1.74741e-09 3.73181e-09 7.50648e-08)
(-8.29988e-10 -7.57739e-10 3.38653e-07)
(-6.39992e-10 -1.16001e-09 1.36409e-08)
(-6.29647e-10 1.26643e-09 1.49662e-07)
(-1.44047e-09 2.03098e-10 2.20244e-07)
(-3.7754e-09 1.37512e-09 2.83648e-07)
(-8.20004e-09 1.96588e-09 2.02794e-07)
(-5.66551e-09 2.20712e-09 2.04835e-07)
(9.76068e-10 -1.81754e-09 6.40326e-08)
(-5.08636e-10 2.07551e-09 2.05534e-07)
(-6.88646e-10 -2.67216e-09 3.16261e-07)
(2.48343e-10 1.94863e-09 5.13315e-08)
(2.41388e-09 2.40255e-09 3.89492e-07)
(4.44214e-10 2.33323e-10 2.18526e-07)
(-1.40765e-09 -3.57084e-09 1.57233e-07)
(-1.34171e-09 8.1443e-10 1.43334e-08)
(-7.08379e-10 -7.06364e-10 2.75455e-07)
(-3.77647e-09 2.21077e-09 3.2793e-07)
(-1.8466e-09 8.37714e-10 1.276e-07)
(-2.22541e-09 -1.58044e-09 1.54207e-08)
(3.67152e-09 3.36707e-09 8.77603e-08)
(6.12646e-09 -3.52361e-09 1.10211e-07)
(-6.83877e-10 1.48473e-09 3.90219e-08)
(-2.07778e-10 -4.18151e-10 2.19391e-08)
(4.94092e-09 1.32397e-10 1.61115e-07)
(-2.04041e-09 4.13895e-10 3.3339e-07)
(2.18983e-09 -8.72842e-11 1.53787e-07)
(-1.42289e-09 -6.47781e-10 2.88038e-07)
(9.89287e-10 1.97479e-09 1.69255e-08)
(1.12601e-10 -9.29916e-10 2.15197e-07)
(-1.44722e-09 -1.18502e-09 8.60078e-08)
(-1.14905e-09 8.46989e-10 6.60956e-08)
(-1.43092e-10 -2.98898e-09 1.0431e-07)
(2.41074e-10 -6.41873e-10 1.50896e-07)
(7.56277e-10 1.10388e-09 8.36141e-08)
(-1.90908e-08 -1.81992e-09 4.52919e-07)
(-1.32986e-09 6.95934e-10 2.51711e-07)
(-1.40986e-08 1.19159e-09 3.10026e-07)
(8.61985e-10 -7.00041e-09 1.4669e-07)
(7.10042e-10 5.02904e-10 6.10536e-08)
(-2.81486e-09 -4.15969e-09 3.07918e-07)
(1.1249e-09 3.92206e-09 4.18427e-08)
(-1.0266e-09 -2.07972e-09 2.9157e-08)
(9.46603e-10 2.43069e-09 1.03201e-07)
(-8.98235e-12 -8.27255e-10 2.10602e-07)
(-6.22271e-10 1.11459e-09 9.59009e-08)
(-3.54047e-09 6.84963e-10 4.50994e-08)
(1.29477e-10 2.3351e-10 1.97832e-08)
(-2.83271e-10 1.29881e-10 1.89768e-07)
(3.51806e-09 1.9286e-09 2.23302e-07)
(-3.28751e-09 -2.42905e-10 1.58754e-07)
(-2.12735e-09 -6.57635e-09 1.129e-07)
(-1.13738e-09 -5.35893e-10 2.16924e-07)
(2.64137e-09 -2.16877e-09 9.25439e-08)
(-1.01425e-09 -1.10337e-10 3.39936e-07)
(4.04769e-10 7.13415e-10 2.81986e-08)
(1.25377e-09 4.0435e-10 9.53753e-08)
(4.45318e-10 -1.5421e-09 5.55397e-08)
(-7.82418e-09 -2.18137e-10 1.83762e-07)
(8.47004e-10 -1.27051e-09 2.65726e-07)
(-1.59092e-09 -2.16145e-09 7.63807e-08)
(-6.25265e-10 -3.91112e-10 2.00026e-07)
(4.50116e-10 3.47858e-09 3.08878e-07)
(1.32437e-09 -1.56014e-09 1.56243e-08)
(1.26144e-09 1.48293e-09 2.18664e-07)
(-5.1696e-10 -5.61814e-10 2.39027e-07)
(-2.79218e-10 -7.40146e-10 3.59395e-07)
(1.70052e-09 -1.25847e-09 2.01021e-07)
(1.77689e-10 -5.66802e-10 1.77974e-08)
(4.75153e-09 2.64888e-09 2.99645e-07)
(-6.2533e-10 5.60397e-09 5.95817e-08)
(-4.1029e-09 8.43552e-10 2.50871e-08)
(-1.56377e-09 1.8021e-09 2.3163e-07)
(-5.5264e-10 2.32035e-09 9.33151e-08)
(-2.18245e-09 -3.11692e-09 2.90996e-07)
(4.75965e-10 -3.02899e-10 2.92753e-07)
(-2.64859e-09 8.84939e-10 2.72745e-07)
(-1.63462e-09 1.17711e-09 2.08553e-07)
(-2.6007e-09 4.80499e-09 8.14477e-08)
(1.15575e-09 -1.3074e-10 2.199e-07)
(-2.02756e-09 -5.74057e-09 1.16525e-07)
(-4.86608e-10 4.92129e-10 1.93584e-07)
(-8.25204e-10 -9.7119e-10 1.82502e-07)
(7.51493e-10 -1.01527e-09 7.20576e-08)
(3.75792e-10 -4.27028e-10 3.02683e-07)
(1.32193e-09 1.59613e-10 3.16834e-07)
(-1.11369e-09 -1.18184e-09 3.12141e-08)
(-3.56597e-09 8.16049e-10 6.39503e-08)
(2.56767e-10 9.37755e-10 2.03342e-07)
(-4.50874e-09 7.52767e-09 1.15469e-07)
(1.7443e-10 8.34533e-10 2.46228e-07)
(-3.59172e-10 3.27458e-10 1.83801e-07)
(-1.38913e-09 -7.55703e-10 3.3221e-07)
(-1.26678e-09 -2.17333e-09 2.60852e-08)
(-1.25633e-09 -1.12147e-09 3.05447e-08)
(-1.71657e-09 -4.92958e-12 3.81981e-08)
(-8.87131e-12 -6.61573e-10 1.07057e-07)
(-2.34429e-09 -4.03125e-10 1.72019e-07)
(-4.26213e-09 1.11502e-09 4.23499e-07)
(2.95606e-09 -4.67917e-10 8.50761e-08)
(7.04597e-10 5.02675e-10 2.6145e-07)
(2.21782e-09 1.57556e-09 1.82327e-08)
(1.47864e-09 1.08799e-09 1.07907e-07)
(2.46992e-09 1.51878e-09 2.61278e-08)
(6.90547e-10 3.77288e-10 1.70376e-07)
(-6.65586e-10 -6.79656e-10 1.50215e-07)
(-1.37356e-09 3.4208e-10 1.97561e-07)
(-2.30396e-09 4.39312e-09 1.82837e-07)
(-7.99526e-10 -4.05744e-10 2.8237e-07)
(-9.60748e-10 -5.43257e-10 1.97346e-07)
(3.08823e-10 -2.10463e-10 3.8619e-07)
(-9.87885e-10 9.60781e-11 2.12953e-07)
(7.97851e-10 2.57566e-10 2.01602e-07)
(6.56736e-10 2.02388e-09 2.8223e-07)
(-1.56823e-09 2.59447e-09 2.83536e-07)
(-1.1581e-09 1.10815e-09 3.03049e-07)
(-5.28587e-10 1.22573e-10 1.09666e-07)
(-3.74406e-09 8.03092e-10 2.8576e-07)
(2.36331e-09 3.7458e-09 7.85656e-08)
(-4.60453e-10 3.40302e-09 9.56874e-08)
(-1.93791e-09 1.12535e-09 2.17077e-07)
(-3.75851e-10 7.2077e-10 2.65292e-07)
(7.12875e-09 1.53478e-09 2.36452e-07)
(6.59041e-10 3.94181e-10 2.92561e-07)
(1.60322e-09 2.34518e-11 7.33141e-08)
(-1.37876e-10 -4.96518e-09 1.0487e-07)
(-1.2264e-09 -2.24822e-09 3.07551e-07)
(4.70433e-09 2.67151e-10 2.11442e-07)
(-7.19745e-10 -1.16516e-09 5.98379e-08)
(-7.02381e-10 2.01034e-09 7.27597e-08)
(-4.36855e-09 3.94121e-09 1.63916e-07)
(-3.46016e-10 -3.20255e-10 1.91407e-07)
(-4.79385e-09 5.91341e-09 3.03416e-07)
(-1.20309e-09 2.50766e-09 1.46327e-07)
(-2.23418e-09 -7.63497e-10 3.39113e-07)
(6.55976e-11 5.04174e-09 1.86988e-07)
(-1.0979e-09 -2.35345e-09 1.88536e-08)
(1.44713e-09 7.60798e-10 3.00545e-07)
(2.37232e-09 -1.83328e-09 2.78932e-08)
(2.24099e-09 1.13966e-09 5.09446e-08)
(-1.87874e-09 -6.28429e-10 3.67524e-07)
(-6.91188e-10 -2.83212e-10 2.49417e-07)
(-3.62561e-09 1.90628e-09 2.70061e-08)
(-2.36455e-10 -2.46426e-09 2.95161e-07)
(-2.53106e-09 -4.17204e-09 2.43568e-07)
(-3.42442e-09 6.01934e-10 2.52244e-07)
(7.79598e-10 -7.95074e-10 3.36407e-07)
(1.88986e-09 -1.94332e-09 2.24627e-08)
(2.29196e-10 1.0165e-09 2.90257e-07)
(-9.79868e-11 -1.37112e-11 1.55393e-07)
(-4.1175e-10 -5.48466e-10 1.63728e-07)
(-1.96738e-09 7.31181e-10 2.521e-07)
(-1.2563e-09 8.73021e-10 1.70388e-07)
(-6.37447e-10 -7.87067e-10 1.74287e-07)
(2.59154e-10 -1.30455e-09 2.70009e-07)
(3.50392e-12 2.19762e-09 3.75311e-08)
(-2.35853e-10 -1.03605e-09 2.8673e-07)
(4.90981e-10 9.02749e-10 1.89721e-07)
(-5.79837e-10 2.02413e-10 3.76589e-07)
(-1.39019e-09 8.03468e-10 2.73728e-07)
(1.07138e-09 -1.7106e-09 3.05542e-07)
(2.31203e-09 -2.77122e-09 1.32817e-07)
(-5.80735e-10 -1.22998e-09 1.91538e-08)
(8.57384e-10 5.27758e-10 3.42934e-08)
(-4.18984e-09 7.4785e-10 5.13173e-07)
(-2.53557e-09 1.03322e-09 1.75951e-08)
(-2.25846e-09 -2.15154e-09 1.69227e-07)
(-1.35692e-09 4.063e-09 7.15777e-08)
(-1.35817e-09 -1.62253e-09 3.19161e-07)
(-1.13918e-09 3.16073e-11 3.79667e-07)
(-9.52315e-10 1.34162e-09 3.15054e-07)
(2.20344e-09 1.58886e-09 1.19922e-07)
(8.26113e-09 6.5135e-11 2.91623e-07)
(8.87335e-11 7.05066e-09 6.57503e-08)
(4.11784e-10 -2.68361e-09 8.65625e-08)
(-3.8067e-10 1.10077e-09 2.0195e-07)
(6.3236e-10 -2.09958e-09 1.53358e-07)
(-3.18881e-08 -3.83239e-09 2.6947e-07)
(5.0917e-10 -4.46742e-09 1.89079e-07)
(-6.38224e-10 -8.50049e-11 6.22287e-08)
(3.53519e-09 -2.53375e-10 1.00383e-07)
(-1.40702e-09 -3.38618e-09 2.04163e-07)
(-4.89506e-10 -1.12342e-10 2.2014e-07)
(1.03408e-09 -2.69555e-09 4.34595e-07)
(-7.6478e-10 1.00104e-09 2.32418e-07)
(5.18808e-10 3.95131e-09 4.91934e-07)
(-1.02726e-08 -1.06817e-09 1.66576e-07)
(-2.78692e-09 -5.10901e-10 3.34616e-07)
(-2.19276e-09 6.38111e-10 2.81454e-07)
(9.82332e-10 2.86022e-10 1.98666e-07)
(2.19593e-09 4.90836e-10 3.40457e-07)
(-4.96844e-09 -4.0815e-09 1.01469e-07)
(2.78818e-09 -1.17493e-09 2.24297e-08)
(2.70808e-09 2.40625e-10 2.94631e-07)
(1.63203e-09 3.79556e-09 5.63218e-08)
(3.69269e-11 -1.02025e-10 2.72528e-08)
(-4.47693e-09 -2.20683e-10 3.9788e-07)
(6.1397e-10 2.18159e-10 1.99226e-07)
(-3.64421e-09 4.56185e-09 1.06243e-07)
(-6.51764e-10 -1.04735e-09 2.59352e-07)
(9.1896e-10 1.95177e-09 3.31203e-07)
(-1.83809e-09 4.21252e-10 4.3708e-07)
(-2.0247e-09 1.77609e-10 2.72413e-07)
(-8.74584e-11 -1.45082e-09 3.01958e-08)
(-3.71564e-10 2.50964e-10 3.17819e-07)
(-1.27629e-09 3.29041e-10 2.2432e-07)
(5.08566e-10 1.32308e-09 9.60224e-08)
(-3.24858e-10 -1.76173e-09 3.04239e-07)
(-5.24862e-10 5.45255e-10 2.57354e-07)
(9.0317e-10 7.01882e-10 1.72307e-07)
(1.01474e-09 1.33114e-09 1.97852e-07)
(-5.1756e-10 -3.45502e-09 2.77574e-07)
(9.23966e-10 1.51656e-09 2.00738e-07)
(-3.88019e-10 1.87702e-10 7.59066e-08)
(-3.87688e-10 9.54972e-10 1.94398e-08)
(3.78186e-10 2.79582e-09 3.80313e-08)
(1.09985e-09 -5.94656e-10 2.14808e-07)
(-3.91658e-08 -2.13349e-10 2.67841e-07)
(-1.14175e-08 1.18729e-09 1.15789e-07)
(5.17707e-10 -5.14239e-10 1.08747e-07)
(3.35426e-09 -2.85109e-09 2.44215e-07)
(-1.52329e-09 1.44877e-09 3.06341e-07)
(-6.51956e-09 3.3491e-10 2.32214e-07)
(8.78372e-10 2.40094e-09 3.59899e-07)
(-1.25382e-09 -2.01329e-09 3.35108e-07)
(1.1203e-10 -9.08772e-10 2.23737e-07)
(-8.13809e-10 -1.1016e-10 1.38749e-07)
(-3.23791e-10 6.85161e-10 2.30342e-08)
(-4.78781e-08 1.72929e-09 2.41081e-07)
(6.65362e-10 2.16033e-09 8.47532e-08)
(-1.43523e-09 2.4135e-09 6.16017e-08)
(1.39987e-09 5.39254e-10 6.5283e-08)
(2.95141e-10 7.66372e-10 1.74513e-07)
(-9.09875e-10 5.29773e-10 1.70148e-07)
(-1.84773e-09 7.24013e-10 2.37285e-07)
(-1.05407e-09 1.27403e-09 1.63013e-08)
(4.88451e-10 -4.80383e-10 1.6783e-07)
(1.62249e-09 -1.00467e-09 6.23185e-08)
(-1.63228e-10 2.38445e-10 1.88901e-07)
(-5.92204e-10 6.9968e-10 5.36538e-08)
(4.00487e-09 1.7639e-09 1.43861e-07)
(1.56297e-09 5.73413e-09 2.13954e-07)
(-1.94249e-09 -4.90781e-10 1.85517e-07)
(2.41583e-09 -2.07114e-10 1.80673e-08)
(-2.74938e-10 4.68765e-09 1.09345e-07)
(1.51077e-10 -1.08181e-09 2.37095e-07)
(8.46242e-11 -2.45117e-09 2.41453e-08)
(-2.12312e-08 -6.47857e-10 2.89643e-07)
(8.81637e-10 -4.19458e-09 1.79666e-07)
(-8.10808e-10 -4.84887e-09 3.01034e-07)
(4.80445e-09 -5.70341e-09 1.96073e-07)
(2.42877e-09 8.20778e-10 9.16988e-08)
(1.28936e-09 -1.17579e-10 3.96705e-07)
(-1.87455e-08 -5.94163e-09 1.42002e-07)
(-2.19822e-10 -1.46759e-10 3.39938e-07)
(-1.74174e-08 1.16834e-09 1.55513e-07)
(-5.13869e-09 3.76221e-09 1.37804e-07)
(-8.13399e-10 3.30637e-09 1.40238e-07)
(2.38367e-10 -3.37501e-10 2.79154e-07)
(1.26681e-09 -7.2217e-10 5.52402e-07)
(9.17285e-10 -8.08468e-10 7.79488e-08)
(-1.06005e-09 -1.48558e-09 3.3383e-07)
(-2.66933e-09 8.72718e-10 1.17184e-07)
(-2.57497e-10 -1.32687e-09 4.48981e-07)
(7.21168e-10 -1.70652e-09 3.42214e-07)
(-1.5847e-09 -5.28427e-09 6.76197e-08)
(-6.51681e-10 1.74043e-09 2.16226e-07)
(6.35005e-09 -5.57608e-10 3.81158e-07)
(-1.21982e-09 -5.39438e-10 2.2778e-07)
(4.0966e-10 -1.28611e-09 2.22583e-07)
(2.63198e-09 -1.40261e-09 2.28356e-08)
(-2.5052e-09 -6.54375e-10 1.91851e-08)
(-3.44155e-09 3.18768e-09 2.91331e-07)
(-1.31393e-10 -8.37521e-11 2.9046e-07)
(1.54678e-09 1.18925e-09 2.27494e-07)
(-2.29423e-09 1.23284e-09 3.46099e-08)
(7.39083e-10 -5.01005e-10 9.06228e-08)
(-3.65512e-09 -6.55689e-10 2.97406e-07)
(6.05678e-11 -2.74946e-10 1.72603e-07)
(-7.27413e-10 1.53949e-09 3.16245e-07)
(8.77285e-10 -3.91076e-10 2.92952e-07)
(1.18442e-10 -1.1702e-09 2.22869e-07)
(-4.12495e-10 -2.11214e-09 2.36996e-07)
(3.98482e-10 -7.58143e-10 1.19293e-07)
(-6.30275e-10 4.37793e-10 2.19346e-07)
(-2.83348e-09 3.45626e-09 8.60376e-08)
(-8.30148e-10 4.44376e-10 2.92172e-07)
(-1.67292e-09 -1.04046e-09 1.87258e-07)
(-1.34538e-09 -6.37704e-10 2.15675e-07)
(-2.71742e-10 -1.17712e-10 2.25758e-07)
(-3.50795e-10 9.53168e-10 3.4964e-07)
(1.76689e-09 -1.66975e-09 2.66106e-07)
(2.85724e-09 4.31218e-09 6.58753e-08)
(1.16875e-09 -1.24229e-11 4.34419e-08)
(-1.73099e-09 -1.77775e-09 1.8855e-08)
(-1.31273e-08 7.39803e-11 2.32208e-07)
(4.05e-10 -8.48812e-11 3.02661e-07)
(-1.92312e-09 4.92631e-10 2.71937e-07)
(-2.27911e-10 -1.37167e-09 1.91373e-07)
(1.08197e-09 2.22034e-10 2.89893e-08)
(6.58413e-10 -2.44405e-09 2.18467e-08)
(-8.2289e-10 -2.68759e-09 1.78672e-07)
(-1.48112e-09 1.64941e-09 2.34005e-07)
(-7.55049e-10 -1.38826e-09 3.17364e-07)
(1.04545e-09 -1.01567e-10 3.20478e-07)
(-2.04177e-09 2.50271e-10 1.97451e-07)
(-6.36609e-10 -2.48071e-10 3.52581e-07)
(3.33316e-09 6.00799e-10 3.73279e-07)
(-1.2861e-09 2.65579e-09 3.07779e-08)
(3.80457e-10 1.24906e-09 1.81336e-07)
(3.29224e-09 -1.85645e-09 7.12552e-08)
(-9.91563e-09 -1.09101e-09 9.75774e-08)
(-4.33848e-10 2.98584e-10 1.29245e-07)
(6.86694e-10 -5.14711e-10 1.40009e-07)
(-1.7442e-10 4.26734e-10 2.52881e-07)
(-3.1777e-09 2.01437e-09 1.8766e-08)
(1.98547e-10 -1.18822e-09 3.62613e-07)
(-4.28965e-10 9.0934e-11 2.72798e-07)
(-6.2061e-10 -4.84774e-10 2.20316e-07)
(1.4426e-09 -1.44993e-09 1.98912e-07)
(7.00542e-10 -1.97422e-09 1.71941e-07)
(-4.15506e-10 -8.84408e-10 2.66128e-07)
(-2.24759e-10 9.5224e-10 2.44912e-07)
(-1.06305e-09 3.89911e-10 3.11943e-07)
(-8.96293e-09 -8.96058e-10 1.6656e-07)
(-7.19268e-10 -3.36848e-10 2.7152e-07)
(-5.16855e-09 2.32702e-09 2.90308e-07)
(1.30934e-09 -1.13344e-09 1.80022e-08)
(-1.19028e-10 -2.28713e-10 3.12031e-07)
(2.249e-09 2.90782e-09 1.89862e-07)
(-4.07324e-09 -3.78604e-09 6.32653e-08)
(-1.93258e-09 2.74298e-09 1.69421e-07)
(1.17328e-10 2.92494e-10 3.47681e-07)
(-3.1115e-11 -2.0084e-09 2.22462e-07)
(1.3008e-09 3.06264e-09 1.16663e-07)
(-1.95276e-09 1.37728e-09 1.77289e-08)
(-3.03986e-10 2.45595e-10 2.60305e-07)
(1.65204e-09 6.53873e-09 3.33739e-07)
(-1.14451e-09 -1.98834e-10 2.37487e-07)
(-1.14091e-09 -3.4836e-10 1.86872e-07)
(-3.45636e-09 9.63193e-10 5.61516e-08)
(5.75778e-10 -3.58645e-11 2.51218e-07)
(-4.01301e-09 3.24015e-10 2.64587e-08)
(8.71118e-11 8.82551e-10 1.75512e-07)
(-2.43897e-08 1.22744e-09 2.08664e-07)
(2.2616e-09 7.54588e-10 2.58701e-07)
(-3.56789e-10 3.02353e-09 8.63127e-08)
(-2.18615e-09 2.66347e-09 1.80596e-07)
(-1.33055e-10 1.48828e-09 1.14087e-07)
(2.67655e-09 -2.33215e-09 4.64731e-08)
(3.2923e-10 5.96045e-10 4.8113e-07)
(-5.20049e-10 -7.55785e-10 2.16122e-07)
(-1.6668e-09 -6.49926e-10 1.72593e-08)
(-7.00364e-10 -1.71618e-10 2.82933e-07)
(-9.75655e-10 7.43124e-10 2.91175e-07)
(-6.03254e-10 2.22133e-09 3.79946e-08)
(3.09059e-09 4.59549e-09 1.25415e-07)
(-2.54046e-09 3.61561e-09 9.71284e-08)
(-8.26745e-10 1.51373e-11 1.91307e-07)
(1.44951e-12 -6.1782e-10 2.66038e-07)
(-1.32169e-09 1.30604e-09 3.49761e-08)
(2.85426e-09 -1.29513e-09 8.90348e-08)
(-3.50383e-10 1.95834e-09 1.00003e-07)
(1.91088e-09 1.52839e-09 1.74627e-07)
(-6.45449e-10 -8.86714e-10 3.45015e-07)
(-2.67276e-09 -1.84582e-09 2.29716e-08)
(2.06563e-09 5.48791e-10 3.66854e-07)
(-5.79695e-09 -1.33902e-09 2.37042e-07)
(3.56552e-10 -1.72222e-09 2.79862e-07)
(-2.97662e-09 -6.12182e-09 1.14195e-07)
(9.08525e-10 6.89414e-10 3.3462e-07)
(1.14198e-09 -2.17565e-09 2.23799e-08)
(-1.8085e-09 -4.47945e-10 2.97832e-07)
(1.59857e-10 -3.7406e-10 2.70912e-08)
(-7.3233e-10 -4.11409e-09 1.35801e-07)
(-8.31168e-11 1.86297e-09 2.27146e-07)
(-2.45849e-09 3.47104e-09 1.34967e-07)
(-2.50076e-09 1.48787e-09 1.86501e-08)
(4.74598e-10 -1.78246e-09 4.95433e-08)
(7.58237e-10 4.78208e-09 7.42268e-08)
(1.75523e-09 -4.18319e-09 1.29451e-07)
(-1.74094e-09 -3.82408e-10 3.24879e-07)
(-7.93499e-12 1.29928e-09 5.66046e-08)
(2.54886e-09 -4.22716e-09 1.33919e-07)
(-2.73392e-08 1.11232e-09 2.25778e-07)
(-4.64058e-10 -5.6568e-10 2.17327e-07)
(1.84831e-09 2.26003e-11 2.83423e-08)
(3.69899e-10 2.43846e-09 2.23817e-07)
(-1.54173e-08 -7.80713e-09 1.47284e-07)
(3.89176e-10 2.79773e-10 2.0441e-07)
(-1.92969e-09 1.443e-09 9.86577e-08)
(-1.05564e-09 -7.35294e-10 1.78687e-07)
(2.35832e-09 4.70937e-09 1.04623e-07)
(-8.59125e-10 8.55848e-10 1.6039e-07)
(-5.55587e-10 4.96252e-10 1.63856e-07)
(3.70409e-09 -6.03704e-09 7.07545e-08)
(9.00215e-11 -2.61962e-10 3.00787e-07)
(-4.77723e-09 -1.20288e-09 7.10345e-08)
(2.08047e-09 -1.31617e-09 1.51398e-08)
(-1.17127e-09 1.79545e-09 3.16839e-07)
(1.66157e-10 2.37186e-10 1.94601e-07)
(-2.1864e-09 1.36508e-09 2.9215e-07)
(1.25062e-09 -3.07501e-09 2.25881e-07)
(2.16194e-09 1.03756e-10 4.74518e-07)
(3.99397e-09 -4.32126e-10 1.35171e-07)
(1.95974e-09 -6.9068e-10 4.12911e-07)
(2.14385e-09 4.69688e-09 9.62649e-08)
(7.82425e-12 -2.2792e-10 1.55074e-07)
(4.3242e-09 1.99044e-09 3.0354e-07)
(-3.71249e-09 -2.48646e-09 3.16272e-08)
(-2.4518e-09 4.73685e-10 3.03136e-07)
(2.36568e-09 -2.65905e-09 1.11595e-07)
(1.41268e-09 2.6445e-09 2.9123e-08)
(-2.45619e-09 9.97143e-10 2.7612e-07)
(-2.34817e-09 1.24574e-10 6.12239e-08)
(5.10319e-12 1.39264e-10 2.02522e-07)
(-1.82764e-10 1.30627e-09 2.28285e-07)
(-3.2688e-10 9.65838e-10 3.72434e-07)
(1.61913e-10 6.27464e-09 9.42923e-08)
(1.88567e-09 2.75338e-11 2.95974e-07)
(3.05741e-09 6.96195e-10 1.50138e-07)
(8.29158e-11 4.06453e-10 3.27978e-07)
(-8.17235e-10 5.0629e-10 3.30238e-07)
(-4.09904e-10 1.53795e-09 2.91041e-07)
(-3.33482e-10 3.22437e-10 1.73109e-07)
(3.26181e-09 -1.28662e-09 4.75208e-08)
(4.3272e-10 5.70209e-10 6.85518e-08)
(7.58743e-10 -9.23518e-11 1.84271e-07)
(7.54212e-10 -2.94341e-09 2.90281e-07)
(4.59221e-10 2.15414e-09 2.76699e-08)
(1.10376e-09 -2.45157e-10 2.50183e-07)
(-8.93428e-11 9.32202e-10 4.89462e-07)
(3.05245e-10 1.05672e-09 3.60305e-07)
(9.66052e-10 1.3955e-09 3.90866e-07)
(-3.5503e-09 1.49015e-09 2.45729e-07)
(-1.51695e-09 2.14773e-09 1.9674e-08)
(6.84202e-10 -5.01364e-11 2.34184e-07)
(1.08993e-09 -1.90759e-09 1.45897e-07)
(-1.052e-09 1.76426e-09 2.68217e-07)
(-2.78403e-10 5.50193e-10 1.58523e-07)
(-2.05772e-09 -1.33477e-09 3.45733e-08)
(-5.24233e-10 -5.06801e-10 2.19824e-07)
(-3.48773e-09 4.35877e-09 1.48853e-07)
(-5.81956e-11 -4.31426e-10 2.42774e-07)
(4.19381e-10 4.98689e-10 2.83767e-07)
(-9.10904e-10 2.07813e-09 1.99844e-07)
(1.19457e-09 1.58944e-09 1.33253e-08)
(-2.04025e-09 9.61936e-10 1.95204e-08)
(-1.4685e-10 5.73742e-10 1.94558e-07)
(2.42049e-09 -1.16235e-09 3.16671e-07)
(-1.25327e-09 8.09216e-10 2.412e-07)
(-1.17065e-09 -1.22071e-09 1.8505e-07)
(-5.90957e-10 2.57425e-09 1.58312e-07)
(-8.32527e-10 1.86514e-09 2.56831e-07)
(5.95353e-11 1.51989e-09 2.98044e-07)
(6.76993e-10 1.58694e-09 1.89459e-08)
(-4.75953e-10 5.03365e-10 1.55374e-07)
(-1.94945e-08 1.14827e-09 1.74156e-07)
(-7.15464e-11 2.52077e-09 4.50387e-08)
(-6.1339e-10 5.47085e-09 8.3403e-08)
(-1.03582e-09 1.69249e-09 3.05872e-07)
(2.64735e-09 -1.19517e-09 2.11412e-07)
(2.19559e-10 -6.39237e-10 1.96726e-07)
(1.48097e-09 -1.08717e-09 2.33604e-07)
(-4e-09 2.91314e-09 1.37113e-07)
(2.48213e-10 -8.61026e-11 3.48965e-07)
(1.20912e-09 -5.59881e-09 1.77237e-07)
(9.98822e-10 -9.14491e-10 4.40473e-07)
(3.02178e-10 1.32105e-09 2.25722e-07)
(2.66734e-10 -2.87368e-10 2.52057e-07)
(2.02346e-10 -5.83626e-10 3.28068e-07)
(1.90945e-09 1.37051e-09 4.65797e-08)
(8.13556e-10 6.96218e-11 5.49155e-07)
(-3.07515e-10 -1.65129e-09 3.27297e-08)
(-1.66899e-08 -2.26577e-09 1.48939e-07)
(3.91119e-09 -2.75362e-09 1.13998e-07)
(-1.69149e-08 -8.55359e-11 1.61655e-07)
(1.12116e-09 1.21132e-09 2.12594e-07)
(-4.83548e-08 1.1398e-09 2.90754e-07)
(7.24234e-11 4.94151e-10 1.43663e-07)
(-1.1397e-09 -2.58932e-10 3.31173e-07)
(-2.93177e-09 3.31073e-10 3.41679e-07)
(3.81941e-10 8.80482e-10 2.21132e-07)
(-6.46106e-10 -2.03136e-10 3.40353e-08)
(-5.3544e-09 1.65644e-10 1.18484e-07)
(-3.01312e-08 2.11975e-09 2.10304e-07)
(-2.84013e-10 -2.74977e-10 2.25244e-07)
(-6.93565e-10 1.98959e-09 9.94112e-08)
(-2.28376e-08 1.48844e-09 2.18205e-07)
(-9.10715e-09 2.71467e-10 2.39015e-07)
(1.54142e-09 3.1645e-09 3.05126e-07)
(-1.66178e-09 -6.60222e-10 4.30689e-08)
(1.40947e-09 2.62627e-09 5.29357e-08)
(-2.3728e-10 -1.41625e-10 2.65287e-08)
(1.07932e-09 9.98279e-10 1.91224e-08)
(-2.26327e-10 7.04399e-12 4.31762e-08)
(-1.84611e-08 4.90528e-10 2.21562e-07)
(-1.09363e-09 -8.46004e-10 1.82903e-07)
(-1.73709e-09 -1.94213e-09 1.81991e-08)
(-2.54255e-09 6.90861e-10 2.00552e-08)
(5.28234e-10 6.32973e-11 3.73877e-07)
(-2.57739e-08 5.66066e-09 1.66149e-07)
(-2.10205e-09 1.79642e-10 4.57825e-08)
(-9.79706e-10 -5.98991e-11 2.28515e-07)
(-1.6016e-09 9.85925e-10 1.06454e-07)
(1.8256e-09 -5.98639e-10 2.0215e-07)
(1.40378e-09 2.15957e-09 4.33581e-08)
(-1.89893e-09 -2.39958e-09 9.18794e-08)
(3.34668e-10 2.13299e-09 1.90716e-07)
(1.37936e-09 4.30037e-10 2.7774e-07)
(1.37188e-09 1.6185e-09 4.03079e-07)
(-2.17015e-09 2.95617e-09 4.18685e-08)
(-6.0311e-10 -2.11032e-09 2.39998e-08)
(-3.58777e-08 3.80884e-10 2.01612e-07)
(-2.86688e-09 2.1143e-09 2.7304e-08)
(-2.79214e-10 2.99392e-09 3.1013e-07)
(-3.63468e-09 -1.17018e-09 2.80829e-08)
(7.80245e-10 3.04805e-09 1.46411e-07)
(-1.9518e-09 -3.54279e-10 3.19815e-07)
(3.00045e-09 5.0259e-10 4.4304e-07)
(-5.08406e-10 -1.30374e-09 5.77771e-08)
(1.33983e-09 -7.5786e-10 1.38215e-07)
(-2.10067e-09 -2.71302e-10 3.79508e-08)
(-3.54103e-09 -2.22995e-10 2.82005e-08)
(-2.83807e-10 -1.19135e-09 2.73421e-07)
(-1.97986e-09 9.79288e-10 1.4355e-08)
(7.00484e-10 4.156e-10 1.85041e-07)
(-4.82845e-10 -3.1207e-09 6.01868e-08)
(-5.41583e-10 2.73393e-09 3.29273e-07)
(-3.9136e-10 1.16786e-09 2.27072e-07)
(2.81228e-09 1.13374e-09 1.88067e-08)
(-2.46431e-09 -6.12499e-09 1.32613e-07)
(3.0151e-11 1.31678e-09 2.49605e-07)
(-1.30771e-10 1.49108e-09 3.0767e-08)
(9.78734e-10 7.64726e-11 2.94348e-07)
(-1.94734e-09 5.44062e-09 7.79107e-08)
(4.60191e-10 2.44174e-10 2.12214e-07)
(8.36933e-10 2.00386e-11 2.3847e-07)
(1.9781e-09 -1.42914e-11 5.42325e-08)
(-2.7819e-09 -5.72462e-10 2.08536e-08)
(-1.84816e-09 -6.4592e-10 9.08393e-08)
(-3.91014e-08 2.08138e-10 2.43639e-07)
(-1.27217e-09 -5.08708e-11 2.23278e-07)
(7.70969e-11 5.11228e-09 7.60603e-08)
(2.61843e-09 -5.15698e-10 1.8059e-07)
(3.57895e-10 1.01757e-09 2.39299e-08)
(1.02263e-09 2.80185e-11 2.12179e-07)
(1.06038e-09 1.41901e-09 2.28192e-08)
(-1.52934e-09 4.69681e-10 3.40589e-07)
(2.12139e-10 -2.52071e-10 3.01127e-07)
(-7.58813e-10 1.4464e-11 2.24824e-07)
(-1.39781e-09 -1.55746e-10 1.41386e-08)
(6.24291e-10 -9.47138e-10 3.44177e-07)
(-1.56283e-09 8.68806e-10 1.54597e-07)
(-1.46446e-10 6.31723e-11 3.60984e-07)
(2.1664e-10 7.03631e-10 6.18572e-08)
(-3.00895e-08 8.05311e-10 2.22568e-07)
(-2.06353e-09 8.65566e-10 2.64788e-07)
(1.07671e-09 -1.1741e-10 6.43236e-08)
(-3.17214e-10 6.17032e-10 2.67e-07)
(-3.94787e-08 4.59293e-09 2.10062e-07)
(-1.22294e-09 -6.45921e-10 1.8067e-07)
(-7.55049e-10 -1.80907e-09 3.21714e-08)
(-2.47471e-09 4.84417e-09 9.90241e-08)
(-2.65572e-10 2.92461e-10 1.99778e-07)
(1.69063e-09 -1.59209e-09 2.16978e-07)
(-1.08613e-09 1.29842e-09 3.12582e-08)
(-4.91314e-10 -4.37191e-09 2.16921e-07)
(3.8544e-09 3.10109e-09 1.55879e-07)
(-1.64207e-09 1.923e-09 2.4061e-08)
(-5.46618e-10 1.18417e-10 2.1118e-07)
(-1.54787e-08 7.43993e-10 1.58319e-07)
(-2.50923e-09 -5.35306e-09 3.23333e-07)
(-1.44249e-10 6.35408e-10 2.06797e-07)
(5.42523e-10 6.3734e-10 1.89022e-07)
(2.46319e-10 -6.93096e-10 3.17185e-07)
(1.44376e-09 -5.79471e-10 2.54301e-07)
(1.79088e-09 6.05735e-10 6.90431e-08)
(-8.8668e-10 4.76425e-09 7.06695e-08)
(3.72356e-11 1.2963e-09 3.90713e-07)
(-2.67538e-08 -1.15378e-09 2.24791e-07)
(3.68311e-10 2.03165e-09 2.07093e-07)
(2.2302e-09 -1.78284e-09 1.86749e-07)
(2.96354e-09 -1.46416e-09 1.25356e-07)
(-1.37477e-09 3.02121e-09 3.23237e-07)
(7.04587e-10 1.23923e-09 2.05812e-07)
(-1.75567e-09 -1.745e-09 1.79082e-07)
(-3.33211e-09 2.51061e-09 2.22889e-07)
(-1.6389e-09 2.31254e-09 4.31375e-08)
(-1.27412e-09 -7.55511e-10 1.67823e-07)
(-2.41323e-09 -1.84923e-09 3.83336e-08)
(1.93939e-09 -2.01068e-09 3.14094e-07)
(7.20725e-10 -4.33166e-10 3.32564e-07)
(-1.28347e-09 4.84981e-09 1.63732e-07)
(1.73779e-11 -1.63069e-09 1.59357e-07)
(1.00694e-09 -1.52675e-09 1.73732e-08)
(2.74853e-10 -9.9681e-10 1.03504e-07)
(-3.65788e-09 -1.71912e-09 7.4098e-08)
(-1.28589e-09 9.11178e-10 2.70755e-07)
(1.6082e-09 2.19927e-10 2.44103e-07)
(-2.37714e-08 -1.54046e-09 2.20568e-07)
(-2.16621e-09 9.51982e-10 3.17904e-07)
(-1.4674e-09 2.70277e-09 8.09396e-08)
(-1.11867e-08 5.095e-10 1.36573e-07)
(1.31957e-09 -4.12669e-09 2.43689e-07)
(1.84635e-09 8.97308e-10 2.65539e-08)
(1.10411e-09 -5.17788e-10 2.50674e-07)
(-1.98934e-10 1.47941e-09 5.29519e-08)
(-2.00964e-09 -4.06563e-10 2.06377e-07)
(3.97201e-09 -2.05634e-09 3.12289e-08)
(1.3566e-09 -5.79897e-10 3.68226e-07)