/*--------------------------------*- C++ -*----------------------------------*\
| =========                 |                                                 |
| \\      /  F ield         | OpenFOAM: The Open Source CFD Toolbox           |
|  \\    /   O peration     | Version:  2406                                  |
|   \\  /    A nd           | Website:  www.openfoam.com                      |
|    \\/     M anipulation  |                                                 |
\*---------------------------------------------------------------------------*/
FoamFile
{
    version     2.0;
    format      ascii;
    arch        "LSB;label=32;scalar=64";
    class       volVectorField;
    location    "52";
    object      momentum:momentum;
}
// * * * * * * * * * * * * * * * * * * * * * * * * * * * * * * * * * * * * * //

dimensions      [1 1 -1 0 0 0 0];

internalField   nonuniform List<vector> 
59516
(
(2.23546e-07 -1.97864e-09 -1.08474e-09)
(1.66245e-07 -2.01918e-10 -6.59913e-10)
(2.03235e-07 -1.27062e-09 -7.85583e-10)
(1.72994e-07 1.7697e-09 2.57996e-09)
(2.00034e-07 3.64916e-10 -8.02783e-09)
(5.03647e-08 -2.40689e-09 -5.37993e-09)
(2.097e-07 -2.94091e-09 -3.50261e-09)
(1.94606e-07 1.28588e-09 -1.96998e-10)
(1.56538e-07 1.34964e-09 -8.0594e-11)
(7.84536e-08 -1.52879e-09 3.10486e-09)
(2.08439e-07 -4.37937e-10 -3.28925e-09)
(1.01772e-07 3.80863e-10 -6.31862e-09)
(3.20544e-07 3.16695e-09 -4.69155e-11)
(1.55072e-08 -9.08638e-11 -1.48902e-10)
(1.49615e-07 3.60322e-09 8.19781e-09)
(8.37771e-08 5.82312e-09 -2.64659e-09)
(2.69523e-07 -3.71272e-09 -1.78248e-09)
(1.59755e-07 9.13896e-09 -9.97981e-09)
(3.29858e-07 1.74883e-08 1.88811e-09)
(3.73063e-07 -2.97018e-09 -2.6352e-10)
(9.95021e-08 1.69288e-09 -2.34529e-09)
(3.18026e-07 -1.86682e-09 5.43317e-10)
(3.51397e-07 -2.10154e-09 -5.43409e-09)
(3.4241e-08 -1.04114e-09 -2.73553e-10)
(3.12568e-07 -1.0294e-09 9.80689e-10)
(1.98568e-07 4.45597e-09 1.95068e-09)
(5.14682e-08 1.04062e-09 -3.55531e-09)
(7.40837e-08 6.32856e-09 3.36283e-10)
(1.445e-07 6.0381e-09 -1.28468e-09)
(1.31856e-08 -2.05551e-09 5.12541e-10)
(1.89454e-07 -3.67908e-08 -8.1121e-09)
(8.37097e-08 6.72876e-09 -1.04496e-09)
(1.7418e-07 2.5462e-10 1.08303e-09)
(1.74454e-07 -1.47304e-09 3.35489e-09)
(1.3361e-07 5.18326e-09 3.78281e-09)
(3.9924e-07 7.36866e-10 -1.16568e-09)
(1.27888e-08 -1.24838e-09 -1.78093e-09)
(1.31663e-07 5.04425e-09 -1.27295e-08)
(2.6661e-07 -1.07739e-08 -1.02886e-09)
(2.82294e-07 -2.39542e-10 -1.30235e-09)
(2.55332e-07 -1.53489e-09 5.16909e-10)
(4.06951e-07 -2.41519e-08 -2.24105e-08)
(3.43289e-07 -9.39181e-09 -7.72117e-09)
(1.09835e-07 -7.10977e-10 3.68585e-10)
(2.6482e-07 -9.88024e-09 -7.29739e-10)
(1.01046e-07 -1.4076e-09 -2.34892e-09)
(3.24485e-07 -7.29506e-09 -1.09183e-08)
(2.54723e-07 -7.9687e-09 -1.53121e-09)
(2.51869e-07 -2.02814e-08 2.79079e-08)
(2.41148e-07 1.08928e-08 8.59589e-09)
(1.63913e-07 1.65031e-08 -2.2877e-08)
(7.51722e-08 -6.45847e-09 4.42496e-09)
(3.13952e-07 2.59837e-09 -6.13971e-09)
(2.98969e-07 -1.31988e-09 2.88972e-10)
(8.21648e-08 5.22663e-09 -8.91343e-12)
(2.46105e-07 5.69511e-09 -1.68494e-09)
(2.03444e-07 1.16627e-08 1.20292e-08)
(7.60451e-08 6.55471e-09 -4.59604e-09)
(2.11286e-07 3.58195e-10 -1.98391e-10)
(1.45814e-07 6.93723e-09 8.75451e-09)
(2.08693e-07 -6.60313e-10 2.61544e-10)
(1.49972e-08 1.87714e-09 -6.5228e-10)
(2.69475e-07 9.24788e-10 9.85571e-10)
(3.43608e-07 5.65827e-09 4.31549e-09)
(2.89069e-07 5.05492e-10 -1.67254e-09)
(2.15392e-07 5.60804e-09 8.05181e-09)
(1.77846e-08 -1.20684e-09 1.6313e-09)
(6.53426e-08 4.23053e-10 -3.66288e-10)
(1.98327e-07 -8.25926e-09 3.63042e-08)
(1.69046e-07 1.56715e-09 -4.20159e-09)
(5.13222e-08 1.4198e-09 4.21546e-10)
(1.58213e-07 2.288e-09 -1.26182e-10)
(2.29249e-08 1.43706e-09 -3.49672e-09)
(1.86185e-07 1.90034e-09 9.35608e-10)
(3.83208e-07 5.45616e-11 -9.31505e-10)
(3.6053e-07 -5.79842e-09 -7.11724e-09)
(2.14994e-07 -3.52825e-09 -5.15315e-09)
(2.26721e-07 -3.53197e-10 3.34282e-10)
(8.36962e-08 -2.79044e-09 2.62784e-09)
(1.93197e-07 3.96224e-09 1.01252e-08)
(4.98594e-08 3.04959e-09 1.4599e-09)
(1.71485e-07 4.86667e-09 7.33126e-09)
(1.82841e-07 2.47461e-09 7.91364e-09)
(1.78242e-08 -6.77174e-10 2.49613e-09)
(2.15176e-07 4.84858e-09 9.68e-09)
(3.84825e-07 -1.68047e-09 9.42029e-10)
(3.11731e-08 -1.13661e-09 4.91257e-10)
(5.02231e-07 -9.26423e-10 -3.66579e-10)
(1.09154e-07 1.39211e-09 4.40533e-09)
(1.66776e-07 1.31774e-08 -9.05838e-09)
(1.83396e-07 -1.23063e-09 -1.60607e-08)
(1.89474e-07 2.16914e-09 -4.73021e-10)
(2.62797e-07 4.26534e-10 -2.80931e-10)
(1.82456e-07 1.53635e-09 -4.5745e-10)
(1.84591e-07 3.03504e-10 -1.90089e-11)
(1.83426e-07 -1.75981e-08 6.57645e-09)
(1.24256e-07 -2.99514e-10 4.31759e-10)
(8.37389e-08 -3.01706e-09 -6.63481e-09)
(1.15152e-07 4.34519e-09 -1.87441e-09)
(2.07757e-07 -1.19536e-09 2.35921e-09)
(6.12831e-08 9.62671e-10 2.32423e-09)
(2.59007e-08 1.33698e-09 -2.93947e-09)
(2.28868e-08 8.11711e-10 3.14785e-09)
(8.37428e-08 -1.27617e-09 -4.56729e-09)
(2.33381e-07 1.31437e-09 -3.86271e-10)
(1.64194e-07 -4.59628e-10 -2.96331e-10)
(5.44352e-08 4.79083e-09 -1.966e-09)
(1.36587e-07 4.33201e-10 -1.06044e-09)
(1.7419e-07 -1.19506e-09 3.41048e-10)
(1.86463e-07 1.16622e-09 -7.53926e-09)
(2.80311e-07 2.89994e-08 -3.04426e-08)
(4.24413e-08 4.3123e-09 -6.67184e-10)
(1.85351e-07 2.34859e-09 -1.15801e-08)
(2.19226e-07 3.23617e-08 -1.62479e-08)
(2.21948e-07 7.42061e-11 -2.61481e-13)
(1.3592e-07 1.49807e-09 1.56273e-09)
(1.24952e-07 1.39393e-09 -4.69079e-09)
(1.43455e-07 -1.00683e-10 8.11464e-10)
(1.80547e-08 -2.61419e-10 8.72385e-10)
(2.62654e-07 2.11116e-09 5.90352e-10)
(4.20973e-07 -5.24631e-10 6.6467e-10)
(1.78601e-07 -4.10007e-10 6.74676e-10)
(1.60076e-07 -2.32187e-10 9.02346e-10)
(1.85408e-07 -5.32667e-10 5.73257e-10)
(1.33068e-07 -1.79309e-08 2.75341e-09)
(1.43719e-07 2.0698e-09 -4.85629e-09)
(3.52304e-08 -6.57692e-10 2.30033e-09)
(2.1225e-07 -2.11236e-08 -1.75359e-09)
(1.63206e-07 -5.00965e-09 2.38736e-08)
(1.63206e-07 4.12404e-10 -5.26007e-11)
(2.90893e-07 3.54076e-10 8.86452e-11)
(3.21468e-07 4.89097e-09 5.53316e-09)
(2.22618e-08 1.32305e-09 -1.52554e-09)
(2.54989e-07 -2.88804e-10 1.00977e-09)
(3.12158e-07 3.80274e-09 8.59991e-10)
(1.95383e-07 -1.07212e-09 -3.59561e-09)
(1.5178e-07 1.81011e-08 -1.26701e-08)
(3.11371e-07 -9.30926e-10 8.51368e-10)
(5.11281e-08 3.54005e-09 1.66424e-10)
(1.57904e-07 7.97567e-10 -2.03028e-09)
(7.50648e-08 -1.49659e-09 -3.83928e-09)
(3.38653e-07 -9.5091e-10 5.99016e-10)
(1.36409e-08 5.8485e-10 1.18877e-09)
(1.49662e-07 -1.24384e-09 -6.73182e-10)
(2.20244e-07 7.18161e-10 1.26508e-09)
(2.83648e-07 3.94394e-09 7.68071e-10)
(2.02794e-07 -7.89389e-09 -2.96509e-09)
(2.04835e-07 3.10342e-09 -5.22859e-09)
(6.40326e-08 -1.03581e-09 1.78417e-09)
(2.05534e-07 -1.26847e-09 -1.71973e-09)
(3.16261e-07 -9.67248e-10 -2.58439e-09)
(5.13315e-08 -1.96411e-09 3.34774e-11)
(3.89492e-07 -2.15155e-09 2.64006e-09)
(2.18526e-07 -3.57246e-10 3.52337e-10)
(1.57233e-07 -3.65253e-10 3.82086e-09)
(1.43334e-08 -2.7019e-10 1.54612e-09)
(2.75455e-07 -8.50795e-10 -5.26212e-10)
(3.2793e-07 4.35402e-09 -4.37898e-10)
(1.276e-07 1.99412e-09 3.67656e-10)
(1.54207e-08 1.84498e-09 -2.01153e-09)
(8.77603e-08 2.17195e-09 -4.48328e-09)
(1.10211e-07 -5.99226e-09 -3.74729e-09)
(3.90219e-08 -1.58941e-09 3.8196e-10)
(2.19391e-08 -1.87983e-10 -4.27416e-10)
(1.61115e-07 3.01891e-09 3.91362e-09)
(3.3339e-07 -1.25102e-10 2.07821e-09)
(1.53787e-07 -1.97002e-09 9.60223e-10)
(2.88038e-07 1.56327e-09 2.06407e-11)
(1.69255e-08 -1.05798e-09 1.93886e-09)
(2.15197e-07 -9.12277e-10 -2.12542e-10)
(8.60078e-08 1.42489e-09 1.21178e-09)
(6.60956e-08 1.00556e-09 -1.01319e-09)
(1.0431e-07 2.68969e-09 1.31151e-09)
(1.50896e-07 -3.54559e-10 5.86861e-10)
(8.36141e-08 -1.27608e-09 4.02639e-10)
(4.52919e-07 -5.53117e-09 -1.83624e-08)
(2.51711e-07 -5.97668e-10 -1.37682e-09)
(3.10026e-07 -1.20032e-08 -7.49093e-09)
(1.4669e-07 -1.77223e-09 6.82701e-09)
(6.10536e-08 -1.87561e-10 -8.49643e-10)
(3.07918e-07 4.82782e-09 1.38516e-09)
(4.18427e-08 -3.71093e-09 -1.69615e-09)
(2.9157e-08 -3.51002e-10 -2.29258e-09)
(1.03201e-07 -2.58992e-09 3.10892e-10)
(2.10602e-07 3.00066e-10 7.70968e-10)
(9.59009e-08 5.17604e-10 1.16689e-09)
(4.50994e-08 -7.25649e-10 -3.53235e-09)
(1.97832e-08 1.58618e-11 2.66532e-10)
(1.89768e-07 2.86636e-10 -1.22275e-10)
(2.23302e-07 -3.9976e-09 -3.3978e-10)
(1.58754e-07 -6.27644e-10 3.23617e-09)
(1.129e-07 6.9116e-09 -6.08309e-11)
(2.16924e-07 -1.25525e-09 -7.16898e-11)
(9.25439e-08 3.41529e-09 1.27179e-10)
(3.39936e-07 -1.98321e-10 -1.00077e-09)
(2.81986e-08 -2.52538e-10 7.80399e-10)
(9.53753e-08 1.31064e-09 -1.32931e-10)
(5.55397e-08 -1.55657e-09 3.91734e-10)
(1.83762e-07 4.89344e-09 6.10897e-09)
(2.65726e-07 1.19252e-09 -9.53685e-10)
(7.63807e-08 -2.6681e-09 2.90036e-10)
(2.00026e-07 -6.12731e-10 4.10469e-10)
(3.08878e-07 -2.43339e-09 2.52621e-09)
(1.56243e-08 1.69017e-09 -1.15383e-09)
(2.18664e-07 -1.74034e-09 -8.72671e-10)
(2.39027e-07 6.06793e-10 4.63341e-10)
(3.59395e-07 7.89861e-10 -4.35701e-11)
(2.01021e-07 -1.95748e-09 -8.02351e-10)
(1.77974e-08 -5.69479e-10 1.68914e-10)
(2.99645e-07 -5.43554e-09 -2.20256e-10)
(5.95817e-08 4.21222e-09 3.7487e-09)
(2.50871e-08 -4.13308e-09 -6.80471e-10)
(2.3163e-07 3.39129e-10 -2.36176e-09)
(9.33151e-08 -2.01299e-09 1.27957e-09)
(2.90996e-07 3.79421e-09 2.86831e-10)
(2.92753e-07 1.68029e-11 -5.63922e-10)
(2.72745e-07 2.64173e-09 9.0521e-10)
(2.08553e-07 -1.92916e-09 5.79579e-10)
(8.14477e-08 3.29163e-09 -4.36081e-09)
(2.199e-07 -2.19557e-10 1.14221e-09)
(1.16525e-07 4.47153e-09 4.13166e-09)
(1.93584e-07 6.73391e-10 1.5976e-10)
(1.82502e-07 7.4882e-10 1.03123e-09)
(7.20576e-08 -3.42771e-10 1.21574e-09)
(3.02683e-07 -4.88499e-11 -5.66733e-10)
(3.16834e-07 -7.79227e-10 -1.07971e-09)
(3.12141e-08 -3.53034e-10 1.58506e-09)
(6.39503e-08 2.05726e-09 -3.02486e-09)
(2.03342e-07 6.25719e-10 7.4417e-10)
(1.15469e-07 5.3693e-10 -8.75821e-09)
(2.46228e-07 -8.505e-10 5.9329e-11)
(1.83801e-07 2.52744e-10 -4.15155e-10)
(3.3221e-07 1.00631e-09 1.21988e-09)
(2.60852e-08 -2.03911e-09 -1.47313e-09)
(3.05447e-08 8.26417e-10 -1.46734e-09)
(3.81981e-08 1.02068e-09 -1.38016e-09)
(1.07057e-07 6.44295e-10 1.50468e-10)
(1.72019e-07 -2.07363e-09 1.16545e-09)
(4.23499e-07 2.80875e-09 3.39411e-09)
(8.50761e-08 -1.88631e-09 2.32359e-09)
(2.6145e-07 -3.57868e-10 7.8808e-10)
(1.82327e-08 3.24197e-10 2.70111e-09)
(1.07907e-07 8.94761e-11 1.8336e-09)
(2.61278e-08 1.6052e-10 2.89507e-09)
(1.70376e-07 6.35498e-10 4.6405e-10)
(1.50215e-07 -8.87304e-10 -3.42971e-10)
(1.97561e-07 3.47832e-10 1.37211e-09)
(1.82837e-07 2.78081e-09 -4.1079e-09)
(2.8237e-07 1.87855e-10 -8.76687e-10)
(1.97346e-07 5.9729e-10 9.28121e-10)
(3.8619e-07 -2.88963e-10 2.36995e-10)
(2.12953e-07 -5.7808e-11 9.90861e-10)
(2.01602e-07 3.79824e-10 7.47422e-10)
(2.8223e-07 1.31621e-09 -1.67182e-09)
(2.83536e-07 2.32836e-09 1.94149e-09)
(3.03049e-07 1.50233e-10 1.59581e-09)
(1.09666e-07 9.85979e-11 -5.33579e-10)
(2.8576e-07 1.87704e-09 3.33761e-09)
(7.85656e-08 -7.88311e-10 -4.35831e-09)
(9.56874e-08 7.78715e-10 3.34457e-09)
(2.17077e-07 1.37832e-09 -1.76696e-09)
(2.65292e-07 -5.30278e-10 6.161e-10)
(2.36452e-07 6.52586e-09 3.25389e-09)
(2.92561e-07 4.10071e-10 6.49273e-10)
(7.33141e-08 9.71806e-11 1.60044e-09)
(1.0487e-07 4.05464e-09 -2.86912e-09)
(3.07551e-07 -2.97433e-10 -2.54363e-09)
(2.11442e-07 4.56897e-09 1.15179e-09)
(5.98379e-08 -9.98772e-10 -9.3706e-10)
(7.27597e-08 3.76774e-10 -2.09591e-09)
(1.63916e-07 1.76663e-09 -5.61217e-09)
(1.91407e-07 -4.08091e-10 -2.36119e-10)
(3.03416e-07 -7.61196e-09 8.59817e-11)
(1.46327e-07 -2.33649e-09 1.50884e-09)
(3.39113e-07 -2.10151e-09 -1.07617e-09)
(1.86988e-07 -1.22855e-09 4.89021e-09)
(1.88536e-08 2.26084e-09 -1.27777e-09)
(3.00545e-07 5.85614e-10 1.52645e-09)
(2.78932e-08 1.79595e-09 -2.40071e-09)
(5.09446e-08 -2.08309e-09 1.40769e-09)
(3.67524e-07 9.0476e-10 1.76238e-09)
(2.49417e-07 2.40867e-10 -7.07059e-10)
(2.70061e-08 2.90585e-09 2.88705e-09)
(2.95161e-07 2.14983e-09 1.22749e-09)
(2.43568e-07 4.87976e-09 -1.34605e-11)
(2.52244e-07 -1.96324e-09 2.86961e-09)
(3.36407e-07 -1.09813e-09 1.84487e-10)
(2.24627e-08 2.66644e-09 4.88016e-10)
(2.90257e-07 8.61436e-10 5.86293e-10)
(1.55393e-07 -5.69363e-11 8.09177e-11)
(1.63728e-07 1.57334e-10 6.67532e-10)
(2.521e-07 1.43074e-09 1.53564e-09)
(1.70388e-07 1.27521e-09 8.45158e-10)
(1.74287e-07 9.46914e-10 -3.59397e-10)
(2.70009e-07 1.27617e-09 3.74696e-10)
(3.75311e-08 -1.35389e-09 -1.73105e-09)
(2.8673e-07 -5.50959e-10 9.08553e-10)
(1.89721e-07 -6.34291e-10 -8.08513e-10)
(3.76589e-07 2.38487e-10 5.65956e-10)
(2.73728e-07 1.1208e-09 1.14979e-09)
(3.05542e-07 -1.16843e-09 1.64583e-09)
(1.32817e-07 2.07776e-09 2.95094e-09)
(1.91538e-08 -2.91471e-10 1.32859e-09)
(3.42934e-08 -8.31498e-10 5.67668e-10)
(5.13173e-07 -3.12845e-09 -2.88563e-09)
(1.75951e-08 -1.02168e-09 2.54024e-09)
(1.69227e-07 -9.37581e-10 -2.97502e-09)
(7.15777e-08 3.97888e-09 1.58673e-09)
(3.19161e-07 1.40718e-09 1.58021e-09)
(3.79667e-07 -9.89581e-10 -5.65214e-10)
(3.15054e-07 -1.17796e-10 -1.64103e-09)
(1.19922e-07 1.84605e-10 -2.71027e-09)
(2.91623e-07 4.57915e-09 -6.87618e-09)
(6.57503e-08 -5.48477e-09 4.43137e-09)
(8.65625e-08 2.06957e-09 1.75733e-09)
(2.0195e-07 1.16466e-09 1.35261e-11)
(1.53358e-07 1.61408e-09 -1.48421e-09)
(2.6947e-07 3.0898e-08 8.76673e-09)
(1.89079e-07 -4.04811e-09 1.95703e-09)
(6.22287e-08 -2.57965e-10 -5.89924e-10)
(1.00383e-07 -1.48616e-09 3.21762e-09)
(2.04163e-07 -1.90355e-09 -3.13408e-09)
(2.2014e-07 -5.06488e-11 -4.99672e-10)
(4.34595e-07 -2.04654e-09 2.03642e-09)
(2.32418e-07 2.07352e-10 1.24257e-09)
(4.91934e-07 -3.81161e-09 1.16345e-09)
(1.66576e-07 6.56409e-09 7.97375e-09)
(3.34616e-07 1.75306e-09 2.22592e-09)
(2.81454e-07 1.51108e-09 1.71232e-09)
(1.98666e-07 -1.01332e-09 1.4131e-10)
(3.40457e-07 -1.64498e-09 1.53527e-09)
(1.01469e-07 2.13365e-09 -6.06561e-09)
(2.24297e-08 -1.48575e-09 -2.6357e-09)
(2.94631e-07 -2.67199e-09 5.02052e-10)
(5.63218e-08 -2.73673e-09 3.09517e-09)
(2.72528e-08 9.6961e-11 4.86966e-11)
(3.9788e-07 1.25086e-09 4.3043e-09)
(1.99226e-07 -2.96339e-10 5.8029e-10)
(1.06243e-07 -2.27956e-09 -5.37535e-09)
(2.59352e-07 -1.10229e-09 5.53794e-10)
(3.31203e-07 -1.96516e-09 8.89967e-10)
(4.3708e-07 -1.6246e-09 -9.5744e-10)
(2.72413e-07 -1.96395e-09 -5.23341e-10)
(3.01958e-08 1.45249e-09 5.2889e-11)
(3.17819e-07 -4.32582e-10 1.17962e-10)
(2.2432e-07 -9.99911e-10 8.58691e-10)
(9.60224e-08 1.99031e-10 1.40342e-09)
(3.04239e-07 2.96895e-11 1.79118e-09)
(2.57354e-07 -4.4022e-10 6.15621e-10)
(1.72307e-07 1.91548e-11 -1.14367e-09)
(1.97852e-07 3.40849e-10 -1.63873e-09)
(2.77574e-07 -2.12661e-09 2.77175e-09)
(2.00738e-07 -1.70022e-09 5.12749e-10)
(7.59066e-08 -3.92683e-10 -1.77738e-10)
(1.94398e-08 8.16936e-10 -6.28401e-10)
(3.80313e-08 -2.81451e-09 -1.95375e-10)
(2.14808e-07 1.0785e-09 -6.32565e-10)
(2.67841e-07 -2.10933e-08 3.30012e-08)
(1.15789e-07 -6.52529e-09 -9.44402e-09)
(1.08747e-07 5.1161e-10 5.20305e-10)
(2.44215e-07 1.70966e-10 4.39893e-09)
(3.06341e-07 4.39271e-10 2.05582e-09)
(2.32214e-07 -2.31518e-09 6.10384e-09)
(3.59899e-07 -1.67209e-09 1.93395e-09)
(3.35108e-07 -2.09844e-09 -1.10541e-09)
(2.23737e-07 -1.36761e-10 9.0538e-10)
(1.38749e-07 7.54365e-10 3.24581e-10)
(2.30342e-08 -7.15635e-10 -2.49302e-10)
(2.41081e-07 -4.75514e-08 5.84494e-09)
(8.47532e-08 2.14951e-09 6.99517e-10)
(6.16017e-08 -2.73721e-09 -6.26536e-10)
(6.5283e-08 1.40913e-09 5.1457e-10)
(1.74513e-07 -6.8603e-10 -4.51438e-10)
(1.70148e-07 -1.05174e-09 -4.87659e-11)
(2.37285e-07 8.46174e-10 -1.79507e-09)
(1.63013e-08 8.82153e-10 -1.39857e-09)
(1.6783e-07 -5.31743e-10 4.31975e-10)
(6.23185e-08 1.46348e-09 -1.22477e-09)
(1.88901e-07 -2.7099e-10 -1.00318e-10)
(5.36538e-08 -7.23794e-10 -5.62476e-10)
(1.43861e-07 -3.41129e-09 2.74106e-09)
(2.13954e-07 -5.70466e-09 1.66732e-09)
(1.85517e-07 -1.4727e-09 1.35841e-09)
(1.80673e-08 1.4346e-09 -1.95476e-09)
(1.09345e-07 -1.22688e-09 4.5326e-09)
(2.37095e-07 -4.08888e-10 1.01289e-09)
(2.41453e-08 -1.50088e-09 -1.93979e-09)
(2.89643e-07 2.88488e-09 2.10443e-08)
(1.79666e-07 -1.30517e-09 4.08268e-09)
(3.01034e-07 -1.15915e-09 -4.77759e-09)
(1.96073e-07 4.33175e-09 -6.07022e-09)
(9.16988e-08 -1.30444e-09 2.20704e-09)
(3.96705e-07 1.22697e-09 4.13309e-10)
(1.42002e-07 -1.45589e-08 -1.32189e-08)
(3.39938e-07 2.25927e-10 1.37175e-10)
(1.55513e-07 1.20703e-08 1.26111e-08)
(1.37804e-07 -6.3114e-09 8.52399e-10)
(1.40238e-07 -9.89895e-10 -3.25788e-09)
(2.79154e-07 1.25014e-10 3.93824e-10)
(5.52402e-07 9.33049e-10 1.12061e-09)
(7.79488e-08 -7.79311e-10 9.42182e-10)
(3.3383e-07 9.94438e-10 -1.53028e-09)
(1.17184e-07 -5.75864e-10 -2.7487e-09)
(4.48981e-07 5.40471e-10 1.23886e-09)
(3.42214e-07 -3.76466e-10 1.81399e-09)
(6.76197e-08 1.99288e-09 -5.14424e-09)
(2.16226e-07 -1.83419e-09 2.99224e-10)
(3.81158e-07 -4.72614e-09 4.27757e-09)
(2.2778e-07 9.94826e-10 -8.88416e-10)
(2.22583e-07 1.09748e-09 7.85762e-10)
(2.28356e-08 -7.91251e-10 -2.87551e-09)
(1.91851e-08 9.54198e-10 -2.40702e-09)
(2.91331e-07 2.71674e-09 -3.82426e-09)
(2.9046e-07 -5.19719e-11 -1.46892e-10)
(2.27494e-07 -1.79292e-09 -7.69597e-10)
(3.46099e-08 3.65153e-10 -2.57877e-09)
(9.06228e-08 -8.76696e-10 1.69273e-10)
(2.97406e-07 -2.87811e-09 -2.34655e-09)
(1.72603e-07 -2.32965e-10 1.58085e-10)
(3.16245e-07 -8.31263e-11 1.70066e-09)
(2.92952e-07 3.44115e-10 -8.96747e-10)
(2.22869e-07 7.87497e-10 8.73643e-10)
(2.36996e-07 2.0425e-09 6.77851e-10)
(1.19293e-07 7.48642e-10 4.16057e-10)
(2.19346e-07 7.37659e-10 -2.11588e-10)
(8.60376e-08 -1.64133e-09 -4.15696e-09)
(2.92172e-07 2.65683e-10 -9.03343e-10)
(1.87258e-07 -7.08181e-10 -1.83839e-09)
(2.15675e-07 5.22482e-10 1.39418e-09)
(2.25758e-07 2.12228e-10 -2.0654e-10)
(3.4964e-07 -9.51142e-10 3.56251e-10)
(2.66106e-07 2.35885e-10 -2.41957e-09)
(6.58753e-08 3.77131e-09 3.54061e-09)
(4.34419e-08 1.11701e-09 3.44094e-10)
(1.8855e-08 1.63701e-09 -1.86466e-09)
(2.32208e-07 6.40639e-09 1.14581e-08)
(3.02661e-07 -1.00084e-10 -4.01513e-10)
(2.71937e-07 -1.45545e-09 1.35009e-09)
(1.91373e-07 1.3843e-09 1.30833e-10)
(2.89893e-08 -9.51139e-11 1.10042e-09)
(2.18467e-08 -3.50712e-10 2.50677e-09)
(1.78672e-07 -9.37459e-10 2.6498e-09)
(2.34005e-07 -8.44284e-11 2.2152e-09)
(3.17364e-07 -7.97793e-10 1.36414e-09)
(3.20478e-07 9.26069e-10 4.95656e-10)
(1.97451e-07 -1.70231e-09 -1.15481e-09)
(3.52581e-07 1.82691e-10 6.58357e-10)
(3.73279e-07 1.93226e-09 2.78159e-09)
(3.07779e-08 -6.19698e-10 2.88501e-09)
(1.81336e-07 -2.83222e-10 1.27463e-09)
(7.12552e-08 6.75625e-10 3.71871e-09)
(9.75774e-08 -9.75398e-09 2.09042e-09)
(1.29245e-07 2.37544e-10 4.70052e-10)
(1.40009e-07 8.46565e-10 -1.40724e-10)
(2.52881e-07 -2.83553e-10 3.63487e-10)
(1.8766e-08 -3.53762e-09 -1.28091e-09)
(3.62613e-07 6.94604e-10 -9.84288e-10)
(2.72798e-07 -2.09776e-10 -3.85064e-10)
(2.20316e-07 2.02345e-10 7.61065e-10)
(1.98912e-07 2.03594e-09 1.95834e-10)
(1.71941e-07 -9.67866e-10 1.85783e-09)
(2.66128e-07 8.61523e-11 9.73345e-10)
(2.44912e-07 8.98062e-10 3.88282e-10)
(3.11943e-07 1.08749e-09 3.15399e-10)
(1.6656e-07 6.91431e-09 -5.77317e-09)
(2.7152e-07 6.03589e-10 -5.16229e-10)
(2.90308e-07 -5.60446e-09 -8.47906e-10)
(1.80022e-08 -1.15287e-09 1.29226e-09)
(3.12031e-07 2.15062e-10 1.42217e-10)
(1.89862e-07 3.67357e-09 1.35217e-10)
(6.32653e-08 -1.8416e-09 5.24727e-09)
(1.69421e-07 1.60733e-09 -2.94538e-09)
(3.47681e-07 1.09919e-10 -2.95358e-10)
(2.22462e-07 -7.49284e-10 1.86366e-09)
(1.16663e-07 3.11161e-10 -3.31285e-09)
(1.77289e-08 -1.61938e-09 -1.75721e-09)
(2.60305e-07 -1.46512e-10 -3.62297e-10)
(3.33739e-07 4.48868e-09 -5.03349e-09)
(2.37487e-07 -6.27051e-10 -9.77883e-10)
(1.86872e-07 -5.25874e-11 1.19174e-09)
(5.61516e-08 2.57972e-09 2.49384e-09)
(2.51218e-07 5.10221e-11 -5.74633e-10)
(2.64587e-08 2.13865e-09 -3.41107e-09)
(1.75512e-07 2.16413e-10 -8.60029e-10)
(2.08664e-07 2.32566e-08 -7.44934e-09)
(2.58701e-07 -2.10254e-09 -1.12409e-09)
(8.63127e-08 4.66281e-11 3.04415e-09)
(1.80596e-07 -2.09008e-09 -2.7395e-09)
(1.14087e-07 1.41911e-10 -1.48746e-09)
(4.64731e-08 2.62569e-09 2.38926e-09)
(4.8113e-07 1.00365e-10 6.7349e-10)
(2.16122e-07 -3.9174e-10 8.2958e-10)
(1.72593e-08 5.96677e-10 1.6866e-09)
(2.82933e-07 2.99611e-10 6.55893e-10)
(2.91175e-07 7.74681e-10 9.50792e-10)
(3.79946e-08 -9.16659e-11 -2.29996e-09)
(1.25415e-07 5.5351e-09 -1.81323e-10)
(9.71284e-08 3.62118e-09 2.5325e-09)
(1.91307e-07 -8.73224e-11 8.2226e-10)
(2.66038e-07 -1.69951e-11 6.17588e-10)
(3.49761e-08 -9.35e-10 1.60573e-09)
(8.90348e-08 -2.97924e-09 -9.73786e-10)
(1.00003e-07 1.98308e-09 -1.5884e-10)
(1.74627e-07 2.36666e-09 6.21578e-10)
(3.45015e-07 3.75785e-10 1.03036e-09)
(2.29716e-08 1.24704e-09 -2.99927e-09)
(3.66854e-07 -1.20791e-09 1.76322e-09)
(2.37042e-07 5.86372e-09 -1.00718e-09)
(2.79862e-07 -7.51721e-10 1.59e-09)
(1.14195e-07 4.90099e-09 -4.72411e-09)
(3.3462e-07 9.81129e-10 5.8146e-10)
(2.23799e-08 -2.85306e-10 -2.44053e-09)
(2.97832e-07 -1.64262e-09 -8.79262e-10)
(2.70912e-08 -4.03498e-10 -5.16234e-11)
(1.35801e-07 -3.7183e-09 1.90692e-09)
(2.27146e-07 -1.85971e-09 1.37979e-10)
(1.34967e-07 -4.02587e-09 -1.37283e-09)
(1.86501e-08 2.17609e-09 1.93189e-09)
(4.95433e-08 9.75697e-10 -1.56538e-09)
(7.42268e-08 -3.99863e-09 2.73024e-09)
(1.29451e-07 2.59793e-09 -3.71896e-09)
(3.24879e-07 2.49571e-10 -1.76488e-09)
(5.66046e-08 -1.29819e-09 5.37961e-11)
(1.33919e-07 4.35521e-09 -2.32328e-09)
(2.25778e-07 -1.25784e-08 -2.42993e-08)
(2.17327e-07 3.96112e-11 7.30599e-10)
(2.83423e-08 1.81836e-09 3.32133e-10)
(2.23817e-07 7.19951e-10 -2.35894e-09)
(1.47284e-07 1.60695e-08 -6.35731e-09)
(2.0441e-07 -3.67449e-10 -3.07753e-10)
(9.86577e-08 -1.70723e-10 -2.40349e-09)
(1.78687e-07 1.26047e-10 1.28029e-09)
(1.04623e-07 -4.2293e-09 -3.13892e-09)
(1.6039e-07 9.17986e-10 7.92385e-10)
(1.63856e-07 -1.41661e-10 -7.31352e-10)
(7.07545e-08 3.1241e-09 -6.35659e-09)
(3.00787e-07 5.51907e-11 -2.71444e-10)
(7.10345e-08 3.36151e-09 3.60127e-09)
(1.51398e-08 2.30625e-09 8.61317e-10)
(3.16839e-07 1.87718e-09 -1.03524e-09)
(1.94601e-07 -2.46779e-10 1.51543e-10)
(2.9215e-07 2.34121e-09 -1.07822e-09)
(2.25881e-07 2.98434e-09 -1.45377e-09)
(4.74518e-07 -2.15881e-09 1.5588e-10)
(1.35171e-07 3.97691e-09 -5.68092e-10)
(4.12911e-07 -1.87196e-09 9.01867e-10)
(9.62649e-08 -3.08047e-09 4.14337e-09)
(1.55074e-07 1.5908e-10 1.63408e-10)
(3.0354e-07 -3.44262e-09 -3.28769e-09)
(3.16272e-08 8.12501e-10 -4.39374e-09)
(3.03136e-07 1.63149e-09 -1.89049e-09)
(1.11595e-07 9.97289e-11 3.55767e-09)
(2.9123e-08 -2.07178e-09 -2.1672e-09)
(2.7612e-07 -2.51292e-09 -8.44059e-10)
(6.12239e-08 -1.75666e-09 1.5632e-09)
(2.02522e-07 1.38974e-10 1.03286e-11)
(2.28285e-07 -4.22231e-10 1.24958e-09)
(3.72434e-07 8.25355e-10 5.98733e-10)
(9.42923e-08 -4.25129e-09 -4.61778e-09)
(2.95974e-07 1.79105e-09 5.90448e-10)
(1.50138e-07 -2.30962e-09 2.12087e-09)
(3.27978e-07 3.91151e-10 1.38133e-10)
(3.30238e-07 -1.90036e-10 9.42385e-10)
(2.91041e-07 -2.2688e-10 1.57539e-09)
(1.73109e-07 -3.78978e-10 -2.67491e-10)
(4.75208e-08 -2.67612e-09 -2.26565e-09)
(6.85518e-08 4.1261e-10 -5.84926e-10)
(1.84271e-07 -7.52443e-10 -1.34348e-10)
(2.90281e-07 3.39043e-10 3.01953e-09)
(2.76699e-08 -2.00468e-09 -9.12392e-10)
(2.50183e-07 -4.02005e-10 1.05678e-09)
(4.89462e-07 1.31016e-10 9.27263e-10)
(3.60305e-07 -9.01901e-10 -6.296e-10)
(3.90866e-07 -1.63582e-09 -4.52531e-10)
(2.45729e-07 8.93284e-11 -3.84931e-09)
(1.9674e-08 1.99909e-09 1.70807e-09)
(2.34184e-07 6.39855e-10 -2.47449e-10)
(1.45897e-07 -1.36201e-09 -1.72388e-09)
(2.68217e-07 1.62428e-09 1.25739e-09)
(1.58523e-07 5.75371e-10 -2.21739e-10)
(3.45733e-08 2.44983e-09 -1.19022e-10)
(2.19824e-07 -6.5002e-12 7.29126e-10)
(1.48853e-07 3.89348e-09 4.00049e-09)
(2.42774e-07 5.21238e-11 4.32202e-10)
(2.83767e-07 -6.51588e-10 -2.00249e-12)
(1.99844e-07 -2.26263e-09 -1.69842e-10)
(1.33253e-08 1.23041e-09 -1.56186e-09)
(1.95204e-08 -1.21329e-09 -1.90155e-09)
(1.94558e-07 5.45439e-10 2.3074e-10)
(3.16671e-07 -2.17796e-09 -1.57045e-09)
(2.412e-07 3.24057e-10 1.4562e-09)
(1.8505e-07 -5.85501e-10 1.58674e-09)
(1.58312e-07 -2.43907e-09 1.01338e-09)
(2.56831e-07 -1.76043e-09 -1.03573e-09)
(2.98044e-07 3.99538e-10 1.46765e-09)
(1.89459e-08 1.6774e-09 4.03767e-10)
(1.55374e-07 5.10732e-10 4.68039e-10)
(1.74156e-07 -1.952e-08 -5.68575e-10)
(4.50387e-08 -7.45463e-10 2.40909e-09)
(8.3403e-08 -5.34026e-09 1.33719e-09)
(3.05872e-07 -1.8108e-10 -1.97602e-09)
(2.11412e-07 -2.43744e-09 1.5798e-09)
(1.96726e-07 6.31673e-10 -2.40456e-10)
(2.33604e-07 -1.31496e-09 1.28301e-09)
(1.37113e-07 -4.70014e-09 1.5476e-09)
(3.48965e-07 7.41795e-11 2.52033e-10)
(1.77237e-07 1.66769e-09 -5.47973e-09)
(4.40473e-07 1.27527e-09 -4.55665e-10)
(2.25722e-07 1.35364e-09 6.44015e-11)
(2.52057e-07 -2.83301e-10 2.7105e-10)
(3.28068e-07 -5.04563e-10 3.56342e-10)
(4.65797e-08 -4.03917e-10 2.31542e-09)
(5.49155e-07 -8.13988e-10 6.43692e-11)
(3.27297e-08 1.01613e-09 -1.33746e-09)
(1.48939e-07 -1.45066e-08 8.55817e-09)
(1.13998e-07 3.73487e-09 2.9884e-09)
(1.61655e-07 -3.22139e-09 -1.66055e-08)
(2.12594e-07 -1.08595e-09 -1.24298e-09)
(2.90754e-07 -4.72122e-08 -1.05117e-08)
(1.43663e-07 2.73107e-10 -4.18142e-10)
(3.31173e-07 -1.03921e-09 -5.34786e-10)
(3.41679e-07 2.94986e-09 -5.63208e-11)
(2.21132e-07 -5.07942e-10 8.14323e-10)
(3.40353e-08 2.79613e-10 -6.16874e-10)
(1.18484e-07 -4.44868e-09 -2.98434e-09)
(2.10304e-07 -3.92629e-09 -2.99494e-08)
(2.25244e-07 2.99182e-10 2.5839e-10)
(9.94112e-08 -2.03332e-09 -5.52354e-10)
(2.18205e-07 -2.15897e-08 -7.59319e-09)
(2.39015e-07 -5.96453e-09 6.88754e-09)
(3.05126e-07 2.40389e-09 2.57126e-09)
(4.30689e-08 -8.67966e-10 1.56335e-09)
(5.29357e-08 -2.60982e-09 1.43969e-09)
(2.65287e-08 1.23077e-10 -2.4741e-10)
(1.91224e-08 1.51341e-10 -1.46239e-09)
(4.31762e-08 -8.82914e-11 2.08514e-10)
(2.21562e-07 -1.60156e-08 9.19543e-09)
(1.82903e-07 -7.95471e-10 1.13091e-09)
(1.81991e-08 -6.4263e-10 2.52515e-09)
(2.00552e-08 1.43687e-09 2.20845e-09)
(3.73877e-07 3.74067e-10 -3.78302e-10)
(1.66149e-07 -2.18284e-08 1.48276e-08)
(4.57825e-08 1.98099e-09 7.25643e-10)
(2.28515e-07 2.97553e-10 -9.35347e-10)
(1.06454e-07 -1.17763e-09 -1.46641e-09)
(2.0215e-07 3.55779e-10 1.88802e-09)
(4.33581e-08 2.26646e-09 -1.22372e-09)
(9.18794e-08 2.85182e-09 -1.10952e-09)
(1.90716e-07 -2.15779e-09 7.47323e-11)
(2.7774e-07 4.29491e-11 -1.4442e-09)
(4.03079e-07 -2.81729e-10 -2.10291e-09)
(4.18685e-08 3.47064e-09 -1.18456e-09)
(2.39998e-08 -1.8784e-09 1.13525e-09)
(2.01612e-07 -2.88116e-08 -2.13833e-08)
(2.7304e-08 -3.55833e-09 1.66167e-10)
(3.1013e-07 -1.84444e-09 -2.37478e-09)
(2.80829e-08 1.56893e-09 -3.48119e-09)
(1.46411e-07 -6.71545e-10 3.07383e-09)
(3.19815e-07 -1.98364e-09 -1.36221e-11)
(4.4304e-07 -8.62842e-10 2.91733e-09)
(5.77771e-08 8.66465e-10 -1.09884e-09)
(1.38215e-07 -3.7256e-10 -1.49355e-09)
(3.79508e-08 1.39112e-09 -1.59725e-09)
(2.82005e-08 3.33431e-09 -1.21284e-09)
(2.73421e-07 -8.63423e-10 -8.6854e-10)
(1.4355e-08 -1.21897e-09 -1.842e-09)
(1.85041e-07 -4.37166e-10 -6.87232e-10)
(6.01868e-08 1.37268e-09 -2.84388e-09)
(3.29273e-07 -2.7428e-09 -4.94728e-10)
(2.27072e-07 -1.20213e-09 -2.68208e-10)
(1.88067e-08 -4.97766e-10 2.99108e-09)
(1.32613e-07 -6.57476e-09 6.0078e-10)
(2.49605e-07 7.59919e-10 1.0758e-09)
(3.0767e-08 -1.49624e-09 4.10287e-11)
(2.94348e-07 5.52871e-11 -9.80159e-10)
(7.79107e-08 -3.1277e-09 4.85901e-09)
(2.12214e-07 5.20824e-10 -1.1787e-11)
(2.3847e-07 -8.2974e-10 -1.11308e-10)
(5.42325e-08 1.61592e-09 1.141e-09)
(2.08536e-08 8.90379e-10 -2.69702e-09)
(9.08393e-08 1.79305e-09 -7.86073e-10)
(2.43639e-07 3.82292e-08 8.21532e-09)
(2.23278e-07 7.89289e-10 9.99012e-10)
(7.60603e-08 -3.55435e-09 3.67531e-09)
(1.8059e-07 7.7946e-10 2.55237e-09)
(2.39299e-08 -9.16392e-10 5.69006e-10)
(2.12179e-07 -9.19399e-10 -4.48624e-10)
(2.28192e-08 -3.64886e-10 -1.73345e-09)
(3.40589e-07 -8.31465e-10 -1.3668e-09)
(3.01127e-07 2.05174e-10 2.57772e-10)
(2.24824e-07 2.7676e-10 -7.06689e-10)
(1.41386e-08 1.40568e-09 4.66411e-11)
(3.44177e-07 4.16487e-10 1.05515e-09)
(1.54597e-07 1.72288e-09 4.78503e-10)
(3.60984e-07 -6.15185e-11 1.47148e-10)
(6.18572e-08 -6.84053e-10 -2.72212e-10)
(2.22568e-07 -2.67701e-08 1.37619e-08)
(2.64788e-07 -2.08853e-09 -8.03366e-10)
(6.43236e-08 7.64509e-10 -7.67207e-10)
(2.67e-07 4.62654e-10 5.17014e-10)
(2.10062e-07 3.88286e-09 -3.95548e-08)
(1.8067e-07 5.01077e-10 -1.28908e-09)
(3.21714e-08 8.35334e-10 -1.77343e-09)
(9.90241e-08 -9.58668e-10 -5.35454e-09)
(1.99778e-07 -3.46969e-10 -1.88876e-10)
(2.16978e-07 2.12575e-09 9.34956e-10)
(3.12582e-08 1.56966e-09 6.33833e-10)
(2.16921e-07 2.80747e-09 -3.3872e-09)
(1.55879e-07 -1.3501e-09 -4.75924e-09)
(2.4061e-08 -2.09166e-09 1.42101e-09)
(2.1118e-07 -8.61349e-11 -5.52625e-10)
(1.58319e-07 -1.96529e-09 1.53715e-08)
(3.23333e-07 3.46301e-09 -4.79156e-09)
(2.06797e-07 -6.43438e-10 -1.02658e-10)
(1.89022e-07 -4.4286e-10 7.10218e-10)
(3.17185e-07 -7.35191e-10 2.3441e-11)
(2.54301e-07 1.49219e-09 -4.39993e-10)
(6.90431e-08 1.79424e-09 5.95711e-10)
(7.06695e-08 -3.43538e-09 -3.41796e-09)
(3.90713e-07 -6.93393e-11 1.29498e-09)
(2.24791e-07 -1.96148e-08 1.82307e-08)
(2.07093e-07 -1.87345e-09 8.68006e-10)
(1.86749e-07 -2.53025e-09 1.32295e-09)
(1.25356e-07 3.02036e-09 1.34303e-09)
(3.23237e-07 -8.34264e-10 3.21274e-09)
(2.05812e-07 -7.20599e-10 -1.22999e-09)
(1.79082e-07 -5.48767e-10 -2.41376e-09)
(2.22889e-07 4.04351e-09 1.02772e-09)
(4.31375e-08 6.16884e-10 -2.76646e-09)
(1.67823e-07 1.22136e-09 -8.38131e-10)
(3.83336e-08 -9.9276e-10 -2.87364e-09)
(3.14094e-07 -1.91307e-09 2.03573e-09)
(3.32564e-07 -6.56141e-10 -5.25887e-10)
(1.63732e-07 3.24251e-09 -3.82807e-09)
(1.59357e-07 1.27218e-09 -1.0203e-09)
(1.73732e-08 1.79292e-09 -3.60992e-10)
(1.03504e-07 -4.5585e-10 -9.28103e-10)
(7.4098e-08 -2.50868e-09 -3.16891e-09)
(2.70755e-07 -2.19959e-10 -1.56057e-09)
(2.44103e-07 -1.53411e-09 -5.30262e-10)
(2.20568e-07 -2.01299e-08 1.27374e-08)
(3.17904e-07 -6.9192e-10 2.26273e-09)
(8.09396e-08 -2.36601e-09 -1.96474e-09)
(1.36573e-07 -3.42392e-09 1.0662e-08)
(2.43689e-07 -2.91284e-09 3.20721e-09)
(2.65539e-08 -2.0444e-09 -1.85983e-10)
(2.50674e-07 -1.20116e-09 2.10712e-10)
(5.29519e-08 1.49049e-09 -8.15498e-11)
(2.06377e-07 -3.95855e-10 2.01178e-09)
(3.12289e-08 4.45937e-09 -3.45518e-10)
(3.68226e-07 2.79361e-10 -1.44866e-09)
(2.0396e-07 -8.68673e-09 5.34482e-09)