/*--------------------------------*- C++ -*----------------------------------*\
| =========                 |                                                 |
| \\      /  F ield         | OpenFOAM: The Open Source CFD Toolbox           |
|  \\    /   O peration     | Version:  2406                                  |
|   \\  /    A nd           | Website:  www.openfoam.com                      |
|    \\/     M anipulation  |                                                 |
\*---------------------------------------------------------------------------*/
FoamFile
{
    version     2.0;
    format      ascii;
    arch        "LSB;label=32;scalar=64";
    class       volScalarField;
    location    "52";
    object      nut;
}
// * * * * * * * * * * * * * * * * * * * * * * * * * * * * * * * * * * * * * //

dimensions      [0 2 -1 0 0 0 0];

internalField   nonuniform List<scalar> 
59516
(
3.46592e-06
1.25986e-05
1.49913e-07
2.33546e-06
0.0010853
0.000186194
3.98693e-07
4.15282e-06
6.71992e-07
7.05652e-05
0.00034972
5.89243e-05
1.22101e-06
0.000147556
6.30856e-05
5.82856e-05
2.3745e-05
9.17208e-05
1.36755e-05
2.84327e-06
0.000132575
1.01641e-07
1.35081e-06
0.000119522
1.51621e-08
5.15098e-05
0.000113896
0.000155339
7.14584e-05
0.000126815
0.000242123
0.00014702
4.49701e-08
3.42815e-06
1.67342e-05
1.39715e-07
0.00012379
8.3344e-05
1.79942e-05
2.8744e-07
3.16406e-06
0.000162332
1.66304e-05
8.36e-06
2.6714e-06
5.75754e-05
5.10782e-06
8.69891e-05
0.000861507
6.40897e-05
0.000623637
0.000107479
1.54122e-07
2.10264e-07
0.000136578
4.44022e-06
0.000243412
0.000122591
8.13703e-06
2.51483e-05
1.02731e-06
0.000134464
8.06027e-06
2.04358e-05
2.51477e-06
8.10985e-06
0.00017676
0.000107942
0.000423873
5.67309e-07
0.000192941
4.6272e-06
0.000156844
5.16252e-07
2.93432e-05
1.75812e-05
6.07175e-05
5.2412e-07
0.000103274
5.62594e-05
0.000110519
2.37514e-05
1.03485e-05
0.000144133
2.71217e-05
1.97481e-05
0.000110455
1.27138e-07
5.81503e-05
4.87662e-05
0.000529001
1.54698e-06
7.19275e-06
9.49558e-07
6.23663e-06
0.0010866
1.01975e-06
5.6856e-05
7.2746e-05
6.87082e-07
0.000126709
0.000157604
0.000154556
5.77338e-05
1.36818e-07
3.03174e-06
0.000118166
1.04921e-06
6.34354e-06
5.99207e-05
0.000243358
0.000167702
6.38359e-05
0.000153632
1.70024e-06
4.94044e-06
5.75615e-05
6.0243e-07
0.000143161
5.75317e-07
5.33897e-05
1.15035e-05
2.84303e-07
9.605e-06
0.000232815
2.13844e-05
0.000172677
0.000105412
0.000280988
2.32103e-05
3.48813e-05
1.57619e-06
0.000137546
3.15502e-08
9.02917e-06
2.33656e-07
0.000111748
4.31133e-09
0.000117072
1.40245e-05
0.000109217
2.02431e-05
0.0001227
2.49625e-07
2.51998e-05
2.15404e-07
3.65476e-06
2.05322e-06
0.000251058
2.66284e-06
1.12142e-05
0.000107203
1.14077e-06
3.96959e-07
1.12381e-05
0.000134734
2.32807e-06
6.70516e-07
1.65159e-05
0.000137036
6.39605e-05
6.16822e-05
0.000114951
0.000162795
5.13737e-06
8.93252e-06
5.64375e-05
1.90716e-05
0.000129654
3.39729e-06
1.54952e-05
5.74616e-05
4.12653e-05
4.36991e-08
9.29542e-05
8.1988e-06
7.84046e-06
2.89499e-05
5.71847e-05
9.58003e-05
6.73467e-08
0.000111408
0.000183933
4.42645e-05
1.82395e-05
5.52153e-05
9.32416e-05
0.000133122
3.28039e-07
7.5367e-06
2.42464e-06
5.89392e-05
3.95069e-06
4.13665e-05
7.00817e-08
9.56942e-05
5.48431e-05
9.54944e-05
7.19129e-06
1.79786e-07
2.8091e-05
3.78613e-05
4.635e-06
0.000126135
1.11863e-07
2.15282e-07
3.05478e-05
5.5329e-06
0.000138823
3.57038e-06
6.81932e-05
0.000176831
3.00577e-07
6.28574e-05
1.41214e-06
5.45858e-06
2.36749e-07
5.84305e-08
6.37022e-05
4.93366e-07
6.5828e-05
1.19566e-05
5.55067e-06
0.00012801
9.49087e-06
1.149e-05
0.000162818
0.000107791
1.03863e-05
6.08448e-05
5.47754e-06
1.27827e-05
4.36161e-05
0.000149166
0.000108909
9.46576e-05
4.62908e-05
2.37932e-06
2.17982e-06
6.87836e-05
3.96161e-05
0.000146332
5.37404e-05
0.000161159
3.38373e-05
9.68425e-06
1.22021e-06
5.99361e-05
2.34828e-06
2.84177e-06
6.60108e-07
7.92433e-07
5.47471e-05
1.21563e-06
6.08402e-07
1.47334e-06
7.01283e-05
1.35109e-06
0.000106455
5.94475e-05
1.10677e-07
2.86766e-06
2.82188e-06
1.05944e-05
3.30425e-06
5.10519e-05
3.42591e-06
1.10016e-05
0.000132483
5.47903e-05
1.424e-05
1.06532e-05
5.14901e-06
1.23535e-05
3.33446e-06
1.00955e-05
0.000132269
1.06822e-06
0.000147536
0.000106935
3.68685e-05
2.19115e-07
0.000165911
1.13106e-06
2.52505e-07
1.91596e-05
2.84535e-05
0.000166789
4.02678e-05
8.05713e-05
1.39791e-05
2.88634e-07
9.05398e-07
9.4608e-06
4.39414e-06
0.000175259
4.28868e-06
3.07053e-08
5.65069e-05
1.4257e-05
2.22562e-07
5.05154e-05
0.000143061
0.000150947
2.46797e-07
0.000143686
9.16997e-05
6.90272e-05
5.43033e-06
6.676e-06
1.82446e-08
5.18056e-05
5.82273e-06
0.000120671
6.14114e-05
4.64049e-06
8.54156e-06
0.00108025
1.58562e-05
0.000101983
6.5285e-05
5.47604e-06
1.61919e-05
3.92999e-05
6.10225e-05
7.76462e-07
3.03814e-05
6.82743e-07
8.20263e-06
2.23981e-06
7.38623e-07
5.47854e-05
0.000151901
6.08042e-07
0.000102548
0.000111683
3.13424e-06
4.11471e-08
6.39272e-05
1.37209e-05
8.801e-07
3.32302e-05
1.33768e-05
9.92464e-05
5.30706e-07
3.069e-05
5.7454e-05
3.6573e-05
2.20259e-05
7.18016e-07
1.12419e-06
1.22177e-06
1.9754e-08
2.31716e-05
0.000115655
0.000117725
1.10513e-05
0.000142856
0.00026358
1.6372e-05
2.98579e-06
1.03237e-06
0.000246539
2.51149e-07
8.22453e-08
5.14249e-07
1.19127e-06
0.000118025
0.000287705
6.61694e-05
0.000102734
0.000112377
3.52005e-06
1.21589e-05
2.0908e-06
0.000131721
3.25527e-07
0.000113353
7.86643e-06
5.21275e-05
5.08609e-05
1.33747e-06
0.000373019
0.00015219
5.98743e-05
3.11485e-07
0.000142615
2.65219e-05
1.79783e-06
1.65575e-08
1.43032e-05
1.36379e-05
2.12803e-06
0.000127993
3.61604e-05
9.74743e-05
6.11076e-05
5.97381e-05
2.33517e-05
1.67779e-05
5.14838e-05
4.2879e-08
5.95809e-06
2.79306e-05
2.29878e-05
0.000115486
8.2847e-07
2.5776e-07
1.30663e-07
4.76214e-07
0.000154858
0.000146092
6.22261e-08
1.35765e-05
3.8386e-05
0.000112242
1.02262e-05
2.24146e-06
2.8648e-05
2.00166e-05
3.38723e-05
1.46492e-05
1.16464e-05
6.32697e-06
2.97041e-05
5.79086e-05
7.163e-06
4.56538e-06
1.52543e-06
2.0633e-05
8.2045e-08
1.00203e-06
9.80475e-05
0.000112527
0.000135306
0.000176693
3.43575e-05
7.37288e-07
1.29799e-07
0.000101432
0.000144835
1.70385e-06
1.79568e-06
1.93038e-05
4.72641e-07
5.39878e-08
6.02266e-05
4.51537e-08
0.000160353
6.69825e-07
5.37468e-05
0.000254354
3.75012e-06
1.10777e-05
5.5474e-07
0.000146051
2.46921e-05
3.82464e-05
2.72351e-05
7.57373e-06
1.7082e-06
1.6083e-05
2.57443e-06
4.60297e-05
1.85813e-05
9.63553e-06
8.42001e-08
0.000136521
2.19932e-05
1.05685e-06
0.000109957
5.6358e-06
5.59578e-06
3.23839e-07
1.9064e-05
0.00014128
7.82383e-06
8.35772e-08
1.76455e-06
3.1306e-07
9.70138e-05
5.23672e-07
0.000173645
6.63118e-06
0.000792474
1.12147e-05
0.000118997
2.27478e-06
5.04047e-06
8.37512e-05
6.09452e-05
2.90962e-05
0.00015871
4.83784e-06
6.57622e-05
0.000126634
5.76133e-05
5.40938e-05
1.94886e-06
3.99107e-05
0.000213985
5.46947e-05
5.24241e-05
5.89875e-07
4.69705e-05
0.0001528
5.00653e-07
1.44206e-06
2.63906e-05
0.000233242
3.04372e-06
0.000139172
3.3974e-06
0.00014139
4.74528e-05
2.38858e-07
5.22703e-05
0.000145295
0.000122635
0.000104257
6.00989e-05
1.11195e-08
5.89655e-05
5.04754e-05
0.000388965
1.85277e-05
0.000157637
2.35201e-06
0.000119406
1.15255e-05
6.01635e-05
1.58039e-05
6.48137e-05
9.28256e-07
2.60393e-05
8.45052e-05
7.2432e-06
0.000149156
0.000133345
5.86724e-08
3.32371e-05
3.0908e-07
4.23479e-07
2.52555e-05
6.70997e-05
4.98386e-06
5.30769e-05
1.8779e-05
5.92903e-07
0.000157044
2.88579e-07
0.000114814
0.0001569
1.00333e-07
9.87253e-05
7.03088e-07
4.46273e-05
7.69873e-07
5.23454e-05
1.90424e-05
1.47544e-05
3.14047e-05
8.97717e-06
3.01578e-05
3.42319e-05
0.000104247
6.40439e-05
1.74574e-05
8.42815e-07
0.00011969
4.20066e-06
1.49041e-05
1.09074e-05
2.56943e-05
3.42549e-07
0.000136436
7.66648e-06
9.91385e-06
2.00955e-06
4.94427e-06
0.000161487
5.0044e-05
1.41573e-05
1.43026e-08
4.36929e-05
1.83295e-07
0.000111526
0.000144325
2.9099e-05
7.85655e-06
5.73584e-05
5.49177e-06
1.24742e-05
5.84769e-07
1.77487e-05
0.000132377
4.17872e-05
0.000153153
0.000120754
5.26824e-05
3.20012e-08
1.58565e-07
1.25731e-07
1.77485e-07
3.88628e-06
6.20929e-05
1.44043e-05
1.11621e-05
1.03981e-05
1.63937e-05
2.00197e-05
0.000126956
3.44443e-06
0.000110904
0.000207506
5.10632e-05
0.000537797
2.58113e-07
0.000159345
2.00503e-05
4.9489e-06
3.41919e-07
1.2153e-05
0.000110107
0.00148445
0.000701212
3.26048e-05
4.86129e-07
0.000150843
0.000209546
1.77026e-06
0.000100487
4.64062e-05
0.000148916
0.000157211
0.000173014
3.49807e-05
1.31568e-06
0.000152579
0.000146889
7.23079e-05
0.000209356
0.00010974
2.71991e-07
9.11707e-07
1.79554e-07
0.000126425
5.66188e-05
8.90621e-07
1.21026e-05
1.17685e-06
0.000111394
0.000140575
0.000391292
0.000170375
4.22658e-07
0.000159516
6.52283e-06
2.71453e-05
2.54935e-06
0.000102475
6.78867e-06
9.84503e-05
0.000167179
2.32277e-05
0.000130635
6.5669e-06
0.000120322
1.06563e-06
1.92617e-07
0.000140097
5.80058e-05
1.84341e-07
0.000110249
5.60878e-06
6.32964e-05
2.57514e-06
3.55497e-05
0.000107177
0.000145659
0.000107929
0.000667215
3.27475e-06
6.17772e-05
1.11529e-05
0.000102691
4.1622e-05
0.000147837
2.09016e-06
3.47739e-10
6.08763e-06
0.000135597
1.25164e-07
1.45625e-05
1.55217e-06
6.70169e-05
0.00088121
2.02296e-07
9.38396e-05
6.27929e-05
0.000486788
1.37629e-07
0.000107943
0.000120177
3.49079e-05
1.0509e-07
0.000108767
9.84442e-07
5.58976e-05
0.00015157
2.20936e-05
0.0012453
1.99004e-08
1.14282e-05
2.07449e-05
8.04144e-06
6.23551e-08
0.000103012
0.000111087
2.42405e-05
0.000984084
3.8373e-07
4.03735e-07
2.00102e-05
1.34957e-07
5.44974e-06
8.24382e-06
2.86645e-06
0.000145251
5.52785e-05
0.00013145
6.76125e-07
1.41705e-05
1.07624e-05
4.47494e-06
0.000129393
1.83914e-05
6.40239e-05
1.26685e-05
2.23534e-05
0.00118132
3.96284e-06
1.3865e-05
0.000839764
8.40504e-07
0.000162695
2.28036e-05
6.07584e-05
8.87319e-08
0.000167795
4.16021e-06
0.0013486
1.08399e-06
6.94218e-07
8.08676e-07
2.55357e-07
3.1134e-05
0.000119591
0.000123777
9.57401e-05
2.78775e-05
2.35862e-06
7.42892e-07
1.78037e-07
0.000125433
1.58335e-05
1.45867e-05
2.08706e-05
3.71827e-07
1.26073e-06
1.14265e-05
4.21097e-05
0.00014332
1.12594e-05
3.2637e-06
0.000159635
9.19385e-05
5.32164e-05
0.000142331
2.02561e-05
4.92604e-06
5.37173e-05
0.000133944
3.14984e-06
0.000148106
3.05057e-06
1.80792e-05
5.86141e-05
1.74776e-05
4.15476e-07
2.37439e-05
6.99247e-07
0.000102354
1.66171e-05
1.40147e-07
1.27794e-05
1.6375e-05
6.27138e-06
7.73065e-07
4.38525e-05
6.87478e-08
0.000112771
1.23621e-05
7.55599e-06
6.12933e-05
5.92505e-07
0.000264279
5.03831e-05
0.000108014
0.000170473
5.20768e-05
0.000135815
3.34999e-07
1.56298e-06
3.95801e-07
8.57215e-05
5.09502e-07
1.15299e-06
0.000149671
2.60641e-06
0.000581603
9.33753e-05
0.000149242
5.3012e-07
2.17726e-06
0.000149065
1.79132e-06
0.00014427
1.30803e-05
2.09842e-06
1.2161e-06
2.0202e-07
6.69952e-06
7.51023e-06
2.85945e-05
0.000131842
0.000114139
5.10914e-06
5.48222e-06
0.000130521
2.56811e-07
0.000312924
1.44674e-05
1.31902e-05
2.14192e-05
1.94228e-06
6.87581e-05
1.40605e-05
0.000120019
1.07936e-05
4.33092e-06
0.000125447
3.94054e-06
3.27544e-05
1.07058e-07
8.38309e-06
6.28602e-08
2.41094e-06
1.53963e-05
3.78373e-06
9.54029e-06
3.97879e-08
4.72318e-05
8.07868e-06
2.57195e-05
0.00155879
3.73406e-09
4.28988e-06
1.4967e-06
0.000125747
9.70304e-05
5.75261e-07
1.94536e-07
1.12949e-07
5.80903e-05
3.94035e-07
4.51632e-05
2.54475e-05
0.000224647
3.21993e-06
2.29379e-05
0.000141915
4.329e-08
1.70764e-06
0.0001105
1.53074e-06
2.87274e-05
4.94372e-06
2.33425e-05
5.51263e-05
1.93632e-05
5.56804e-05
0.00143799
0.000121971
1.31096e-06
1.90256e-05
0.000156533
7.69041e-05
5.55196e-05
1.63989e-06
9.3496e-05
1.65118e-06
1.50412e-05
9.35359e-06
4.95154e-07
1.68248e-05
0.000121357
1.9812e-06
3.1558e-06
1.20239e-06
1.71211e-05
5.36015e-07
4.52302e-05
2.93311e-05
0.000127428
8.3238e-06
1.06755e-05
2.01298e-05
0.000125637
5.66203e-05
9.27965e-06
2.16857e-05
8.26045e-05
8.61209e-06
3.55013e-06
9.02339e-06
2.54848e-05
4.47049e-06
1.74296e-05
1.86253e-05
3.78333e-05
0.001399
7.39587e-08
1.66006e-06
0.00011923
5.92611e-05
6.22176e-06
3.12838e-08
0.000118333
7.0154e-06
2.75587e-06
8.56208e-05
8.42395e-05
4.72173e-05
4.44633e-07
9.40591e-06
3.35215e-05
0.000294712
8.24682e-06
4.22487e-05
0.000166259
3.70942e-05
0.000107
1.37086e-05
1.0474e-05
4.78898e-05
0.000111586
1.34828e-05
5.53105e-06
1.00184e-08
0.000101463
3.00226e-05
0.000103378
1.15925e-05
4.7656e-05
4.59095e-05
8.70521e-06
6.03933e-05
5.70106e-05
1.57547e-06
7.91494e-06
2.40857e-06
5.0262e-05
6.29995e-05
6.87878e-07
3.85775e-05
1.77555e-05
5.55964e-05
4.92954e-05
0.000105527
0.000111088
1.13945e-05
9.80064e-05
0.000180923
3.22591e-05
3.241e-06
1.23176e-05
0.000233473
0.000152749
6.15078e-06
3.76445e-05
8.26931e-07
0.000163267
0.000136934
9.51852e-06
0.000104402
5.68892e-07
1.13487e-06
6.91583e-06
0.000131439
1.04773e-06
4.29145e-06
0.000133724
7.70846e-05
3.71673e-05
5.42852e-05
5.27479e-06
3.32172e-05
1.64907e-06
1.20998e-06
0.000109514
1.18653e-06
4.30734e-06
2.24814e-05
4.45264e-05
5.01632e-06
1.13394e-05
1.76715e-06
0.00013884
2.24594e-06
1.2327e-05
0.000109961
3.00449e-07
0.000120579
1.83756e-06
3.90802e-06
2.04378e-05
0.000185493
3.50689e-05
1.21103e-05
4.86327e-05
9.15416e-06
7.6433e-07
0.000141034
4.20618e-06
6.74291e-07
5.05188e-05
0.000166759
0.000120421
3.73286e-05
7.68948e-08
1.60218e-05
1.33769e-05
4.76271e-05
8.3981e-07
9.5351e-05
3.19065e-06
4.21948e-05
2.8026e-05
5.97195e-05
8.6482e-08
0.000160917
1.42548e-05
2.01791e-07
4.68619e-05
0.000122192
1.42429e-06
2.51553e-07
0.000157051
3.05726e-06
4.21749e-06
1.55372e-05
1.72532e-05
6.60773e-06
0.00016105
6.20028e-06
3.57018e-08
0.000159562
0.000103895
0.000106376
7.68474e-06
1.30891e-05
4.75399e-06
5.49098e-05
7.34916e-06
0.000147185
9.33842e-08
3.42961e-05
3.13101e-06
3.24695e-05
2.31275e-09
2.95819e-07
0.000107531
0.00011048
7.69752e-07
2.06735e-07
0.000142119
0.000172713
6.52767e-06
1.69803e-08
3.09469e-06
3.80954e-06
2.74546e-07
2.75207e-07
1.16025e-05
5.96356e-05
2.54804e-05
5.03692e-05
2.84152e-07
1.58708e-05
0.000110089
0.00016265
8.87759e-06
1.5111e-06
4.33882e-06
5.49609e-06
2.77884e-06
9.21072e-05
5.89035e-06
2.11206e-05
0.000125775
0.000159073
1.58297e-05
1.66326e-05
0.000121218
0.00012583
1.23917e-05
7.31234e-06
0.000166902
2.02047e-05
1.29724e-05
4.48805e-06
1.80299e-05
2.34025e-07
6.05796e-07
0.000143124
9.02428e-05
2.86747e-05
6.23069e-06
2.50173e-06
2.35523e-06
5.46401e-05
5.86022e-05
0.000106502
2.23578e-05
0.000166183
1.00591e-07
2.89989e-08
8.86538e-06
6.21203e-05
0.000144217
4.41465e-05
1.41466e-05
1.59325e-07
2.24415e-05
3.9566e-06
2.24735e-08
0.000123749
7.22483e-05
0.000241047
3.16834e-06
2.56586e-07
2.73367e-06
5.24688e-05
1.57265e-05
3.33635e-07
2.97458e-08
1.20673e-05
1.12679e-07
4.50972e-06
4.51566e-06
5.8613e-05
0.000169913
6.81808e-06
0.000108674
1.0247e-06
5.96774e-07
1.49884e-05
0.000138387
6.86312e-07
4.82384e-05
0.000118651
0.000135606
5.83248e-07
2.488e-05
1.06264e-06
1.27193e-06
1.56603e-05
3.62144e-06
0.000124685
0.000108389
0.000122697
4.08228e-05
4.03295e-06
5.77415e-07
3.43994e-06
1.89678e-06
6.27133e-07
0.000189089
8.87703e-07
0.000134589
2.18672e-06
3.14685e-06
0.00013732
2.55078e-05
5.38907e-06
2.40158e-07
9.14889e-06
4.43929e-05
9.54192e-05
3.39156e-07
0.000123607
5.83737e-05
8.44444e-05
1.5057e-06
3.26521e-05
0.000107797
0.000186202
0.000116819
1.12263e-05
9.07499e-06
1.70908e-05
7.13826e-05
4.65646e-06
7.53658e-06
2.5721e-06
2.72585e-06
9.95081e-05
0.000117497
6.44493e-06
1.89594e-06
5.87742e-05
4.76801e-05
6.58623e-07
5.2675e-07
9.0696e-06
0.000167625
0.000201406
5.75619e-05
1.38004e-06
6.82803e-06
3.40977e-06
0.000135744
0.000100142
9.88275e-08
1.80875e-06
5.93805e-05
3.55051e-05
1.44024e-06
3.87083e-06
8.46868e-06
2.71025e-05
1.6726e-06
1.04499e-06
6.00486e-06
1.83786e-06
1.2282e-06
1.56759e-05
4.30943e-05
3.34357e-05
5.33287e-07
0.000116603
5.44155e-05
2.93882e-06
5.98537e-05
1.36995e-08
5.41854e-06
2.54568e-06
8.72826e-07
8.91173e-07
1.01886e-05
6.74975e-06
1.4311e-06
9.94898e-05
0.000171591
2.67559e-05
3.31522e-05
0.000140059
1.38648e-05
1.65218e-06
1.21694e-05
1.43133e-07
0.000132873
3.10621e-06
7.0119e-07
1.49733e-05
7.98462e-06
1.10089e-06
0.000153429
5.97171e-07
0.000144663
6.93803e-06
0.000140601
1.53905e-06
1.10789e-08
8.3168e-06
0.000149438
6.35283e-05
9.48426e-06
1.03412e-08
5.06937e-05
6.05149e-05
8.99469e-06
2.73247e-05
0.000117923
2.83471e-05
2.2154e-08
5.67414e-05
5.53187e-05
0.000161949
9.48593e-07
1.91529e-05
2.83136e-09
5.65023e-07
5.43282e-06
6.5241e-06
5.86937e-06
0.000134836
0.000103175
0.000160727
1.56017e-05
5.23409e-05
0.000101121
0.000112265
5.3208e-05
0.00016228
2.80148e-06
0.000161225
9.0073e-06
5.8056e-05
6.3677e-07
5.54484e-05
3.73713e-05
0.000104875
6.44574e-05
4.78691e-05
4.43093e-06
7.89851e-07
0.00171339
6.82373e-06
0.000145558
6.87836e-07
3.88595e-07
2.61956e-05
1.50207e-05
9.17647e-07
1.04544e-05
1.11725e-05
6.05623e-05
0.000105749
4.12301e-06
3.68219e-05
0.000112038
1.32791e-05
2.12371e-07
0.000112639
0.000174169
5.19351e-06
7.89159e-05
6.25573e-05
0.00014967
4.82155e-05
0.000117376
0.000126315
0.000113865
0.000147374
3.46265e-06
1.26817e-05
2.60141e-05
0.000136175
6.10598e-06
5.93913e-08
4.08925e-08
2.26272e-06
2.43223e-06
0.000107292
2.49035e-06
0.00140621
1.36502e-05
6.01335e-05
3.05801e-07
0.000128028
2.53743e-06
1.0658e-05
0.000183619
0.000102757
1.79587e-08
7.18691e-06
0.00013372
1.20628e-06
2.37692e-07
2.93102e-05
2.43982e-06
0.000108393
1.43017e-07
1.56797e-05
0.000185306
5.63328e-08
9.17253e-08
1.29715e-05
9.56073e-06
2.30785e-07
1.31445e-07
0.000271405
4.20643e-06
4.67854e-06
1.083e-06
1.4406e-05
5.66532e-05
2.55138e-07
0.000192208
9.87051e-09
0.000204057
0.000228221
6.53672e-05
1.33351e-07
2.06784e-07
0.000444649
1.77649e-06
2.71678e-06
1.79048e-05
9.08647e-07
0.000153963
0.00016132
0.000220922
6.07566e-05
0.000180965
2.25134e-07
0.000122631
1.74542e-06
0.000104367
0.000141192
5.56248e-05
5.33805e-05
8.16557e-06
3.55208e-07
1.53778e-05
0.000118319
0.000122684
1.79608e-07
1.74676e-06
0.000157993
4.39806e-07
5.48055e-05
1.26445e-05
1.40978e-05
1.76954e-06
1.99636e-05
4.73651e-06
7.68433e-06
1.43365e-05
0.000110501
9.38379e-05
6.60146e-05
0.000101861
2.60068e-06
7.21401e-06
5.9308e-05
5.6991e-05
5.48608e-06
4.7657e-08
3.70836e-07
5.35476e-05
4.67646e-08
0.000136333
7.38843e-05
1.64093e-07
0.000120111
1.35164e-05
1.07744e-05
8.20235e-07
9.21998e-06
1.90098e-06
9.04482e-06
1.1207e-05
3.97865e-06
2.17279e-06
3.00746e-06
0.00015127
0.000119045
1.19729e-06
4.07586e-06
8.11501e-07
1.02286e-05
5.88129e-06
0.000130333
8.30139e-07
1.95705e-07
1.37644e-06
9.81376e-06
0.000122362
5.34898e-05
8.16973e-05
4.71906e-07
5.13557e-05
4.07057e-06
0.000150117
1.15499e-07
0.000113667
1.35306e-05
2.72765e-05
6.23801e-05
1.44055e-07
2.6246e-06
0.000108088
0.000155964
1.75351e-06
0.000187715
3.22686e-06
6.97444e-06
1.40967e-05
7.81447e-07
1.81606e-05
1.53085e-06
0.000152544
4.37782e-06
1.36997e-07
4.8987e-05
0.00012848
1.84138e-06
3.5631e-07
1.39087e-05
7.74885e-07
0.000105132
6.10021e-06
0.000142951
1.9638e-06
9.72081e-07
7.08311e-07
1.61222e-09
0.000106858
0.000145005
0.000127786
1.56708e-05
0.00010706
2.53203e-06
0.00010058
1.1029e-06
6.25627e-05
0.000129808
4.40155e-06
1.04077e-06
1.31165e-05
2.63733e-05
3.60759e-07
1.82236e-07
0.000115979
4.70766e-05
0.000171647
5.00406e-05
2.58486e-05
4.34007e-05
8.3857e-07
0.000182794
0.000106007
0.000101555
8.13531e-05
1.04659e-06
9.28019e-08
1.66249e-06
0.000123318
8.49085e-10
7.08357e-07
1.48497e-06
6.8526e-05
1.88017e-07
1.91259e-05
1.09134e-06
7.66382e-06
0.000101246
5.2654e-05
7.23049e-07
0.000101921
4.44905e-06
1.12095e-05
3.27004e-07
1.21589e-06
1.51225e-06
2.29405e-05
0.000107555
4.59577e-05
6.09297e-05
0.000156493
3.8486e-07
0.000121298
1.48419e-06
0.000147351
0.000114115
5.45873e-05
2.38333e-05
6.04854e-07
8.64548e-05
0.000163011
1.57903e-06
1.67536e-05
1.01806e-05
4.18036e-06
0.000138359
1.35487e-05
0.000117622
2.14511e-06
3.6433e-06
4.97872e-05
2.75498e-06
7.26515e-06
7.2658e-07
5.51611e-06
8.29856e-06
3.6657e-07
1.08316e-05
1.15414e-08
0.000170343
0.000153033
9.86965e-08
0.000168619
5.38444e-07
3.71363e-07
1.42726e-05
3.79175e-05
2.21952e-07
0.000116324
5.01516e-05
5.01039e-05
1.10912e-05
0.000113668
1.50488e-08
4.55485e-05
2.64053e-05
3.95796e-06
0.000110292
9.21021e-07
2.28089e-07
1.2946e-05
1.79259e-07
0.000130482
0.000144439
7.06935e-06
6.5814e-07
9.21989e-06
5.79851e-06
0.000148241
6.00451e-05
4.6491e-05
4.45343e-05
5.35445e-06
0.00010778
9.63349e-08
1.73428e-06
0.000116241
0.000179422
4.67637e-05
1.21745e-05
0.000148346
3.91066e-08
0.000119518
0.000162519
1.63964e-05
1.50316e-05
4.31634e-05
8.25257e-07
1.21453e-05
2.86976e-07
2.58488e-05
1.47299e-06
2.65214e-06
8.11575e-06
4.43085e-07
0.000129147
0.000111729
2.06456e-07
1.00641e-05
3.66839e-06
0.000141933
0.000156178
2.98589e-08
0.000166624
8.35144e-07
6.15704e-06
4.20398e-05
0.000110547
5.98324e-05
1.83121e-05
1.15716e-06
1.12335e-06
7.58276e-08
5.3326e-05
0.000173217
1.09278e-05
0.000167239
0.00011977
0.000103067
0.000106654
3.13497e-06
5.04554e-05
2.36648e-07
2.3747e-06
8.72352e-06
6.985e-06
4.87985e-06
3.38162e-06
5.79204e-05
2.32215e-05
5.54971e-06
4.99177e-06
9.38766e-05
2.18417e-06
0.000168158
1.2428e-05
0.000113725
1.38263e-06
4.59712e-08
0.00116733
0.000137782
9.29537e-06
6.45401e-05
0.000136884
1.15124e-07
0.000137985
5.94562e-05
8.50542e-06
3.70551e-06
4.00267e-05
0.000102159
3.60155e-06
5.08017e-05
3.19301e-05
3.41992e-06
3.99026e-06
1.15629e-05
0.000108939
2.03439e-08
2.96449e-07
4.88596e-05
1.89208e-06
3.88524e-06
1.95233e-06
6.54262e-05
0.000143823
0.000100936
1.15166e-06
4.25234e-05
9.60045e-08
8.98988e-05
1.14016e-05
5.06535e-05
1.0178e-07
5.75752e-08
1.30043e-05
6.24074e-05
5.04964e-05
0.000127042
7.81407e-07
2.17327e-09
5.28898e-05
8.09064e-07
0.000131162
8.09891e-07
1.08198e-05
0.000165055
2.07001e-06
9.46219e-07
2.01881e-06
0.000223784
0.000154579
0.000124469
5.77438e-05
5.02803e-05
0.000164917
0.000154221
0.000158158
1.32555e-05
7.42647e-06
1.28019e-06
5.22864e-06
2.3563e-06
0.000143432
9.26079e-07
2.69789e-07
0.00012222
0.00013226
0.00017817
1.64036e-05
0.00017769
1.42307e-06
0.0003034
6.88618e-05
2.43019e-05
9.3284e-05
9.80525e-06
1.47838e-06
3.33635e-05
1.897e-08
1.61666e-06
1.11892e-05
6.26733e-05
3.37326e-06
5.45573e-07
3.73706e-06
0.000117746
3.30329e-05
2.99873e-06
6.72456e-08
1.9854e-06
2.3471e-05
4.93927e-05
0.00010038
0.000159584
6.78232e-06
5.89652e-05
1.84022e-05
2.50024e-06
0.000104917
2.35306e-06
6.13181e-05
3.38165e-06
5.77164e-06
9.57711e-05
0.000114051
2.12213e-05
4.61229e-07
1.5579e-06
1.93217e-06
1.90633e-05
4.65877e-05
5.68351e-09
3.98658e-06
3.75947e-07
4.04967e-07
1.56593e-07
2.4578e-05
1.14984e-05
1.46825e-08
0.000135497
8.54117e-05
0.000162571
4.9601e-06
1.84149e-06
9.82596e-06
5.06854e-05
2.864e-07
8.47872e-05
5.04554e-05
0.000136335
3.20046e-07
7.49277e-06
3.68761e-06
0.000127378
0.000103541
6.39435e-05
0.000149054
0.000118557
7.9204e-06
1.64387e-05
0.000144846
0.000114825
5.20766e-05
3.22521e-05
1.34106e-05
1.43435e-07
8.90917e-06
6.1765e-07
1.7692e-08
6.97815e-06
0.00010802
5.6756e-05
3.59217e-07
3.17443e-08
6.74113e-07
2.64222e-08
2.91622e-06
2.801e-05
1.10051e-06
6.54954e-05
0.00034886
2.1499e-06
7.08209e-06
0.000125605
1.12618e-05
0.000151857
2.34099e-07
3.13806e-07
3.62004e-06
4.72266e-06
5.62593e-05
0.000162335
5.78864e-05
4.74546e-05
2.70869e-05
2.34916e-06
2.43551e-06
0.000117655
1.62682e-05
1.89199e-06
1.17706e-05
1.67198e-06
0.000191942
8.80147e-05
2.17607e-06
3.77078e-06
1.94128e-05
9.92632e-06
3.52103e-06
7.16122e-08
2.33572e-08
5.51667e-06
6.59284e-06
1.5352e-05
3.06307e-07
1.36387e-05
0.000154085
0.000135933
1.59546e-05
2.0623e-06
4.73378e-06
7.50902e-06
0.000158441
2.59972e-06
3.97371e-09
1.04071e-06
1.26956e-05
9.85228e-07
4.77481e-09
2.30059e-07
1.76526e-05
1.73031e-06
3.74481e-08
0.0001025
1.02685e-06
7.74327e-08
0.000141066
2.50483e-07
7.26755e-07
1.75367e-07
5.95035e-08
7.47729e-06
0.000108147
4.81512e-06
1.58185e-05
9.96216e-06
1.75823e-05
2.62949e-06
1.8009e-08
1.43448e-05
8.2984e-08
0.000143121
8.77407e-08
0.000109266
0.000116264
1.01605e-08
0.000136555
1.68925e-05
2.83239e-06
6.49512e-06
5.13591e-05
9.01666e-06
0.000144673
9.9278e-08
9.99331e-05
9.86998e-06
3.83112e-07
1.58879e-07
7.46829e-06
4.01933e-07
9.39781e-07
2.48548e-05
1.00644e-06
1.13024e-06
9.38819e-07
0.000120105
1.52998e-05
2.78698e-05
1.71833e-05
5.75602e-05
7.07414e-09
2.82351e-06
4.46345e-06
0.000134431
3.66421e-07
0.000151784
2.30216e-05
0.000158306
9.67169e-05
4.2796e-06
1.373e-07
3.50697e-07
2.30624e-06
0.00013805
4.29449e-06
0.000164554
0.000141288
1.89545e-07
6.52383e-05
1.01385e-05
1.34391e-07
9.91629e-07
0.000140925
5.50741e-05
0.000110017
1.63221e-05
4.58568e-06
4.89259e-05
6.69855e-08
1.31572e-05
5.7761e-05
8.12917e-05
0.000155021
3.36001e-07
4.914e-06
1.22533e-05
1.47079e-07
1.42276e-05
4.74957e-06
3.1043e-07
2.46534e-05
3.34101e-07
2.36609e-05
5.85467e-06
1.36413e-05
1.05087e-05
1.53768e-05
2.83048e-06
1.09218e-07
1.78721e-06
7.15504e-07
1.6662e-05
7.67736e-07
0.000115293
2.67437e-06
1.80279e-05
4.76104e-05
3.85972e-07
4.01146e-05
0.000190297
1.65878e-06
9.10726e-06
1.02436e-05
3.01639e-07
0.000115502
1.35163e-06
2.90082e-06
1.66293e-06
1.0495e-05
5.73987e-05
6.17658e-05
1.93569e-07
0.000110142
0.000110727
0.000181661
1.5269e-08
2.18595e-06
1.51485e-05
1.2157e-07
2.76092e-08
3.04888e-08
7.54503e-05
2.40402e-06
8.72547e-06
1.15595e-05
3.22001e-05
3.67121e-05
0.000109911
0.000139233
0.000146802
4.75952e-05
3.07234e-06
2.71666e-05
2.4092e-05
1.34606e-05
1.65399e-06
5.31328e-06
0.000145818
6.16649e-05
8.02188e-06
1.06737e-05
3.29837e-05
6.4999e-05
6.79849e-05
1.82039e-07
0.000100691
1.95076e-06
1.65775e-07
6.74379e-06
1.00379e-06
1.17902e-05
4.47233e-05
6.91048e-06
4.50139e-05
9.43927e-06
1.03142e-06
1.45603e-05
7.55901e-05
0.000110882
1.0564e-05
4.73327e-05
5.74542e-05
0.000123169
1.19026e-05
0.000148109
9.40725e-06
1.58288e-06
0.000103608
2.03545e-05
3.82748e-05
1.05676e-06
1.77826e-07
6.012e-06
5.59857e-07
4.41922e-06
9.033e-07
1.55354e-05
9.2653e-07
5.10151e-05
2.05798e-05
5.376e-05
1.62271e-05
2.91615e-06
8.49026e-06
5.02922e-07
9.82709e-06
8.99831e-06
0.000137933
1.19137e-05
0.000134105
1.43986e-05
4.20013e-07
5.13961e-08
4.52185e-06
2.05387e-07
0.00010887
0.000132328
5.11585e-06
1.24779e-05
9.1368e-05
7.57899e-07
0.000109162
3.09368e-06
2.11343e-08
4.34553e-07
7.85195e-07
6.21664e-06
1.74017e-06
2.73387e-06
9.99755e-05
1.42258e-05
0.000115663
0.000106147
5.23711e-05
1.01454e-08
1.7401e-06
5.54695e-05
0.000113729
0.000318423
9.23414e-07
7.83388e-06
1.12046e-05
1.29569e-05
0.000110066
9.80213e-05
0.000114574
5.23152e-05
1.23268e-05
5.78466e-05
4.20934e-07
4.8383e-05
0.000117339
9.75136e-06
9.67461e-05
0.000145048
0.000140759
1.4115e-06
4.01311e-07
1.26336e-05
5.77427e-05
5.66201e-05
0.000145051
1.64896e-06
4.41734e-05
2.19254e-06
7.95496e-07
0.000145512
8.99726e-08
5.83696e-06
2.57423e-06
9.13369e-07
2.85756e-08
1.21264e-05
4.43618e-07
5.55046e-06
2.32514e-07
0.000172796
1.26677e-05
5.50783e-05
2.76735e-07
0.000108917
1.63241e-05
3.53147e-09
2.64339e-05
2.44358e-06
0.000130414
9.53523e-07
2.82856e-06
1.4154e-05
3.36133e-07
1.67248e-06
4.53787e-07
1.94662e-06
1.53553e-07
1.81117e-05
5.69784e-05
5.67333e-05
1.4917e-07
8.60931e-06
1.58151e-07
2.9874e-07
3.56003e-06
1.92929e-06
3.93828e-07
0.000110268
1.8898e-07
3.16317e-05
0.000137797
2.28268e-07
0.000144967
3.45564e-07
5.06567e-05
0.00010959
1.39979e-07
9.6511e-05
0.000152889
0.000127365
0.000111401
0.000105155
9.24023e-06
8.75453e-06
2.659e-05
4.70234e-08
5.59637e-05
2.90044e-06
3.3203e-05
3.23834e-06
0.000147181
2.58502e-08
2.81185e-06
7.34931e-07
2.22357e-06
0.000139837
9.95971e-05
3.31628e-08
0.000174511
1.90396e-05
0.000125442
2.75476e-07
4.28333e-05
4.37417e-05
3.69858e-05
1.27056e-06
0.000110495
0.000129476
0.00011065
1.21926e-07
5.22464e-05
0.000110132
1.62426e-06
1.32709e-05
0.000144348
8.51875e-06
0.00015836
5.24356e-08
6.84015e-08
1.64519e-05
4.08856e-06
0.000181384
2.58132e-06
9.35798e-05
2.00449e-05
5.966e-07
1.58676e-06
2.44257e-06
1.16568e-05
2.47101e-06
0.00010796
1.39912e-07
3.95308e-06
3.43863e-05
3.24439e-05
5.47362e-05
0.000128918
1.8601e-06
9.64428e-07
6.95329e-06
4.46446e-05
4.94174e-07
0.000169369
0.000192593
0.000108351
7.20476e-06
0.000116166
1.00966e-06
0.000145846
0.00011721
1.1102e-06
5.21335e-05
0.000104204
0.000106853
8.43408e-09
6.74211e-07
2.73749e-05
5.36559e-05
1.42256e-07
3.47887e-07
1.20838e-06
1.03848e-06
1.50807e-06
8.54123e-06
1.80273e-05
0.000160125
1.33939e-06
2.57159e-05
5.38624e-05
0.000155873
8.46689e-06
4.66518e-06
6.26772e-06
4.47266e-07
0.000157923
1.98322e-06
9.3529e-08
0.00013829
1.09787e-07
4.40491e-06
5.93715e-07
0.000108318
7.51206e-06
0.000100638
2.76914e-05
5.02378e-05
0.000139126
1.69605e-05
1.37291e-06
4.82741e-05
2.74967e-08
2.9064e-06
2.29007e-06
1.33421e-05
6.06134e-05
0.000154715
6.1905e-06
1.98551e-07
1.21042e-07
2.1604e-06
5.74651e-05
2.7805e-08
6.22277e-05
4.76721e-05
1.79573e-07
9.73898e-05
3.69242e-06
1.36307e-06
2.83933e-06
0.000105129
0.000113895
1.4655e-05
2.7071e-06
9.93115e-05
0.000118636
1.15728e-05
9.24532e-07
4.82932e-07
0.000148825
1.22224e-05
1.70967e-06
3.53153e-06
8.43151e-07
3.40093e-08
1.80594e-06
3.03305e-05
1.20891e-08
2.41917e-06
1.36462e-05
0.000158997
0.000159404
4.27408e-07
4.58963e-06
3.70359e-07
1.1726e-06
4.71879e-06
9.77815e-07
1.03908e-05
1.44913e-06
3.3857e-07
4.90574e-06
5.4904e-06
8.38097e-07
3.26105e-06
8.77081e-06
4.16436e-06
8.41777e-06
0.000134672
1.91335e-07
9.42234e-08
3.87326e-08
1.96693e-07
1.97575e-07
8.58077e-06
0.000127334
3.35416e-08
2.77735e-06
1.66365e-07
1.78e-07
8.54674e-05
6.03107e-05
2.22638e-06
0.000170574
6.91968e-07
0.00011382
9.61287e-07
3.88604e-08
1.30237e-09
3.36524e-08
6.59551e-07
0.00010378
0.000158299
0.0002535
5.4576e-05
0.000123606
4.82417e-07
3.67018e-06
0.000105854
6.3706e-05
3.72455e-06
2.32642e-05
5.70334e-07
4.62365e-07
2.66261e-05
3.4992e-05
3.88845e-06
0.000131187
5.71425e-06
0.000107895
0.000134101
1.20832e-06
4.85541e-05
2.26276e-06
1.27e-06
1.48247e-05
7.59461e-06
1.34438e-05
1.97244e-07
2.03812e-07
1.56662e-07
9.00709e-05
0.000127587
1.65168e-06
2.05784e-06
3.58938e-06
2.98218e-05
1.24239e-05
8.40612e-06
4.05397e-07
1.26805e-06