/*--------------------------------*- C++ -*----------------------------------*\
| =========                 |                                                 |
| \\      /  F ield         | OpenFOAM: The Open Source CFD Toolbox           |
|  \\    /   O peration     | Version:  2406                                  |
|   \\  /    A nd           | Website:  www.openfoam.com                      |
|    \\/     M anipulation  |                                                 |
\*---------------------------------------------------------------------------*/
FoamFile
{
    version     2.0;
    format      ascii;
    arch        "LSB;label=32;scalar=64";
    class       volScalarField;
    location    "52";
    object      p;
}
// * * * * * * * * * * * * * * * * * * * * * * * * * * * * * * * * * * * * * //

dimensions      [0 2 -2 0 0 0 0];

internalField   nonuniform List<scalar> 
59516
(
0.240702
0.0138594
0.013166
0.00183009
0.254146
0.274655
0.241514
0.214076
0.069865
-0.00053838
0.248836
0.24279
0.167676
0.239961
0.225247
0.0709045
0.241817
0.249756
0.246112
0.23884
0.245246
0.213494
0.241405
0.154559
0.0619588
0.149153
0.0877421
0.24853
0.243914
0.224262
0.25747
0.248684
0.112019
0.00137735
0.246291
0.201518
0.0602799
0.2526
0.244519
0.0120832
0.0142773
0.24887
0.245409
0.00148904
0.243924
0.0378495
0.244726
0.245239
0.255777
0.246559
0.261796
0.00111035
0.11412
0.217947
0.2447
0.243805
0.250049
0.00148814
0.15422
0.247369
0.00142957
0.197032
0.155416
0.242382
0.00301039
0.244224
0.0074726
0.205273
0.256094
0.243781
0.208948
0.23883
0.042117
0.240089
0.206556
0.243369
0.244776
0.0268296
0.171001
0.246446
0.00136171
0.246458
0.245501
0.099888
0.246459
0.23841
0.0701829
0.23907
0.112935
0.249725
0.252283
0.210192
0.23399
0.207465
0.208404
0.255494
0.224286
0.214742
0.246211
0.165923
0.0761032
0.137622
0.220215
0.00800814
0.0421076
0.00631409
0.00573421
0.0658599
0.119057
0.172483
0.254402
0.0820846
0.210705
0.254946
0.231704
0.191763
0.0294773
0.218364
0.218884
0.0295426
0.220221
0.216845
0.056697
0.218379
0.252876
0.246349
0.231851
0.250487
0.26155
0.23318
0.230892
0.0141
0.206377
0.233726
0.234436
0.203294
0.253281
0.227607
0.138685
0.237479
0.0831369
0.104317
0.214206
0.0824824
0.238061
0.235754
0.244277
0.239749
0.260583
0.234626
0.23787
0.00285249
0.231794
0.00274157
0.233275
0.00504135
0.00362834
0.233941
0.234548
0.226028
0.238145
0.237895
0.225454
0.00414145
0.190036
0.0277879
0.0700297
0.23555
0.236185
0.00392703
0.233338
0.233361
0.228906
0.229761
0.229313
0.24531
0.192778
0.246088
0.0127855
0.190362
0.2316
0.122413
0.145346
0.230984
0.231252
0.0775944
0.107243
0.0596534
0.232611
0.230219
0.000318394
0.121332
0.235319
0.230183
0.236675
0.0188589
0.139323
0.138809
0.00371601
0.228577
-0.000557121
0.0585866
0.215357
0.166744
0.196766
0.122582
0.236258
0.00321665
0.159059
0.222264
0.0393939
0.248306
0.221272
0.197897
0.222403
0.0882837
0.234912
0.018847
0.182044
0.222819
0.222633
0.235936
0.228802
0.00412364
0.22538
0.192082
0.158429
0.166844
0.228442
0.0342844
0.224586
0.120536
0.228982
0.126975
0.133658
0.229139
0.22767
0.0478447
0.227527
0.0509786
0.231809
0.122637
0.118859
0.00301786
0.233026
0.232592
0.230159
0.0113989
0.229053
0.232185
0.0118616
0.230358
0.232289
0.144306
0.231256
0.232056
0.0713726
0.227006
0.176074
0.223884
0.160682
0.225704
0.227267
0.226957
0.201413
0.0542055
0.182791
0.064681
0.224594
0.151868
0.242046
0.196353
0.0686971
0.154616
0.225563
0.201528
0.152176
0.224393
0.22538
0.0888003
0.22864
0.167352
0.155718
0.223294
0.221581
0.241233
0.231979
0.00682629
0.227229
0.202539
0.226334
0.223783
0.207907
0.0272953
0.210977
0.118406
0.203333
0.19897
0.22432
0.202373
0.201812
0.0568783
0.0928635
0.196387
0.205426
0.148791
0.0187345
0.20178
0.202657
0.07577
0.061986
0.202942
0.145224
0.136824
0.244121
0.204631
0.215992
0.256198
0.203965
0.0595324
0.120712
0.214875
0.128239
0.217816
0.167579
0.205125
0.248182
0.216117
0.158311
0.217322
0.0214749
0.237834
0.155637
0.217285
0.178221
0.223821
0.227092
0.195976
0.247508
0.222047
0.197959
0.195864
0.218213
0.0475076
0.098174
0.221989
0.0912913
0.226352
0.218523
0.176565
0.228349
0.230118
0.0351489
0.113794
0.158411
0.048422
0.00717383
0.25426
0.258841
0.191562
0.0314527
0.234375
0.247239
0.211183
0.0309613
0.217332
0.216753
0.234749
0.257893
0.220738
0.080623
0.07913
0.216416
0.162695
0.186916
0.216176
0.217787
0.212473
0.173583
0.20682
0.235219
0.00107354
0.24808
0.00954601
0.0181542
0.217756
0.00708223
0.247544
0.217149
0.0132064
0.0129568
0.0536824
0.212654
0.252858
0.21534
0.253349
0.0105462
0.0710127
0.212597
0.213774
0.223773
0.210763
0.174544
0.224155
0.225196
0.0572237
0.138201
0.22536
0.223778
0.222799
0.0376825
0.0212544
0.0231273
0.125943
0.197496
0.00959746
0.034084
0.0659278
0.00447063
0.212322
0.210022
0.215786
0.215426
0.226131
0.215076
0.165312
0.209655
0.14308
0.215585
0.17983
0.21884
0.214158
0.201499
0.127464
0.224226
0.247896
0.022038
0.219471
0.162346
0.0783592
0.164887
0.182786
0.221272
0.219274
0.216226
0.214598
0.0757803
0.214285
0.166822
0.0271687
0.184838
0.258997
0.142739
0.0610208
0.216606
0.178003
0.213956
0.134062
0.213863
0.0601672
0.214672
0.00389686
0.00732699
0.211174
0.245423
0.208984
0.19323
0.0360786
0.196277
0.194615
0.0405498
0.20312
0.194662
0.190166
0.189504
0.0955726
0.196751
0.191884
0.130677
0.190031
0.0841707
0.187647
0.248674
0.187822
0.26105
0.188857
0.228009
0.081916
0.0945028
0.164166
0.00376399
0.00291839
0.178028
0.201265
0.205219
0.158008
0.192535
0.0480781
0.210803
0.208782
0.249861
0.139349
0.122214
0.167478
0.208551
0.0200341
0.203375
0.241058
0.004538
0.280698
0.209594
0.0632591
0.237697
0.176564
0.242924
0.195665
0.169851
0.187893
0.211905
0.173105
0.212148
0.234294
0.0727137
0.07297
0.253553
0.00298169
0.210662
0.202306
0.253092
0.200682
0.237665
0.000823953
0.203969
0.08266
0.000293375
0.15357
0.0380354
0.251037
0.217832
0.0675424
0.00219726
0.224074
0.124853
0.203012
0.223319
0.202395
0.234976
0.000740267
0.101783
0.0664823
0.202097
0.0344889
0.148184
0.210601
0.130068
0.209295
0.00255895
0.213666
0.062946
0.210115
0.165106
0.112611
0.104983
0.21173
0.00213611
0.0417585
0.20112
0.0780026
0.159097
0.18218
0.11946
0.11474
0.200822
0.200189
0.230263
0.199454
0.11375
0.201051
0.198975
0.108945
0.0973394
0.000900347
0.19995
0.19977
0.201485
0.0928867
0.193029
0.0100364
0.202258
0.00536508
0.212219
0.000886459
0.0235106
0.171263
0.121758
0.0104862
0.202688
0.251305
0.00344397
0.016571
0.199554
0.196194
0.0324548
0.198415
0.199049
0.134543
0.0388774
0.212157
0.205492
0.0131612
0.201035
0.201386
0.147494
0.197771
0.260102
0.201825
0.253345
0.17327
0.25575
0.176128
0.0224728
0.236867
0.00525284
0.00582999
0.257451
0.256119
0.177866
0.201136
0.250792
0.247573
0.124553
0.0998312
0.163398
0.0607837
0.174035
0.115523
0.247805
0.176806
0.179056
0.194668
0.184073
0.257966
0.166262
0.187799
0.052177
0.187911
0.13964
0.0173093
0.187934
0.186955
0.188356
0.1408
0.0851542
0.266198
0.118516
0.121712
0.144474
0.22371
0.188483
0.0614903
0.174441
0.144267
0.012688
0.0641013
0.191053
0.219737
0.151233
0.141267
0.19012
0.190016
0.0762308
0.22964
0.199129
0.130777
0.196212
0.157635
0.205983
0.194017
0.0097768
0.0248941
0.176528
0.2586
0.138516
0.129254
0.00310467
0.147964
0.193703
0.111407
0.203251
0.19867
0.0846716
0.116584
0.201598
0.237447
0.21237
0.160936
0.257952
0.201447
0.0327084
0.209862
0.260748
0.0208172
0.115679
0.224122
0.189576
0.0735397
0.183953
0.0223721
0.0167679
0.160479
0.189919
0.258025
0.213944
0.189384
0.189016
0.194513
0.0859552
0.0103197
0.0623034
0.212545
0.257373
0.1428
0.191922
0.128828
0.0554
0.188681
0.0591027
0.189593
0.242182
0.117237
0.00218562
0.217417
0.0907845
0.195013
0.0169763
0.0730041
0.14577
0.220407
0.19319
0.195151
0.258667
0.22064
0.0368829
0.260667
0.00314621
-0.000627678
0.194447
0.0397138
0.105867
0.145561
0.101699
0.258198
0.191276
0.217191
0.18726
0.0431549
0.156373
0.0495572
0.119677
0.215748
0.187296
0.189021
0.186706
0.0691229
0.232624
0.175665
0.0615143
0.187974
0.18638
0.185781
0.173041
0.188015
0.0183605
0.0113829
0.187028
0.00335479
0.113353
0.129924
0.00991399
0.13657
0.159761
0.239615
0.177673
0.209304
0.163818
0.120351
0.188468
0.190265
0.190843
0.102377
0.189714
0.23296
0.0157921
0.00270046
0.127387
0.10832
0.00287214
0.189399
0.186815
0.188293
0.0173974
0.0287304
0.18608
0.223388
0.0276508
0.0363561
0.258176
0.249651
0.191742
0.0376197
0.200856
0.177268
0.205743
0.160989
0.183692
0.252149
0.161165
0.160612
0.0822123
0.16264
0.253153
0.0309674
0.181847
0.161056
0.0969646
0.198661
0.204863
0.0835489
0.197345
0.220939
0.200211
0.161227
0.243392
0.0491219
0.160755
0.216124
0.0141718
0.172702
0.0662021
0.158008
0.0871838
0.252179
0.164606
0.00291807
0.15878
0.15805
0.168419
0.159999
0.147383
0.00447601
0.0399758
0.197825
0.170642
0.14052
0.200257
0.102052
0.222001
0.0225606
0.170244
0.075716
0.154067
0.200436
0.014609
0.172901
0.169424
0.254484
0.0238425
0.205948
0.225802
0.0381623
0.166409
0.0398717
0.135017
0.190023
0.204689
0.166222
0.165095
0.164477
0.258088
0.0296453
0.203621
0.100738
0.0178005
0.166939
0.208635
0.177235
0.176136
0.03071
0.178823
0.180427
0.094737
0.2283
0.256687
0.239714
0.134501
0.180787
0.00383495
0.246871
0.162728
0.177853
0.147753
0.180143
0.178485
0.183078
0.199553
0.183247
0.204789
0.178931
0.23723
0.23843
0.178544
0.196035
0.177687
0.204688
0.205527
0.0125624
0.117833
0.140253
0.0123393
0.189603
0.180949
0.191174
0.0994607
0.00613486
0.10384
0.177349
0.194151
0.194159
0.115017
0.132876
0.191687
0.255052
0.182098
0.00808667
0.0177776
0.213112
0.183357
0.109207
0.146162
0.180999
0.118754
0.173569
0.174041
0.173854
0.147987
0.196298
0.173202
0.259211
0.0226117
0.172962
0.259437
0.173377
0.227359
0.0391786
0.171695
0.108998
0.0829832
0.173963
0.173241
0.107112
0.109173
0.172042
0.0917633
0.17038
0.171083
0.177605
0.101742
0.169052
0.0291008
0.17141
0.171128
0.115171
0.169524
0.169943
0.240753
0.164877
0.139094
0.166161
0.168016
0.116716
0.0558632
0.100569
0.247606
0.170225
0.171206
0.143913
0.0571955
0.248089
0.146414
0.149146
0.145252
0.144136
0.0106619
0.00557465
0.0472733
0.0958564
0.171425
0.170639
0.00545515
0.213004
0.160986
0.0734046
0.248176
0.140828
0.139615
0.25055
0.142331
0.206311
0.0432612
0.140575
0.200745
0.18609
0.140896
0.103776
0.0376245
0.141566
0.212938
0.190858
0.108627
0.0515164
0.0834782
0.147966
0.0866037
0.212715
0.0827587
0.145545
0.155818
0.254395
0.112579
0.00993045
0.0545138
0.0842502
0.143052
0.211234
0.154621
0.154316
0.0193492
0.122269
0.00776006
0.156778
0.156776
0.0856655
0.0119417
0.187786
0.0369083
0.231791
0.174624
0.171335
0.246625
0.0836777
0.201609
0.210202
0.140412
0.0147577
0.171371
0.244264
0.169692
0.167579
0.142906
0.0739231
0.171268
0.0158716
0.245657
0.214465
0.114502
0.170645
0.163212
0.212326
0.239304
0.203015
0.0278946
0.074729
0.16833
0.175905
0.197902
0.111511
0.194651
0.249626
0.167098
0.196834
0.0669876
0.173462
0.13023
0.0803856
0.17307
0.173017
0.172153
0.19689
0.169108
0.0387896
0.169886
0.0734567
0.193163
0.0189787
0.16807
0.196239
0.00359027
0.0216835
0.165008
0.0626174
0.0426879
0.0664417
0.0556829
0.101202
0.0364926
0.167824
0.165864
0.0293308
0.165011
0.166145
0.195116
0.00933888
0.16744
0.160545
0.00214184
0.0230873
0.157818
0.0914955
0.00350459
0.011871
0.158236
0.113328
0.163314
0.242277
0.0154208
0.195467
0.146805
0.162495
0.159665
0.144263
0.184558
0.169787
0.164333
0.150178
0.24525
0.215572
0.163079
0.16564
0.225729
0.0330937
0.213404
0.185033
0.111794
0.105572
0.165477
0.0753781
0.0187872
0.152694
0.157286
0.260123
0.132419
0.157551
0.155519
0.181223
0.07482
0.155718
0.156757
0.236049
0.157211
0.070652
0.160055
0.159759
0.128061
0.116041
0.140538
0.159886
0.156986
0.159734
0.107783
0.135833
0.163163
0.142086
0.106653
0.113521
0.114315
0.114662
0.133127
0.157989
0.135861
0.248325
0.226979
0.0404004
0.0962025
0.100167
0.134114
0.132024
0.13612
0.174835
0.133051
0.132316
0.0795242
0.100274
0.185884
0.0789527
0.0318716
0.13533
0.13434
0.137003
0.230511
0.0130673
0.00643081
0.0940801
0.144788
0.141868
0.213529
0.0324643
0.134699
0.248431
0.038277
0.143379
0.143
0.17072
0.00171457
0.141535
0.141786
0.141054
0.152773
0.00478218
0.00701118
0.153215
0.153295
0.150144
0.151785
0.157474
0.148779
0.0743308
0.0148932
0.253274
0.190454
0.153503
0.152467
0.115196
0.240937
0.234224
0.217733
0.00126514
0.217931
0.154348
0.154381
0.153155
0.153932
0.154581
0.153186
0.209129
0.128693
0.203316
0.135831
0.0739868
0.0130864
0.155536
0.115709
0.00418719
0.137506
0.160104
0.244994
0.161257
0.109687
0.106299
0.187857
0.120174
0.158099
0.164423
0.162336
0.131751
0.142166
0.240998
0.157588
0.201821
0.0707809
0.0585182
0.155522
0.0606242
0.0212753
0.160232
0.159789
0.118388
0.079613
0.0914567
0.227585
0.159151
0.0470956
0.00538246
0.14311
0.0264087
0.112583
0.15397
0.190377
0.14239
0.0240227
0.23181
0.0140912
0.225733
0.124985
0.214345
0.146872
0.0417705
0.155616
0.140442
0.0888135
0.106798
0.156182
0.156516
0.23282
0.191981
0.203402
0.237489
0.197202
0.190101
0.190435
0.207801
0.152794
0.152141
0.119931
0.0595824
0.0685508
0.0167081
0.215533
0.120545
0.149821
0.147785
0.149027
0.0419599
0.145848
0.204708
0.00481278
0.145861
0.150161
0.171857
0.255804
0.205747
0.204539
0.146524
0.0117733
0.214956
0.148674
0.179589
0.155941
0.18339
0.194282
0.136875
0.212241
0.151612
0.191785
0.155912
0.0188376
0.206105
0.212626
0.122903
0.251417
0.0687452
0.0792502
0.069062
0.135359
0.200636
0.0556309
0.179104
0.057029
0.152203
0.152165
0.130998
0.158002
0.143258
0.223912
0.184763
0.141551
0.189745
0.148311
0.256817
0.210363
0.147886
0.143874
0.184501
0.220315
0.145463
0.0246668
0.178662
0.22368
0.142491
0.129903
0.146749
0.149416
0.150686
0.151495
0.00354979
0.0690098
0.15262
0.250694
0.151106
0.123914
0.197792
0.121552
0.105474
0.224918
0.250894
0.206678
0.206776
0.208331
0.0328818
0.141858
0.17002
0.249388
0.237873
0.25145
0.25508
0.237646
0.125926
0.12285
0.249841
0.0542189
0.127097
0.189189
0.123972
0.206237
0.194357
0.249609
0.231389
0.205908
0.0684687
0.1261
0.13976
0.13414
0.140855
0.20869
0.190289
0.140358
0.136064
0.138147
0.0147555
0.22061
0.0389595
0.141418
0.167118
0.146806
0.142876
0.137839
0.0392867
0.144257
0.127125
0.143539
0.142629
0.212941
0.13007
0.0740471
0.0445133
0.199703
0.101973
0.10113
0.195033
0.0845146
0.0471307
0.0406022
0.0304331
0.192177
0.0636177
0.129476
0.161297
0.0302294
0.217717
0.218444
0.0903351
0.0876016
0.235286
0.133857
0.0143629
0.156163
0.0305941
0.187824
0.0291978
0.0454981
0.0182057
0.00938152
0.0758138
0.213975
0.0437352
0.0231202
0.0241556
0.140592
0.0279395
0.138489
0.21938
0.142006
0.139565
0.191645
0.0430345
0.144857
0.14356
0.011311
0.069076
0.214778
0.144789
0.145246
0.193527
0.219688
0.209245
0.218758
0.0518524
0.241779
0.249806
0.144897
0.145683
0.0121148
0.226327
0.248709
0.143123
0.10847
0.142486
0.0164599
0.209896
0.00628067
0.0430098
0.134442
0.173238
0.136104
0.110734
0.21597
0.101619
0.205402
0.134738
0.135853
0.0666568
0.128137
0.116165
0.245029
0.216156
0.185703
0.134863
0.220715
0.0743744
0.0424506
0.0614113
0.0126737
0.135032
0.21801
0.134616
0.0128516
0.0107358
0.212599
0.136942
0.0644917
0.227105
0.137005
0.137407
0.212848
0.0187662
0.211326
0.137894
0.140505
0.141763
0.148544
0.141665
0.207597
0.204411
0.141868
0.234173
0.151435
0.204201
0.172775
0.139749
0.218971
0.136917
0.109658
0.236295
0.154607
0.139105
0.011122
0.142411
0.141134
0.106134
0.135932
0.188402
0.0539865
0.216391
0.129628
0.19745
0.207396
0.139342
0.152057
0.00984455
0.0646772
0.0522493
0.137661
0.216834
0.0180216
0.135062
0.236475
0.0515452
0.195754
0.0486262
0.135939
0.166097
0.134087
0.00125134
0.178378
0.216747
0.106255
0.0333895
0.0525489
0.102671
0.104336
0.111397
0.214635
0.0103046
0.0339721
0.116674
0.117913
0.203512
0.1886
0.118546
0.12361
0.113095
0.172803
0.237718
0.222509
0.150836
0.0278575
0.201145
0.200056
0.0901239
0.0464315
0.183912
0.0853347
0.116507
0.191733
0.151031
0.154655
0.131829
0.112779
0.122667
0.122415
0.120858
0.195215
0.125037
0.168601
0.233847
0.21656
0.189626
0.209529
0.113842
0.0830774
0.215465
0.125844
0.192398
0.149192
0.197947
0.243267
0.118233
0.00654167
0.127187
0.128973
0.135316
0.213928
0.126467
0.133045
0.153787
0.135211
0.153532
0.128988
0.00179515
0.152377
0.132872
0.132347
0.00480873
0.190558
0.239421
0.151994
0.158978
0.120018
0.134684
0.133235
0.0543492
0.237414
0.134948
0.134554
0.136569
0.0328661
0.214384
0.145016
0.121227
0.152088
0.0789281
0.103094
0.202866
0.125108
0.121624
0.0983836
0.122126
0.132322
0.0824759
0.125223
0.21438
0.141888
0.0717893
0.213378
0.214323
0.109134
0.110093
0.0926556
0.12523
0.0548223
0.128528
0.0603951
0.258832
0.199331
0.165019
0.0788343
0.019711
0.222627
0.0177141
0.0205052
0.124579
0.00205125
0.125096
0.0287534
0.166173
0.0872569
0.123807
0.186454
0.167198
0.124908
0.0249155
0.0202882
0.162619
0.122803
0.036312
0.125694
0.124265
0.141883
0.130647
0.242427
0.192408
0.222552
0.16421
0.187876
0.124613
0.191922
0.165531
0.125093
0.224116
0.24611
0.18688
0.182378
0.125155
0.207972
0.122209
0.22345
0.161047
0.190091
0.0182852
0.0383841
0.180272
0.0097327
0.216129
0.258468
0.225694
0.0114936
0.0528747
0.0176736
0.212693
0.221462
0.00589555
0.167223
0.11833
0.207692
0.17137
0.11777
0.12595
0.029341
0.183442
0.186924
0.051387
0.242353
0.222337
0.134398
0.119704
0.253447
0.118962
0.247326
0.185325
0.183383
0.120023
0.230918
0.106416
0.228964
0.213736
0.233383
0.00650845
0.123111
0.240471
0.0644578
0.249124
0.123448
0.234816
0.0928889
0.0921748
0.0980593
0.243322
0.199969
0.232416
0.19888
0.104636
0.240257
0.240647
0.0934576
0.241852
0.108697
0.192636
0.102823
0.199846
0.132752
0.0896939
0.126093
0.086802
0.126898
0.0193579
0.110121
0.100723
0.223665
0.0978033
0.186245
0.140232
0.166207
0.107903
0.03649
0.0803814
0.187605
0.102897
0.223315
0.0693396
0.112331
0.229814
0.191029
0.11442
0.207624
0.11272
0.102484
0.100282
0.131193
0.107633
0.00200589
0.0365307
0.0400693
0.103081
0.103756
0.1897
0.0460061
0.0266252
0.0981033
0.0653088
0.221853
0.201903
0.032431
0.115088
0.168751
0.108948
0.116484
0.0935891
0.114034
0.201416
0.113571
0.158447
0.000653418
0.218797
0.155774
0.250776
0.117177
0.113693
0.0206263
0.223959
0.0870245
0.117891
0.192444
0.121777
0.118867
0.111547
0.109626
0.0301326
0.121483
0.116472
0.117145
0.111983
0.13087
0.114051
0.219075
0.0944974
0.119153
0.220924
0.25046
0.162847
0.097933
0.18139
0.116799
0.106586
0.101554
0.0547074
0.0950357
0.086871
0.238377
0.096213
0.131386
0.129109
0.0322716
0.0952458
0.218575
0.108655
0.111558
0.154445
0.145925
0.106326
0.169275
0.131539
0.109857
0.107408
0.121998
0.10775
0.217237
0.209214
0.0976951
0.094478
0.104086
0.0423674
0.110234
0.131257
0.189036
0.107222
0.111231
0.101627
0.113119
0.219653
0.0939167
0.212725
0.111042
0.10727
0.0990257
0.107663
0.0836753
0.104259
0.0854212
0.0746734
0.106405
0.235706
0.121048
0.233709
0.155326
0.0717165
0.0231677
0.0924284
0.218633
0.108525
0.107202
0.0788766
0.109023
0.0785765
0.220515
0.219064
0.0823126
0.0829776
0.086511
0.0870678
0.17556
0.138173
0.0846719
0.0852337
0.0641918
0.105518
0.0866463
0.0870475
0.0500542
0.0485449
0.00232169
0.0873087
0.177534
0.0301164
0.138263
0.0904074
0.0932352
0.0973008
0.124483
0.216435
0.110465
0.0798312
0.0115723
0.0187878
0.140099
0.0916856
0.0868795
0.119719
0.0314072
0.0206146
0.0928612
0.218017
0.103122
0.104904
0.0490466
0.0973911
0.244134
0.0997633
0.0979242
0.137334
0.100091
0.103453
0.217936
0.104099
0.117576
0.0185843
0.00404588
0.170826
0.0365121
0.021127
0.107329
0.0885949
0.218401
0.105384
0.226112
0.226675
0.102464
0.217334
0.00718529
0.0990111
0.105335
0.0341785
0.106446
0.226421
0.250906
0.0491802
0.222602
0.104896
0.188187
0.20682
0.105501
0.110028
0.224999
0.10324
0.242743
0.10489
0.127461
0.114119
0.24354
0.22263
0.128865
0.107684
0.10455
0.195997
0.127164
0.195618
0.222729
0.219473
0.10792
0.0121041
0.108461
0.100899
0.19458
0.0821789
0.195236
0.0417084
0.206291
0.00028943
0.219218
0.127851
0.0910769
0.100227
0.22152
0.0978246
0.218921
0.212483
0.221136
0.0133932
0.00354276
0.197164
0.00370394
0.0976428
0.125878
0.169843
0.0954833
0.212805
0.145121
0.216739
0.093206
0.215097
0.17844
0.19414
0.251975
0.131953
0.237587
0.0928231
0.010065
0.14511
0.00982635
0.249317
0.0456592
0.140474
0.194395
0.102147
0.0973319
0.0138257
0.0335904
0.0993593
0.199664
0.221193
0.00677414
0.226794
0.128042
0.242243
0.0584137
0.202016
0.099202
0.179148
0.222873
0.176609
0.165713
0.186963
0.203543
0.216792
0.16361
0.0426927
0.190984
0.100699
0.101042
0.100594
0.0604106
0.236804
0.237804
0.192593
0.11034
0.212768
0.219309
0.109983
0.101651
0.100461
0.0971932
0.236883
0.0484071
0.0949909
0.150221
0.097551
0.190594
0.176441
0.11708
0.0575143
0.098589
0.0966785
0.137182
0.24789
0.158584
0.0967621
0.214204
0.068709
0.0524256
0.232941
0.00479275
0.0683883
0.0138983
0.0685452
0.0687995
0.215284
0.0954652
0.177866
0.213906
0.119291
0.10166
0.222385
0.072421
0.219596
0.0914938
0.0942335
0.0945089
0.194383
0.163795
0.21919
0.198625
0.210692
0.08109
0.140823
0.22309
0.208239
0.101653
0.207472
0.0704792
0.191159
0.0462398
0.193174
0.097285
0.173587
0.0862035
0.131563
0.207758
0.0685481
0.208439
0.0526774
0.105131
0.0841607
0.0303807
0.0887534
0.083097
0.117295
0.219301
0.0868255
0.0401495
0.0177174
0.19514
0.0197077
0.209979
0.00421806
0.0911297
0.0492522
0.0899611
0.208161
0.211782
0.0458605
0.235877
0.0322298
0.00225967
0.193743
0.175087
0.0887529
0.20843
0.0669749
0.0191752
0.114437
0.0025436
0.145431
0.185818
0.135223
0.0908583
0.246338
0.0922745
0.148827
0.193717
0.122035
0.210796
0.0887125
0.133206
0.087902
0.137778
0.235395
0.0943963
0.0813548
0.138257
0.0886417
0.154151
0.0871843
0.057173
0.0871775
0.235232
0.0869223
0.0835308
0.0862253
0.229148
0.109962
0.220623
0.238836
0.23722
0.169419
0.0472713
0.0632233
0.177118
0.208912
0.0220146
0.0609052
0.0862444
0.0847663
0.210228
0.249469
0.00301122
0.0314043
0.0778443
0.220544
0.0319233
0.123545
0.210312
0.0838819
0.0826715
0.0833104
0.080948
0.0836437
0.17025
0.103457
0.206745
0.022325
0.086807
0.0837229
0.230897
0.131786
0.226985
0.240568
0.0457463
0.0843322
0.0630743
0.229215
0.231687
0.226472
0.225681
0.116802
0.0622725
0.221428
0.045906
0.084131
0.203007
0.0939263
0.083222
0.0661845
0.0818347
0.201427
0.200291
0.0841532
0.148638
0.0943268
0.0937026
0.246818
0.0242328
0.0518751
0.0840061
0.0847699
0.00755212
0.0847617
0.0644974
0.0898853
0.197075
0.0849967
0.0161418
0.0914002
0.0075695
0.231582
0.224558
0.118016
0.0872145
0.0898814
0.103272
0.0768316
0.0697859
0.105366
0.0738339
0.0726151
0.0635268
0.0741422
0.232949
0.20765
0.123982
0.194285
0.0782494
0.200598
0.0619618
0.193814
0.160913
0.185974
0.0753243
0.140743
0.0175365
0.200903
0.216699
0.0863899
0.254493
0.0778287
0.0797855
0.133911
0.0206292
0.103916
0.0805357
0.199767
0.0610824
0.0862268
0.0835135
0.0580886
0.165789
0.0582305
0.0573293
0.0586709
0.059467
0.0583186
0.196212
0.19673
0.202847
0.19336
0.0373521
0.0588579
0.227853
0.0645961
0.0359152
0.0639538
0.063501
0.0383515
0.0643347
0.0630373
0.0636732
0.0809944
0.0776013
0.142887
0.0888584
0.100237
0.129577
0.11186
0.102818
0.0383248
0.0814807
0.0807483
0.061018
0.0658839
0.078761
0.156239
0.0161792
0.18505
0.246476
0.145138
0.236472
0.079888
0.0177485
0.0194145
0.019073
0.107932
0.0203922
0.0765402
0.0787232
0.221637
0.254055
0.134471
0.0712684
0.225081
0.121696
0.14995
0.0781331
0.152334
0.0783001
0.157007
0.0655658
0.0350364
0.0424324
0.0742038
0.00147285
0.0802899
0.223448
0.0592946
0.182845
0.0238262
0.0718348
0.0740158
0.208979
0.100826
0.15726
0.113058
0.156171
0.0731593
0.014189
0.226004
0.0879231
0.145637
0.222461
0.222551
0.0750074
0.0636458
0.07581
0.115311
0.0753499
0.153154
0.208534
0.118319
0.0764984
0.0771415
0.122471
0.13986
0.172516
0.0763453
0.0781809
0.0786263
0.22349
0.0772828
0.0786715
0.0283105
0.0689917
0.03651
0.0138121
0.0359233
0.0223177
0.06765
0.0693606
0.0113216
0.0548909
0.0109251
0.22105
0.0707646
0.0400528
0.221273
0.169584
0.105918
0.0612082
0.073943
0.0113431
0.0722252
0.162426
0.114032
0.0706794
0.226889
0.0348741
0.00330071
0.0714923
0.261581
0.112217
0.147652
0.0127456
0.071888
0.0712268
0.172513
0.012892
0.111192
0.142981
0.0661102
0.07139
0.0736574
0.253732
0.233501
0.227261
0.107832
0.0364261
0.0141515
0.0127576
0.228638
0.0128617
0.0452454
0.0747604
0.249935
0.0877484
0.0761629
0.205818
0.228328
0.1628
0.154449
0.0752333
0.0732573
0.221336
0.189427
0.200933
0.0219719
0.185734
0.048831
0.102032
0.0401537
0.0726466
0.115481
0.233349
0.116216
0.114335
0.24125
0.0683476
0.222942
0.0513975
0.152274
0.178902
0.23309
0.116188
0.226447
0.0644835
0.05394
0.0322945
0.0685144
0.226435
0.0519879
0.0469305
0.139836
0.0533723
0.0535506
0.0576116
0.0184934
0.105987
0.0699461
0.0826895
0.0486353
0.0634186
0.0561462
0.0385272
0.228656
0.158464
0.0517907
0.0718086
0.258708
0.135045
0.0686757
0.145215
0.0692389
0.129108
0.0673168
0.226971
0.0503032
0.255575
0.043909
0.0388483
0.141082
0.0528832
0.154271
0.135011
0.163076
0.0214252
-0.00100338
0.0295404
0.0245098
0.0437836
0.0157546
0.0484125
0.0449697
0.0443677
0.239622
0.0297135
0.22909
0.229368
0.0347122
0.218151
0.0724874
0.223962
0.207959
0.0503272
0.220258
0.050529
0.00163579
0.162635
0.104255
0.212553
0.207186
0.114186
0.017476
0.0316343
0.164627
0.179426
0.0518927
0.0502752
0.0676238
0.182742
0.199199
0.147082
0.0182248
0.0131647
0.0668231
0.167696
0.184623
0.202176
0.240001
0.0688802
0.213047
0.195011
0.145924
0.256458
0.104136
0.134111
0.170176
0.0648178
0.231275
0.0111149
0.100406
0.194745
0.17578
0.206495
0.23004
0.0205834
0.100208
0.0671417
0.119711
0.0679773
0.110858
0.122936
0.118843
0.0859992
0.0677293
0.0668103
0.0645868
0.0876649
0.238557
0.0946289
0.0849732
0.0909978
0.225235
0.197782
0.0195222
0.230869
0.0672957
0.0645162
0.135026
0.056854
0.0575061
0.0794177
0.0199709
0.0558868
0.0605484
0.0139251
0.0531963
0.0521469
0.0572723
0.075384
0.0628574
0.0633871
0.229067
0.0421022
0.051067
0.0375024
0.0691267
0.0371261
0.034965
0.0654051
0.0153588
0.0165621
0.0932927
0.0383033
0.0338991
0.230263
0.065974
0.0508278
0.0467776
0.0177025
0.0418272
0.0653196
0.0675346
0.0598896
0.105175
0.14416
0.166355
0.124436
0.0167129
0.059692
0.058136
0.0598966
0.190157
0.0916052
0.066833
0.245728
0.0587491
0.090865
0.0582217
0.060602
0.159635
0.165619
0.0581868
0.097259
0.208702
0.207576
0.0917374
0.0588888
0.228194
0.0588534
0.126616
0.0595083
0.250498
0.0598489
0.187794
0.0585068
0.159437
0.193495
0.223418
0.203011
0.0570741
0.196328
0.142314
0.159079
0.0590006
0.0243637
0.103422
0.144837
0.058787
0.0583762
0.0592057
0.103373
0.0528038
0.240747
0.173797
0.0224833
0.228818
0.0555161
0.222346
0.0226877
0.0510948
0.0542634
0.189616
0.0587038
0.163431
0.23875
0.0516395
0.0551601
0.0891577
0.234498
0.189687
0.188724
0.0563909
0.199148
0.170082
0.0546518
0.0916557
0.0774734
0.0537217
0.0539376
0.163071
0.201715
0.0595726
0.0939717
0.076102
0.226467
0.221572
0.225855
0.0587847
0.227773
0.03987
0.178975
0.206581
0.118535
0.160728
0.0584483
0.232488
0.0284149
0.0320708
0.0343434
0.0986597
0.034284
0.1057
0.103723
0.0922503
0.114732
0.184813
0.0942135
0.139792
0.00797184
0.0397118
0.0801053
0.133508
0.0560478
0.149265
0.209858
0.108298
0.180652
0.174182
0.0104113
0.03433
0.157907
0.0402675
0.000341646
0.230901
0.19106
0.221285
0.0325349
0.23074
0.0881448
0.219266
0.0842263
0.222558
0.0833443
0.227493
0.0373085
0.199696
0.0539835
0.169867
0.085259
0.175171
0.0879709
0.264828
0.0544237
0.0735028
0.185537
0.170255
0.0526059
0.114595
0.170408
0.0544495
0.152972
0.0219336
0.152524
0.0499618
0.0484802
0.0742977
0.230617
0.0546266
0.0349924
0.0537226
0.0555491
0.099719
0.192392
0.0622253
0.055951
0.0992851
0.0993443
0.00435101
0.224359
0.05395
0.0712944
0.128916
0.176833
0.00170137
0.0555107
0.229038
0.046201
0.0446735
0.14078
0.0265151
0.0394133
0.206856
0.0558941
0.226436
0.103563
0.0354707
0.0437778
0.116354
0.0412813
0.0537979
0.0794205
0.051021
0.0523814
0.0518998
0.0215897
0.135828
0.0501722
0.0707783
0.0478957
0.0646846
0.0719962
0.0496693
0.0465913
0.223851
0.0507281
0.044062
0.0466223
0.228682
0.0545777
0.0456443
0.0632027
0.168822
0.0679957
0.0496329
0.0554071
0.0483871
0.00276327
0.226789
0.0687061
0.0484683
0.0358622
0.234001
0.0915235
0.024668
0.0470889
0.00992426
0.0996534
0.225558
0.0460299
0.224169
0.042919
0.0283453
0.228295
0.224999
0.23304
0.0345934
0.229641
0.0136389
0.0166624
0.0472609
0.0248538
0.021258
0.0580443
0.171042
0.229173
0.219848
0.237291
0.217806
0.134705
0.0979327
0.0362522
0.0442795
0.05194
0.127906
0.143626
0.0882166
0.191322
0.0677046
0.0484841
0.155125
0.0610566
0.218613
0.218153
0.0271907
0.219889
0.144411
0.199105
0.233893
0.0453826
0.18154
0.146516
0.155438
0.145885
0.0457948
0.111677
0.220953
0.235738
0.0549701
0.21578
0.233818
0.225047
0.186856
0.038496
0.237131
0.0409417
0.209592
0.21027
0.0407046
0.0452391
0.0364008
0.129247
0.230389
0.0940415
0.145213
0.037011
0.161024
0.230761
0.0484877
0.188453
0.0468032
0.192408
0.218304
0.237155
0.217492
0.0787901
0.0869673
0.103115
0.182364
0.0486351
0.204277
0.204581
0.0469843
0.193927
0.111779
0.047143
0.145198
0.197165
0.0456953
0.221207
0.0384711
0.201388
0.240951
0.0428858
0.1225
0.0435984
0.148999
0.0457822
0.0218524
0.23082
0.151222
0.0741225
0.100354
0.12787
0.121076
0.0184507
0.115156
0.113143
0.219992
0.154715
0.244127
0.210111
0.0612943
0.224772
0.0231604
0.0240748
0.16311
0.138895
0.194094
0.193411
0.0255117
0.0218265
0.111244
0.227689
0.183974
0.209822
0.241542
0.0248304
0.186251
0.152362
0.186779
0.192647
0.142404
0.23183
0.196664
0.200281
0.0566391
0.0608342
0.24032
0.0249241
0.0221206
0.0418228
0.212576
0.228192
0.231357
0.040627
0.0384693
0.169089
0.0399527
0.0411177
0.174169
0.236079
0.192415
0.0636777
0.219389
0.11133
0.189762
0.191657
0.237319
0.0389864
0.139831
0.140559
0.0411317
0.0393045
0.0374173
0.039723
0.149233
0.0412081
0.236558
0.187248
0.17251
0.0410964
0.0363598
0.0809249
0.181507
0.237885
0.108618
0.0976422
0.235499
0.0178276
0.0318356
0.0644919
0.100926
0.0313427
0.0403428
0.0418201
0.0780066
0.0420419
0.235446
0.236543
0.0859407
0.235513
0.137319
0.0774008
0.0376316
0.0616568
0.0578781
0.0689416
0.0402651
0.0343097
0.0437352
0.0504538
0.0366692
0.0598822
0.0639841