/*--------------------------------*- C++ -*----------------------------------*\
| =========                 |                                                 |
| \\      /  F ield         | OpenFOAM: The Open Source CFD Toolbox           |
|  \\    /   O peration     | Version:  2406                                  |
|   \\  /    A nd           | Website:  www.openfoam.com                      |
|    \\/     M anipulation  |                                                 |
\*---------------------------------------------------------------------------*/
FoamFile
{
    version     2.0;
    format      ascii;
    arch        "LSB;label=32;scalar=64";
    class       surfaceScalarField;
    location    "52";
    object      phi;
}
// * * * * * * * * * * * * * * * * * * * * * * * * * * * * * * * * * * * * * //

dimensions      [0 3 -1 0 0 0 0];

oriented        oriented;

internalField   nonuniform List<scalar> 
113358
(
-1.46494e-05
3.0396e-05
-2.13258e-05
5.58057e-06
2.17385e-05
2.80438e-07
-5.83858e-06
-1.61819e-05
-2.54591e-05
1.91677e-05
-2.98257e-06
9.27451e-06
-2.38198e-05
-6.21138e-06
2.33886e-05
6.6424e-06
-1.72922e-05
9.19893e-07
3.01379e-05
-1.37658e-05
1.36157e-05
-1.41962e-05
-7.96041e-06
8.54093e-06
-7.17264e-06
3.37985e-05
-2.46724e-05
-1.95226e-06
-7.23739e-07
-3.11409e-05
1.70037e-05
1.48607e-05
8.19555e-06
5.97538e-07
1.79584e-05
-2.67521e-05
7.10356e-06
3.60257e-06
-1.04101e-05
-2.97821e-07
-6.09149e-06
2.3102e-05
-2.17949e-05
4.78451e-06
-1.46875e-05
1.06589e-07
-3.47686e-07
1.49287e-05
-4.44795e-05
3.44428e-06
1.18709e-05
2.91638e-05
1.19372e-06
-2.54168e-06
1.34796e-06
1.9207e-06
-1.39622e-06
1.89195e-05
-1.94424e-05
1.01475e-06
3.26844e-07
1.14698e-05
-1.28118e-05
9.85756e-06
3.57605e-05
-2.92615e-05
-1.63564e-05
-1.95101e-05
1.07895e-05
6.71179e-06
2.0087e-06
1.50607e-05
-3.79675e-05
3.17851e-05
-8.87882e-06
2.61217e-05
3.19423e-06
2.80862e-05
-5.74014e-05
1.89154e-05
3.73311e-07
-4.82781e-07
-1.88061e-05
-1.16294e-05
4.65606e-05
4.35301e-06
-3.92858e-05
-8.70082e-07
-4.53171e-05
4.94355e-05
-3.24787e-06
-8.96376e-07
4.25893e-06
3.1753e-07
-3.67994e-06
-4.78566e-05
2.09258e-05
-4.09737e-06
3.10312e-05
-2.16548e-05
5.06397e-06
1.78386e-05
-1.24672e-06
-9.24607e-06
8.9578e-06
-1.80624e-07
4.69425e-07
-1.88745e-06
-7.45175e-06
5.33449e-06
4.00462e-06
1.88928e-05
-4.02169e-07
4.24643e-07
-2.17268e-06
2.16509e-06
7.5021e-09
-5.44204e-06
-2.58624e-05
2.74658e-05
3.83865e-06
5.07487e-06
-2.57938e-07
-8.08268e-06
3.26546e-06
2.02684e-05
-1.08653e-06
1.19558e-06
-2.03774e-05
-2.74796e-05
1.26463e-05
-2.9554e-06
1.77884e-05
1.75051e-05
2.56062e-06
-1.98307e-05
-2.3504e-07
-3.40567e-05
8.62612e-06
-1.19216e-05
3.73505e-05
-3.66549e-08
-2.10826e-06
2.14551e-06
9.34828e-06
1.07778e-05
1.75831e-06
-2.18843e-05
7.31233e-06
-3.70062e-05
3.03856e-05
-6.9228e-07
-3.52371e-06
4.43511e-06
3.69676e-05
-3.78816e-05
-1.86521e-05
1.58082e-05
-1.96436e-05
2.24869e-05
1.0884e-07
-2.40932e-05
-3.1024e-05
5.50088e-05
-1.29329e-06
4.33913e-05
-1.23682e-05
-2.97305e-05
5.15449e-06
-1.81266e-05
-7.23885e-06
-6.33155e-06
3.24512e-05
-3.30646e-07
-2.57897e-05
-2.22166e-06
1.54035e-05
-1.02909e-05
-2.8924e-06
-3.04394e-05
-1.21007e-05
4.12463e-05
-1.16816e-05
3.57879e-05
1.56913e-06
-2.5675e-05
-3.41006e-05
4.25738e-06
-5.52239e-06
3.53656e-05
3.55766e-05
1.58512e-05
-4.70781e-05
-4.34949e-06
2.3226e-05
-1.61794e-05
1.55199e-06
-8.59853e-06
-1.02028e-05
2.95464e-06
1.03292e-05
-3.08064e-06
2.89348e-05
-7.67871e-06
1.63767e-05
-3.7633e-05
-1.02141e-05
-3.75476e-05
4.07878e-05
6.97341e-06
-2.05771e-06
7.55556e-06
-8.77255e-06
3.27452e-06
2.80016e-05
-1.20582e-05
2.01349e-05
-3.60785e-05
-2.13906e-05
4.97462e-06
3.74224e-05
-2.10067e-05
1.14539e-05
-5.59694e-06
4.42684e-06
-1.02836e-05
3.90509e-05
-1.01547e-05
-3.01279e-05
1.23013e-06
-1.30158e-05
-1.47855e-05
8.15646e-06
1.96447e-05
-3.08089e-05
-5.04123e-06
1.45504e-05
2.1299e-05
-2.78119e-06
3.18481e-06
-4.03807e-07
3.57937e-05
-6.1295e-06
-3.53726e-05
5.70811e-06
-1.59274e-05
-4.32172e-05
1.72263e-05
4.19181e-05
-4.05279e-06
4.32509e-06
-3.39599e-05
3.3687e-05
1.61291e-06
2.17284e-05
3.06599e-06
-2.64078e-05
3.42178e-06
-2.83416e-06
-5.87866e-07
-2.23877e-08
6.74152e-08
1.13519e-05
-1.13959e-05
6.24389e-06
-3.01973e-05
3.26561e-05
-8.70257e-06
9.73264e-06
-2.42622e-05
2.34408e-05
-8.91169e-06
7.19162e-06
-7.42221e-06
2.29975e-07
-1.96734e-05
-6.45808e-06
3.41917e-05
-8.0598e-06
-2.3995e-07
3.9965e-06
-3.75694e-06
7.5153e-06
-2.9357e-05
8.87544e-06
1.2966e-05
4.82661e-05
-3.53723e-06
-3.18009e-06
-4.15486e-05
-2.73311e-05
-3.3152e-05
3.58799e-05
2.46025e-05
3.90056e-06
-3.74439e-05
6.21223e-06
3.66064e-05
-2.94489e-05
-8.67682e-07
-6.29014e-06
1.06061e-07
1.69615e-07
-1.49344e-05
1.46588e-05
6.43741e-06
8.45405e-06
1.2952e-05
-2.78433e-05
7.66272e-06
-4.02257e-06
3.1137e-06
-6.7536e-06
-1.61194e-05
-1.11936e-05
2.73377e-05
-2.49992e-08
-2.1153e-05
2.60966e-05
-1.88684e-05
1.39247e-05
-2.98153e-06
2.48156e-09
2.97902e-06
-3.0835e-05
3.4253e-05
-3.51997e-05
2.707e-05
-2.80664e-06
-9.31781e-07
-6.11853e-07
4.35011e-06
6.41713e-05
-6.18845e-05
1.89208e-06
-4.17781e-06
-1.15664e-05
3.60285e-06
1.11371e-05
-3.17256e-06
-4.64112e-06
2.57598e-05
-2.82912e-05
7.17266e-06
-1.79906e-05
-2.1298e-05
3.14784e-05
7.81003e-06
9.11245e-06
-1.3024e-05
1.84938e-05
-1.45813e-05
7.76502e-06
2.56439e-05
-5.2668e-05
1.92609e-05
-3.37374e-05
1.20679e-05
1.46805e-05
6.98884e-06
9.40343e-07
-3.05998e-05
2.49479e-05
4.71165e-06
-2.71004e-05
2.50152e-06
9.68277e-06
1.49161e-05
2.343e-05
-2.03107e-05
6.98284e-06
-1.01021e-05
1.28144e-06
1.16745e-05
-1.27605e-05
-1.95106e-07
1.71405e-05
-2.42948e-06
-2.52318e-06
-1.21879e-05
1.5961e-05
1.83741e-05
-1.5992e-05
-1.83419e-05
2.347e-06
-7.37158e-07
4.19497e-06
-5.80462e-06
4.53969e-06
-2.72939e-07
-4.26625e-06
3.39853e-08
3.76728e-06
-3.80153e-06
-4.73292e-07
2.94885e-06
-1.2717e-05
1.0241e-05
-2.03678e-05
4.12131e-05
4.40089e-07
-2.12843e-05
4.81933e-06
-2.21728e-05
1.7147e-05
2.0538e-07
-2.96962e-06
-3.93083e-06
1.10845e-06
5.79128e-06
-5.66888e-06
-1.3825e-05
3.65746e-06
1.58371e-05
-3.01343e-06
1.93873e-05
8.3879e-06
-2.4762e-05
4.04212e-06
3.61058e-06
-1.74888e-05
9.83696e-06
-2.71804e-06
2.83803e-05
-3.22804e-05
6.61817e-06
-7.23022e-06
7.41803e-06
-1.87854e-07
1.77831e-05
-2.20504e-05
3.51985e-06
7.47449e-07
1.84052e-05
1.08517e-05
-3.24475e-05
3.19051e-06
-2.66197e-05
-1.51412e-05
7.49503e-06
3.4266e-05
-2.14755e-06
-2.07183e-05
8.84188e-07
2.19814e-05
1.25311e-05
-1.30015e-05
1.00372e-07
3.7175e-07
1.61262e-05
-2.82468e-05
-5.39187e-06
1.75124e-05
-3.37507e-06
2.63743e-07
3.11108e-06
-4.42708e-06
-1.33522e-06
2.952e-05
-2.37577e-05
-1.54438e-05
9.73521e-06
4.95205e-05
-4.38102e-05
-1.09484e-05
2.23704e-05
-3.26178e-05
2.11955e-05
1.63146e-06
-2.55486e-05
2.04345e-05
3.48258e-06
-3.94675e-06
-9.37435e-06
3.32568e-05
-1.99353e-05
2.31846e-05
-9.81928e-06
-1.02965e-05
-3.06878e-06
-2.83167e-06
-1.22492e-05
1.81146e-05
-3.03339e-06
5.89276e-06
-2.87868e-06
-3.01477e-06
-1.09944e-06
-2.50056e-05
-6.60491e-06
3.27101e-05
-1.47478e-05
2.06295e-05
5.87e-06
-1.17517e-05
5.90245e-06
-1.46031e-05
2.48527e-05
-1.61523e-05
-4.84086e-05
1.15898e-05
-8.24237e-07
3.76416e-05
-2.54083e-06
-4.19872e-05
3.80554e-05
6.472e-06
5.44027e-08
-3.83917e-06
3.78544e-06
2.09002e-05
-3.24555e-05
6.3767e-07
1.09171e-05
3.51191e-05
4.03933e-06
-3.79058e-05
-1.25372e-06
1.07496e-05
1.20923e-06
-2.54995e-05
1.35413e-05
-9.41816e-06
1.29901e-05
1.48332e-05
-2.60868e-05
-2.17767e-05
1.29993e-05
3.48649e-05
5.57929e-06
2.96682e-06
-4.00495e-06
6.81896e-06
-5.04331e-06
-2.5957e-05
2.4182e-05
4.38703e-06
1.39019e-05
-6.23833e-06
-1.2051e-05
-7.93542e-06
1.7294e-05
3.50473e-05
-4.44054e-05
1.74881e-07
2.35534e-06
-2.52976e-06
-2.2219e-05
3.52011e-06
1.37424e-05
4.95718e-06
3.52079e-05
-1.9058e-05
-2.38927e-05
7.74277e-06
3.28078e-05
-8.04027e-06
-3.66968e-06
-2.10978e-05
-2.86748e-05
-1.13026e-06
-7.68441e-07
3.05728e-05
2.55747e-05
1.14844e-05
-3.50815e-05
-1.97718e-06
6.92831e-06
4.83012e-06
-1.17584e-05
1.76243e-06
-2.49432e-05
-1.77512e-07
2.33584e-05
3.92285e-05
-3.01656e-05
-2.86982e-06
-6.19126e-06
4.33953e-06
-6.21071e-07
-3.46876e-06
-2.51026e-07
-3.29009e-05
4.68599e-05
1.99116e-05
-3.38699e-05
1.81695e-05
-2.95973e-05
-2.97112e-06
1.43988e-05
-2.36258e-05
2.57088e-05
-8.74615e-07
-1.20798e-06
-2.94753e-06
1.45628e-06
1.49062e-06
3.45071e-05
-3.83384e-06
9.82671e-06
-4.04993e-05
-2.58616e-05
3.51432e-05
-3.29062e-05
6.42336e-08
2.34357e-06
1.8584e-05
-2.09913e-05
2.60275e-06
-2.51708e-06
-8.62139e-08
-1.09818e-05
-6.18296e-06
1.04447e-06
1.61203e-05
-8.4124e-06
2.09386e-05
-1.59472e-05
3.42045e-06
1.54396e-06
-4.70211e-06
2.9432e-06
2.14527e-07
-1.85262e-06
-1.72874e-06
3.58104e-06
-2.22031e-05
2.22301e-05
2.22859e-05
-2.23128e-05
5.34537e-05
-1.33299e-05
-1.17302e-05
-2.83936e-05
1.28885e-05
5.15697e-07
-4.07723e-07
-1.29968e-05
3.70563e-05
-4.51253e-05
6.25298e-06
1.8165e-06
3.03938e-06
-5.14248e-08
-2.98735e-06
-6.00063e-06
2.88947e-05
-2.77109e-05
4.81643e-06
-1.38803e-05
1.44881e-05
-1.58673e-06
9.78661e-07
-1.02926e-05
8.9994e-06
6.14262e-07
6.78811e-07
2.44007e-06
-1.9502e-05
7.12719e-06
9.93479e-06
-1.14084e-05
-1.07067e-05
2.61516e-05
-4.03589e-06
-1.45749e-05
1.42869e-05
2.56054e-07
3.23193e-08
-3.02195e-05
-3.60386e-05
3.58185e-05
-1.15863e-05
3.71899e-05
1.19071e-05
-3.75106e-05
5.99073e-06
3.03794e-05
7.057e-06
-4.34275e-05
-1.32776e-05
5.9648e-06
1.78331e-05
-1.05187e-05
-2.11907e-08
7.46405e-08
1.0472e-05
-1.05259e-05
1.32084e-06
3.85208e-05
-5.68466e-06
-3.41555e-05
-3.85736e-06
-2.48053e-06
4.14315e-06
2.19518e-06
4.18331e-06
-3.9519e-06
-2.31036e-07
-3.47044e-06
-1.21042e-05
1.00011e-06
-3.09539e-05
4.54905e-07
-6.09582e-06
3.65953e-05
-1.48376e-05
1.33357e-05
4.16292e-07
1.08406e-06
-4.32872e-07
8.15264e-06
-1.349e-07
-7.58451e-06
-2.83059e-06
2.76204e-06
6.84338e-08
3.11744e-06
-8.12491e-07
2.09952e-05
-2.32993e-05
2.82064e-05
3.18949e-06
-2.46532e-05
-6.74285e-06
-3.37359e-06
-1.57738e-05
-1.00942e-05
1.3562e-05
-1.49339e-05
1.01553e-06
3.54953e-07
7.84422e-06
-3.22574e-05
3.79627e-05
-1.35492e-05
1.08937e-05
2.22944e-06
-5.68641e-06
-7.43667e-06
-1.66944e-05
-3.85157e-05
9.92117e-06
4.52929e-05
5.49771e-08
2.58364e-06
-2.01367e-07
-2.43763e-06
9.66776e-06
-6.38208e-07
1.506e-06
-1.05356e-05
-9.80816e-06
2.1328e-07
9.68677e-06
-9.07724e-08
2.23013e-05
3.71409e-06
-2.8016e-05
2.00065e-06
-3.16005e-05
-1.77885e-05
4.03652e-05
9.02479e-06
-6.97264e-06
2.98231e-06
-6.41495e-06
7.28834e-06
3.06767e-05
-3.94347e-05
1.4685e-06
-2.22478e-05
-2.24617e-05
8.97976e-06
3.57295e-05
-2.70316e-06
2.95293e-06
-2.49716e-07
1.76065e-05
1.00877e-05
-2.00312e-06
-2.56907e-05
-7.12777e-07
-4.41556e-06
-2.93899e-05
3.45177e-05
-2.31686e-05
5.84026e-06
5.64802e-05
-3.91512e-05
2.80304e-05
-2.07152e-05
-1.11737e-05
3.85841e-06
2.59246e-06
-1.005e-07
-2.49167e-06
4.21865e-05
-2.11215e-05
2.95879e-06
-2.40229e-05
9.30413e-06
-1.00306e-05
1.28787e-06
-5.61007e-07
2.4256e-06
2.31193e-06
-4.73775e-06
-1.65667e-05
-2.1113e-05
4.33016e-06
3.33492e-05
-1.12187e-05
2.141e-07
1.16212e-05
-6.17495e-07
2.08246e-05
-4.26804e-05
5.30019e-07
2.1326e-05
-2.22314e-05
-2.69305e-05
3.59838e-05
1.31765e-05
-1.30891e-05
1.79135e-05
2.79835e-05
5.39602e-06
2.90316e-05
-3.02965e-05
-4.13157e-06
1.84992e-06
1.4037e-06
-1.24519e-05
9.19627e-06
-3.38056e-05
1.47974e-05
1.21266e-05
6.88214e-06
1.31697e-05
3.46489e-06
-1.50208e-06
-1.51313e-05
-3.29337e-06
-2.55705e-05
2.63625e-06
2.62288e-05
6.87811e-06
-2.6343e-06
2.79061e-05
-3.21494e-05
-1.96415e-06
-8.16092e-08
-4.94182e-06
6.98601e-06
6.69469e-07
1.10867e-05
-4.14798e-05
2.97232e-05
-1.48732e-05
-3.02742e-05
-1.04489e-06
4.61906e-05
3.55965e-07
4.98168e-06
-5.33731e-06
8.10304e-08
-1.90259e-07
1.09123e-05
-1.08017e-05
2.76153e-06
1.74812e-05
1.49192e-05
-3.51613e-05
2.63767e-07
-1.43327e-05
1.48314e-07
1.39203e-05
4.41038e-06
-2.14042e-05
-1.64325e-05
3.3429e-05
1.58854e-05
1.98578e-05
-1.73655e-05
-1.83773e-05
3.51989e-05
2.10756e-05
-4.73231e-05
-8.95118e-06
1.32107e-07
-4.31206e-06
4.18056e-06
2.68648e-06
1.31748e-06
-6.65623e-09
-3.99703e-06
1.91499e-06
2.49422e-06
3.12627e-07
-4.72241e-06
2.4574e-06
-2.95298e-06
1.47826e-05
1.82794e-07
-2.81367e-05
1.05248e-05
1.74291e-05
5.92421e-05
6.02621e-06
-1.24369e-05
-5.28302e-05
-7.94328e-06
1.07859e-05
-2.69328e-06
-1.50104e-07
-1.79383e-05
1.69849e-05
-2.88373e-05
2.97918e-05
3.06643e-06
6.01542e-08
-3.12689e-06
1.1642e-06
8.40755e-06
-1.60755e-05
6.50398e-06
3.04516e-06
-4.59241e-06
1.54687e-06
2.96607e-05
-1.58953e-05
-7.86241e-06
-1.60327e-05
5.80307e-06
-1.4884e-05
2.51137e-05
3.33266e-05
-3.24959e-05
5.19102e-06
-6.02209e-06
1.41203e-05
4.71348e-06
-1.69116e-05
-1.9209e-06
3.41225e-06
-4.02435e-05
1.39332e-05
2.29e-05
2.66893e-05
-5.49207e-06
4.51111e-06
5.14044e-05
-5.68497e-05
1.91924e-06
-3.24778e-05
2.52042e-06
3.3496e-05
-3.53746e-06
-3.19191e-05
-2.05798e-05
3.45622e-05
-1.19204e-05
-1.19881e-05
-1.6656e-05
4.05656e-05
-1.36545e-06
4.58169e-06
3.98424e-05
-4.306e-05
1.45774e-06
2.94554e-05
-5.07703e-05
1.98574e-05
-9.14025e-08
4.38398e-08
1.77765e-05
-1.7729e-05
-4.25513e-05
7.20497e-06
3.12386e-06
3.22231e-05
1.19136e-05
-1.19974e-05
4.06987e-06
-3.98611e-06
7.26073e-07
1.09533e-05
-1.39537e-05
2.27424e-06
-2.29693e-05
3.50223e-05
-4.62576e-06
-7.42903e-06
-3.66065e-05
2.70808e-05
1.69283e-06
7.83203e-06
-2.72535e-05
2.75331e-05
3.59271e-05
-3.62077e-05
3.54687e-05
-2.89844e-05
1.13806e-06
-7.61932e-06
-1.3029e-05
1.67691e-05
-1.00421e-05
6.30226e-06
-7.3863e-06
1.70056e-05
1.42561e-06
-1.10448e-05
-3.79251e-05
3.13325e-06
4.14008e-05
-6.608e-06
-4.38518e-06
-2.4423e-05
3.96786e-07
2.84113e-05
2.34358e-06
-8.08224e-06
6.4659e-06
9.31233e-06
7.59699e-07
-8.92268e-06
-1.14967e-06
9.7988e-06
1.83843e-05
-2.14046e-05
-6.77791e-06
-1.07122e-05
1.50465e-05
2.57674e-05
-3.01017e-05
8.6399e-07
4.2476e-06
-3.57318e-05
3.06196e-05
1.66217e-05
-2.52686e-05
8.4529e-06
1.95147e-07
-4.13266e-05
-6.59375e-06
1.13164e-05
-3.23708e-06
-8.52223e-07
-2.39883e-05
2.80759e-05
-3.17311e-06
4.48094e-08
3.12857e-06
-5.38466e-06
-6.71524e-06
4.40525e-05
-3.19531e-05
5.12675e-06
-4.88181e-06
-2.45044e-07
2.53829e-07
1.95667e-07
-9.39617e-06
8.94625e-06
-2.0694e-05
2.03397e-05
3.55542e-05
5.8161e-06
3.26944e-05
-2.34396e-05
-1.50704e-05
4.3892e-06
-4.46145e-06
7.23678e-08
-4.39272e-06
4.85906e-05
-2.66994e-05
-1.74996e-05
-2.60756e-05
2.77026e-05
1.91973e-05
-2.00122e-06
2.59971e-05
1.08395e-05
-3.48365e-05
-3.61894e-05
-1.33634e-05
4.82461e-05
1.30651e-06
-4.60173e-06
4.17305e-06
4.28253e-07
3.53292e-05
-3.76342e-05
-4.91289e-07
2.79557e-06
-2.32791e-05
-1.47716e-05
2.11902e-05
1.68608e-05
-4.14292e-06
1.93516e-06
-2.36633e-05
2.58707e-05
-2.83926e-05
-7.40281e-06
6.28038e-07
3.51664e-05
-1.79895e-05
-9.01673e-06
-6.73165e-06
1.55306e-05
-3.55643e-05
-3.04777e-06
2.30813e-05
8.49785e-06
-3.542e-05
-1.07504e-05
3.76736e-05
7.2876e-06
-6.93357e-06
-3.54019e-07
-3.00116e-05
5.0288e-05
-7.09604e-06
-1.31799e-05
-6.40088e-06
-2.6655e-05
3.00524e-05
3.0044e-06
-4.94544e-05
5.0786e-05
-5.7707e-06
4.44037e-06
-2.85165e-05
-6.99142e-06
2.05772e-05
1.49293e-05
-2.61708e-05
-5.63512e-06
3.19617e-05
-1.54652e-07
-3.39522e-07
9.16879e-08
-1.23079e-05
1.25562e-05
3.35717e-06
1.68562e-07
-3.52583e-06
-6.11575e-06
6.17738e-06
-6.20522e-08
4.34735e-05
-3.75702e-05
-5.08817e-05
4.49807e-05
2.84536e-06
1.16824e-07
-2.96201e-06
-2.83991e-05
2.7947e-05
-3.48902e-07
8.01382e-07
-1.03414e-05
8.75045e-06
2.1643e-07
1.37406e-06
5.30631e-06
5.2224e-05
-2.82807e-05
-2.92489e-05
-3.00848e-05
-9.21161e-06
3.6159e-06
3.56781e-05
3.36295e-05
1.54275e-05
-1.52909e-05
-3.3768e-05
1.26315e-05
-4.70254e-06
1.54157e-06
-9.47163e-06
3.60537e-05
-3.52604e-06
-2.6036e-05
-6.49228e-06
-3.87229e-06
5.75603e-06
-6.40602e-06
4.52253e-06
-2.55048e-06
8.44159e-06
3.09879e-06
-8.98998e-06
-1.4893e-05
-7.75105e-06
4.19348e-05
-1.929e-05
6.16179e-06
2.41845e-05
-2.36153e-05
-6.73112e-06
-2.25507e-05
2.32369e-05
1.49965e-05
-1.56827e-05
2.28064e-05
-2.06337e-05
-2.74461e-06
5.71121e-07
-5.34726e-08
-1.08035e-05
-4.63754e-08
1.09039e-05
-6.92935e-06
1.30889e-05
-1.45562e-06
-4.70495e-06
-3.22422e-05
-1.10749e-05
1.5882e-05
2.74345e-05
2.54064e-05
-2.13736e-05
-4.34652e-06
3.14187e-07
1.00942e-05
-3.41142e-05
-3.95359e-05
6.35573e-05
2.21248e-05
-2.88653e-05
-1.39556e-05
2.06974e-05
-6.26304e-06
-5.58415e-05
1.48471e-05
4.72576e-05
1.76842e-05
-1.57011e-05
2.4676e-06
-4.45061e-06
3.02816e-05
-1.07061e-05
-3.64549e-05
1.68784e-05
1.33975e-05
2.32487e-05
-5.31127e-05
1.64665e-05
-7.84409e-06
3.19607e-05
-2.82509e-05
4.13411e-06
-2.98463e-05
3.44417e-05
3.48104e-05
-3.9406e-05
-6.76246e-08
-1.37176e-05
1.19395e-05
1.84487e-06
4.02039e-06
-3.77818e-06
-2.41966e-07
3.8419e-05
-4.76626e-05
1.39942e-06
-3.99174e-06
5.33913e-06
2.82698e-06
-4.17507e-06
-2.87389e-06
1.37018e-07
-1.41076e-06
4.1488e-06
1.91973e-05
-2.50763e-06
1.7888e-05
-2.73186e-05
1.08236e-06
8.34804e-06
-9.17056e-06
-2.29691e-06
8.63588e-06
2.66221e-05
-3.47322e-05
1.96847e-05
-1.15735e-05
-2.87259e-05
-4.10186e-06
3.45655e-05
-1.73777e-06
-6.05302e-05
-9.23162e-06
5.37231e-05
1.60391e-05
-4.34846e-05
1.20405e-05
9.87708e-07
3.04578e-05
-4.02107e-06
3.15612e-07
8.41245e-07
2.86398e-06
-2.69606e-05
-3.25628e-05
2.46041e-05
3.49205e-05
2.05608e-05
1.78907e-05
-3.09562e-05
-7.49449e-06
1.23312e-07
1.39542e-05
-1.18247e-05
-2.25247e-06
-4.84763e-07
-2.05027e-05
4.05447e-05
-1.95586e-05
4.19496e-05
-2.98882e-05
-1.60066e-05
2.79954e-05
-3.14558e-05
6.23877e-06
-2.77894e-06
-3.99322e-06
-2.5631e-05
2.78851e-05
1.73993e-06
4.10826e-05
-2.87811e-06
-4.21964e-05
2.32264e-05
-2.60796e-05
6.4804e-06
-3.62679e-06
1.74516e-06
-1.16226e-05
-9.5005e-07
1.08271e-05
-2.46835e-06
2.37683e-06
-2.83764e-06
2.92911e-06
-1.76044e-06
4.35608e-06
1.43088e-06
-4.02751e-06
-7.00885e-06
-1.86629e-05
-1.4656e-06
2.71379e-05
1.09292e-05
8.7588e-06
-2.97793e-05
1.00913e-05
-1.87055e-05
5.98156e-07
6.69739e-06
1.14099e-05
-1.63658e-06
-1.75744e-05
1.70635e-05
-2.24745e-05
2.6658e-05
8.45994e-06
-1.26436e-05
-3.30482e-05
3.85073e-05
-1.23916e-05
6.9326e-06
-6.13762e-06
-1.98541e-05
2.05927e-06
2.39324e-05
1.49977e-06
3.47973e-05
-4.08625e-05
4.56465e-06
1.72981e-05
-5.43444e-05
1.15244e-05
2.55233e-05
4.96301e-06
-3.83958e-05
2.09632e-05
1.24689e-05
1.62016e-06
2.11584e-05
-7.29224e-06
-1.54865e-05
-3.81176e-06
1.84621e-06
3.73472e-06
-1.7694e-06
-3.96806e-06
7.89646e-06
-2.92756e-05
2.53472e-05
-1.52125e-06
-1.06875e-05
2.77712e-07
1.19302e-05
1.65869e-07
1.09681e-05
-1.69277e-07
-1.09655e-05
1.73676e-07
2.4242e-07
1.12024e-05
-1.16186e-05
-9.57577e-06
-1.61989e-05
2.88648e-05
-3.08984e-06
3.19521e-06
-3.19545e-05
1.72437e-05
1.15153e-05
3.37024e-05
8.34302e-07
2.70648e-06
-3.72421e-05
2.58065e-06
-2.6421e-06
6.1881e-08
1.05579e-05
2.12621e-05
-2.68581e-05
-1.07858e-05
3.9902e-08
1.32066e-07
1.06141e-05
2.24696e-06
-2.85346e-05
1.03581e-05
1.593e-05
8.45643e-07
7.07781e-06
-7.16311e-06
-7.6065e-07
-5.48717e-06
-1.16037e-05
2.22706e-05
-5.18086e-06
2.74273e-05
-3.04342e-05
2.62105e-05
-2.32047e-05
1.91055e-05
-8.78321e-06
-3.26665e-05
2.23441e-05
-1.85918e-06
-1.76659e-06
3.62516e-06
1.13465e-05
2.3854e-06
-3.27262e-06
-1.04584e-05
-2.4464e-05
3.6641e-05
2.75879e-06
2.33162e-06
-5.09051e-06
2.39997e-06
-3.10915e-05
-3.72164e-07
2.90639e-05
-1.48454e-07
5.40404e-07
2.08694e-05
-1.39797e-06
2.20775e-05
-4.41897e-05
2.35086e-05
-7.02009e-06
-2.00384e-05
-2.81634e-06
2.98735e-05
5.57547e-06
-9.03883e-06
9.3794e-06
-5.91581e-06
-7.27006e-06
-3.59387e-05
-4.5204e-06
4.77298e-05
1.97348e-05
3.74158e-06
-2.27402e-05
-7.36218e-07
7.07095e-06
3.32315e-05
-5.49122e-05
1.46089e-05
-2.4393e-06
-1.42227e-05
-8.31611e-06
2.49781e-05
-1.83387e-05
-5.8744e-06
9.71326e-06
1.44988e-05
-1.06207e-06
-1.15962e-06
-1.25151e-05
1.47355e-05
4.1977e-05
-1.73569e-05
-1.00705e-05
-1.45486e-05
-2.59491e-05
6.27525e-05
-3.42002e-05
-2.59925e-06
1.08109e-05
2.88303e-07
2.89299e-07
-1.13898e-05
2.93466e-05
-3.523e-05
3.49561e-05
-2.90729e-05
-5.16065e-06
1.62004e-05
-1.30814e-05
2.04067e-06
1.57387e-05
-5.69471e-05
2.11185e-06
3.9097e-05
1.04044e-05
5.05558e-05
-4.31458e-05
-1.78146e-05
6.10754e-06
-5.95729e-06
-9.8866e-06
9.73794e-06
-2.22195e-05
-1.37666e-05
3.97174e-05
-3.7316e-06
3.54415e-05
-2.90375e-05
-4.185e-05
3.54449e-05
1.82479e-05
1.48869e-05
-9.48585e-06
-2.36484e-05
1.17772e-07
-1.56747e-05
8.21962e-08
3.74026e-06
-3.82205e-06
-3.26636e-06
3.15523e-06
1.11029e-07
2.59744e-05
-2.44184e-05
-2.22335e-05
2.06783e-05
-7.6635e-06
9.8553e-06
-2.78636e-05
2.56712e-05
4.18169e-05
-3.26024e-05
-6.80204e-06
-2.41024e-06
-4.5457e-06
1.12941e-06
2.94277e-06
-8.96648e-06
3.1692e-05
-8.51679e-06
-1.42085e-05
-4.09765e-05
1.03424e-06
1.42104e-05
2.57338e-05
1.59364e-05
-7.01659e-06
-1.54458e-05
6.52503e-06
9.09407e-06
3.90361e-05
-3.69183e-05
-1.12127e-05
-2.34831e-05
-4.59761e-06
4.46369e-05
-1.65575e-05
2.22774e-06
2.52064e-05
5.67152e-06
-3.31057e-05
8.50243e-06
2.74137e-05
-3.36884e-05
1.83367e-05
-1.35071e-05
-7.12475e-06
2.29512e-06
2.43379e-05
-3.09793e-05
1.37119e-05
-1.26893e-05
8.05457e-06
7.57445e-06
-2.93945e-06
1.01549e-05
1.16889e-05
2.33617e-05
-4.52076e-05
4.27465e-06
-2.66154e-05
-4.13134e-06
2.64729e-05
3.15424e-07
2.80719e-05
2.51851e-06
-3.09064e-05
1.36342e-05
2.54503e-05
-4.25643e-05
3.48107e-06
-5.66085e-05
4.71154e-05
-7.2279e-07
2.83915e-07
3.90303e-05
-3.01005e-06
-3.63052e-05
-3.17281e-06
7.15004e-06
-9.78182e-06
5.80495e-06
-7.82043e-07
-3.40138e-06
2.24453e-07
3.95831e-06
-3.26148e-06
3.14247e-06
1.18878e-07
-4.86251e-06
-8.34082e-06
3.80959e-05
-2.48923e-05
-3.27759e-05
4.91873e-06
-1.44696e-05
4.23269e-05
4.39252e-05
-1.05274e-05
-1.43613e-05
-1.90401e-05
3.34441e-06
-3.1475e-05
1.14498e-05
1.66811e-05
3.30095e-06
-2.98134e-06
-1.15949e-06
8.39427e-07
-3.81552e-06
3.67698e-06
1.37985e-07
1.85714e-06
2.64727e-05
-4.69654e-06
-2.36327e-05
-5.61572e-06
2.70442e-05
-3.50432e-05
1.36136e-05
1.2611e-05
2.10843e-05
-4.904e-05
1.53452e-05
-1.93435e-06
2.59208e-05
1.92363e-05
-4.32224e-05
-4.10065e-05
2.21574e-05
2.37258e-05
-4.8769e-06
4.18706e-05
-4.30048e-05
8.68251e-06
-7.54749e-06
-3.12804e-05
-5.0588e-07
-9.21942e-06
2.30715e-07
5.08784e-06
-5.31813e-06
2.9403e-05
3.90742e-06
-2.43324e-05
-8.97841e-06
-1.81915e-06
-2.58687e-06
1.23256e-05
-7.92011e-06
3.03767e-06
5.32397e-07
9.9712e-06
-1.35413e-05
-3.4427e-05
1.55019e-05
1.65828e-05
2.34252e-06
1.31577e-05
-2.08944e-05
-3.00072e-06
1.07374e-05
-2.49552e-05
5.60703e-06
4.0912e-05
-2.15652e-05
-2.98133e-06
-1.85965e-07
3.1676e-06
-1.56393e-05
3.96743e-05
2.85734e-05
-5.26069e-05
3.57909e-05
9.68257e-07
-5.66036e-05
1.98437e-05
-2.36559e-06
3.64901e-05
-3.14345e-06
-3.09805e-05
1.80126e-05
-1.39653e-05
1.08473e-05
-1.48953e-05
-1.30777e-06
-2.47631e-05
2.77153e-05
-1.64211e-06
-2.30301e-05
-3.4726e-06
-1.52754e-05
4.17775e-05
-7.81425e-06
-8.38315e-06
-1.44659e-05
3.06639e-05
-1.30476e-06
3.82753e-05
-4.33574e-06
-3.26346e-05
2.28408e-05
-2.28072e-05
8.07453e-07
-8.41e-07
3.88832e-05
1.06996e-07
-2.68633e-05
-1.21269e-05
-8.55123e-06
-4.49204e-06
-2.46059e-05
3.76496e-05
-2.86798e-07
-3.00931e-06
3.29636e-06
-3.40149e-05
5.03839e-05
-3.71638e-06
-1.26512e-05
2.75194e-06
1.86684e-05
5.98887e-06
-2.74088e-05
-4.21763e-06
9.7646e-06
3.40588e-06
-8.9533e-06
-1.5421e-05
-3.80774e-06
1.59639e-05
3.26475e-06
2.19251e-05
1.5004e-05
-5.45003e-05
1.75721e-05
1.2168e-05
-9.52415e-06
3.02041e-05
-3.28479e-05
-2.3468e-06
1.91669e-05
1.56126e-06
-1.83815e-05
2.90649e-06
-2.86267e-06
-4.42176e-08
2.75353e-06
3.35549e-05
1.44033e-06
-3.77485e-05
2.81073e-05
-4.38721e-06
-2.71004e-05
3.38184e-06
-5.53008e-06
6.68569e-06
-3.15481e-05
3.03911e-05
-2.81541e-05
-4.39055e-06
2.17776e-05
1.07658e-05
1.03223e-05
-9.77713e-06
-8.48404e-08
-4.59928e-07
-4.23822e-05
2.77251e-05
-1.63454e-06
1.62907e-05
-4.79383e-06
4.03201e-06
7.61794e-07
1.39867e-05
-1.19179e-05
1.86709e-05
-2.07402e-05
1.95606e-05
1.64087e-05
-8.55305e-06
1.49389e-05
-4.01394e-05
-1.84983e-05
4.36995e-05
1.47072e-07
-1.49776e-05
1.5027e-05
-1.96421e-07
8.60287e-06
-1.38996e-05
-1.60562e-05
2.13536e-05
1.37116e-05
5.98894e-06
-2.35311e-06
-1.73474e-05
-4.09399e-06
9.58073e-07
5.20336e-06
-2.0676e-06
-5.02443e-06
6.10956e-05
-2.08074e-05
-3.52633e-05
1.63018e-05
1.85217e-05
-1.03465e-06
-3.37892e-05
1.35915e-07
2.8948e-06
-3.02982e-06
-7.9876e-07
5.37363e-06
3.33835e-05
-3.79605e-05
4.46999e-05
5.77763e-06
-2.19454e-05
-2.85312e-05
-1.05457e-06
5.41541e-06
-4.26466e-06
-9.59182e-08
1.31121e-05
-1.18117e-06
-1.43e-05
2.36998e-06
-3.97435e-06
-1.25585e-05
6.4705e-06
1.00629e-05
-6.33327e-06
2.84402e-05
4.45787e-06
-2.65653e-05
3.24817e-05
-4.32736e-06
-3.53161e-05
7.16116e-06
-2.97176e-06
5.75363e-06
-2.78193e-06
2.44096e-06
-1.07207e-05
9.57703e-06
-1.2972e-06
6.59142e-07
1.0324e-05
-1.08771e-05
-1.05218e-07
1.05797e-05
1.24159e-05
-1.4541e-06
-2.1541e-05
2.26381e-05
3.11637e-05
-2.13213e-05
-1.30406e-07
3.8441e-06
-3.71394e-06
-4.09921e-05
2.00488e-05
3.84854e-05
-1.75399e-05
3.99186e-05
6.99303e-06
-4.20904e-05
-4.82183e-06
2.97686e-05
-2.00109e-05
-3.27886e-05
8.34096e-06
1.43276e-05
-3.57387e-05
-1.95973e-06
-7.76093e-06
4.54595e-05
-9.01306e-08
3.74954e-06
-3.65905e-06
3.95115e-05
-1.46954e-06
-4.62502e-06
-3.34176e-05
3.95382e-06
-3.94826e-06
-5.16305e-09
-1.22246e-05
3.01007e-06
-7.38468e-06
1.65991e-05
-2.16699e-05
-1.85635e-05
1.64855e-05
2.37485e-05
2.0032e-05
-1.52708e-05
-4.25713e-06
-5.05358e-07
-4.43236e-08
3.00411e-06
-2.96017e-06
-6.80641e-07
-3.93138e-06
1.6779e-08
4.59521e-06
7.39841e-06
2.97139e-06
-5.25283e-06
-5.11745e-06
-1.15459e-05
1.25198e-05
-1.65444e-06
-3.47485e-07
4.24184e-05
-1.14993e-06
-4.092e-05
-7.18177e-06
-7.09833e-07
9.42745e-06
-1.53497e-06
3.4657e-06
-1.36427e-05
1.07082e-05
-5.31343e-07
1.07888e-05
-2.01831e-05
1.44472e-05
-5.0529e-06
9.115e-06
2.12639e-05
3.57364e-06
-3.39533e-05
5.42164e-06
-5.56542e-06
1.44067e-07
1.55446e-05
-1.26358e-05
-3.16992e-05
2.87895e-05
1.1105e-06
1.18432e-06
1.59495e-05
-1.82443e-05
4.52015e-06
1.93823e-05
-2.49962e-05
1.0916e-06
1.14787e-05
-5.33692e-07
-1.78734e-06
-9.15819e-06
1.11579e-05
2.33666e-05
-3.42637e-05
-2.59423e-07
1.3871e-05
-1.03371e-07
-1.18083e-06
-1.25871e-05
-2.56143e-05
9.30959e-06
1.27644e-06
1.5028e-05
-1.28049e-05
-1.21811e-05
-1.71537e-06
9.64793e-06
-1.69985e-05
1.28285e-05
-5.47845e-06
-4.52785e-06
-1.89382e-05
-2.83627e-05
5.1828e-05
-6.09689e-06
7.53641e-06
-1.73859e-06
2.99023e-07
4.04394e-08
2.50087e-06
-2.54136e-06
-7.92513e-06
4.07206e-05
1.20434e-05
-4.48381e-05
3.24523e-05
1.36785e-05
-1.19814e-05
-3.41484e-05
2.76092e-05
-2.30099e-05
2.63422e-05
-3.09409e-05
3.47604e-05
-3.82472e-05
4.23205e-06
-7.45369e-07
-6.01933e-05
2.63193e-05
1.1534e-05
2.23417e-05
-1.15014e-05
-1.44039e-06
1.26892e-05
2.52297e-07
3.54555e-05
-4.72081e-05
1.65719e-05
-4.81878e-06
1.04495e-05
-1.14556e-05
3.64095e-06
-2.63639e-06
-1.79679e-05
1.63791e-05
-1.12157e-05
-1.40644e-05
4.80063e-05
5.25513e-06
-3.91979e-05
-5.30274e-06
1.40865e-07
5.16189e-06
-4.76773e-06
1.0882e-05
-4.01702e-05
-1.95951e-05
-3.26792e-07
1.91985e-07
1.97304e-05
4.48636e-06
1.26669e-07
-4.61342e-06
8.56533e-06
-5.54264e-07
-3.03023e-05
2.2293e-05
-5.98744e-08
-1.99688e-07
1.04548e-05
-1.01958e-05
8.28026e-06
1.82193e-05
-3.03061e-05
3.80504e-06
2.88212e-05
1.94443e-06
1.89143e-06
-3.26554e-05
-2.59943e-06
6.56685e-06
3.88748e-05
-4.28421e-05
-8.66337e-06
-1.05157e-06
-3.6406e-07
1.0079e-05
-9.80028e-06
8.40796e-06
-3.39172e-05
3.53071e-05
-1.33688e-06
2.4596e-05
-2.15119e-05
-1.74669e-06
4.09723e-05
1.2612e-05
-1.8641e-05
-3.49422e-05
8.91165e-06
-4.81214e-05
3.12744e-05
-4.10019e-05
5.23676e-05
-2.27198e-06
2.27341e-05
-9.0267e-06
1.87446e-05
-1.3284e-05
-3.25239e-06
6.41172e-06
1.01244e-05
-7.00545e-06
7.25194e-07
6.37784e-06
-9.78807e-08
-1.28493e-05
3.27561e-05
-2.30625e-05
3.15601e-06
-3.40242e-05
3.0601e-05
3.26072e-05
-2.91833e-05
-3.21047e-06
2.95942e-06
1.80944e-07
7.06021e-08
3.48565e-05
-5.0665e-05
-1.89317e-05
3.47416e-05
-4.76587e-05
-1.92038e-05
3.1807e-05
3.50539e-05
4.34691e-05
4.4783e-06
1.96732e-06
-4.9914e-05
3.71718e-05
-2.51283e-05
3.14252e-05
-3.77808e-05
-3.68573e-06
1.46171e-05
2.68485e-05
3.15676e-06
2.68469e-07
-3.42543e-06
4.0632e-05
-3.74861e-05
-1.27524e-05
9.6072e-06
-2.02363e-05
-7.13025e-06
5.88339e-06
2.14845e-05
1.56758e-05
2.75833e-05
-1.5934e-05
-2.73246e-05
6.84549e-06
2.15329e-05
-2.09541e-05
-7.42461e-06
4.48305e-07
-6.24713e-06
5.7985e-06
-1.91231e-05
-1.71604e-05
1.65972e-05
1.96868e-05
1.53243e-06
1.99824e-05
-4.6029e-06
-1.69117e-05
-3.41941e-05
3.42327e-05
-6.43885e-06
-3.00815e-06
4.18912e-05
-4.08637e-05
1.98106e-06
2.05608e-05
4.21403e-06
1.11528e-05
-3.59271e-05
-5.12771e-08
-2.17815e-06
2.22933e-06
-3.16468e-06
3.15324e-06
1.18799e-08
-2.75226e-05
-1.28775e-05
1.55773e-05
2.4821e-05
-3.43488e-05
-6.31944e-07
4.14991e-05
-6.52084e-06
-1.06301e-05
3.91602e-05
-4.03733e-05
1.18429e-05
-2.65871e-05
2.18077e-05
-9.84625e-06
1.46254e-05
3.56252e-07
2.05401e-05
-2.29838e-05
2.08708e-06
-3.63511e-05
8.01426e-06
2.38635e-05
4.47258e-06
2.50249e-06
5.00474e-05
-1.87793e-05
-3.377e-05
2.15381e-06
-4.01322e-06
-2.49964e-05
-1.31247e-05
1.05984e-05
2.05017e-05
-1.29298e-06
3.37117e-06
-2.258e-05
-1.93802e-06
-4.4737e-06
5.64396e-06
7.67223e-07
1.33616e-05
-4.0579e-06
-9.50358e-06
2.00301e-07
1.29762e-05
-4.40034e-05
4.21075e-05
-1.10821e-05
-1.6734e-05
2.95214e-05
4.38363e-06
-1.71704e-05
-3.52621e-06
4.29455e-06
2.78658e-05
-2.86338e-05
-3.73258e-05
2.78918e-06
3.70133e-07
3.41666e-05
-2.07731e-05
2.4315e-06
1.67583e-05
1.58332e-06
-2.79653e-05
1.73384e-05
3.98014e-05
-2.9176e-05
-1.4064e-05
-2.60752e-05
7.05382e-06
3.30854e-05
5.64357e-06
-4.35375e-05
-5.47255e-06
4.33678e-05
-3.34021e-05
4.35778e-06
-1.29395e-06
3.03388e-05
-3.57358e-05
-2.63595e-06
-2.27164e-06
4.06437e-05
7.45068e-06
-4.18353e-06
3.84772e-05
-4.17461e-05
6.84727e-06
-3.89773e-06
-6.01267e-09
-2.94436e-06
5.00471e-06
-5.16443e-05
-8.08892e-06
5.47284e-05
-3.92872e-06
2.48973e-06
2.01669e-06
-5.78391e-07
-2.87885e-05
-7.55604e-06
1.58104e-05
2.05341e-05
-1.39103e-06
1.36442e-05
2.56893e-06
-1.48216e-05
-1.31011e-05
-1.41993e-05
9.30973e-06
-6.09823e-06
2.44627e-06
3.14946e-05
-2.78439e-05
2.47834e-05