/*--------------------------------*- C++ -*----------------------------------*\
| =========                 |                                                 |
| \\      /  F ield         | OpenFOAM: The Open Source CFD Toolbox           |
|  \\    /   O peration     | Version:  2406                                  |
|   \\  /    A nd           | Website:  www.openfoam.com                      |
|    \\/     M anipulation  |                                                 |
\*---------------------------------------------------------------------------*/
FoamFile
{
    version     2.0;
    format      ascii;
    arch        "LSB;label=32;scalar=64";
    class       volVectorField;
    location    "52";
    object      U;
}
// * * * * * * * * * * * * * * * * * * * * * * * * * * * * * * * * * * * * * //

dimensions      [0 1 -1 0 0 0 0];

internalField   nonuniform List<vector> 
59516
(
(0.103551 -0.000916546 -0.000502475)
(0.0955075 -0.000116002 -0.00037912)
(0.111078 -0.000694453 -0.000429359)
(0.127846 0.00130785 0.00190665)
(0.11369 0.0002074 -0.00456263)
(0.101091 -0.00483104 -0.0107984)
(0.127176 -0.00178356 -0.00212422)
(0.0999433 0.000660385 -0.000101172)
(0.110544 0.000953089 -5.6914e-05)
(0.0522384 -0.00101795 0.00206737)
(0.15405 -0.000323665 -0.00243097)
(0.0598265 0.00022389 -0.00371439)
(0.117116 0.00115709 -1.71413e-05)
(0.0191092 -0.00011197 -0.000183489)
(0.0583481 0.00140522 0.00319705)
(0.0501753 0.00348755 -0.00158508)
(0.169591 -0.00233614 -0.00112158)
(0.0700315 0.00400623 -0.00437482)
(0.114375 0.00606389 0.000654684)
(0.165915 -0.00132095 -0.000117197)
(0.0537884 0.000915127 -0.00126781)
(0.148415 -0.000871203 0.000253553)
(0.154555 -0.00092432 -0.00239007)
(0.0321742 -0.000978292 -0.000257041)
(0.16104 -0.000530364 0.000505267)
(0.0634109 0.00142298 0.000622934)
(0.0400905 0.000810575 -0.00276936)
(0.044254 0.00378037 0.000200879)
(0.0653334 0.00273003 -0.000580848)
(0.0165852 -0.00258547 0.000644687)
(0.108356 -0.021042 -0.00463961)
(0.0455417 0.00366074 -0.000568502)
(0.132026 0.000192998 0.000820918)
(0.110606 -0.000933923 0.00212704)
(0.139441 0.00540948 0.00394791)
(0.145933 0.000269344 -0.000426086)
(0.016017 -0.00156351 -0.00223049)
(0.0699294 0.00267913 -0.00676097)
(0.0950414 -0.00384068 -0.000366769)
(0.159912 -0.000135694 -0.000737744)
(0.0990836 -0.000595628 0.000200591)
(0.144035 -0.00854826 -0.00793192)
(0.148419 -0.00406049 -0.0033382)
(0.104905 -0.000679066 0.000352041)
(0.142616 -0.00532089 -0.000392992)
(0.0531501 -0.000740401 -0.00123553)
(0.132301 -0.0029744 -0.0044517)
(0.163502 -0.00511495 -0.000982851)
(0.111886 -0.00900943 0.0123973)
(0.15112 0.00682615 0.00538676)
(0.104054 0.0104764 -0.0145226)
(0.0420472 -0.00361252 0.00247508)
(0.118099 0.00097743 -0.00230958)
(0.125541 -0.000554234 0.000121343)
(0.0472287 0.00300429 -5.12348e-06)
(0.129571 0.00299839 -0.000887097)
(0.144954 0.00830971 0.00857081)
(0.0447219 0.0038548 -0.00270291)
(0.175579 0.00029766 -0.000164863)
(0.135224 0.00643336 0.00811866)
(0.149329 -0.000472485 0.000187147)
(0.0181575 0.00227271 -0.000789732)
(0.168676 0.000578866 0.000616913)
(0.166789 0.00274655 0.00209475)
(0.120145 0.000210096 -0.000695153)
(0.147603 0.00384306 0.00551773)
(0.0245817 -0.00166809 0.00225477)
(0.03933 0.000254637 -0.00022047)
(0.121524 -0.00506083 0.0222453)
(0.135599 0.00125708 -0.00337028)
(0.0350903 0.000970754 0.000288222)
(0.163937 0.00237079 -0.000130748)
(0.0219419 0.00137545 -0.00334679)
(0.142697 0.00145648 0.000717077)
(0.183652 2.61486e-05 -0.000446424)
(0.158144 -0.00254345 -0.00312194)
(0.164248 -0.00269545 -0.00393682)
(0.14855 -0.000231418 0.000219025)
(0.043797 -0.0014602 0.00137511)
(0.151767 0.00311255 0.00795389)
(0.0363855 0.00222547 0.00106538)
(0.146895 0.00416882 0.00628001)
(0.139721 0.00189101 0.00604734)
(0.0189738 -0.000720851 0.00265713)
(0.146717 0.00330598 0.00660025)
(0.177135 -0.000773518 0.000433616)
(0.0310993 -0.00113392 0.000490095)
(0.149787 -0.000276299 -0.00010933)
(0.0525119 0.000669717 0.00211932)
(0.107121 0.00846387 -0.00581822)
(0.13153 -0.0008826 -0.0115186)
(0.139173 0.00159329 -0.000347444)
(0.174887 0.000283852 -0.000186955)
(0.137161 0.00115494 -0.000343886)
(0.162861 0.000267776 -1.67712e-05)
(0.109933 -0.0105471 0.00394147)
(0.139911 -0.000337249 0.000486157)
(0.0512762 -0.00184745 -0.00406272)
(0.0643802 0.00242934 -0.00104796)
(0.148272 -0.000853102 0.00168372)
(0.0360057 0.0005656 0.00136556)
(0.0231994 0.00119754 -0.00263291)
(0.0219403 0.000778142 0.00301767)
(0.0521179 -0.000794235 -0.00284248)
(0.134503 0.000757502 -0.000222618)
(0.147746 -0.000413584 -0.000266646)
(0.0378914 0.00333482 -0.0013685)
(0.103051 0.000326839 -0.000800073)
(0.0990318 -0.000679424 0.000193895)
(0.0636178 0.000397894 -0.00257226)
(0.124951 0.0129268 -0.0135701)
(0.0292629 0.00297329 -0.000460018)
(0.0644281 0.000816372 -0.00402525)
(0.118041 0.0174249 -0.00874854)
(0.16068 5.37219e-05 -1.89301e-07)
(0.0983117 0.00108356 0.00113033)
(0.052133 0.000581581 -0.00195711)
(0.132531 -9.30155e-05 0.000749668)
(0.0208755 -0.000302262 0.00100868)
(0.147001 0.00118157 0.000330406)
(0.187153 -0.000233237 0.000295494)
(0.170189 -0.000390696 0.000642898)
(0.158695 -0.000230184 0.000894561)
(0.16879 -0.000484924 0.000521877)
(0.132388 -0.0178394 0.00273935)
(0.0898369 0.00129381 -0.00303561)
(0.0283319 -0.000528907 0.00184989)
(0.138339 -0.0137678 -0.00114294)
(0.0898379 -0.0027576 0.0131414)
(0.18184 0.00045949 -5.86064e-05)
(0.184995 0.000225176 5.63742e-05)
(0.111048 0.00168953 0.00191137)
(0.0221901 0.00131879 -0.00152063)
(0.147943 -0.000167562 0.00058586)
(0.0998909 0.00121688 0.000275198)
(0.114193 -0.000626608 -0.00210147)
(0.107485 0.0128186 -0.00897255)
(0.128738 -0.000384897 0.000352003)
(0.0376942 0.0026099 0.000122696)
(0.0971724 0.000490815 -0.00124942)
(0.0419043 -0.000835461 -0.00214325)
(0.186066 -0.000522457 0.000329117)
(0.0177663 0.000761723 0.00154828)
(0.124302 -0.00103307 -0.00055911)
(0.177812 0.0005798 0.00102135)
(0.141721 0.00197054 0.000383757)
(0.14032 -0.00546203 -0.00205164)
(0.117294 0.0017771 -0.00299403)
(0.0621275 -0.001005 0.00173108)
(0.105448 -0.000650781 -0.000882297)
(0.102026 -0.000312035 -0.000833728)
(0.0331753 -0.00126939 2.16363e-05)
(0.167896 -0.000927457 0.00113804)
(0.1544 -0.000252412 0.000248944)
(0.0876862 -0.000203695 0.00213082)
(0.0177021 -0.000333691 0.0019095)
(0.111741 -0.000345134 -0.000213464)
(0.112531 0.00149411 -0.000150267)
(0.0810969 0.00126738 0.000233666)
(0.0181521 0.00217177 -0.00236782)
(0.062521 0.00154731 -0.00319392)
(0.0644194 -0.00350255 -0.00219034)
(0.0330486 -0.00134611 0.000323492)
(0.0237127 -0.00020318 -0.00046197)
(0.0977857 0.00183227 0.0023753)
(0.174855 -6.56131e-05 0.00108997)
(0.0591479 -0.000757687 0.00036931)
(0.180077 0.000977328 1.29042e-05)
(0.0187346 -0.00117106 0.00214609)
(0.136454 -0.000578465 -0.000134771)
(0.0820246 0.0013589 0.00115566)
(0.0496993 0.000756112 -0.000761845)
(0.0612967 0.00158057 0.0007707)
(0.136147 -0.000319904 0.0005295)
(0.0476288 -0.000726892 0.000229354)
(0.134898 -0.00164742 -0.0054691)
(0.171139 -0.000406355 -0.000936104)
(0.14951 -0.00578854 -0.0036125)
(0.0645111 -0.000779388 0.00300238)
(0.0386311 -0.000118677 -0.000537604)
(0.145996 0.00228906 0.000656762)
(0.0315162 -0.0027951 -0.00127755)
(0.0270456 -0.000325584 -0.00212657)
(0.0615983 -0.00154587 0.000185565)
(0.180691 0.000257449 0.000661471)
(0.0564252 0.000304543 0.000686561)
(0.0333726 -0.000536964 -0.00261386)
(0.0215533 1.7281e-05 0.00029038)
(0.120444 0.000181925 -7.76066e-05)
(0.0980331 -0.00175501 -0.000149169)
(0.135266 -0.000534782 0.00275737)
(0.0492251 0.0030135 -2.65227e-05)
(0.164677 -0.000952922 -5.44231e-05)
(0.0540777 0.00199571 7.43164e-05)
(0.154705 -9.0256e-05 -0.000455451)
(0.0278983 -0.000249849 0.000772091)
(0.0541245 0.000743774 -7.54371e-05)
(0.0382778 -0.00107278 0.000269982)
(0.107648 0.00286658 0.00357864)
(0.154425 0.000693025 -0.000554227)
(0.078405 -0.00273881 0.000297723)
(0.186657 -0.000571779 0.000383035)
(0.100405 -0.000791005 0.000821175)
(0.0182836 0.00197785 -0.00135022)
(0.126385 -0.00100589 -0.000504392)
(0.145128 0.000368421 0.000281322)
(0.183414 0.000403098 -2.22356e-05)
(0.154643 -0.00150587 -0.000617238)
(0.0216119 -0.000691534 0.000205117)
(0.112103 -0.00203354 -8.24019e-05)
(0.0479448 0.00338953 0.00301654)
(0.0235876 -0.00388604 -0.000639798)
(0.143346 0.000209873 -0.00146159)
(0.0529692 -0.00114265 0.00072633)
(0.114139 0.00148822 0.000112505)
(0.171928 9.868e-06 -0.000331181)
(0.139738 0.00135346 0.000463773)
(0.157554 -0.00145741 0.000437851)
(0.051461 0.00207975 -0.00275528)
(0.157074 -0.00015683 0.000815879)
(0.0524007 0.00201082 0.00185798)
(0.102974 0.000358198 8.49812e-05)
(0.165797 0.000680279 0.000936842)
(0.0369562 -0.000175797 0.000623519)
(0.170653 -2.75416e-05 -0.000319524)
(0.172857 -0.000425127 -0.000589063)
(0.0266042 -0.000300896 0.00135097)
(0.0442494 0.00142349 -0.002093)
(0.171767 0.000528556 0.000628614)
(0.0516175 0.000240021 -0.00391513)
(0.173473 -0.000599197 4.17986e-05)
(0.173724 0.000238888 -0.000392394)
(0.184489 0.000558842 0.000677444)
(0.0234396 -0.00183231 -0.00132373)
(0.0308536 0.000834773 -0.00148218)
(0.0321306 0.000858548 -0.00116093)
(0.0603754 0.000363354 8.48575e-05)
(0.0942382 -0.00113601 0.000638476)
(0.157284 0.00104314 0.00126055)
(0.0545092 -0.00120858 0.00148875)
(0.18649 -0.000255264 0.00056213)
(0.0191779 0.000341004 0.00284114)
(0.0517539 4.2914e-05 0.00087942)
(0.0232197 0.000142654 0.00257284)
(0.183026 0.000682682 0.000498504)
(0.0898491 -0.000530727 -0.000205143)
(0.145947 0.000256959 0.00101364)
(0.0624402 0.000949667 -0.00140288)
(0.170301 0.000113298 -0.000528742)
(0.102453 0.000310086 0.000481838)
(0.166373 -0.000124486 0.000102099)
(0.140323 -3.80919e-05 0.000652915)
(0.187326 0.000352927 0.000694493)
(0.144745 0.000675032 -0.00085741)
(0.147168 0.00120853 0.00100772)
(0.158625 7.86363e-05 0.000835296)
(0.0529773 4.76305e-05 -0.000257761)
(0.154181 0.00101276 0.00180081)
(0.0396442 -0.000397782 -0.0021992)
(0.0572407 0.000465831 0.00200074)
(0.129117 0.000819826 -0.00105099)
(0.162941 -0.000325694 0.000378406)
(0.113197 0.00312413 0.00155774)
(0.177777 0.000249184 0.000394537)
(0.0963698 0.000127742 0.00210375)
(0.0551224 0.00213122 -0.00150808)
(0.160558 -0.000155276 -0.00132791)
(0.0902508 0.00195019 0.000491623)
(0.0439357 -0.000733344 -0.000688032)
(0.0493685 0.000255647 -0.00142211)
(0.095827 0.00103279 -0.00328093)
(0.17391 -0.000370787 -0.000214535)
(0.0961503 -0.00241218 2.7247e-05)
(0.0902111 -0.00144045 0.000930205)
(0.165934 -0.0010283 -0.000526591)
(0.0902657 -0.000593066 0.00236068)
(0.0199411 0.00239124 -0.00135147)
(0.162468 0.00031657 0.000825165)
(0.024111 0.00155242 -0.00207518)
(0.0384569 -0.00157248 0.00106263)
(0.183156 0.000450888 0.000878286)
(0.138941 0.000134179 -0.000393878)
(0.0238748 0.00256892 0.0025523)
(0.119329 0.000869142 0.000496254)
(0.122822 0.00246069 -6.78763e-06)
(0.168061 -0.00130803 0.00191192)
(0.182677 -0.000596308 0.000100181)
(0.0228156 0.00270833 0.000495684)
(0.181965 0.000540043 0.000367553)
(0.186455 -6.83178e-05 9.7093e-05)
(0.174895 0.000168065 0.00071306)
(0.134685 0.000764376 0.000820421)
(0.137349 0.00102794 0.000681278)
(0.0934123 0.000507517 -0.000192626)
(0.172878 0.00081709 0.000239906)
(0.0267948 -0.000966593 -0.00123586)
(0.161409 -0.000310151 0.000511452)
(0.139044 -0.000464864 -0.000592549)
(0.185829 0.000117682 0.000279273)
(0.170691 0.000698905 0.000716983)
(0.115376 -0.000441211 0.000621481)
(0.0568802 0.000889821 0.00126377)
(0.021859 -0.000332637 0.00151623)
(0.0270296 -0.000655374 0.000447428)
(0.164432 -0.00100242 -0.000924617)
(0.0194438 -0.00112902 0.00280713)
(0.0614248 -0.000340316 -0.00107985)
(0.0501561 0.00278809 0.00111186)
(0.169261 0.000746271 0.000838035)
(0.175906 -0.000458488 -0.000261873)
(0.154891 -5.79121e-05 -0.000806781)
(0.0568962 8.75846e-05 -0.00128587)
(0.101589 0.00159518 -0.00239537)
(0.0383887 -0.00320232 0.00258728)
(0.0540042 0.00129115 0.00109636)
(0.158775 0.000915661 1.06344e-05)
(0.0962323 0.00101284 -0.000931348)
(0.107734 0.012353 0.00350493)
(0.0885499 -0.00189582 0.000916519)
(0.0411044 -0.000170395 -0.000389666)
(0.0619984 -0.00091788 0.00198726)
(0.106509 -0.000993057 -0.00163501)
(0.177949 -4.09417e-05 -0.000403907)
(0.185497 -0.000873519 0.000869199)
(0.186135 0.00016606 0.000995128)
(0.162692 -0.00126058 0.000384777)
(0.0969335 0.00381976 0.00464007)
(0.125961 0.000659916 0.000837918)
(0.168155 0.000902798 0.00102303)
(0.161919 -0.000825891 0.000115173)
(0.164687 -0.000795719 0.000742648)
(0.0549037 0.0011545 -0.00328203)
(0.0213311 -0.00141297 -0.0025066)
(0.150712 -0.0013668 0.000256813)
(0.0379029 -0.00184174 0.00208296)
(0.0302699 0.000107695 5.40876e-05)
(0.162507 0.00051089 0.00175801)
(0.145534 -0.000216474 0.0004239)
(0.0596484 -0.00127982 -0.0030179)
(0.175326 -0.000745166 0.000374373)
(0.167859 -0.000995972 0.000451049)
(0.185092 -0.000687977 -0.000405451)
(0.176014 -0.00126896 -0.000338147)
(0.0313389 0.00150747 5.48911e-05)
(0.160265 -0.000218136 5.94844e-05)
(0.179347 -0.000799441 0.000686534)
(0.0556728 0.000115396 0.000813687)
(0.183785 1.79348e-05 0.00108202)
(0.177413 -0.000303477 0.000424393)
(0.13065 1.4524e-05 -0.00086718)
(0.121927 0.00021005 -0.00100988)
(0.152634 -0.00116939 0.00152414)
(0.143049 -0.0012116 0.000365392)
(0.067863 -0.000351072 -0.000158904)
(0.0304402 0.00127922 -0.000983995)
(0.0335125 -0.00248009 -0.000172161)
(0.0927491 0.000465669 -0.000273127)
(0.0862493 -0.00679238 0.0106269)
(0.0746057 -0.00420441 -0.00608502)
(0.0811977 0.000382002 0.000388494)
(0.113238 7.92741e-05 0.00203971)
(0.130871 0.00018766 0.00087826)
(0.159519 -0.0015904 0.00419301)
(0.157569 -0.000732067 0.000846713)
(0.131098 -0.000820935 -0.000432451)
(0.149205 -9.12027e-05 0.000603777)
(0.149809 0.0008145 0.000350456)
(0.0300173 -0.00093259 -0.000324882)
(0.113922 -0.0224704 0.00276202)
(0.0563134 0.00142822 0.000464787)
(0.0394967 -0.001755 -0.000401711)
(0.0398456 0.000860066 0.000314069)
(0.162731 -0.000639713 -0.00042096)
(0.0921511 -0.000569616 -2.64113e-05)
(0.161585 0.000576221 -0.00122239)
(0.018976 0.00102689 -0.00162805)
(0.125403 -0.000397319 0.000322772)
(0.0426432 0.00100143 -0.000838088)
(0.16684 -0.000239343 -8.86027e-05)
(0.0460521 -0.000621247 -0.000482785)
(0.0600555 -0.00142406 0.00114427)
(0.103906 -0.00277045 0.000809726)
(0.151964 -0.00120635 0.00111273)
(0.0186307 0.00147933 -0.00201571)
(0.0525664 -0.000589809 0.00217899)
(0.132488 -0.000228486 0.000566003)
(0.0221753 -0.00137843 -0.00178152)
(0.130837 0.00130315 0.00950611)
(0.114549 -0.000832133 0.00260299)
(0.131005 -0.000504439 -0.00207912)
(0.0926538 0.00204696 -0.00286846)
(0.0863112 -0.0012278 0.00207737)
(0.162945 0.000503973 0.000169765)
(0.0771876 -0.00791369 -0.00718531)
(0.185518 0.000123297 7.48615e-05)
(0.111381 0.00864487 0.00903225)
(0.0574715 -0.00263219 0.000355496)
(0.0607485 -0.000428805 -0.00141126)
(0.182057 8.15306e-05 0.000256841)
(0.181449 0.000306481 0.000368089)
(0.050635 -0.000506235 0.000612035)
(0.132361 0.000394287 -0.000606742)
(0.0956826 -0.000470201 -0.00224435)
(0.182662 0.000219883 0.000504014)
(0.181948 -0.000200159 0.000964458)
(0.0437678 0.00128992 -0.00332968)
(0.131798 -0.00111801 0.000182388)
(0.145424 -0.00180318 0.00163204)
(0.148039 0.000646557 -0.000577399)
(0.157285 0.00077552 0.000555247)
(0.0205638 -0.000712535 -0.00258944)
(0.0201222 0.00100081 -0.0025246)
(0.12573 0.00117247 -0.00165044)
(0.178016 -3.18524e-05 -9.00269e-05)
(0.183924 -0.00144953 -0.000622202)
(0.0329799 0.000347955 -0.00245732)
(0.170938 -0.00165367 0.000319293)
(0.104826 -0.00101444 -0.000827079)
(0.177931 -0.000240157 0.000162965)
(0.17872 -4.69774e-05 0.000961099)
(0.183925 0.000216047 -0.000563008)
(0.175528 0.000620217 0.000688064)
(0.174335 0.00150247 0.00049863)
(0.0865395 0.000543091 0.000301822)
(0.181623 0.000610798 -0.0001752)
(0.0541804 -0.00103359 -0.00261776)
(0.168855 0.000153546 -0.000522068)
(0.107391 -0.000406134 -0.0010543)
(0.154102 0.000373319 0.000996157)
(0.177485 0.000166848 -0.000162377)
(0.149145 -0.000405725 0.000151965)
(0.144909 0.000128452 -0.00131759)
(0.0386542 0.00221292 0.00207755)
(0.0323889 0.000832808 0.000256545)
(0.0201395 0.00174853 -0.00199169)
(0.153264 0.0042284 0.0075627)
(0.189792 -6.27606e-05 -0.00025178)
(0.139407 -0.000746126 0.000692118)
(0.125184 0.000905521 8.55827e-05)
(0.0294223 -9.65343e-05 0.00111685)
(0.0225514 -0.000362025 0.00258763)
(0.11246 -0.000590058 0.00166785)
(0.153596 -5.54171e-05 0.00145401)
(0.177979 -0.000447406 0.000765017)
(0.154858 0.000447488 0.000239507)
(0.13438 -0.00115855 -0.000785938)
(0.188643 9.77459e-05 0.000352244)
(0.133493 0.00069102 0.000994762)
(0.0252113 -0.000507617 0.00236321)
(0.121235 -0.000189353 0.000852177)
(0.0552235 0.000523615 0.00288203)
(0.0704779 -0.00704508 0.00150987)
(0.154944 0.000284778 0.000563517)
(0.0910152 0.000550325 -9.14802e-05)
(0.146589 -0.000164369 0.000210705)
(0.0195409 -0.00368369 -0.0013338)
(0.181795 0.000348238 -0.00049347)
(0.182582 -0.000140402 -0.000257721)
(0.180197 0.000165498 0.000622476)
(0.0892606 0.000913615 8.78795e-05)
(0.15401 -0.000866935 0.00166409)
(0.175493 5.68113e-05 0.000641852)
(0.119977 0.000439941 0.000190211)
(0.184381 0.000642786 0.000186424)
(0.0976988 0.00405572 -0.00338636)
(0.172834 0.000384211 -0.000328603)
(0.148869 -0.00287395 -0.000434804)
(0.019534 -0.00125097 0.00140221)
(0.181258 0.000124929 8.26138e-05)
(0.115263 0.00223019 8.20891e-05)
(0.0440489 -0.00128223 0.00365345)
(0.0887784 0.000842257 -0.00154341)
(0.169108 5.34635e-05 -0.000143659)
(0.127391 -0.00042907 0.0010672)
(0.0819142 0.00021848 -0.0023261)
(0.0193654 -0.00176886 -0.00191941)
(0.176616 -9.94076e-05 -0.000245817)
(0.123221 0.00165728 -0.00185843)
(0.161901 -0.000427475 -0.000666645)
(0.122682 -3.45238e-05 0.000782383)
(0.0350241 0.00160908 0.00155551)
(0.140676 2.85711e-05 -0.00032178)
(0.0257428 0.00208079 -0.00331879)
(0.16414 0.000202392 -0.000804308)
(0.10228 0.0113996 -0.00365142)
(0.17021 -0.00138335 -0.000739585)
(0.0492171 2.65882e-05 0.00173583)
(0.103827 -0.00120162 -0.00157498)
(0.0927588 0.000115381 -0.00120939)
(0.0330508 0.00186734 0.0016992)
(0.186313 3.88655e-05 0.000260803)
(0.174687 -0.000316634 0.000670531)
(0.0206943 0.00071543 0.00202227)
(0.163375 0.000173005 0.000378733)
(0.185764 0.000494232 0.000606588)
(0.0352507 -8.50459e-05 -0.00213386)
(0.0589865 0.00260332 -8.52814e-05)
(0.0512883 0.00191215 0.00133728)
(0.154702 -7.0614e-05 0.000664927)
(0.181643 -1.16038e-05 0.000421671)
(0.0324208 -0.00086669 0.00148842)
(0.0512179 -0.00171383 -0.000560177)
(0.0539868 0.00107057 -8.575e-05)
(0.113169 0.00153375 0.000402821)
(0.183389 0.000199744 0.000547678)
(0.0220397 0.00119645 -0.00287759)
(0.16017 -0.000527381 0.000769832)
(0.151923 0.00375812 -0.000645516)
(0.18199 -0.000488833 0.00103395)
(0.0900997 0.00386689 -0.00372732)
(0.169677 0.000497507 0.000294844)
(0.021477 -0.000273796 -0.00234207)
(0.165223 -0.000911247 -0.000487772)
(0.0257631 -0.000383716 -4.90925e-05)
(0.0585668 -0.00160359 0.000822399)
(0.154912 -0.00126831 9.4101e-05)
(0.0578195 -0.00172468 -0.000588119)
(0.0193176 0.00225397 0.00200103)
(0.0347802 0.000684956 -0.00109893)
(0.0429147 -0.00231183 0.00157851)
(0.0559891 0.00112363 -0.00160849)
(0.146151 0.000112272 -0.000793952)
(0.0478235 -0.0010968 4.54507e-05)
(0.0565396 0.00183874 -0.000980875)
(0.128242 -0.00714455 -0.013802)
(0.172137 3.13747e-05 0.000578684)
(0.0225785 0.00144858 0.000264589)
(0.104597 0.000336458 -0.00110241)
(0.0812692 0.00886691 -0.00350787)
(0.173348 -0.000311611 -0.000260986)
(0.0559673 -9.6849e-05 -0.00136347)
(0.167936 0.000118463 0.00120326)
(0.054656 -0.00220943 -0.0016398)
(0.121542 0.000695638 0.000600458)
(0.179308 -0.000155019 -0.00080032)
(0.0482518 0.00213051 -0.00433495)
(0.17779 3.26222e-05 -0.000160446)
(0.0475069 0.00224813 0.00240848)
(0.0179875 0.00274005 0.00102333)
(0.146041 0.000865247 -0.000477172)
(0.18179 -0.000230534 0.000141567)
(0.12829 0.00102808 -0.000473473)
(0.123469 0.00163127 -0.000794645)
(0.18127 -0.000824683 5.95473e-05)
(0.0579904 0.00170616 -0.000243721)
(0.169218 -0.000767162 0.0003696)
(0.0544026 -0.00174088 0.00234156)
(0.176899 0.000181469 0.000186406)
(0.124492 -0.00141194 -0.0013484)
(0.0263563 0.000677092 -0.00366149)
(0.154111 0.000829429 -0.000961106)
(0.0494115 4.41575e-05 0.00157525)
(0.0244768 -0.00174125 -0.00182145)
(0.148031 -0.0013472 -0.00045251)
(0.0408957 -0.00117339 0.00104417)
(0.137161 9.41214e-05 6.99513e-06)
(0.181893 -0.000336426 0.000995645)
(0.130006 0.000288109 0.000209001)
(0.0511701 -0.00230707 -0.00250596)
(0.181784 0.00110004 0.000362646)
(0.0871284 -0.00134032 0.00123079)
(0.188497 0.000224804 7.93883e-05)
(0.183285 -0.000105472 0.000523032)
(0.183286 -0.00014288 0.000992118)
(0.181173 -0.000396633 -0.000279953)
(0.0416714 -0.00234672 -0.00198677)
(0.049014 0.000295013 -0.000418217)
(0.180119 -0.000735489 -0.00013132)
(0.163097 0.000190494 0.00169655)
(0.0297912 -0.00215838 -0.000982342)
(0.162781 -0.000261564 0.000687589)
(0.18305 4.89977e-05 0.000346779)
(0.1787 -0.000447314 -0.000312262)
(0.183898 -0.000769634 -0.000212911)
(0.113691 4.13295e-05 -0.00178096)
(0.0201024 0.00204262 0.00174526)
(0.179639 0.000490824 -0.000189815)
(0.0975958 -0.000911101 -0.00115317)
(0.152171 0.000921527 0.000713369)
(0.0929938 0.000337528 -0.000130078)
(0.0273328 0.00193677 -9.40958e-05)
(0.183617 -5.42955e-06 0.000609032)
(0.0886488 0.00231874 0.00238247)
(0.131482 2.82293e-05 0.000234073)
(0.186482 -0.000428202 -1.31597e-06)
(0.140635 -0.00159228 -0.000119523)
(0.0161941 0.00149531 -0.00189811)
(0.0205709 -0.00127858 -0.00200388)
(0.178511 0.00050045 0.000211708)
(0.170409 -0.00117201 -0.000845099)
(0.186812 0.000250985 0.00112784)
(0.153257 -0.000484908 0.00131413)
(0.0891742 -0.00137388 0.000570817)
(0.149448 -0.00102438 -0.000602682)
(0.177852 0.000238416 0.000875788)
(0.0188551 0.00166936 0.000401831)
(0.180682 0.000593921 0.000544274)
(0.135009 -0.0151323 -0.00044077)
(0.0349177 -0.000577945 0.00186772)
(0.0519537 -0.00332658 0.000832969)
(0.143442 -8.49195e-05 -0.000926675)
(0.139866 -0.00161256 0.00104516)
(0.13668 0.000438869 -0.000167062)
(0.121628 -0.000684645 0.000668007)
(0.101835 -0.00349084 0.00114942)
(0.185577 3.94481e-05 0.000134029)
(0.0949274 0.000893209 -0.00293492)
(0.177754 0.000514637 -0.000183884)
(0.17361 0.00104113 4.95334e-05)
(0.188391 -0.000211743 0.000202586)
(0.177188 -0.000272513 0.000192459)
(0.0375521 -0.000325634 0.00186666)
(0.165025 -0.00024461 1.93434e-05)
(0.0303585 0.000942516 -0.00124056)
(0.0944296 -0.00919742 0.00542601)
(0.0568844 0.00186369 0.0014912)
(0.127251 -0.00253581 -0.0130715)
(0.128914 -0.000658503 -0.000753726)
(0.117466 -0.019074 -0.00424678)
(0.172639 0.000328193 -0.000502481)
(0.177581 -0.000557244 -0.000286762)
(0.154671 0.00133534 -2.54952e-05)
(0.173413 -0.000398331 0.000638597)
(0.0311777 0.000256137 -0.000565082)
(0.100941 -0.00379 -0.00254247)
(0.112493 -0.00210021 -0.0160202)
(0.178988 0.000237743 0.000205328)
(0.109528 -0.00224024 -0.000608565)
(0.136934 -0.0135486 -0.00476509)
(0.157172 -0.00392216 0.00452911)
(0.108232 0.000852685 0.000912055)
(0.0326928 -0.000658857 0.00118671)
(0.0507957 -0.00250431 0.00138149)
(0.0225694 0.000104708 -0.000210485)
(0.0213902 0.000169288 -0.00163582)
(0.032021 -6.54801e-05 0.000154641)
(0.133612 -0.00965809 0.00554525)
(0.13797 -0.000600054 0.000853091)
(0.0217168 -0.000766846 0.00301324)
(0.0205906 0.00147523 0.00226741)
(0.187532 0.000187627 -0.000189752)
(0.0961391 -0.0126306 0.00857974)
(0.0345061 0.00149307 0.000546915)
(0.147547 0.000192123 -0.000603931)
(0.102779 -0.00113698 -0.00141579)
(0.133046 0.000234158 0.00124261)
(0.0387286 0.00202446 -0.00109306)
(0.0510911 0.0015858 -0.00061697)
(0.108712 -0.00122998 4.25988e-05)
(0.171722 2.65546e-05 -0.000892922)
(0.15245 -0.000106554 -0.00079535)
(0.0328089 0.00271965 -0.000928239)
(0.0220442 -0.00172535 0.00104275)
(0.106234 -0.0151815 -0.0112673)
(0.0235519 -0.00306934 0.000143332)
(0.133252 -0.000792488 -0.00102036)
(0.0247947 0.00138523 -0.00307358)
(0.101305 -0.000464657 0.00212685)
(0.17862 -0.00110789 -7.60812e-06)
(0.178761 -0.000348147 0.00117711)
(0.040348 0.000605086 -0.000767361)
(0.0952287 -0.000256691 -0.00102904)
(0.0324341 0.0011889 -0.00136507)
(0.0255387 0.00301959 -0.00109837)
(0.179593 -0.000567129 -0.000570489)
(0.0173852 -0.00147628 -0.00223083)
(0.167087 -0.000394748 -0.000620551)
(0.0442645 0.00100954 -0.00209154)
(0.155877 -0.00129843 -0.000234202)
(0.14086 -0.000745719 -0.000166378)
(0.0199293 -0.000527479 0.00316962)
(0.0529759 -0.00262647 0.000239998)
(0.148732 0.000452814 0.000641041)
(0.0313857 -0.00152633 4.18538e-05)
(0.161011 3.02425e-05 -0.000536154)
(0.050046 -0.00200908 0.00312119)
(0.105183 0.000258143 -5.84213e-06)
(0.183371 -0.000638027 -8.55903e-05)
(0.0332656 0.000991183 0.000699876)
(0.0215922 0.000921918 -0.00279256)
(0.0465865 0.000919555 -0.000403133)
(0.110795 0.0173848 0.00373593)
(0.101177 0.000357662 0.000452697)
(0.0520277 -0.00243129 0.00251404)
(0.0810738 0.000349929 0.00114586)
(0.0278674 -0.00106718 0.000662632)
(0.184572 -0.000799776 -0.000390254)
(0.0214529 -0.000343039 -0.00162966)
(0.170484 -0.000416194 -0.000684158)
(0.144179 9.82369e-05 0.000123421)
(0.168682 0.000207649 -0.000530219)
(0.0177039 0.00176014 5.84022e-05)
(0.150968 0.000182686 0.000462828)
(0.0795367 0.000886381 0.000246179)
(0.157925 -2.69134e-05 6.43751e-05)
(0.0505852 -0.000559401 -0.000222608)
(0.108166 -0.01301 0.00668813)
(0.160269 -0.00126413 -0.000486256)
(0.0363851 0.00043245 -0.000433976)
(0.188339 0.000326352 0.000364697)
(0.108869 0.00201237 -0.0205001)
(0.115852 0.000321307 -0.0008266)
(0.0301143 0.000781922 -0.00166004)
(0.0465598 -0.000450752 -0.00251763)
(0.182458 -0.000316889 -0.000172502)
(0.130829 0.00128174 0.00056374)
(0.0293568 0.00147418 0.000595277)
(0.107458 0.00139075 -0.00167794)
(0.0566874 -0.00049098 -0.00173075)
(0.0222871 -0.00193745 0.00131624)
(0.179686 -7.32894e-05 -0.000470211)
(0.103343 -0.00128284 0.0100338)
(0.129232 0.00138412 -0.00191512)
(0.173977 -0.000541322 -8.6366e-05)
(0.177773 -0.000416504 0.000667951)
(0.169865 -0.000393723 1.25536e-05)
(0.131138 0.000769492 -0.000226896)
(0.0399474 0.00103813 0.000344671)
(0.0366488 -0.00178157 -0.00177253)
(0.182151 -3.2326e-05 0.000603719)
(0.107583 -0.00938751 0.00872507)
(0.119307 -0.0010793 0.000500061)
(0.126408 -0.00171268 0.000895483)
(0.0777568 0.00187349 0.000833064)
(0.1478 -0.000381468 0.00146903)
(0.163821 -0.000573579 -0.000979042)
(0.0960537 -0.000294341 -0.00129466)
(0.101121 0.00183447 0.00046626)
(0.0355223 0.000507983 -0.00227808)
(0.0679911 0.000494815 -0.000339556)
(0.0396387 -0.00102656 -0.00297147)
(0.151457 -0.000922493 0.00098164)
(0.175534 -0.000346324 -0.000277573)
(0.0906933 0.00179606 -0.00212041)
(0.0954638 0.000762112 -0.000611218)
(0.0192091 0.00198238 -0.000399138)
(0.0757359 -0.000333553 -0.000679109)
(0.054257 -0.00183694 -0.00232038)
(0.176673 -0.000143528 -0.0010183)
(0.17865 -0.00112276 -0.000388079)
(0.104823 -0.00956656 0.00605334)
(0.163302 -0.000355428 0.00116233)
(0.0782526 -0.00228746 -0.00189952)
(0.101708 -0.00254985 0.00794018)
(0.131748 -0.0015748 0.00173394)
(0.0237784 -0.00183072 -0.000166544)
(0.178686 -0.000856208 0.0001502)
(0.0464132 0.00130644 -7.14797e-05)
(0.138756 -0.000266149 0.0013526)
(0.0259615 0.0037072 -0.000287239)
(0.175586 0.000133211 -0.000690782)
(0.101647 -0.00432918 0.00266368)
(0.158156 -0.000626231 -0.000287175)
(0.112902 0.000391267 0.000542265)
(0.146104 -8.965e-05 0.00082586)
(0.14943 0.00125357 0.00033899)
(0.185536 0.000631023 0.000299443)
(0.031813 -0.00192606 -1.93992e-05)
(0.0439874 0.000602573 -0.000941591)
(0.0265681 -0.000693298 -0.000219766)
(0.177362 -0.000335442 0.000699444)
(0.157305 0.000298275 -0.000531914)
(0.135372 0.00167806 -0.000183557)
(0.15975 0.000574338 -0.00139598)
(0.0192918 0.000350379 0.000505093)
(0.0950949 -0.000236074 -0.000225272)
(0.0859232 0.000980501 -0.00185792)
(0.176838 -0.000248807 -0.000533288)
(0.125032 -0.000885892 -0.00025802)
(0.145164 -3.96145e-05 -0.000569429)
(0.103234 -0.000317321 0.00131006)
(0.181283 -0.000177378 -0.000200504)
(0.0190085 -0.00219653 -0.00230999)
(0.0819328 -0.00334666 0.000444683)
(0.152374 -0.000380461 0.00049726)
(0.0238744 -0.00217022 0.00185766)
(0.0416136 -0.000764588 -0.00195511)
(0.0583236 -0.000958274 0.000632628)
(0.0197899 0.00122281 -0.0020957)
(0.0916556 0.000492169 -0.00129753)
(0.169721 0.000247812 -0.000206821)
(0.0567362 -0.00166529 -0.001569)
(0.0175767 -0.00227815 -0.00166652)
(0.101283 0.00040162 -0.000793729)
(0.023811 0.000150223 0.000356627)
(0.0953716 0.00120358 -0.000685148)
(0.174531 0.000130141 0.000109168)
(0.187346 -9.76079e-05 -0.000181128)
(0.173928 -0.000278023 -0.000101582)
(0.164478 0.000835455 -3.65071e-05)
(0.175754 -0.000156619 9.5109e-05)
(0.128267 0.000550933 0.00207413)
(0.0434642 0.000843595 -0.00110695)
(0.176426 0.000526788 0.00050084)
(0.121867 -0.000306439 0.000972636)
(0.0847807 0.000537431 -0.00165296)
(0.0931662 -0.00094644 0.00133493)
(0.164001 -0.000176645 0.000299464)
(0.112976 -0.00123555 -0.000678297)
(0.0619432 5.99547e-05 0.00164731)
(0.154618 0.000847972 0.00132813)
(0.0309242 0.00114298 0.000517004)
(0.0840271 3.2748e-05 0.000650262)
(0.0931863 -0.000284966 0.000184912)
(0.0576119 0.000345855 0.000964015)
(0.160795 2.76063e-05 -0.00012082)
(0.106004 -0.0126016 0.0134354)
(0.127204 0.0081025 0.00529083)
(0.0301935 0.000568357 -0.00261967)
(0.0244403 -0.00155437 0.000792864)
(0.0529016 0.00198279 -0.00103905)
(0.018939 -0.00121666 -0.00151726)
(0.124642 0.000612309 -0.000639004)
(0.154097 0.000699269 -0.000941924)
(0.127056 0.00170362 0.000294745)
(0.110214 0.0101032 -0.0115922)
(0.132655 -0.000171462 0.000301948)
(0.146597 0.000387468 -0.000674473)
(0.0233224 -0.0019497 0.00447083)
(0.15752 0.000697628 -0.000181319)
(0.127577 -0.00406776 0.0125316)
(0.041177 0.000757496 -0.00105945)
(0.0204074 -0.00343529 0.000665859)
(0.112721 0.000363546 0.000530092)
(0.105863 -0.00135664 -0.000653787)
(0.0239136 -0.00165353 0.00268678)