/*--------------------------------*- C++ -*----------------------------------*\
| =========                 |                                                 |
| \\      /  F ield         | OpenFOAM: The Open Source CFD Toolbox           |
|  \\    /   O peration     | Version:  2406                                  |
|   \\  /    A nd           | Website:  www.openfoam.com                      |
|    \\/     M anipulation  |                                                 |
\*---------------------------------------------------------------------------*/
FoamFile
{
    version     2.0;
    format      ascii;
    arch        "LSB;label=32;scalar=64";
    class       volVectorField;
    location    "52";
    object      U:Transformed;
}
// * * * * * * * * * * * * * * * * * * * * * * * * * * * * * * * * * * * * * //

dimensions      [0 1 -1 0 0 0 0];

internalField   nonuniform List<vector> 
59516
(
(-0.000842056 -0.000619258 0.103551)
(0.000323136 -0.00022972 0.0955075)
(-0.000460233 0.000674388 0.111078)
(-0.00226658 -0.000456496 0.127846)
(-0.00455724 0.00030358 0.11369)
(-0.010443 0.00555774 0.101091)
(-0.0022866 -0.00156999 0.127176)
(-0.000308583 -0.000592554 0.0999433)
(-0.000938557 0.000175295 0.110544)
(0.00203947 0.00107277 0.0522384)
(-0.00243809 -0.000264753 0.15405)
(-0.00297656 -0.00223314 0.0598265)
(-0.000921974 -0.000699376 0.117116)
(6.63043e-05 -0.000204473 0.0191092)
(0.000207539 -0.00348607 0.0583481)
(-0.0014293 0.00355424 0.0501753)
(-0.00254499 -0.000488363 0.169591)
(-0.00571716 -0.00158209 0.0700315)
(-0.00597325 -0.00123274 0.114375)
(-0.00119094 0.000583368 0.165915)
(-0.00141782 0.00065923 0.0537884)
(0.000387595 0.000820399 0.148415)
(-0.00247216 -0.000674739 0.154555)
(0.000846933 0.000553019 0.0321742)
(0.000108388 0.000724453 0.16104)
(-0.000177501 0.00154318 0.0634109)
(-0.000507848 0.00284051 0.0400905)
(-0.00348321 -0.00148284 0.044254)
(-0.00264619 -0.000887762 0.0653334)
(0.0020659 0.00168295 0.0165852)
(-0.0215138 0.00120393 0.108356)
(-0.00294251 0.00225073 0.0455417)
(-0.000779918 -0.000320753 0.132026)
(-0.00204386 -0.00110415 0.110606)
(-0.00669666 -5.73158e-05 0.139441)
(-0.00048961 0.000119909 0.145933)
(-0.00241264 0.00126444 0.016017)
(-0.00693153 -0.00220055 0.0699294)
(-0.00383583 0.000414391 0.0950414)
(0.000250052 0.000707215 0.159912)
(-1.63382e-05 -0.000628286 0.0990836)
(-0.0116614 -1.75075e-05 0.144035)
(-0.00516131 0.000996038 0.148419)
(-0.00065934 0.00038773 0.104905)
(-0.00528178 0.000754373 0.142616)
(0.00138889 0.000381752 0.0531501)
(-0.00535196 0.000145648 0.132301)
(-0.00516401 0.000679514 0.163502)
(-0.0152626 0.00138395 0.111886)
(-0.00869131 0.000273131 0.15112)
(-0.0178994 0.000520091 0.104054)
(-0.00395268 -0.00188485 0.0420472)
(0.000323633 -0.00248692 0.118099)
(-0.000316982 0.000470555 0.125541)
(-0.00291254 0.000736827 0.0472287)
(-0.00308447 0.000513114 0.129571)
(-0.0119377 3.52672e-05 0.144954)
(-0.00441013 -0.00164803 0.0447219)
(-0.00029995 -0.000160658 0.175579)
(-0.0103522 -0.000363046 0.135224)
(-0.000253723 0.00044033 0.149329)
(-0.00141307 0.00194733 0.0181575)
(-0.000820168 0.000207344 0.168676)
(-0.00345413 -2.3073e-05 0.166789)
(-0.000528477 0.000498086 0.120145)
(-0.00672343 9.9672e-05 0.147603)
(0.000194238 0.002798 0.0245817)
(-0.000136557 0.000307895 0.03933)
(-0.0228105 0.00037907 0.121524)
(-0.00349574 -0.00084784 0.135599)
(-0.000593195 -0.000820703 0.0350903)
(-0.00221337 -0.000859498 0.163937)
(0.00335669 -0.00135112 0.0219419)
(-0.00156381 -0.000435895 0.142697)
(-7.37816e-05 -0.00044106 0.183652)
(-0.00402057 0.00022498 0.158144)
(-0.00476885 0.000148512 0.164248)
(0.000306149 8.83103e-05 0.14855)
(0.00176538 0.000952123 0.043797)
(-0.00851042 0.000724682 0.151767)
(-0.00246732 7.7036e-06 0.0363855)
(-0.00752633 0.000414711 0.146895)
(-0.00632468 0.000380244 0.139721)
(-0.0024198 0.00131322 0.0189738)
(-0.00734084 0.0007777 0.146717)
(-0.000385246 0.000798711 0.177135)
(0.000604088 0.00107751 0.0310993)
(-0.000270124 0.000123803 0.149787)
(-0.00196261 -0.00104316 0.0525119)
(-0.00996623 -0.00248255 0.107121)
(-0.0115524 -2.39529e-05 0.13153)
(-0.00106438 0.00123547 0.139173)
(-0.000337377 -4.1245e-05 0.174887)
(-9.57046e-05 0.00120125 0.137161)
(-0.000151231 0.000221618 0.162861)
(-0.0112593 -6.96221e-05 0.109933)
(-0.000462741 -0.000368722 0.139911)
(0.00209268 0.00394202 0.0512762)
(-0.00245528 -0.000985663 0.0643802)
(0.00152291 0.00111508 0.148272)
(-0.00119971 0.000863334 0.0360057)
(0.0025638 0.0013391 0.0231994)
(0.00275982 0.00144749 0.0219403)
(-0.00195019 0.00221523 0.0521179)
(0.000787505 -5.66135e-05 0.134503)
(2.34197e-05 -0.000491531 0.147746)
(0.00178097 -0.003134 0.0378914)
(-0.000764105 -0.000403838 0.103051)
(-0.000239522 0.000664711 0.0990318)
(-0.0013933 0.00219853 0.0636178)
(-0.0187402 -0.000236274 0.124951)
(0.00218974 -0.00206328 0.0292629)
(-0.00251783 0.00324494 0.0644281)
(-0.0194978 -4.7886e-05 0.118041)
(5.14687e-05 1.53967e-05 0.16068)
(0.00103306 -0.00117666 0.0983117)
(-0.00172044 -0.00109937 0.052133)
(-0.000372168 -0.000657377 0.132531)
(-0.000373599 -0.000984493 0.0208755)
(-0.000835132 0.000898789 0.147001)
(0.000376013 1.8174e-05 0.187153)
(-0.000493294 0.000567998 0.170189)
(0.000846835 0.00036891 0.158695)
(-0.000605356 0.000375568 0.16879)
(-0.0180114 0.00115622 0.132388)
(-0.0032979 0.000112888 0.0898369)
(-0.00173763 -0.000826127 0.0283319)
(-0.013658 0.00207736 0.138339)
(-0.0130703 0.00307695 0.0898379)
(0.000376203 -0.000270255 0.18184)
(5.7914e-06 -0.000232053 0.184995)
(0.0016348 0.00195839 0.111048)
(-0.000502323 -0.00194915 0.0221901)
(0.000232295 0.000563337 0.147943)
(0.00120019 0.000340717 0.0998909)
(-0.00195719 0.000989061 0.114193)
(-0.0155834 0.00140733 0.107485)
(0.000156271 0.000497626 0.128738)
(-0.000363279 0.00258741 0.0376942)
(-0.00102863 0.000862473 0.0971724)
(-0.000975479 0.00208325 0.0419043)
(-0.00045602 -0.000416324 0.186066)
(-0.000833541 -0.00151083 0.0177663)
(-0.000522952 0.00105183 0.124302)
(-0.00116295 0.000163969 0.177812)
(-0.00188633 0.000687061 0.141721)
(-0.00567386 0.00136026 0.14032)
(-0.00324422 0.00126385 0.117294)
(0.000947029 -0.00176347 0.0621275)
(-0.000260953 0.00106483 0.105448)
(-0.000222158 -0.000862041 0.102026)
(0.000160503 0.00125939 0.0331753)
(0.00104054 0.00103566 0.167896)
(0.00031386 0.000164855 0.1544)
(-0.000785022 -0.00199139 0.0876862)
(-0.00165705 0.00100584 0.0177021)
(-0.000287362 -0.000286544 0.111741)
(-0.00129592 0.00075864 0.112531)
(-0.00117362 0.000532414 0.0810969)
(-0.00261958 -0.00186037 0.0181521)
(0.00261561 0.00239872 0.062521)
(0.00358099 -0.00205959 0.0644194)
(-0.000579192 0.00125745 0.0330486)
(-0.000224575 -0.000451956 0.0237127)
(0.0029988 8.03557e-05 0.0977857)
(-0.00107015 0.000217078 0.174855)
(0.000842231 -3.35703e-05 0.0591479)
(-0.000889565 -0.000404982 0.180077)
(0.00109502 0.00218586 0.0187346)
(7.1399e-05 -0.00058965 0.136454)
(-0.0013802 -0.00113014 0.0820246)
(-0.000864003 0.000636877 0.0496993)
(-8.4087e-05 -0.00175645 0.0612967)
(0.000217511 -0.000579135 0.136147)
(0.000430795 0.000628801 0.0476288)
(-0.00568605 -0.000542049 0.134898)
(-0.000904173 0.000473166 0.171139)
(-0.00679905 0.000574642 0.14951)
(0.000379083 -0.00307864 0.0645111)
(0.000449273 0.000318208 0.0386311)
(-0.00133464 -0.00197228 0.145996)
(0.000847281 0.00295412 0.0315162)
(-0.000952257 -0.00192912 0.0270456)
(0.000565007 0.00145083 0.0615983)
(-7.70662e-06 -0.000709763 0.180691)
(-0.000366126 0.000655793 0.0564252)
(-0.00261987 0.000506857 0.0333726)
(0.000141062 0.000254403 0.0215533)
(-0.000179789 8.24341e-05 0.120444)
(0.00154448 0.000846688 0.0980331)
(-0.00280111 -0.000206966 0.135266)
(-0.00092754 -0.00286733 0.0492251)
(-0.000863435 -0.000406821 0.164677)
(0.00154348 -0.00126731 0.0540777)
(-0.000461585 -5.02147e-05 0.154705)
(0.00040046 0.000705819 0.0278983)
(0.000711503 0.000229464 0.0541245)
(0.000306912 -0.00106281 0.0382778)
(-0.0045834 -0.000127785 0.107648)
(0.00049223 -0.00073835 0.154425)
(-0.00163308 -0.00221874 0.078405)
(-0.000583474 -0.000364972 0.186657)
(0.000146316 0.00113076 0.100405)
(0.00154979 -0.00182568 0.0182836)
(0.000729097 0.000857115 0.126385)
(-0.000313878 -0.000341111 0.145128)
(-0.000142496 -0.000377726 0.183414)
(0.00130819 -0.000968122 0.154643)
(0.000215773 -0.000688283 0.0216119)
(0.00177764 0.000990995 0.112103)
(-0.000503197 0.00450946 0.0479448)
(-0.00385767 0.000793132 0.0235876)
(-0.000967749 0.00111524 0.143346)
(-0.0003137 0.00131712 0.0529692)
(-0.000856035 -0.00122256 0.114139)
(0.000279525 -0.000177887 0.171928)
(-0.00135697 0.000453387 0.139738)
(-0.0012349 0.000889267 0.157554)
(-0.00164319 0.00303593 0.051461)
(0.00082555 -9.33874e-05 0.157074)
(-0.00091178 -0.0025815 0.0524007)
(-0.000258842 0.000261779 0.102974)
(-0.000749672 -0.000882295 0.165797)
(0.000385419 -0.000520704 0.0369562)
(0.000211872 -0.000240758 0.170653)
(0.000721211 8.70812e-05 0.172857)
(-0.000949216 -0.0010073 0.0266042)
(-0.00246742 0.000564652 0.0442494)
(0.000216896 0.000792139 0.171767)
(-0.00201551 0.00336505 0.0516175)
(0.00012289 0.000587947 0.173473)
(-0.000339481 0.000309505 0.173724)
(-0.000771435 -0.000419671 0.184489)
(-0.00113831 -0.00195291 0.0234396)
(-0.00126904 -0.00113281 0.0308536)
(-0.0014439 -4.14654e-06 0.0321306)
(-5.00303e-06 -0.000373098 0.0603754)
(-0.00128429 -0.000220847 0.0942382)
(-0.00158292 0.000414111 0.157284)
(0.00189398 -0.000299799 0.0545092)
(0.000502583 0.000358553 0.18649)
(0.0023328 0.00165724 0.0191779)
(0.000709177 0.000521814 0.0517539)
(0.00219501 0.00134973 0.0232197)
(0.000741817 0.0004053 0.183026)
(-0.00039811 -0.000406526 0.0898491)
(-0.00101471 0.00025271 0.145947)
(-0.000786821 0.00150028 0.0624402)
(-0.000482205 -0.00024471 0.170301)
(-0.000498777 -0.000282034 0.102453)
(0.000133042 -9.06686e-05 0.166373)
(-0.000650954 6.33095e-05 0.140323)
(0.000741351 0.000239326 0.187326)
(0.000336814 0.00103797 0.144745)
(-0.000813986 0.00134665 0.147168)
(-0.000606185 0.000580037 0.158625)
(-0.000255349 5.92125e-05 0.0529773)
(-0.00202011 0.000433308 0.154181)
(0.00119253 0.00189013 0.0396442)
(-0.000275445 0.0020357 0.0572407)
(-0.00115267 0.000669358 0.129117)
(-0.000230846 0.000442694 0.162941)
(0.00341275 0.000734746 0.113197)
(0.000400473 0.000239528 0.177777)
(0.0021074 3.08269e-05 0.0963698)
(-7.24707e-05 -0.00260982 0.0551224)
(-0.000640244 -0.00117369 0.160558)
(0.00200797 0.000114029 0.0902508)
(-0.000528469 -0.000855512 0.0439357)
(-0.000476576 0.00136405 0.0493685)
(-0.0025539 0.00230407 0.095827)
(-0.000314387 -0.00029098 0.17391)
(-0.00151914 0.00187392 0.0961503)
(-0.000741707 0.00154598 0.0902111)
(-0.00109322 -0.000373593 0.165934)
(3.16663e-05 0.00243383 0.0902657)
(-0.00116122 -0.00248919 0.0199411)
(0.000782285 0.000411271 0.162468)
(0.00205065 -0.00158469 0.024111)
(0.00169167 0.000860301 0.0384569)
(-0.000936272 -0.000313179 0.183156)
(-0.000385036 -0.000157768 0.138941)
(-0.00320523 0.00168525 0.0238748)
(-9.55952e-05 -0.000996262 0.119329)
(-0.00127632 -0.00210381 0.122822)
(-0.00228157 0.000401047 0.168061)
(0.00042334 -0.000431744 0.182677)
(0.00191955 -0.00197385 0.0228156)
(0.000143685 0.000637256 0.181965)
(-0.000117574 -1.64521e-05 0.186455)
(-0.000439832 -0.000585873 0.174895)
(-0.00105108 0.000390636 0.134685)
(-0.0010127 0.000703738 0.137349)
(-0.000341652 -0.000421844 0.0934123)
(0.000165928 -0.00083526 0.172878)
(2.50158e-06 0.00156896 0.0267948)
(-0.000132769 -0.000583223 0.161409)
(0.000359834 0.000661614 0.139044)
(-0.000286122 9.98811e-05 0.185829)
(-0.000866895 0.000501025 0.170691)
(0.000404562 -0.000645938 0.115376)
(0.000990147 -0.0011868 0.0568802)
(-0.000662756 -0.0014037 0.021859)
(0.000675777 0.000415971 0.0270296)
(-0.00134251 0.000239627 0.164432)
(-0.00280197 0.00114178 0.0194438)
(-0.000819761 -0.000780952 0.0614248)
(-0.000950826 0.00284704 0.0501561)
(-0.000720278 -0.000860478 0.169261)
(-0.000527801 1.46442e-05 0.175906)
(-0.000468188 0.000659583 0.154891)
(0.00104541 0.000753827 0.0568962)
(0.00287783 2.26903e-05 0.101589)
(5.18077e-05 0.00411658 0.0383887)
(0.000256902 -0.00167424 0.0540042)
(-0.000299285 0.000865434 0.158775)
(0.000396808 -0.0013175 0.0962323)
(-0.0127488 -0.00153218 0.107734)
(0.000238456 -0.00209219 0.0885499)
(-0.00042157 -5.61489e-05 0.0411044)
(0.0021834 -0.000156489 0.0619984)
(-0.000734026 -0.00176653 0.106509)
(-0.00039569 -9.08112e-05 0.177949)
(0.000441376 -0.00115053 0.185497)
(-0.000612484 0.000801698 0.186135)
(0.00017158 0.00130678 0.162692)
(-0.00597783 -0.000621587 0.0969335)
(-0.0010491 -0.000192322 0.125961)
(-0.00131007 0.00038124 0.168155)
(0.000800635 0.000233118 0.161919)
(0.00106223 0.000237429 0.164687)
(-0.00268837 -0.00220846 0.0549037)
(0.00265161 -0.00111737 0.0213311)
(0.00138526 0.000123086 0.150712)
(0.00109831 0.0025543 0.0379029)
(4.1015e-05 -0.00011332 0.0302699)
(-0.00182852 -9.01341e-05 0.162507)
(0.000448503 0.000159364 0.145534)
(-0.00204598 0.00256117 0.0596484)
(-0.000440603 -0.000708024 0.175326)
(0.000465743 0.000989186 0.167859)
(-0.000778383 0.000178389 0.185092)
(-0.00130822 0.000114759 0.176014)
(-9.07691e-05 -0.00150574 0.0313389)
(-0.000187367 0.000126552 0.160265)
(-0.00102041 0.000263073 0.179347)
(0.000294861 0.000767111 0.0556728)
(-0.00019624 -0.00106422 0.183785)
(-0.000361827 0.000375885 0.177413)
(0.000684821 0.000532196 0.13065)
(0.000625339 0.000820321 0.121927)
(-0.000284599 -0.00189987 0.152634)
(0.000658432 0.00108072 0.143049)
(-0.000346902 0.000167812 0.067863)
(-0.000607069 0.00149536 0.0304402)
(0.000333251 0.00246362 0.0335125)
(0.000474891 -0.000256759 0.0927491)
(-0.012612 -6.8702e-05 0.0862493)
(-0.00735658 0.000765 0.0746057)
(0.000386554 -0.000383965 0.0811977)
(0.00155532 -0.001322 0.113238)
(-0.00065076 0.000618926 0.130871)
(-0.00447859 0.000230065 0.159519)
(0.000384565 0.00105117 0.157569)
(-0.00049051 -0.000787622 0.131098)
(7.471e-05 -0.000606039 0.149205)
(-0.000878683 -0.000118942 0.149809)
(-0.000421952 0.000892876 0.0300173)
(-0.0226247 0.000817174 0.113922)
(0.000442093 0.00143541 0.0563134)
(-0.000920214 0.00154745 0.0394967)
(0.000854414 0.000329134 0.0398456)
(0.000275214 0.000714631 0.162731)
(-0.000492783 0.000286922 0.0921511)
(-0.00125825 0.000493033 0.161585)
(-0.00122701 0.00148306 0.018976)
(0.000364971 -0.000358943 0.125403)
(0.00111023 -0.000687476 0.0426432)
(-0.000144165 0.000210598 0.16684)
(-0.000508301 0.000600549 0.0460521)
(0.00167186 0.000736352 0.0600555)
(0.000759053 0.00278476 0.103906)
(-0.00159117 -0.000402018 0.151964)
(0.00249116 -0.000213573 0.0186307)
(-0.000132173 0.00225353 0.0525664)
(8.44219e-05 -0.000604515 0.132488)
(7.772e-05 -0.00225119 0.0221753)
(-0.00959055 -0.000292649 0.130837)
(0.000562105 -0.00267433 0.114549)
(-0.000352849 -0.00211014 0.131005)
(0.00227032 -0.00269513 0.0926538)
(0.00228607 0.000772554 0.0863112)
(0.0005296 -4.82953e-05 0.162945)
(-0.0101894 -0.00322967 0.0771876)
(-0.000119965 -8.00919e-05 0.185518)
(-0.0124746 0.000836779 0.111381)
(-0.00214311 0.00156904 0.0574715)
(-0.00035235 0.00143226 0.0607485)
(0.000155456 -0.000220109 0.182057)
(0.000416113 -0.000237213 0.181449)
(0.000595862 -0.000525175 0.050635)
(-0.000420301 -0.000589021 0.132361)
(-0.00217955 0.000712586 0.0956826)
(-0.000104759 -0.000539819 0.182662)
(0.000383429 -0.000907317 0.181948)
(-0.00102572 -0.00342032 0.0437678)
(-0.000397224 0.00106086 0.131798)
(0.00242276 -0.000212746 0.145424)
(-0.000792787 -0.000350592 0.148039)
(0.00028948 -0.000908808 0.157285)
(0.00237014 -0.00126308 0.0205638)
(-0.00262758 -0.00068634 0.0201222)
(-0.00148528 0.00137572 0.12573)
(-8.05274e-05 -5.13297e-05 0.178016)
(0.00125054 0.00096148 0.183924)
(-0.00218618 0.00117478 0.0329799)
(0.0013941 -0.000945023 0.170938)
(-0.00128831 -0.000231109 0.104826)
(6.24375e-05 -0.000283433 0.177931)
(-0.000411085 0.000870016 0.17872)
(0.00055079 -0.000245531 0.183925)
(9.32826e-05 -0.000921629 0.175528)
(-0.000303433 -0.00155369 0.174335)
(0.000289073 -0.000549983 0.0865395)
(-0.000521882 0.000362503 0.181623)
(-0.00178433 0.0021765 0.0541804)
(-0.000479767 0.000256818 0.168855)
(-0.0009594 -0.000596693 0.107391)
(-0.000961292 -0.000455646 0.154102)
(-0.000213637 -9.2542e-05 0.177485)
(-0.000149637 0.000406589 0.149145)
(0.000962167 -0.000909271 0.144909)
(0.00167656 0.00253029 0.0386542)
(0.000871378 -9.26207e-06 0.0323889)
(-0.00184892 -0.00189886 0.0201395)
(-0.00866438 4.88291e-05 0.153264)
(0.000253966 -5.3227e-05 0.189792)
(-0.000985876 0.000252545 0.139407)
(-0.000149085 -0.000897255 0.125184)
(0.00109813 0.000225349 0.0294223)
(0.000679652 -0.00252288 0.0225514)
(-0.000517946 -0.00169163 0.11246)
(-0.000972174 0.00108264 0.153596)
(-0.000423435 -0.000778541 0.177979)
(0.000505173 -4.90782e-05 0.154858)
(-0.00138958 0.000170329 0.13438)
(-0.000340608 -0.000132726 0.188643)
(0.00119201 0.00021486 0.133493)
(-0.00105349 0.00217546 0.0252113)
(0.000254361 0.000835081 0.121235)
(0.00255151 -0.00143877 0.0552235)
(-0.00716184 -0.000788013 0.0704779)
(-0.000520114 0.000357954 0.154944)
(0.000446398 -0.000334597 0.0910152)
(-0.000101107 0.000247368 0.146589)
(-0.00330891 0.00209755 0.0195409)
(9.9541e-05 -0.000595713 0.181795)
(-0.000287104 6.08616e-05 0.182582)
(-0.000507598 -0.000396498 0.180197)
(0.000647358 -0.000650648 0.0892606)
(0.000627488 -0.00176834 0.15401)
(-0.000273997 -0.000583205 0.175493)
(-0.000110104 0.000466482 0.119977)
(-0.000628342 0.000230466 0.184381)
(-0.00525738 -0.0005256 0.0976988)
(-0.000457846 -0.000214419 0.172834)
(-0.00265042 0.00119329 0.148869)
(0.00142074 -0.00122988 0.019534)
(-6.9143e-05 -0.000132859 0.181258)
(0.00136534 0.00176531 0.115263)
(-0.00283602 -0.00263606 0.0440489)
(-0.00101269 0.00143735 0.0887784)
(5.7067e-05 0.000142266 0.169108)
(-1.78177e-05 -0.00115009 0.127391)
(0.000913349 0.00215041 0.0819142)
(-0.00213301 0.00150441 0.0193654)
(-0.000206253 0.000166635 0.176616)
(0.000609956 0.00241419 0.123221)
(-0.000780242 -0.00013555 0.161901)
(-0.000749008 -0.000228699 0.122682)
(-0.00215588 0.000600783 0.0350241)
(0.000322421 -2.00832e-05 0.140676)
(-0.00390444 0.000315249 0.0257428)
(8.14679e-05 0.00082537 0.16414)
(-0.011955 0.000601649 0.10228)
(0.001488 0.000496475 0.17021)
(-0.000203448 0.00172407 0.0492171)
(-0.00125685 0.00153126 0.103827)
(-0.000108181 0.00121005 0.0927588)
(0.00190351 -0.00165858 0.0330508)
(0.000127491 0.000230813 0.186313)
(-0.000420344 -0.000610884 0.174687)
(-0.00199854 -0.000779277 0.0206943)
(-0.000404412 -9.90974e-05 0.163375)
(-0.00062245 0.000474099 0.185764)
(-0.000559687 0.00206091 0.0352507)
(0.0014536 0.00216139 0.0589865)
(-0.00134148 0.00190921 0.0512883)
(-0.000668554 1.22409e-05 0.154702)
(9.89686e-07 -0.000421829 0.181643)
(-0.00122513 0.00121062 0.0324208)
(0.00164193 -0.000745031 0.0512179)
(-0.000189155 0.00105721 0.0539868)
(0.00123837 0.000990492 0.113169)
(-0.000343081 -0.000471322 0.183389)
(-0.00256433 -0.00177094 0.0220397)
(0.000901865 0.000239605 0.16017)
(-0.00371533 -0.000858194 0.151923)
(0.000231861 -0.00111994 0.18199)
(-0.00234856 -0.00483012 0.0900997)
(0.000460691 0.000349585 0.169677)
(0.00109591 -0.00208788 0.021477)
(-0.00100326 -0.000248498 0.165223)
(0.00015202 -0.000355722 0.0257631)
(-0.000315832 -0.00177429 0.0585668)
(-5.66853e-05 0.00127054 0.154912)
(-0.00105322 0.00148699 0.0578195)
(-0.00259026 0.00154112 0.0193176)
(0.000333176 -0.00125132 0.0347802)
(0.00043838 0.00276479 0.0429147)
(0.000759156 -0.00180927 0.0559891)
(-0.00078318 -0.000172031 0.146151)
(-6.70405e-06 0.00109772 0.0478235)
(0.00107611 -0.00178468 0.0565396)
(-0.0155287 0.000631797 0.128242)
(-0.000367565 -0.000448057 0.172137)
(0.00147243 1.80042e-05 0.0225785)
(0.000172867 0.00113958 0.104597)
(-0.00850704 -0.00430786 0.0812692)
(0.000330036 0.000237258 0.173348)
(-0.00109469 0.000818596 0.0559673)
(-0.000992126 -0.000691053 0.167936)
(0.00123201 0.00246022 0.054656)
(-0.000651033 0.00064855 0.121542)
(-0.00060798 0.00054305 0.179308)
(0.00252604 -0.00411703 0.0482518)
(5.32101e-05 -0.000154841 0.17779)
(-0.00319495 -0.000804474 0.0475069)
(0.0024718 -0.00156374 0.0179875)
(-0.000539872 0.000827577 0.146041)
(0.000155218 0.000221572 0.18179)
(-0.000960101 0.00059944 0.12829)
(0.000683601 -0.00168083 0.123469)
(0.000825879 3.96356e-05 0.18127)
(0.00171348 -0.000185389 0.0579904)
(0.000803133 -0.000283052 0.169218)
(0.00121156 0.00265437 0.0544026)
(8.92541e-06 -0.000259997 0.176899)
(0.0017735 0.00081635 0.124492)
(-0.00309378 -0.00207208 0.0263563)
(-0.00124647 0.000240816 0.154111)
(0.00104747 -0.00117736 0.0494115)
(0.0011873 0.0022226 0.0244768)
(-0.00131679 0.00053458 0.148031)
(-0.00156851 8.3212e-05 0.0408957)
(3.45619e-06 9.43177e-05 0.137161)
(-0.000145623 0.00104081 0.181893)
(-0.000114105 0.000337147 0.130006)
(8.78663e-05 0.0034051 0.0511701)
(0.00115815 1.69109e-05 0.181784)
(0.00177428 0.000404018 0.0871284)
(4.76538e-05 0.000233599 0.188497)
(-0.000453572 0.000280995 0.183285)
(-0.000258142 0.000968543 0.183286)
(-0.000349018 0.000337459 0.181173)
(0.00286031 -0.00112824 0.0416714)
(0.000309392 0.000407695 0.049014)
(0.000741647 -9.02709e-05 0.180119)
(0.00042376 -0.00165378 0.163097)
(0.000494428 0.00231929 0.0297912)
(0.000718158 -0.000159511 0.162781)
(-3.34126e-05 0.000348626 0.18305)
(0.000151392 0.000524097 0.1787)
(0.000454517 0.000656568 0.183898)
(-0.00164262 0.000689445 0.113691)
(-0.00154998 0.00219449 0.0201024)
(0.000524841 -3.8459e-05 0.179639)
(0.000729092 -0.00127606 0.0975958)
(-0.000596847 0.00100094 0.152171)
(-0.000163319 0.000322757 0.0929938)
(-0.00162678 -0.00105523 0.0273328)
(-0.000437887 -0.000423326 0.183617)
(-0.0020771 0.00259584 0.0886488)
(-3.15176e-05 -0.000233652 0.131482)
(0.000275603 0.000327722 0.186482)
(-0.000641028 0.00146243 0.140635)
(0.00145174 0.00193163 0.0161941)
(-0.00215005 0.0010137 0.0205709)
(-0.000134738 0.000526418 0.178511)
(0.00130252 -0.000625489 0.170409)
(-0.000970672 0.000626747 0.186812)
(-0.000969523 -0.00101098 0.153257)
(-0.000332875 0.00145003 0.0891742)
(-0.000484442 0.00108531 0.149448)
(3.55265e-05 0.000906964 0.177852)
(0.000673747 0.00157933 0.0188551)
(-0.000553477 0.000585354 0.180682)
(-0.0151125 0.000890162 0.135009)
(-5.54687e-05 0.00195431 0.0349177)
(-0.000382095 0.00340793 0.0519537)
(-0.000485758 0.00079371 0.143442)
(0.00175143 -0.000790699 0.139866)
(0.000152544 -0.000444124 0.13668)
(0.000771082 -0.000566044 0.121628)
(-0.00297084 0.00216362 0.101835)
(0.000131998 -4.57887e-05 0.185577)
(0.000647598 -0.00299869 0.0949274)
(0.000403076 -0.000369044 0.177754)
(0.000232415 0.00101607 0.17361)
(0.00019936 -0.000214783 0.188391)
(0.000109286 -0.000315214 0.177188)
(0.00153938 0.00110489 0.0375521)
(0.00024448 2.09219e-05 0.165025)
(-0.000285236 -0.00153166 0.0303585)
(-0.0105816 -0.00143653 0.0944296)
(0.00195167 -0.00137405 0.0568844)
(-0.013315 -6.73318e-05 0.127251)
(0.000679855 0.000734524 0.128914)
(-0.0195357 0.000460486 0.117466)
(8.70311e-05 0.000593821 0.172639)
(-0.000611127 -0.000138844 0.177581)
(-0.00132715 0.00014987 0.154671)
(0.00029952 0.000690478 0.173413)
(-0.00059186 -0.000186081 0.0311777)
(-0.00456162 0.000141118 0.100941)
(-0.0161175 0.00113387 0.112493)
(-0.000225688 -0.000218508 0.178988)
(-0.000764146 0.00219206 0.109528)
(-0.0143317 0.000934067 0.136934)
(-0.00598868 0.000178511 0.157172)
(0.000546758 0.00112248 0.108232)
(-0.00126143 -0.000501162 0.0326928)
(0.00135249 0.00252009 0.0507957)
(-0.000201868 -0.000120488 0.0225694)
(0.00120732 0.00111667 0.0213902)
(-0.000167852 5.22408e-06 0.032021)
(-0.0111329 0.00029581 0.133612)
(-0.000824963 -0.000638173 0.13797)
(-0.00207285 -0.00231753 0.0217168)
(-0.00261042 0.000709305 0.0205906)
(0.000264956 3.17492e-05 0.187532)
(-0.0149136 0.00327543 0.0961391)
(-0.00158431 0.000135396 0.0345061)
(-0.000632573 -3.86754e-05 0.147547)
(-0.00154631 0.000951891 0.102779)
(0.00120153 -0.000393999 0.133046)
(0.00125389 0.00192898 0.0387286)
(-0.00105593 -0.00133433 0.0510911)
(0.000190767 0.00121584 0.108712)
(0.000852831 0.000265884 0.171722)
(0.000518863 0.00061214 0.15245)
(-0.00170057 0.00231651 0.0328089)
(-0.000553968 -0.00193837 0.0220442)
(-0.0189048 0.000200697 0.106234)
(-0.00247292 0.00182375 0.0235519)
(-0.000119968 0.00128638 0.133252)
(-0.0032091 -0.00103317 0.0247947)
(0.000539869 0.00210901 0.101305)
(-0.0010901 -0.000197869 0.17862)
(0.00121065 0.000202789 0.178761)
(-0.000355039 -0.00091045 0.040348)
(0.000923132 -0.000522159 0.0952287)
(-0.00179531 -0.000231865 0.0324341)
(-0.0032068 -0.000201947 0.0255387)
(-0.000186415 -0.000782523 0.179593)
(-0.00239779 0.00118601 0.0173852)
(0.000632517 0.000375275 0.167087)
(-0.00035511 -0.00229513 0.0442645)
(-0.000256383 0.00129423 0.155877)
(-0.000242773 0.000724458 0.14086)
(0.00298016 0.00120141 0.0199293)
(-0.000984437 -0.0024468 0.0529759)
(1.79661e-05 0.000784635 0.148732)
(-0.000133401 0.00152107 0.0313857)
(0.000535374 4.1831e-05 0.161011)
(-0.00125088 0.00349479 0.050046)
(0.000228091 0.000121023 0.105183)
(0.000643558 1.54087e-05 0.183371)
(0.00121334 -8.7662e-06 0.0332656)
(-0.00288045 -0.00059274 0.0215922)
(-0.000947822 -0.000331257 0.0465865)
(-0.0177814 9.46511e-05 0.110795)
(-0.000576476 -2.30518e-05 0.101177)
(5.27368e-05 0.00349697 0.0520277)
(0.00117552 -0.000231516 0.0810738)
(0.000416785 0.00118501 0.0278674)
(0.000889576 2.43731e-05 0.184572)
(0.00099689 0.00133404 0.0214529)
(-0.000765517 0.000235101 0.170484)
(0.000101572 -0.000120691 0.144179)
(-0.000569327 1.08522e-05 0.168682)
(-0.00175028 -0.00019502 0.0177039)
(0.000273836 -0.000415449 0.150968)
(-0.000804041 0.000446981 0.0795367)
(-6.40678e-05 2.76369e-05 0.157925)
(0.000177162 0.000575411 0.0505852)
(-0.0146232 0.000391373 0.108166)
(-0.001249 0.000523904 0.160269)
(0.000609046 -6.64137e-05 0.0363851)
(-0.000223759 0.000435248 0.188339)
(-0.0204606 0.00238038 0.108869)
(-0.000784192 -0.000414186 0.115852)
(-0.00070677 -0.0016934 0.0301143)
(-0.00116357 0.00227766 0.0465598)
(-0.000242549 0.000267106 0.182458)
(0.00101938 -0.000959964 0.130829)
(-0.00102006 0.00121944 0.0293568)
(-0.000243385 -0.00216574 0.107458)
(0.0014017 0.00112775 0.0566874)
(-0.001521 0.00178122 0.0222871)
(-0.000465099 0.000100757 0.179686)
(-0.0101038 0.000485642 0.103343)
(-0.0010029 -0.00213955 0.129232)
(-0.000121356 0.000534566 0.173977)
(0.000510236 0.000599411 0.177773)
(0.000131913 -0.000371179 0.169865)
(0.000744517 -0.000298822 0.131138)
(0.00103618 0.00035047 0.0399474)
(-0.000459827 0.00247071 0.0366488)
(1.73593e-05 0.000604334 0.182151)
(-0.0128042 -0.000552191 0.107583)
(0.000212185 0.00117044 0.119307)
(0.00150959 -0.00120678 0.126408)
(0.00183825 -0.000908199 0.0777568)
(-0.000628614 0.00138145 0.1478)
(0.000560834 0.000986398 0.163821)
(-0.000941686 -0.00093596 0.0960537)
(-0.00151173 0.00113903 0.101121)
(-0.00134958 0.0019043 0.0355223)
(-0.000516191 -0.000306084 0.0679911)
(-0.0024954 -0.00191219 0.0396387)
(0.00093518 -0.00096956 0.151457)
(0.000380413 -0.000228634 0.175534)
(-0.000710928 0.00268637 0.0906933)
(1.04104e-05 -0.00097688 0.0954638)
(0.00111334 -0.00168808 0.0192091)
(0.000201114 -0.000729383 0.0757359)
(-0.00267841 -0.0012588 0.054257)
(-0.00083907 0.000594561 0.176673)
(0.00117698 0.000160956 0.17865)
(-0.0112972 -0.000732092 0.104823)
(-0.00111275 0.000489018 0.163302)
(-0.00141868 0.00261304 0.0782526)
(-0.00833092 0.000379433 0.101708)
(0.000713414 -0.00223105 0.131748)
(0.00165337 0.000803519 0.0237784)
(0.000787035 -0.00036909 0.178686)
(-0.000174369 0.00129672 0.0464132)
(-0.00135116 -0.000273349 0.138756)
(0.00330205 -0.00170949 0.0259615)
(0.000646886 -0.000276519 0.175586)
(-0.00507462 -0.000291982 0.101647)
(-0.000672431 -0.000149904 0.158156)
(0.000504194 -0.000439237 0.112902)
(-0.000465869 0.000687785 0.146104)
(0.000233046 0.00127751 0.14943)
(-0.000693517 -8.30081e-05 0.185536)
(0.000190476 0.00191672 0.031813)
(-6.90542e-05 -0.00111576 0.0439874)
(-0.000303598 0.000660899 0.0265681)
(-0.000160866 0.000758858 0.177362)
(0.000604204 -8.26991e-05 0.157305)
(0.00152463 0.000724633 0.135372)
(0.000823462 -0.00126512 0.15975)
(0.00022383 -0.000572525 0.0192918)
(8.20986e-05 0.000315813 0.0950949)
(0.00154432 -0.00142419 0.0859232)
(-0.000525977 -0.000263912 0.176838)
(-0.000917735 -9.56093e-05 0.125032)
(9.44875e-05 -0.000562931 0.145164)
(-0.00126402 0.000468197 0.103234)
(-0.000227308 -0.000141408 0.181283)
(-0.00257829 0.00187436 0.0190085)
(0.000344013 0.0033585 0.0819328)
(-0.000518161 0.000351464 0.152374)
(-0.000165395 0.00285192 0.0238744)
(0.000341269 0.00207137 0.0416136)
(-0.00104915 -0.000466686 0.0583236)
(-0.00222391 -0.00097028 0.0197899)
(0.00138768 1.19748e-05 0.0916556)
(-0.000223742 0.000232648 0.169721)
(-0.000567527 0.0022165 0.0567362)
(0.00213248 0.00184927 0.0175767)
(-0.000322528 -0.000829024 0.101283)
(0.00037781 8.37235e-05 0.023811)
(5.74464e-05 0.00138374 0.0953716)
(-7.76593e-05 0.000151074 0.174531)
(0.000203921 2.74031e-05 0.187346)
(0.000257475 -0.000146022 0.173928)
(0.000499759 0.000670491 0.164478)
(-9.19193e-05 -0.000158512 0.175754)
(-0.00061478 0.00205611 0.128267)
(0.000932449 -0.00103322 0.0434642)
(0.000721262 -9.01484e-05 0.176426)
(5.94286e-05 -0.00101803 0.121867)
(-0.000844628 -0.00151912 0.0847807)
(-0.00154258 -0.000546107 0.0931662)
(-0.000327221 -0.000117512 0.164001)
(-0.00124764 0.000655784 0.112976)
(0.000922029 0.00136642 0.0619432)
(-0.00122797 -0.000987457 0.154618)
(0.000382551 -0.00119472 0.0309242)
(0.000545763 0.000355043 0.0840271)
(0.000283415 -0.00018728 0.0931863)
(-0.000767383 0.00067828 0.0576119)
(-8.62709e-05 -8.89776e-05 0.160795)
(-0.0184136 -0.000499311 0.106004)
(-0.00967074 0.000346375 0.127204)
(-0.000548612 0.00262388 0.0301935)
(0.00172376 -0.000270861 0.0244403)
(-0.000156612 0.00223306 0.0529016)
(0.00189735 -0.000427081 0.018939)
(-0.00068015 0.000566255 0.124642)
(0.000565756 0.00102768 0.154097)
(-0.00108425 0.0013467 0.127056)
(-0.0153297 0.0012055 0.110214)
(-0.000232189 -0.000258186 0.132655)
(0.00054385 0.000556123 0.146597)
(0.00397258 0.00282988 0.0233224)
(-0.00016208 0.000702347 0.15752)
(-0.01317 -0.000370401 0.127577)
(-0.00125641 -0.000343004 0.041177)
(0.00258806 0.0023551 0.0204074)