/*--------------------------------*- C++ -*----------------------------------*\
| =========                 |                                                 |
| \\      /  F ield         | OpenFOAM: The Open Source CFD Toolbox           |
|  \\    /   O peration     | Version:  2406                                  |
|   \\  /    A nd           | Website:  www.openfoam.com                      |
|    \\/     M anipulation  |                                                 |
\*---------------------------------------------------------------------------*/
FoamFile
{
    version     2.0;
    format      ascii;
    arch        "LSB;label=32;scalar=64";
    class       volScalarField;
    location    "26";
    object      epsilon;
}
// * * * * * * * * * * * * * * * * * * * * * * * * * * * * * * * * * * * * * //

dimensions      [0 2 -3 0 0 0 0];

internalField   nonuniform List<scalar> 
59516
(
0.0201335
0.0195026
0.0160614
0.0148934
0.0096048
0.345637
0.014242
0.0186137
0.0172744
0.039552
0.00922719
0.0370501
0.0162051
0.119108
0.0334406
0.0391335
0.009679
0.0436827
0.018868
0.00973693
0.0448468
0.0117477
0.0108295
0.0538818
0.0105737
0.0299491
0.0530151
0.054146
0.0325424
0.0916479
0.0463346
0.0492291
0.0137233
0.0172277
0.0135998
0.011505
0.0863294
0.0493433
0.0235019
0.0105167
0.0188637
0.0116993
0.0115407
0.0213692
0.0121723
0.0397898
0.0139845
0.00962315
0.0129189
0.0114715
0.0272043
0.0439236
0.0152189
0.0147751
0.0387224
0.0149437
0.011453
0.0467253
0.00968761
0.0149614
0.0116558
0.0709337
0.0102104
0.00994436
0.0148976
0.0123352
0.0901591
0.0441676
0.0205005
0.0138162
0.043301
0.0105798
0.0684541
0.0125194
0.00899664
0.010401
0.00978001
0.0117478
0.0409173
0.0116642
0.0512692
0.0124864
0.013694
0.07631
0.0125778
0.00921951
0.0538513
0.0109943
0.0368539
0.0293042
0.0108781
0.0132128
0.00933537
0.0137376
0.0108541
0.010945
0.013251
0.0403251
0.0396774
0.0118381
0.0433282
0.0670924
0.0673127
0.0364513
0.0137617
0.0123139
0.0517971
0.0190715
0.0197993
0.0294938
0.020825
0.0383856
0.0319094
0.031211
0.0102673
0.0219179
0.0341335
0.0142897
0.0649192
0.0118727
0.00879311
0.0104264
0.0108003
0.0103905
0.0166379
0.0258197
0.0641694
0.014898
0.0828067
0.0090433
0.00889948
0.0173075
0.0653692
0.0110596
0.019079
0.0158857
0.038666
0.0129948
0.0462677
0.021641
0.0422104
0.00888792
0.0872477
0.0154096
0.0094066
0.0119215
0.0126383
0.0175458
0.254351
0.0174611
0.020387
0.0501586
0.00972633
0.0108606
0.0232632
0.0983123
0.0162394
0.0158228
0.0263953
0.0851056
0.0305187
0.0288692
0.0548267
0.100312
0.0203737
0.00940172
0.0311688
0.00905082
0.0774055
0.0136581
0.0254465
0.0425279
0.0279777
0.013254
0.040781
0.0139258
0.0102866
0.0112826
0.0284595
0.0528149
0.0116288
0.0628109
0.0852728
0.0346615
0.00915086
0.0368214
0.0547114
0.0790022
0.0151873
0.0209056
0.0137398
0.0396772
0.0098466
0.0353417
0.0105014
0.0610001
0.0390754
0.0496494
0.0184473
0.0105717
0.02784
0.00892763
0.0187735
0.0834033
0.0144281
0.0119994
0.008836
0.0117117
0.0835446
0.0170741
0.0442184
0.0769056
0.0123869
0.0377873
0.0167795
0.0098556
0.0121957
0.0105919
0.0387683
0.0110358
0.0390352
0.0186587
0.0106809
0.0459771
0.0101187
0.00977082
0.0448107
0.0405602
0.00971044
0.0365316
0.0095583
0.0097022
0.0089865
0.0543904
0.0556173
0.0515053
0.035855
0.0193162
0.0109829
0.0415525
0.00880313
0.0780005
0.0380837
0.0699886
0.00901513
0.0226811
0.0119412
0.028389
0.00950671
0.018762
0.00992026
0.0124828
0.00874888
0.011899
0.0117702
0.0103255
0.0405053
0.0112975
0.0411346
0.0335714
0.0141453
0.0105182
0.0169301
0.00917971
0.0214802
0.0376188
0.0105019
0.0228619
0.0366356
0.041579
0.022427
0.00990893
0.0190149
0.0227219
0.0101461
0.0223179
0.0643815
0.0102132
0.0514181
0.0442832
0.00910077
0.0128927
0.0596683
0.0160687
0.0150077
0.00975126
0.0091107
0.0636665
0.00915189
0.00890451
0.00977417
0.013894
0.0136326
0.0214404
0.0095519
0.039247
0.0105232
0.0119394
0.00887942
0.00985165
0.0156171
0.0346868
0.0659718
0.0394183
0.00992467
0.0809193
0.0272976
0.0412521
0.00965468
0.008958
0.0104474
0.0348899
0.0191571
0.0469517
0.0434929
0.0110561
0.0208207
0.0118996
0.0238211
0.0471534
0.0312634
0.0190773
0.00951297
0.00890912
0.00892018
0.0104545
0.0257015
0.0144013
0.0103597
0.0109162
0.0103706
0.0349264
0.0668774
0.0117439
0.0404716
0.0553561
0.0104481
0.0126965
0.0385542
0.00980366
0.0100682
0.00911689
0.0096307
0.0509029
0.0105622
0.00967184
0.0383902
0.00904847
0.00969897
0.0142144
0.014782
0.0115181
0.0119998
0.0328465
0.0621368
0.0458302
0.0208846
0.0547813
0.0987941
0.0286481
0.0176696
0.0130132
0.00929704
0.010441
0.0133784
0.0117715
0.0120568
0.0537719
0.0364619
0.0382771
0.0453874
0.0474091
0.0110465
0.0210758
0.0105909
0.0738698
0.0146049
0.0468802
0.0104906
0.0457448
0.0324169
0.0178264
0.00924335
0.078522
0.0356984
0.0136451
0.0608418
0.0163151
0.0174475
0.0132001
0.022699
0.0229062
0.0101963
0.0701672
0.00906377
0.0302704
0.0302234
0.0311954
0.00920648
0.00907771
0.0415871
0.0133236
0.021926
0.00907217
0.00916941
0.0367882
0.0145647
0.0118089
0.0117559
0.0109585
0.0645412
0.0671394
0.0140387
0.00940037
0.00901254
0.0513785
0.010351
0.0169822
0.00955499
0.00915415
0.00882092
0.00968644
0.0097593
0.0232087
0.00937308
0.0317597
0.0101722
0.0187203
0.0115282
0.00955558
0.0117932
0.01234
0.0446278
0.054667
0.0714497
0.0106642
0.00859437
0.0130155
0.0145296
0.0549817
0.0725275
0.017177
0.0117113
0.00947616
0.0107611
0.0124586
0.00860027
0.0125099
0.0512499
0.0149877
0.0377522
0.116932
0.0111503
0.0210016
0.0121896
0.0757614
0.00908084
0.00906619
0.00952589
0.0235505
0.011797
0.00969016
0.0154839
0.00918758
0.0238023
0.0097239
0.0116188
0.0682223
0.00926678
0.0165069
0.0384504
0.0221732
0.0098957
0.014189
0.0272829
0.0709539
0.00946562
0.0139525
0.010424
0.0143931
0.0488907
0.0123433
0.0743835
0.0105488
0.0170298
0.0100898
0.0358656
0.01896
0.0211638
0.0489796
0.00875124
0.0099011
0.0807907
0.0102276
0.00892698
0.04839
0.031598
0.0339802
0.0111131
0.0092808
0.101723
0.0400915
0.0373193
0.0176218
0.00913461
0.0613234
0.0104405
0.0113727
0.00921621
0.114296
0.00946265
0.0566466
0.00993595
0.0695986
0.0337289
0.0118698
0.0344392
0.0738924
0.0512129
0.0360514
0.037509
0.0114605
0.0424116
0.0315042
0.0134825
0.0100834
0.0472076
0.0175024
0.0705819
0.0095606
0.04015
0.0106446
0.0392204
0.0152997
0.0095103
0.037875
0.00977302
0.0610825
0.0888043
0.0116026
0.00910964
0.0145757
0.0149882
0.00893865
0.034632
0.00968179
0.0341288
0.00977622
0.0147239
0.0495281
0.0106325
0.0368235
0.0495332
0.0114833
0.0461513
0.0131096
0.00919826
0.0135198
0.0355973
0.00896851
0.0248717
0.00875096
0.00901046
0.00895337
0.00920906
0.0437392
0.0397243
0.00931147
0.0106844
0.0598681
0.0106139
0.00882998
0.00905503
0.00884857
0.0163921
0.0766082
0.00928254
0.0199624
0.0117492
0.020263
0.0450022
0.00918838
0.0238584
0.0127271
0.00872583
0.0126643
0.0886198
0.0694142
0.00947639
0.0103633
0.00887731
0.0119684
0.023754
0.012452
0.00942389
0.0606465
0.00931326
0.0155295
0.0498453
0.0319938
0.0116868
0.0126567
0.0133164
0.0154076
0.019892
0.00883543
0.0228641
0.00920372
0.00980261
0.00872861
0.00940729
0.0453889
0.00992322
0.0593993
0.0957145
0.0337788
0.0117653
0.0130807
0.0307808
0.0100308
0.00917959
0.0107579
0.0096314
0.0533661
0.0104639
0.0146333
0.00928297
0.0177446
0.0145315
0.00972639
0.0169666
0.0466638
0.0401236
0.0444232
0.0779017
0.0492473
0.014765
0.0128457
0.0853971
0.0736752
0.00878081
0.0670149
0.0518106
0.0123541
0.0180769
0.0137781
0.0511446
0.0385114
0.0175488
0.00978843
0.0113754
0.0562367
0.0570313
0.0597628
0.0581909
0.0128213
0.0560241
0.0201731
0.00948108
0.00908892
0.0445574
0.0200114
0.0538769
0.0608384
0.0095054
0.0841407
0.010292
0.0378159
0.0110935
0.01265
0.0725431
0.0370823
0.0120884
0.0494382
0.0109287
0.0412225
0.0186444
0.00915417
0.0501911
0.0669687
0.0385854
0.0192536
0.0199121
0.040725
0.0269821
0.0646235
0.00909087
0.0501296
0.0095546
0.0119473
0.0102188
0.084972
0.0110568
0.0242161
0.0105427
0.0433311
0.0142628
0.0103166
0.0484973
0.00870819
0.0296892
0.0151886
0.0571933
0.0360863
0.00923258
0.0137531
0.0541426
0.016359
0.0336423
0.0605028
0.00940828
0.012214
0.0134803
0.00984668
0.00957266
0.0100149
0.0132863
0.0399436
0.043554
0.00904613
0.0127335
0.0167847
0.0142184
0.0288543
0.0115291
0.0105709
0.0201618
0.0194855
0.0528713
0.0246113
0.0544153
0.0114814
0.00937127
0.0233546
0.0200663
0.0755915
0.0285679
0.0399647
0.00976292
0.00946794
0.0128747
0.0108141
0.0280667
0.0160499
0.0133362
0.0735759
0.00947924
0.0434509
0.0131021
0.0625193
0.00954049
0.0106791
0.011074
0.0169691
0.0124713
0.0118045
0.00912073
0.0470099
0.0355706
0.0663326
0.00971843
0.0109832
0.0139362
0.0103515
0.104813
0.0202841
0.0239101
0.00963341
0.0146944
0.0126787
0.0199898
0.00928203
0.0712244
0.0263293
0.0119905
0.0484104
0.0419844
0.0321455
0.0738818
0.0235967
0.0104085
0.0329254
0.0806211
0.0187611
0.0426577
0.0194139
0.0095726
0.00879805
0.0098281
0.0102009
0.00957159
0.0133593
0.0555876
0.00940289
0.0143247
0.0251914
0.0202947
0.0102637
0.0162666
0.0303154
0.0107429
0.0502975
0.0236748
0.022909
0.0327065
0.0110166
0.0429636
0.0181975
0.0553802
0.0635339
0.0350245
0.0735694
0.0144521
0.0119013
0.0146918
0.0323666
0.0142743
0.0126334
0.0694531
0.0114706
0.0111611
0.0446635
0.0716469
0.0172511
0.0173358
0.0572455
0.0104048
0.0692743
0.00959225
0.0113449
0.0156273
0.0112272
0.010875
0.0194785
0.00937013
0.100197
0.0546595
0.0207676
0.0209121
0.0829656
0.0128526
0.0138583
0.00921776
0.0103097
0.0291663
0.0116397
0.00877764
0.0240996
0.0391631
0.00998101
0.0207931
0.0476769
0.0107016
0.00983714
0.0110013
0.0217549
0.0137723
0.0181826
0.0256051
0.0201425
0.0209218
0.0130388
0.034967
0.0112512
0.00946246
0.00943992
0.0117726
0.0179383
0.0152246
0.0506004
0.0349865
0.0149771
0.01249
0.0132351
0.00883946
0.0113273
0.0088465
0.00873485
0.230738
0.0168991
0.00909519
0.0658185
0.0122171
0.0119572
0.0647032
0.0108279
0.00943084
0.0197761
0.00936776
0.00897603
0.00933882
0.0334061
0.0107059
0.0438635
0.0169121
0.0098005
0.0582522
0.0431843
0.0363301
0.0155415
0.04479
0.0117344
0.00970151
0.00998134
0.0105468
0.0249961
0.0341893
0.0110936
0.0100324
0.0165711
0.0257576
0.0113148
0.00928236
0.0089028
0.0536342
0.0092086
0.0220106
0.0280611
0.0530607
0.0372146
0.0237911
0.00959142
0.0415159
0.010078
0.00989542
0.0102487
0.00927731
0.0101243
0.00887486
0.0095015
0.00909861
0.00978244
0.0130069
0.0158607
0.0510731
0.0427025
0.0108176
0.0143001
0.0536235
0.0100829
0.019484
0.00892961
0.00886774
0.00919875
0.0124377
0.0241118
0.00923555
0.124153
0.0213041
0.00922119
0.0713353
0.00963037
0.0507591
0.0252456
0.0109307
0.0281596
0.0470081
0.010682
0.0115332
0.0114074
0.0495707
0.00992392
0.050173
0.0232166
0.0320662
0.0358005
0.0201517
0.00891313
0.0332813
0.0112659
0.0102564
0.0178194
0.00901833
0.0088419
0.0167995
0.00866339
0.00995187
0.0294514
0.00896355
0.0366796
0.0528457
0.0105465
0.0111037
0.0392468
0.00933088
0.0185006
0.0264848
0.0101275
0.0805984
0.00958803
0.00961057
0.0173553
0.0589058
0.0397912
0.0208565
0.0383147
0.0131772
0.0138099
0.019632
0.0779694
0.0167869
0.00992997
0.0116143
0.00904443
0.00942171
0.0320037
0.0108094
0.00906794
0.0169233
0.0123498
0.0535018
0.0170303
0.0111618
0.00877794
0.0314747
0.010676
0.0227023
0.0178891
0.0662326
0.0167413
0.0254903
0.0476472
0.0161676
0.0454937
0.0108803
0.0183403
0.00930309
0.0698181
0.0086885
0.0226772
0.039304
0.0205593
0.0130049
0.0649035
0.0106737
0.0115959
0.0406436
0.0925636
0.0412571
0.00877673
0.0118804
0.00978045
0.0200063
0.0425571
0.0122237
0.0627619
0.019307
0.00931987
0.0122565
0.0396726
0.0116443
0.0677109
0.0252977
0.0111031
0.00898956
0.0555417
0.0112795
0.0148808
0.0382945
0.0099865
0.0109953
0.00860514
0.0128831
0.0217864
0.0379673
0.00999058
0.0115334
0.0672134
0.0475098
0.0368662
0.00938229
0.0219265
0.0104641
0.0426268
0.009582
0.0506279
0.01337
0.019403
0.00994455
0.00938582
0.0121606
0.0134817
0.0624845
0.0561722
0.0124531
0.0137214
0.0656382
0.0539851
0.0102991
0.0108517
0.0106291
0.0196227
0.0132975
0.0094169
0.0100098
0.034812
0.025965
0.0317856
0.0117931
0.0247415
0.0543532
0.0515308
0.00931788
0.0179045
0.0220082
0.0106467
0.0104607
0.061947
0.0098926
0.00947961
0.0463368
0.0660752
0.00982693
0.00877352
0.0659672
0.0874138
0.00938938
0.0200311
0.0702054
0.0311524
0.00933108
0.00933623
0.00962415
0.0122441
0.0102024
0.0628904
0.0531876
0.00936749
0.0100606
0.0208193
0.0113661
0.0418763
0.0385156
0.0414111
0.011265
0.0851341
0.011115
0.0121321
0.021972
0.0371688
0.0725569
0.00895848
0.00896938
0.0160121
0.00911732
0.0190831
0.0106267
0.0434015
0.0373769
0.212851
0.0181053
0.0126999
0.0197328
0.0392702
0.0236614
0.0165082
0.0123666
0.0212561
0.0113795
0.00962191
0.0193305
0.0387411
0.0588949
0.0106668
0.0630453
0.0165321
0.015287
0.024763
0.0654138
0.0119393
0.0336241
0.085118
0.0704671
0.0139262
0.00919583
0.0144571
0.0140387
0.0258662
0.0180041
0.0657875
0.0509826
0.0452925
0.00890434
0.0197699
0.0121075
0.0186011
0.0191715
0.0141875
0.0690583
0.0158398
0.06772
0.0104747
0.0178795
0.062326
0.00904168
0.0227797
0.0138622
0.0243881
0.0388576
0.0699837
0.0107692
0.0429272
0.00929677
0.00895448
0.0155562
0.0313189
0.0627099
0.0110302
0.0469296
0.0103391
0.0103476
0.00971208
0.0422586
0.0104872
0.0105615
0.0109503
0.0106012
0.0724814
0.0432736
0.0100147
0.0180242
0.0329581
0.00896164
0.0153746
0.0147912
0.0203165
0.0516242
0.137968
0.0441823
0.0110282
0.00975326
0.0155612
0.0650997
0.0505068
0.0116729
0.0165969
0.0311001
0.00900166
0.0107327
0.0102459
0.0097387
0.0090143
0.0103327
0.0122158
0.0176197
0.0165913
0.0176463
0.0282926
0.0329546
0.00892904
0.0145165
0.0543048
0.037936
0.00950206
0.047576
0.0118528
0.0212017
0.0100371
0.0119388
0.0172321
0.00911955
0.00955719
0.00998478
0.0380644
0.0442185
0.00967239
0.00884013
0.0689884
0.0253364
0.0152528
0.00974212
0.0130217
0.0855346
0.0200699
0.0136405
0.0263182
0.00925383
0.0160298
0.0752233
0.0149152
0.0628912
0.0225199
0.0834505
0.0107115
0.0113157
0.00938912
0.0734252
0.0386172
0.0246158
0.0109796
0.0429086
0.0415258
0.0224289
0.0095071
0.0524955
0.00870214
0.0109816
0.0324741
0.0336464
0.0432879
0.00999907
0.00896771
0.0121505
0.0158811
0.0209866
0.0194979
0.0212575
0.060258
0.0583976
0.0487233
0.023209
0.00891065
0.0536811
0.087366
0.0413788
0.0647662
0.0114654
0.0623245
0.00950084
0.00909838
0.0118553
0.0319989
0.00978222
0.0526057
0.0348943
0.00893132
0.0098072
0.0160148
0.00995327
0.0100736
0.0702532
0.0138725
0.0115075
0.00973754
0.022558
0.0110426
0.00907665
0.0193162
0.0492034
0.062492
0.0197308
0.00903935
0.0577708
0.0262366
0.00970679
0.0490011
0.0536685
0.0207186
0.0512083
0.030556
0.0719583
0.0413768
0.0532784
0.0764638
0.0492401
0.0792981
0.0188172
0.0267335
0.00923362
0.0757557
0.00945182
0.0145378
0.011673
0.0162757
0.0118467
0.0543088
0.0103787
0.0108021
0.0222983
0.00889892
0.0139669
0.0904
0.0167398
0.0249956
0.0540611
0.05709
0.012845
0.0230476
0.0622047
0.0123297
0.0132575
0.00923589
0.0103967
0.043711
0.0165794
0.0253854
0.012998
0.0128708
0.0123165
0.00995105
0.0227647
0.0111585
0.0138613
0.0120554
0.0191158
0.0185272
0.0156586
0.0240301
0.00924122
0.014175
0.0510771
0.0126118
0.0549929
0.124556
0.0388536
0.0125453
0.0133019
0.00949812
0.0112295
0.0170014
0.0277071
0.0174411
0.080449
0.0673274
0.0628378
0.038046
0.040788
0.01008
0.042669
0.0169157
0.0612164
0.0576097
0.00884546
0.0383052
0.0111524
0.0143156
0.0101777
0.0500132
0.0435226
0.0151385
0.0118833
0.0770364
0.0125189
0.0363795
0.019085
0.00939321
0.0109701
0.00943406
0.0204544
0.0211157
0.0251504
0.0317372
0.050421
0.0432276
0.0601871
0.0183102
0.00989392
0.0286242
0.0357303
0.0198811
0.0112258
0.011757
0.0379732
0.0134697
0.0621833
0.0328929
0.0120065
0.0420341
0.026084
0.0220132
0.0159856
0.0187136
0.0118926
0.0224763
0.0200638
0.0103586
0.0180278
0.0105038
0.068328
0.0691663
0.0149878
0.0192093
0.0115578
0.0184701
0.0211547
0.0751466
0.0138741
0.0140346
0.0123769
0.022827
0.0481243
0.0374699
0.0452391
0.0154419
0.0333623
0.0191026
0.0699054
0.0165473
0.045533
0.0269405
0.00966724
0.038278
0.0112691
0.0109001
0.049587
0.0607099
0.0161903
0.0865107
0.0112038
0.0103667
0.0248025
0.0125721
0.0233489
0.0160863
0.0556989
0.0185572
0.0151803
0.00874063
0.0863395
0.010817
0.0147235
0.0267967
0.0131728
0.0523205
0.0106765
0.0562079
0.0118092
0.0150471
0.012417
0.0133543
0.0462248
0.0684247
0.00960259
0.00930196
0.0471438
0.0189632
0.056051
0.0141527
0.0360883
0.0761384
0.0217296
0.0120408
0.0240702
0.00916952
0.0169674
0.0122116
0.0571917
0.00911743
0.0525781
0.0275043
0.00939291
0.00920938
0.0153443
0.0700317
0.0426452
0.00894548
0.00898025
0.0130793
0.0115676
0.0119767
0.0975803
0.0126862
0.0132745
0.0139985
0.0408392
0.0140067
0.00966119
0.0146048
0.00989098
0.00902789
0.0364604
0.010824
0.0442587
0.0115771
0.0226766
0.0146083
0.0114066
0.00974736
0.00953739
0.0516844
0.00876475
0.0381868
0.061137
0.0150325
0.0407014
0.0112318
0.0739724
0.0398692
0.0408722
0.026734
0.015612
0.0556572
0.0558954
0.0126282
0.0223363
0.00956482
0.0202152
0.0672416
0.0243091
0.0471972
0.0179192
0.0117858
0.0395038
0.0118261
0.00953391
0.010776
0.0104134
0.00945469
0.0108629
0.00944268
0.0115762
0.0380929
0.079128
0.0121953
0.0801823
0.015146
0.0154185
0.0253754
0.00897325
0.0146219
0.0488339
0.00875982
0.0447691
0.0210336
0.0337007
0.0135006
0.00885753
0.026451
0.0192811
0.0462187
0.0154185
0.015553
0.023999
0.0130531
0.087672
0.0612372
0.00924604
0.0147799
0.00981696
0.0200814
0.100199
0.00886343
0.0331329
0.00865771
0.0109292
0.0535162
0.0110606
0.010131
0.0533364
0.0381594
0.00884791
0.0209996
0.0668713
0.0109974
0.0376418
0.0660898
0.0223195
0.00939799
0.00910652
0.0124897
0.00999639
0.0118834
0.00932587
0.0172653
0.0193693
0.00951637
0.0121249
0.0791172
0.0501546
0.0153835
0.0100745
0.0161398
0.0693247
0.0625471
0.0120128
0.0446517
0.0114439
0.0101422
0.00900388
0.0443818
0.0270428
0.00956085
0.0177964
0.0118297
0.0128662
0.0362916
0.0555712
0.00962413
0.0613446
0.0305179
0.0539664
0.0446491
0.0100479
0.00907943
0.0121077
0.0188533
0.0223499
0.0234024
0.00997398
0.0117845
0.0396443
0.00882382
0.0108312
0.0104764
0.0629166
0.0153095
0.0651552
0.023057
0.0433604
0.0108798
0.0124989
0.0117821
0.0566161
0.0252291
0.0341488
0.0830894
0.011504
0.0657631
0.0376017
0.00977455
0.0100855
0.00894465
0.0485394
0.0182826
0.041265
0.00916051
0.010739
0.00980165
0.00953399
0.0458696
0.0121782
0.0164187
0.00903717
0.0101617
0.00992599
0.0103063
0.0090347
0.0747206
0.045757
0.0165986
0.00888053
0.0120559
0.0473161
0.00945226
0.035743
0.0150899
0.0123115
0.0250849
0.031689
0.0361295
0.0844109
0.0108118
0.0119097
0.0378325
0.0160752
0.0781716
0.0113652
0.00885912
0.0704294
0.0154181
0.0140347
0.0102873
0.0932033
0.0827854
0.058097
0.0317753
0.0343562
0.0662569
0.0575903
0.0819179
0.0253847
0.0102461
0.013616
0.0108602
0.0150121
0.0705342
0.0103794
0.017144
0.0864802
0.0840362
0.0552766
0.0243307
0.0448664
0.0109299
0.0159978
0.00889652
0.0121181
0.0454198
0.0243498
0.0110664
0.00915694
0.011876
0.0102447
0.0100256
0.0410759
0.0187421
0.0112698
0.0103797
0.0931035
0.0169399
0.0187289
0.0144725
0.0162689
0.00923919
0.0367319
0.0539148
0.0743293
0.0205546
0.00882172
0.008723
0.0110096
0.0336415
0.0179605
0.0416585
0.0209347
0.0103022
0.0445773
0.0354721
0.0095864
0.0123911
0.0110234
0.0105556
0.024204
0.031176
0.0121304
0.0200551
0.0155298
0.0124294
0.0142566
0.00999292
0.0258418
0.0125102
0.0764195
0.0577045
0.0853167
0.0219264
0.0164323
0.0202825
0.0435477
0.0109721
0.0441522
0.0363028
0.0747661
0.0162152
0.00900196
0.00992481
0.0743915
0.0358095
0.0444571
0.0633247
0.0370268
0.00920027
0.00886276
0.0570726
0.0490801
0.0373906
0.00933352
0.0088448
0.0124873
0.021995
0.0109867
0.0120091
0.0212884
0.0503576
0.00861884
0.0124308
0.0125727
0.01535
0.0121872
0.00988994
0.0295609
0.0156653
0.0312128
0.0110861
0.00976953
0.00969659
0.0862192
0.0099099
0.0654706
0.0103372
0.0112763
0.0099647
0.0104085
0.0392438
0.0681236
0.0397627
0.0094033
0.00925831
0.0148646
0.00991636
0.061473
0.0229785
0.0104466
0.00933655
0.0178301
0.0473015
0.0171835
0.0175172
0.00950211
0.00997921
0.0103727
0.00907024
0.0112567
0.0118961
0.0242136
0.00997656
0.00959811
0.0120771
0.0241603
0.0520776
0.0702331
0.0287239
0.0187924
0.00935722
0.00950928
0.0599
0.0179838
0.0130708
0.0131899
0.0218158
0.0103347
0.0124159
0.0142592
0.00870878
0.02009
0.0133489
0.040716
0.0179419
0.0125275
0.0657906
0.0149485
0.011269
0.0133656
0.0106005
0.00943053
0.0670121
0.0101736
0.025656
0.00915684
0.0280381
0.0099668
0.0141021
0.0229212
0.0153542
0.0687354
0.0144848
0.043691
0.0492723
0.0121827
0.0629396
0.00960056
0.010423
0.0093015
0.0419066
0.0201681
0.0686219
0.0136466
0.050348
0.0214871
0.0110201
0.00995097
0.00938368
0.0119177
0.0112448
0.0094017
0.011797
0.0111419
0.0115734
0.0441158
0.020989
0.00878449
0.00886676
0.0363329
0.0120175
0.010405
0.00967535
0.0658626
0.0136196
0.0685612
0.00903982
0.0588679
0.0487283
0.0165473
0.0135688
0.0131065
0.016441
0.0537068
0.0105415
0.0541908
0.0529699
0.0113759
0.04024
0.0251404
0.0140413
0.0108023
0.072803
0.0352285
0.0535953
0.00970286
0.0106675
0.0328719
0.0107916
0.022716
0.0338028
0.00936958
0.0487959
0.0132955
0.0115694
0.00989949
0.0100382
0.00953317
0.00914745
0.0156354
0.00859711
0.0111564
0.00967819
0.0192641
0.0214595
0.00891531
0.0279678
0.0113519
0.0120572
0.0112703
0.0127568
0.00904839
0.0131108
0.0494537
0.01085
0.00898008
0.0352532
0.0157315
0.00890257
0.116023
0.0112524
0.0101466
0.0220056
0.0143732
0.0398799
0.0170273
0.00932928
0.0117875
0.0219444
0.0356155
0.034945
0.0146196
0.0461127
0.048386
0.0594784
0.0126523
0.00945324
0.00887766
0.0138236
0.0117068
0.0133138
0.0344974
0.0179996
0.00913687
0.00892924
0.00871386
0.0088451
0.0618215
0.0898583
0.077307
0.0305634
0.0116494
0.0095371
0.00899897
0.023943
0.0114544
0.0102335
0.0729068
0.00891691
0.0105518
0.00915618
0.00947747
0.0296365
0.0404659
0.0157533
0.0415895
0.0103447
0.0122884
0.0210192
0.0115088
0.021714
0.0329023
0.0199334
0.00896813
0.0246016
0.0143055
0.00965662
0.0213869
0.0465267
0.00973069
0.00903872
0.03817
0.0489403
0.0229715
0.0473478
0.00933382
0.0172537
0.0398653
0.00908411
0.00891964
0.00974365
0.0149148
0.0105548
0.011214
0.0109431
0.0122514
0.0248627
0.0123066
0.0303075
0.0267109
0.039549
0.00933291
0.0167284
0.0108822
0.0128643
0.0223708
0.0197365
0.0726019
0.0197578
0.0724607
0.0224199
0.0125068
0.0107084
0.00960416
0.0109597
0.0532871
0.0420936
0.00996836
0.0263349
0.0316383
0.0142444
0.0443073
0.00943228
0.0116689
0.0103169
0.0167346
0.00982855
0.0156748
0.0111915
0.0497276
0.00985126
0.0529397
0.0556689
0.0325668
0.0133229
0.0162876
0.00884511
0.0539493
0.00936644
0.0112395
0.0203531
0.0264112
0.0236807
0.0469114
0.0353566
0.0473588
0.0325952
0.00878219
0.0397244
0.0116456
0.0350769
0.078049
0.0216206
0.0451644
0.0918648
0.0710784
0.0131722
0.0167635
0.00997695
0.0328951
0.00871891
0.0526973
0.0174455
0.0343196
0.0114687
0.0105349
0.0745024
0.0139335
0.0108058
0.0114108
0.0137843
0.014162
0.00996393
0.0110266
0.0102907
0.0124459
0.0510933
0.0235308
0.0417925
0.0110628
0.062473
0.023665
0.0113432
0.0290125
0.0177604
0.0748737
0.0178515
0.0201322
0.00918308
0.0155746
0.00969081
0.0128675
0.00972349
0.0130751
0.00872969
0.0386517
0.0386497
0.0107097
0.0105629
0.0133192
0.0114615
0.0103574
0.0120487
0.0113015
0.0528855
0.0108558
0.0090832
0.0570436
0.014617
0.0545392
0.0142691
0.0313984
0.0436505
0.0105852
0.046895
0.0543884
0.0704919
0.058646
0.0506298
0.00949951
0.0153051
0.00895437
0.0132532
0.0353629
0.0104685
0.00898561
0.0101297
0.0709227
0.0118216
0.0173054
0.0163715
0.0109548
0.0591177
0.0555898
0.0118101
0.0503422
0.00942183
0.0427593
0.0156408
0.0303817
0.00876568
0.00882
0.0109406
0.046358
0.0689722
0.0508854
0.0104288
0.0351302
0.089762
0.0166981
0.0219159
0.0583276
0.0208999
0.0373795
0.0142009
0.0116001
0.00947888
0.0115535
0.114587
0.0183555
0.0674832
0.00894456
0.0113446
0.0153726
0.0107183
0.0225671
0.017771
0.069665
0.012225
0.0202821
0.00913084
0.00919352
0.0369861
0.0850993
0.00959118
0.0105381
0.00978158
0.0320082
0.0128909
0.0695831
0.0490342
0.0434515
0.0100373
0.0576264
0.0174727
0.08133
0.0412269
0.0125786
0.0400888
0.0512941
0.0542605
0.0116432
0.0116602
0.00954476
0.0384585
0.0146507
0.00972959
0.0155232
0.0156878
0.012052
0.00984606
0.0095138
0.0700799
0.0112831
0.0174423
0.0308165
0.0425363
0.00951711
0.00983533
0.0211364
0.0124863
0.0826863
0.0168784
0.0146208
0.0754587
0.0105692
0.0101342
0.0119068
0.0366697
0.00938328
0.0401699
0.0088655
0.035749
0.0717997
0.0090955
0.0101982
0.0327495
0.0120095
0.0100456
0.00968997
0.00932934
0.0369597
0.0558124
0.00980481
0.0118985
0.0119415
0.0109044
0.0404565
0.0133849
0.0374084
0.032214
0.0103242
0.00900209
0.0200966
0.0118592
0.0163187
0.0496691
0.0685787
0.00897894
0.0106289
0.040466
0.0580602
0.0246517
0.0117171
0.01239
0.0721841
0.022473
0.0110271
0.00987624
0.0103677
0.011634
0.0173292
0.00899849
0.0109085
0.0102521
0.0238877
0.056249
0.0712535
0.0158304
0.0182732
0.0120296
0.0108289
0.00989229
0.010223
0.00951242
0.0105921
0.0109427
0.00998235
0.0205941
0.0108816
0.0108694
0.0220427
0.0107425
0.020806
0.0564767
0.0153143
0.0136858
0.0137118
0.014452
0.013535
0.0232192
0.0401571
0.0118437
0.011049
0.0124242
0.0158708
0.0624587
0.0110911
0.0193091
0.0666838
0.0125934
0.0542481
0.0155551
0.0114249
0.0123913
0.0132483
0.0170129
0.0483915
0.064851
0.0733764
0.00908982
0.040647
0.0108252
0.0103169
0.0445762
0.00870944
0.0212357
0.00885724
0.0162651
0.0158908
0.0280048
0.0086911
0.00928944
0.0842495
0.0103947
0.0496654
0.0844617
0.0133437
0.0316165
0.00982247
0.0102171
0.00927316
0.0197761
0.0251306
0.012428
0.0104255
0.0120068
0.0375896
0.0634526
0.0161915
0.0107887
0.0174839
0.00926436
0.024651
0.0212293
0.0102234
0.00990393
0.0100698
0.0227295
0.0180466
0.0243057
0.0134886
0.0118741
0.0173252
0.019105
0.0508278
0.0113692
0.0120698
0.0105636
0.0102178
0.0117949
0.00911775
0.0470969
0.0147973
0.0270857
0.0374121
0.0107997
0.0257013
0.00909707
0.00993257
0.0116623
0.0686881
0.0198947
0.0121503
0.0096318
0.0339591
0.0106382
0.0264311
0.0132948
0.0250054
0.0173747
0.0108262
0.0101206
0.0864493
0.012865
0.00990903
0.0109118
0.0223547
0.0111072
0.0107227
0.133186
0.00873038
0.0443629
0.0116348
0.00962969
0.0101533
0.0165691
0.0216607
0.0281607
0.0354988
0.0507248
0.00983281
0.00967496
0.0929413
0.0466544
0.0118707
0.0128785
0.0381855
0.0187446
0.0121012
0.0127777
0.0121241
0.07264
0.0106695
0.0245727
0.044025
0.00993858
0.0373418
0.0244359
0.0642923
0.043339
0.0246708
0.038152
0.0154131
0.0364358
0.0173956
0.0509976
0.0667284
0.0146393
0.0567553
0.0347579
0.0120418
0.0585928
0.0115162
0.0362325
0.0301457
0.0378246
0.00947589
0.0583761
0.0532839
0.0137287
0.0115935
0.0146078
0.0411221
0.0140694
0.0236924
0.0149949
0.0321465
0.0202956
0.00873296
0.0206717
0.00943419
0.0136305
0.0131452
0.00997128
0.0860972
0.0146166
0.0161372
0.0110743
0.0610147
0.0155111
0.0872282
0.0206268
0.0214555
0.0100182
0.0109259
0.0164521
0.0116776
0.0208037
0.00908512
0.010652
0.0256325
0.00880276
0.0316826
0.0108398
0.0140339
0.0335745
0.0154704
0.0316846
0.00973935
0.0123557
0.0328458
0.0137516
0.0152971
0.0760582
0.0104517
0.0718638
0.0419198
0.0171129
0.0117247
0.0127162
0.0381767
0.00980942
0.0106126
0.0192117
0.0353537
0.0241348
0.0541876
0.0122004
0.0226399
0.0138634
0.022604
0.00914387
0.0127558
0.0505474
0.0137407
0.00913261
0.0221874
0.0868056
0.0314078
0.0121218
0.0370678
0.02298
0.0355148
0.0125657
0.0232159
0.0412764
0.0403143
0.00953037
0.067928
0.011268
0.0599233
0.0100078
0.0202105
0.0112143
0.0515444
0.0123175
0.00912133
0.0103389
0.00985111
0.0209576
0.0778379
0.0763683
0.0319603
0.0862121
0.0112515
0.0504047
0.00938351
0.0110621
0.0148869
0.0108217
0.0655405
0.03538
0.0376932
0.0114135
0.0555651
0.0119871
0.0201315
0.0127012
0.0331145
0.0495123
0.0585905
0.0108802
0.0386602
0.0100375
0.014676
0.0151751
0.0383717
0.0377849
0.0146818
0.0203568
0.0435864
0.00966052
0.0111603
0.0252956
0.0204168
0.0124623
0.0106489
0.0106684
0.00945177
0.0100439
0.0197997
0.0243252
0.0101488
0.0880154
0.0562599
0.0143293
0.0113048
0.00903763
0.058708
0.0426094
0.0088962
0.0203807
0.00873908
0.0478185
0.00900692
0.00945162
0.0116946
0.0351893
0.0244735
0.0615354
0.0680839
0.0158085
0.0735539
0.0146091
0.027526
0.0147367
0.0137536
0.0103602
0.0635212
0.0950313
0.00994612
0.0146301
0.0528517
0.0103805
0.0107712
0.0528984
0.0725829
0.0777803
0.0448079
0.0271685
0.0697366
0.0239604
0.00914851
0.0510265
0.0671774
0.0146326
0.0111433
0.0101154
0.0123462
0.021278
0.091327
0.00956825
0.0488838
0.0100859
0.0427351
0.0191913
0.0148952
0.0184292
0.0170508
0.0556446
0.00995667
0.0121718
0.00936413
0.0677439
0.0156564
0.0380705
0.0199513
0.0311956
0.0625094
0.0176685
0.018204
0.0157166
0.0269461
0.0115396
0.0395923
0.0512584
0.0415434
0.0135622
0.0168393
0.0138134
0.0517726
0.0172052
0.0637478
0.0941398
0.0122063
0.00923541
0.0393748
0.0493421
0.0217471
0.0102016
0.0157029
0.0106988
0.0150913
0.0129895
0.0102631
0.0127425
0.0090608
0.0374414
0.0728889
0.0143776
0.00908636
0.00952615
0.0230098
0.0850827
0.0206973
0.0100235
0.0364706
0.019271
0.0153074
0.020208
0.00944572
0.0110284
0.0090708
0.0558138
0.0148064
0.0106319
0.0125558
0.00955576
0.0171687
0.0376529
0.00977745
0.0214897
0.07387
0.00927946
0.00912807
0.0172398
0.023066
0.011473
0.00984082
0.012189
0.00893854
0.0162107
0.022105
0.0489184
0.0395162
0.0102389
0.0150351
0.00912388
0.012681
0.0448784
0.0507339
0.0427219
0.0677279
0.033418
0.0628388
0.0106878
0.0657625
0.0146881
0.0256312
0.00946716
0.0530446
0.010913
0.0494362
0.0103886
0.0852584
0.0429258
0.0409978
0.00890255
0.00948765
0.0269646
0.0231371
0.0811414
0.0634292
0.00971736
0.0143105
0.0158124
0.00939041
0.00968545
0.012097
0.0120761
0.0100203
0.0390056
0.0159469
0.0316247
0.0378349
0.071617
0.00932495
0.0329615
0.0695162
0.00970617
0.0365549
0.0107512
0.0612354
0.0119427
0.00985371
0.016854
0.0203532
0.0109676
0.0135576
0.0665461
0.0106241
0.00935514
0.0458011
0.0465824
0.0113871
0.0167092
0.0771826
0.0298375
0.0111696
0.00906972
0.0160845
0.0109556
0.015842
0.017779
0.00898235
0.00888677
0.0223052
0.0128672
0.0193795
0.0226977
0.0113
0.0160437
0.0751301
0.0088964
0.0156123
0.0816667
0.0115392
0.0294955