/*--------------------------------*- C++ -*----------------------------------*\
| =========                 |                                                 |
| \\      /  F ield         | OpenFOAM: The Open Source CFD Toolbox           |
|  \\    /   O peration     | Version:  2406                                  |
|   \\  /    A nd           | Website:  www.openfoam.com                      |
|    \\/     M anipulation  |                                                 |
\*---------------------------------------------------------------------------*/
FoamFile
{
    version     2.0;
    format      ascii;
    arch        "LSB;label=32;scalar=64";
    class       volScalarField;
    location    "26";
    object      k;
}
// * * * * * * * * * * * * * * * * * * * * * * * * * * * * * * * * * * * * * //

dimensions      [0 2 -2 0 0 0 0];

internalField   nonuniform List<scalar> 
59516
(
0.0022047
0.0029008
0.00229027
0.00330555
0.00802758
0.0173862
0.00271269
0.00232888
0.00215876
0.00483289
0.00636258
0.00390613
0.00218058
0.00986006
0.00409902
0.00411304
0.00533451
0.00474344
0.00236066
0.0044825
0.0057798
0.00336958
0.00378371
0.006087
0.00371615
0.00380311
0.00594056
0.00658792
0.0041736
0.00842557
0.00710142
0.00624599
0.00307258
0.0028002
0.00365826
0.00299013
0.00802787
0.00474192
0.00249443
0.00402129
0.00227758
0.00443366
0.00346871
0.00285254
0.00319498
0.00424493
0.00256877
0.00521451
0.00778055
0.00461814
0.00903786
0.00544722
0.00211945
0.00243424
0.00556037
0.00265696
0.00525297
0.00592532
0.00557984
0.00323678
0.00385748
0.00798683
0.00530629
0.00515971
0.00274014
0.00406483
0.00989523
0.00539994
0.00635544
0.00276389
0.00767997
0.00496238
0.00818958
0.00357391
0.00581012
0.00432588
0.00521036
0.00361885
0.00527089
0.00476657
0.00585394
0.00424597
0.00351731
0.00820693
0.00412112
0.00546774
0.00580773
0.00327003
0.00406987
0.00306369
0.00640097
0.00386216
0.0049994
0.00352427
0.00493388
0.00804547
0.00369409
0.00416736
0.00430771
0.00380864
0.00580993
0.0082671
0.00815928
0.00403499
0.00295167
0.00442892
0.00621606
0.00219067
0.00250755
0.00385862
0.00506994
0.00694202
0.00420583
0.00484343
0.00410937
0.00234883
0.00392785
0.00329908
0.0078005
0.00366017
0.00637168
0.00536104
0.00417153
0.0052534
0.00470425
0.0025471
0.00872157
0.00373394
0.0106049
0.0057106
0.0062812
0.00228499
0.00779538
0.00314312
0.00245216
0.00212796
0.00481055
0.00218991
0.00567731
0.00286021
0.00536541
0.00599251
0.00820056
0.00299538
0.00584594
0.00322114
0.00294799
0.00252077
0.019906
0.00225353
0.00262274
0.00564002
0.00435165
0.0037598
0.00239028
0.00881592
0.00263077
0.00208889
0.00254407
0.00836745
0.00406981
0.00387111
0.00608129
0.00985242
0.00228829
0.00497573
0.00380356
0.00551676
0.00805482
0.00388102
0.00247063
0.0041267
0.00320594
0.00317414
0.00485519
0.00264536
0.00539773
0.0036053
0.00379907
0.00550234
0.00334007
0.00642399
0.00975763
0.00351777
0.00580568
0.00392317
0.00543222
0.00830245
0.00223708
0.0024915
0.00348687
0.00413851
0.00448931
0.00331407
0.00344336
0.00588263
0.00398592
0.00534214
0.00297401
0.00339308
0.00333198
0.00645991
0.00215766
0.00824765
0.00264084
0.00328113
0.00569499
0.00470547
0.00853338
0.00265527
0.00471848
0.00880765
0.00346609
0.00430065
0.0024789
0.00505477
0.00315218
0.00375016
0.00433985
0.00414916
0.00441088
0.00289789
0.00528003
0.00594131
0.00532409
0.0053543
0.00712254
0.00514991
0.00517183
0.00414672
0.00511924
0.00538432
0.00640813
0.00736615
0.00596634
0.00541294
0.00363149
0.00218207
0.00442438
0.00460301
0.00627048
0.00845928
0.00389517
0.00867682
0.00596969
0.00217889
0.00387606
0.00389834
0.00475229
0.0021639
0.00447886
0.0035054
0.00644992
0.00368135
0.00349816
0.00402979
0.00428069
0.00416103
0.00531126
0.00411819
0.00269836
0.00466302
0.00241538
0.00523068
0.00226114
0.00377371
0.00451393
0.00243068
0.00554671
0.00396263
0.00283702
0.00555621
0.00204366
0.00263064
0.004768
0.00223817
0.00740959
0.00432662
0.00737303
0.00541147
0.00622537
0.00330637
0.00787974
0.00257911
0.00253202
0.0053599
0.00597897
0.00838782
0.00612394
0.00660331
0.00569789
0.00313249
0.0035017
0.00248736
0.00481246
0.00697018
0.00463943
0.00294674
0.00643983
0.00537066
0.00206361
0.00367653
0.00788805
0.00652632
0.00389698
0.00833023
0.00422136
0.00462191
0.00477032
0.00454872
0.00342977
0.00380838
0.00258159
0.00600516
0.00425458
0.00480902
0.00237493
0.00835091
0.00285362
0.00528759
0.00417745
0.0025561
0.00573045
0.0061863
0.00642675
0.00412734
0.00294135
0.00295418
0.00530743
0.00457836
0.0043393
0.00383717
0.00799331
0.00396189
0.00500769
0.00589979
0.0047063
0.00365843
0.00397347
0.005598
0.00462415
0.00626082
0.00551023
0.00544791
0.00417473
0.00614083
0.0040938
0.00622
0.00581223
0.00305301
0.00295037
0.00428422
0.00328995
0.0029328
0.00625903
0.00566601
0.00258533
0.0062629
0.0112644
0.0027934
0.00268999
0.00275199
0.00631305
0.00360602
0.00272868
0.00402858
0.00421208
0.00600934
0.00691261
0.00436483
0.00529451
0.00568168
0.00484363
0.00258034
0.00444214
0.00781589
0.00292751
0.00565017
0.00509427
0.004004
0.0038516
0.0020211
0.00654136
0.00851517
0.0040184
0.00324062
0.0077566
0.00304195
0.00271766
0.00277019
0.00283903
0.00269127
0.00432867
0.00672093
0.00629035
0.00395846
0.00386602
0.00390495
0.00589074
0.00552482
0.00395719
0.00237257
0.00236439
0.00597965
0.00586793
0.00510082
0.00308232
0.00340172
0.0035996
0.00412788
0.00798598
0.00771771
0.00252217
0.00558903
0.00622271
0.00588594
0.00559533
0.00194025
0.00606232
0.00556596
0.00588666
0.00569638
0.00552281
0.00226527
0.00621013
0.00375193
0.00501922
0.00249881
0.0044024
0.00576305
0.00327847
0.00367141
0.00518578
0.00605944
0.00790166
0.00546918
0.00598841
0.00355658
0.00251669
0.00567518
0.00836189
0.00263157
0.00435688
0.0058082
0.00393273
0.00277494
0.00613805
0.00275513
0.00752078
0.00258158
0.00403493
0.011951
0.00431922
0.00243537
0.00357943
0.00836915
0.00581184
0.00577206
0.00617777
0.00224026
0.00450151
0.00556695
0.00319282
0.00639676
0.00266914
0.00526605
0.00360638
0.00774259
0.00593946
0.00267531
0.00508474
0.00204658
0.00498518
0.00267776
0.00266973
0.00772779
0.00550169
0.00244841
0.0042807
0.00264263
0.00535121
0.00331621
0.00855682
0.00482721
0.00952376
0.00524597
0.00518337
0.0024459
0.00223337
0.00498992
0.00641278
0.00594051
0.00878763
0.00476162
0.00649593
0.00600158
0.00382189
0.00372494
0.00420751
0.00616953
0.0109282
0.00402166
0.00382832
0.00249914
0.00625092
0.00763024
0.00385236
0.00412689
0.00592506
0.0136611
0.00448342
0.00724695
0.00454081
0.00832092
0.0035522
0.00426753
0.00385989
0.00810794
0.00606804
0.00486472
0.00416961
0.00300694
0.00425916
0.00354188
0.00566629
0.00559535
0.00727884
0.00206742
0.00647932
0.0052151
0.00419872
0.00546179
0.0044561
0.00314933
0.0060292
0.00458636
0.00549108
0.00684518
0.00851594
0.00353817
0.00610067
0.00300826
0.00276669
0.00560475
0.00445736
0.00458825
0.00376837
0.00586048
0.00277082
0.00727726
0.00348391
0.00526263
0.00736095
0.00318268
0.00515899
0.00323758
0.00613262
0.00289657
0.00380249
0.00547342
0.00253951
0.00605462
0.00562163
0.00596129
0.00610097
0.00520315
0.00429891
0.00568309
0.0045186
0.00644574
0.00460835
0.00527231
0.00512744
0.0056545
0.00208738
0.008215
0.0051542
0.00279292
0.00441258
0.00222599
0.00713526
0.00632181
0.00265433
0.00263498
0.00597086
0.00339791
0.00793231
0.00788346
0.00594405
0.00538194
0.00650244
0.00448568
0.00234006
0.0038544
0.00563134
0.00736486
0.00622683
0.00413571
0.00602655
0.00360803
0.00294146
0.00343166
0.00309762
0.00245505
0.00219911
0.00611692
0.00279913
0.00524068
0.00527409
0.00604376
0.00559761
0.00579384
0.00437692
0.00618985
0.0102373
0.00372091
0.00635778
0.00293709
0.00482483
0.00560915
0.00494231
0.00377324
0.0053755
0.00578845
0.00962084
0.00749605
0.00588678
0.0022657
0.00407919
0.00583131
0.00233957
0.00532849
0.00368268
0.00666763
0.0088247
0.00773667
0.00288698
0.00347151
0.00893163
0.00808159
0.00661229
0.00821212
0.00598925
0.00354865
0.00212903
0.00301122
0.00609327
0.00411015
0.00234418
0.00532015
0.00376789
0.00611653
0.00733307
0.0100989
0.00792106
0.00284903
0.0076501
0.00257552
0.00603279
0.00498935
0.005269
0.0024974
0.00559215
0.00798403
0.00583441
0.00810623
0.00511705
0.00534464
0.00424214
0.00343668
0.00799483
0.00400545
0.00378149
0.00554183
0.00505353
0.00441069
0.00205054
0.00625759
0.00567465
0.00775122
0.00512217
0.00790239
0.00229729
0.00413267
0.0022083
0.00619529
0.00632094
0.007256
0.00444302
0.00293273
0.00526837
0.00814912
0.00316997
0.00252025
0.00404361
0.00462447
0.00844258
0.00385481
0.00530781
0.00641246
0.00806056
0.00227667
0.00597783
0.00519525
0.00612714
0.00251196
0.00587165
0.00210381
0.00378772
0.00775685
0.00584152
0.00912044
0.00244118
0.00540185
0.00571163
0.00521154
0.0027633
0.00511707
0.00542314
0.00573307
0.00858038
0.00221788
0.0027515
0.00274733
0.00337413
0.00482231
0.00248189
0.00210471
0.00659614
0.00362797
0.00636703
0.00403701
0.00512299
0.00237086
0.00218965
0.00800278
0.00276489
0.00445463
0.00584556
0.00579028
0.00891538
0.0048005
0.00242852
0.00955846
0.00313857
0.00897828
0.00582842
0.00423282
0.00328763
0.00853237
0.00528848
0.00952064
0.00427476
0.0022547
0.00394943
0.00355603
0.00635177
0.00558661
0.00531025
0.00597538
0.00591273
0.00429692
0.00343252
0.0039425
0.00903818
0.00280665
0.0027365
0.00571744
0.0027928
0.00400466
0.0028667
0.00629827
0.00782711
0.00246467
0.00461296
0.00741527
0.00488903
0.00375218
0.00803236
0.00310521
0.00531562
0.0037682
0.00809195
0.0022015
0.00669193
0.00208869
0.00554304
0.006521
0.00546312
0.00440063
0.0057234
0.00248767
0.00566723
0.00544791
0.00266223
0.00243321
0.00297048
0.00481611
0.00219057
0.00340765
0.0038362
0.00575951
0.00243126
0.00262688
0.00390372
0.00423051
0.00736888
0.00301724
0.00596886
0.00827507
0.00376283
0.00816124
0.00250921
0.0045463
0.00282845
0.00395922
0.00359369
0.00431435
0.00840176
0.00472578
0.00645832
0.00509151
0.00824609
0.00243714
0.00210449
0.00760204
0.00431843
0.00808678
0.00566241
0.00440366
0.00299079
0.00400994
0.00412323
0.00257916
0.00614762
0.0088567
0.00586181
0.00246623
0.00240553
0.00822791
0.00367717
0.00508729
0.00537825
0.00528189
0.00281999
0.00444133
0.00637338
0.00275205
0.00534407
0.00517845
0.00221368
0.00603561
0.00459234
0.0060208
0.00390127
0.00240177
0.00256011
0.00213262
0.00266839
0.0023165
0.00262668
0.00241867
0.00354744
0.00495383
0.00564753
0.00897685
0.00274216
0.00248337
0.00289279
0.00601324
0.00463768
0.00272526
0.00312176
0.00283267
0.00631034
0.00356151
0.0062205
0.00575531
0.0174311
0.002661
0.00553695
0.0079823
0.00310778
0.00415063
0.00636
0.00408131
0.00588472
0.00242111
0.00568122
0.00645744
0.00531893
0.00386017
0.00927711
0.0057508
0.00205345
0.00559755
0.00778754
0.00448482
0.00384654
0.00265335
0.00506284
0.00412503
0.00536267
0.00538469
0.00394797
0.00272234
0.00510572
0.0042767
0.00445307
0.00258119
0.00284499
0.00422364
0.0061756
0.0057956
0.00623678
0.00590366
0.00247802
0.00307557
0.00634429
0.00397083
0.00223614
0.0056706
0.0047409
0.00517953
0.00507216
0.0051083
0.00618102
0.00532402
0.00523745
0.00527303
0.00630001
0.00883183
0.00285055
0.00279856
0.00606762
0.00434072
0.00476652
0.0024251
0.00625676
0.0049181
0.00237639
0.00668153
0.00664887
0.00618188
0.00388219
0.00245324
0.00586751
0.0152162
0.00232421
0.00609895
0.00753256
0.00618589
0.00574774
0.00241659
0.00512109
0.00341949
0.00557375
0.00535668
0.00469563
0.00351807
0.0054646
0.005848
0.00558744
0.00258694
0.00353968
0.00357531
0.00241811
0.00635067
0.00388984
0.00406624
0.00493039
0.00238244
0.00617433
0.00630328
0.00228192
0.00601091
0.00570422
0.00382281
0.00624179
0.00486424
0.00595464
0.00586344
0.0045582
0.0071683
0.00577886
0.00228096
0.00227341
0.00555614
0.00890553
0.00483265
0.00588073
0.00224829
0.0081357
0.00584881
0.00249584
0.00504802
0.00296807
0.00282851
0.00248383
0.00797387
0.00205134
0.0049625
0.00475337
0.00663212
0.00607851
0.00339782
0.00451785
0.00586977
0.00222704
0.00353491
0.00597575
0.00273776
0.00438982
0.00619651
0.00347797
0.00445386
0.00248204
0.0025389
0.00776631
0.00282538
0.00259525
0.00563136
0.00277299
0.00582711
0.00468315
0.00230709
0.0059125
0.0080372
0.00607118
0.00273008
0.00382866
0.00244422
0.00348008
0.00765501
0.00481583
0.00403714
0.00389372
0.00953773
0.00561231
0.0063528
0.00381503
0.00586751
0.00284627
0.00388371
0.00407298
0.00588477
0.00252322
0.00600284
0.00340535
0.00419507
0.00298465
0.00842596
0.00265031
0.00383671
0.00615567
0.00617371
0.00402701
0.00242363
0.00649247
0.00461813
0.00453444
0.00577469
0.00387335
0.00260304
0.00659003
0.00476267
0.00326713
0.0083902
0.00547007
0.00499708
0.00496987
0.00259662
0.00463601
0.00412476
0.00523772
0.00695399
0.00293576
0.00276579
0.00449058
0.00624841
0.00271886
0.00356678
0.00608651
0.00605335
0.00397297
0.00319112
0.00796312
0.00800926
0.00495101
0.00327866
0.00463805
0.00224739
0.00328651
0.00404428
0.00538188
0.00413056
0.00327862
0.00361643
0.00351834
0.00246037
0.00600803
0.0077187
0.00541803
0.00226442
0.00212547
0.00489475
0.00466966
0.00580512
0.00492894
0.00575652
0.0060138
0.00847451
0.00554541
0.00558847
0.00667814
0.00826012
0.00578533
0.00249995
0.00854325
0.00283011
0.00578187
0.00467278
0.00570964
0.00327796
0.00462376
0.00772325
0.00538106
0.00596305
0.00540051
0.00214598
0.00441303
0.00403464
0.00412001
0.00523534
0.00361799
0.00914845
0.00350114
0.00280732
0.002319
0.00442016
0.00833501
0.00621442
0.00570815
0.00233565
0.00562511
0.00231674
0.00347444
0.00567904
0.00465448
0.0174252
0.00216586
0.00365206
0.00211821
0.00377619
0.00273337
0.00236492
0.0034511
0.0024294
0.00398909
0.00499405
0.00275143
0.00417581
0.0080565
0.00488924
0.00625083
0.00275356
0.00286283
0.0028089
0.00763506
0.00369034
0.00375178
0.008069
0.00791832
0.0031981
0.00561643
0.00296331
0.00304717
0.00272037
0.00232865
0.00659574
0.0056495
0.00586001
0.00611031
0.00215578
0.00343116
0.00241724
0.00231115
0.00302998
0.00896359
0.00256924
0.0076384
0.00487917
0.00240596
0.0074709
0.00615906
0.00235866
0.00275025
0.00245445
0.00338863
0.00612319
0.00362738
0.00564567
0.00639047
0.00662398
0.00315019
0.00301076
0.00613977
0.00468655
0.0057467
0.00506751
0.00497492
0.00544774
0.00466902
0.00460464
0.00490761
0.00437469
0.00477284
0.00648455
0.00564179
0.00525566
0.00223542
0.00398966
0.00644919
0.00284704
0.00306352
0.0022878
0.00795043
0.0126802
0.00434783
0.00452615
0.00521477
0.00302199
0.00754565
0.00556088
0.00350461
0.00278198
0.00401432
0.00646466
0.00465739
0.00494664
0.00551339
0.00606783
0.0046125
0.0035952
0.00299349
0.00274617
0.00238877
0.00241605
0.00341974
0.0062906
0.00315822
0.00617919
0.00390222
0.0050066
0.00429891
0.00319551
0.00235375
0.00489499
0.00382375
0.00235187
0.00541879
0.00490968
0.00434897
0.00482399
0.00734726
0.00572502
0.00620535
0.0080595
0.00251588
0.00300876
0.0058099
0.00338658
0.00847544
0.00243985
0.00369374
0.00264798
0.0052218
0.00229951
0.00861162
0.00256559
0.0078739
0.00210527
0.00846214
0.00409085
0.0032351
0.00556727
0.00831578
0.00442397
0.00217469
0.00339762
0.00399115
0.00430576
0.00228248
0.00617494
0.00608515
0.00600793
0.00319973
0.00388086
0.00384175
0.00688254
0.0043244
0.00571352
0.00300243
0.00289143
0.00217642
0.00237174
0.00223413
0.00755051
0.00592627
0.0072215
0.00267299
0.00660182
0.00560704
0.00794522
0.0039869
0.00823694
0.00468575
0.00827551
0.00505529
0.00668968
0.0033455
0.00390813
0.00613404
0.00564173
0.00426631
0.00605233
0.00470482
0.0026321
0.00931292
0.00493088
0.00809029
0.0027384
0.00441817
0.00616564
0.00256612
0.00424107
0.00553183
0.00290097
0.00466291
0.0061391
0.00268924
0.00628123
0.00615387
0.00262108
0.00409414
0.00579075
0.00772711
0.00233996
0.00476089
0.00400296
0.00818996
0.00384859
0.00597428
0.00789387
0.00572583
0.00874007
0.00228141
0.00241995
0.00606091
0.0079858
0.00538201
0.0025322
0.00344256
0.00236111
0.00467872
0.0057898
0.00440476
0.00916795
0.00269978
0.00655301
0.00269365
0.0082132
0.00305065
0.00239354
0.00805623
0.00582074
0.00295057
0.00235928
0.00733707
0.00408895
0.00359915
0.0062006
0.00487276
0.00548388
0.0021427
0.00276442
0.00444237
0.0031703
0.00311849
0.00546543
0.00232829
0.00406091
0.00288238
0.00497108
0.00216841
0.00239747
0.00252405
0.00270544
0.00634958
0.00322644
0.00708247
0.00284794
0.00751623
0.0130684
0.00433963
0.0032209
0.00333891
0.00642107
0.00425633
0.00267888
0.00269808
0.00215145
0.00876464
0.0085006
0.00945267
0.00416709
0.00736855
0.00410433
0.00562343
0.00285394
0.00607154
0.00750776
0.00642254
0.00384671
0.00513759
0.00270847
0.00549125
0.00583959
0.00572594
0.00252932
0.00391611
0.00865423
0.00277797
0.0039201
0.00306604
0.00580966
0.00385068
0.0059025
0.0021961
0.00231621
0.00288537
0.00475055
0.00523698
0.00460394
0.0059899
0.0022282
0.00561087
0.00402976
0.00404323
0.00198862
0.00338436
0.00423669
0.00385622
0.00264168
0.00738188
0.00443935
0.00389815
0.00559995
0.0024503
0.0025387
0.00252571
0.00248702
0.00384548
0.00232583
0.00274646
0.00507713
0.00233821
0.00493359
0.00793567
0.00729056
0.00297397
0.00202592
0.00378354
0.00299043
0.00224441
0.00774572
0.00333428
0.00256235
0.00387383
0.00240606
0.00595562
0.00399446
0.00485568
0.00257606
0.00367048
0.00247143
0.00800163
0.00215596
0.00569516
0.00260816
0.00589979
0.00418489
0.00351337
0.00440157
0.00568248
0.00759792
0.00248766
0.00968338
0.00434922
0.00515486
0.00266289
0.00397291
0.00235988
0.00253528
0.00743015
0.00241703
0.00223134
0.00625447
0.00814844
0.00470801
0.0025895
0.00258352
0.00299815
0.00575175
0.0052026
0.00733937
0.00429723
0.00252148
0.00345042
0.00231416
0.00548031
0.00806711
0.00608134
0.00559374
0.00554913
0.00227804
0.00568299
0.00239205
0.00425114
0.00810238
0.00217421
0.00380347
0.00267715
0.0055249
0.00227365
0.00296173
0.00616248
0.00602611
0.00749866
0.00335577
0.00556919
0.00600479
0.0031453
0.00884721
0.00529644
0.00685598
0.00669621
0.0041979
0.00330972
0.00444181
0.0087504
0.00239612
0.00390536
0.0030466
0.00453306
0.00251911
0.00561336
0.00341243
0.00517722
0.00677162
0.00377769
0.00388334
0.00537845
0.0047748
0.00268258
0.00328121
0.00409954
0.00473299
0.00562553
0.00577665
0.00642448
0.00414836
0.00785724
0.00282595
0.00548619
0.0041826
0.00803133
0.00543131
0.00405082
0.00318299
0.00306115
0.00540232
0.00752804
0.003483
0.00296496
0.00551667
0.00243855
0.00762195
0.00258815
0.00577339
0.00224433
0.00436009
0.00383262
0.00433796
0.00554829
0.00448448
0.00482056
0.00559647
0.00425639
0.00553255
0.00306156
0.00689109
0.00852272
0.00307672
0.00899125
0.00201475
0.0023614
0.00247183
0.00625999
0.00245631
0.00586587
0.00618587
0.00405026
0.00241832
0.00494505
0.00236058
0.00611831
0.00271641
0.00236541
0.00548627
0.00288126
0.00218273
0.00246938
0.00348248
0.00838714
0.00782718
0.0052658
0.00266796
0.00533002
0.00252939
0.00948077
0.00663973
0.00353931
0.00607434
0.00476455
0.00589972
0.00342866
0.00455039
0.00603677
0.00691373
0.00642605
0.00286101
0.00802951
0.00355071
0.00512276
0.00833318
0.00292819
0.00565267
0.00631012
0.00369319
0.00536453
0.00358383
0.00542411
0.00233883
0.00221256
0.0055104
0.00376842
0.00811265
0.00578581
0.00230456
0.00492987
0.00250844
0.00809497
0.00804042
0.00334453
0.00705264
0.00374571
0.00473536
0.00587348
0.00547036
0.00379228
0.00538441
0.00265887
0.00402372
0.00296367
0.00381599
0.00789278
0.00535443
0.00830343
0.00479208
0.00570305
0.00530071
0.00476588
0.00646819
0.00375738
0.00230287
0.0022705
0.0024439
0.00498262
0.00477094
0.0040557
0.00574376
0.00506927
0.00468225
0.00578548
0.0029656
0.00833751
0.0026381
0.00545799
0.0043388
0.00315806
0.00946988
0.00740146
0.00225902
0.00428516
0.00815701
0.00368965
0.00770686
0.00398623
0.00526236
0.00462557
0.00629295
0.00539775
0.00232477
0.00399437
0.00613349
0.00456059
0.00463221
0.0054084
0.00540062
0.00305819
0.00229835
0.00641203
0.00495145
0.00493645
0.00453171
0.00643576
0.00799044
0.00526924
0.00231551
0.0063038
0.00325609
0.00515837
0.00552336
0.00370726
0.00220552
0.00303707
0.00247914
0.00388164
0.00376579
0.00813068
0.00408407
0.00263162
0.00394681
0.00255998
0.00788073
0.00414843
0.00552384
0.00850726
0.00240061
0.00270275
0.00457567
0.0100824
0.00902002
0.00659456
0.00400805
0.00359766
0.00837765
0.007859
0.00921173
0.00251244
0.00486332
0.00372407
0.00459323
0.00295906
0.00804961
0.00401823
0.0025568
0.0081867
0.00823426
0.00780104
0.00298144
0.00734428
0.00425465
0.00517249
0.00625601
0.00337308
0.00510928
0.00225948
0.00411193
0.0061216
0.003314
0.00421198
0.00555008
0.00417569
0.00228616
0.00377855
0.00468682
0.00801043
0.00266141
0.00229131
0.00210432
0.00220139
0.00541004
0.00373893
0.00560514
0.00865034
0.00213985
0.00642929
0.00598897
0.00450966
0.00487145
0.002006
0.00421885
0.00207634
0.00500559
0.00505873
0.00508731
0.00535292
0.00392789
0.00435771
0.00471657
0.00299525
0.0033564
0.00350957
0.00241904
0.00249298
0.00357234
0.0028816
0.00593842
0.00230979
0.0029867
0.00803496
0.00534774
0.00913861
0.00212924
0.0025279
0.00256286
0.00392738
0.00335409
0.00488595
0.00371585
0.0078167
0.00226856
0.00555157
0.00522687
0.00781964
0.00481701
0.0046189
0.00775951
0.00521854
0.00546404
0.0060276
0.007446
0.00573548
0.00382453
0.00633165
0.00585589
0.00345278
0.00228273
0.00412761
0.00278919
0.00244107
0.00560733
0.00594031
0.0030989
0.00299796
0.00255139
0.00319376
0.00502777
0.00323468
0.00266378
0.00424926
0.00547586
0.00428339
0.00524785
0.00832138
0.00548259
0.00787885
0.00356308
0.0038137
0.00475252
0.00458185
0.00398921
0.00840651
0.00417371
0.00641025
0.00553296
0.00307614
0.00469625
0.00637229
0.00286255
0.00444189
0.00517235
0.00234906
0.00794702
0.00334252
0.00210566
0.00487525
0.00560741
0.00508013
0.00515794
0.00374468
0.00342532
0.00221483
0.00523966
0.0054313
0.00349158
0.00284071
0.0075062
0.00778529
0.00264627
0.00217127
0.00544699
0.00557328
0.00783811
0.00252941
0.00289877
0.00314346
0.00257229
0.00451173
0.00302327
0.00313885
0.00590554
0.00212546
0.00257998
0.00505707
0.00239987
0.0032061
0.00789861
0.00236912
0.0036953
0.00308804
0.00397566
0.00563766
0.00635067
0.00481245
0.00278312
0.00488969
0.00254633
0.00512406
0.00226612
0.00267069
0.00227503
0.00800166
0.00220673
0.00534774
0.00584919
0.0032393
0.00759532
0.00557073
0.00430158
0.00528625
0.00389811
0.00250122
0.00785834
0.00277817
0.0054283
0.00237945
0.00387476
0.00409264
0.00528236
0.00380564
0.00418392
0.00611913
0.00449603
0.00445009
0.00430151
0.00568073
0.00301891
0.00626777
0.00584373
0.00403646
0.00336367
0.0047515
0.00518313
0.0076598
0.0032862
0.00826266
0.00593343
0.00770734
0.00526567
0.00279114
0.00269217
0.00327582
0.00236721
0.00687535
0.00498851
0.00762942
0.00701328
0.00370868
0.00434079
0.00244608
0.00258939
0.00416369
0.00807386
0.00388626
0.00577704
0.00535218
0.00492568
0.00363999
0.00366885
0.00252975
0.00381226
0.00574276
0.00733779
0.00335337
0.00453132
0.00585977
0.00389926
0.00553363
0.00531884
0.0022517
0.0060743
0.00353757
0.00561174
0.00264954
0.00284269
0.00561927
0.00281057
0.00446517
0.00366952
0.00437077
0.00401256
0.00596544
0.00361956
0.00588142
0.0047583
0.00600084
0.00363275
0.00234668
0.00615321
0.010969
0.00451514
0.00550245
0.00248738
0.00263036
0.0052856
0.00211316
0.00494118
0.00432206
0.00255033
0.00387839
0.00399589
0.00262729
0.0054574
0.00553245
0.00850867
0.00291634
0.00486779
0.00592882
0.00313912
0.00331121
0.00351801
0.00461905
0.00239894
0.00554429
0.0058505
0.00633728
0.00659204
0.00628756
0.00873108
0.00828589
0.00347715
0.00451003
0.00581948
0.00580275
0.00266134
0.00400534
0.00522396
0.0081701
0.00671736
0.00500247
0.00519093
0.00618744
0.00398954
0.00458324
0.00210356
0.00528006
0.00440216
0.00340133
0.00255877
0.00388563
0.00238516
0.00341698
0.00231863
0.00602646
0.00229466
0.00288643
0.00550323
0.003443
0.00557086
0.00525163
0.00609743
0.00405521
0.00601482
0.00240301
0.00613194
0.00550832
0.00309899
0.00509155
0.00622456
0.00618135
0.00479313
0.00273524
0.00526801
0.00407266
0.00491404
0.00363567
0.00273757
0.00395778
0.00365368
0.00282048
0.00401132
0.00584826
0.00261594
0.00537164
0.00324827
0.00248923
0.0026796
0.00789833
0.00280969
0.00781672
0.00263739
0.00359643
0.00350468
0.0052038
0.00397866
0.00581311
0.005798
0.00487377
0.00233354
0.00438603
0.00264646
0.0054522
0.00510883
0.00271365
0.00414808
0.00243658
0.0047724
0.00247242
0.00449447
0.00542155
0.00559509
0.00611231
0.00585276
0.00381881
0.00266629
0.00266333
0.00641076
0.00603945
0.00620645
0.00392859
0.00256579
0.00246175
0.0025668
0.00546737
0.00467108
0.00569743
0.00376032
0.00575397
0.00418091
0.00423847
0.00360936
0.00744376
0.0024184
0.00515708
0.00911831
0.00817155
0.00386206
0.00221116
0.00550702
0.00378626
0.00615107
0.00638625
0.00237023
0.00343639
0.00438153
0.00443942
0.00840355
0.00283795
0.00466558
0.00467324
0.0034346
0.00262269
0.00527321
0.00422653
0.00507522
0.0031247
0.00805346
0.00249855
0.00410688
0.00390203
0.00629611
0.00271233
0.00331465
0.00304406
0.00215544
0.00764416
0.00256915
0.00244311
0.00543402
0.0031185
0.00409329
0.00342757
0.00450854
0.00282759
0.00591554
0.00408616
0.00403794
0.00347457
0.00496422
0.003109
0.00371519
0.00452267
0.00417879
0.00337838
0.00583533
0.00341181
0.00639728
0.00666286
0.00248156
0.0066687
0.00284894
0.00353268
0.00536023
0.00381985
0.0052214
0.00770766
0.00782605
0.00611598
0.00551982
0.0049818
0.00255655
0.00555239
0.00248261
0.0041127
0.00467645
0.00608141
0.00452955
0.0080946
0.00295851
0.00220548
0.00202363
0.00405153
0.00748247
0.00571055
0.00303327
0.00777419
0.00582686
0.00561531
0.00261149
0.00330251
0.00638038
0.00647088
0.00458731
0.00563644
0.00760199
0.00582486
0.00356644
0.00367486
0.00776205
0.0023728
0.00247994
0.0075771
0.00248883
0.00685487
0.00244895
0.00341136
0.0060037
0.00461538
0.0104044
0.00223927
0.00595042
0.00572493
0.00404007
0.00273843
0.00459791
0.00258965
0.00227979
0.00666184
0.00357469
0.00238278
0.00644688
0.00584263
0.00396693
0.00820314
0.00466816
0.00437282
0.00564508
0.00341773
0.00327723
0.00867004
0.00781951
0.00541673
0.00555431
0.0062303
0.00218904
0.00839851
0.00543098
0.0038759
0.0039439
0.00565861
0.00593024
0.00322149
0.0044031
0.00596068
0.0039024
0.0031564
0.00441265
0.00233211
0.00254399
0.00420954
0.00571822
0.00559883
0.00843828
0.00385737
0.0026324
0.0037721
0.00668632
0.00566224
0.00523813
0.00229774
0.00410012
0.00874459
0.00224035
0.00274683
0.00836757
0.00400003
0.00444719
0.00365845
0.00493211
0.00527987
0.00505268
0.00588885
0.00371411
0.00779502
0.00510829
0.0046347
0.0036532
0.00321773
0.00469751
0.00478226
0.00537323
0.00419271
0.00761748
0.00506059
0.00360202
0.00312784
0.00452518
0.00414046
0.00297561
0.00431891
0.00363384
0.0035874
0.00677456
0.00203587
0.00417952
0.00291933
0.00570344
0.0061972
0.00505406
0.00428734
0.00498987
0.00632523
0.00248902
0.0036083
0.00360677
0.00822761
0.00246716
0.0047387
0.00509645
0.00403193
0.00337654
0.00226696
0.00632697
0.0031046
0.00482455
0.0025893
0.00784028
0.00856442
0.00266727
0.0024375
0.00387079
0.00412525
0.00530429
0.00443805
0.00575278
0.00469629
0.00406985
0.00534014
0.00246468
0.00446736
0.00468442
0.00236876
0.00469217
0.00230724
0.0072401
0.00235212
0.00332672
0.00291272
0.00245392
0.00280607
0.00242995
0.00558666
0.00325058
0.00446623
0.0036993
0.00225073
0.00562367
0.0047632
0.00208976
0.00866626
0.00349886
0.00595837
0.00250933
0.0037064
0.00305892
0.00283305
0.00185781
0.00545262
0.00807869
0.0104658
0.00598028
0.00547421
0.00403554
0.00472127
0.00533793
0.00633975
0.00208167
0.00543672
0.00263626
0.00245725
0.00283723
0.00619332
0.00458672
0.00841009
0.00479241
0.00568657
0.00848926
0.00368431
0.00341964
0.00463425
0.00438896
0.00542991
0.00262016
0.0025804
0.0036923
0.00426106
0.00332606
0.00458887
0.00680178
0.00270647
0.00397627
0.0027023
0.00604136
0.00235606
0.00236651
0.00388764
0.00421748
0.00430646
0.00263349
0.00241524
0.00295504
0.00241554
0.00318618
0.0024857
0.00246161
0.00600625
0.00331146
0.00300136
0.00371579
0.00537941
0.00303144
0.0052618
0.00561336
0.00234308
0.00366899
0.00468369
0.00384436
0.00234193
0.00603806
0.00520305
0.00315127
0.00774045
0.00240867
0.00402238
0.0050528
0.00361277
0.00480303
0.00271573
0.00241505
0.00288873
0.00233592
0.00328861
0.00394953
0.00861828
0.00296946
0.00403174
0.00463816
0.00238958
0.00351885
0.00397572
0.0124527
0.00615565
0.00534562
0.00301782
0.00501384
0.00440784
0.00299713
0.00244287
0.00270168
0.00508714
0.00754998
0.00477169
0.00430906
0.00919404
0.00537561
0.00319971
0.00343962
0.00444771
0.00202706
0.00274312
0.00265042
0.00325068
0.00810702
0.00344192
0.00266576
0.00562029
0.00425263
0.00376342
0.00234587
0.00765311
0.00592291
0.00232435
0.00397897
0.00262008
0.00440434
0.00268508
0.00581482
0.00647667
0.00233621
0.00747088
0.00443681
0.00299696
0.00754067
0.00354817
0.00471512
0.00373403
0.00437178
0.0055148
0.0061722
0.00606895
0.00286147
0.0042305
0.00280061
0.00423797
0.00352889
0.00237706
0.00254456
0.00375005
0.00247227
0.00620263
0.00226123
0.00527361
0.00379844
0.00251057
0.00478594
0.00954988
0.00257526
0.00248324
0.00403995
0.00642654
0.00208822
0.00889217
0.0026175
0.00276976
0.00527337
0.00470845
0.00205726
0.0038224
0.0084373
0.00599436
0.00449901
0.00253369
0.00617444
0.00374149
0.00400954
0.00303044
0.00380225
0.00671074
0.00360705
0.00481376
0.00441245
0.00358033
0.00277167
0.00250804
0.00815818
0.00414755
0.00853246
0.005353
0.00236004
0.00391147
0.00298727
0.00668742
0.00487228
0.0042204
0.00243157
0.00372675
0.00262032
0.00588476
0.00370047
0.00255161
0.00269131
0.00239555
0.00620753
0.00337772
0.00767664
0.00300868
0.00623577
0.00253791
0.0079439
0.00463496
0.00346414
0.00398189
0.00226788
0.0035648
0.00369771
0.00228066
0.00425281
0.00511032
0.00568556
0.00846322
0.00407713
0.00656349
0.00468122
0.00230647
0.00377013
0.0054424
0.00345698
0.00504722
0.0047102
0.0053294
0.0027222
0.00839737
0.00802099
0.00597519
0.0078875
0.00410891
0.005746
0.0051917
0.00309707
0.00267982
0.00511677
0.0065002
0.0042591
0.00418714
0.00320134
0.00591358
0.00420703
0.00211677
0.00303854
0.00360685
0.00540183
0.00621981
0.00386632
0.00421419
0.00420279
0.00255282
0.00254288
0.00520963
0.0051207
0.00183314
0.00264729
0.00426112
0.00577251
0.00465408
0.00246858
0.00203981
0.00303
0.00360512
0.00475099
0.00540726
0.00561492