/*--------------------------------*- C++ -*----------------------------------*\
| =========                 |                                                 |
| \\      /  F ield         | OpenFOAM: The Open Source CFD Toolbox           |
|  \\    /   O peration     | Version:  2406                                  |
|   \\  /    A nd           | Website:  www.openfoam.com                      |
|    \\/     M anipulation  |                                                 |
\*---------------------------------------------------------------------------*/
FoamFile
{
    version     2.0;
    format      ascii;
    arch        "LSB;label=32;scalar=64";
    class       volVectorField;
    location    "26";
    object      momentum:angularMomentum;
}
// * * * * * * * * * * * * * * * * * * * * * * * * * * * * * * * * * * * * * //

dimensions      [1 1 -1 0 0 0 0];

internalField   nonuniform List<vector> 
59516
(
(9.72482e-10 -9.25124e-10 2.43503e-07)
(8.6799e-10 -8.29214e-10 1.79814e-07)
(-3.71741e-10 2.43193e-09 2.16187e-07)
(-3.61219e-09 5.39406e-10 1.75689e-07)
(-7.55035e-09 1.78799e-10 2.00444e-07)
(-5.20173e-09 2.7689e-09 5.03726e-08)
(-1.42662e-10 -2.65609e-09 2.19494e-07)
(-3.78134e-10 -2.7361e-09 2.14409e-07)
(-1.15815e-09 -6.57782e-10 1.65724e-07)
(3.24635e-09 1.13633e-09 9.13342e-08)
(-9.57213e-10 -1.11074e-09 1.98243e-07)
(-3.6447e-09 -4.47304e-09 1.12209e-07)
(-2.00869e-09 -9.15901e-10 3.44609e-07)
(1.18945e-10 -2.21371e-10 1.87684e-08)
(1.44871e-10 -8.64759e-09 1.76478e-07)
(-2.20001e-09 6.25753e-09 9.55112e-08)
(8.80349e-10 -4.12009e-10 2.45052e-07)
(-1.14298e-08 -3.67533e-09 1.64198e-07)
(-9.41787e-09 -4.49495e-09 3.40057e-07)
(-8.75554e-10 1.22196e-09 3.4503e-07)
(-9.13617e-10 9.5277e-10 1.07872e-07)
(1.15436e-09 -9.48343e-10 3.15257e-07)
(8.71662e-10 -1.46126e-09 3.42217e-07)
(1.12578e-09 6.83868e-10 4.08896e-08)
(1.29966e-09 3.09844e-09 2.97875e-07)
(-5.05677e-10 4.98732e-09 2.2547e-07)
(-8.81154e-10 3.86993e-09 6.06004e-08)
(-4.82746e-09 -2.65247e-09 7.8404e-08)
(-2.39883e-09 -2.25287e-09 1.56262e-07)
(2.09128e-09 1.53048e-09 1.64312e-08)
(-3.72128e-08 2.14277e-09 1.89606e-07)
(-4.34945e-09 3.73439e-09 8.85293e-08)
(-1.03124e-09 -1.33764e-09 1.76479e-07)
(-3.19263e-09 -4.12736e-10 1.8298e-07)
(-2.1972e-09 -4.93413e-10 1.31648e-07)
(1.03149e-09 1.27316e-09 3.98465e-07)
(-2.20444e-09 1.2325e-09 1.54096e-08)
(-1.22319e-08 -4.38511e-09 1.34606e-07)
(-5.88405e-09 1.5159e-09 2.8441e-07)
(3.45523e-09 -1.89115e-09 2.65039e-07)
(9.0715e-10 -2.25739e-09 2.77943e-07)
(-2.13812e-08 -7.26614e-10 4.03548e-07)
(-3.80056e-10 3.561e-10 3.39076e-07)
(-8.91989e-10 7.36308e-11 1.19029e-07)
(-1.31571e-09 1.11583e-09 2.67517e-07)
(2.59041e-09 9.45423e-10 1.15003e-07)
(-3.76537e-09 -1.06487e-09 3.30469e-07)
(-6.27044e-10 2.09e-10 2.38728e-07)
(-3.39971e-08 3.34645e-09 2.51673e-07)
(-6.71053e-09 -5.0943e-10 2.31526e-07)
(-2.81769e-08 7.94167e-10 1.63857e-07)
(-6.71297e-09 -3.57188e-09 8.78866e-08)
(1.6301e-09 -4.15407e-09 3.33125e-07)
(-6.00955e-10 -6.25564e-10 3.15016e-07)
(-3.86659e-09 1.09766e-09 9.05261e-08)
(4.00869e-10 4.85233e-10 2.50862e-07)
(-1.26996e-08 -3.57869e-10 1.97841e-07)
(-7.59072e-09 -3.41104e-09 9.19549e-08)
(1.22535e-09 1.09647e-09 1.84351e-07)
(-7.09648e-09 -2.81172e-10 1.44707e-07)
(5.51392e-10 2.08192e-10 2.02427e-07)
(-1.28601e-09 1.84719e-09 1.84815e-08)
(1.61675e-09 -2.13604e-10 2.37279e-07)
(3.35943e-10 1.42472e-09 3.09913e-07)
(-1.12531e-09 8.58425e-10 3.12263e-07)
(-2.95835e-09 5.65626e-10 2.07682e-07)
(9.81903e-11 2.46001e-09 2.20411e-08)
(1.28712e-10 7.81429e-11 7.76191e-08)
(-3.64534e-08 8.76673e-10 1.97813e-07)
(6.63538e-10 -1.56038e-09 1.71163e-07)
(-1.01046e-09 -1.45559e-09 6.24391e-08)
(-3.55625e-10 2.30658e-10 1.45148e-07)
(4.05761e-09 -1.6577e-09 2.71151e-08)
(1.06303e-09 2.64253e-10 1.84167e-07)
(-1.89109e-09 1.38366e-09 3.25054e-07)
(1.23986e-09 -7.20367e-10 3.45797e-07)
(2.89472e-10 -7.31924e-10 2.00614e-07)
(-9.96798e-10 2.28341e-10 2.18392e-07)
(3.28782e-09 2.35587e-09 9.91836e-08)
(-4.79407e-09 1.14531e-09 1.84107e-07)
(-3.62637e-09 3.38318e-10 5.90349e-08)
(-3.46961e-09 6.72537e-10 1.65455e-07)
(-3.14631e-09 6.93489e-10 1.80143e-07)
(-2.62239e-09 1.27708e-09 2.17879e-08)
(-4.13278e-09 1.1366e-09 2.08239e-07)
(-1.15374e-09 7.37171e-10 3.3492e-07)
(7.70324e-10 1.05839e-09 3.66974e-08)
(1.23852e-09 9.13465e-10 4.95066e-07)
(-4.67426e-09 -3.69573e-09 1.24403e-07)
(-1.3512e-08 -3.86424e-09 1.69595e-07)
(-1.35432e-08 -5.00401e-10 1.82176e-07)
(-1.74906e-09 1.00149e-09 1.83821e-07)
(7.003e-10 -2.12063e-10 2.30471e-07)
(-1.62905e-10 7.84036e-10 1.79156e-07)
(2.38513e-11 -6.19766e-10 1.65514e-07)
(-1.85247e-08 3.01013e-10 1.83499e-07)
(-1.04105e-09 -1.00834e-09 1.2341e-07)
(2.78441e-09 6.69153e-09 9.7628e-08)
(-2.65065e-09 -1.6863e-09 1.22492e-07)
(1.5674e-09 9.26673e-10 2.02038e-07)
(-2.05008e-09 1.74673e-09 7.12621e-08)
(3.49201e-09 1.46487e-09 3.15432e-08)
(3.45243e-09 1.81544e-09 2.82457e-08)
(-3.61931e-09 3.69948e-09 9.81632e-08)
(1.42575e-09 -9.68945e-11 2.34974e-07)
(-4.00194e-10 8.11701e-10 1.54377e-07)
(2.51189e-09 -5.13484e-09 6.55931e-08)
(-7.65473e-10 -2.71216e-10 1.48306e-07)
(-5.33739e-10 1.09363e-09 1.89191e-07)
(-4.31453e-09 6.89396e-09 2.16615e-07)
(-3.96205e-08 -7.65173e-10 2.80026e-07)
(3.79043e-09 -3.2398e-09 5.09823e-08)
(-7.1315e-09 9.82941e-09 2.13274e-07)
(-3.44359e-08 5.59811e-11 2.19796e-07)
(-6.12957e-10 2.36108e-10 2.08018e-07)
(1.46943e-09 -1.73918e-09 1.50209e-07)
(-4.70494e-09 -2.25426e-09 1.42366e-07)
(-1.08701e-09 -2.69784e-10 1.45788e-07)
(-4.68972e-10 -1.06553e-09 2.19552e-08)
(-2.06893e-09 1.99635e-09 2.54187e-07)
(2.79818e-10 -2.16265e-10 3.49574e-07)
(9.2585e-10 3.53391e-10 1.59241e-07)
(-4.78568e-11 -8.25284e-11 1.5182e-07)
(2.53982e-10 6.01129e-10 1.65138e-07)
(-1.58934e-08 1.5069e-09 1.32723e-07)
(-2.87526e-09 -2.98883e-11 1.51002e-07)
(-2.45714e-09 -1.03496e-09 4.27628e-08)
(-1.55498e-08 3.26115e-09 2.117e-07)
(-2.34654e-08 5.51143e-09 1.6359e-07)
(7.60306e-10 1.09187e-10 1.37747e-07)
(1.86245e-09 -1.3613e-09 2.41118e-07)
(4.20706e-09 5.1466e-09 3.46218e-07)
(-5.89087e-10 -2.26351e-09 2.7145e-08)
(9.07443e-10 9.81023e-10 2.52382e-07)
(1.97767e-09 1.25432e-09 3.44157e-07)
(-2.30175e-09 2.39504e-09 2.11233e-07)
(-2.07369e-08 2.10193e-09 1.53035e-07)
(2.1265e-09 1.25527e-09 3.27418e-07)
(-4.88216e-10 3.65421e-09 6.06414e-08)
(-1.79861e-09 1.18414e-09 1.7307e-07)
(-1.90777e-09 4.00911e-09 8.84895e-08)
(3.35948e-11 4.39385e-10 2.80915e-07)
(-9.03064e-10 -1.41724e-09 1.65853e-08)
(-2.7907e-10 1.67564e-09 1.5481e-07)
(-1.96245e-10 4.9728e-10 1.88116e-07)
(-2.36263e-09 1.82196e-09 2.80387e-07)
(-1.41824e-09 1.18901e-09 2.04876e-07)
(-1.89675e-09 2.26447e-09 2.16674e-07)
(9.80759e-10 -1.81949e-09 6.41194e-08)
(2.56001e-10 2.13654e-09 2.22054e-07)
(-6.20781e-10 -2.62491e-09 3.47661e-07)
(4.12085e-10 1.67726e-09 6.18875e-08)
(3.09e-09 1.23953e-09 3.56635e-07)
(1.61175e-09 8.43429e-11 2.09222e-07)
(-2.12939e-10 -3.08351e-09 1.75882e-07)
(-1.6449e-09 9.51536e-10 1.77481e-08)
(1.14218e-09 9.23267e-10 2.95755e-07)
(-2.03557e-09 1.78399e-09 3.52201e-07)
(-1.63267e-09 1.15807e-09 1.43442e-07)
(-2.65952e-09 -1.96495e-09 1.92639e-08)
(3.67705e-09 3.34385e-09 1.00884e-07)
(5.95953e-09 -3.25748e-09 1.26776e-07)
(-6.60157e-10 1.7717e-09 4.74123e-08)
(-2.07191e-10 -4.67426e-10 2.7092e-08)
(4.75526e-09 4.19355e-10 1.78585e-07)
(-1.73223e-09 7.73048e-10 2.95757e-07)
(1.25814e-09 1.00373e-10 1.72898e-07)
(-5.91075e-10 -3.04874e-10 2.45037e-07)
(1.23055e-09 2.29097e-09 2.06697e-08)
(-2.69643e-11 -2.6135e-10 2.08922e-07)
(-1.28319e-09 -1.40213e-09 9.61476e-08)
(-1.10622e-09 8.05597e-10 7.72153e-08)
(3.94851e-10 -3.05582e-09 1.21553e-07)
(7.9664e-10 -1.15186e-09 1.51995e-07)
(1.2371e-09 1.53931e-09 9.90037e-08)
(-5.78417e-09 -3.87463e-09 4.58751e-07)
(-1.02835e-09 -3.83753e-10 2.23267e-07)
(-3.00017e-09 5.21965e-10 3.07009e-07)
(7.47178e-10 -7.86462e-09 1.68005e-07)
(1.02368e-09 5.39824e-10 7.38843e-08)
(-1.38987e-10 -3.78813e-09 3.0247e-07)
(1.11096e-09 4.26814e-09 5.00629e-08)
(-1.20546e-09 -2.63832e-09 3.53369e-08)
(1.34622e-09 3.27981e-09 1.19634e-07)
(6.01252e-10 -1.05309e-09 1.78131e-07)
(-5.3209e-10 1.22746e-09 1.08195e-07)
(-3.99705e-09 9.91653e-10 5.35226e-08)
(3.09494e-10 4.90418e-11 2.3864e-08)
(-4.5213e-11 -8.20972e-10 1.9963e-07)
(3.80739e-09 1.54566e-09 2.45707e-07)
(-2.95827e-09 -8.37783e-10 1.56969e-07)
(-2.10584e-09 -7.52401e-09 1.31956e-07)
(-4.98343e-10 -3.86919e-10 1.99843e-07)
(3.67933e-09 -3.11144e-09 1.0893e-07)
(-2.80528e-10 1.46538e-09 3.28069e-07)
(3.97863e-10 7.28118e-10 3.31154e-08)
(1.30439e-09 4.02367e-11 1.10979e-07)
(1.76119e-10 -1.70252e-09 6.58494e-08)
(-7.29966e-09 -7.3225e-10 1.97342e-07)
(6.44981e-10 4.61898e-10 2.5533e-07)
(-1.89562e-09 -2.24291e-09 8.45486e-08)
(2.77789e-10 -3.87195e-12 1.6375e-07)
(1.85054e-09 2.92187e-09 3.42011e-07)
(1.52694e-09 -1.69957e-09 1.91786e-08)
(2.04094e-09 1.89912e-09 2.30416e-07)
(6.93597e-10 -1.41229e-10 2.34708e-07)
(2.17614e-10 6.79133e-10 3.02137e-07)
(-8.2495e-11 4.3627e-11 1.84606e-07)
(1.77022e-10 -5.86246e-10 2.1173e-08)
(3.83648e-09 2.60017e-09 3.22427e-07)
(-5.08633e-10 6.1296e-09 6.80097e-08)
(-4.12389e-09 8.70378e-10 2.72828e-08)
(-1.86332e-09 1.33213e-09 2.32493e-07)
(-2.43237e-10 1.79251e-09 1.09871e-07)
(-8.4409e-10 -2.2636e-09 3.13889e-07)
(-2.01999e-09 -2.62549e-10 2.60835e-07)
(-1.56106e-09 8.31443e-10 2.71257e-07)
(-9.91609e-10 6.37186e-10 1.9903e-07)
(-2.79717e-09 5.30804e-09 9.55532e-08)
(1.09345e-09 5.05449e-10 2.10881e-07)
(-3.24068e-09 -5.38074e-09 1.38718e-07)
(-6.86327e-10 1.70913e-09 2.07082e-07)
(-8.37524e-10 -1.26164e-09 1.63838e-07)
(1.18262e-09 -1.46744e-09 8.95638e-08)
(-2.66845e-09 -1.28986e-09 2.66184e-07)
(6.06424e-10 1.15188e-09 2.78347e-07)
(-1.41809e-09 -1.31344e-09 3.68671e-08)
(-3.87753e-09 8.92231e-10 7.61738e-08)
(-1.17894e-09 1.1658e-09 1.79259e-07)
(-4.04301e-09 8.13627e-09 1.34055e-07)
(8.5171e-10 1.14002e-09 2.20282e-07)
(-7.83671e-10 3.44229e-10 1.60541e-07)
(-1.45412e-09 -1.77002e-09 2.72524e-07)
(-1.4898e-09 -2.42247e-09 3.15685e-08)
(-1.32569e-09 -1.07654e-09 3.6043e-08)
(-1.62057e-09 1.51555e-10 4.64512e-08)
(1.48573e-09 -8.94206e-10 1.24751e-07)
(-2.48464e-09 -7.17891e-10 1.88672e-07)
(-3.05427e-09 -1.69231e-10 3.9536e-07)
(2.70623e-09 -1.79544e-10 9.59144e-08)
(1.56061e-09 1.69797e-10 2.14116e-07)
(2.5349e-09 1.90746e-09 2.23191e-08)
(2.19776e-09 1.28285e-09 1.23716e-07)
(2.99857e-09 1.82852e-09 3.21703e-08)
(7.18991e-10 3.6431e-10 1.41866e-07)
(-1.48624e-10 -1.28994e-09 1.6973e-07)
(-6.68883e-10 -1.37223e-10 1.91639e-07)
(-9.85311e-10 3.84831e-09 2.10932e-07)
(1.5758e-09 7.89798e-10 2.55716e-07)
(-3.53887e-10 -5.413e-11 2.15077e-07)
(4.6599e-09 -1.716e-09 3.55452e-07)
(-7.89192e-10 3.36554e-10 2.11376e-07)
(1.04906e-09 5.81435e-10 1.63761e-07)
(5.06313e-10 5.16024e-10 2.75191e-07)
(-3.83869e-10 2.13376e-09 2.75638e-07)
(-2.81619e-10 8.26871e-10 2.84269e-07)
(-3.71127e-10 -3.8343e-10 1.25744e-07)
(-1.50699e-09 -1.49767e-10 2.71217e-07)
(2.09942e-09 4.22166e-09 9.42223e-08)
(-1.03457e-09 3.7126e-09 1.11011e-07)
(-2.34757e-09 3.88854e-10 2.24615e-07)
(-8.70661e-10 2.24434e-09 2.43682e-07)
(5.01713e-09 2.2627e-09 2.54031e-07)
(-1.71228e-10 2.23158e-09 2.53174e-07)
(1.7604e-09 5.65698e-10 8.09553e-08)
(7.03841e-10 -6.13623e-09 1.20379e-07)
(-3.39809e-11 -1.17434e-09 2.87428e-07)
(4.62482e-09 5.73782e-10 2.33498e-07)
(-1.02486e-09 -8.87497e-10 7.14513e-08)
(-2.36009e-10 2.02446e-09 8.5025e-08)
(-1.79191e-09 3.40308e-09 1.78034e-07)
(-6.85583e-10 -4.77203e-10 1.66168e-07)
(-4.20392e-09 5.59409e-09 3.33889e-07)
(-1.2911e-09 1.69577e-09 1.64063e-07)
(-2.69421e-09 1.68622e-09 3.08692e-07)
(7.26383e-10 6.52948e-09 2.0969e-07)
(-1.29925e-09 -2.55719e-09 2.32732e-08)
(7.57539e-10 2.60521e-09 2.80913e-07)
(2.60002e-09 -1.84138e-09 3.42206e-08)
(2.46022e-09 1.41345e-09 5.99616e-08)
(-1.41011e-09 -1.84321e-09 3.02883e-07)
(3.65245e-11 1.15051e-09 2.50789e-07)
(-4.27482e-09 2.45839e-09 3.2366e-08)
(-6.37991e-10 -2.35608e-09 3.14967e-07)
(-1.63832e-09 -3.83975e-09 2.60775e-07)
(1.13632e-09 8.25466e-10 2.27883e-07)
(5.10361e-10 -6.39096e-10 2.79749e-07)
(2.26605e-09 -2.14035e-09 2.75491e-08)
(-1.98771e-09 4.46803e-10 2.41248e-07)
(-7.24206e-10 -1.2458e-09 1.25372e-07)
(-1.74783e-10 -1.08725e-09 1.41182e-07)
(-1.60963e-09 -1.6432e-09 2.55062e-07)
(-2.23728e-09 7.25522e-10 1.6718e-07)
(-1.48188e-09 -4.36404e-10 1.9044e-07)
(1.30268e-10 -1.26887e-09 2.43827e-07)
(3.65767e-11 2.41732e-09 4.48215e-08)
(2.16214e-09 -3.36542e-09 2.61272e-07)
(1.37136e-09 1.16918e-09 1.93104e-07)
(-1.21034e-09 -2.86142e-09 3.09516e-07)
(6.46219e-11 -2.68844e-09 2.37409e-07)
(2.64721e-09 -1.70201e-09 3.2596e-07)
(2.28946e-09 -4.71484e-09 1.52064e-07)
(-6.61837e-10 -1.53612e-09 2.29386e-08)
(9.03368e-10 5.0697e-10 4.21191e-08)
(-3.51174e-09 4.36421e-09 4.86092e-07)
(-2.93884e-09 1.35319e-09 2.14069e-08)
(-1.93377e-09 -1.89646e-09 1.93003e-07)
(-1.78468e-09 4.00231e-09 8.28334e-08)
(1.89002e-09 -1.09668e-09 2.87677e-07)
(-2.85324e-10 -1.47e-09 3.3541e-07)
(-1.26081e-10 4.36645e-10 3.03383e-07)
(2.78606e-09 8.36894e-11 1.38377e-07)
(6.03588e-09 2.16267e-10 3.1206e-07)
(6.272e-10 8.07219e-09 7.81413e-08)
(1.75289e-09 -2.47084e-09 9.5887e-08)
(1.97073e-10 -1.49985e-09 1.84364e-07)
(1.40584e-09 -2.10869e-09 1.70235e-07)
(-3.20787e-08 -4.01063e-09 2.69358e-07)
(5.63787e-10 -5.241e-09 2.06377e-07)
(-1.14594e-09 -1.48123e-10 7.30378e-08)
(3.15263e-09 -8.15597e-11 1.144e-07)
(3.58225e-11 -2.88662e-09 2.20529e-07)
(-9.7636e-11 4.43922e-11 1.89852e-07)
(-2.27624e-09 -1.42454e-10 3.63447e-07)
(-1.2545e-09 1.35113e-09 1.92348e-07)
(1.97986e-11 4.96146e-09 4.61322e-07)
(-7.47129e-09 -1.84199e-09 1.7146e-07)
(-3.36486e-09 1.76285e-09 3.44144e-07)
(-1.29028e-09 2.77986e-09 2.48766e-07)
(-3.23554e-10 -4.52072e-10 1.84476e-07)
(1.55024e-09 -6.58072e-10 3.12922e-07)
(-4.556e-09 -4.15055e-09 1.17003e-07)
(3.39356e-09 -9.61975e-10 2.71098e-08)
(3.28686e-10 -1.11255e-09 2.84612e-07)
(2.02507e-09 4.1446e-09 6.76901e-08)
(2.43596e-10 -1.7343e-10 3.33829e-08)
(-2.62797e-09 -6.49936e-10 3.64225e-07)
(7.71921e-10 1.10228e-09 1.96697e-07)
(-2.02846e-09 4.92109e-09 1.13385e-07)
(-1.05528e-09 -9.1811e-10 2.2498e-07)
(5.28607e-10 2.61284e-09 3.01749e-07)
(-2.02776e-09 -2.59814e-10 3.62678e-07)
(3.86998e-10 -8.19543e-10 2.38459e-07)
(-2.59267e-10 -1.68783e-09 3.53767e-08)
(3.54882e-10 -8.86921e-10 3.00548e-07)
(-1.24874e-09 2.55277e-10 1.8952e-07)
(2.0496e-10 1.21662e-09 1.10615e-07)
(4.21781e-10 -2.47549e-09 2.52239e-07)
(3.07891e-10 6.9221e-10 2.20782e-07)
(1.05984e-09 6.15286e-10 1.76962e-07)
(1.12594e-09 4.89468e-10 2.05136e-07)
(-2.17662e-10 -1.5861e-09 2.61777e-07)
(1.01917e-09 1.1636e-09 1.9807e-07)
(-1.55766e-10 1.72125e-10 8.52889e-08)
(-4.39261e-10 1.20786e-09 2.29206e-08)
(2.97992e-10 2.58513e-09 4.38255e-08)
(4.4288e-10 1.46069e-09 2.38836e-07)
(-3.75057e-08 1.58635e-10 2.70338e-07)
(-1.12582e-08 1.16916e-09 1.1627e-07)
(5.79791e-10 -5.89267e-10 1.22659e-07)
(2.53844e-09 -2.11662e-09 2.58423e-07)
(-4.92301e-10 7.23033e-10 3.14593e-07)
(-2.36965e-09 1.53522e-09 2.15475e-07)
(1.71338e-09 -4.06639e-10 3.4848e-07)
(-1.40858e-09 2.67725e-10 3.446e-07)
(-1.25408e-09 -7.71467e-10 2.16216e-07)
(-1.34341e-09 -5.48622e-11 1.32669e-07)
(-3.10595e-10 6.76735e-10 2.78047e-08)
(-4.7177e-08 1.96409e-09 2.40985e-07)
(9.36881e-10 3.02053e-09 9.84162e-08)
(-1.54134e-09 3.27901e-09 7.24674e-08)
(1.14589e-09 5.30635e-10 7.70588e-08)
(-3.66342e-10 -5.84369e-10 1.61259e-07)
(-1.5971e-10 4.11901e-10 1.88333e-07)
(-8.15777e-10 -6.70799e-12 2.22948e-07)
(-1.27336e-09 1.3624e-09 1.99849e-08)
(5.61152e-10 -1.06583e-10 1.74297e-07)
(1.76201e-09 -1.28158e-09 7.47058e-08)
(-2.2953e-10 1.19352e-09 1.70812e-07)
(-5.80372e-10 4.82984e-10 6.33619e-08)
(4.48577e-09 1.70814e-09 1.64568e-07)
(1.45667e-09 4.23444e-09 2.3575e-07)
(-1.05179e-09 1.09189e-09 1.76865e-07)
(2.98629e-09 -1.20632e-10 2.23351e-08)
(7.63648e-11 5.51883e-09 1.26406e-07)
(-5.10065e-10 -9.46441e-10 2.40713e-07)
(1.65248e-11 -2.86371e-09 2.92246e-08)
(-1.36024e-08 3.82638e-10 2.89476e-07)
(5.893e-10 -3.6343e-09 1.90429e-07)
(1.41641e-09 -3.97206e-09 3.07659e-07)
(5.16816e-09 -5.06148e-09 2.1514e-07)
(1.62917e-09 -7.49602e-11 1.00618e-07)
(2.76041e-09 -2.024e-09 3.73342e-07)
(-1.7786e-08 -6.00083e-09 1.43518e-07)
(-3.25986e-09 -1.20719e-09 2.83155e-07)
(-1.61231e-08 7.94701e-10 1.56028e-07)
(-5.8447e-09 3.82813e-09 1.59342e-07)
(-1.37107e-09 3.66113e-09 1.58124e-07)
(-7.69614e-10 -1.46597e-09 2.38104e-07)
(2.09824e-09 -4.64696e-09 4.79709e-07)
(9.70606e-10 -8.12588e-10 9.13568e-08)
(-5.47142e-10 -2.1e-09 3.49491e-07)
(-2.54526e-09 1.16596e-09 1.29836e-07)
(2.19428e-09 -1.02104e-09 3.79341e-07)
(1.33081e-09 -1.46695e-09 2.89554e-07)
(-1.82688e-09 -6.21138e-09 7.97475e-08)
(-4.77439e-10 8.87926e-10 2.20814e-07)
(5.17802e-09 -5.28917e-11 3.78465e-07)
(2.60168e-10 -2.29361e-10 2.24908e-07)
(5.38673e-10 -2.51286e-10 2.13365e-07)
(3.13139e-09 -1.83229e-09 2.71023e-08)
(-2.85834e-09 -9.81099e-10 2.28463e-08)
(-2.3346e-09 3.00359e-09 2.99295e-07)
(3.29102e-15 -4.93804e-10 2.50314e-07)
(1.09667e-09 1.30098e-09 1.90385e-07)
(-2.54813e-09 1.3871e-09 4.1859e-08)
(2.73077e-10 -4.32135e-10 7.92788e-08)
(-2.21335e-09 7.84879e-10 3.25042e-07)
(-1.10743e-09 -2.15174e-10 1.44149e-07)
(2.22263e-09 1.09927e-09 2.75287e-07)
(5.83285e-10 3.06577e-10 2.46791e-07)
(-4.66613e-10 -2.06683e-09 1.95278e-07)
(-1.44585e-10 -2.72333e-09 2.09861e-07)
(7.93894e-10 -7.97746e-10 1.35247e-07)
(-2.30137e-09 4.20493e-10 1.84851e-07)
(-3.44306e-09 4.40664e-09 1.00048e-07)
(2.60647e-10 1.01386e-09 2.62574e-07)
(-1.62851e-09 -1.85689e-09 2.02791e-07)
(-1.97311e-09 1.12081e-09 2.0298e-07)
(-4.69163e-10 -3.51651e-10 1.94054e-07)
(2.39225e-10 -8.68225e-10 3.4486e-07)
(1.96101e-09 1.37924e-09 2.6146e-07)
(3.28216e-09 5.17819e-09 7.94588e-08)
(9.1135e-10 -3.65852e-10 5.17009e-08)
(-2.12852e-09 -1.98786e-09 2.33888e-08)
(-7.52446e-09 3.92257e-10 2.20356e-07)
(5.23528e-11 1.60205e-10 2.50867e-07)
(-1.30343e-09 5.96984e-10 2.67924e-07)
(4.88074e-10 -3.12732e-09 1.99741e-07)
(1.08285e-09 2.98914e-10 3.4081e-08)
(1.03694e-09 -3.00991e-09 2.66464e-08)
(-1.23426e-09 -2.5125e-09 1.91603e-07)
(-1.12054e-09 1.37834e-09 2.19531e-07)
(-1.4006e-09 -3.44758e-11 2.7345e-07)
(1.63731e-09 -1.56103e-09 3.1092e-07)
(-1.55532e-09 -9.02379e-10 2.04196e-07)
(-9.34083e-10 1.90511e-09 2.89032e-07)
(2.61474e-09 -1.6115e-09 3.8451e-07)
(-1.84892e-09 3.10908e-09 3.7434e-08)
(-9.27667e-10 4.03509e-10 1.89743e-07)
(3.39712e-09 -2.19384e-09 8.3399e-08)
(-9.73881e-09 -1.03181e-09 9.79813e-08)
(4.89551e-10 1.08671e-10 1.21162e-07)
(7.35068e-10 3.58748e-11 1.5629e-07)
(1.00591e-09 -5.35225e-10 2.48056e-07)
(-3.63125e-09 2.45886e-09 2.3423e-08)
(3.8403e-09 -1.36072e-09 3.13231e-07)
(3.06532e-10 2.04828e-10 2.30943e-07)
(-1.9459e-09 8.04256e-10 1.86091e-07)
(1.23456e-09 -1.45805e-09 2.2039e-07)
(-6.02439e-10 -7.84328e-10 1.62026e-07)
(-1.65673e-09 -8.68555e-10 2.28638e-07)
(1.02627e-09 8.18803e-10 2.51921e-07)
(-1.41571e-09 3.52245e-10 2.57168e-07)
(-5.67041e-09 -1.07888e-09 1.75267e-07)
(3.92091e-11 1.33156e-10 2.4134e-07)
(-3.4254e-09 4.42358e-10 2.84884e-07)
(1.65687e-09 -1.4228e-09 2.16634e-08)
(-2.00949e-10 1.58249e-09 2.65371e-07)
(2.06659e-09 2.18526e-09 1.99241e-07)
(-4.21352e-09 -4.23344e-09 7.37868e-08)
(-1.06408e-09 3.19938e-09 1.90573e-07)
(1.17551e-09 1.48111e-09 3.12745e-07)
(7.36388e-11 -9.82071e-10 2.32977e-07)
(1.36945e-09 3.37342e-09 1.33349e-07)
(-2.37255e-09 1.80727e-09 2.11252e-08)
(-8.58632e-10 1.57584e-09 2.27228e-07)
(5.9891e-10 6.34719e-09 3.48335e-07)
(-4.95492e-10 6.16184e-10 2.20834e-07)
(-6.85092e-10 -7.05999e-10 1.95865e-07)
(-3.93367e-09 8.53274e-10 6.64397e-08)
(1.27484e-09 -8.41675e-10 2.4946e-07)
(-4.15296e-09 2.93633e-10 2.88237e-08)
(-7.01394e-11 6.19649e-11 1.60523e-07)
(-2.43939e-08 1.2711e-09 2.08675e-07)
(1.28288e-10 3.5964e-11 2.30438e-07)
(-7.50639e-10 3.68593e-09 1.02878e-07)
(-1.90979e-09 2.69966e-09 1.95519e-07)
(-4.41493e-10 1.64126e-09 1.25468e-07)
(2.67916e-09 -3.12449e-09 5.55974e-08)
(2.01918e-09 1.77732e-10 3.8862e-07)
(-1.11422e-09 8.23899e-10 1.82703e-07)
(-2.11582e-09 -7.56042e-10 2.14006e-08)
(1.80286e-09 -2.75249e-09 2.56251e-07)
(-9.71861e-10 -2.84338e-09 2.36683e-07)
(-5.37387e-10 2.35574e-09 4.53856e-08)
(2.59573e-09 4.76152e-09 1.45219e-07)
(-3.19952e-09 4.04987e-09 1.12018e-07)
(-8.17559e-10 1.3773e-09 1.80455e-07)
(1.21911e-09 -4.44703e-10 2.21849e-07)
(-1.19291e-09 1.42453e-09 3.69185e-08)
(3.01118e-09 -1.91082e-09 1.04475e-07)
(-8.48942e-10 1.8992e-09 1.15469e-07)
(1.59025e-09 1.15515e-09 1.85091e-07)
(1.61071e-09 -1.2909e-09 2.85125e-07)
(-3.12082e-09 -2.0436e-09 2.72362e-08)
(2.47689e-09 1.99595e-09 3.48048e-07)
(-1.11263e-09 -5.47203e-10 2.29368e-07)
(-1.3498e-09 -1.16982e-09 2.33556e-07)
(-2.96892e-09 -6.10299e-09 1.142e-07)
(1.66482e-09 8.36043e-10 3.07022e-07)
(1.44676e-09 -2.14461e-09 2.65857e-08)
(-1.91945e-09 -4.34515e-11 2.74777e-07)
(2.49457e-10 -6.08663e-10 3.26604e-08)
(1.53839e-09 -4.37711e-09 1.49516e-07)
(1.60162e-10 6.59103e-10 2.16866e-07)
(-2.32461e-09 3.51451e-09 1.56291e-07)
(-2.96298e-09 1.55271e-09 2.315e-08)
(1.31276e-10 -1.8469e-09 6.02209e-08)
(7.98355e-10 4.70097e-09 8.84779e-08)
(1.12539e-09 -4.19102e-09 1.51611e-07)
(-8.66863e-10 9.19034e-10 3.22115e-07)
(1.56632e-10 1.39167e-09 6.48403e-08)
(2.41071e-09 -5.25798e-09 1.54111e-07)
(-2.44863e-08 4.64858e-10 2.24814e-07)
(-1.44855e-09 3.51405e-10 1.87801e-07)
(1.93935e-09 3.22591e-11 3.49553e-08)
(7.34897e-10 2.10798e-09 2.43682e-07)
(-1.45081e-08 -7.67936e-09 1.4868e-07)
(2.09546e-09 1.13545e-10 1.80149e-07)
(-1.79655e-09 1.91725e-09 1.13631e-07)
(-1.37061e-09 6.22069e-10 1.56644e-07)
(2.6348e-09 5.25465e-09 1.22864e-07)
(-7.22105e-10 2.73529e-10 1.64573e-07)
(-1.04782e-09 -7.50269e-10 1.39135e-07)
(4.35093e-09 -6.71452e-09 8.42473e-08)
(8.71371e-10 5.50393e-10 2.60711e-07)
(-4.15581e-09 -1.62985e-09 7.33631e-08)
(2.53486e-09 -1.62183e-09 1.87171e-08)
(-5.65141e-10 -8.81532e-10 3.06014e-07)
(-1.37311e-10 -1.34323e-09 1.61957e-07)
(-1.73342e-09 7.75688e-10 3.01434e-07)
(1.36883e-09 -2.08669e-09 2.35171e-07)
(4.70849e-09 -4.83732e-10 4.02887e-07)
(3.54213e-09 2.15963e-10 1.56588e-07)
(4.62258e-09 -2.12713e-10 3.72733e-07)
(2.43224e-09 5.16444e-09 1.11569e-07)
(-9.03468e-10 -5.46031e-10 1.33286e-07)
(4.15451e-09 4.27047e-10 3.14885e-07)
(-4.34381e-09 -2.56956e-09 3.82158e-08)
(-2.63318e-10 1.57805e-09 2.95406e-07)
(2.56046e-09 -2.88362e-09 1.30334e-07)
(1.71198e-09 2.55108e-09 3.58729e-08)
(-2.31166e-10 4.12158e-10 2.76992e-07)
(-2.33973e-09 1.54411e-10 7.18295e-08)
(-4.79561e-10 8.31764e-10 2.02172e-07)
(9.20756e-10 6.30469e-10 1.88116e-07)
(-2.04906e-09 3.9595e-09 3.79911e-07)
(-3.60238e-10 6.39065e-09 1.06835e-07)
(1.87408e-09 -3.0065e-10 2.55371e-07)
(2.55726e-09 5.6431e-10 1.67209e-07)
(-1.42037e-09 1.08215e-09 2.73606e-07)
(1.04806e-09 5.10214e-10 2.79725e-07)
(1.49687e-09 1.01912e-09 2.47844e-07)
(2.87944e-10 -9.97706e-10 1.44752e-07)
(3.26134e-09 -1.22499e-09 5.5847e-08)
(7.2263e-10 2.82061e-10 7.99714e-08)
(-9.53057e-10 5.09439e-10 1.57154e-07)
(-1.71853e-09 -2.4264e-09 2.68756e-07)
(1.92058e-10 2.13773e-09 3.33402e-08)
(-5.5131e-10 -4.22851e-10 2.28265e-07)
(-3.61059e-10 2.4311e-09 4.2117e-07)
(1.77424e-09 2.92162e-09 3.13711e-07)
(1.98861e-09 3.06901e-09 3.30199e-07)
(-3.49674e-10 2.08162e-09 2.6493e-07)
(-1.88814e-09 2.44173e-09 2.42802e-08)
(3.90604e-10 9.94173e-10 2.0468e-07)
(1.86746e-09 -1.80061e-09 1.5861e-07)
(-8.18572e-10 -1.07291e-09 2.51513e-07)
(-1.17686e-10 -7.76239e-10 1.7314e-07)
(-2.64388e-09 -1.40682e-09 4.18604e-08)
(-1.02101e-09 9.49047e-10 1.79936e-07)
(-2.92142e-09 3.76224e-09 1.64702e-07)
(7.41832e-10 -3.96543e-10 2.52258e-07)
(1.4539e-09 2.24215e-09 2.34949e-07)
(-1.45357e-09 2.15728e-09 1.96864e-07)
(1.44858e-09 1.67365e-09 1.63797e-08)
(-2.42682e-09 9.60832e-10 2.39289e-08)
(-3.7621e-10 -1.68736e-09 1.63038e-07)
(-3.29889e-10 -5.87519e-10 2.74025e-07)
(-3.69636e-10 2.00178e-09 1.98632e-07)
(-1.09617e-09 3.70495e-10 1.71893e-07)
(-6.4647e-10 2.76103e-09 1.73087e-07)
(-4.15073e-10 2.15522e-09 2.48871e-07)
(5.51394e-10 4.48114e-10 2.57036e-07)
(8.4851e-10 1.74682e-09 2.32072e-08)
(-1.62964e-10 -1.44032e-09 1.28578e-07)
(-1.56021e-08 1.61804e-09 1.7394e-07)
(6.98288e-11 2.64203e-09 5.43069e-08)
(-4.39073e-10 5.9281e-09 9.53837e-08)
(3.36077e-10 2.81028e-09 3.09297e-07)
(2.12526e-09 -4.61963e-10 2.13522e-07)
(6.09992e-10 -1.16695e-09 1.97475e-07)
(1.28383e-09 -8.38199e-10 2.48416e-07)
(-4.1851e-09 2.82277e-09 1.51076e-07)
(-2.99424e-11 -2.55349e-10 2.89777e-07)
(2.58393e-09 -5.40428e-09 1.92886e-07)
(3.59268e-09 -1.5778e-09 3.89433e-07)
(1.96248e-10 -1.011e-09 1.96294e-07)
(2.34215e-09 -1.54558e-09 2.08102e-07)
(2.19141e-09 -2.1489e-09 2.79889e-07)
(1.93397e-09 1.3512e-09 5.5891e-08)
(4.61142e-09 -1.01632e-09 5.05823e-07)
(-3.25621e-10 -1.88037e-09 3.96382e-08)
(-1.65415e-08 -2.24527e-09 1.49126e-07)
(3.42323e-09 -3.19114e-09 1.32316e-07)
(-1.49998e-08 -3.15645e-10 1.60914e-07)
(8.14402e-10 -1.48924e-10 2.20136e-07)
(-4.62863e-08 1.43382e-09 2.91532e-07)
(2.39981e-10 -3.05293e-11 1.25006e-07)
(2.73083e-10 1.25817e-10 2.92425e-07)
(-5.94937e-10 3.81679e-10 3.25011e-07)
(1.35096e-09 8.7425e-10 1.91602e-07)
(-4.52891e-10 -3.33556e-11 4.14479e-08)
(-5.43899e-09 1.76283e-10 1.18486e-07)
(-2.98208e-08 2.00572e-09 2.10182e-07)
(-1.33506e-10 -3.65198e-11 1.90752e-07)
(-4.66963e-10 2.31115e-09 1.07332e-07)
(-1.79537e-08 1.36491e-09 2.17678e-07)
(-3.1818e-09 1.62169e-09 2.25606e-07)
(3.10014e-09 3.18934e-09 3.29736e-07)
(-1.71849e-09 -7.47367e-10 5.13443e-08)
(1.56269e-09 2.94261e-09 6.16311e-08)
(-1.56087e-10 -3.23416e-10 3.16194e-08)
(1.39585e-09 1.23285e-09 2.37514e-08)
(-5.23336e-10 7.24569e-11 5.12498e-08)
(-1.1569e-08 1.6581e-09 2.23967e-07)
(-8.66625e-10 2.88307e-10 1.8268e-07)
(-2.10219e-09 -2.2654e-09 2.25297e-08)
(-3.06955e-09 6.42281e-10 2.47359e-08)
(1.00354e-09 1.28273e-09 3.0535e-07)
(-2.51909e-08 5.60038e-09 1.66623e-07)
(-2.44989e-09 -4.61214e-11 5.4711e-08)
(2.53402e-10 -4.14733e-10 2.24719e-07)
(-1.80703e-09 1.70039e-10 1.14386e-07)
(1.66955e-09 -2.38767e-10 2.07142e-07)
(1.51137e-09 2.24187e-09 5.18564e-08)
(-2.28626e-09 -3.11482e-09 1.04907e-07)
(5.40573e-10 1.64359e-09 2.05903e-07)
(-2.78787e-11 2.01923e-10 2.44774e-07)
(1.253e-10 1.50834e-09 3.88012e-07)
(-2.35004e-09 2.90974e-09 5.06381e-08)
(-6.91285e-10 -2.56497e-09 2.85933e-08)
(-3.58174e-08 4.01435e-10 2.01703e-07)
(-3.34237e-09 2.454e-09 3.27615e-08)
(-5.88484e-11 4.42173e-09 3.15458e-07)
(-4.15906e-09 -1.30584e-09 3.44524e-08)
(8.9182e-10 3.5694e-09 1.61152e-07)
(-1.22703e-09 9.50639e-11 2.719e-07)
(2.12836e-09 1.69226e-09 3.9087e-07)
(-4.7502e-10 -1.57896e-09 6.95841e-08)
(1.23168e-09 -7.08706e-10 1.50512e-07)
(-2.3355e-09 -6.37469e-10 4.54152e-08)
(-4.15859e-09 -1.85139e-10 3.37454e-08)
(6.06478e-10 -9.80837e-10 2.31615e-07)
(-2.34259e-09 1.14492e-09 1.77484e-08)
(1.7463e-09 -1.04141e-09 1.64842e-07)
(-6.37593e-10 -3.21869e-09 7.14462e-08)
(-2.11559e-10 9.83726e-10 3.12644e-07)
(6.73117e-11 -1.28785e-10 2.26833e-07)
(3.21517e-09 1.37481e-09 2.25484e-08)
(-1.63507e-09 -6.85069e-09 1.55224e-07)
(6.98078e-10 1.24109e-09 2.40907e-07)
(1.6482e-10 1.41532e-09 3.63868e-08)
(6.37445e-10 -1.63439e-09 2.67382e-07)
(-1.91038e-09 5.76979e-09 9.17808e-08)
(5.90015e-10 1.70082e-10 2.33019e-07)
(5.50905e-10 1.29447e-09 1.99086e-07)
(2.22113e-09 3.66329e-10 6.47883e-08)
(-3.21177e-09 -7.03061e-10 2.48256e-08)
(-2.24011e-09 -2.79488e-10 1.08549e-07)
(-3.91371e-08 1.1215e-10 2.43607e-07)
(-1.38739e-09 1.08641e-10 2.46209e-07)
(3.90319e-10 5.45897e-09 8.83079e-08)
(3.92366e-09 -3.18488e-10 2.04287e-07)
(4.76892e-10 1.31572e-09 2.90941e-08)
(6.90056e-10 1.0588e-09 1.7591e-07)
(1.26187e-09 1.34407e-09 2.68302e-08)
(-7.68606e-10 3.20873e-09 3.10012e-07)
(1.54921e-09 1.54423e-09 3.02726e-07)
(6.9035e-10 6.50307e-10 2.01642e-07)
(-1.69687e-09 -2.46772e-10 1.69073e-08)
(2.60382e-09 2.23751e-09 3.36908e-07)
(-2.2325e-10 1.08316e-09 1.74144e-07)
(4.16371e-10 2.00001e-09 3.42861e-07)
(-9.79908e-11 1.42186e-10 7.21867e-08)
(-3.01405e-08 9.50893e-10 2.22442e-07)
(-1.88948e-09 1.9063e-09 2.51166e-07)
(1.26183e-09 8.13504e-10 7.81213e-08)
(-1.22037e-10 1.83828e-10 2.18264e-07)
(-3.93915e-08 4.48572e-09 2.10007e-07)
(-5.61688e-10 -5.13244e-10 1.89736e-07)
(-6.19231e-10 -1.80096e-09 3.79736e-08)
(-2.24427e-09 4.83257e-09 1.19471e-07)
(1.94474e-10 1.96661e-10 1.6726e-07)
(1.28942e-10 -2.22588e-09 2.22671e-07)
(-9.48261e-10 8.95951e-10 3.79748e-08)
(-3.96569e-10 -3.04724e-09 2.31609e-07)
(5.15639e-09 4.2894e-09 1.78561e-07)
(-2.04886e-09 2.07358e-09 2.9741e-08)
(-1.20459e-11 -1.74792e-10 1.80047e-07)
(-1.55916e-08 7.34743e-10 1.58294e-07)
(-2.44675e-09 -5.81553e-09 3.39412e-07)
(1.45916e-10 6.952e-11 1.81306e-07)
(6.5085e-10 1.13002e-10 1.62463e-07)
(1.51649e-09 1.89817e-11 2.81813e-07)
(1.44792e-09 1.2335e-09 2.61519e-07)
(2.00461e-09 4.14975e-10 8.27675e-08)
(-1.30503e-09 4.8363e-09 8.24401e-08)
(3.39047e-09 7.96031e-11 3.36043e-07)
(-2.68666e-08 -1.02406e-09 2.24702e-07)
(7.08133e-10 2.80628e-09 2.19266e-07)
(1.31362e-09 -7.59395e-10 1.96876e-07)
(2.81324e-09 -6.62296e-10 1.4059e-07)
(2.53726e-10 4.21577e-10 3.15438e-07)
(-4.83526e-10 4.37053e-10 1.89061e-07)
(-1.88856e-09 -1.8306e-09 1.95391e-07)
(-2.20724e-09 3.47921e-09 2.4592e-07)
(-1.02312e-09 2.7902e-09 5.01302e-08)
(-1.64683e-09 -1.01062e-09 1.90411e-07)
(-3.10377e-09 -2.05181e-09 4.57631e-08)
(-5.36386e-10 -2.08222e-09 3.02365e-07)
(-8.50704e-10 -1.38523e-09 2.90732e-07)
(-2.0932e-10 5.34408e-09 1.84293e-07)
(8.53479e-10 -1.79148e-09 1.73977e-07)
(1.24096e-09 -1.86289e-09 2.09506e-08)
(1.27456e-10 -8.15004e-10 1.15922e-07)
(-4.26913e-09 -2.07201e-09 8.70733e-08)
(-1.22229e-09 7.08143e-10 2.34149e-07)
(1.20467e-09 6.35309e-10 2.09481e-07)
(-2.38644e-08 -1.41795e-09 2.20506e-07)
(-1.94772e-09 1.0603e-09 2.88567e-07)
(-1.59888e-09 2.7837e-09 9.07483e-08)
(-1.11995e-08 4.98262e-10 1.36578e-07)
(-1.13335e-09 -3.73862e-09 2.49639e-07)
(2.20311e-09 8.7112e-10 3.25963e-08)
(8.17566e-10 8.36414e-10 2.14984e-07)
(-2.4357e-10 1.67275e-09 6.10181e-08)
(-1.66074e-09 -5.32216e-10 2.03994e-07)
(4.66341e-09 -2.60911e-09 3.81061e-08)
(3.38209e-09 1.19377e-09 3.22034e-07)
(-1.03274e-08 -5.1046e-10 2.03949e-07)