/*--------------------------------*- C++ -*----------------------------------*\
| =========                 |                                                 |
| \\      /  F ield         | OpenFOAM: The Open Source CFD Toolbox           |
|  \\    /   O peration     | Version:  2406                                  |
|   \\  /    A nd           | Website:  www.openfoam.com                      |
|    \\/     M anipulation  |                                                 |
\*---------------------------------------------------------------------------*/
FoamFile
{
    version     2.0;
    format      ascii;
    arch        "LSB;label=32;scalar=64";
    class       volVectorField;
    location    "26";
    object      momentum:momentum;
}
// * * * * * * * * * * * * * * * * * * * * * * * * * * * * * * * * * * * * * //

dimensions      [1 1 -1 0 0 0 0];

internalField   nonuniform List<vector> 
59516
(
(2.43503e-07 8.41614e-10 -1.04559e-09)
(1.79814e-07 -5.1291e-10 -1.08532e-09)
(2.16187e-07 -2.44622e-09 -2.61715e-10)
(1.75689e-07 2.96697e-09 2.12978e-09)
(2.00444e-07 6.65755e-10 -7.52307e-09)
(5.03726e-08 -2.40693e-09 -5.37881e-09)
(2.19494e-07 5.72721e-10 -2.59753e-09)
(2.14409e-07 2.712e-09 5.23745e-10)
(1.65724e-07 1.0671e-09 7.9704e-10)
(9.13342e-08 -1.04928e-09 3.27552e-09)
(1.98243e-07 8.50736e-10 -1.19425e-09)
(1.12209e-07 1.72516e-09 -5.50598e-09)
(3.44609e-07 2.14647e-09 -5.16108e-10)
(1.87684e-08 -9.05056e-11 -2.34439e-10)
(1.76478e-07 3.81503e-09 7.76192e-09)
(9.55112e-08 5.9112e-09 -3.00906e-09)
(2.45052e-07 9.56337e-10 -1.7374e-10)
(1.64198e-07 8.4658e-09 -8.51349e-09)
(3.40057e-07 9.80526e-09 3.5718e-09)
(3.4503e-07 -1.38159e-09 5.92446e-10)
(1.07872e-07 3.31787e-10 -1.27765e-09)
(3.15257e-07 7.54709e-10 1.2893e-09)
(3.42217e-07 1.69339e-09 -1.6582e-10)
(4.08896e-08 -1.2842e-09 -2.93067e-10)
(2.97875e-07 -1.78755e-09 2.84502e-09)
(2.2547e-07 4.61881e-09 1.94825e-09)
(6.06004e-08 1.29249e-09 -3.75263e-09)
(7.8404e-08 5.44379e-09 8.39683e-10)
(1.56262e-07 3.21104e-09 7.20435e-10)
(1.64312e-08 -2.47865e-09 7.56398e-10)
(1.89606e-07 -3.64131e-08 -7.96714e-09)
(8.85293e-08 5.60606e-09 -1.19814e-09)
(1.76479e-07 -4.87733e-10 1.61705e-09)
(1.8298e-07 -1.5119e-10 3.21564e-09)
(1.31648e-07 1.49838e-09 1.68107e-09)
(3.98465e-07 -1.6262e-09 -2.00999e-10)
(1.54096e-08 -1.50512e-09 -2.02811e-09)
(1.34606e-07 5.22842e-09 -1.18959e-08)
(2.8441e-07 -6.06879e-09 2.99583e-10)
(2.65039e-07 -3.70969e-09 1.32409e-09)
(2.77943e-07 -2.42442e-09 -2.02333e-10)
(4.03548e-07 -1.52016e-08 -1.5053e-08)
(3.39076e-07 -5.16697e-10 -6.53729e-11)
(1.19029e-07 -8.94645e-10 2.59906e-11)
(2.67517e-07 -1.52396e-09 8.08533e-10)
(1.15003e-07 -1.21966e-09 -2.47315e-09)
(3.30469e-07 -1.10473e-09 -3.75387e-09)
(2.38728e-07 -6.60958e-10 6.97852e-13)
(2.51673e-07 -1.98697e-08 2.77883e-08)
(2.31526e-07 4.80668e-09 4.71026e-09)
(1.63857e-07 1.65112e-08 -2.28462e-08)
(8.78866e-08 -6.45607e-09 4.01764e-09)
(3.33125e-07 2.68244e-09 -3.56624e-09)
(3.15016e-07 -2.50507e-12 -8.67451e-10)
(9.05261e-08 4.0175e-09 -1.22673e-10)
(2.50862e-07 -4.57291e-10 -4.32472e-10)
(1.97841e-07 8.55536e-09 9.39219e-09)
(9.19549e-08 7.10847e-09 -4.3271e-09)
(1.84351e-07 -1.58578e-09 4.34764e-10)
(1.44707e-07 4.38548e-09 5.58629e-09)
(2.02427e-07 3.02443e-10 5.05871e-10)
(1.84815e-08 2.11121e-09 -7.80211e-10)
(2.37279e-07 -9.70413e-10 -1.31066e-09)
(3.09913e-07 5.8794e-10 -1.34052e-09)
(3.12263e-07 5.48084e-10 -1.30492e-09)
(2.07682e-07 2.1235e-09 2.13601e-09)
(2.20411e-08 -1.52181e-09 1.9353e-09)
(7.76191e-08 -8.32009e-11 -1.25502e-10)
(1.97813e-07 -7.8246e-09 3.56145e-08)
(1.71163e-07 1.47051e-09 8.44191e-10)
(6.24391e-08 1.68874e-09 5.36584e-10)
(1.45148e-07 2.28708e-10 -3.56882e-10)
(2.71151e-08 1.64515e-09 -4.06272e-09)
(1.84167e-07 -9.95982e-10 -4.55942e-10)
(3.25054e-07 -2.15144e-09 9.28471e-10)
(3.45797e-07 1.31122e-09 5.804e-10)
(2.00614e-07 7.72532e-10 -1.50673e-10)
(2.18392e-07 3.08923e-10 -9.7484e-10)
(9.91836e-08 -3.27239e-09 2.37727e-09)
(1.84107e-07 2.46007e-09 4.27117e-09)
(5.90349e-08 3.41302e-09 1.27135e-09)
(1.65455e-07 2.33689e-09 2.65131e-09)
(1.80143e-07 1.43022e-09 2.88698e-09)
(2.17879e-08 -8.86877e-10 2.77873e-09)
(2.08239e-07 2.51548e-09 3.47045e-09)
(3.3492e-07 -1.36793e-09 -5.73397e-11)
(3.66974e-08 -1.13198e-09 6.57416e-10)
(4.95066e-07 1.97636e-10 1.52621e-09)
(1.24403e-07 7.46455e-10 5.91185e-09)
(1.69595e-07 1.18484e-08 -7.55789e-09)
(1.82176e-07 -5.63836e-10 -1.35407e-08)
(1.83821e-07 1.99978e-09 2.51136e-10)
(2.30471e-07 -3.96504e-10 6.14959e-10)
(1.79156e-07 7.90032e-10 -1.30767e-10)
(1.65514e-07 -5.03741e-10 3.61834e-10)
(1.83499e-07 -1.72051e-08 6.8732e-09)
(1.2341e-07 -9.37137e-10 1.10557e-09)
(9.7628e-08 -2.36957e-09 -6.84943e-09)
(1.22492e-07 3.0642e-09 -6.92969e-10)
(2.02038e-07 -6.59968e-10 1.69703e-09)
(7.12621e-08 1.23074e-09 2.39566e-09)
(3.15432e-08 1.27258e-09 -3.56658e-09)
(2.82457e-08 9.69963e-10 3.77813e-09)
(9.81632e-08 -1.12882e-09 -5.05087e-09)
(2.34974e-07 1.37262e-09 -3.97567e-10)
(1.54377e-07 5.01768e-10 7.53155e-10)
(6.55931e-08 5.1442e-09 -2.49267e-09)
(1.48306e-07 1.94724e-10 -7.8841e-10)
(1.89191e-07 -1.19942e-09 2.05657e-10)
(2.16615e-07 1.19779e-09 -8.04408e-09)
(2.80026e-07 2.75245e-08 -2.85092e-08)
(5.09823e-08 4.95886e-09 -5.2292e-10)
(2.13274e-07 2.02898e-09 -1.19733e-08)
(2.19796e-07 3.07116e-08 -1.55766e-08)
(2.08018e-07 -5.18157e-10 4.03704e-10)
(1.50209e-07 1.60652e-09 1.61341e-09)
(1.42366e-07 8.67495e-10 -5.14447e-09)
(1.45788e-07 7.11987e-10 8.64552e-10)
(2.19552e-08 -2.7585e-10 1.13102e-09)
(2.54187e-07 2.7225e-09 9.24065e-10)
(3.49574e-07 1.34673e-11 3.53394e-10)
(1.59241e-07 9.72109e-10 1.92579e-10)
(1.5182e-07 7.39107e-11 -6.03193e-11)
(1.65138e-07 4.03478e-10 5.12902e-10)
(1.32723e-07 -1.56987e-08 2.90197e-09)
(1.51002e-07 1.24425e-09 -2.59227e-09)
(4.27628e-08 -6.16481e-10 2.59396e-09)
(2.117e-07 -1.58822e-08 -4.29553e-10)
(1.6359e-07 -4.96226e-09 2.35877e-08)
(1.37747e-07 6.16679e-10 4.57924e-10)
(2.41118e-07 9.21277e-10 2.11497e-09)
(3.46218e-07 4.35094e-09 5.02555e-09)
(2.7145e-08 1.52822e-09 -1.77061e-09)
(2.52382e-07 1.02491e-10 1.33242e-09)
(3.44157e-07 2.04272e-09 1.14534e-09)
(2.11233e-07 -1.94929e-09 -2.68971e-09)
(1.53035e-07 1.69438e-08 -1.21386e-08)
(3.27418e-07 -2.38526e-10 2.45781e-09)
(6.06414e-08 3.68368e-09 1.48546e-10)
(1.7307e-07 1.01315e-09 -1.90019e-09)
(8.84895e-08 -1.58676e-09 -4.14666e-09)
(2.80915e-07 4.32535e-10 8.42697e-11)
(1.65853e-08 8.35561e-10 1.45806e-09)
(1.5481e-07 -1.66496e-09 -3.37005e-10)
(1.88116e-07 5.34602e-10 -1.97601e-13)
(2.80387e-07 2.96375e-09 -3.43151e-10)
(2.04876e-07 -1.84089e-09 1.90453e-10)
(2.16674e-07 9.92518e-11 -2.95222e-09)
(6.41194e-08 -1.04057e-09 1.78596e-09)
(2.22054e-07 -1.80497e-09 -1.1715e-09)
(3.47661e-07 -8.94769e-10 -2.54458e-09)
(6.18875e-08 -1.71229e-09 2.25949e-10)
(3.56635e-07 -9.27248e-10 3.19762e-09)
(2.09222e-07 -5.69997e-10 1.50995e-09)
(1.75882e-07 -1.20893e-09 2.84462e-09)
(1.77481e-08 -3.66568e-10 1.8646e-09)
(2.95755e-07 1.32263e-09 6.38476e-10)
(3.52201e-07 2.59348e-09 -7.74612e-10)
(1.43442e-07 2.00161e-09 -1.74934e-11)
(1.92639e-08 2.28051e-09 -2.39444e-09)
(1.00884e-07 2.14811e-09 -4.48192e-09)
(1.26776e-07 -5.67888e-09 -3.72524e-09)
(4.74123e-08 -1.8001e-09 5.78227e-10)
(2.7092e-08 -1.85091e-10 -4.76609e-10)
(1.78585e-07 2.67917e-09 3.951e-09)
(2.95757e-07 3.01262e-10 1.87282e-09)
(1.72898e-07 -1.19236e-09 4.13861e-10)
(2.45037e-07 6.63784e-10 4.13335e-11)
(2.06697e-08 -1.1801e-09 2.31736e-09)
(2.08922e-07 -2.62733e-10 -1.46784e-12)
(9.61476e-08 1.25684e-09 1.4258e-09)
(7.72153e-08 9.69593e-10 -9.65716e-10)
(1.21553e-07 2.48967e-09 1.81534e-09)
(1.51995e-07 -9.94136e-10 9.86468e-10)
(9.90037e-08 -1.83251e-09 7.36087e-10)
(4.58751e-07 1.40084e-09 -6.81961e-09)
(2.23267e-07 4.57313e-10 -9.97819e-10)
(3.07009e-07 -2.71504e-09 -1.37914e-09)
(1.68005e-07 -1.7717e-09 7.69881e-09)
(7.38843e-08 -3.94927e-10 -1.08782e-09)
(3.0247e-07 2.53676e-09 2.81675e-09)
(5.00629e-08 -3.96477e-09 -1.93181e-09)
(3.53369e-08 -3.52922e-10 -2.87911e-09)
(1.19634e-07 -3.51184e-09 4.86262e-10)
(1.78131e-07 -1.91363e-10 1.19745e-09)
(1.08195e-07 6.62008e-10 1.16255e-09)
(5.35226e-08 -1.03757e-09 -3.98538e-09)
(2.3864e-08 2.57916e-10 1.77963e-10)
(1.9963e-07 2.32872e-11 8.21886e-10)
(2.45707e-07 -4.10719e-09 1.27497e-10)
(1.56969e-07 -1.1797e-09 2.83929e-09)
(1.31956e-07 7.80935e-09 2.43427e-10)
(1.99843e-07 -6.06876e-10 -1.72491e-10)
(1.0893e-07 4.81731e-09 1.09447e-10)
(3.28069e-07 -1.48216e-09 1.70972e-10)
(3.31154e-08 -2.68044e-10 7.85241e-10)
(1.10979e-07 1.21084e-09 -4.8674e-10)
(6.58494e-08 -1.55963e-09 7.05097e-10)
(1.97342e-07 4.1621e-09 6.04137e-09)
(2.5533e-07 4.7446e-10 6.35797e-10)
(8.45486e-08 -2.89159e-09 5.12604e-10)
(1.6375e-07 1.10141e-10 -2.5505e-10)
(3.42011e-07 -1.12333e-09 3.27108e-09)
(1.91786e-08 1.92242e-09 -1.23466e-09)
(2.30416e-07 -2.62046e-09 -9.51462e-10)
(2.34708e-07 -6.58464e-10 2.59708e-10)
(3.02137e-07 -7.13139e-10 3.17925e-12)
(1.84606e-07 8.00588e-11 4.79513e-11)
(2.1173e-08 -5.8524e-10 1.8032e-10)
(3.22427e-07 -4.59694e-09 -5.89625e-10)
(6.80097e-08 4.70863e-09 3.9572e-09)
(2.72828e-08 -4.16228e-09 -6.62933e-10)
(2.32493e-07 8.4542e-10 -2.1288e-09)
(1.09871e-07 -1.4233e-09 1.11646e-09)
(3.13889e-07 2.28599e-09 7.81439e-10)
(2.60835e-07 -1.35199e-09 1.52362e-09)
(2.71257e-07 1.74518e-09 2.87329e-10)
(1.9903e-07 -1.14521e-09 2.78909e-10)
(9.55532e-08 3.5613e-09 -4.82872e-09)
(2.10881e-07 -8.08289e-10 8.93187e-10)
(1.38718e-07 5.37667e-09 3.24743e-09)
(2.07082e-07 1.81678e-09 -3.0245e-10)
(1.63838e-07 7.38978e-10 1.32178e-09)
(8.95638e-08 -5.85607e-10 1.79138e-09)
(2.66184e-07 -2.77656e-09 1.03684e-09)
(2.78347e-07 4.3522e-10 -1.22685e-09)
(3.68671e-08 -2.91097e-10 1.91086e-09)
(7.61738e-08 2.23367e-09 -3.29272e-09)
(1.79259e-07 -5.82706e-10 1.55224e-09)
(1.34055e-07 -1.56692e-10 -9.08407e-09)
(2.20282e-07 -1.24525e-09 6.88777e-10)
(1.60541e-07 6.55445e-10 -5.50477e-10)
(2.72524e-07 6.87728e-10 2.18505e-09)
(3.15685e-08 -2.34399e-09 -1.61047e-09)
(3.6043e-08 7.67674e-10 -1.52547e-09)
(4.64512e-08 8.37737e-10 -1.3955e-09)
(1.24751e-07 5.10718e-10 1.65715e-09)
(1.88672e-07 -2.38105e-09 1.00966e-09)
(3.9536e-07 1.13485e-09 2.84066e-09)
(9.59144e-08 -1.89318e-09 1.94211e-09)
(2.14116e-07 1.33341e-10 1.56415e-09)
(2.23191e-08 2.91586e-10 3.15898e-09)
(1.23716e-07 3.92256e-10 2.51435e-09)
(3.21703e-08 2.07467e-10 3.50597e-09)
(1.41866e-07 6.65392e-10 4.54889e-10)
(1.6973e-07 -6.69515e-10 -1.11256e-09)
(1.91639e-07 -1.34419e-10 6.69452e-10)
(2.10932e-07 1.4095e-09 -3.71398e-09)
(2.55716e-07 -3.60684e-10 1.72535e-09)
(2.15077e-07 2.87979e-10 2.12683e-10)
(3.55452e-07 -4.48955e-09 2.12209e-09)
(2.11376e-07 2.10495e-10 8.31736e-10)
(1.63761e-07 3.27242e-10 1.15391e-09)
(2.75191e-07 1.47037e-10 -7.07823e-10)
(2.75638e-07 2.05148e-09 7.01203e-10)
(2.84269e-07 4.7361e-10 7.33974e-10)
(1.25744e-07 4.99697e-10 -1.87237e-10)
(2.71217e-07 3.03768e-10 1.48364e-09)
(9.42223e-08 -3.65397e-10 -4.70069e-09)
(1.11011e-07 3.52052e-10 3.83794e-09)
(2.24615e-07 2.03312e-09 -1.23641e-09)
(2.43682e-07 -1.35941e-09 1.98674e-09)
(2.54031e-07 4.29971e-09 3.43568e-09)
(2.53174e-07 -1.16034e-09 1.91387e-09)
(8.09553e-08 -4.31709e-10 1.79796e-09)
(1.20379e-07 5.49592e-09 -2.81843e-09)
(2.87428e-07 4.0731e-10 -1.10196e-09)
(2.33498e-07 4.43292e-09 1.43786e-09)
(7.14513e-08 -1.22089e-09 -5.8942e-10)
(8.5025e-08 -8.59943e-11 -2.03635e-09)
(1.78034e-07 -1.8127e-10 -3.84175e-09)
(1.66168e-07 -7.73899e-10 -3.14368e-10)
(3.33889e-07 -6.98955e-09 3.36143e-10)
(1.64063e-07 -1.9871e-09 7.70709e-10)
(3.08692e-07 -2.90829e-09 1.28218e-09)
(2.0969e-07 -9.71068e-10 6.4976e-09)
(2.32732e-08 2.44829e-09 -1.49437e-09)
(2.80913e-07 -1.14942e-09 2.4576e-09)
(3.42206e-08 2.01318e-09 -2.46938e-09)
(5.99616e-08 -2.42883e-09 1.46672e-09)
(3.02883e-07 -2.79345e-10 2.30386e-09)
(2.50789e-07 -1.14619e-09 1.06079e-10)
(3.2366e-08 3.62724e-09 3.34079e-09)
(3.14967e-07 2.29293e-09 8.37033e-10)
(2.60775e-07 4.13424e-09 5.79503e-10)
(2.27883e-07 1.3846e-09 -2.35591e-10)
(2.79749e-07 -7.88642e-10 2.16695e-10)
(2.75491e-08 3.03954e-09 6.90822e-10)
(2.41248e-07 -1.1474e-09 1.68348e-09)
(1.25372e-07 -1.43903e-09 7.55249e-11)
(1.41182e-07 -2.75755e-10 1.06612e-09)
(2.55062e-07 -8.98932e-10 2.1173e-09)
(1.6718e-07 1.50036e-09 1.81127e-09)
(1.9044e-07 8.77858e-10 -1.27113e-09)
(2.43827e-07 1.25215e-09 2.43137e-10)
(4.48215e-08 -1.51505e-09 -1.88399e-09)
(2.61272e-07 -3.89405e-09 9.15007e-10)
(1.93104e-07 -1.54672e-09 -9.24804e-10)
(3.09516e-07 -2.77962e-09 1.38795e-09)
(2.37409e-07 -2.6217e-09 5.98794e-10)
(3.2596e-07 -2.74114e-09 1.5462e-09)
(1.52064e-07 3.96089e-09 3.4326e-09)
(2.29386e-08 -4.14251e-10 1.62053e-09)
(4.21191e-08 -8.31267e-10 6.18132e-10)
(4.86092e-07 -5.5994e-09 -1.59402e-10)
(2.14069e-08 -1.07237e-09 3.05253e-09)
(1.93003e-07 -7.76575e-10 -2.5948e-09)
(8.28334e-08 3.89386e-09 2.01033e-09)
(2.87677e-07 -1.85557e-09 1.154e-09)
(3.3541e-07 5.20454e-10 -1.40408e-09)
(3.03383e-07 -1.80263e-10 -4.17206e-10)
(1.38377e-07 -1.40113e-09 -2.40956e-09)
(3.1206e-07 3.48682e-09 -4.9316e-09)
(7.81413e-08 -5.95427e-09 5.48638e-09)
(9.5887e-08 1.18541e-09 2.78792e-09)
(1.84364e-07 -1.48532e-09 2.86715e-10)
(1.70235e-07 2.28422e-09 -1.09787e-09)
(2.69358e-07 3.10584e-08 8.97255e-09)
(2.06377e-07 -4.73115e-09 2.32427e-09)
(7.30378e-08 -4.67029e-10 -1.05688e-09)
(1.144e-07 -1.45176e-09 2.79967e-09)
(2.20529e-07 -4.01696e-10 -2.85876e-09)
(1.89852e-07 -7.33706e-11 -7.82318e-11)
(3.63447e-07 2.01867e-09 1.0614e-09)
(1.92348e-07 1.27869e-10 1.83929e-09)
(4.61322e-07 -4.89024e-09 8.37897e-10)
(1.7146e-07 4.02616e-09 6.55767e-09)
(3.44144e-07 3.68999e-09 9.02184e-10)
(2.48766e-07 3.06467e-09 -1.62445e-11)
(1.84476e-07 4.80302e-10 2.79941e-10)
(3.12922e-07 -3.32161e-10 1.65105e-09)
(1.17003e-07 2.33974e-09 -5.70173e-09)
(2.71098e-08 -1.34335e-09 -3.26145e-09)
(2.84612e-07 -1.49802e-11 1.15999e-09)
(6.76901e-08 -2.88476e-09 3.59955e-09)
(3.33829e-08 1.43505e-10 2.62342e-10)
(3.64225e-07 2.4229e-10 2.69628e-09)
(1.96697e-07 -1.1935e-09 6.21632e-10)
(1.13385e-07 -3.36405e-09 -4.12491e-09)
(2.2498e-07 -1.01029e-09 9.67392e-10)
(3.01749e-07 -2.62038e-09 4.89871e-10)
(3.62678e-07 -1.29424e-09 -1.58249e-09)
(2.38459e-07 6.43228e-10 -6.38494e-10)
(3.53767e-08 1.70497e-09 -9.52575e-11)
(3.00548e-07 6.21555e-10 -7.25424e-10)
(1.8952e-07 -1.00776e-09 7.80345e-10)
(1.10615e-07 -7.29826e-11 1.2316e-09)
(2.52239e-07 -8.24496e-10 2.37195e-09)
(2.20782e-07 4.05042e-10 6.40229e-10)
(1.76962e-07 -1.44151e-10 -1.21698e-09)
(2.05136e-07 -3.6788e-10 -1.17132e-09)
(2.61777e-07 -9.90108e-10 1.25808e-09)
(1.9807e-07 -1.38256e-09 6.9368e-10)
(8.52889e-08 -2.31953e-10 -9.36343e-12)
(2.29206e-08 9.89174e-10 -8.20612e-10)
(4.38255e-08 -2.59195e-09 -2.31278e-10)
(2.38836e-07 4.93437e-10 1.4444e-09)
(2.70338e-07 -1.98923e-08 3.17962e-08)
(1.1627e-07 -6.43289e-09 -9.31301e-09)
(1.22659e-07 5.86323e-10 5.82768e-10)
(2.58423e-07 9.71169e-11 3.30369e-09)
(3.14593e-07 3.59224e-10 7.97555e-10)
(2.15475e-07 4.5267e-10 2.78697e-09)
(3.4848e-07 1.18764e-09 1.3002e-09)
(3.446e-07 -1.08097e-09 9.41956e-10)
(2.16216e-07 1.23259e-09 8.05366e-10)
(1.32669e-07 1.27937e-09 4.13482e-10)
(2.78047e-08 -7.05858e-10 -2.37075e-10)
(2.40985e-07 -4.68327e-08 6.01851e-09)
(9.84162e-08 3.0092e-09 9.72664e-10)
(7.24674e-08 -3.5936e-09 -4.62303e-10)
(7.70588e-08 1.15504e-09 5.10416e-10)
(1.61259e-07 6.38006e-10 2.61996e-10)
(1.88333e-07 -3.57671e-10 2.59309e-10)
(2.22948e-07 5.97679e-10 -5.55263e-10)
(1.99849e-08 1.08831e-09 -1.51432e-09)
(1.74297e-07 -5.68722e-10 5.29702e-11)
(7.47058e-08 1.56228e-09 -1.51869e-09)
(1.70812e-07 -1.2135e-09 6.77114e-11)
(6.33619e-08 -5.06794e-10 -5.59702e-10)
(1.64568e-07 -3.58347e-09 3.19353e-09)
(2.3575e-07 -4.20717e-09 1.53368e-09)
(1.76865e-07 3.39479e-10 1.47758e-09)
(2.23351e-08 1.87526e-09 -2.3272e-09)
(1.26406e-07 -1.05281e-09 5.41802e-09)
(2.40713e-07 2.65347e-10 1.04188e-09)
(2.92246e-08 -1.81683e-09 -2.21365e-09)
(2.89476e-07 2.63491e-09 1.33502e-08)
(1.90429e-07 -9.57168e-10 3.55517e-09)
(3.07659e-07 1.12562e-09 -4.06404e-09)
(2.1514e-07 4.74575e-09 -5.45951e-09)
(1.00618e-07 -2.62941e-10 1.60956e-09)
(3.73342e-07 3.34278e-09 -7.36364e-10)
(1.43518e-07 -1.36621e-08 -1.28724e-08)
(2.83155e-07 3.30874e-09 1.06596e-09)
(1.56028e-07 1.09533e-08 1.18579e-08)
(1.59342e-07 -6.96322e-09 5.73254e-10)
(1.58124e-07 -6.91732e-10 -3.84775e-09)
(2.38104e-07 1.6332e-09 2.72058e-10)
(4.79709e-07 4.94281e-09 1.25118e-09)
(9.13568e-08 -8.31328e-10 9.54604e-10)
(3.49491e-07 1.75396e-09 -1.27788e-09)
(1.29836e-07 -8.80907e-10 -2.6574e-09)
(3.79341e-07 -1.91903e-09 1.47469e-09)
(2.89554e-07 -1.02099e-09 1.69722e-09)
(7.97475e-08 2.37083e-09 -6.02477e-09)
(2.20814e-07 -1.00779e-09 2.68504e-11)
(3.78465e-07 -4.09637e-09 3.16771e-09)
(2.24908e-07 1.01528e-10 3.31642e-10)
(2.13365e-07 7.32141e-11 5.89876e-10)
(2.71023e-08 -1.10094e-09 -3.457e-09)
(2.28463e-08 1.32144e-09 -2.7178e-09)
(2.99295e-07 1.67085e-09 -3.41762e-09)
(2.50314e-07 3.04029e-10 -3.89112e-10)
(1.90385e-07 -1.38444e-09 -9.89214e-10)
(4.1859e-08 3.912e-10 -2.87471e-09)
(7.92788e-08 -4.21251e-10 2.89584e-10)
(3.25042e-07 -2.31622e-09 -3.87411e-10)
(1.44149e-07 6.56515e-10 9.17431e-10)
(2.75287e-07 2.47409e-09 1.65353e-10)
(2.46791e-07 6.29295e-10 -1.95443e-10)
(1.95278e-07 1.84475e-09 1.04231e-09)
(2.09861e-07 2.44336e-09 1.21137e-09)
(1.35247e-07 7.79011e-10 8.12285e-10)
(1.84851e-07 2.31422e-09 3.42753e-10)
(1.00048e-07 -2.17514e-09 -5.15188e-09)
(2.62574e-07 -9.05377e-10 -5.25497e-10)
(2.02791e-07 -1.80798e-10 -2.4632e-09)
(2.0298e-07 2.19697e-09 5.68057e-10)
(1.94054e-07 5.03677e-10 -3.00136e-10)
(3.4486e-07 8.13969e-10 -3.85352e-10)
(2.6146e-07 2.38464e-09 -2.47735e-10)
(7.94588e-08 4.38379e-09 4.28586e-09)
(5.17009e-08 9.79477e-10 -7.09334e-11)
(2.33888e-08 1.8154e-09 -2.27739e-09)
(2.20356e-07 3.97841e-09 6.39871e-09)
(2.50867e-07 1.58118e-10 -5.83533e-11)
(2.67924e-07 -8.60989e-10 1.1463e-09)
(1.99741e-07 2.89816e-09 1.27241e-09)
(3.4081e-08 -1.71375e-10 1.1102e-09)
(2.66464e-08 -6.56254e-10 3.11515e-09)
(1.91603e-07 -5.02644e-10 2.7538e-09)
(2.19531e-07 1.95441e-11 1.77625e-09)
(2.7345e-07 6.94756e-10 1.21663e-09)
(3.1092e-07 2.22833e-09 -3.90027e-10)
(2.04196e-07 -5.77629e-10 -1.70284e-09)
(2.89032e-07 2.08503e-09 -3.93206e-10)
(3.8451e-07 2.98846e-09 7.09194e-10)
(3.7434e-08 -1.05898e-09 3.45882e-09)
(1.89743e-07 -1.00616e-09 -1.05047e-10)
(8.3399e-08 9.60046e-10 3.92832e-09)
(9.79813e-08 -9.56752e-09 2.09087e-09)
(1.21162e-07 1.73501e-10 -4.70497e-10)
(1.5629e-07 6.35996e-10 3.70299e-10)
(2.48056e-07 1.11332e-09 -2.42552e-10)
(2.3423e-08 -4.1667e-09 -1.36769e-09)
(3.13231e-07 4.05031e-09 4.40963e-10)
(2.30943e-07 -1.08644e-10 3.52296e-10)
(1.86091e-07 2.03699e-09 5.32919e-10)
(2.2039e-07 1.91028e-09 2.98374e-11)
(1.62026e-07 4.87704e-10 8.60376e-10)
(2.28638e-07 1.25718e-09 1.38515e-09)
(2.51921e-07 9.86103e-10 -8.66761e-10)
(2.57168e-07 1.34935e-09 5.54607e-10)
(1.75267e-07 4.73996e-09 -3.29399e-09)
(2.4134e-07 -1.37472e-10 -1.92189e-11)
(2.84884e-07 -3.11783e-09 -1.486e-09)
(2.16634e-08 -1.46035e-09 1.62387e-09)
(2.65371e-07 -5.92236e-10 -1.48118e-09)
(1.99241e-07 3.00184e-09 -1.87484e-10)
(7.37868e-08 -2.19559e-09 5.55474e-09)
(1.90573e-07 6.92467e-10 -3.29982e-09)
(3.12745e-07 1.26377e-10 -1.88667e-09)
(2.32977e-07 -4.48303e-10 8.76876e-10)
(1.33349e-07 3.98475e-10 -3.61892e-09)
(2.11252e-08 -2.10028e-09 -2.11755e-09)
(2.27228e-07 -1.2578e-09 -1.28003e-09)
(3.48335e-07 4.92041e-09 -4.05401e-09)
(2.20834e-07 -7.89026e-10 5.13155e-11)
(1.95865e-07 -5.12671e-10 8.39616e-10)
(6.64397e-08 2.72643e-09 2.96116e-09)
(2.4946e-07 -6.4065e-10 -1.3868e-09)
(2.88237e-08 2.24665e-09 -3.50512e-09)
(1.60523e-07 8.69595e-11 -3.46013e-11)
(2.08675e-07 2.32495e-08 -7.49263e-09)
(2.30438e-07 -1.20415e-10 -5.7021e-11)
(1.02878e-07 -2.56062e-10 3.75286e-09)
(1.95519e-07 -2.18879e-09 -2.47884e-09)
(1.25468e-07 4.51254e-10 -1.6386e-09)
(5.55974e-08 3.41303e-09 2.30033e-09)
(3.8862e-07 1.83e-09 8.7164e-10)
(1.82703e-07 1.27246e-09 5.48748e-10)
(2.14006e-08 8.09637e-10 2.0959e-09)
(2.56251e-07 -3.27737e-09 2.92203e-10)
(2.36683e-07 -2.81002e-09 1.06447e-09)
(4.53856e-08 -1.94856e-10 -2.40839e-09)
(1.45219e-07 5.41327e-09 3.26236e-10)
(1.12018e-07 4.05689e-09 3.19061e-09)
(1.80455e-07 1.2655e-09 9.81768e-10)
(2.21849e-07 -1.22991e-09 4.13886e-10)
(3.69185e-08 -7.79758e-10 1.68651e-09)
(1.04475e-07 -3.51093e-09 -6.25923e-10)
(1.15469e-07 2.0526e-09 3.38378e-10)
(1.85091e-07 1.92216e-09 4.1054e-10)
(2.85125e-07 -1.90432e-09 7.96463e-10)
(2.72362e-08 1.34689e-09 -3.47875e-09)
(3.48048e-07 -2.70929e-09 1.6669e-09)
(2.29368e-07 1.23768e-09 7.43049e-11)
(2.33556e-07 1.0367e-09 1.45454e-09)
(1.142e-07 4.88547e-09 -4.71096e-09)
(3.07022e-07 1.7492e-09 6.41004e-10)
(2.65857e-08 -1.61946e-11 -2.58693e-09)
(2.74777e-07 -1.84971e-09 -5.14518e-10)
(3.26604e-08 -6.53651e-10 -7.37471e-11)
(1.49516e-07 -4.63582e-09 -1.86752e-10)
(2.16866e-07 -6.35512e-10 2.37051e-10)
(1.56291e-07 -4.02958e-09 -1.23211e-09)
(2.315e-08 2.37803e-09 2.35268e-09)
(6.02209e-08 6.66289e-10 -1.72752e-09)
(8.84779e-08 -3.90814e-09 2.73182e-09)
(1.51611e-07 1.9839e-09 -3.85944e-09)
(3.22115e-07 -9.81996e-10 -7.94832e-10)
(6.48403e-08 -1.38265e-09 2.22566e-10)
(1.54111e-07 4.76493e-09 -3.27922e-09)
(2.24814e-07 -1.07844e-08 -2.19885e-08)
(1.87801e-07 1.37586e-09 5.73403e-10)
(3.49553e-08 1.90649e-09 3.56917e-10)
(2.43682e-07 2.47994e-10 -2.2186e-09)
(1.4868e-07 1.53707e-08 -5.76171e-09)
(1.80149e-07 -2.08135e-09 -2.68005e-10)
(1.13631e-07 -6.41669e-10 -2.54788e-09)
(1.56644e-07 1.36296e-09 6.38664e-10)
(1.22864e-07 -4.72205e-09 -3.50082e-09)
(1.64573e-07 3.27017e-10 6.9951e-10)
(1.39135e-07 1.18106e-09 -5.15677e-10)
(8.42473e-08 3.70484e-09 -7.09151e-09)
(2.60711e-07 9.35547e-10 4.32403e-10)
(7.33631e-08 2.60786e-09 3.62302e-09)
(1.87171e-08 2.82444e-09 1.03843e-09)
(3.06014e-07 8.50386e-11 1.04367e-09)
(1.61957e-07 1.34906e-09 -5.60162e-11)
(3.01434e-07 1.81746e-09 -5.50711e-10)
(2.35171e-07 2.41235e-09 -6.3916e-10)
(4.02887e-07 -4.61668e-09 1.04409e-09)
(1.56588e-07 3.54743e-09 9.50291e-11)
(3.72733e-07 -4.57121e-09 7.19436e-10)
(1.11569e-07 -3.35097e-09 4.6215e-09)
(1.33286e-07 1.01945e-09 -2.74106e-10)
(3.14885e-07 -3.79022e-09 -1.75401e-09)
(3.82158e-08 6.38725e-10 -5.00633e-09)
(2.95406e-07 -7.70695e-10 -1.40201e-09)
(1.30334e-07 1.11808e-10 3.8547e-09)
(3.58729e-08 -2.33493e-09 -1.99674e-09)
(2.76992e-07 -4.43916e-10 1.6202e-10)
(7.18295e-08 -1.73143e-09 1.58123e-09)
(2.02172e-07 7.73631e-10 5.686e-10)
(1.88116e-07 7.87617e-10 7.90533e-10)
(3.79911e-07 3.17322e-09 3.13161e-09)
(1.06835e-07 -3.93449e-09 -5.04876e-09)
(2.55371e-07 1.87818e-09 2.7383e-10)
(1.67209e-07 -1.91699e-09 1.78415e-09)
(2.73606e-07 1.96646e-10 1.77477e-09)
(2.79725e-07 1.08923e-09 -4.15119e-10)
(2.47844e-07 1.60597e-09 8.36718e-10)
(1.44752e-07 1.0339e-09 9.68076e-11)
(5.5847e-08 -2.6216e-09 -2.29437e-09)
(7.99714e-08 5.02687e-11 -7.74097e-10)
(1.57154e-07 1.06059e-09 -2.07364e-10)
(2.68756e-07 2.46754e-09 1.65892e-09)
(3.33402e-08 -1.83256e-09 -1.11738e-09)
(2.28265e-07 6.56303e-10 -2.28063e-10)
(4.2117e-07 2.17165e-10 2.44815e-09)
(3.13711e-07 -3.21687e-09 -1.15565e-09)
(3.30199e-07 -3.49313e-09 -1.08232e-09)
(2.6493e-07 -1.75743e-09 -1.16913e-09)
(2.42802e-08 2.25771e-09 2.10472e-09)
(2.0468e-07 6.635e-10 8.37089e-10)
(1.5861e-07 -9.7219e-10 -2.40509e-09)
(2.51513e-07 -1.16392e-09 6.82996e-10)
(1.7314e-07 -4.32911e-10 6.54969e-10)
(4.18604e-08 2.96763e-09 -4.03021e-10)
(1.79936e-07 1.39126e-09 8.6832e-11)
(1.64702e-07 3.37164e-09 3.36469e-09)
(2.52258e-07 -7.47334e-10 3.86074e-10)
(2.34949e-07 -2.65075e-09 -3.38526e-10)
(1.96864e-07 -2.51735e-09 -6.5551e-10)
(1.63797e-08 1.24674e-09 -1.82897e-09)
(2.39289e-08 -1.26129e-09 -2.28513e-09)
(1.63038e-07 -1.72459e-09 1.20461e-10)
(2.74025e-07 -3.58365e-10 5.70596e-10)
(1.98632e-07 1.74914e-09 1.04128e-09)
(1.71893e-07 8.12742e-10 8.2359e-10)
(1.73087e-07 -2.62337e-09 1.07662e-09)
(2.48871e-07 -2.09534e-09 -6.533e-10)
(2.57036e-07 6.37986e-10 3.12754e-10)
(2.32072e-08 1.90805e-09 3.61546e-10)
(1.28578e-07 -1.4376e-09 1.85422e-10)
(1.7394e-07 -1.56839e-08 2.4129e-10)
(5.43069e-08 -6.41818e-10 2.56383e-09)
(9.53837e-08 -5.70776e-09 1.66031e-09)
(3.09297e-07 -1.94906e-09 -2.05227e-09)
(2.13522e-07 -2.03159e-09 7.764e-10)
(1.97475e-07 1.28703e-09 -2.78243e-10)
(2.48416e-07 -1.15445e-09 1.00898e-09)
(1.51076e-07 -4.84865e-09 1.40487e-09)
(2.89777e-07 2.56486e-10 -1.77431e-11)
(1.92886e-07 3.02173e-09 -5.17224e-09)
(3.89433e-07 3.9234e-09 -6.13315e-11)
(1.96294e-07 -9.20918e-10 -4.61027e-10)
(2.08102e-07 -2.42966e-09 1.40401e-09)
(2.79889e-07 -3.03315e-09 4.69107e-10)
(5.5891e-08 -3.75863e-10 2.3291e-09)
(5.05823e-07 -4.38312e-09 1.75682e-09)
(3.96382e-08 1.1736e-09 -1.50482e-09)
(1.49126e-07 -1.43775e-08 8.48237e-09)
(1.32316e-07 4.019e-09 2.39781e-09)
(1.60914e-07 -2.62151e-09 -1.47723e-08)
(2.20136e-07 -8.1834e-10 1.25499e-10)
(2.91532e-07 -4.52749e-08 -9.72925e-09)
(1.25006e-07 -1.99992e-10 -1.3611e-10)
(2.92425e-07 2.33113e-10 1.89903e-10)
(3.25011e-07 6.27928e-10 -3.24555e-10)
(1.91602e-07 4.73704e-11 1.60846e-09)
(4.14479e-08 8.77589e-11 -4.45557e-10)
(1.18486e-07 -4.52363e-09 -3.02496e-09)
(2.10182e-07 -3.79382e-09 -2.96464e-08)
(1.90752e-07 1.35366e-10 2.88727e-11)
(1.07332e-07 -2.33821e-09 -3.03762e-10)
(2.17678e-07 -1.70491e-08 -5.79021e-09)
(2.25606e-07 -9.59938e-10 3.43981e-09)
(3.29736e-07 3.90098e-09 2.1366e-09)
(5.13443e-08 -9.61666e-10 1.6084e-09)
(6.16311e-08 -2.92437e-09 1.59656e-09)
(3.16194e-08 3.10542e-10 -1.80348e-10)
(2.37514e-08 1.49158e-10 -1.85636e-09)
(5.12498e-08 -1.5314e-10 5.05647e-10)
(2.23967e-07 -9.39523e-09 6.95128e-09)
(1.8268e-07 3.27362e-10 8.5264e-10)
(2.25297e-08 -7.07217e-10 3.0085e-09)
(2.47359e-08 1.55214e-09 2.72498e-09)
(3.0535e-07 1.62864e-09 -5.49695e-12)
(1.66623e-07 -2.13095e-08 1.45552e-08)
(5.4711e-08 2.20081e-09 1.07727e-09)
(2.24719e-07 3.40213e-10 3.47089e-10)
(1.14386e-07 -3.93659e-10 -1.77181e-09)
(2.07142e-07 1.92952e-11 1.68643e-09)
(5.18564e-08 2.35723e-09 -1.32427e-09)
(1.04907e-07 3.64932e-09 -1.26945e-09)
(2.05903e-07 -1.69683e-09 3.3821e-10)
(2.44774e-07 2.01976e-10 -2.74926e-11)
(3.88012e-07 7.0837e-10 -1.33754e-09)
(5.06381e-08 3.59168e-09 -1.04362e-09)
(2.85933e-08 -2.29404e-09 1.33953e-09)
(2.01703e-07 -2.8776e-08 -2.13305e-08)
(3.27615e-08 -4.1424e-09 1.84608e-10)
(3.15458e-07 -2.98192e-09 -3.26548e-09)
(3.44524e-08 1.76232e-09 -3.98713e-09)
(1.61152e-07 -8.05961e-10 3.58976e-09)
(2.719e-07 -1.19244e-09 3.04496e-10)
(3.9087e-07 -1.93793e-09 1.90737e-09)
(6.95841e-08 1.12067e-09 -1.20949e-09)
(1.50512e-07 -3.5407e-10 -1.37621e-09)
(4.54152e-08 1.82604e-09 -1.58949e-09)
(3.37454e-08 3.8851e-09 -1.4947e-09)
(2.31615e-07 6.00419e-12 -1.15318e-09)
(1.77484e-08 -1.42862e-09 -2.18119e-09)
(1.64842e-07 -2.02841e-09 1.40141e-10)
(7.14462e-08 1.30083e-09 -3.01236e-09)
(3.12644e-07 -9.87202e-10 -1.94697e-10)
(2.26833e-07 1.35068e-10 5.36011e-11)
(2.25484e-08 -6.4586e-10 3.43661e-09)
(1.55224e-07 -7.03163e-09 -4.01982e-10)
(2.40907e-07 1.2719e-09 6.40225e-10)
(3.63868e-08 -1.3871e-09 3.25987e-10)
(2.67382e-07 -1.64779e-09 -6.01948e-10)
(9.17808e-08 -3.16617e-09 5.18801e-09)
(2.33019e-07 5.979e-10 -1.39862e-10)
(1.99086e-07 -4.06261e-10 -1.34688e-09)
(6.47883e-08 1.59165e-09 1.59195e-09)
(2.48256e-08 1.06982e-09 -3.1089e-09)
(1.08549e-07 1.83039e-09 -1.32133e-09)
(2.43607e-07 3.82434e-08 8.31675e-09)
(2.46209e-07 9.85383e-10 9.82684e-10)
(8.83079e-08 -3.57725e-09 4.14198e-09)
(2.04287e-07 7.16087e-10 3.87089e-09)
(2.90941e-08 -1.18185e-09 7.49525e-10)
(1.7591e-07 -1.90137e-10 -1.24944e-09)
(2.68302e-08 -5.79202e-10 -1.75025e-09)
(3.10012e-07 -3.2992e-09 4.43611e-11)
(3.02726e-07 -1.81995e-09 1.21347e-09)
(2.01642e-07 -8.64846e-10 3.89259e-10)
(1.69073e-08 1.71092e-09 1.14148e-10)
(3.36908e-07 -3.32738e-09 8.45495e-10)
(1.74144e-07 9.19419e-10 -6.14605e-10)
(3.42861e-07 1.68839e-09 1.15011e-09)
(7.21867e-08 -4.93732e-11 -1.65473e-10)
(2.22442e-07 -2.6753e-08 1.39151e-08)
(2.51166e-07 -2.68317e-09 6.83086e-11)
(7.81213e-08 1.49292e-09 -1.58696e-10)
(2.18264e-07 1.27983e-10 1.79739e-10)
(2.10007e-07 3.96915e-09 -3.94469e-08)
(1.89736e-07 4.45284e-10 -6.16957e-10)
(3.79736e-08 9.20413e-10 -1.66725e-09)
(1.19471e-07 -1.13518e-09 -5.20595e-09)
(1.6726e-07 -1.45092e-10 2.35466e-10)
(2.22671e-07 2.0996e-09 -7.50233e-10)
(3.79748e-08 1.14429e-09 6.26514e-10)
(2.31609e-07 1.91927e-09 -2.39986e-09)
(1.78561e-07 -1.72471e-09 -6.48172e-09)
(2.9741e-08 -2.52378e-09 1.4588e-09)
(1.80047e-07 1.75198e-10 -1.76765e-12)
(1.58294e-07 -1.99406e-09 1.5481e-08)
(3.39412e-07 3.8977e-09 -4.96134e-09)
(1.81306e-07 -5.98921e-11 1.50125e-10)
(1.62463e-07 8.96421e-11 6.54476e-10)
(2.81813e-07 -5.35435e-10 -1.41895e-09)
(2.61519e-07 1.32446e-09 1.36521e-09)
(8.27675e-08 2.0069e-09 4.03759e-10)
(8.24401e-08 -3.25906e-09 -3.80413e-09)
(3.36043e-07 3.37248e-09 3.57752e-10)
(2.24702e-07 -1.96017e-08 1.84021e-08)
(2.19266e-07 -2.53756e-09 1.39193e-09)
(1.96876e-07 -1.4347e-09 4.93888e-10)
(1.4059e-07 2.30765e-09 1.74003e-09)
(3.15438e-07 3.22498e-10 3.71616e-10)
(1.89061e-07 4.77817e-10 -4.43287e-10)
(1.95391e-07 -6.15185e-10 -2.55721e-09)
(2.4592e-07 4.095e-09 -4.55806e-10)
(5.01302e-08 -1.35725e-10 -2.96876e-09)
(1.90411e-07 1.60958e-09 -1.06896e-09)
(4.57631e-08 -1.45698e-09 -3.42353e-09)
(3.02365e-07 5.63418e-10 2.07507e-09)
(2.90732e-07 -1.00446e-09 1.27814e-09)
(1.84293e-07 2.48488e-09 -4.73586e-09)
(1.73977e-07 1.92656e-09 -4.7559e-10)
(2.09506e-08 2.19635e-09 -4.31722e-10)
(1.15922e-07 -4.45474e-10 -6.94283e-10)
(8.70733e-08 -2.89866e-09 -3.75719e-09)
(2.34149e-07 -6.87087e-11 -1.41093e-09)
(2.09481e-07 -1.05712e-09 -8.58684e-10)
(2.20506e-07 -2.0133e-08 1.28912e-08)
(2.88567e-07 -4.67276e-10 2.16783e-09)
(9.07483e-08 -2.41984e-09 -2.10945e-09)
(1.36578e-07 -3.43893e-09 1.06701e-08)
(2.49639e-07 -5.20012e-10 3.87187e-09)
(3.25963e-08 -2.36882e-09 -3.52603e-11)
(2.14984e-07 -5.70112e-10 -1.02126e-09)
(6.10181e-08 1.68877e-09 -7.38989e-11)
(2.03994e-07 -5.23364e-10 1.66355e-09)
(3.81061e-08 5.31155e-09 -5.85078e-10)
(3.22034e-07 2.88316e-09 -2.13332e-09)
(2.03949e-07 -8.76248e-09 5.48961e-09)
(2.48208e-07 4.0005e-10 -3.63614e-10)
(1.70668e-07 1.25172e-09 5.13285e-10)