/*--------------------------------*- C++ -*----------------------------------*\
| =========                 |                                                 |
| \\      /  F ield         | OpenFOAM: The Open Source CFD Toolbox           |
|  \\    /   O peration     | Version:  2406                                  |
|   \\  /    A nd           | Website:  www.openfoam.com                      |
|    \\/     M anipulation  |                                                 |
\*---------------------------------------------------------------------------*/
FoamFile
{
    version     2.0;
    format      ascii;
    arch        "LSB;label=32;scalar=64";
    class       volScalarField;
    location    "26";
    object      nut;
}
// * * * * * * * * * * * * * * * * * * * * * * * * * * * * * * * * * * * * * //

dimensions      [0 2 -1 0 0 0 0];

internalField   nonuniform List<scalar> 
59516
(
5.26064e-05
7.88943e-05
7.14935e-05
0.000158744
0.00117902
0.00018622
0.000114929
6.11365e-05
5.84587e-05
0.000107376
0.000944768
8.34344e-05
6.39025e-05
0.000169178
0.000100892
8.60184e-05
0.000705857
0.000102332
6.6522e-05
0.000491743
0.000156138
0.000207581
0.000285372
0.000149627
0.000279936
9.50448e-05
0.000143548
0.000171524
0.000102423
0.000149469
0.000244657
0.000164311
0.000143893
9.769e-05
0.000198088
0.000163359
0.000144527
9.36364e-05
5.40067e-05
0.000322456
5.94704e-05
0.000368993
0.000227582
8.37475e-05
0.000176062
8.74925e-05
9.9207e-05
0.00066863
0.000893446
0.000405146
0.000625267
0.000140533
6.33525e-05
8.07724e-05
0.000168035
0.000107405
0.000509582
0.00015964
0.000783048
0.000154184
0.000276537
0.000161399
0.00059823
0.000614252
0.000108425
0.000296307
0.000209129
0.00013925
0.000440571
0.00011903
0.00023029
0.000538171
0.000183907
0.000207688
0.000891702
0.000406249
0.000659249
0.000241527
0.00013773
0.000432589
0.000139183
0.000320259
0.000199096
0.000168747
0.00030297
0.000794828
0.000136567
0.000202893
8.99068e-05
6.9331e-05
0.000691387
0.000213268
0.000652117
0.000190264
0.000493425
0.00112973
0.000227355
8.80923e-05
9.2547e-05
0.000264531
0.000159623
0.00018605
0.000182952
8.681e-05
0.000140683
0.000319876
0.000151837
5.46099e-05
6.93945e-05
9.98282e-05
0.000277063
0.00020292
0.000105447
0.000169362
0.000370496
5.84498e-05
8.93671e-05
0.000154195
0.00017066
0.000226247
0.00110267
0.000606514
0.000366015
0.00060852
0.000299817
4.99237e-05
0.000204749
0.000208578
0.000281976
0.000865745
0.00106453
6.55047e-05
0.000163136
0.000196203
6.32967e-05
6.00481e-05
0.000124121
8.15817e-05
0.000148826
7.64654e-05
0.000143169
0.000987878
0.000145062
0.000114724
0.000872113
0.000187489
0.000148364
7.91816e-05
0.000251489
6.17918e-05
6.69271e-05
0.00013459
0.000447389
0.00028107
5.14596e-05
0.000158915
9.3168e-05
6.00271e-05
5.14939e-05
0.000161789
0.000112099
0.000109951
0.000143209
0.000191621
5.78922e-05
0.000606302
9.08628e-05
0.000803028
0.000152694
0.000225756
5.1855e-05
8.11524e-05
7.72814e-05
0.00016673
0.000122918
0.000109222
0.000649359
0.000263835
0.000101673
0.000121325
0.000205658
0.000136215
0.000214762
7.49568e-05
0.000892018
8.38991e-05
0.000117502
0.000156917
6.78004e-05
6.26076e-05
0.000185743
8.53652e-05
0.000484638
6.43063e-05
0.000254886
0.000116206
8.51164e-05
0.000122114
0.000104863
0.000234543
8.05548e-05
0.00109075
5.2135e-05
0.000149154
0.000105705
0.000187531
0.00089886
0.000417531
0.00016317
8.71765e-05
9.7327e-05
0.000190639
0.000211305
9.48945e-05
8.01274e-05
0.000597436
0.000164548
0.000284372
9.61125e-05
0.000339401
9.88535e-05
8.56173e-05
0.000601502
0.000162841
0.000680743
0.000695616
0.000195518
0.000138952
0.000674611
9.08995e-05
0.000654341
0.000728158
0.0011171
0.000177408
0.000134942
0.000119285
7.56708e-05
5.54898e-05
0.000389101
0.000105307
0.00104941
0.000172412
8.21576e-05
0.000192228
0.000958457
4.49905e-05
0.000258799
0.000100266
0.000565142
5.45368e-05
0.000458713
0.0001977
0.00113032
0.000243808
0.000218529
0.000366224
9.6024e-05
0.000333959
0.000138198
0.000100842
0.000110068
0.000455583
7.65722e-05
0.000718227
5.36492e-05
7.61802e-05
0.000419609
5.29074e-05
0.000177687
7.79646e-05
7.04568e-05
0.000736943
4.65606e-05
5.89894e-05
0.000537349
4.80848e-05
0.000156588
0.000410621
0.000177127
0.000138821
0.00104073
0.000169734
0.000195485
8.63978e-05
9.44352e-05
0.000705987
0.000942152
0.000198587
0.000979071
0.00118623
0.000770693
0.000149424
0.000186997
5.7769e-05
0.000575158
0.000211483
0.000455262
0.000156333
0.00112311
0.000679258
5.78637e-05
7.74462e-05
0.000169729
0.000182101
0.000359497
0.000168553
0.000135402
0.000100616
0.000533533
0.00051917
0.000253286
8.36085e-05
7.12642e-05
0.000153531
8.53345e-05
0.000458259
5.61754e-05
0.00110306
6.88906e-05
0.000128421
0.000108406
7.67596e-05
0.00084404
0.00100803
0.00113058
0.000356109
6.84082e-05
0.000128453
0.000604027
0.000426546
0.000397073
8.45514e-05
0.000178946
0.000281303
0.000132607
0.000139019
0.000493723
0.000219229
8.43964e-05
0.000734832
0.000485134
0.00104906
0.000741651
0.000124786
0.000354779
0.000920385
8.64156e-05
0.000989378
0.000804657
0.000138593
0.000121853
0.000326904
0.000198333
5.1902e-05
0.00014307
0.000147205
6.52e-05
0.000148219
0.000265593
5.50175e-05
8.86872e-05
0.000122465
0.000962302
0.000274448
0.000115036
0.000291633
0.00029975
0.000146297
0.000292355
9.92639e-05
0.000130308
0.000143005
0.000468478
6.23738e-05
0.000439754
0.000155897
0.000127457
0.000143925
0.000564832
7.29514e-05
8.63809e-05
5.10888e-05
0.000964151
0.000179499
8.90122e-05
0.000168246
0.00017067
0.000128782
8.45073e-05
0.000126583
7.09682e-05
6.54992e-05
0.000398132
0.00013185
0.00104835
0.000114775
9.81538e-05
9.69521e-05
0.00088528
0.000821426
7.76892e-05
9.43148e-05
5.69466e-05
0.000935821
0.000878694
0.000151435
0.000136768
0.00022024
0.000227515
0.00034684
0.000181648
0.000171071
9.64882e-05
0.000805245
0.00101796
0.000141254
0.000702156
4.9183e-05
0.000883654
0.000816064
0.000946737
0.000787013
0.000714452
4.91934e-05
0.000979191
9.0999e-05
0.000570711
7.4241e-05
0.000345425
0.00083114
0.000199627
0.000217462
0.000126033
0.000141026
0.000160571
0.000638685
0.00101424
0.00020187
9.06738e-05
0.000125106
0.000171966
8.74586e-05
0.000344977
0.000841607
0.000320145
0.000138147
0.00103719
0.0001336
0.000192081
9.20826e-05
8.78186e-05
0.000256259
0.000369251
5.56498e-05
0.000214928
0.000171659
0.000895619
0.000894254
0.000961718
4.56538e-05
0.000365941
0.000741464
0.000143622
0.00103464
6.04273e-05
0.000675258
0.000245919
0.000161172
0.000930531
9.09826e-05
0.000143697
4.17378e-05
0.000594581
0.000114936
5.64963e-05
0.000165254
0.000765671
9.27243e-05
0.000374912
0.000107857
0.00012479
0.000192977
0.000188397
0.0005073
0.000792101
0.000652966
0.000157141
6.75873e-05
5.19526e-05
0.000105276
0.00115161
0.000845376
0.000187989
0.000514664
0.00114148
0.000161237
9.58024e-05
8.26309e-05
0.000337927
0.000972575
0.000223621
8.27956e-05
7.92333e-05
7.47969e-05
0.00101913
0.000179711
0.000314178
0.000344271
0.000898989
0.000233306
0.000503869
0.000165222
0.000500519
0.000168284
7.61584e-05
0.000338044
8.48868e-05
0.000171579
0.000154393
0.000141252
9.22146e-05
0.000171038
8.64716e-05
8.12846e-05
0.000504295
0.000729443
0.000188475
5.56915e-05
0.000123712
0.000664128
8.78661e-05
0.000652656
9.64012e-05
0.00013544
0.000935879
0.000115884
0.000705774
0.000159643
0.000156888
0.000220473
0.000982504
0.000133631
0.000105554
0.000837014
0.000110717
0.000511179
8.22238e-05
0.000859423
0.000113261
0.000187619
0.000252803
0.000153298
0.000187704
0.000188184
0.000125692
0.000164475
0.00098393
0.00012905
7.94401e-05
0.000818093
5.57118e-05
0.00101803
0.00084344
0.000954541
0.000990173
0.000133829
9.51637e-05
0.000837314
0.000437384
0.000148195
0.000462515
0.000769766
0.000712558
0.000863831
5.93078e-05
0.000161791
0.000662763
7.89021e-05
0.000370557
5.4363e-05
0.000193472
0.00102262
6.25615e-05
0.000124702
0.000962985
0.000184967
0.000131927
0.000171582
0.000890958
0.000618999
0.001139
0.000355267
5.07538e-05
0.000261288
0.00081049
0.00015768
0.00101008
0.000241488
0.000153967
8.38206e-05
0.000154722
0.000189938
0.000153413
8.33101e-05
5.46049e-05
0.00102909
7.15897e-05
0.000712307
0.000646174
0.00100902
0.000804031
0.000160677
0.000437668
0.000138343
0.000208274
8.33672e-05
0.000676986
0.000141511
0.000171488
0.000743676
0.000618561
0.000288436
0.000711993
0.0001374
0.00148115
0.000726777
0.000912335
6.08045e-05
0.000255885
0.000800896
7.25234e-05
0.000126911
7.16336e-05
0.000177683
0.000187074
0.000205805
0.000123227
0.000196484
0.000180179
0.00017305
0.00122212
0.000212511
0.000141144
0.000217947
5.68589e-05
0.000129783
0.000159065
8.62313e-05
6.7247e-05
0.000665802
0.000261709
0.000139547
0.000167769
0.000391461
0.000200168
0.00013747
0.000190246
6.9918e-05
0.000936016
0.000669965
0.000133089
6.7388e-05
0.000122974
0.000196367
0.000848257
0.000153781
0.000581553
0.000159557
0.00034759
0.000201687
0.000164639
8.64423e-05
0.000253824
0.00013735
0.000521768
9.24176e-05
5.05246e-05
0.00104578
0.000133021
0.000170275
0.000142145
0.000673537
5.86645e-05
8.683e-05
3.89135e-05
0.000125367
0.00106634
0.000178658
0.000464717
0.000151566
0.000621656
0.000157327
0.000186908
5.4466e-05
0.000349541
9.82329e-05
0.000892382
0.000326364
0.000119542
0.00113347
0.000490032
7.55023e-05
0.000132608
0.000161262
0.000991317
9.69485e-05
0.00013598
5.97294e-05
8.6748e-05
0.000179594
0.000886111
0.00124702
9.72766e-05
0.000706711
0.000839519
0.000618282
0.000125345
0.000136365
0.000139592
0.000870732
0.000994943
6.16935e-05
0.000121433
5.19328e-05
0.000199972
0.000500205
6.23608e-05
5.05927e-05
0.000175476
0.000106046
0.000161601
0.00030817
0.000657916
5.1525e-05
5.26487e-05
0.000152059
5.59712e-05
9.704e-05
0.000846496
0.000867288
0.00118597
0.000498002
4.7154e-05
0.00083921
0.000159216
0.000195543
0.000878331
8.4001e-05
0.000163366
0.000200266
0.000697035
0.00134756
0.000373195
6.56964e-05
0.000279297
0.00021849
0.00104691
0.000147978
0.000164943
0.00011709
0.00085074
0.000375093
0.000171078
0.000339814
0.000146997
7.73559e-05
6.50098e-05
0.000830709
0.000112739
0.000262491
8.02283e-05
0.00103671
0.000167682
4.93697e-05
0.000389362
0.000194208
0.000120057
8.96588e-05
0.000168972
8.16716e-05
0.00060492
8.73732e-05
0.000157024
5.72185e-05
0.000176695
5.13543e-05
0.000749629
0.00118304
0.000723101
0.000431088
0.000795484
9.83602e-05
0.000125473
0.000764638
0.00011272
4.91385e-05
8.7523e-05
0.000525728
6.29738e-05
7.95226e-05
0.000277771
0.000142193
5.04555e-05
6.32338e-05
9.73274e-05
0.000330319
0.000267679
0.000112145
0.000135074
0.000200689
8.29335e-05
0.000161674
9.08019e-05
0.000375801
0.000113019
0.00010245
0.000174251
0.000312654
0.000177566
0.000408424
0.000719489
0.000121681
0.000176791
7.35142e-05
5.71343e-05
0.000177953
0.000413733
0.000171306
0.000803582
0.000380133
0.000119354
0.000291019
0.000357444
6.87108e-05
0.000946022
0.000154728
0.000140546
6.21947e-05
5.92017e-05
0.000153544
0.000229318
0.000398854
0.000732158
0.000616928
5.80337e-05
0.000372543
0.00110058
6.42754e-05
0.000155886
0.000641558
5.20006e-05
0.000159846
0.000456402
0.000878119
0.000301145
5.60871e-05
0.000102524
5.51048e-05
5.77053e-05
5.77966e-05
6.63398e-05
9.84074e-05
7.49038e-05
0.000470018
0.000785351
0.00159222
0.000136354
7.60056e-05
0.000114232
0.000156682
0.000130721
0.000105133
0.00016689
0.000132707
0.00104295
0.000235438
0.00103804
0.000906608
0.00022522
9.33893e-05
0.000792971
0.000168933
0.000163771
0.000310687
0.000134006
0.000331398
0.000888103
6.37682e-05
0.000841139
0.00113358
0.00071476
9.01242e-05
0.00144321
0.000154577
5.49734e-05
0.000765583
0.000185323
9.33537e-05
8.22728e-05
9.43303e-05
0.000120691
0.000325029
0.000708139
0.000706563
0.000318448
5.87726e-05
0.000164054
0.000350387
0.000463778
8.66768e-05
6.42564e-05
0.000336981
0.000995358
0.00091159
0.000159695
0.000895475
5.70765e-05
7.16169e-05
0.000159846
8.58415e-05
4.59114e-05
0.000821982
0.000110177
0.000634671
0.000605099
0.000577409
0.00101831
0.000672213
0.000740678
0.000683571
0.00106146
0.00143351
0.000134634
0.000108642
0.000150076
8.87056e-05
0.000484263
9.03155e-05
0.000149887
0.000574657
6.19599e-05
0.00119643
0.00119391
0.00100366
0.000263486
5.5566e-05
0.000909145
0.000295501
5.16867e-05
0.000974743
0.000168793
0.000914248
0.000135137
4.80526e-05
0.000536928
8.42702e-05
0.000141473
0.000558583
0.000427881
0.00023563
0.000127417
0.000802398
0.000129956
5.82596e-05
8.16247e-05
7.52976e-05
6.03802e-05
0.00109746
9.08151e-05
0.000317731
0.000548696
7.11295e-05
0.00101758
0.00109782
6.76126e-05
0.000992378
0.000798642
9.47233e-05
0.00105182
0.000138779
0.000138036
0.000730705
0.000430504
0.000217845
0.000848951
6.35701e-05
4.23071e-05
0.000675649
0.000180534
0.000577636
0.000823335
6.39388e-05
0.000193739
0.000178466
6.51129e-05
0.000138083
0.000148393
0.000115535
6.42112e-05
0.000154739
5.68497e-05
0.000578229
0.000458405
0.00116381
0.000959594
7.65433e-05
0.000425671
0.000910585
6.48785e-05
0.000212731
0.000138359
9.05877e-05
0.000380189
0.00106403
7.98793e-05
0.000422715
5.57371e-05
7.81011e-05
0.000164101
9.96748e-05
5.54288e-05
0.000140258
9.86019e-05
0.000155066
0.000435594
6.20681e-05
0.000894906
0.000189723
0.00100864
6.82758e-05
7.54011e-05
5.86971e-05
0.00018981
0.000166479
0.000478808
0.000309745
7.60637e-05
0.00019483
0.000161001
0.00110723
0.000250432
0.000829203
7.91206e-05
7.25692e-05
0.000273095
0.000116648
7.44046e-05
0.00091877
0.000209806
8.88298e-05
0.000161472
0.000189701
5.66103e-05
0.000272593
0.00101582
0.000144992
0.00030127
8.66157e-05
0.000188452
0.000481068
0.000391457
0.000955583
0.000253781
6.52819e-05
0.000194464
0.000524464
0.000187553
0.000188273
0.00013117
0.000138259
0.000607777
6.05941e-05
0.000461077
8.16134e-05
0.000693878
0.000173533
0.000141082
9.10071e-05
0.000467163
0.000998465
0.000128415
0.000190708
0.000130223
0.000137552
0.00029188
0.000145503
0.00017139
0.000206988
0.000526943
0.000213741
0.000454987
5.71239e-05
0.000179864
0.000392266
0.000691059
9.96338e-05
8.20721e-05
7.94773e-05
0.000225541
4.98215e-05
0.000136939
0.000192994
0.000743566
6.28934e-05
4.60123e-05
0.000522937
0.000469881
0.000111891
0.000569649
0.000853552
0.000162325
0.000190049
0.000736053
0.000861451
0.000146453
0.000146196
0.000813677
6.77287e-05
0.000196992
5.22915e-05
0.000865209
0.000538533
0.000805144
0.000187869
0.000459227
0.000170328
0.00011598
0.000901037
0.000665557
4.82973e-05
0.000376745
8.06439e-05
8.67073e-05
0.000140732
0.000262573
0.000194221
0.000239102
0.000145953
5.07217e-05
0.000103275
0.000170102
0.00106381
0.000893816
7.37109e-05
0.000818342
6.22272e-05
0.000256818
0.000157432
0.000109968
0.00024155
5.75415e-05
0.000218259
5.10001e-05
7.55296e-05
6.11278e-05
7.0714e-05
0.000209231
5.78544e-05
0.000311909
0.000599121
8.3367e-05
9.06373e-05
0.00019948
0.000480687
0.000135864
9.96802e-05
0.000110343
6.77623e-05
0.000163282
0.000240423
8.41329e-05
0.000140209
0.000160408
0.000143788
0.000797046
0.000133977
0.000135176
6.14694e-05
6.68398e-05
0.000137342
0.000136089
0.00015766
0.00099024
5.13682e-05
0.000202731
6.97632e-05
5.87072e-05
0.00013516
0.000220842
8.66197e-05
0.000158236
0.000528464
7.17996e-05
0.000164868
0.00102131
5.15955e-05
0.000113733
5.04328e-05
6.45682e-05
0.000117269
0.000253429
0.000158614
0.00107833
0.00117602
0.000133672
6.24538e-05
0.000131754
0.000441888
0.000148488
0.000574883
0.000550894
0.000720766
0.000103205
0.000474286
0.000504586
0.000395567
0.000477062
0.000123791
0.000152906
0.000623131
6.2275e-05
9.38808e-05
0.00112419
0.000114557
0.000140304
5.42086e-05
0.000202256
0.000203485
8.5753e-05
0.000417928
0.000672432
0.000125168
0.000159943
0.000126676
0.00023809
9.92867e-05
0.000100675
0.00110126
0.000474138
0.000552816
0.000753228
0.000960619
0.00047386
0.000218448
0.000103613
9.63453e-05
6.91834e-05
4.36767e-05
7.23598e-05
0.00101823
0.000133782
0.000147795
8.20019e-05
0.000619059
8.00625e-05
0.00018639
5.73878e-05
0.000536752
0.00026983
6.80586e-05
0.000781937
0.000572415
0.000428459
0.000130635
0.000206202
0.000814964
0.00101714
0.000166516
5.28528e-05
0.000131683
0.000819258
0.000182883
0.000155482
6.37757e-05
0.000201786
5.32331e-05
0.000717306
7.33634e-05
0.000181
9.48139e-05
0.000172373
4.24256e-05
0.000166049
0.000348404
0.000202792
0.000799717
0.000177531
9.64557e-05
4.04433e-05
0.0002256
7.41467e-05
9.16391e-05
4.95251e-05
0.000959152
0.000149663
0.000998687
0.000217324
9.51326e-05
9.16408e-05
0.000193674
0.000420407
0.000886404
0.000166154
0.000106956
5.00815e-05
6.55031e-05
4.89791e-05
0.000162765
0.00012775
0.000190802
6.2146e-05
0.00119785
0.000126205
0.000132035
7.92973e-05
0.000190742
0.000406621
0.000191332
0.000640413
0.00120154
0.000198555
9.46482e-05
0.000894134
0.000131086
0.000102783
0.00100042
0.000530848
9.05135e-05
0.00172105
0.000568698
0.000172106
0.000117253
0.000381498
0.000868811
6.10571e-05
0.000369009
0.000828037
8.49619e-05
8.48754e-05
0.000131224
7.86053e-05
0.00106206
0.000140701
5.44442e-05
0.00037589
0.000140971
0.000207935
5.99269e-05
9.21268e-05
0.000105477
0.000175512
7.20413e-05
0.00014755
0.000149972
0.000141899
0.00017388
6.22846e-05
4.51934e-05
0.000979563
0.000159588
0.000718798
0.000102778
0.000233546
7.13596e-05
0.000410425
0.00013455
0.000417711
0.00141289
6.50662e-05
0.00117086
0.000111308
0.000150145
0.00011153
4.62254e-05
0.00021462
0.000128279
0.000139494
5.17005e-05
0.000158212
0.000290781
0.00019479
0.000999188
0.000537099
0.000143269
5.97424e-05
6.35691e-05
0.000335079
0.000164326
0.000162451
0.000701635
5.15808e-05
0.000331045
0.000132021
0.000438064
5.42214e-05
6.99152e-05
8.41276e-05
6.42136e-05
0.001048
0.000157656
0.000205374
0.00014153
0.000215371
0.000230361
9.60554e-05
0.000166617
0.000185415
0.000870475
0.000349485
9.07288e-05
5.13702e-05
5.92023e-05
0.000180919
0.000191843
0.000228831
9.14164e-05
0.000218132
0.000389915
0.000158736
0.00010355
0.000128316
0.000168504
0.00109559
8.16784e-05
0.00054815
0.00011168
0.000715823
0.000146481
0.000158947
8.74973e-05
0.000264018
0.000185464
0.000134076
8.61688e-05
9.4854e-05
0.000847102
0.000302949
0.000887782
5.30086e-05
5.58229e-05
6.8855e-05
0.000153222
0.000117645
9.67934e-05
0.000125348
5.93326e-05
0.000741651
0.000114272
9.06137e-05
4.43269e-05
0.000216492
0.000328802
8.12104e-05
0.000113554
0.000161553
0.00011578
0.000275924
0.00015601
4.89525e-05
6.17764e-05
8.19733e-05
6.67989e-05
0.000254774
4.88918e-05
7.06265e-05
0.00055647
6.62854e-05
0.000541892
0.000177535
0.000139921
0.000122848
4.41476e-05
0.000279191
9.27336e-05
5.1462e-05
0.000152395
0.000169398
0.000101548
0.000267423
5.45067e-05
0.00015671
8.46283e-05
0.000109029
9.29417e-05
8.30767e-05
6.82037e-05
0.000176843
6.03926e-05
0.000144749
5.51375e-05
0.000861273
9.60628e-05
0.00024722
0.000393708
0.000137665
0.000182637
8.49727e-05
0.000200522
0.000368675
0.000602838
5.83936e-05
0.000275587
5.36365e-05
8.65673e-05
0.000179998
7.09299e-05
6.6885e-05
0.00107172
0.00015062
0.000467423
9.8254e-05
5.38737e-05
0.000144443
0.000132072
0.000590454
0.000170952
0.000360501
9.47751e-05
0.00020435
8.67683e-05
0.000135536
0.000171706
0.000893389
0.000811355
0.000138156
5.91456e-05
0.000125729
8.81632e-05
0.000101208
0.000154519
4.81154e-05
0.000265641
6.08099e-05
0.000818812
6.47503e-05
0.000151573
0.00014523
0.000965465
0.000201659
8.29976e-05
0.000794922
0.000928959
0.000138293
0.000213482
0.000136817
0.00123488
0.00120859
0.000283642
0.000205375
0.000361571
0.000144801
9.9629e-05
0.000228261
0.000136489
0.000100539
9.86187e-05
0.000796406
0.000171751
0.00063417
0.00122434
7.92895e-05
0.000290596
0.000130884
0.000423499
6.73521e-05
0.000156556
0.000308867
0.000531892
0.000810103
0.000136607
0.00113768
9.16716e-05
0.000185125
0.000112171
0.00015731
0.000345452
0.000172973
0.000152579
7.90451e-05
7.57647e-05
0.000125397
0.00010891
0.000191974
0.000193077
7.30504e-05
0.00074446
6.6339e-05
0.00016196
5.73296e-05
0.000150586
6.33014e-05
0.000361822
7.63375e-05
0.000330222
0.00077472
0.000410302
0.000510584
0.000769269
0.000364189
0.000744002
0.000173753
0.000207947
0.000179438
0.00015004
0.000196197
5.82023e-05
7.74524e-05
4.92713e-05
0.00103773
8.84067e-05
0.000147373
0.00106427
7.53885e-05
5.85149e-05
0.000150061
8.77695e-05
0.000982978
5.89229e-05
6.1403e-05
0.000141371
0.000107489
6.53559e-05
5.20948e-05
0.000208035
0.000154626
0.000172598
0.000711025
9.98784e-05
0.000683605
6.80326e-05
0.000175047
0.00119315
7.85776e-05
0.001038
0.000437452
0.00013545
0.000234288
0.000463109
0.000147472
0.000214222
0.00112372
7.70097e-05
0.000175098
0.000260532
0.000151466
0.000190797
7.61186e-05
0.000830483
0.00107268
0.000234524
0.000639665
0.000224537
0.000756383
6.89824e-05
5.84028e-05
0.000764338
0.000247446
0.000152686
0.00014113
7.32812e-05
0.000544022
8.37348e-05
0.000168117
0.00018356
0.000208961
0.00019902
0.00025961
0.000522055
0.000931388
0.000140215
0.000108243
0.000723032
7.94208e-05
0.000309695
0.000148866
8.20919e-05
0.000206411
0.000734066
0.000198714
0.000158985
0.000128835
0.000135847
0.000531663
0.00110385
0.000246917
6.36341e-05
4.91583e-05
5.76825e-05
0.000591939
0.000407438
8.41882e-05
0.000908672
0.000512088
0.000459923
0.000115213
0.000115865
0.000198803
6.16948e-05
0.000145082
0.000380117
0.00016467
0.0011672
0.000164319
4.32504e-05
0.000102613
0.000159628
0.000266057
0.000162898
8.48739e-05
0.000670605
0.000475202
0.00106584
0.000127482
6.4883e-05
7.83252e-05
0.000990033
0.000443546
0.000502061
0.000744631
0.0001377
0.000161421
6.84752e-05
0.00110715
0.000537772
0.000570023
0.000457467
0.00110262
0.000167851
0.000125883
7.05271e-05
0.0010847
0.000197906
0.000118472
0.00079183
7.88401e-05
7.25676e-05
0.00016818
5.02404e-05
9.54895e-05
8.06202e-05
0.000151219
0.00031423
0.000125291
8.35815e-05
9.12642e-05
0.000154279
0.000336147
0.000827418
0.000194356
8.3538e-05
0.000113513
0.000452419
0.000225922
0.000182133
0.000157257
9.4805e-05
7.83804e-05
0.000195028
0.000185126
0.000189578
5.18264e-05
0.000521235
0.000201954
0.000417589
0.000116406
0.000168687
0.000355256
7.91682e-05
0.000144975
0.000154696
0.000205019
6.98991e-05
0.000211771
0.000362976
0.000365612
0.00103243
0.000213403
0.000121815
4.42897e-05
0.000321186
0.000984395
0.000195814
0.000406235
0.000715085
8.76617e-05
6.01647e-05
0.000282014
0.000494821
0.000136798
9.57951e-05
6.39928e-05
6.50126e-05
6.57228e-05
0.000760559
7.76753e-05
0.000122231
0.000188769
4.61864e-05
0.00110703
0.000989493
0.000423149
0.000141925
5.08478e-05
8.57486e-05
4.60395e-05
0.000574752
0.000122514
0.000154836
0.000705803
0.000265124
0.000360214
0.000455725
7.33976e-05
7.27244e-05
0.000206571
6.28247e-05
8.33824e-05
0.00021062
0.000121751
0.000863672
4.50798e-05
0.000149167
0.000159381
0.000107109
0.000191939
4.62443e-05
8.63947e-05
6.54625e-05
7.37588e-05
0.00021182
0.000113023
7.98711e-05
0.000160037
6.34706e-05
0.000826501
0.000645869
0.000150684
0.000137896
9.34853e-05
0.000174583
0.000155165
0.000769368
0.000994025
0.000172617
0.000144647
8.05424e-05
0.00104122
0.000923809
0.000202469
4.89999e-05
0.000351488
0.000138909
5.73553e-05
0.000136161
0.000953424
0.000161596
0.000153643
9.18078e-05
0.0001849
0.000597534
7.21693e-05
0.000100255
0.000111339
0.000555819
0.000427906
0.000643833
0.000146706
0.00070279
0.000179681
0.000283757
0.000289311
0.000519387
0.000455425
8.25259e-05
0.000191339
8.85487e-05
0.00106242
0.000777395
0.000134387
0.000498024
0.000145218
7.12539e-05
0.000412243
0.000694903
6.67591e-05
0.000231507
0.00014381
5.45573e-05
0.000607204
0.00072439
0.000549977
0.000706678
0.000262765
0.000205008
4.38851e-05
0.000650627
0.000745037
0.000224536
6.577e-05
0.000184102
0.000161199
5.05369e-05
5.53021e-05
0.000772327
0.000795346
0.000188006
8.20181e-05
0.000130948
0.0001577
6.04057e-05
0.000425639
0.000149927
0.000141431
0.000982943
4.96142e-05
0.000103234
0.00013311
6.9905e-05
0.000165539
0.000166345
7.85003e-05
0.00026204
0.000149252
0.000321729
0.000808599
0.000132561
0.00052456
6.2802e-05
0.000629865
4.86865e-05
0.000606359
7.92778e-05
6.10764e-05
7.06696e-05
0.000169318
7.24867e-05
0.000141146
0.000145927
0.000171968
0.000162242
0.000788782
0.00041285
0.000734882
7.28943e-05
6.13164e-05
0.000169156
0.000126615
0.000123011
5.53662e-05
0.00028848
0.000375465
0.000708309
0.000257093
0.000327492
0.000969385
0.000357623
0.00037938
0.000342005
0.000152881
8.5601e-05
0.00106926
0.000942556
9.23709e-05
0.000205276
0.000508416
0.00066298
0.00015823
0.000170213
0.000179822
0.000940219
0.000188305
0.000121085
9.97058e-05
0.000111432
0.000179816
7.65154e-05
0.000163576
0.000543875
0.000194668
0.000167315
0.000256386
9.5608e-05
5.26579e-05
0.000103011
0.000345842
0.000166752
8.71776e-05
0.000135951
0.000698141
0.000521932
8.16533e-05
0.000258947
5.73699e-05
8.74854e-05
0.000850717
0.000185598
0.000178223
0.000397803
0.000842389
0.0003331
0.000760778
0.000751716
7.04234e-05
0.0010379
0.00023985
0.000757375
7.52412e-05
7.43459e-05
0.000862971
5.81143e-05
0.000389725
0.000233884
0.000358543
0.000274647
0.00094313
0.000207792
0.000147561
0.000465189
0.000957214
7.87865e-05
7.34515e-05
0.00101663
0.000194407
0.000387647
0.000710483
6.03933e-05
0.000101545
0.000151711
5.88718e-05
0.000610429
0.000336669
6.02098e-05
8.5869e-05
9.02484e-05
9.84624e-05
0.000139437
0.000134219
0.000216335
0.000146342
0.000589766
0.000956963
0.000157182
0.000215243
0.000204422
0.000122698
7.00718e-05
0.000794356
0.000929585
0.00111362
0.00119366
0.000136217
0.000163364
0.00017235
8.35319e-05
0.000385954
0.000855359
0.000909314
6.08325e-05
0.000283189
0.000632326
0.000172739
0.00119393
0.000505856
0.000725771
0.000931279
0.000107037
0.000103459
6.04945e-05
0.000139074
0.000408501
0.000200162
6.89231e-05
0.000287438
5.44477e-05
7.51907e-05
5.61161e-05
0.000982218
4.72247e-05
0.000121799
0.000755476
0.000120449
0.000140459
0.000652441
0.000991858
8.82084e-05
0.000157018
5.34333e-05
0.000165359
0.000782845
0.000114239
0.000135923
0.00102228
0.000998934
0.000546263
0.000105085
0.000586145
0.000352392
0.0005058
0.000212591
6.31685e-05
0.000261187
9.02447e-05
6.19869e-05
8.16961e-05
0.000879093
8.4218e-05
0.000599584
0.000180706
5.84016e-05
7.45988e-05
0.000163023
8.1251e-05
0.000158145
6.38662e-05
0.000208011
0.000248383
0.000685647
0.000316982
0.000133694
0.000168575
0.000540933
4.49223e-05
0.000125925
9.89411e-05
0.000140896
0.000641438
0.000133987
0.000386659
7.62496e-05
0.000558028
8.47216e-05
0.00037513
0.000125811
0.000723679
0.000145749
0.000132131
9.09766e-05
0.000109503
8.73423e-05
0.0011038
0.000143795
0.000878514
0.000277855
6.92519e-05
4.46928e-05
5.75751e-05
0.000136597
0.00012896
0.000145316
8.82217e-05
0.000914617
8.57397e-05
0.000335139
7.73714e-05
0.000138423
5.6955e-05
0.000124727
0.000170463
0.000167594
0.000224708
6.05608e-05
0.000700099
9.30704e-05
0.00100682
0.000176054
6.99174e-05
7.28028e-05
0.000346227
0.000438816
0.000170408
0.000121099
0.000456366
0.000403353
0.000185264
0.000105113
0.000652235
0.000364932
0.000577218
0.000162166
0.000208657
5.39538e-05
8.30845e-05
0.00031383
0.000133525
6.09675e-05
0.000212482
6.42454e-05
5.82336e-05
0.000152409
7.99494e-05
6.6188e-05
0.000773286
0.000125966
0.000402139
0.000202345
0.000492443
0.000133935
0.000972397
8.90333e-05
8.59908e-05
0.000237296
0.000531744
0.000152813
0.000253027
0.000449705
0.00032737
0.000206503
0.000138938
0.00024432
0.00109793
0.000170843
8.98418e-05
0.000180969
0.000127509
8.18995e-05
0.000139907
0.000303324
0.000122776
0.000185509
0.000151759
0.000139145
0.000132632
0.00059483
8.97633e-05
0.000842966
0.00010039
9.32959e-05
0.000482212
0.000974111
0.000451115
0.000172445
0.000156313
6.25004e-05
5.61054e-05
0.000339803
0.000167124
0.000124589
0.000169051
0.00020823
0.00084066
0.000158273
9.70031e-05
7.49203e-05
0.00110576
0.00111188
0.000408926
0.000141533
0.000152486
0.000142209
0.000279658
8.02023e-05
0.000129155
6.92785e-05
5.75815e-05
0.000171675
6.31103e-05
0.000195853
8.86353e-05
0.000201457
0.000915111
0.000397348
0.000189465
6.03533e-05
0.000112952
0.000904937
0.000311094
0.000102593
0.000439717
6.16394e-05
6.4464e-05
0.000133267
0.000211885
5.99491e-05
0.00109889
0.000885646
8.53077e-05
0.000152534
0.000535149
0.000400285
0.000760728
7.48157e-05
0.000162211
0.000199274
0.00022799
0.00013843
0.00072182
0.000143871
6.06062e-05
0.000172371
0.000150839
0.000229383
7.84842e-05
0.000130141
0.000133895
0.000197366
0.000355242
0.000889978
7.94117e-05
0.000143004
0.000464349
7.63291e-05
8.91046e-05
0.000329
0.000782063
0.000800705
0.000189531
0.00028681
8.39332e-05
9.27435e-05
0.000184793
0.000787506
0.000644301
5.44517e-05
0.000294409
0.000183842
6.45817e-05
0.000104906
0.000163907
0.000352923
0.000440087
0.000247098
0.000142221
0.000712183
0.000131826
0.000960496
8.06614e-05
0.000163763
0.000661727
0.000474106
8.03641e-05
0.000192486
0.000486272
0.000543072
0.000742314
9.25564e-05
0.000183955
0.000630079
0.000222543
0.000173152
0.000402587
8.55021e-05
0.00014334
9.54601e-05
8.13074e-05
0.000274726
0.00121251
4.5281e-05
0.000334658
0.000114283
0.00013601
0.000118663
0.000652972
0.000380551
0.000131281
0.000147873
5.2285e-05
0.000236224
0.000227312
0.000175793
5.72135e-05
0.000478667
0.000615942
0.000332446
0.000200618
6.27883e-05
0.00105852
0.000183563
0.000497615
5.69693e-05
0.000191155
0.000188587
8.84898e-05
6.67403e-05
0.000273267
0.000358154
0.000643035
0.000414905
0.000813682
0.000467009
0.000321992
0.000646742
6.18481e-05
0.000398858
0.000458404
5.31719e-05
0.00044644
5.24718e-05
0.000162361
7.32449e-05
0.000164232
0.000130836
9.38321e-05
0.000122242
5.45524e-05
0.000162055
0.000187166
0.000395826
0.00023312
6.88205e-05
0.000108565
0.000476081
5.08776e-05
0.000199659
0.000203344
0.000140872
8.66512e-05
0.000239204
0.000152547
0.00013005
4.48291e-05
0.000130514
0.000188376
0.000260249
0.00094595
0.000157687
0.000331917
0.000474995
0.000138282
0.00111077
4.58742e-05
0.00080147
9.0578e-05
7.82359e-05
6.17828e-05
0.00107319
0.000526071
0.000154824
0.000519824
0.000138902
0.000157418
0.00019735
7.69362e-05
0.00051628
0.000395043
0.000745771
6.84074e-05
5.71632e-05
0.000218034
0.000400741
0.000185701
0.000120065
0.000156497
0.000102657
0.000310774
9.3753e-05
0.000933841
4.57853e-05
5.28499e-05
0.000328956
0.000408694
0.000422349
6.19978e-05
7.08726e-05
7.09242e-05
9.80261e-05