/*--------------------------------*- C++ -*----------------------------------*\
| =========                 |                                                 |
| \\      /  F ield         | OpenFOAM: The Open Source CFD Toolbox           |
|  \\    /   O peration     | Version:  2406                                  |
|   \\  /    A nd           | Website:  www.openfoam.com                      |
|    \\/     M anipulation  |                                                 |
\*---------------------------------------------------------------------------*/
FoamFile
{
    version     2.0;
    format      ascii;
    arch        "LSB;label=32;scalar=64";
    class       volScalarField;
    location    "26";
    object      p;
}
// * * * * * * * * * * * * * * * * * * * * * * * * * * * * * * * * * * * * * //

dimensions      [0 2 -2 0 0 0 0];

internalField   nonuniform List<scalar> 
59516
(
0.382408
0.0235959
0.0215044
0.00287676
0.396453
0.416748
0.383409
0.345813
0.116613
0.00010249
0.390931
0.384867
0.275392
0.381617
0.361656
0.117911
0.38417
0.39172
0.38847
0.38031
0.387581
0.345568
0.383172
0.254927
0.104267
0.245573
0.145103
0.390998
0.386301
0.361236
0.399709
0.391258
0.18493
0.00252577
0.388637
0.328251
0.0994035
0.394694
0.386948
0.0200292
0.0244484
0.391219
0.387697
0.00191786
0.386267
0.0624727
0.387034
0.387651
0.39807
0.389209
0.403818
0.00249638
0.189606
0.35286
0.38724
0.38602
0.392593
0.00285931
0.254732
0.389703
0.0027917
0.320631
0.255872
0.384148
0.00554662
0.386444
0.0130595
0.333391
0.398419
0.386077
0.338874
0.380753
0.0699955
0.38181
0.335727
0.385667
0.386972
0.0435562
0.280088
0.388837
0.00231042
0.388667
0.387665
0.164544
0.388605
0.379499
0.11644
0.380372
0.186472
0.391741
0.39469
0.34116
0.374531
0.337201
0.338425
0.397816
0.361468
0.346836
0.388418
0.271997
0.126074
0.227532
0.355865
0.0141251
0.0691159
0.0108906
0.0103964
0.110013
0.197799
0.282222
0.396472
0.13698
0.341892
0.396899
0.371127
0.311893
0.0470147
0.353125
0.353001
0.0482375
0.355136
0.350648
0.0935306
0.352854
0.395199
0.388543
0.37192
0.392753
0.403755
0.373296
0.370122
0.0241157
0.335056
0.373954
0.374746
0.331248
0.39519
0.366022
0.22853
0.378547
0.137506
0.172822
0.346049
0.136562
0.379031
0.376553
0.386666
0.381892
0.402513
0.375447
0.378969
0.00524836
0.371343
0.00530511
0.373659
0.00841962
0.00760125
0.374675
0.375293
0.363528
0.379052
0.378744
0.362916
0.00728738
0.309507
0.0444917
0.116326
0.376243
0.376958
0.00710713
0.373882
0.3739
0.367722
0.36918
0.368142
0.387493
0.314035
0.388434
0.0217547
0.310303
0.371238
0.2033
0.24007
0.370166
0.371259
0.129131
0.178181
0.0995566
0.372765
0.369136
0.000787127
0.201835
0.376497
0.369155
0.377534
0.0310879
0.229869
0.228769
0.00628837
0.366822
1.9921e-05
0.0976951
0.34879
0.273955
0.321242
0.202264
0.377023
0.00571968
0.261452
0.358143
0.0657818
0.390805
0.356689
0.323368
0.358257
0.146375
0.375757
0.0307521
0.298272
0.358479
0.358161
0.376477
0.367361
0.00777341
0.362626
0.313132
0.260181
0.273282
0.367354
0.0565437
0.361635
0.199816
0.367541
0.209408
0.221281
0.36807
0.366192
0.0783211
0.365921
0.0837032
0.371854
0.203468
0.196913
0.00615595
0.373063
0.372295
0.369971
0.0195825
0.36747
0.372363
0.0199264
0.369511
0.372348
0.238386
0.37158
0.37212
0.118244
0.364865
0.287596
0.360727
0.264856
0.362821
0.364889
0.364604
0.327322
0.0900109
0.299076
0.107131
0.361659
0.250535
0.384327
0.320652
0.113717
0.25582
0.3633
0.329011
0.250733
0.361788
0.362951
0.147415
0.367001
0.274697
0.256147
0.359355
0.357448
0.383083
0.371791
0.0126673
0.365104
0.329661
0.363823
0.360117
0.337869
0.0449635
0.342282
0.196324
0.330957
0.325267
0.360886
0.32901
0.329082
0.0942146
0.153342
0.320316
0.334498
0.245373
0.0303028
0.328538
0.331237
0.125432
0.103558
0.329711
0.240216
0.226812
0.386332
0.333116
0.349431
0.398368
0.33194
0.09875
0.199815
0.348123
0.212444
0.35211
0.275072
0.334097
0.390485
0.34914
0.260717
0.351214
0.0348622
0.379187
0.257116
0.351074
0.290979
0.360561
0.365292
0.319347
0.389748
0.357734
0.323078
0.319274
0.353002
0.0780139
0.162492
0.357522
0.150966
0.363587
0.353255
0.288464
0.367468
0.368954
0.0570211
0.189358
0.260408
0.0800086
0.0133345
0.396531
0.401018
0.311884
0.0509281
0.374678
0.389568
0.343056
0.0495612
0.351114
0.350444
0.3755
0.400148
0.356018
0.133013
0.131417
0.349847
0.267954
0.305631
0.348979
0.351474
0.344312
0.283373
0.336164
0.376103
0.00318707
0.390188
0.0174856
0.0300236
0.351302
0.0124136
0.3898
0.350431
0.0225077
0.0214647
0.0884616
0.345045
0.395121
0.34847
0.395459
0.0190788
0.118
0.344772
0.346016
0.359713
0.341851
0.285543
0.36019
0.361965
0.0955077
0.228428
0.362299
0.360154
0.359003
0.0624291
0.0340391
0.0373051
0.208379
0.321931
0.0159957
0.0554228
0.109839
0.00820868
0.343956
0.34126
0.348661
0.348194
0.363542
0.348156
0.271458
0.340158
0.236678
0.349056
0.293698
0.3537
0.347122
0.328556
0.210693
0.360885
0.390466
0.0357519
0.354554
0.266366
0.129965
0.271059
0.298498
0.356425
0.353736
0.349501
0.347368
0.125154
0.347256
0.273051
0.0442021
0.301399
0.401178
0.234797
0.10197
0.350068
0.290282
0.346125
0.221472
0.34649
0.100326
0.347833
0.00710419
0.0131181
0.342741
0.387811
0.339524
0.315592
0.0592553
0.320607
0.317779
0.0660313
0.330488
0.317339
0.310245
0.309537
0.157594
0.321732
0.312701
0.216627
0.309492
0.139448
0.30601
0.390948
0.306362
0.403005
0.307815
0.36624
0.135573
0.155813
0.269153
0.00737173
0.00509711
0.290637
0.327346
0.334107
0.260155
0.313694
0.078834
0.342185
0.339315
0.391933
0.229567
0.201909
0.274802
0.338891
0.0319895
0.33134
0.382986
0.00806802
0.422871
0.340779
0.105552
0.37877
0.28845
0.384892
0.319146
0.27861
0.306141
0.343462
0.282939
0.343717
0.374743
0.12005
0.120753
0.395856
0.00525136
0.341715
0.329007
0.394995
0.326843
0.379127
0.00188303
0.33228
0.136378
0.000992946
0.25392
0.061747
0.393231
0.35258
0.112259
0.0050895
0.360676
0.206161
0.330341
0.359767
0.329201
0.375505
0.00158785
0.167376
0.109943
0.329499
0.0560622
0.245159
0.342104
0.214744
0.339896
0.00465461
0.345862
0.105465
0.34106
0.270533
0.187186
0.173615
0.343885
0.0041178
0.0684123
0.327098
0.129476
0.26206
0.297424
0.198236
0.190543
0.327327
0.326623
0.369841
0.324226
0.188794
0.326727
0.324024
0.180557
0.160419
0.00159774
0.326028
0.325577
0.328296
0.153838
0.315186
0.0162993
0.32931
0.00978393
0.344189
0.00131794
0.0383803
0.280567
0.201302
0.0186706
0.329949
0.393589
0.00608095
0.0274526
0.325261
0.32033
0.0525344
0.323077
0.325552
0.222298
0.0642023
0.344398
0.333775
0.0225283
0.32762
0.328014
0.24364
0.322359
0.402312
0.328286
0.395681
0.284126
0.397988
0.287504
0.0359949
0.378088
0.00971541
0.00982273
0.39973
0.398378
0.290156
0.327492
0.393027
0.389828
0.205365
0.165295
0.268701
0.100551
0.285157
0.190842
0.390165
0.289052
0.291806
0.316763
0.300519
0.400156
0.272621
0.305809
0.0856623
0.307137
0.230214
0.0289458
0.30702
0.305274
0.307028
0.232146
0.14054
0.408379
0.196049
0.20134
0.238124
0.360886
0.307719
0.102778
0.285095
0.238303
0.0208753
0.105492
0.310679
0.354679
0.249694
0.232846
0.309843
0.309795
0.126867
0.369274
0.324583
0.216084
0.320175
0.260414
0.335046
0.316397
0.0169451
0.0396371
0.288397
0.400681
0.228616
0.214543
0.00612612
0.244582
0.315764
0.184373
0.330936
0.324106
0.140467
0.192681
0.328034
0.378362
0.34436
0.264693
0.400228
0.328336
0.0526785
0.340956
0.402835
0.0338796
0.192401
0.360677
0.308905
0.122054
0.300145
0.0360953
0.0279131
0.264112
0.309608
0.400298
0.347175
0.308886
0.308231
0.317217
0.142382
0.0177497
0.103294
0.344732
0.399688
0.2369
0.313146
0.213138
0.0912494
0.3079
0.0970268
0.30914
0.384596
0.194559
0.00280176
0.351527
0.150726
0.318185
0.0277114
0.121405
0.241195
0.35648
0.315447
0.318008
0.400959
0.356016
0.0603784
0.402906
0.00643552
9.39486e-05
0.317081
0.064903
0.175822
0.241118
0.168699
0.400488
0.312133
0.351321
0.305541
0.0713729
0.257854
0.0813411
0.198736
0.349041
0.304791
0.307776
0.304294
0.114517
0.37299
0.286785
0.101549
0.306622
0.304122
0.302601
0.283673
0.306328
0.0294259
0.0187774
0.303861
0.0063481
0.187884
0.214695
0.0159876
0.225406
0.263221
0.381507
0.290815
0.339705
0.269099
0.198986
0.307776
0.310486
0.310452
0.169493
0.309321
0.373403
0.0271844
0.00481215
0.209319
0.180801
0.00558528
0.308621
0.304747
0.306579
0.0283717
0.0467392
0.303946
0.359608
0.0434321
0.060095
0.400448
0.391826
0.312844
0.0615495
0.326638
0.290544
0.334349
0.26497
0.300595
0.394041
0.265044
0.264421
0.137612
0.266743
0.395487
0.0501118
0.297285
0.265424
0.160654
0.322641
0.333466
0.139388
0.322337
0.356734
0.325488
0.264712
0.385725
0.0806782
0.264125
0.34906
0.0232523
0.28272
0.110416
0.260334
0.144457
0.394556
0.27042
0.00575495
0.262224
0.260064
0.275962
0.263156
0.243676
0.00838961
0.0652311
0.321791
0.279769
0.231823
0.325995
0.168072
0.357872
0.0368607
0.278485
0.125763
0.253548
0.326723
0.0243109
0.28307
0.277744
0.3968
0.0380282
0.334703
0.36395
0.0619565
0.272716
0.0648334
0.223519
0.309717
0.333027
0.272472
0.271151
0.270268
0.400227
0.0481063
0.331522
0.167848
0.0294831
0.27404
0.338444
0.288944
0.287963
0.0499238
0.292226
0.294759
0.156554
0.366866
0.398958
0.381599
0.222244
0.29498
0.00600434
0.388936
0.267558
0.290734
0.244109
0.293906
0.292049
0.299448
0.325231
0.300449
0.332922
0.293091
0.377819
0.380216
0.291269
0.320198
0.289795
0.333476
0.334075
0.02153
0.195531
0.231541
0.0207798
0.308797
0.294694
0.311319
0.165524
0.0106986
0.17214
0.289852
0.316482
0.316772
0.190461
0.219956
0.313022
0.397369
0.297208
0.0133465
0.0289051
0.344818
0.298581
0.182296
0.241468
0.294931
0.196738
0.28387
0.28449
0.28393
0.24485
0.319716
0.283314
0.401376
0.0373677
0.282909
0.401652
0.284221
0.365466
0.0638971
0.281709
0.179949
0.1373
0.284169
0.282986
0.177426
0.181856
0.281685
0.152021
0.278433
0.279539
0.289829
0.168059
0.27677
0.0473228
0.280739
0.279929
0.191273
0.277363
0.278146
0.38256
0.270861
0.229203
0.273188
0.275678
0.192705
0.0931128
0.165914
0.39
0.278952
0.280118
0.238194
0.095225
0.390505
0.243126
0.246379
0.239217
0.238509
0.0177749
0.0102151
0.0773495
0.1586
0.279853
0.279663
0.00953211
0.345474
0.265433
0.121359
0.390415
0.232311
0.230588
0.392688
0.235126
0.335611
0.0706991
0.231373
0.327061
0.302747
0.23239
0.172611
0.0611168
0.233177
0.345507
0.311078
0.180257
0.0856062
0.13853
0.244026
0.143404
0.344912
0.136896
0.240396
0.256915
0.396623
0.187292
0.0168793
0.0892842
0.140282
0.236012
0.342893
0.254837
0.254068
0.0311822
0.201952
0.0140099
0.258604
0.258591
0.141537
0.0208621
0.306429
0.0610215
0.371388
0.284814
0.280536
0.38887
0.139789
0.328279
0.340779
0.232028
0.0256528
0.280429
0.386802
0.277826
0.274431
0.23603
0.122361
0.279334
0.0268264
0.387773
0.346885
0.190373
0.279395
0.267727
0.344087
0.380664
0.330181
0.044959
0.12402
0.275694
0.287456
0.323183
0.184769
0.317559
0.391737
0.273908
0.320532
0.110988
0.282905
0.215626
0.132969
0.282416
0.283387
0.282306
0.322073
0.276773
0.0636495
0.277974
0.122189
0.315113
0.031431
0.27566
0.319359
0.0069483
0.0349859
0.270816
0.105421
0.0701571
0.110542
0.0923515
0.167613
0.0591763
0.274176
0.272297
0.047506
0.270644
0.272637
0.318129
0.0166272
0.274344
0.264534
0.00284967
0.0373544
0.259925
0.151317
0.00568689
0.0208818
0.260857
0.188574
0.268206
0.384184
0.0259708
0.318164
0.242758
0.26723
0.262661
0.238995
0.301413
0.277399
0.270769
0.247581
0.387657
0.348881
0.268091
0.27198
0.36307
0.0538058
0.346074
0.301546
0.186183
0.174201
0.271482
0.124504
0.0306229
0.252217
0.258863
0.402343
0.219182
0.259181
0.257001
0.295851
0.123297
0.257128
0.258283
0.377048
0.258921
0.116785
0.262611
0.262782
0.212908
0.192975
0.232116
0.262373
0.258796
0.262326
0.180172
0.224247
0.267207
0.235588
0.177036
0.189142
0.189756
0.190433
0.219583
0.260223
0.22357
0.390547
0.365125
0.0650599
0.15907
0.1671
0.221179
0.218166
0.224162
0.285236
0.219763
0.218384
0.131086
0.166141
0.303144
0.130944
0.0509859
0.223062
0.221035
0.225791
0.369538
0.0220508
0.0114413
0.156151
0.238667
0.234138
0.345889
0.0529719
0.222607
0.390674
0.0630568
0.235535
0.236341
0.27925
0.00253648
0.233221
0.234005
0.233068
0.251998
0.00841277
0.0127503
0.252868
0.252378
0.248813
0.250464
0.259509
0.245472
0.123024
0.0245414
0.395318
0.310917
0.253463
0.251397
0.191526
0.382956
0.374955
0.351714
0.00266483
0.35251
0.254956
0.255409
0.252533
0.253784
0.255216
0.25297
0.339066
0.213257
0.3313
0.224172
0.122331
0.0219126
0.256735
0.192228
0.00747044
0.226706
0.263674
0.387018
0.265565
0.181944
0.175798
0.306341
0.199178
0.26068
0.269864
0.266637
0.218401
0.235698
0.38306
0.259938
0.328373
0.117861
0.0968893
0.256673
0.10067
0.0344143
0.263888
0.262066
0.19671
0.132003
0.151703
0.365963
0.262427
0.0767474
0.00937644
0.235792
0.0425603
0.187993
0.254484
0.309907
0.236201
0.0389598
0.37213
0.0232386
0.362638
0.206984
0.346924
0.242899
0.0681341
0.257225
0.232483
0.146867
0.176989
0.2578
0.258255
0.372754
0.312492
0.330886
0.378439
0.321365
0.310161
0.310658
0.337211
0.252797
0.250683
0.199044
0.100156
0.113968
0.0274342
0.34824
0.199858
0.247296
0.244202
0.245599
0.067653
0.240799
0.333308
0.00741807
0.240452
0.247969
0.281078
0.398002
0.334497
0.333344
0.242763
0.0206845
0.347383
0.245258
0.293807
0.257456
0.29877
0.317686
0.226339
0.3434
0.250151
0.313148
0.256468
0.0310968
0.335212
0.3441
0.203359
0.393621
0.11409
0.132088
0.114947
0.22299
0.32758
0.0922562
0.292227
0.0946899
0.251781
0.251323
0.21766
0.260835
0.237053
0.360581
0.301793
0.233926
0.309631
0.244679
0.399109
0.341079
0.24427
0.237404
0.300935
0.355944
0.239938
0.0395885
0.291653
0.360403
0.236211
0.21547
0.241891
0.24631
0.248642
0.25007
0.00665987
0.1145
0.25116
0.393005
0.249925
0.205424
0.321838
0.201663
0.174852
0.360879
0.393099
0.336329
0.336277
0.338437
0.0522137
0.23397
0.278584
0.391547
0.379197
0.393696
0.397292
0.378942
0.208259
0.203708
0.392184
0.0893012
0.209501
0.309206
0.20549
0.335675
0.316164
0.391778
0.371551
0.33517
0.113857
0.208762
0.229851
0.221941
0.23307
0.339629
0.310109
0.230937
0.22466
0.227734
0.0249536
0.356169
0.0643455
0.233839
0.27337
0.241464
0.235127
0.227625
0.0642375
0.237808
0.210428
0.236745
0.235792
0.344247
0.214687
0.122765
0.0738748
0.325713
0.169006
0.167518
0.317544
0.14004
0.0768726
0.066168
0.050181
0.314102
0.105881
0.213179
0.265704
0.0487085
0.35186
0.353286
0.150081
0.14556
0.375687
0.220493
0.0237244
0.258069
0.0496142
0.305948
0.0471474
0.0735052
0.0292895
0.016935
0.125784
0.346414
0.0711617
0.0374768
0.0398492
0.231183
0.0446826
0.228201
0.353837
0.234518
0.230667
0.312685
0.071105
0.238851
0.237337
0.0184877
0.114749
0.347537
0.238916
0.239897
0.315994
0.354721
0.339812
0.352981
0.0846294
0.383703
0.392321
0.238531
0.240817
0.0214221
0.363989
0.39077
0.236404
0.180756
0.235745
0.0269804
0.341037
0.0103172
0.0704424
0.222118
0.283189
0.224293
0.183068
0.349531
0.16752
0.332941
0.222849
0.223792
0.111191
0.212249
0.193521
0.387494
0.34945
0.303363
0.222925
0.356198
0.123398
0.0682488
0.102968
0.0213284
0.223505
0.352296
0.222693
0.0214906
0.0180586
0.344157
0.225495
0.106883
0.365582
0.225915
0.226725
0.345408
0.0304513
0.34264
0.227397
0.231929
0.233649
0.245939
0.234424
0.337556
0.33262
0.234272
0.374656
0.25009
0.332293
0.282547
0.231285
0.352947
0.225749
0.182019
0.377226
0.25548
0.229458
0.0183276
0.235353
0.233856
0.17562
0.224703
0.307327
0.0894692
0.349348
0.214452
0.322228
0.337315
0.230271
0.250464
0.0170286
0.108303
0.0858583
0.227941
0.351041
0.0289101
0.222608
0.377381
0.0845674
0.318239
0.0793305
0.223116
0.272662
0.221742
0.00267365
0.291027
0.350903
0.175921
0.0542692
0.0869595
0.170273
0.172862
0.184683
0.347043
0.0176138
0.0544299
0.193152
0.195922
0.331349
0.307644
0.19503
0.204586
0.187533
0.283179
0.378615
0.358417
0.248984
0.0446708
0.32807
0.326324
0.148799
0.0754614
0.300224
0.140971
0.193008
0.312215
0.249478
0.25474
0.217603
0.187608
0.20312
0.202667
0.19924
0.318341
0.206864
0.275306
0.374299
0.350814
0.30948
0.340703
0.188681
0.137663
0.348605
0.208021
0.312813
0.245061
0.323584
0.385299
0.195256
0.0118477
0.209973
0.213143
0.223416
0.346578
0.20899
0.219793
0.253517
0.223356
0.253406
0.212671
0.00245434
0.251296
0.219629
0.218148
0.00828314
0.311206
0.381031
0.250828
0.260869
0.198963
0.222439
0.220607
0.0893133
0.378469
0.223072
0.223159
0.225208
0.0537872
0.346951
0.238467
0.20127
0.250965
0.130436
0.170108
0.330229
0.206817
0.201522
0.163905
0.202293
0.218293
0.13742
0.206595
0.346296
0.233632
0.118614
0.345452
0.346522
0.181769
0.181904
0.153745
0.207095
0.0915803
0.212654
0.100469
0.401083
0.324432
0.270826
0.131032
0.031407
0.359162
0.0296464
0.0332684
0.206466
0.00329633
0.206979
0.0463774
0.272702
0.143772
0.204891
0.30449
0.274258
0.206768
0.0406351
0.0332368
0.267808
0.203265
0.0586687
0.207529
0.205217
0.233971
0.215891
0.384422
0.314181
0.358388
0.269525
0.306126
0.206306
0.313919
0.271409
0.206572
0.361254
0.388773
0.304491
0.297303
0.206611
0.338088
0.201754
0.359253
0.264173
0.310499
0.0303305
0.061887
0.294732
0.0167265
0.349918
0.400665
0.363623
0.0198944
0.0881736
0.0284562
0.343908
0.357235
0.0109852
0.274126
0.196457
0.337081
0.281579
0.196077
0.208834
0.0473714
0.299413
0.304381
0.0862953
0.384141
0.359053
0.220985
0.198478
0.395514
0.196872
0.389528
0.302551
0.299655
0.198942
0.370981
0.176374
0.368506
0.346105
0.373192
0.0114613
0.202674
0.382138
0.1079
0.39129
0.203538
0.37516
0.153908
0.15272
0.162582
0.385359
0.326006
0.372033
0.324646
0.173812
0.381836
0.38224
0.154614
0.383751
0.181469
0.313932
0.170318
0.325742
0.218432
0.147636
0.208491
0.144202
0.209236
0.0321139
0.183159
0.167297
0.360077
0.161987
0.303426
0.231245
0.272211
0.178495
0.0580683
0.132865
0.306078
0.170498
0.35903
0.114932
0.186995
0.368706
0.311895
0.190065
0.336986
0.187189
0.1704
0.167062
0.215738
0.179515
0.00326919
0.0587085
0.065521
0.171331
0.172617
0.308757
0.0756073
0.043171
0.162263
0.108654
0.357354
0.329173
0.0516243
0.191013
0.27563
0.180017
0.192859
0.15456
0.188886
0.32742
0.188324
0.26149
0.00112993
0.353263
0.257239
0.392954
0.194198
0.188295
0.033439
0.3602
0.143584
0.194859
0.314118
0.202201
0.196857
0.184872
0.182125
0.0490042
0.200855
0.192972
0.194464
0.18586
0.215337
0.189758
0.353306
0.156423
0.197352
0.356408
0.392625
0.268157
0.161841
0.295936
0.19374
0.176803
0.167888
0.0903973
0.158014
0.144699
0.379607
0.159963
0.21578
0.213664
0.0532203
0.157609
0.352912
0.180302
0.184645
0.25554
0.240848
0.177272
0.278039
0.216926
0.181865
0.178529
0.202296
0.178958
0.351272
0.339969
0.162136
0.156048
0.172131
0.07019
0.183421
0.216871
0.308111
0.178017
0.184781
0.16935
0.187414
0.35408
0.155427
0.344579
0.183683
0.177245
0.164976
0.178472
0.139502
0.173702
0.141818
0.124093
0.175665
0.376544
0.200078
0.374082
0.256479
0.11945
0.0383949
0.153631
0.35285
0.180478
0.177696
0.131174
0.180517
0.129987
0.355381
0.353521
0.13614
0.137052
0.143588
0.144303
0.286771
0.22759
0.140836
0.141593
0.10657
0.175528
0.144046
0.144405
0.0831725
0.0794907
0.00297821
0.144762
0.28922
0.0491822
0.227946
0.150263
0.153925
0.161187
0.206041
0.350293
0.184067
0.13207
0.0192964
0.0310626
0.231219
0.151529
0.144173
0.199288
0.050204
0.0335219
0.153812
0.351889
0.171318
0.173833
0.081822
0.161376
0.386518
0.165795
0.162659
0.22553
0.165587
0.171446
0.352103
0.172544
0.195845
0.030612
0.00750697
0.280225
0.0591711
0.0338951
0.178067
0.146794
0.352391
0.17427
0.363976
0.363637
0.169387
0.350548
0.0124778
0.16378
0.174774
0.0552499
0.177026
0.364297
0.39297
0.0809538
0.359097
0.173673
0.306431
0.335767
0.175218
0.183402
0.36213
0.171494
0.384833
0.174828
0.210768
0.189212
0.385736
0.359247
0.212793
0.178941
0.17345
0.318798
0.210205
0.319559
0.359312
0.354151
0.179068
0.020841
0.180084
0.16704
0.316823
0.136769
0.317465
0.0673881
0.335967
0.000720624
0.353563
0.211551
0.150505
0.164923
0.357404
0.161673
0.352817
0.344323
0.356711
0.0216284
0.00626275
0.321634
0.00692247
0.161301
0.208538
0.278864
0.15823
0.345284
0.238814
0.350271
0.154362
0.347678
0.291693
0.316508
0.394231
0.218325
0.378664
0.153779
0.0174546
0.239953
0.016078
0.391538
0.07489
0.231536
0.31675
0.169808
0.160976
0.0231059
0.0542381
0.164234
0.325828
0.356583
0.0113722
0.364889
0.21257
0.384447
0.097254
0.328836
0.163904
0.29199
0.358638
0.288635
0.271766
0.30447
0.330977
0.350224
0.268018
0.0701407
0.311347
0.167506
0.16753
0.167391
0.0997662
0.377448
0.378948
0.313836
0.182967
0.34504
0.354351
0.183415
0.168454
0.166862
0.161105
0.377881
0.0799137
0.157932
0.248284
0.161436
0.311168
0.288166
0.193523
0.095221
0.162184
0.159938
0.2266
0.390246
0.260578
0.160311
0.347272
0.114068
0.0864908
0.373004
0.00904651
0.113347
0.0233583
0.114273
0.113829
0.34848
0.157875
0.290673
0.346619
0.198397
0.168918
0.358435
0.120338
0.354635
0.151442
0.156172
0.156362
0.31649
0.268791
0.354023
0.324531
0.341768
0.133879
0.232011
0.359322
0.337619
0.168009
0.336751
0.117084
0.311844
0.0753044
0.315507
0.160504
0.283404
0.142627
0.2173
0.337472
0.114041
0.338367
0.0865039
0.173157
0.140218
0.0499557
0.147089
0.137519
0.194519
0.354067
0.144261
0.0650733
0.0291978
0.317337
0.0322152
0.340679
0.00719394
0.150281
0.0817282
0.149263
0.338027
0.342998
0.0757846
0.376447
0.052077
0.00283731
0.315798
0.286117
0.147493
0.338464
0.111066
0.0320737
0.189696
0.00516925
0.24117
0.30221
0.223014
0.150715
0.388819
0.152403
0.245822
0.315915
0.20203
0.342304
0.14724
0.220687
0.145639
0.227373
0.376043
0.156249
0.135366
0.228535
0.146374
0.255188
0.145433
0.0945941
0.144975
0.376192
0.144333
0.138246
0.14267
0.368024
0.183632
0.355726
0.380095
0.378111
0.277364
0.0776578
0.106002
0.289013
0.338445
0.0354211
0.101525
0.142667
0.140496
0.340619
0.391368
0.00442935
0.0510944
0.12932
0.35569
0.0508448
0.203914
0.341369
0.138932
0.137122
0.138725
0.133935
0.138873
0.279485
0.170621
0.335433
0.0368905
0.14445
0.139609
0.370076
0.217549
0.365017
0.382319
0.07461
0.140139
0.105435
0.368105
0.371701
0.36449
0.362383
0.19261
0.104009
0.357283
0.0757641
0.139835
0.3309
0.156297
0.138548
0.110013
0.135357
0.327846
0.325678
0.13887
0.245663
0.156476
0.155612
0.389084
0.0391963
0.0852002
0.139833
0.140847
0.0136402
0.14053
0.106863
0.148755
0.321632
0.141768
0.0265794
0.151643
0.013149
0.371356
0.361585
0.195501
0.144666
0.148628
0.170056
0.126937
0.115924
0.174126
0.122192
0.120156
0.105938
0.122614
0.373447
0.336684
0.204707
0.316621
0.128875
0.326529
0.103492
0.316747
0.265632
0.303702
0.124741
0.232128
0.0292477
0.326445
0.35038
0.143587
0.396433
0.128968
0.132232
0.220338
0.0336186
0.171875
0.133294
0.32481
0.102509
0.142631
0.138901
0.0964144
0.272403
0.0962989
0.0943996
0.0977791
0.0988414
0.0971295
0.318935
0.321194
0.32957
0.315769
0.0603901
0.0976672
0.366403
0.107588
0.0586226
0.106503
0.105342
0.0629201
0.107053
0.105966
0.105961
0.133429
0.129157
0.236441
0.14733
0.166262
0.213762
0.183758
0.170423
0.0618016
0.13478
0.132938
0.101711
0.109473
0.131101
0.257221
0.0264126
0.302172
0.388854
0.238611
0.377209
0.131694
0.0289627
0.0310227
0.0313282
0.179709
0.0323382
0.126926
0.130624
0.357022
0.396255
0.222011
0.118247
0.36157
0.201897
0.247128
0.129117
0.251613
0.129174
0.25863
0.10933
0.0559291
0.0693198
0.123204
0.00225331
0.133164
0.359641
0.0985444
0.298781
0.0383714
0.119461
0.122717
0.339619
0.166847
0.259193
0.186727
0.257969
0.120943
0.0232918
0.363946
0.145788
0.240559
0.358379
0.358148
0.125065
0.106549
0.126056
0.190973
0.124603
0.252752
0.338126
0.196304
0.126538
0.127429
0.202566
0.230369
0.282246
0.126596
0.12927
0.129752
0.360065
0.128056
0.129988
0.0456762
0.114693
0.059656
0.0229145
0.057926
0.0363658
0.112251
0.11547
0.0189465
0.0906576
0.0185658
0.356187
0.117703
0.0657922
0.3569
0.277894
0.176405
0.100961
0.122432
0.0194565
0.11902
0.266763
0.189495
0.117285
0.364347
0.0562203
0.00682279
0.118439
0.403525
0.186396
0.243538
0.0212653
0.119047
0.117953
0.282257
0.0209014
0.184092
0.236368
0.110436
0.118568
0.122196
0.395825
0.374101
0.365116
0.17812
0.0594485
0.0239787
0.0209931
0.367819
0.0209253
0.0735205
0.123224
0.392274
0.145208
0.125922
0.334674
0.366635
0.26691
0.254403
0.125309
0.122186
0.357389
0.309865
0.327151
0.0355538
0.303305
0.0799075
0.168014
0.0658399
0.120296
0.192393
0.373538
0.193253
0.190937
0.383513
0.113568
0.359494
0.0854886
0.251253
0.292795
0.373046
0.192762
0.363041
0.10763
0.0890984
0.0521904
0.112995
0.363811
0.0857857
0.0770324
0.231093
0.088538
0.0879105
0.0956342
0.0307441
0.174813
0.116089
0.137438
0.0808068
0.105513
0.0929561
0.0625032
0.367299
0.261555
0.0855019
0.118617
0.400779
0.223039
0.113738
0.23955
0.114967
0.213151
0.112318
0.365126
0.0841046
0.397707
0.0709576
0.0637643
0.232641
0.0869129
0.254465
0.223164
0.268186
0.0351792
-0.000566458
0.0468335
0.039598
0.0714141
0.0255664
0.0784488
0.073525
0.0726705
0.380898
0.0473295
0.368574
0.368209
0.0569761
0.352233
0.120176
0.360994
0.338244
0.0827411
0.354646
0.0832988
0.00373506
0.266773
0.171817
0.344089
0.336875
0.18956
0.0283288
0.0513159
0.270547
0.292947
0.0849699
0.0823825
0.112142
0.297262
0.324584
0.243748
0.0299022
0.0218351
0.111518
0.27484
0.301771
0.329725
0.381722
0.114576
0.345376
0.318499
0.241698
0.398526
0.171658
0.221251
0.279149
0.10777
0.370581
0.0201544
0.166311
0.317342
0.287016
0.335739
0.368671
0.0333769
0.165694
0.111448
0.198114
0.112509
0.183837
0.203624
0.196977
0.143063
0.11213
0.110862
0.107595
0.145368
0.379912
0.157079
0.141211
0.150168
0.362464
0.322771
0.0312203
0.370236
0.11192
0.107483
0.22288
0.0943518
0.094745
0.132296
0.0318368
0.0933243
0.0997906
0.023357
0.0882252
0.086041
0.0952237
0.124583
0.104651
0.105682
0.367481
0.0688568
0.0851852
0.0613892
0.114676
0.0609813
0.0558404
0.109126
0.0257038
0.0268873
0.153886
0.0613285
0.0548489
0.369306
0.109503
0.0826031
0.0769627
0.0287394
0.0685587
0.10864
0.111497
0.0991195
0.174954
0.238257
0.272603
0.206526
0.027799
0.0981866
0.0964785
0.0997865
0.310303
0.151594
0.111153
0.388408
0.0978394
0.15063
0.0972366
0.100211
0.263354
0.271697
0.0964392
0.160894
0.338821
0.336636
0.152007
0.0976389
0.366462
0.0974161
0.209072
0.0983521
0.392866
0.0991148
0.305441
0.0967874
0.262388
0.316456
0.360051
0.330841
0.0957898
0.319795
0.234197
0.261849
0.0976178
0.0399366
0.171029
0.239238
0.0976894
0.0969442
0.0982984
0.170963
0.0869976
0.382747
0.283912
0.0371623
0.366994
0.0914692
0.357941
0.0361904
0.0835045
0.0892183
0.309114
0.0963383
0.268574
0.380047
0.0847838
0.0915891
0.148178
0.37476
0.309739
0.308104
0.0928486
0.324868
0.278095
0.09105
0.151589
0.128189
0.0894919
0.0892119
0.268441
0.328619
0.0997464
0.155595
0.125393
0.364341
0.357799
0.363477
0.0969813
0.36613
0.0642207
0.292075
0.336114
0.194961
0.264999
0.0972371
0.371927
0.0458355
0.0516015
0.0556504
0.163258
0.0559963
0.175944
0.172227
0.15279
0.190077
0.301418
0.156201
0.230973
0.0149307
0.0651212
0.132759
0.221117
0.092651
0.247109
0.340432
0.179258
0.294672
0.284782
0.0177892
0.0549965
0.260598
0.0655784
0.00110518
0.370467
0.311125
0.35696
0.0534196
0.370127
0.146388
0.354398
0.1394
0.35914
0.13921
0.365327
0.06079
0.325296
0.0889518
0.277923
0.141649
0.286761
0.146238
0.40705
0.0901779
0.121934
0.302454
0.278977
0.0867913
0.189252
0.279439
0.0903247
0.252013
0.0352604
0.251381
0.0817649
0.0789778
0.122928
0.369898
0.0904925
0.0564096
0.089409
0.092232
0.165052
0.313594
0.103082
0.0930286
0.164787
0.164968
0.00705788
0.360799
0.0897031
0.118667
0.213565
0.289429
0.00374252
0.0923121
0.367398
0.0766318
0.0724685
0.233251
0.0433293
0.064314
0.336152
0.091087
0.363553
0.171427
0.0577804
0.0717085
0.193251
0.0689298
0.0892378
0.130407
0.084107
0.0865909
0.0841166
0.0354819
0.224876
0.0824234
0.117242
0.0782647
0.106711
0.119416
0.0809033
0.0773392
0.360573
0.0841778
0.0717057
0.0768057
0.367445
0.0901993
0.0747756
0.105636
0.277003
0.112618
0.0815328
0.0916777
0.0792012
0.00314698
0.364465
0.113596
0.0789249
0.0591306
0.374554
0.1518
0.0396104
0.0764024
0.017
0.165194
0.363467
0.0753488
0.361553
0.0705374
0.046266
0.367016
0.361952
0.372904
0.0567866
0.36884
0.0230052
0.0266924
0.077568
0.039762
0.0343205
0.0968678
0.27977
0.368033
0.354821
0.378345
0.351383
0.222021
0.162859
0.0589145
0.0724587
0.0855222
0.211073
0.238244
0.145772
0.311776
0.112389
0.0796294
0.25605
0.101278
0.352675
0.35293
0.043838
0.35478
0.238249
0.324613
0.374564
0.0741554
0.296292
0.241785
0.256568
0.241412
0.0754692
0.186393
0.356145
0.37636
0.0910067
0.349108
0.37435
0.361952
0.30449
0.0627643
0.378022
0.0664642
0.340884
0.341154
0.0664905
0.0739108
0.0592177
0.214478
0.369844
0.156404
0.239877
0.060492
0.265247
0.370211
0.0794228
0.308108
0.0762541
0.313391
0.352863
0.378716
0.351248
0.130343
0.144329
0.171648
0.296325
0.079689
0.331233
0.333071
0.0771951
0.316255
0.185499
0.0770492
0.239685
0.322058
0.0744486
0.356436
0.0626381
0.327254
0.382785
0.0702319
0.203134
0.0713082
0.245766
0.074808
0.0352413
0.370352
0.249972
0.12275
0.16674
0.211387
0.20063
0.0307089
0.190789
0.188312
0.355581
0.254397
0.386541
0.341293
0.101777
0.361709
0.0372507
0.0383066
0.267956
0.229313
0.316472
0.315902
0.0404806
0.0353102
0.184313
0.365907
0.300748
0.340854
0.383306
0.0403214
0.30401
0.251558
0.304999
0.31409
0.235376
0.371315
0.319977
0.326311
0.093384
0.100975
0.381994
0.0404001
0.0356241
0.0686302
0.345035
0.366987
0.371549
0.0662847
0.0627914
0.277445
0.0664156
0.0673136
0.285446
0.377106
0.313854
0.106561
0.353728
0.184283
0.310056
0.312704
0.378633
0.0637375
0.230136
0.231085
0.0672242
0.0625435
0.060571
0.0643078
0.246846
0.0671072
0.377823
0.305436
0.281845
0.0670523
0.0593048
0.133352
0.296488
0.3795
0.180627
0.160892
0.376356
0.0294592
0.0513904
0.106758
0.166855
0.0508623
0.0660127
0.0677276
0.128961
0.0688964
0.376142
0.377651
0.142169
0.375795
0.225966
0.127926
0.062321
0.10273
0.0956052
0.11424
0.0654545
0.0559039
0.0713293
0.0828401
0.0587884
0.0991797
0.106537
0.298343
0.0591912
0.0649524
0.116728
0.039227
0.067741
0.0596585
0.0546203
0.056289
0.0589068
0.375575
0.0619779
0.0673017
0.216571
0.21789
0.364876
0.227504
0.372769
0.335129
0.344868
0.365546
0.200517
0.0568268
0.226106
0.3814
0.0899559
0.031211
0.300176
0.0565834
0.337152
0.0560663
0.0624527
0.138605
0.0500464
0.129567
0.057052
0.0478383
0.165772
0.306246
0.00865071
0.26492
0.396518
0.0456303
0.293295
0.0447249
0.362986
0.313171
0.0423322
0.164654
0.304506
0.0480747