/*--------------------------------*- C++ -*----------------------------------*\
| =========                 |                                                 |
| \\      /  F ield         | OpenFOAM: The Open Source CFD Toolbox           |
|  \\    /   O peration     | Version:  2406                                  |
|   \\  /    A nd           | Website:  www.openfoam.com                      |
|    \\/     M anipulation  |                                                 |
\*---------------------------------------------------------------------------*/
FoamFile
{
    version     2.0;
    format      ascii;
    arch        "LSB;label=32;scalar=64";
    class       surfaceScalarField;
    location    "26";
    object      phi;
}
// * * * * * * * * * * * * * * * * * * * * * * * * * * * * * * * * * * * * * //

dimensions      [0 3 -1 0 0 0 0];

oriented        oriented;

internalField   nonuniform List<scalar> 
113358
(
-1.58514e-05
3.31776e-05
-2.28539e-05
5.52849e-06
2.36568e-05
3.59029e-07
-6.45955e-06
-1.75558e-05
-2.69875e-05
2.08319e-05
-3.38214e-06
9.535e-06
-2.39918e-05
-6.69246e-06
2.41256e-05
6.57401e-06
-1.72755e-05
9.82451e-07
3.01554e-05
-1.38615e-05
1.36214e-05
-1.41978e-05
-7.96229e-06
8.53915e-06
-7.50438e-06
3.58571e-05
-2.57885e-05
-2.55379e-06
-9.0043e-07
-3.42765e-05
1.87758e-05
1.64047e-05
8.98844e-06
5.11118e-07
1.87512e-05
-2.8252e-05
8.49201e-06
4.16715e-06
-1.23378e-05
-2.94756e-07
-5.99044e-06
2.21713e-05
-2.03822e-05
4.20109e-06
-1.60345e-05
-1.45282e-07
-2.7949e-07
1.64618e-05
-4.73759e-05
3.79949e-06
1.30316e-05
3.05408e-05
1.41904e-06
-3.02554e-06
1.60855e-06
2.32718e-06
-1.55538e-06
2.21056e-05
-2.28885e-05
1.2171e-06
3.4591e-07
1.3181e-05
-1.47402e-05
9.76242e-06
3.16477e-05
-2.64943e-05
-1.49145e-05
-1.97851e-05
1.10722e-05
6.9825e-06
1.73065e-06
1.46126e-05
-3.88418e-05
3.35144e-05
-9.28409e-06
2.33365e-05
3.15258e-06
2.64016e-05
-5.28951e-05
2.00719e-05
5.05674e-07
-5.05618e-07
-2.00712e-05
-1.14257e-05
4.54048e-05
4.22483e-06
-3.8217e-05
-4.30546e-07
-4.36798e-05
4.67667e-05
-2.65149e-06
-1.06543e-06
5.12127e-06
3.65523e-07
-4.42076e-06
-4.55113e-05
1.99716e-05
-3.68349e-06
2.92266e-05
-2.48096e-05
5.76544e-06
2.04981e-05
-1.45793e-06
-1.07457e-05
1.04532e-05
-1.8475e-07
4.76427e-07
-2.10865e-06
-7.7637e-06
5.70702e-06
4.16558e-06
2.04163e-05
-2.69315e-07
-7.19811e-08
-2.66465e-06
2.65969e-06
6.41622e-09
-5.3946e-06
-2.58725e-05
2.74184e-05
3.84943e-06
5.44695e-06
-3.79686e-07
-8.40302e-06
3.33638e-06
2.06208e-05
-1.17454e-06
1.03761e-06
-2.0484e-05
-2.89246e-05
1.29091e-05
-2.96962e-06
1.90131e-05
1.75783e-05
1.78279e-06
-1.98517e-05
4.92385e-07
-3.36051e-05
8.10328e-06
-1.189e-05
3.73814e-05
-4.58717e-08
-2.57513e-06
2.62097e-06
9.2768e-06
1.10898e-05
1.8884e-06
-2.22571e-05
7.33786e-06
-3.90487e-05
3.19547e-05
-2.45043e-07
-3.26393e-06
4.74164e-06
3.45417e-05
-3.60107e-05
-2.05138e-05
1.69885e-05
-2.11352e-05
2.46589e-05
1.24648e-06
-2.33834e-05
-3.10883e-05
5.32289e-05
-4.24848e-07
4.26704e-05
-1.1669e-05
-3.05794e-05
5.5574e-06
-1.95563e-05
-8.03069e-06
-5.35218e-06
3.25637e-05
-4.72919e-07
-2.67377e-05
-2.56661e-06
1.77059e-05
-1.19e-05
-3.23853e-06
-3.06268e-05
-1.13628e-05
4.15672e-05
-9.73567e-06
3.34475e-05
8.67966e-07
-2.458e-05
-3.40736e-05
4.24459e-06
-5.50433e-06
3.53345e-05
3.39452e-05
1.46139e-05
-4.51581e-05
-3.40108e-06
2.32073e-05
-1.61702e-05
1.56588e-06
-8.60249e-06
-1.20417e-05
3.67747e-06
1.19127e-05
-3.53379e-06
3.09519e-05
-7.90073e-06
1.7412e-05
-4.0463e-05
-1.04238e-05
-3.94749e-05
4.2454e-05
7.44894e-06
-2.2369e-06
8.4514e-06
-9.57265e-06
3.35925e-06
2.91125e-05
-1.27176e-05
2.0554e-05
-3.69475e-05
-2.05201e-05
4.43651e-06
3.62643e-05
-2.01789e-05
1.37448e-05
-6.78297e-06
5.61094e-06
-1.2571e-05
3.41967e-05
-8.67267e-06
-2.64053e-05
8.78595e-07
-1.24786e-05
-1.46998e-05
7.62919e-06
1.955e-05
-3.02031e-05
-4.7512e-06
1.44352e-05
2.05083e-05
-3.4026e-06
3.84333e-06
-4.41088e-07
3.21918e-05
-5.35762e-06
-3.13313e-05
4.49653e-06
-1.41901e-05
-3.93148e-05
1.47623e-05
3.87426e-05
-4.35306e-06
4.59589e-06
-3.69636e-05
3.67268e-05
2.11808e-06
2.12349e-05
1.88438e-06
-2.52358e-05
4.24508e-06
-3.50414e-06
-7.35785e-07
1.03091e-08
6.4865e-08
1.32144e-05
-1.32939e-05
6.14937e-06
-3.00624e-05
3.2561e-05
-8.64832e-06
1.05319e-05
-2.43553e-05
2.27373e-05
-8.91296e-06
8.61549e-06
-8.94414e-06
3.34627e-07
-1.78984e-05
-5.96539e-06
3.1161e-05
-7.29877e-06
-2.84859e-07
4.76462e-06
-4.48012e-06
6.92355e-06
-2.89467e-05
9.48728e-06
1.25376e-05
4.07237e-05
-3.23246e-06
-2.81297e-06
-3.46737e-05
-2.64729e-05
-3.10948e-05
3.39309e-05
2.36424e-05
2.9292e-06
-3.49667e-05
5.56388e-06
3.48158e-05
-2.76316e-05
-9.60448e-07
-6.22427e-06
9.59585e-08
2.09768e-07
-1.73944e-05
1.7095e-05
7.2053e-06
7.08095e-06
1.19616e-05
-2.62466e-05
9.09604e-06
-4.75707e-06
3.8359e-06
-8.14151e-06
-1.56647e-05
-1.04079e-05
2.69175e-05
-8.44422e-07
-2.11297e-05
2.5976e-05
-1.82358e-05
1.33894e-05
-3.6503e-06
1.86884e-08
3.63148e-06
-2.95891e-05
2.98105e-05
-3.01398e-05
2.36667e-05
-3.36705e-06
-1.1171e-06
-7.03928e-07
5.18718e-06
6.21605e-05
-6.00408e-05
1.84704e-06
-3.98028e-06
-1.3124e-05
4.08661e-06
1.28202e-05
-3.78231e-06
-4.53782e-06
2.58155e-05
-2.8586e-05
7.3054e-06
-1.76036e-05
-2.11156e-05
3.1252e-05
7.4685e-06
8.74247e-06
-1.24792e-05
1.81619e-05
-1.44229e-05
7.07204e-06
2.19599e-05
-4.61249e-05
1.70913e-05
-3.30652e-05
1.18288e-05
1.41403e-05
7.097e-06
7.7735e-07
-2.72209e-05
2.20378e-05
4.40395e-06
-2.71125e-05
2.55841e-06
9.63449e-06
1.49199e-05
2.32767e-05
-2.00177e-05
7.02887e-06
-1.02955e-05
1.53544e-06
1.35219e-05
-1.48384e-05
-2.26102e-07
1.81934e-05
-2.42743e-06
-2.90463e-06
-1.28593e-05
1.55549e-05
1.77132e-05
-1.50695e-05
-1.81999e-05
2.72337e-06
-9.0517e-07
4.99244e-06
-6.81189e-06
5.49381e-06
-3.18833e-07
-5.17409e-06
3.9799e-08
4.55534e-06
-4.59464e-06
-5.43321e-07
3.34942e-06
-1.48879e-05
1.20836e-05
-2.0081e-05
4.15416e-05
4.43871e-07
-2.19116e-05
4.6364e-06
-2.07836e-05
1.60922e-05
6.68441e-08
-3.54846e-06
-4.83169e-06
1.31864e-06
7.06258e-06
-6.21074e-06
-1.50395e-05
3.84885e-06
1.74039e-05
-3.16661e-06
2.11434e-05
8.99619e-06
-2.6972e-05
4.60984e-06
4.15613e-06
-2.03682e-05
1.16021e-05
-2.81622e-06
2.81366e-05
-3.21815e-05
6.86332e-06
-8.66184e-06
8.93697e-06
-2.69062e-07
2.04984e-05
-2.5274e-05
3.92389e-06
8.43668e-07
1.86329e-05
1.06058e-05
-3.24148e-05
3.17703e-06
-2.55675e-05
-1.39208e-05
7.00297e-06
3.24868e-05
-2.41584e-06
-2.26411e-05
9.00029e-07
2.41555e-05
1.44084e-05
-1.49505e-05
1.03877e-07
4.38471e-07
1.64089e-05
-2.83761e-05
-5.61725e-06
1.759e-05
-4.01941e-06
3.35964e-07
3.6819e-06
-4.15273e-06
-1.40254e-06
2.86071e-05
-2.30491e-05
-1.29347e-05
8.06511e-06
4.12029e-05
-3.6336e-05
-9.65688e-06
1.94293e-05
-2.91843e-05
1.94161e-05
1.59554e-06
-2.44461e-05
1.94481e-05
3.3981e-06
-3.54633e-06
-8.37338e-06
2.98665e-05
-1.79462e-05
2.30976e-05
-1.01033e-05
-9.97637e-06
-3.01698e-06
-2.58991e-06
-1.30052e-05
1.84587e-05
-2.85737e-06
7.08561e-06
-3.46448e-06
-3.61978e-06
-1.05467e-06
-2.55216e-05
-6.06689e-06
3.26462e-05
-1.47672e-05
2.06378e-05
5.88752e-06
-1.17564e-05
4.88621e-06
-1.22545e-05
2.10425e-05
-1.36739e-05
-4.01196e-05
9.30158e-06
-6.61557e-07
3.14836e-05
-2.66408e-06
-4.44018e-05
3.99714e-05
7.10399e-06
6.31738e-08
-4.61625e-06
4.55852e-06
2.11451e-05
-3.22084e-05
5.49498e-07
1.05153e-05
3.8195e-05
4.33316e-06
-4.09573e-05
-1.56812e-06
1.18831e-05
1.12862e-06
-2.75984e-05
1.45918e-05
-9.32749e-06
1.2939e-05
1.50214e-05
-2.74265e-05
-2.28263e-05
1.30431e-05
3.72017e-05
6.72786e-06
3.46707e-06
-4.70039e-06
7.35954e-06
-5.68233e-06
-2.80628e-05
2.63859e-05
5.27159e-06
1.6261e-05
-7.46999e-06
-1.40639e-05
-6.50034e-06
1.40982e-05
2.94344e-05
-3.70318e-05
1.90749e-07
2.82409e-06
-3.01581e-06
-2.3006e-05
3.65909e-06
1.40424e-05
5.30117e-06
3.03902e-05
-1.62112e-05
-2.05849e-05
6.40703e-06
3.24306e-05
-7.94451e-06
-3.62943e-06
-2.08566e-05
-2.92067e-05
-2.68793e-07
-9.57912e-07
3.04365e-05
2.61459e-05
1.24086e-05
-3.68061e-05
-1.75184e-06
6.92435e-06
4.84388e-06
-1.17678e-05
1.8141e-06
-2.69848e-05
-1.68897e-07
2.53319e-05
4.31454e-05
-3.32427e-05
-3.22383e-06
-6.67174e-06
5.38084e-06
-7.48445e-07
-4.30375e-06
-3.24168e-07
-3.09072e-05
4.37153e-05
1.77675e-05
-3.05692e-05
1.79435e-05
-2.84945e-05
-2.7921e-06
1.33455e-05
-2.59926e-05
2.81785e-05
-8.87145e-07
-1.28984e-06
-3.57933e-06
1.77056e-06
1.81356e-06
3.73461e-05
-4.03953e-06
1.02064e-05
-4.35107e-05
-2.73477e-05
3.67006e-05
-3.53371e-05
8.9651e-08
2.74617e-06
2.05338e-05
-2.33642e-05
3.17374e-06
-3.07035e-06
-1.04832e-07
-1.27261e-05
-6.92808e-06
1.21783e-06
1.84397e-05
-9.39985e-06
2.39375e-05
-1.84979e-05
3.96341e-06
1.84973e-06
-5.71196e-06
3.56982e-06
2.93588e-07
-2.27407e-06
-2.127e-06
4.40625e-06
-2.49387e-05
2.45279e-05
2.46146e-05
-2.42046e-05
4.72354e-05
-1.20893e-05
-1.0254e-05
-2.48925e-05
1.4724e-05
7.47716e-07
-5.24654e-07
-1.4949e-05
3.13698e-05
-3.82952e-05
5.24624e-06
1.67836e-06
3.63934e-06
-5.0107e-08
-3.58832e-06
-5.69114e-06
2.7748e-05
-2.6824e-05
4.78111e-06
-1.53803e-05
1.60113e-05
-1.77867e-06
1.14764e-06
-1.20374e-05
1.05692e-05
7.35387e-07
7.3122e-07
2.84863e-06
-2.2482e-05
7.96138e-06
1.16701e-05
-1.12404e-05
-1.07884e-05
2.61257e-05
-4.09732e-06
-1.69697e-05
1.66239e-05
3.19234e-07
2.74851e-08
-3.1311e-05
-3.52671e-05
3.59569e-05
-1.05972e-05
3.31214e-05
1.04213e-05
-3.29442e-05
5.64701e-06
3.11063e-05
5.90236e-06
-4.26569e-05
-1.51872e-05
6.51329e-06
2.0772e-05
-1.20998e-05
-1.17646e-08
8.02731e-08
1.23657e-05
-1.24293e-05
1.65092e-06
3.75411e-05
-5.58483e-06
-3.36042e-05
-4.56634e-06
-3.01065e-06
4.97668e-06
2.6003e-06
5.04133e-06
-4.76664e-06
-2.75305e-07
-4.11482e-06
-1.39461e-05
1.09232e-06
-2.60611e-05
3.08786e-07
-5.11964e-06
3.08724e-05
-1.68963e-05
1.51738e-05
4.53862e-07
1.26768e-06
-5.12094e-07
9.57686e-06
-1.3755e-07
-8.9274e-06
-3.45272e-06
3.39264e-06
5.60687e-08
3.38729e-06
-8.20311e-07
2.17487e-05
-2.43212e-05
3.09456e-05
3.34273e-06
-2.66668e-05
-7.61748e-06
-3.36448e-06
-1.53909e-05
-1.02606e-05
1.58929e-05
-1.74803e-05
1.14297e-06
4.43813e-07
6.97249e-06
-2.96553e-05
3.50323e-05
-1.23485e-05
1.26856e-05
2.69806e-06
-6.78255e-06
-8.59183e-06
-1.58977e-05
-3.76074e-05
9.15606e-06
4.43403e-05
5.38501e-08
3.06503e-06
-2.33764e-07
-2.8893e-06
1.12918e-05
-7.00945e-07
1.77939e-06
-1.23693e-05
-1.15178e-05
2.17013e-07
1.14e-05
-9.84774e-08
2.34246e-05
4.05647e-06
-2.96639e-05
2.18011e-06
-2.97821e-05
-1.72978e-05
3.83814e-05
8.69815e-06
-7.66307e-06
3.23094e-06
-7.23281e-06
5.99593e-06
2.52254e-05
-3.22833e-05
1.06245e-06
-2.42944e-05
-2.47799e-05
1.02384e-05
3.88504e-05
-3.26708e-06
3.56029e-06
-2.94273e-07
1.86565e-05
1.07559e-05
-2.22091e-06
-2.71814e-05
-7.27566e-07
-4.35917e-06
-2.85918e-05
3.36776e-05
-1.94659e-05
4.93392e-06
4.74338e-05
-3.29063e-05
2.5777e-05
-1.92447e-05
-9.8549e-06
3.31369e-06
3.06728e-06
-9.14675e-08
-2.97783e-06
4.52639e-05
-2.20231e-05
3.14664e-06
-2.63896e-05
1.07895e-05
-1.15714e-05
1.37334e-06
-5.94812e-07
2.6024e-06
2.49464e-06
-5.09632e-06
-1.63078e-05
-2.14555e-05
4.32445e-06
3.34304e-05
-1.31898e-05
2.31006e-07
1.36364e-05
-6.7088e-07
2.20779e-05
-4.6167e-05
6.70902e-07
2.34184e-05
-1.95131e-05
-2.46113e-05
3.23408e-05
1.17831e-05
-1.31997e-05
1.72087e-05
2.84212e-05
5.26755e-06
2.72879e-05
-2.86605e-05
-3.89255e-06
2.16399e-06
1.60241e-06
-1.46037e-05
1.08375e-05
-3.22981e-05
1.4401e-05
1.14666e-05
6.4336e-06
1.56203e-05
4.07307e-06
-1.74397e-06
-1.7961e-05
-3.57319e-06
-2.719e-05
2.8228e-06
2.79437e-05
6.3462e-06
-2.44519e-06
2.47677e-05
-2.86682e-05
-2.48698e-06
-5.07144e-09
-6.19473e-06
8.70338e-06
7.07798e-07
9.85677e-06
-3.67266e-05
2.61629e-05
-1.29491e-05
-2.61068e-05
-1.11726e-06
4.01691e-05
3.93644e-07
5.85793e-06
-6.25058e-06
8.41672e-08
-1.90784e-07
1.27263e-05
-1.2623e-05
2.44825e-06
1.53219e-05
1.31685e-05
-3.09384e-05
3.48061e-07
-1.67127e-05
1.04564e-07
1.62602e-05
3.99804e-06
-1.92667e-05
-1.46346e-05
2.99048e-05
1.40484e-05
1.72258e-05
-1.48977e-05
-1.63762e-05
2.87773e-05
1.71907e-05
-3.87361e-05
-7.23258e-06
1.36429e-07
-5.17124e-06
5.03472e-06
3.23556e-06
1.54997e-06
-6.12247e-09
-4.78107e-06
2.36365e-06
2.91836e-06
3.74607e-07
-5.65906e-06
2.98121e-06
-3.4376e-06
1.70812e-05
1.84037e-07
-3.09116e-05
1.15441e-05
1.91797e-05
5.44509e-05
5.95498e-06
-1.13328e-05
-4.90828e-05
-9.25515e-06
1.23648e-05
-2.93588e-06
-1.6992e-07
-1.47221e-05
1.40576e-05
-2.36193e-05
2.42885e-05
3.73022e-06
6.46545e-08
-3.79497e-06
1.21e-06
9.71989e-06
-1.85003e-05
7.56818e-06
3.73893e-06
-5.64791e-06
1.90726e-06
2.46904e-05
-1.31879e-05
-6.61577e-06
-1.80609e-05
6.66539e-06
-1.67442e-05
2.81403e-05
3.21094e-05
-3.1126e-05
4.90756e-06
-5.88882e-06
1.64788e-05
5.55325e-06
-1.96312e-05
-2.40193e-06
2.81175e-06
-3.64194e-05
1.23032e-05
2.13064e-05
2.91823e-05
-5.89363e-06
4.89609e-06
4.60764e-05
-5.18369e-05
2.50246e-06
-3.18066e-05
2.39094e-06
3.29843e-05
-3.57127e-06
-2.59755e-05
-1.67823e-05
2.80386e-05
-1.19363e-05
-1.1443e-05
-1.60489e-05
3.94284e-05
-1.21259e-06
4.51387e-06
3.79957e-05
-4.12901e-05
1.46051e-06
2.70231e-05
-4.75685e-05
1.90845e-05
-1.42008e-07
1.0732e-07
2.02599e-05
-2.02224e-05
-3.98314e-05
6.56057e-06
3.35965e-06
2.99011e-05
1.40118e-05
-1.40645e-05
4.9133e-06
-4.85683e-06
8.67363e-07
1.27348e-05
-1.61961e-05
2.59503e-06
-2.39518e-05
3.6052e-05
-4.43947e-06
-7.66062e-06
-3.35729e-05
2.48091e-05
1.57447e-06
7.1823e-06
-3.00667e-05
2.9319e-05
3.85646e-05
-3.7814e-05
3.03567e-05
-2.47069e-05
1.31679e-06
-6.96738e-06
-1.42281e-05
1.84088e-05
-1.12173e-05
7.03762e-06
-8.35821e-06
1.95039e-05
1.72319e-06
-1.28748e-05
-3.54706e-05
2.76654e-06
3.88272e-05
-6.12398e-06
-5.10357e-06
-2.68389e-05
3.5262e-07
3.15771e-05
2.75399e-06
-9.64391e-06
7.75883e-06
1.09617e-05
9.13713e-07
-1.04405e-05
-1.43326e-06
1.04453e-05
1.99975e-05
-2.33119e-05
-7.12748e-06
-9.57446e-06
1.30093e-05
2.22807e-05
-2.57177e-05
1.06041e-06
4.56272e-06
-3.90948e-05
3.34692e-05
1.86821e-05
-2.8228e-05
9.23242e-06
3.16046e-07
-3.77092e-05
-6.16668e-06
1.03079e-05
-3.49777e-06
-9.30218e-07
-2.65938e-05
3.10162e-05
-3.85975e-06
4.30058e-08
3.81722e-06
-4.82896e-06
-6.52567e-06
4.09264e-05
-2.95716e-05
6.223e-06
-5.89784e-06
-3.16623e-07
2.778e-07
2.49162e-07
-1.08963e-05
1.03673e-05
-1.73488e-05
1.652e-05
2.96059e-05
6.05677e-06
3.25079e-05
-2.35317e-05
-1.50329e-05
5.19536e-06
-5.28614e-06
8.90446e-08
-4.68233e-06
5.21583e-05
-2.93024e-05
-1.81621e-05
-2.77357e-05
3.00618e-05
1.9751e-05
-2.17892e-06
2.31583e-05
1.08777e-05
-3.18564e-05
-2.99858e-05
-1.11681e-05
4.00551e-05
1.10067e-06
-5.60907e-06
5.09196e-06
5.17367e-07
2.93305e-05
-3.13089e-05
-1.55012e-07
2.13889e-06
-1.89193e-05
-1.1763e-05
1.69173e-05
1.37668e-05
-3.56862e-06
1.60691e-06
-2.02019e-05
2.21656e-05
-2.83905e-05
-7.79845e-06
8.33778e-07
3.53551e-05
-1.75626e-05
-8.60191e-06
-6.90068e-06
1.69255e-05
-3.86802e-05
-3.41884e-06
2.51798e-05
7.59528e-06
-3.21836e-05
-9.70556e-06
3.42903e-05
8.61161e-06
-8.20225e-06
-4.10298e-07
-2.72328e-05
4.57182e-05
-6.48059e-06
-1.19977e-05
-6.3792e-06
-2.70272e-05
3.06276e-05
2.77933e-06
-4.08131e-05
4.17552e-05
-4.94423e-06
4.00168e-06
-2.44183e-05
-6.15783e-06
1.72182e-05
1.33585e-05
-2.78241e-05
-5.86403e-06
3.37015e-05
-5.09386e-10
-3.71244e-07
1.42455e-07
-1.44208e-05
1.46489e-05
4.00986e-06
1.77978e-07
-4.18738e-06
-7.38918e-06
7.4799e-06
-9.38272e-08
4.19986e-05
-3.50991e-05
-4.83494e-05
4.14292e-05
3.45103e-06
1.37154e-07
-3.58867e-06
-3.21245e-05
3.16008e-05
-4.31887e-07
9.54589e-07
-1.19207e-05
1.01581e-05
1.85314e-07
1.58392e-06
4.347e-06
4.67857e-05
-2.52323e-05
-2.59011e-05
-2.62995e-05
-8.31196e-06
3.44447e-06
3.1172e-05
3.29854e-05
1.44908e-05
-1.46492e-05
-3.28273e-05
1.45804e-05
-5.42192e-06
1.92886e-06
-1.10867e-05
3.85759e-05
-3.51535e-06
-2.7743e-05
-7.31935e-06
-4.63598e-06
6.90377e-06
-7.5308e-06
5.25935e-06
-3.01606e-06
9.29023e-06
3.50827e-06
-9.77717e-06
-1.35467e-05
-6.82771e-06
3.82483e-05
-1.78685e-05
7.00407e-06
2.64515e-05
-2.60214e-05
-7.43565e-06
-2.25233e-05
2.32488e-05
1.49743e-05
-1.56992e-05
2.46544e-05
-2.23828e-05
-3.03103e-06
7.69714e-07
-9.38246e-08
-1.25954e-05
-4.05249e-08
1.27242e-05
-8.03094e-06
1.50736e-05
-1.54072e-06
-5.50246e-06
-3.44054e-05
-1.21212e-05
1.75246e-05
2.89959e-05
2.19369e-05
-1.85924e-05
-3.71218e-06
3.67121e-07
8.45388e-06
-2.90234e-05
-3.2572e-05
5.31468e-05
1.81847e-05
-2.38439e-05
-1.15908e-05
1.72525e-05
-6.25125e-06
-5.17962e-05
1.44398e-05
4.36033e-05
1.83598e-05
-1.64545e-05
2.18815e-06
-4.09234e-06
3.15069e-05
-1.14393e-05
-3.67135e-05
1.66334e-05
1.2315e-05
2.01111e-05
-4.70293e-05
1.46003e-05
-7.6517e-06
2.94537e-05
-2.57222e-05
3.91946e-06
-2.81884e-05
3.15383e-05
3.21705e-05
-3.55207e-05
-1.71429e-07
-1.57723e-05
1.38161e-05
2.13055e-06
4.76283e-06
-4.48311e-06
-2.75908e-07
3.69538e-05
-4.59069e-05
1.30176e-06
-4.63292e-06
6.44246e-06
3.25772e-06
-5.06564e-06
-3.49258e-06
1.36638e-07
-1.67449e-06
5.03375e-06
1.70595e-05
-2.43872e-06
1.80792e-05
-2.72491e-05
1.12681e-06
8.04307e-06
-9.60143e-06
-2.3133e-06
9.33101e-06
2.29403e-05
-3.03018e-05
1.73109e-05
-9.94739e-06
-2.59713e-05
-3.84046e-06
3.12816e-05
-1.46852e-06
-5.00156e-05
-7.81979e-06
4.42628e-05
1.35656e-05
-3.80947e-05
1.01974e-05
8.73355e-07
2.70251e-05
-4.78225e-06
4.0365e-07
9.64082e-07
3.41861e-06
-2.55821e-05
-3.05184e-05
2.37406e-05
3.23586e-05
1.72914e-05
1.51255e-05
-2.59185e-05
-6.49386e-06
2.29877e-07
1.62047e-05
-1.37686e-05
-2.66564e-06
-2.16949e-07
-1.71714e-05
3.3669e-05
-1.62812e-05
3.58132e-05
-2.56698e-05
-1.36903e-05
2.8265e-05
-3.20363e-05
6.54947e-06
-2.78273e-06
-3.88411e-06
-2.68194e-05
2.89312e-05
1.77699e-06
3.85662e-05
-2.58734e-06
-3.98567e-05
2.32631e-05
-2.59138e-05
6.23144e-06
-3.57795e-06
2.00541e-06
-1.29805e-05
-1.08134e-06
1.20553e-05
-2.88578e-06
2.76883e-06
-3.37047e-06
3.48787e-06
-2.01404e-06
5.14002e-06
1.6452e-06
-4.76205e-06
-7.92636e-06
-2.05183e-05
-1.4213e-06
2.98692e-05
1.1093e-05
8.51306e-06
-2.98726e-05
1.02693e-05
-1.87393e-05
5.88845e-07
6.68241e-06
1.1468e-05
-1.92209e-06
-1.95983e-05
1.91087e-05
-2.43513e-05
2.84866e-05
8.91336e-06
-1.30523e-05
-3.4491e-05
3.94974e-05
-1.21663e-05
7.16448e-06
-5.40516e-06
-1.8803e-05
2.53495e-06
2.16738e-05
1.3737e-06
3.38333e-05
-3.94505e-05
4.23788e-06
1.73554e-05
-5.58373e-05
1.22446e-05
2.62422e-05
4.92748e-06
-3.69596e-05
2.02093e-05
1.18269e-05
1.49629e-06
1.99494e-05
-6.81645e-06
-1.4627e-05
-4.54215e-06
2.14515e-06
4.46872e-06
-2.0691e-06
-3.86195e-06
7.84893e-06
-2.92591e-05
2.52727e-05
-1.65916e-06
-1.25467e-05
3.59912e-07
1.38444e-05
1.66743e-07
1.2843e-05
-2.15704e-07
-1.27928e-05
1.92567e-07
2.68888e-07
1.31038e-05
-1.35707e-05
-8.88593e-06
-1.52432e-05
2.67482e-05
-2.61417e-06
3.71283e-06
-3.51172e-05
1.88368e-05
1.25694e-05
3.18226e-05
8.32941e-07
2.39824e-06
-3.50569e-05
3.10494e-06
-3.16962e-06
6.59274e-08
1.08856e-05
2.21102e-05
-2.80663e-05
-1.26829e-05
4.54167e-08
1.33845e-07
1.25144e-05
1.98123e-06
-2.56118e-05
9.24845e-06
1.43829e-05
1.02167e-06
8.33187e-06
-8.46285e-06
-8.94413e-07
-6.25896e-06
-1.33944e-05
2.54297e-05
-5.77179e-06
3.03942e-05
-3.27097e-05
2.8138e-05
-2.58162e-05
1.85615e-05
-8.42945e-06
-3.12634e-05
2.11312e-05
-2.27252e-06
-2.16653e-06
4.43611e-06
1.30531e-05
2.84998e-06
-3.77019e-06
-1.21336e-05
-2.50139e-05
3.73932e-05
3.3622e-06
2.82345e-06
-6.18246e-06
1.38524e-06
-3.03711e-05
-9.72704e-08
2.90835e-05
-3.20415e-07
6.78795e-07
2.17532e-05
-1.07847e-06
2.32729e-05
-4.51799e-05
2.29816e-05
-7.55007e-06
-2.19751e-05
-3.18636e-06
3.27164e-05
5.97134e-06
-1.01386e-05
1.03203e-05
-6.1523e-06
-6.95536e-06
-3.35428e-05
-4.20749e-06
4.47132e-05
1.99572e-05
3.58844e-06
-2.28375e-05
-7.07392e-07
5.69767e-06
2.77043e-05
-4.58936e-05
1.24875e-05
-2.3247e-06
-1.43912e-05
-8.27612e-06
2.49918e-05
-2.11596e-05
-6.7358e-06
1.08766e-05
1.70255e-05
-1.22581e-06
-1.21683e-06
-1.44472e-05
1.68902e-05
3.55389e-05
-1.48537e-05
-8.64203e-06
-1.20419e-05
-2.21605e-05
5.41064e-05
-3.02097e-05
-1.73669e-06
1.26032e-05
3.15977e-07
3.28357e-07
-1.3256e-05
3.05542e-05
-3.60856e-05
3.64285e-05
-3.09029e-05
-5.60687e-06
1.7651e-05
-1.43588e-05
2.31409e-06
1.30685e-05
-4.80063e-05
2.08921e-06
3.28509e-05
9.03438e-06
4.23906e-05
-3.6461e-05
-1.49627e-05
7.32012e-06
-7.10492e-06
-1.1504e-05
1.12858e-05
-2.29615e-05
-1.3567e-05
4.03977e-05
-3.87058e-06
3.51636e-05
-2.77261e-05
-4.27598e-05
3.5316e-05
1.75282e-05
1.51669e-05
-9.17289e-06
-2.35112e-05
2.24804e-07
-1.49933e-05
1.2049e-07
4.45581e-06
-4.57985e-06
-3.85031e-06
3.73925e-06
1.12479e-07
2.61564e-05
-2.48338e-05
-2.30753e-05
2.17579e-05
-6.66273e-06
8.34111e-06
-2.39673e-05
2.22892e-05
3.50664e-05
-2.74868e-05
-5.70249e-06
-1.87738e-06
-5.49409e-06
1.33836e-06
3.61118e-06
-7.89594e-06
2.77281e-05
-7.59914e-06
-1.22334e-05
-4.50913e-05
1.21401e-06
1.52986e-05
2.85841e-05
1.33723e-05
-5.64648e-06
-1.32644e-05
5.54038e-06
7.44021e-06
3.45355e-05
-3.224e-05
-9.73119e-06
-1.9558e-05
-4.02686e-06
3.75026e-05
-1.39169e-05
2.1527e-06
2.20898e-05
4.744e-06
-2.89868e-05
7.57373e-06
2.43802e-05
-2.98026e-05
2.086e-05
-1.54031e-05
-7.99176e-06
2.52963e-06
2.04493e-05
-2.63714e-05
1.16195e-05
-1.46016e-05
9.47607e-06
8.52935e-06
-3.40519e-06
8.80119e-06
1.08384e-05
2.10699e-05
-4.07035e-05
4.67822e-06
-2.85318e-05
-4.44681e-06
2.82974e-05
5.82345e-07
2.59302e-05
2.42948e-06
-2.89376e-05
1.15477e-05
2.21192e-05
-3.67163e-05
3.04817e-06
-5.52907e-05
4.57459e-05
-8.81042e-07
3.43862e-08
3.80513e-05
-3.04907e-06
-3.50443e-05
-3.8493e-06
8.38208e-06
-1.14941e-05
6.96848e-06
-9.50398e-07
-4.13985e-06
3.25284e-07
4.76463e-06
-3.96678e-06
3.82163e-06
1.43165e-07
-5.17164e-06
-7.37604e-06
3.59386e-05
-2.33907e-05
-2.7259e-05
4.0856e-06
-1.19156e-05
3.50896e-05
4.29862e-05
-1.05957e-05
-1.38045e-05
-1.8575e-05
3.63288e-06
-3.26111e-05
1.15471e-05
1.74327e-05
3.95709e-06
-3.59946e-06
-1.35354e-06
9.98109e-07
-4.58424e-06
4.42201e-06
1.63708e-07
1.99608e-06
2.84419e-05
-5.14558e-06
-2.529e-05
-5.21267e-06
2.51275e-05
-3.29269e-05
1.30183e-05
1.09742e-05
1.82562e-05
-4.22621e-05
1.30334e-05
-2.25772e-06
2.55984e-05
1.87458e-05
-4.20883e-05
-4.23338e-05
2.21785e-05
2.49916e-05
-4.8367e-06
3.45816e-05
-3.51692e-05
6.90928e-06
-6.32279e-06
-3.16805e-05
-7.42195e-07
-9.90913e-06
2.477e-07
6.12289e-06
-6.371e-06
3.07511e-05
4.1801e-06
-2.52647e-05
-9.66081e-06
-2.05828e-06
-3.07032e-06
1.44534e-05
-9.32517e-06
3.00949e-06
5.3561e-07
1.00215e-05
-1.35642e-05
-3.23304e-05
1.42158e-05
1.57827e-05
2.33198e-06
1.47432e-05
-2.32698e-05
-3.33353e-06
1.18661e-05
-2.42254e-05
5.79922e-06
3.96251e-05
-2.11982e-05
-3.6731e-06
-1.93585e-07
3.85964e-06
-1.3642e-05
3.49682e-05
2.41269e-05
-4.54534e-05
3.01111e-05
8.21178e-07
-4.80838e-05
1.715e-05
-2.19262e-06
3.08664e-05
-2.73654e-06
-2.59367e-05
2.01305e-05
-1.57494e-05
1.19954e-05
-1.63868e-05
-1.28414e-06
-2.2927e-05
2.59085e-05
-1.69669e-06
-1.93307e-05
-3.01158e-06
-1.3624e-05
3.59607e-05
-8.14717e-06
-8.44352e-06
-1.50722e-05
3.16513e-05
-1.1861e-06
3.16947e-05
-3.46961e-06
-2.70388e-05
2.41179e-05
-2.37732e-05
2.2202e-07
-5.64606e-07
3.49352e-05
4.25215e-08
-2.4091e-05
-1.08837e-05
-8.55068e-06
-4.12762e-06
-2.43305e-05
3.70055e-05
-3.28008e-07
-3.61712e-06
3.94703e-06
-2.84774e-05
4.27588e-05
-3.33359e-06
-1.09465e-05
2.7375e-06
1.94846e-05
6.31266e-06
-2.85433e-05
-4.86586e-06
1.12981e-05
4.10104e-06
-1.05296e-05
-1.73884e-05
-4.31878e-06
1.81087e-05
3.6107e-06
1.90904e-05
1.39778e-05
-4.88712e-05
1.58031e-05
1.25065e-05
-9.49101e-06
3.17603e-05
-3.47723e-05
-2.69298e-06
2.15412e-05
1.81729e-06
-2.06632e-05
3.46653e-06
-3.39767e-06
-6.86903e-08
2.39005e-06
2.95284e-05
1.35623e-06
-3.32761e-05
2.93203e-05
-4.77159e-06
-2.79097e-05
3.36425e-06
-5.14298e-06
6.45276e-06
-2.92856e-05
2.79749e-05
-2.94031e-05
-4.54797e-06
2.3101e-05
1.086e-05
1.20385e-05
-1.141e-05
-1.06139e-07
-5.20754e-07
-4.19381e-05
2.69022e-05
-1.65898e-06
1.6698e-05
-5.12091e-06
4.35131e-06
7.71195e-07
1.29548e-05
-1.12065e-05
1.68296e-05
-1.85822e-05
1.95614e-05
1.64003e-05
-8.54413e-06
1.34526e-05
-3.64329e-05
-1.58726e-05
3.88478e-05
1.40515e-07
-1.74482e-05
1.75285e-05
-2.25582e-07
9.16988e-06
-1.52143e-05
-1.73968e-05
2.34375e-05
1.51317e-05
6.48886e-06
-2.429e-06
-1.91922e-05
-4.8498e-06
1.18016e-06
6.17711e-06
-2.50729e-06
-3.83517e-06
4.93489e-05
-1.6804e-05
-2.86992e-05
1.35643e-05
1.59209e-05
-6.08338e-07
-2.88764e-05
1.40145e-07
3.51712e-06
-3.65637e-06
-1.1567e-06
5.32659e-06
3.04745e-05
-3.46411e-05
3.62165e-05
4.81578e-06
-1.7397e-05
-2.3634e-05
-1.17626e-06
6.45219e-06
-5.10385e-06
-1.74959e-07
1.52919e-05
-1.35082e-06
-1.65773e-05
2.64247e-06
-4.56672e-06
-1.44952e-05
7.3177e-06
1.17415e-05
-5.69591e-06
2.64473e-05
4.39179e-06
-2.51461e-05
2.67788e-05
-3.40567e-06
-2.93506e-05
5.97889e-06
-3.12189e-06
6.03699e-06
-2.91386e-06
2.91618e-06
-1.27756e-05
1.13797e-05
-1.52031e-06
7.70515e-07
1.20371e-05
-1.27321e-05
-7.57885e-08
1.13854e-05
1.3219e-05
-1.49163e-06
-2.31136e-05
1.90831e-05
2.54314e-05
-1.7738e-05
-1.45331e-07
4.52648e-06
-4.37956e-06
-3.87806e-05
1.94706e-05
3.58013e-05
-1.6499e-05
3.88046e-05
6.72457e-06
-4.05544e-05
-4.97782e-06
2.48411e-05
-1.6445e-05
-2.77227e-05
8.34188e-06
1.4327e-05
-3.25553e-05
-1.78387e-06
-7.1491e-06
4.14886e-05
-1.45285e-07
4.50785e-06
-4.36116e-06
3.65904e-05
-1.38105e-06
-4.05067e-06
-3.11603e-05
4.73539e-06
-4.7553e-06
2.27088e-08
-1.3309e-05
3.40832e-06
-8.32042e-06
1.82246e-05
-2.1143e-05
-1.72541e-05
1.59335e-05
2.24652e-05
2.30284e-05
-1.7739e-05
-4.71312e-06
-5.75537e-07
-3.65632e-08
3.63768e-06
-3.60659e-06
-7.88384e-07
-4.79111e-06
1.31057e-08
5.57116e-06
8.83984e-06
3.42248e-06
-6.07307e-06
-6.19109e-06
-1.36484e-05
1.47117e-05
-1.85061e-06
-1.08644e-07
4.10542e-05
-1.31116e-06
-3.96337e-05
-8.31117e-06
-8.3192e-07
1.08764e-05
-1.73263e-06
3.88004e-06
-1.57743e-05
1.2542e-05
-6.48075e-07
1.08e-05
-2.0324e-05
1.40958e-05
-4.57074e-06
7.95254e-06
1.841e-05
2.93045e-06
-2.92884e-05
6.55214e-06
-6.6911e-06
1.37152e-07
1.65964e-05
-1.34962e-05
-3.4584e-05
3.14721e-05
9.62192e-07
1.22417e-06
1.61121e-05
-1.82952e-05
3.77522e-06
1.74801e-05
-2.20546e-05
7.99049e-07
1.32309e-05
-5.8934e-07
-2.02835e-06
-1.06134e-05
9.74549e-06
2.02535e-05
-3.00317e-05
2.94016e-08
1.62328e-05
-1.16073e-07
-1.39719e-06
-1.47182e-05
-2.6395e-05
9.61908e-06
1.29674e-06
1.54819e-05
-1.11389e-05
-1.03095e-05
-1.28686e-06
1.1525e-05
-1.9926e-05
1.49676e-05
-6.57197e-06
-3.99239e-06
-1.63413e-05
-2.46928e-05
4.50271e-05
-6.19043e-06
7.77224e-06
-1.77853e-06
1.96263e-07
5.60628e-08
3.0406e-06
-3.09923e-06
-7.37317e-06
3.88161e-05
1.21579e-05
-4.35972e-05
2.72451e-05
1.13868e-05
-1.01973e-05
-2.84405e-05
2.76099e-05
-2.36738e-05
2.77418e-05
-3.16754e-05
3.6122e-05
-3.99885e-05
4.5866e-06
-7.20538e-07
-5.11333e-05
2.21099e-05
9.26124e-06
1.97605e-05
-1.35545e-05
-1.66226e-06
1.48109e-05
4.05838e-07
3.16541e-05
-4.23884e-05
1.49121e-05
-4.17787e-06
1.20772e-05
-1.33339e-05
4.20494e-06
-2.94767e-06
-1.57738e-05
1.42036e-05
-9.56495e-06
-1.52256e-05
4.97449e-05
5.56161e-06
-4.00841e-05
-6.39112e-06
1.70026e-07
6.2224e-06
-4.75966e-06
1.0447e-05
-3.92975e-05
-2.2569e-05
-3.99024e-07
2.14686e-07
2.27553e-05
5.52222e-06
1.15201e-07
-5.63629e-06
8.28934e-06
-5.1211e-07
-3.05826e-05
2.28084e-05
-6.15411e-08
-2.06746e-07
1.2117e-05
-1.18493e-05
8.48554e-06
1.77902e-05
-3.01044e-05
3.83345e-06
2.36477e-05
1.65664e-06
1.61687e-06
-2.6915e-05
-3.02399e-06
5.95599e-06
4.00994e-05
-4.30279e-05
-1.00325e-05
-1.21825e-06
-4.05222e-07
1.16545e-05
-8.61934e-06
7.32052e-06
-2.89613e-05
3.02548e-05
-1.61706e-06
2.7361e-05
-2.37182e-05
-2.02407e-06
3.4273e-05
1.04412e-05
-1.57841e-05
-2.89312e-05
7.45485e-06
-4.09301e-05
2.69753e-05
-3.46844e-05
4.42429e-05
-2.11876e-06
1.90609e-05
-7.38696e-06
1.55678e-05
-1.54174e-05
-3.90219e-06
7.57092e-06
1.17491e-05
-8.15442e-06
8.8202e-07
7.45105e-06
-1.80679e-07
-1.13438e-05
2.78916e-05
-1.94885e-05
2.94203e-06
-3.24079e-05
2.8423e-05
3.01225e-05
-2.61381e-05
-3.95539e-06
3.62056e-06
1.8484e-07
1.50993e-07
3.13642e-05
-4.642e-05
-1.71788e-05
3.2235e-05
-4.1525e-05
-1.61984e-05
2.78928e-05
2.983e-05
3.71197e-05
3.95689e-06
2.1084e-06
-4.31877e-05
3.17692e-05
-2.10416e-05
2.6391e-05
-4.03907e-05
-3.75038e-06
1.61426e-05
2.8008e-05
3.80429e-06
3.05034e-07
-4.10687e-06
3.54865e-05
-3.28504e-05
-1.11777e-05
8.54092e-06
-2.1847e-05
-7.70807e-06
6.4986e-06
2.30468e-05
1.51346e-05
2.53354e-05
-1.43774e-05
-2.60943e-05
7.43134e-06
2.37057e-05
-2.30084e-05
-8.13044e-06
5.74073e-07
-7.5193e-06
6.94473e-06
-1.60106e-05
-1.37947e-05
1.36833e-05
1.61263e-05
1.88895e-06
2.16658e-05
-5.17519e-06
-1.83869e-05
-3.57348e-05
3.59297e-05
-6.58245e-06
-2.85503e-06
3.45365e-05
-3.3637e-05
1.95639e-06
1.99826e-05
4.15336e-06
1.11896e-05
-3.53276e-05
-7.2355e-08
-2.63907e-06
2.7142e-06
-3.86873e-06
3.83689e-06
3.43488e-08
-2.2707e-05
-1.1212e-05
1.34231e-05
2.04976e-05
-2.94299e-05
-7.69113e-07
3.58124e-05
-5.60795e-06
-8.77769e-06
3.20524e-05
-3.32518e-05
9.97679e-06
-2.50507e-05
2.03477e-05
-9.00598e-06
1.37068e-05
3.56545e-07
2.23829e-05
-2.51195e-05
2.38323e-06
-3.50853e-05
8.08311e-06
2.26564e-05
4.34413e-06
1.92371e-06
4.34966e-05
-1.64736e-05
-2.89465e-05
2.59855e-06
-4.87066e-06
-2.08101e-05
-1.05108e-05
8.61328e-06
1.99647e-05
-1.39472e-06
3.94591e-06
-2.25154e-05
-2.2816e-06
-5.49552e-06
6.89253e-06
8.9645e-07
1.52826e-05
-4.63381e-06
-1.08554e-05
2.1034e-07
1.29503e-05
-4.36081e-05
4.20123e-05
-1.13485e-05
-1.73533e-05
3.01669e-05
4.29198e-06
-1.71023e-05
-3.6747e-06
4.09548e-06
2.84409e-05
-2.88601e-05
-3.97456e-05
2.96089e-06
3.48919e-07
3.64478e-05
-2.26607e-05
2.8218e-06
1.80383e-05
1.80205e-06
-2.34272e-05
1.44826e-05
3.3016e-05
-2.40723e-05
-1.53257e-05
-2.82243e-05
7.98924e-06
3.55556e-05
4.7999e-06
-3.84236e-05
-4.33393e-06
3.79611e-05
-2.87148e-05
4.01093e-06
-1.57983e-06
2.62825e-05
-2.94682e-05
-1.89526e-06
-2.18586e-06
3.35517e-05
6.79162e-06
-3.57289e-06
3.21672e-05
-3.5382e-05
8.1938e-06
-4.71603e-06
-3.39677e-08
-3.44148e-06
4.49521e-06
-4.68445e-05
-7.21032e-06
4.9558e-05
-4.7527e-06
3.0276e-06
2.40404e-06
-6.81635e-07
-2.88089e-05
-7.5568e-06
1.58255e-05
2.05412e-05
-1.66765e-06
1.5887e-05
2.93812e-06
-1.71552e-05
-1.31048e-05
-1.4083e-05
9.58467e-06
-6.22853e-06
2.52322e-06
3.24106e-05
-2.87029e-05
2.50028e-05
-3.39597e-05
2.91564e-06