/*--------------------------------*- C++ -*----------------------------------*\
| =========                 |                                                 |
| \\      /  F ield         | OpenFOAM: The Open Source CFD Toolbox           |
|  \\    /   O peration     | Version:  2406                                  |
|   \\  /    A nd           | Website:  www.openfoam.com                      |
|    \\/     M anipulation  |                                                 |
\*---------------------------------------------------------------------------*/
FoamFile
{
    version     2.0;
    format      ascii;
    arch        "LSB;label=32;scalar=64";
    class       volVectorField;
    location    "26";
    object      U;
}
// * * * * * * * * * * * * * * * * * * * * * * * * * * * * * * * * * * * * * //

dimensions      [0 1 -1 0 0 0 0];

internalField   nonuniform List<vector> 
59516
(
(0.112795 0.000389852 -0.000484339)
(0.103303 -0.000294666 -0.000623518)
(0.118157 -0.00133697 -0.00014304)
(0.129838 0.00219266 0.00157396)
(0.113923 0.000378383 -0.00427575)
(0.101106 -0.00483111 -0.0107962)
(0.133116 0.000347336 -0.00157532)
(0.110113 0.00139279 0.000268978)
(0.117031 0.000753569 0.000562855)
(0.060815 -0.000698667 0.00218101)
(0.146514 0.00062875 -0.000882632)
(0.0659617 0.00101413 -0.00323668)
(0.125908 0.000784247 -0.000188568)
(0.023128 -0.000111528 -0.000288894)
(0.0688244 0.00148782 0.00302706)
(0.057203 0.0035403 -0.00180217)
(0.154193 0.000601751 -0.000109321)
(0.0719793 0.00371113 -0.00373204)
(0.117912 0.00339988 0.00123849)
(0.153448 -0.000614446 0.000263483)
(0.058313 0.000179356 -0.000690666)
(0.147123 0.000352205 0.000601688)
(0.150517 0.000744805 -7.29328e-05)
(0.0384214 -0.00120668 -0.000275377)
(0.15347 -0.000920972 0.0014658)
(0.072002 0.00147498 0.000622156)
(0.0472039 0.00100677 -0.00292306)
(0.0468347 0.00325185 0.000501585)
(0.0706512 0.00145182 0.000325733)
(0.0206675 -0.0031177 0.000951417)
(0.108443 -0.020826 -0.00455671)
(0.0481638 0.00304993 -0.000651838)
(0.133768 -0.000369694 0.0012257)
(0.116011 -9.58561e-05 0.00203876)
(0.137394 0.00156377 0.00175444)
(0.14565 -0.000594418 -7.34705e-05)
(0.0192995 -0.00188506 -0.00254006)
(0.0714924 0.00277695 -0.00631823)
(0.101387 -0.00216341 0.000106796)
(0.150137 -0.00210144 0.000750063)
(0.107858 -0.000940815 -7.85168e-05)
(0.142831 -0.00538042 -0.00532782)
(0.146598 -0.000223391 -2.82636e-05)
(0.113687 -0.000854491 2.48241e-05)
(0.144068 -0.00082071 0.000435426)
(0.0604915 -0.000641545 -0.00130088)
(0.134741 -0.00045043 -0.00153055)
(0.153234 -0.000424256 4.47937e-07)
(0.111799 -0.00882657 0.0123442)
(0.14509 0.00301219 0.00295176)
(0.104018 0.0104815 -0.014503)
(0.049159 -0.00361118 0.00224725)
(0.125311 0.00100905 -0.00134151)
(0.132279 -1.05191e-06 -0.000364253)
(0.0520348 0.00230928 -7.05128e-05)
(0.132075 -0.000240757 -0.00022769)
(0.140962 0.0060957 0.00669195)
(0.0540784 0.00418047 -0.00254475)
(0.153195 -0.00131778 0.000361289)
(0.134197 0.00406696 0.00518055)
(0.144846 0.000216412 0.000361975)
(0.0223761 0.0025561 -0.000944622)
(0.148524 -0.000607425 -0.000820398)
(0.150433 0.000285388 -0.000650695)
(0.129785 0.000227798 -0.00054236)
(0.14232 0.00145519 0.00146376)
(0.030465 -0.00210343 0.00267495)
(0.0467193 -5.00789e-05 -7.55399e-05)
(0.121209 -0.00479449 0.0218227)
(0.137297 0.00117956 0.000677163)
(0.0426913 0.00115464 0.000366877)
(0.1504 0.000236983 -0.000369796)
(0.0259526 0.00157461 -0.00388853)
(0.141151 -0.000763349 -0.000349447)
(0.155782 -0.00103108 0.00044497)
(0.151682 0.000575162 0.000254589)
(0.153262 0.000590186 -0.000115109)
(0.143092 0.000202409 -0.000638724)
(0.0519014 -0.00171239 0.00124399)
(0.144626 0.00193251 0.00335523)
(0.0430814 0.00249069 0.000927783)
(0.14173 0.0020018 0.00227113)
(0.137659 0.00109293 0.00220613)
(0.0231932 -0.00094408 0.00295795)
(0.141987 0.00171516 0.00236631)
(0.154164 -0.00062966 -2.63934e-05)
(0.0366106 -0.00112931 0.000655861)
(0.14765 5.89435e-05 0.00045518)
(0.059848 0.000359105 0.00284407)
(0.108931 0.00761027 -0.00485445)
(0.130655 -0.000404379 -0.00971129)
(0.135021 0.00146888 0.000184465)
(0.153375 -0.000263868 0.000409247)
(0.13468 0.000593904 -9.83034e-05)
(0.14603 -0.000444441 0.000319239)
(0.109977 -0.0103115 0.00411932)
(0.138958 -0.00105521 0.00124486)
(0.059781 -0.00145097 -0.00419414)
(0.0684838 0.00171316 -0.000387431)
(0.14419 -0.000471004 0.00121113)
(0.0418687 0.000723099 0.00140753)
(0.0282535 0.00113986 -0.00319461)
(0.0270776 0.00092985 0.00362189)
(0.0610925 -0.000702527 -0.00314345)
(0.135422 0.000791076 -0.000229128)
(0.138912 0.000451503 0.000677706)
(0.0456583 0.00358079 -0.0017351)
(0.111893 0.000146914 -0.000594835)
(0.10756 -0.000681905 0.000116922)
(0.0739052 0.000408662 -0.00274449)
(0.124824 0.0122693 -0.0127083)
(0.0351518 0.00341909 -0.000360549)
(0.0741341 0.000705275 -0.00416191)
(0.118347 0.0165364 -0.00838713)
(0.150596 -0.000375123 0.000292264)
(0.108647 0.001162 0.00116698)
(0.0593984 0.00036194 -0.0021464)
(0.134686 0.000657766 0.000798713)
(0.0253854 -0.000318948 0.00130772)
(0.142262 0.00152372 0.000517177)
(0.155411 5.9872e-06 0.000157109)
(0.151741 0.000926322 0.000183508)
(0.15051 7.3273e-05 -5.97989e-05)
(0.150337 0.000367315 0.000466931)
(0.132045 -0.0156186 0.00288716)
(0.0943899 0.000777767 -0.0016204)
(0.0343893 -0.000495766 0.00208603)
(0.13798 -0.0103516 -0.000279971)
(0.0900491 -0.00273151 0.012984)
(0.153475 0.000687089 0.000510208)
(0.15334 0.00058589 0.00134503)
(0.119598 0.00150299 0.00173603)
(0.0270577 0.0015233 -0.00176491)
(0.14643 5.94648e-05 0.000773063)
(0.110131 0.000653672 0.000366508)
(0.123456 -0.00113927 -0.00157202)
(0.108374 0.011999 -0.00859617)
(0.135373 -9.86199e-05 0.0010162)
(0.0447078 0.0027158 0.000109515)
(0.106505 0.000623484 -0.00116936)
(0.0493986 -0.000885795 -0.00231484)
(0.154343 0.000237647 4.63002e-05)
(0.0216011 0.00108826 0.00189901)
(0.128577 -0.00138283 -0.000279899)
(0.151874 0.000431606 -1.59531e-07)
(0.140092 0.0014808 -0.000171451)
(0.14176 -0.00127377 0.000131781)
(0.124073 5.68341e-05 -0.00169052)
(0.0622118 -0.00100961 0.00173283)
(0.113924 -0.000926032 -0.00060103)
(0.112156 -0.000288653 -0.000820885)
(0.0399977 -0.00110665 0.00014603)
(0.153733 -0.000399704 0.00137838)
(0.147826 -0.000402732 0.00106686)
(0.0980859 -0.000674197 0.00158639)
(0.0219193 -0.00045272 0.00230283)
(0.119976 0.000536538 0.000259005)
(0.12086 0.00088997 -0.000265813)
(0.0911655 0.00127213 -1.1118e-05)
(0.0226761 0.00268444 -0.00281855)
(0.07187 0.00153033 -0.00319295)
(0.0741023 -0.00331937 -0.00217745)
(0.0401547 -0.00152455 0.000489714)
(0.0292822 -0.000200054 -0.00051514)
(0.108389 0.00162607 0.00239799)
(0.155118 0.000158005 0.00098225)
(0.066498 -0.000458592 0.000159175)
(0.153193 0.000414987 2.5841e-05)
(0.0228789 -0.00130624 0.00256505)
(0.132475 -0.000166596 -9.30744e-07)
(0.0916947 0.00119863 0.00135977)
(0.0580605 0.000729067 -0.000726151)
(0.0714296 0.00146304 0.00106677)
(0.137138 -0.000896967 0.000890049)
(0.0563951 -0.00104385 0.000419295)
(0.136636 0.000417229 -0.00203117)
(0.1518 0.000310928 -0.000678418)
(0.148055 -0.00130933 -0.000665092)
(0.0738849 -0.000779156 0.00338578)
(0.0467497 -0.000249886 -0.000688311)
(0.143413 0.00120278 0.00133554)
(0.0377078 -0.00298629 -0.00145505)
(0.032778 -0.000327365 -0.00267062)
(0.0714068 -0.00209614 0.00029024)
(0.152831 -0.000164185 0.00102738)
(0.0636588 0.000389506 0.000684009)
(0.0396055 -0.00076778 -0.00294909)
(0.0259993 0.000280993 0.000193887)
(0.126703 1.47801e-05 0.000521643)
(0.107869 -0.00180312 5.5973e-05)
(0.133745 -0.00100516 0.0024192)
(0.0575336 0.00340493 0.000106136)
(0.15171 -0.000460708 -0.000130946)
(0.0636526 0.00281498 6.39547e-05)
(0.149305 -0.000674532 7.78098e-05)
(0.0327629 -0.00026519 0.000776881)
(0.0629792 0.000687139 -0.00027622)
(0.0453832 -0.00107489 0.000485951)
(0.115603 0.00243816 0.00353904)
(0.148383 0.000275729 0.000369489)
(0.0867893 -0.00296822 0.00052619)
(0.152805 0.00010278 -0.000238004)
(0.111175 -0.000365152 0.0010633)
(0.0224429 0.00224963 -0.0014448)
(0.133177 -0.00151459 -0.000549933)
(0.142505 -0.000399793 0.000157685)
(0.154193 -0.000363943 1.6225e-06)
(0.142015 6.15881e-05 3.68883e-05)
(0.0257109 -0.000710673 0.000218968)
(0.120626 -0.0017198 -0.00022059)
(0.0547267 0.00378899 0.00318432)
(0.025652 -0.0039135 -0.000623308)
(0.14388 0.000523195 -0.00131742)
(0.0623668 -0.000807919 0.000633745)
(0.123118 0.000896645 0.000306508)
(0.153183 -0.000793999 0.000894793)
(0.138975 0.000894121 0.000147209)
(0.15036 -0.000865164 0.000210705)
(0.0603732 0.00225013 -0.00305092)
(0.150632 -0.00057736 0.000638003)
(0.0623808 0.00241785 0.00146035)
(0.110154 0.000966405 -0.000160883)
(0.148842 0.000671338 0.0012008)
(0.0459347 -0.000300341 0.000918747)
(0.150075 -0.00156543 0.000584571)
(0.15186 0.000237445 -0.000669338)
(0.0314224 -0.000248106 0.00162865)
(0.0527072 0.00154555 -0.00227834)
(0.151423 -0.000492222 0.00131121)
(0.0599259 -7.0045e-05 -0.0040608)
(0.155194 -0.000877306 0.000485259)
(0.15174 0.000619511 -0.000520297)
(0.151343 0.000381922 0.00121344)
(0.0283669 -0.00210626 -0.00144714)
(0.0364074 0.000775436 -0.0015409)
(0.0390727 0.000704668 -0.00117383)
(0.0703538 0.000288022 0.000934561)
(0.103361 -0.00130443 0.00055313)
(0.146833 0.000421474 0.001055)
(0.0614534 -0.00121298 0.00124433)
(0.152727 9.51108e-05 0.00111569)
(0.0234762 0.000306703 0.00332274)
(0.0593362 0.000188132 0.00120592)
(0.0285897 0.000184375 0.00311575)
(0.152399 0.000714794 0.000488663)
(0.101521 -0.00040046 -0.00066546)
(0.141572 -9.93015e-05 0.000494554)
(0.072035 0.000481355 -0.00126835)
(0.154226 -0.000217534 0.00104058)
(0.111658 0.000149506 0.000110415)
(0.153131 -0.00193412 0.000914207)
(0.139284 0.000138703 0.000548062)
(0.152164 0.000304068 0.0010722)
(0.141134 7.54096e-05 -0.000363015)
(0.143069 0.00106482 0.000363956)
(0.148795 0.000247901 0.000384184)
(0.0607442 0.000241393 -9.04502e-05)
(0.146335 0.000163898 0.000800494)
(0.0475446 -0.000184379 -0.00237197)
(0.0664076 0.000210599 0.00229587)
(0.133601 0.0012093 -0.000735416)
(0.149669 -0.000834942 0.00122025)
(0.121612 0.0020584 0.00164477)
(0.153843 -0.000705091 0.00116298)
(0.106414 -0.000567473 0.00236337)
(0.0632739 0.00288879 -0.00148144)
(0.150053 0.000212637 -0.000575283)
(0.099665 0.00189212 0.000613726)
(0.0524628 -0.00089643 -0.000432779)
(0.0576907 -5.83484e-05 -0.0013817)
(0.10408 -0.000105973 -0.00224593)
(0.150979 -0.000703157 -0.000285632)
(0.105807 -0.00221494 0.000106521)
(0.101146 -0.00122506 0.000475145)
(0.151048 -0.00142308 0.000627395)
(0.101225 -0.000468769 0.00313662)
(0.0246155 0.00258951 -0.00158056)
(0.151855 -0.00062135 0.00132853)
(0.0295804 0.0017402 -0.00213454)
(0.0452637 -0.00183347 0.00110719)
(0.150942 -0.000139212 0.00114813)
(0.139706 -0.000638501 5.90928e-05)
(0.0286132 0.00320666 0.00295343)
(0.127336 0.000926996 0.000338399)
(0.131499 0.00208475 0.000292223)
(0.15183 0.000922507 -0.000156966)
(0.15191 -0.000428251 0.00011767)
(0.027982 0.0030873 0.000701677)
(0.151241 -0.000719315 0.00105539)
(0.150434 -0.00172668 9.06222e-05)
(0.150811 -0.000294562 0.00113884)
(0.136268 -0.000480257 0.00113117)
(0.134763 0.00120944 0.00146006)
(0.10207 0.000470505 -0.000681287)
(0.156114 0.00080171 0.000155673)
(0.0319997 -0.00108165 -0.00134505)
(0.147078 -0.00219208 0.000515085)
(0.141523 -0.00113357 -0.000677777)
(0.152731 -0.00137161 0.000684887)
(0.148043 -0.00163484 0.000373395)
(0.123086 -0.00103508 0.000583861)
(0.0651229 0.00169629 0.00147004)
(0.0261783 -0.000472758 0.0018494)
(0.0331976 -0.000655193 0.000487203)
(0.155754 -0.00179417 -5.10758e-05)
(0.023656 -0.00118504 0.00337324)
(0.0700549 -0.000281876 -0.00094184)
(0.0580433 0.00272852 0.00140869)
(0.152564 -0.000984069 0.000612002)
(0.155401 0.000241135 -0.000650532)
(0.149153 -8.86228e-05 -0.000205112)
(0.065652 -0.00066476 -0.0011432)
(0.108709 0.00121466 -0.00171796)
(0.0456233 -0.00347644 0.00320326)
(0.0598215 0.000739549 0.00173931)
(0.144948 -0.00116777 0.000225417)
(0.106823 0.00143335 -0.000688917)
(0.107689 0.0124171 0.00358721)
(0.0966508 -0.0022157 0.0010885)
(0.0482442 -0.00030849 -0.000698107)
(0.0706554 -0.000896635 0.00172912)
(0.115047 -0.00020956 -0.00149138)
(0.153466 -5.93088e-05 -6.32383e-05)
(0.155129 0.000861623 0.000453033)
(0.154045 0.000102406 0.00147302)
(0.152568 -0.0016173 0.000277109)
(0.0997756 0.0023429 0.00381603)
(0.129548 0.00138904 0.000339614)
(0.148626 0.00183099 -9.7053e-06)
(0.150354 0.000391463 0.000228162)
(0.151368 -0.000160675 0.000798653)
(0.0633093 0.00126601 -0.00308515)
(0.0257819 -0.00127755 -0.00310169)
(0.145587 -7.66276e-06 0.000593365)
(0.0455535 -0.00194136 0.00242239)
(0.0370786 0.000159392 0.000291385)
(0.148761 9.89591e-05 0.00110125)
(0.143686 -0.00087185 0.0004541)
(0.0636581 -0.00188869 -0.00231586)
(0.15209 -0.000682974 0.000653972)
(0.152931 -0.00132805 0.000248274)
(0.153585 -0.000548077 -0.000670144)
(0.154075 0.000415609 -0.000412551)
(0.0367159 0.00176951 -9.88634e-05)
(0.151556 0.000313429 -0.000365806)
(0.151523 -0.00080572 0.000623896)
(0.0641337 -4.23145e-05 0.00071407)
(0.152373 -0.000498062 0.00143285)
(0.152201 0.000279226 0.000441357)
(0.13418 -0.000109301 -0.000922767)
(0.126416 -0.000226708 -0.000721831)
(0.143947 -0.000544446 0.000691802)
(0.141148 -0.000985235 0.000494326)
(0.0762512 -0.000207374 -8.37122e-06)
(0.0358907 0.00154892 -0.00128497)
(0.0386182 -0.00228398 -0.000203798)
(0.103124 0.000213055 0.000623657)
(0.0870534 -0.00640566 0.0102389)
(0.0749155 -0.00414487 -0.00600061)
(0.0915854 0.000437787 0.000435133)
(0.119827 4.50315e-05 0.00153186)
(0.134397 0.000153463 0.000340722)
(0.14802 0.00031096 0.0019145)
(0.15257 0.00051997 0.000569248)
(0.134812 -0.000422888 0.000368504)
(0.14419 0.000821984 0.00053708)
(0.143245 0.00138135 0.000446443)
(0.0362341 -0.000919848 -0.000308947)
(0.113877 -0.0221308 0.00284404)
(0.0653917 0.00199943 0.000646277)
(0.0464633 -0.00230408 -0.000296411)
(0.0470329 0.000704982 0.000311533)
(0.150371 0.000594932 0.000244307)
(0.102 -0.000193712 0.00014044)
(0.151822 0.000407003 -0.000378119)
(0.023264 0.00126688 -0.00176278)
(0.130235 -0.00042495 3.95794e-05)
(0.0511196 0.00106904 -0.0010392)
(0.150864 -0.00107179 5.98037e-05)
(0.0543848 -0.000434991 -0.000480403)
(0.0687 -0.00149594 0.00133316)
(0.114491 -0.0020432 0.000744825)
(0.144877 0.000278081 0.00121035)
(0.0230316 0.00193373 -0.00239977)
(0.0607683 -0.000506126 0.00260465)
(0.13451 0.000148276 0.0005822)
(0.0268403 -0.0016686 -0.00203304)
(0.130762 0.00119024 0.00603053)
(0.121412 -0.000610261 0.00226667)
(0.133888 0.00048985 -0.0017686)
(0.101664 0.00224259 -0.00257987)
(0.0947067 -0.000247492 0.00151499)
(0.153349 0.00137304 -0.00030246)
(0.0780115 -0.00742624 -0.00699701)
(0.154529 0.00180571 0.000581735)
(0.111749 0.00784486 0.0084928)
(0.0664539 -0.00290403 0.000239078)
(0.0684967 -0.000299646 -0.00166678)
(0.155285 0.00106513 0.000177429)
(0.157571 0.00162358 0.000410978)
(0.0593448 -0.000540025 0.000620104)
(0.138571 0.000695432 -0.000506668)
(0.106013 -0.000719273 -0.00216981)
(0.15433 -0.00078073 0.000599959)
(0.153949 -0.00054284 0.000902375)
(0.0516177 0.00153455 -0.00389962)
(0.134595 -0.000614286 1.63663e-05)
(0.144397 -0.0015629 0.00120859)
(0.146173 6.5985e-05 0.000215541)
(0.150771 5.17356e-05 0.000416826)
(0.0244061 -0.000991416 -0.00311308)
(0.0239623 0.00138599 -0.00285056)
(0.129168 0.000721094 -0.00147495)
(0.153412 0.000186332 -0.000238478)
(0.153922 -0.00111929 -0.000799758)
(0.0398875 0.000372776 -0.00273931)
(0.14954 -0.000794587 0.00054623)
(0.114566 -0.000816389 -0.00013655)
(0.148599 0.000676782 0.000945751)
(0.155574 0.00139819 9.3446e-05)
(0.154944 0.000395093 -0.000122706)
(0.153797 0.00145289 0.000820906)
(0.154374 0.00179735 0.000891086)
(0.0981128 0.000565122 0.00058926)
(0.153061 0.00191623 0.000283808)
(0.0630034 -0.00136975 -0.00324429)
(0.151749 -0.000523244 -0.0003037)
(0.116299 -0.000103686 -0.00141262)
(0.145032 0.00156976 0.000405883)
(0.15256 0.000395978 -0.000235959)
(0.147106 0.000347212 -0.000164378)
(0.142379 0.00129856 -0.000134905)
(0.0466247 0.00257231 0.00251484)
(0.0385465 0.000730266 -5.28856e-05)
(0.0249822 0.00193908 -0.00243254)
(0.145441 0.00262587 0.00422333)
(0.157313 9.91523e-05 -3.6592e-05)
(0.13735 -0.000441381 0.000587645)
(0.130657 0.00189579 0.000832328)
(0.0345899 -0.000173935 0.00112678)
(0.0275059 -0.000677422 0.00321563)
(0.120599 -0.000316375 0.0017333)
(0.144096 1.28283e-05 0.00116589)
(0.153352 0.000389623 0.000682293)
(0.15024 0.00107676 -0.000188466)
(0.138971 -0.00039312 -0.00115891)
(0.154642 0.00111556 -0.000210379)
(0.13751 0.00106874 0.000253624)
(0.0306636 -0.000867451 0.00283324)
(0.126856 -0.000672685 -7.02313e-05)
(0.064635 0.000744045 0.00304449)
(0.0707697 -0.0069104 0.00151019)
(0.145254 0.000208 -0.00056405)
(0.101599 0.000413441 0.00024072)
(0.143792 0.000645367 -0.000140602)
(0.0243902 -0.00433875 -0.00142416)
(0.157037 0.00203061 0.000221076)
(0.154569 -7.27146e-05 0.00023579)
(0.152204 0.00166606 0.000435875)
(0.0988986 0.000857224 1.33893e-05)
(0.145129 0.000436845 0.000770654)
(0.150771 0.000829021 0.000913409)
(0.123411 0.000483071 -0.000424608)
(0.152005 0.000797562 0.000327813)
(0.102806 0.00278031 -0.00193215)
(0.153624 -8.7507e-05 -1.22337e-05)
(0.146088 -0.00159881 -0.000762018)
(0.0235067 -0.00158461 0.00176205)
(0.154154 -0.000344029 -0.000860416)
(0.120957 0.00182239 -0.00011382)
(0.0513746 -0.0015287 0.00386753)
(0.0998621 0.000362859 -0.00172914)
(0.152116 6.14684e-05 -0.000917658)
(0.133412 -0.000256716 0.000502134)
(0.0936302 0.000279787 -0.002541)
(0.0230751 -0.00229414 -0.00231301)
(0.154173 -0.000853411 -0.000868492)
(0.12861 0.00181668 -0.0014968)
(0.150548 -0.000537897 3.4983e-05)
(0.128586 -0.00033657 0.00055121)
(0.0414412 0.00170059 0.001847)
(0.139691 -0.000358748 -0.000776574)
(0.0280439 0.00218587 -0.00341029)
(0.150123 8.13254e-05 -3.23594e-05)
(0.102286 0.0113962 -0.00367264)
(0.151615 -7.92263e-05 -3.75165e-05)
(0.058663 -0.000146011 0.00213995)
(0.112407 -0.00125837 -0.00142512)
(0.102012 0.000366893 -0.00133227)
(0.0395398 0.00242728 0.00163595)
(0.150489 0.000708651 0.000337535)
(0.147675 0.0010285 0.000443541)
(0.0256599 0.000970776 0.00251304)
(0.147967 -0.00189246 0.000168727)
(0.151 -0.00179274 0.000679111)
(0.0421079 -0.000180784 -0.00223446)
(0.0683005 0.00254602 0.000153438)
(0.0591506 0.00214223 0.00168479)
(0.145927 0.00102336 0.000793915)
(0.151472 -0.000839746 0.000282589)
(0.0342213 -0.00072279 0.0015633)
(0.0600999 -0.00201969 -0.000360066)
(0.0623364 0.0011081 0.000182674)
(0.119951 0.00124568 0.000266056)
(0.151555 -0.00101222 0.00042335)
(0.0261313 0.00129225 -0.00333762)
(0.151959 -0.00118289 0.000727778)
(0.147005 0.000793244 4.76228e-05)
(0.151878 0.000674149 0.000945868)
(0.0901042 0.00385463 -0.00371695)
(0.155683 0.000886979 0.000325037)
(0.0255132 -1.55413e-05 -0.00248256)
(0.152433 -0.00102613 -0.000285429)
(0.0310592 -0.000621606 -7.01316e-05)
(0.0644819 -0.00199929 -8.05405e-05)
(0.147901 -0.000433416 0.000161668)
(0.066955 -0.00172627 -0.000527834)
(0.0239785 0.00246313 0.00243689)
(0.0422761 0.000467746 -0.00121275)
(0.051154 -0.00225952 0.00157942)
(0.0655734 0.000858058 -0.00166925)
(0.144907 -0.000441762 -0.000357564)
(0.0547817 -0.00116816 0.000188039)
(0.0650647 0.00201172 -0.00138447)
(0.127694 -0.00612553 -0.0124895)
(0.148751 0.00108977 0.000454173)
(0.0278467 0.00151878 0.000284333)
(0.113881 0.000115896 -0.00103683)
(0.0820397 0.00848133 -0.00317923)
(0.152773 -0.00176506 -0.000227278)
(0.0644617 -0.000364011 -0.00144538)
(0.147219 0.00128095 0.000600237)
(0.0641851 -0.00246684 -0.00182886)
(0.124711 0.000247809 0.000530079)
(0.152256 0.00129244 -0.000564307)
(0.0574534 0.00252656 -0.00483614)
(0.154102 0.000552985 0.000255586)
(0.0490643 0.0017441 0.00242303)
(0.0222377 0.00335571 0.00123376)
(0.141051 3.91969e-05 0.000481059)
(0.151295 0.00126025 -5.23287e-05)
(0.132367 0.000798089 -0.00024183)
(0.128547 0.00131862 -0.000349372)
(0.153906 -0.00176361 0.000398848)
(0.0671787 0.00152191 4.07691e-05)
(0.152752 -0.00187336 0.000294837)
(0.0630514 -0.00189375 0.00261177)
(0.152044 0.00116292 -0.000312683)
(0.129145 -0.0015545 -0.000719382)
(0.0318469 0.000532277 -0.00417199)
(0.150181 -0.000391813 -0.000712764)
(0.0577089 4.95057e-05 0.00170677)
(0.0301499 -0.00196242 -0.00167818)
(0.148499 -0.000237988 8.68608e-05)
(0.0479799 -0.00115654 0.00105622)
(0.136923 0.00052395 0.000385091)
(0.149888 0.000627559 0.000629882)
(0.132616 0.00110768 0.00109316)
(0.057977 -0.00213515 -0.00273984)
(0.156846 0.00115356 0.000168183)
(0.0970352 -0.00111247 0.00103538)
(0.157248 0.000113017 0.00102001)
(0.15525 0.000604532 -0.000230395)
(0.156083 0.00101138 0.000526933)
(0.151495 0.00108207 0.000101318)
(0.0489727 -0.00229891 -0.00201196)
(0.0571789 3.59417e-05 -0.000553473)
(0.153613 0.00103669 -0.000202691)
(0.151003 0.00138641 0.000932077)
(0.0358963 -0.00197305 -0.00120304)
(0.14852 0.000427022 -0.000148388)
(0.15751 8.12159e-05 0.000915565)
(0.155591 -0.00159547 -0.000573167)
(0.155355 -0.00164348 -0.000509218)
(0.122575 -0.000813107 -0.000540922)
(0.0248088 0.00230686 0.00215055)
(0.157007 0.000508962 0.000642119)
(0.1061 -0.000650334 -0.00160886)
(0.142694 -0.000660343 0.000387493)
(0.101569 -0.000253957 0.000384222)
(0.0330937 0.00234613 -0.000318618)
(0.150299 0.00116211 7.25299e-05)
(0.0980875 0.00200797 0.00200382)
(0.136618 -0.000404742 0.00020909)
(0.154401 -0.00174199 -0.000222468)
(0.138539 -0.00177153 -0.000461301)
(0.019906 0.00151515 -0.00222272)
(0.0252166 -0.00132917 -0.0024081)
(0.14959 -0.00158234 0.000110525)
(0.14746 -0.000192845 0.000307052)
(0.153842 0.00135473 0.000806482)
(0.142361 0.000673108 0.000682092)
(0.0974969 -0.0014777 0.000606438)
(0.144816 -0.00121926 -0.000380151)
(0.153381 0.000380706 0.00018663)
(0.023096 0.0018989 0.000359813)
(0.14952 -0.00167176 0.000215624)
(0.134842 -0.0121585 0.000187052)
(0.0421032 -0.00049759 0.0019877)
(0.0594169 -0.0035555 0.00103425)
(0.145048 -0.000914032 -0.000962434)
(0.141261 -0.00134406 0.00051365)
(0.1372 0.000894191 -0.000193316)
(0.12934 -0.000601072 0.000525336)
(0.112205 -0.00360114 0.00104341)
(0.154101 0.000136397 -9.43563e-06)
(0.103309 0.00161842 -0.00277023)
(0.157156 0.00158329 -2.47504e-05)
(0.150977 -0.00070831 -0.000354591)
(0.155539 -0.00181596 0.00104938)
(0.151167 -0.00163819 0.000253363)
(0.0450587 -0.000303017 0.00187769)
(0.152004 -0.00131716 0.000527938)
(0.0367664 0.00108857 -0.00139579)
(0.094548 -0.00911551 0.00537794)
(0.0660253 0.00200547 0.0011965)
(0.126667 -0.00206359 -0.0116284)
(0.133487 -0.000496229 7.61005e-05)
(0.117781 -0.0182914 -0.00393068)
(0.15022 -0.00024033 -0.000163564)
(0.156804 0.000124999 0.000101829)
(0.147125 0.00028425 -0.000146919)
(0.150255 3.71481e-05 0.00126137)
(0.037968 8.03908e-05 -0.000408149)
(0.100943 -0.00385386 -0.00257708)
(0.112429 -0.00202935 -0.0158582)
(0.151579 0.000107568 2.29435e-05)
(0.118255 -0.00257615 -0.000334674)
(0.136603 -0.0106991 -0.00363363)
(0.148354 -0.000631236 0.00226195)
(0.116961 0.00138372 0.000757877)
(0.0389745 -0.000729983 0.00122091)
(0.0591395 -0.00280615 0.00153202)
(0.0269004 0.000264195 -0.000153432)
(0.0265681 0.000166846 -0.0020765)
(0.0380087 -0.000113574 0.000375006)
(0.135062 -0.00566574 0.00419193)
(0.137802 0.000246941 0.000643178)
(0.0268845 -0.000843917 0.00359002)
(0.0253963 0.00159358 0.00279773)
(0.15316 0.000816907 -2.75721e-06)
(0.096413 -0.0123303 0.00842208)
(0.0412355 0.00165875 0.000811935)
(0.145096 0.000219668 0.000224107)
(0.110438 -0.000380071 -0.00171065)
(0.136332 1.26993e-05 0.00110994)
(0.0463194 0.00210553 -0.00118287)
(0.0583355 0.00202927 -0.000705901)
(0.117368 -0.000967225 0.000192786)
(0.151339 0.000124878 -1.69982e-05)
(0.146752 0.000267916 -0.000505876)
(0.0396809 0.0028145 -0.000817799)
(0.0262635 -0.00210712 0.00123039)
(0.106282 -0.0151627 -0.0112395)
(0.0282594 -0.00357315 0.000159239)
(0.135541 -0.00128122 -0.00140306)
(0.0304184 0.00155597 -0.00352028)
(0.111505 -0.000557662 0.00248384)
(0.151859 -0.000665992 0.000170065)
(0.157712 -0.000781935 0.000769601)
(0.0485933 0.000782606 -0.000844634)
(0.103702 -0.000243951 -0.000948194)
(0.0388135 0.0015606 -0.00135844)
(0.0305602 0.00351839 -0.00135362)
(0.152134 3.94377e-06 -0.000757451)
(0.0214949 -0.00173018 -0.00264162)
(0.148847 -0.0018316 0.000126543)
(0.0525452 0.0009567 -0.00221545)
(0.148005 -0.000467338 -9.21688e-05)
(0.140712 8.3787e-05 3.32505e-05)
(0.0238943 -0.000684413 0.00364175)
(0.0620085 -0.00280898 -0.000160583)
(0.14355 0.000757891 0.000381492)
(0.0371186 -0.00141499 0.000332542)
(0.14626 -0.000901355 -0.00032927)
(0.0589554 -0.00203379 0.00333252)
(0.115494 0.000296345 -6.93218e-05)
(0.153087 -0.000312393 -0.00103568)
(0.0397403 0.000976297 0.00097648)
(0.025705 0.00110772 -0.00321902)
(0.0556688 0.000938704 -0.000677638)
(0.110781 0.0173912 0.00378205)
(0.111568 0.000446521 0.000445298)
(0.0604056 -0.00244696 0.00283325)
(0.0917124 0.000321479 0.00173779)
(0.0338813 -0.00137631 0.000872854)
(0.153023 -0.000165398 -0.00108687)
(0.0252237 -0.000544522 -0.00164545)
(0.155178 -0.00165143 2.22052e-05)
(0.144945 -0.000871389 0.000581006)
(0.151289 -0.000648882 0.000292056)
(0.0211707 0.00214235 0.000142932)
(0.14778 -0.00145951 0.000370865)
(0.0895932 0.00047302 -0.0003162)
(0.149997 0.000738646 0.000503158)
(0.0590324 -4.03762e-05 -0.00013532)
(0.108105 -0.0130017 0.00676262)
(0.152024 -0.00162405 4.13454e-05)
(0.0441899 0.000844482 -8.97673e-05)
(0.153961 9.02779e-05 0.000126786)
(0.10884 0.00205709 -0.0204441)
(0.121665 0.00028553 -0.000395613)
(0.0355455 0.000861561 -0.00156065)
(0.0561736 -0.000533745 -0.00244776)
(0.15276 -0.000132514 0.000215052)
(0.134262 0.00126597 -0.00045236)
(0.0356648 0.00107469 0.000588404)
(0.114734 0.000950759 -0.00118883)
(0.0649359 -0.000627211 -0.00235715)
(0.0275483 -0.00233771 0.00135125)
(0.153196 0.00014907 -1.50404e-06)
(0.103327 -0.00130163 0.0101052)
(0.135658 0.00155786 -0.00198298)
(0.152532 -5.03869e-05 0.000126299)
(0.152794 8.43073e-05 0.000615527)
(0.150922 -0.000286746 -0.000759902)
(0.13486 0.000682997 0.000704012)
(0.0478882 0.00116117 0.000233609)
(0.0427529 -0.00169013 -0.0019728)
(0.156663 0.00157225 0.000166784)
(0.107541 -0.00938123 0.00880709)
(0.12632 -0.00146189 0.000801893)
(0.133262 -0.000971124 0.000334305)
(0.0872063 0.00143141 0.00107932)
(0.144235 0.000147463 0.000169922)
(0.150488 0.000380331 -0.000352846)
(0.104802 -0.000329966 -0.00137161)
(0.11157 0.00185784 -0.000206792)
(0.0412805 -0.000111765 -0.00244467)
(0.0771421 0.000652097 -0.000433073)
(0.0473212 -0.00150659 -0.00354008)
(0.145802 0.000271683 0.00100061)
(0.153454 -0.000530175 0.000674625)
(0.102082 0.0013764 -0.00262325)
(0.104222 0.00115412 -0.000284906)
(0.0231645 0.00242843 -0.000477342)
(0.0848221 -0.000325961 -0.000508019)
(0.0637579 -0.0021225 -0.00275114)
(0.152787 -4.48338e-05 -0.000920659)
(0.153311 -0.00077367 -0.000628438)
(0.104794 -0.00956807 0.00612643)
(0.148232 -0.000240032 0.00111358)
(0.0877357 -0.00233951 -0.00203942)
(0.101712 -0.00256103 0.00794622)
(0.134965 -0.000281139 0.00209328)
(0.0291892 -0.00212122 -3.15747e-05)
(0.153245 -0.000406388 -0.000727976)
(0.0534833 0.00148023 -6.47736e-05)
(0.137154 -0.000351879 0.00111847)
(0.0316787 0.00441564 -0.000486393)
(0.153559 0.00137481 -0.00101726)
(0.101642 -0.00436693 0.00273584)
(0.148532 0.000239397 -0.000217593)
(0.122204 0.000896276 0.000367529)
(0.142312 -1.2845e-05 -0.00021485)
(0.145063 0.000636416 0.000150449)
(0.153049 -0.00031153 -0.000581144)
(0.0370126 -0.00182528 -7.13521e-05)
(0.0519989 0.000688159 -0.0010183)
(0.0320108 -0.000632557 -0.000258376)
(0.151757 -0.000125614 0.000868003)
(0.146739 0.000233013 -0.00087801)
(0.136252 0.00180125 -0.000721759)
(0.151338 0.000486522 4.83464e-05)
(0.0234039 0.000356527 0.000791405)
(0.104874 -3.35021e-05 7.64561e-06)
(0.0947281 0.000997613 -0.00185832)
(0.15254 -0.000255908 0.000383928)
(0.130113 -0.00139281 0.000379411)
(0.141359 -0.000471007 -2.08388e-05)
(0.111406 -8.4878e-05 0.00154074)
(0.152191 -7.24516e-05 0.000805579)
(0.0227889 -0.00249088 -0.0026798)
(0.0915622 -0.00305465 0.000378274)
(0.14439 -1.44721e-05 0.00048771)
(0.0294236 -0.00255595 0.00211992)
(0.0478717 -0.000717837 -0.00215925)
(0.0669053 -0.000724587 0.000460253)
(0.0244563 0.00171198 -0.00246804)
(0.100942 0.000543575 -0.000806855)
(0.150811 0.00122276 3.98369e-05)
(0.0653534 -0.00210893 -0.00163392)
(0.0216161 -0.00266619 -0.00179453)
(0.112227 0.000143802 -0.000630825)
(0.0284447 0.000291757 0.000360206)
(0.104836 0.00115369 -0.000612242)
(0.151657 -5.13231e-06 0.000152678)
(0.152919 3.59419e-05 -0.000212427)
(0.15188 2.6027e-05 -0.000433411)
(0.151222 0.00136984 -0.000642739)
(0.151516 0.000152414 -8.40092e-05)
(0.133615 0.000407449 0.00125922)
(0.0513704 0.00128909 -0.00134275)
(0.151548 0.000561111 0.000827624)
(0.128935 -0.000396981 0.00091334)
(0.0936138 6.29258e-05 -0.00130629)
(0.100684 -0.0011226 0.000764799)
(0.149288 -1.10815e-05 -0.000207561)
(0.121965 -0.00116811 -7.46054e-05)
(0.0725485 0.000362659 0.00245526)
(0.147459 -0.000338649 0.000152236)
(0.0364798 0.00121013 0.000385125)
(0.0950273 0.000162541 0.0010597)
(0.10275 -0.000164902 7.25701e-05)
(0.06654 7.50931e-05 0.00112029)
(0.149448 0.000124129 0.00038019)
(0.106085 -0.0123903 0.0133297)
(0.127556 0.00595343 0.00426479)
(0.037052 0.000580733 -0.0027449)
(0.0294326 -0.00201874 0.00100942)
(0.0619538 0.00212152 -0.000577812)
(0.0231011 -0.00141377 -0.0015872)
(0.129353 0.000349714 -0.000365263)
(0.143409 0.00187652 -0.000326655)
(0.13198 0.00115105 0.000165211)
(0.111148 0.00946262 -0.0109201)
(0.131532 0.00088482 0.000267008)
(0.139576 0.00165487 3.00801e-05)
(0.0276061 -0.00222167 0.00532098)
(0.144532 0.00136622 -0.000109095)
(0.126708 -0.00325531 0.0117365)
(0.0483775 0.000761436 -0.0012602)
(0.0250417 -0.00379388 0.00079129)
(0.119483 5.65155e-05 0.00153619)
(0.1166 -0.000666783 -0.000878037)
(0.0294055 -0.00184088 0.00326484)
(0.152408 -0.00123736 -0.000562787)
(0.0259588 -0.00278061 0.00234125)
(0.152925 -0.00086199 -0.00032677)
(0.146131 -0.000763513 0.000491522)
(0.122592 -0.00198642 0.00120029)