/*--------------------------------*- C++ -*----------------------------------*\
| =========                 |                                                 |
| \\      /  F ield         | OpenFOAM: The Open Source CFD Toolbox           |
|  \\    /   O peration     | Version:  2406                                  |
|   \\  /    A nd           | Website:  www.openfoam.com                      |
|    \\/     M anipulation  |                                                 |
\*---------------------------------------------------------------------------*/
FoamFile
{
    version     2.0;
    format      ascii;
    arch        "LSB;label=32;scalar=64";
    class       volVectorField;
    location    "26";
    object      U:Transformed;
}
// * * * * * * * * * * * * * * * * * * * * * * * * * * * * * * * * * * * * * //

dimensions      [0 1 -1 0 0 0 0];

internalField   nonuniform List<vector> 
59516
(
(0.000450473 -0.000428536 0.112795)
(0.00049866 -0.000476383 0.103303)
(-0.000203174 0.00132917 0.118157)
(-0.00266949 0.000398634 0.129838)
(-0.00429125 0.000101621 0.113923)
(-0.0104408 0.00555766 0.101106)
(-8.65199e-05 -0.00161083 0.133116)
(-0.000194197 -0.00140517 0.110113)
(-0.000817863 -0.000464514 0.117031)
(0.00216158 0.000756629 0.060815)
(-0.000707443 -0.000820908 0.146514)
(-0.00214253 -0.00262947 0.0659617)
(-0.000733906 -0.000334638 0.125908)
(0.000146573 -0.00027279 0.023128)
(5.64982e-05 -0.00337246 0.0688244)
(-0.00131761 0.00374772 0.057203)
(0.000553937 -0.000259246 0.154193)
(-0.00501047 -0.00161115 0.0719793)
(-0.00326555 -0.00155858 0.117912)
(-0.000389392 0.000543453 0.153448)
(-0.000493879 0.000515045 0.058313)
(0.00053871 -0.000442569 0.147123)
(0.000383383 -0.000642706 0.150517)
(0.00105783 0.000642589 0.0384214)
(0.000669606 0.00159637 0.15347)
(-0.000161484 0.00159266 0.072002)
(-0.000686363 0.00301443 0.0472039)
(-0.00288369 -0.00158445 0.0468347)
(-0.00108459 -0.0010186 0.0706512)
(0.00263047 0.00192508 0.0206675)
(-0.0212834 0.00122553 0.108443)
(-0.00236629 0.00203167 0.0481638)
(-0.000781661 -0.00101391 0.133768)
(-0.00202416 -0.00026168 0.116011)
(-0.0022931 -0.000514948 0.137394)
(0.000377037 0.000465375 0.14565)
(-0.0027609 0.00154362 0.0192995)
(-0.00649669 -0.00232904 0.0714924)
(-0.00209755 0.000540391 0.101387)
(0.00195729 -0.00107128 0.150137)
(0.000352027 -0.000876 0.107858)
(-0.00756759 -0.000257176 0.142831)
(-0.000164315 0.000153958 0.146598)
(-0.000851954 7.0326e-05 0.113687)
(-0.000708563 0.000600916 0.144068)
(0.00136256 0.000497294 0.0604915)
(-0.00153524 -0.000434175 0.134741)
(-0.000402487 0.000134153 0.153234)
(-0.0151022 0.00148657 0.111799)
(-0.00420527 -0.000319243 0.14509)
(-0.017887 0.000504146 0.104018)
(-0.00375488 -0.00199791 0.049159)
(0.000613196 -0.00156264 0.125311)
(-0.000252348 -0.000262682 0.132279)
(-0.00222253 0.000630938 0.0520348)
(0.000211051 0.000255468 0.132075)
(-0.00904846 -0.000254982 0.140962)
(-0.00446407 -0.00200602 0.0540784)
(0.00101826 0.000911168 0.153195)
(-0.00658105 -0.00026075 0.134197)
(0.000394547 0.000148971 0.144846)
(-0.00155701 0.00223644 0.0223761)
(0.001012 -0.000133704 0.148524)
(0.000163068 0.000691563 0.150433)
(-0.000467709 0.000356784 0.129785)
(-0.00202729 0.000387611 0.14232)
(0.000135718 0.0034002 0.030465)
(7.74722e-05 4.70345e-05 0.0467193)
(-0.0223367 0.000537178 0.121209)
(0.000532253 -0.00125165 0.137297)
(-0.000690879 -0.000995223 0.0426913)
(-0.000368493 0.000239004 0.1504)
(0.00388364 -0.00158663 0.0259526)
(0.000814737 0.000202531 0.141151)
(-0.000906305 0.000663118 0.155782)
(0.000543857 -0.000315985 0.151682)
(0.000221146 -0.000559163 0.153262)
(-0.000653111 0.000149611 0.143092)
(0.00172047 0.0012328 0.0519014)
(-0.00376599 0.0008997 0.144626)
(-0.00264638 0.000246891 0.0430814)
(-0.0029721 0.0005761 0.14173)
(-0.0024043 0.00052994 0.137659)
(-0.00279153 0.00135945 0.0231932)
(-0.00281791 0.000774986 0.141987)
(-0.000531065 0.000339319 0.154164)
(0.000768501 0.00105589 0.0366106)
(0.000369381 0.000272434 0.14765)
(-0.00224869 -0.00177794 0.059848)
(-0.0086788 -0.00248201 0.108931)
(-0.00971308 -0.000358884 0.130655)
(-0.00128472 0.000735616 0.135021)
(0.00046604 -0.000141125 0.153375)
(-0.000122463 0.000589396 0.13468)
(2.10436e-05 -0.000546808 0.14603)
(-0.0111024 0.000180406 0.109977)
(-0.00117221 -0.00113538 0.138958)
(0.00170499 0.00409746 0.059781)
(-0.00148194 -0.000942792 0.0684838)
(0.00111862 0.000661346 0.14419)
(-0.00120449 0.00102626 0.0418687)
(0.00312782 0.00131209 0.0282535)
(0.00330966 0.00174036 0.0270776)
(-0.00225251 0.00230239 0.0610925)
(0.000821695 -5.58428e-05 0.135422)
(-0.000360104 0.000730387 0.138912)
(0.00174848 -0.00357428 0.0456583)
(-0.000577529 -0.000204625 0.111893)
(-0.000303446 0.00062176 0.10756)
(-0.00147204 0.00235209 0.0739052)
(-0.0176613 -0.000341084 0.124824)
(0.00261347 -0.00223382 0.0351518)
(-0.00247891 0.00341671 0.0741341)
(-0.0185418 3.01426e-05 0.118347)
(-0.000443754 0.000170932 0.150596)
(0.00106284 -0.00125796 0.108647)
(-0.00196301 -0.00094053 0.0593984)
(-0.00100423 -0.000249239 0.134686)
(-0.000542243 -0.00123201 0.0253854)
(-0.00115793 0.00111731 0.142262)
(0.000124399 -9.61456e-05 0.155411)
(0.000882241 0.000336746 0.151741)
(-4.74439e-05 -8.18163e-05 0.15051)
(0.000231218 0.000547251 0.150337)
(-0.0158123 0.00149921 0.132045)
(-0.00179729 -1.86829e-05 0.0943899)
(-0.001976 -0.000832298 0.0343893)
(-0.0101349 0.00212553 0.13798)
(-0.0129167 0.0030338 0.0900491)
(0.000847115 0.000121654 0.153475)
(0.00118444 -0.000865722 0.15334)
(0.00145329 0.00177784 0.119598)
(-0.000587191 -0.00225623 0.0270577)
(0.000526492 0.000569183 0.14643)
(0.000632857 0.000401382 0.110131)
(-0.00134527 0.00139979 0.123456)
(-0.0146852 0.00148851 0.108374)
(0.000879215 0.000518998 0.135373)
(-0.000359937 0.00269406 0.0447078)
(-0.00110685 0.000728711 0.106505)
(-0.001065 0.00223805 0.0493986)
(1.84579e-05 0.000241411 0.154343)
(-0.00117617 -0.00184585 0.0216011)
(-0.000231781 0.0013917 0.128577)
(-0.000158436 0.000401474 0.151874)
(-0.00118046 0.000910321 0.140092)
(-0.000981326 0.000822713 0.14176)
(-0.00108613 0.00129669 0.124073)
(0.00095158 -0.00176536 0.0622118)
(0.00013134 0.00109614 0.113924)
(-0.000200265 -0.000846798 0.112156)
(0.000266329 0.001084 0.0399977)
(0.00133199 0.000534317 0.153733)
(0.00113878 5.95926e-05 0.147826)
(-0.000118752 -0.00171962 0.0980859)
(-0.00203149 0.00117517 0.0219193)
(0.000463337 0.000374533 0.119976)
(-0.00069852 0.000612187 0.12086)
(-0.00103765 0.000736021 0.0911655)
(-0.00313058 -0.00231299 0.0226761)
(0.00261955 0.00238218 0.07187)
(0.00348341 -0.00190404 0.0741023)
(-0.000559103 0.00150049 0.0401547)
(-0.000223941 -0.000505214 0.0292822)
(0.00288612 0.00025452 0.108389)
(-0.000908512 0.000405446 0.155118)
(0.000483893 3.86044e-05 0.066498)
(-0.00036953 -0.000190602 0.153193)
(0.00136208 0.00253584 0.0228789)
(-1.70978e-05 -0.000165719 0.132475)
(-0.00122376 -0.0013372 0.0916947)
(-0.000831804 0.000605753 0.0580605)
(0.000232031 -0.00179573 0.0714296)
(0.000718775 -0.00103928 0.137138)
(0.000704687 0.000876834 0.0563951)
(-0.00172277 -0.00115403 0.136636)
(-0.000699179 -0.000260914 0.1518)
(-0.00144683 0.000251718 0.148055)
(0.000328593 -0.0034587 0.0738849)
(0.000647723 0.000341569 0.0467497)
(-6.58993e-05 -0.00179611 0.143413)
(0.000836786 0.0032148 0.0377078)
(-0.00111817 -0.00244726 0.032778)
(0.000803532 0.00195765 0.0714068)
(0.000515859 -0.000903524 0.152831)
(-0.000313066 0.0007222 0.0636588)
(-0.00295773 0.000733801 0.0396055)
(0.000337186 5.34299e-05 0.0259993)
(-2.86963e-05 -0.000521063 0.126703)
(0.0016715 0.000678569 0.107869)
(-0.00252058 -0.00071383 0.133745)
(-0.000918159 -0.00328052 0.0575336)
(-0.000378316 -0.000293728 0.15171)
(0.00215 -0.00181816 0.0636526)
(-0.000127669 0.000666895 0.149305)
(0.000393627 0.000720366 0.0327629)
(0.000740227 2.28339e-05 0.0629792)
(0.000121381 -0.00117337 0.0453832)
(-0.00427614 -0.000428952 0.115603)
(0.000374826 0.000268429 0.148383)
(-0.00194586 -0.00230235 0.0867893)
(0.000259222 -3.61316e-06 0.152805)
(0.00060154 0.000949791 0.111175)
(0.00178683 -0.00198885 0.0224429)
(0.00117964 0.00109767 0.133177)
(0.000421125 -8.57488e-05 0.142505)
(0.000111057 0.000346589 0.154193)
(-6.34623e-05 3.35617e-05 0.142015)
(0.000214962 -0.000711895 0.0257109)
(0.0014353 0.000972773 0.120626)
(-0.000409292 0.00493243 0.0547267)
(-0.0038774 0.000818355 0.025652)
(-0.00115313 0.000824396 0.14388)
(-0.000138071 0.0010175 0.0623668)
(-0.000331082 -0.000887865 0.123118)
(-0.0011863 -0.00015419 0.153183)
(-0.00079979 0.000425979 0.138975)
(-0.000749125 0.000481371 0.15036)
(-0.00176733 0.00335377 0.0603732)
(0.000781051 0.000361041 0.150632)
(-0.00145731 -0.00241969 0.0623808)
(-0.000365079 0.000909141 0.110154)
(-0.000760864 -0.00114616 0.148842)
(0.000606533 -0.000752608 0.0459347)
(-0.00150447 -0.000727221 0.150075)
(0.00033085 0.000628436 0.15186)
(-0.00120866 -0.00111947 0.0314224)
(-0.00268299 0.000617364 0.0527072)
(-0.000995875 0.000984775 0.151423)
(-0.00180732 0.00363711 0.0599259)
(0.000600049 0.000803171 0.155194)
(-0.000740706 0.000325357 0.15174)
(-0.000807527 -0.000982958 0.151343)
(-0.00133871 -0.00217679 0.0283669)
(-0.0013391 -0.00108742 0.0364074)
(-0.00136316 0.000127481 0.0390727)
(0.000837884 -0.000504293 0.0703538)
(-0.00136118 -0.000393287 0.103361)
(-0.00113433 -6.28511e-05 0.146833)
(0.00173391 -0.000115036 0.0614534)
(0.00111317 0.000121114 0.152727)
(0.00266632 0.00200635 0.0234762)
(0.00105408 0.000615271 0.0593362)
(0.00266482 0.001625 0.0285897)
(0.000772373 0.000391359 0.152399)
(-8.8897e-05 -0.000771559 0.101521)
(-0.000494133 -0.000101372 0.141572)
(-0.000336491 0.00131423 0.072035)
(0.000950387 0.000476338 0.154226)
(-0.000183722 -2.81018e-05 0.111658)
(0.00200751 -0.000739262 0.153131)
(-0.000520028 0.000221768 0.139284)
(0.000974774 0.000540261 0.152164)
(0.000259668 0.000264648 0.141134)
(-0.000199245 0.00110752 0.143069)
(-0.000147408 0.000432809 0.148795)
(-0.000179284 -0.000185227 0.0607442)
(-0.000813095 -8.08069e-05 0.146335)
(0.00105937 0.00213025 0.0475446)
(-0.000618888 0.00222089 0.0664076)
(-0.00139633 0.00023129 0.133601)
(-0.000534756 0.00137846 0.149669)
(0.00240185 0.00108322 0.121612)
(-0.000104049 0.00135604 0.153843)
(0.00231401 0.000743597 0.106414)
(0.000369955 -0.00322535 0.0632739)
(-1.77398e-05 -0.000613066 0.150053)
(0.00197403 0.00024491 0.099665)
(-0.000752495 -0.00065164 0.0524628)
(-0.000160136 0.00137363 0.0576907)
(-0.00104757 0.00198948 0.10408)
(-0.000622914 -0.000433582 0.150979)
(-0.00133219 0.00177273 0.105807)
(-0.000795966 0.00104545 0.101146)
(-0.00131833 0.000825097 0.151048)
(0.000350651 0.00315201 0.101225)
(-0.00137419 -0.00270468 0.0246155)
(0.000409509 0.00140832 0.151855)
(0.00224746 -0.00159169 0.0295804)
(0.00185716 0.00106698 0.0452637)
(-0.000702729 -0.000918566 0.150942)
(2.03465e-05 0.000640907 0.139706)
(-0.00377915 0.00217334 0.0286132)
(-0.00025793 -0.000952527 0.127336)
(-0.000826147 -0.00193625 0.131499)
(0.000757087 0.000549979 0.15183)
(0.000277138 -0.000347044 0.15191)
(0.00230165 -0.00217398 0.027982)
(-0.00124612 0.000280105 0.151241)
(-0.000868974 -0.00149484 0.150434)
(-0.000186703 -0.0011614 0.150811)
(-0.000859949 -0.000877886 0.136268)
(-0.00180346 0.00058484 0.134763)
(-0.000794241 -0.000233899 0.10207)
(8.34066e-05 -0.000812414 0.156114)
(2.61134e-05 0.00172582 0.0319997)
(0.00121713 -0.0018945 0.147078)
(0.00100505 0.000856876 0.141523)
(-0.000597248 -0.00141198 0.152731)
(4.02969e-05 -0.00167645 0.148043)
(0.000999612 -0.000642697 0.123086)
(0.000980483 -0.00201917 0.0651229)
(-0.000755313 -0.00175308 0.0261783)
(0.000712021 0.000399587 0.0331976)
(-0.00112524 0.00139839 0.155754)
(-0.00324761 0.00149536 0.023656)
(-0.000701905 -0.000688364 0.0700549)
(-0.00125057 0.00280451 0.0580433)
(0.00100233 -0.000581603 0.152564)
(-0.000132195 -0.000681074 0.155401)
(-6.19853e-05 0.000214668 0.149153)
(0.00132183 3.97059e-05 0.065652)
(0.00210265 7.53382e-05 0.108709)
(0.000366195 0.004713 0.0456233)
(0.00109359 -0.0015415 0.0598215)
(0.00015494 -0.00117919 0.144948)
(0.000882167 -0.00132321 0.106823)
(-0.012825 -0.00160344 0.107689)
(0.000264034 -0.00245448 0.0966508)
(-0.000756932 -9.78408e-05 0.0482442)
(0.00194712 -5.03727e-05 0.0706554)
(1.86882e-05 -0.00150592 0.115047)
(-7.89236e-05 3.58842e-05 0.153466)
(-0.000971564 -6.08034e-05 0.155129)
(-0.00100468 0.00108207 0.154045)
(6.54779e-06 0.00164085 0.152568)
(-0.00434768 -0.00107189 0.0997756)
(-0.00126665 0.0006636 0.129548)
(-0.000770882 0.00166083 0.148626)
(-0.000263708 -0.000368455 0.150354)
(0.000749888 -0.000318326 0.151368)
(-0.0024652 -0.00224582 0.0633093)
(0.00322733 -0.000914855 0.0257819)
(0.000168132 -0.000569098 0.145587)
(0.00136281 0.00278919 0.0455535)
(0.000270564 -0.00019263 0.0370786)
(-0.00107335 -0.000265455 0.148761)
(0.000563886 0.000805209 0.143686)
(-0.00113884 0.00276286 0.0636581)
(-0.000713386 -0.000620657 0.15209)
(0.000267906 0.00132423 0.152931)
(-0.000858705 -0.000110025 0.153585)
(0.000250051 -0.000529531 0.154075)
(-0.000269081 -0.00175172 0.0367159)
(0.000178955 -0.000447243 0.151556)
(-0.000998386 0.000204097 0.151523)
(0.000118834 0.000705383 0.0641337)
(0.000254789 -0.00149539 0.152373)
(0.000212252 0.000477192 0.152201)
(0.000803611 0.000466535 0.13418)
(0.000693867 0.000301637 0.126416)
(-0.000119689 -0.000872173 0.143947)
(0.000726274 0.000829199 0.141148)
(-0.00013926 0.000153885 0.0762512)
(-0.000687826 0.00189135 0.0358907)
(0.000262585 0.00227797 0.0386182)
(0.000191226 0.000630693 0.103124)
(-0.0120774 5.10831e-05 0.0870534)
(-0.00725395 0.000753321 0.0749155)
(0.00043291 -0.000439985 0.0915854)
(0.00117703 -0.000981443 0.119827)
(-0.000210315 0.000308885 0.134397)
(-0.00162782 0.00105462 0.14802)
(0.000750144 -0.000178033 0.15257)
(-0.000551053 0.000104737 0.134812)
(-0.000836319 -0.000514473 0.14419)
(-0.0014505 -5.92356e-05 0.143245)
(-0.000404756 0.000881897 0.0362341)
(-0.0222934 0.000928129 0.113877)
(0.000622502 0.00200696 0.0653917)
(-0.000988251 0.00210238 0.0464633)
(0.000699398 0.000323874 0.0470329)
(-0.000341609 -0.000544916 0.150371)
(-8.64983e-05 0.000223083 0.102)
(-0.000555522 -4.56796e-06 0.151822)
(-0.00148229 0.00158594 0.023264)
(0.000419293 -7.96388e-05 0.130235)
(0.0012057 -0.000876961 0.0511196)
(-0.000202724 0.00105414 0.150864)
(-0.000498145 0.000414555 0.0543848)
(0.00187261 0.000713074 0.0687)
(0.000707429 0.00205644 0.114491)
(-0.000861562 0.000894414 0.144877)
(0.00307941 -0.000124393 0.0230316)
(3.67115e-05 0.00265311 0.0607683)
(-0.000285024 -0.00052887 0.13451)
(1.51766e-05 -0.00263007 0.0268403)
(-0.00614444 0.000172845 0.130762)
(0.00037572 -0.00231712 0.121412)
(0.000616396 -0.00172857 0.133888)
(0.00244219 -0.00239179 0.101664)
(0.00153345 -7.05561e-05 0.0947067)
(0.00113383 -0.000831353 0.153349)
(-0.00966787 -0.00326184 0.0780115)
(-0.00177903 -0.000658811 0.154529)
(-0.0115475 0.000569174 0.111749)
(-0.00243755 0.00159654 0.0664539)
(-0.000593922 0.00158594 0.0684967)
(-0.000501921 -0.000956065 0.155285)
(0.000689213 -0.0015264 0.157571)
(0.000630499 -0.000527852 0.0593448)
(-0.000216937 -0.000832632 0.138571)
(-0.00207824 0.000952023 0.106013)
(0.000892713 -0.000415395 0.15433)
(0.000707561 -0.000779945 0.153949)
(-0.00118248 -0.0040204 0.0516177)
(-0.000291017 0.000541224 0.134595)
(0.00197559 -2.018e-05 0.144397)
(0.000169089 -0.000149066 0.146173)
(0.000380645 -0.000177567 0.150771)
(0.00281987 -0.00165001 0.0244061)
(-0.00299796 -0.00102902 0.0239623)
(-0.00100755 0.00129626 0.129168)
(2.01699e-09 -0.000302641 0.153412)
(0.00088663 0.00105181 0.153922)
(-0.00242811 0.00132177 0.0398875)
(0.000515092 -0.000815117 0.14954)
(-0.000780131 0.000276644 0.114566)
(-0.00114161 -0.000221816 0.148599)
(0.00125608 0.000621234 0.155574)
(0.000366206 0.000192479 0.154944)
(-0.000367495 -0.00162779 0.153797)
(-0.000106357 -0.00200329 0.154374)
(0.000575918 -0.000578712 0.0981128)
(-0.00190559 0.000348178 0.153061)
(-0.0021682 0.00277499 0.0630034)
(0.000150635 0.000585941 0.151749)
(-0.000933932 -0.0010649 0.116299)
(-0.00140981 0.000800828 0.145032)
(-0.000368844 -0.000276459 0.15256)
(0.000102045 -0.000370355 0.147106)
(0.00106788 0.000751069 0.142379)
(0.0019259 0.00303844 0.0466247)
(0.000679473 -0.000272767 0.0385465)
(-0.00227352 -0.00212328 0.0249822)
(-0.00496636 0.000258901 0.145441)
(3.28292e-05 0.000100461 0.157313)
(-0.000668194 0.000306041 0.13735)
(0.000319266 -0.00204569 0.130657)
(0.00109902 0.000303379 0.0345899)
(0.00107038 -0.003107 0.0275059)
(-0.000776869 -0.00158142 0.120599)
(-0.0007355 0.000904716 0.144096)
(-0.000785466 -1.93342e-05 0.153352)
(0.000791167 -0.000754307 0.15024)
(-0.00105851 -0.000614137 0.138971)
(-0.000499767 0.0010193 0.154642)
(0.000935093 -0.000576311 0.13751)
(-0.00151451 0.00254676 0.0306636)
(-0.000620209 0.000269773 0.126856)
(0.0026328 -0.00170025 0.064635)
(-0.00703413 -0.000745251 0.0707697)
(0.000586894 0.000130279 0.145254)
(0.000477845 2.33211e-05 0.101599)
(0.000583102 -0.000310257 0.143792)
(-0.00378119 0.00256039 0.0243902)
(0.00192532 -0.000682195 0.157037)
(0.00020516 0.00013709 0.154569)
(-0.00159155 0.000657802 0.152204)
(0.000554001 -0.00065429 0.0988986)
(-0.000539615 -0.000702536 0.145129)
(-0.0010925 -0.000572751 0.150771)
(0.000502749 0.000401114 0.123411)
(-0.00083679 0.000208202 0.152005)
(-0.00332609 -0.000632839 0.102806)
(2.49583e-05 8.47598e-05 0.153624)
(-0.00175653 0.00022684 0.146088)
(0.00179785 -0.00154387 0.0235067)
(-0.000116731 0.000919264 0.154154)
(0.00125461 0.00132665 0.120957)
(-0.00293369 -0.00294756 0.0513746)
(-0.000557586 0.00167651 0.0998621)
(0.000571757 0.000720395 0.152116)
(4.21685e-05 -0.000562373 0.133412)
(0.00096155 0.00236863 0.0936302)
(-0.00259155 0.00197408 0.0230751)
(-0.000582578 0.0010692 0.154173)
(0.000221126 0.00234347 0.12861)
(-0.000337788 0.000420067 0.150548)
(-0.000449765 -0.00046349 0.128586)
(-0.0024536 0.000532223 0.0414412)
(0.000713882 -0.000471317 0.139691)
(-0.0040406 0.000285689 0.0280439)
(-6.55951e-05 5.79502e-05 0.150123)
(-0.0119571 0.000623051 0.102286)
(8.44061e-05 2.36623e-05 0.151615)
(-0.000428028 0.00210178 0.058663)
(-0.00109797 0.00155207 0.112407)
(-0.000358958 0.00133443 0.102012)
(0.00190537 -0.00222207 0.0395398)
(0.000781907 6.88251e-05 0.150489)
(-0.000900595 0.000665939 0.147675)
(-0.00253693 -0.000906514 0.0256599)
(0.00104103 -0.00158938 0.147967)
(-0.000620029 -0.00181402 0.151)
(-0.000498578 0.00218561 0.0421079)
(0.00122085 0.00223948 0.0683005)
(-0.0016895 0.00213852 0.0591506)
(-0.000661126 0.00111377 0.145927)
(0.000832369 -0.00030363 0.151472)
(-0.00110576 0.00132046 0.0342213)
(0.0017322 -0.00109921 0.0600999)
(-0.000458303 0.00102529 0.0623364)
(0.00103058 0.000748608 0.119951)
(0.000856151 -0.000686163 0.151555)
(-0.00299421 -0.00196069 0.0261313)
(0.00108142 0.000871442 0.151959)
(-0.000713097 -0.000350709 0.147005)
(-0.000877755 -0.000760716 0.151878)
(-0.00234248 -0.00481526 0.0901042)
(0.000844191 0.000423937 0.155683)
(0.00138839 -0.00205809 0.0255132)
(-0.00106482 -2.41048e-05 0.152433)
(0.000237227 -0.000578823 0.0310592)
(0.00066346 -0.00188772 0.0644819)
(0.00010923 0.000449505 0.147901)
(-0.000995858 0.00150561 0.066955)
(-0.00306902 0.00160828 0.0239785)
(9.21583e-05 -0.00129655 0.0422761)
(0.000461574 0.00271789 0.051154)
(0.000486742 -0.00181266 0.0655734)
(-0.000389968 0.000413438 0.144907)
(0.000132334 0.00117578 0.0547817)
(0.00101778 -0.00221988 0.0650647)
(-0.0139082 0.000264039 0.127694)
(-0.00114735 0.000278337 0.148751)
(0.00154495 2.56988e-05 0.0278467)
(0.000343443 0.000985133 0.113881)
(-0.00800533 -0.00423736 0.0820397)
(0.00177703 9.62904e-05 0.152773)
(-0.00101916 0.00108763 0.0644617)
(-0.00128815 0.000584641 0.147219)
(0.00137645 0.00274508 0.0641851)
(-0.000547202 0.000207277 0.124711)
(-0.00114663 -0.000821021 0.152256)
(0.00296717 -0.00457904 0.0574534)
(0.000515052 0.000325327 0.154102)
(-0.00277935 -0.00109002 0.0490643)
(0.00301166 -0.00192689 0.0222377)
(-0.00026049 -0.000406324 0.141051)
(-0.000128272 -0.0012548 0.151295)
(-0.000761186 0.000340623 0.132367)
(0.000748219 -0.0011406 0.128547)
(0.00179868 -0.000184789 0.153906)
(0.00151963 9.26516e-05 0.0671787)
(0.00189441 -8.71735e-05 0.152752)
(0.00137454 0.00291861 0.0630514)
(-0.00103062 -0.000622877 0.152044)
(0.00170391 0.000175147 0.129145)
(-0.00361988 -0.00214132 0.0318469)
(-0.000133868 0.000802265 0.150181)
(0.00113371 -0.0012768 0.0577089)
(0.00143886 0.00214408 0.0301499)
(-0.000123931 0.000220962 0.148499)
(-0.00156287 0.000103142 0.0479799)
(-0.000324788 0.000563321 0.136923)
(0.000733641 0.000502346 0.149888)
(-0.00071527 0.00138215 0.132616)
(-0.000195492 0.00346805 0.057977)
(0.00115103 -0.000184656 0.156846)
(0.00148404 0.000327482 0.0970352)
(-0.000816322 0.000621939 0.157248)
(0.000581682 0.000283173 0.15525)
(0.00094267 0.000641806 0.156083)
(0.000301359 -0.00104419 0.151495)
(0.0028599 -0.00107421 0.0489727)
(0.000516675 0.000201672 0.0571789)
(-0.000931582 0.00049796 0.153613)
(-0.00096557 -0.00136329 0.151003)
(0.000206782 0.00230163 0.0358963)
(-0.000358709 -0.000275127 0.14852)
(-0.00013503 0.000909188 0.15751)
(0.000879968 0.00144903 0.155591)
(0.000935619 0.00144394 0.155355)
(-0.000161783 0.000963102 0.122575)
(-0.00192924 0.00249489 0.0248088)
(0.000299627 0.000762616 0.157007)
(0.00124922 -0.0012045 0.1061)
(-0.000464411 -0.000608708 0.142694)
(-6.90375e-05 -0.000455362 0.101569)
(-0.00209018 -0.0011122 0.0330937)
(-0.000852839 0.00079273 0.150299)
(-0.00173984 0.00224058 0.0980875)
(0.000401762 -0.000214761 0.136618)
(0.000955456 0.00147347 0.154401)
(-0.00102292 0.00151814 0.138539)
(0.00176044 0.00203397 0.019906)
(-0.00255742 0.00101254 0.0252166)
(-0.000345179 -0.00154818 0.14959)
(-0.000177522 -0.000316158 0.14746)
(-0.000286287 0.0015504 0.153842)
(-0.00090784 0.000306842 0.142361)
(-0.000364144 0.00155524 0.0974969)
(-0.000241528 0.00125411 0.144816)
(0.000329033 0.000267403 0.153381)
(0.000844442 0.00173845 0.023096)
(-0.000189508 -0.00167492 0.14952)
(-0.012095 0.00125434 0.134842)
(5.4137e-05 0.00204832 0.0421032)
(-0.000273509 0.00369276 0.0594169)
(0.000157607 0.00131791 0.145048)
(0.00140603 -0.000305625 0.141261)
(0.000423805 -0.000810764 0.1372)
(0.000668436 -0.000436415 0.12934)
(-0.00310831 0.0020965 0.112205)
(-1.59231e-05 -0.000135793 0.154101)
(0.00138394 -0.00289451 0.103309)
(0.00144983 -0.000636722 0.157156)
(0.000150941 -0.000777595 0.150977)
(0.00175056 -0.00115519 0.155539)
(0.00118357 -0.00116061 0.151167)
(0.00155915 0.00108932 0.0450587)
(0.00138577 -0.000305413 0.152004)
(-0.00030203 -0.00174414 0.0367664)
(-0.0104875 -0.00142353 0.094548)
(0.00170818 -0.00159237 0.0660253)
(-0.0118075 -0.000248468 0.126667)
(0.000493842 -9.03051e-05 0.133487)
(-0.0187 0.000579273 0.117781)
(0.000288385 -3.6687e-05 0.15022)
(0.000146432 6.74656e-05 0.156804)
(-0.000269315 0.000172778 0.147125)
(0.00105943 0.000685591 0.150255)
(-0.000414867 -3.05551e-05 0.037968)
(-0.00463368 0.000150182 0.100943)
(-0.0159515 0.00107288 0.112429)
(-0.00010609 -2.90202e-05 0.151579)
(-0.000514483 0.00254635 0.118255)
(-0.0112668 0.000856549 0.136603)
(-0.00209229 0.00106639 0.148354)
(0.00109965 0.00113129 0.116961)
(-0.00130447 -0.000567313 0.0389745)
(0.00149952 0.00282365 0.0591395)
(-0.000132792 -0.000275148 0.0269004)
(0.00156139 0.00137905 0.0265681)
(-0.000388125 5.37367e-05 0.0380087)
(-0.00697661 0.000999907 0.135062)
(-0.000653728 0.000217481 0.137802)
(-0.00250853 -0.00270329 0.0268845)
(-0.0031515 0.000659427 0.0253963)
(0.000503366 0.000643403 0.15316)
(-0.0145763 0.00324055 0.096413)
(-0.00184648 -3.47616e-05 0.0412355)
(0.000163616 -0.000267783 0.145096)
(-0.00174465 0.000164169 0.110438)
(0.00109883 -0.000157147 0.136332)
(0.00134999 0.00200249 0.0463194)
(-0.00127131 -0.00173205 0.0583355)
(0.000308137 0.000936879 0.117368)
(-1.72369e-05 0.000124845 0.151339)
(4.73902e-05 0.000570476 0.146752)
(-0.00184153 0.00228013 0.0396809)
(-0.000634959 -0.00235598 0.0262635)
(-0.018873 0.000211525 0.106282)
(-0.00288306 0.00211677 0.0282594)
(-2.5285e-05 0.00189986 0.135541)
(-0.00367208 -0.00115294 0.0304184)
(0.00061707 0.00246975 0.111505)
(-0.000685309 5.30942e-05 0.151859)
(0.000858769 0.000682806 0.157712)
(-0.000331725 -0.00110265 0.0485933)
(0.000848619 -0.000488292 0.103702)
(-0.001996 -0.000544804 0.0388135)
(-0.00376607 -0.000167664 0.0305602)
(0.000398357 -0.000644251 0.152134)
(-0.00283708 0.0013866 0.0214949)
(0.00157686 -0.000940365 0.148847)
(-0.000468919 -0.00236719 0.0525452)
(-0.000100151 0.000465692 0.148005)
(4.17556e-05 -7.98895e-05 0.140712)
(0.00340709 0.00145687 0.0238943)
(-0.000653176 -0.0027367 0.0620085)
(0.000415965 0.000739532 0.14355)
(0.000168135 0.00144378 0.0371186)
(0.000348687 -0.000894023 0.14626)
(-0.00122714 0.00370623 0.0589554)
(0.000292437 8.43001e-05 0.115494)
(0.000423617 0.000995379 0.153087)
(0.00136242 0.000224702 0.0397403)
(-0.00332554 -0.000727966 0.025705)
(-0.00114883 -0.000143334 0.0556688)
(-0.0177976 5.10002e-05 0.110781)
(-0.000628687 4.92303e-05 0.111568)
(0.000266991 0.00373412 0.0604056)
(0.00176148 -0.000142981 0.0917124)
(0.000555361 0.00153221 0.0338813)
(0.000600273 0.000921043 0.153023)
(0.00118632 0.0012636 0.0252237)
(-0.00038473 0.00160615 0.155178)
(0.000741761 0.000739376 0.144945)
(0.00051796 0.000487916 0.151289)
(-0.00212476 -0.000308999 0.0211707)
(0.00114213 0.000981451 0.14778)
(-0.000114857 0.000557259 0.0895932)
(0.000182156 0.000874977 0.149997)
(-8.01343e-05 0.000116276 0.0590324)
(-0.014648 0.000462125 0.108105)
(-0.00114365 0.00115383 0.152024)
(0.000713763 0.000460165 0.0441899)
(-8.6084e-05 0.00012967 0.153961)
(-0.0204154 0.00232481 0.10884)
(-0.000360173 -0.000329109 0.121665)
(-0.000579636 -0.0016858 0.0355455)
(-0.00105522 0.00227221 0.0561736)
(0.000177615 0.000179612 0.15276)
(7.77466e-05 -0.00134211 0.134262)
(-0.000890579 0.000841451 0.0356648)
(-0.000196451 -0.00150953 0.114734)
(0.00187518 0.00155989 0.0649359)
(-0.00189781 0.0019207 0.0275483)
(-1.02494e-05 -0.000148725 0.153196)
(-0.0101774 0.000479604 0.103327)
(-0.000977932 -0.00232439 0.135658)
(0.000122759 5.84869e-05 0.152532)
(0.000612116 0.000106277 0.152794)
(0.00081214 1.01654e-05 0.150922)
(0.000746662 0.000636093 0.13486)
(0.00115984 0.000240099 0.0478882)
(-0.000676782 0.00250807 0.0427529)
(0.00158064 3.7111e-05 0.156663)
(-0.0128581 -0.000490106 0.107541)
(0.000407958 0.00161671 0.12632)
(0.000889169 -0.000514023 0.133262)
(0.00174502 -0.000410815 0.0872063)
(0.000116016 0.000192766 0.144235)
(-0.000384875 0.000347884 0.150488)
(-0.00101296 -0.000981876 0.104802)
(-0.00100139 0.00157846 0.11157)
(-0.0008425 0.00229763 0.0412805)
(-0.000667189 -0.000409439 0.0771421)
(-0.00320944 -0.00212167 0.0473212)
(-0.000258648 -0.00100405 0.145802)
(-0.000449018 -0.000731154 0.153454)
(-0.000115945 0.00296015 0.102082)
(0.000511283 -0.0010732 0.104222)
(0.00137209 -0.00205974 0.0231645)
(9.32614e-05 -0.000596352 0.0848221)
(-0.003126 -0.0015172 0.0637579)
(-0.000797564 0.000462077 0.152787)
(0.000881654 0.000464959 0.153311)
(-0.0113414 -0.000673868 0.104794)
(-0.00100051 0.000544661 0.148232)
(-0.0015458 0.00269128 0.0877357)
(-0.00834048 0.000371064 0.101712)
(-0.000612732 -0.00202125 0.134965)
(0.00197283 0.000780067 0.0291892)
(0.000582778 0.000596213 0.153245)
(-0.000213493 0.00146619 0.0534833)
(-0.00111658 -0.00035783 0.137154)
(0.00387683 -0.00216903 0.0316787)
(0.00161272 0.000569242 0.153559)
(-0.00514686 -0.000254397 0.101642)
(0.000188615 -0.000262834 0.148532)
(0.000283988 -0.000926142 0.122204)
(8.92384e-05 -0.000195863 0.142312)
(0.00013786 0.000639261 0.145063)
(0.000480309 0.000451754 0.153049)
(0.000127857 0.00182219 0.0370126)
(-4.5215e-05 -0.00122819 0.0519989)
(-0.000334421 0.00059586 0.0320108)
(8.2819e-05 0.000873126 0.151757)
(0.000840988 -0.000343418 0.146739)
(0.001912 0.000331208 0.136252)
(0.000469095 0.000137808 0.151338)
(0.000458048 -0.000737309 0.0234039)
(3.2508e-05 1.11387e-05 0.104874)
(0.00156058 -0.00141886 0.0947281)
(3.74653e-05 0.000459876 0.15254)
(-0.00130263 0.000622127 0.130113)
(-0.00045311 -0.000130279 0.141359)
(-0.00132562 0.000789832 0.111406)
(0.000160938 0.000792658 0.152191)
(-0.00298353 0.00211764 0.0227889)
(0.0002864 0.00306463 0.0915622)
(-0.000167927 0.000458117 0.14439)
(-0.000243744 0.00331173 0.0294236)
(0.000253085 0.00226133 0.0478717)
(-0.000778049 -0.000362628 0.0669053)
(-0.00265072 -0.00141273 0.0244563)
(0.000945238 0.00023025 0.100942)
(-0.00121979 9.39422e-05 0.150811)
(-0.000409722 0.00263617 0.0653534)
(0.00250859 0.00200895 0.0216161)
(-0.00037347 -0.000528336 0.112227)
(0.000462592 -2.9664e-05 0.0284447)
(1.55079e-05 0.00130599 0.104836)
(-0.000150028 2.87846e-05 0.151657)
(0.000150803 0.000153869 0.152919)
(0.000313346 0.00030056 0.15188)
(0.00130153 0.000771754 0.151222)
(8.09068e-05 0.000154083 0.151516)
(-0.000311034 0.00128643 0.133615)
(0.00139595 -0.00123127 0.0513704)
(0.000995811 9.03761e-05 0.151548)
(0.000161718 -0.000982665 0.128935)
(-0.000913835 -0.000935553 0.0936138)
(-0.00104219 -0.000871203 0.100684)
(0.000201824 -4.97105e-05 0.149288)
(-0.000707044 0.000932814 0.121965)
(0.00160621 0.00189207 0.0725485)
(0.000272233 -0.000252484 0.147459)
(0.000243842 -0.0012463 0.0364798)
(0.000953466 0.000490194 0.0950273)
(0.000164292 -7.39418e-05 0.10275)
(-0.00101282 0.000484645 0.06654)
(0.000386434 0.000103059 0.149448)
(-0.0181942 -0.000411509 0.106085)
(-0.00732317 -5.38034e-05 0.127556)
(-0.000560045 0.0027492 0.037052)
(0.00223242 -0.00033247 0.0294326)
(-0.000622007 0.00210898 0.0619538)
(0.00204673 -0.000573476 0.0231011)
(-0.000388495 0.000323712 0.129353)
(-0.000483406 0.00184238 0.143409)
(-0.000702901 0.000926359 0.13198)
(-0.0144018 0.00117395 0.111148)
(-0.000533237 0.000754889 0.131532)
(-0.000478505 0.00158446 0.139576)
(0.00474837 0.00327135 0.0276061)
(-0.000535488 0.00126163 0.144532)
(-0.0121782 0.000184998 0.126708)
(-0.00144607 -0.000277071 0.0483775)
(0.00290304 0.00256749 0.0250417)
(-0.000284814 -0.00151061 0.119483)
(-0.000790494 -0.000768549 0.1166)
(-0.00314099 -0.00204505 0.0294055)
(5.3008e-05 0.0013583 0.152408)
(0.00276956 -0.00235432 0.0259588)