/*--------------------------------*- C++ -*----------------------------------*\
| =========                 |                                                 |
| \\      /  F ield         | OpenFOAM: The Open Source CFD Toolbox           |
|  \\    /   O peration     | Version:  2406                                  |
|   \\  /    A nd           | Website:  www.openfoam.com                      |
|    \\/     M anipulation  |                                                 |
\*---------------------------------------------------------------------------*/
FoamFile
{
    version     2.0;
    format      ascii;
    arch        "LSB;label=32;scalar=64";
    class       volScalarField;
    location    "22";
    object      epsilon;
}
// * * * * * * * * * * * * * * * * * * * * * * * * * * * * * * * * * * * * * //

dimensions      [0 2 -3 0 0 0 0];

internalField   nonuniform List<scalar> 
59516
(
0.0238467
0.0229962
0.0189771
0.0172025
0.00964781
0.346146
0.0167699
0.021906
0.0206062
0.046354
0.00941547
0.0433381
0.0191478
0.143079
0.039312
0.0459255
0.0105258
0.0475635
0.0216937
0.0109016
0.0519634
0.0135618
0.0123781
0.0638298
0.0121993
0.0348169
0.0625317
0.0613712
0.0377811
0.11026
0.0468358
0.0561976
0.0160142
0.0200557
0.0152705
0.0134407
0.101091
0.0530789
0.0273091
0.0119836
0.0221271
0.0125645
0.0130834
0.0249826
0.0140528
0.0465633
0.0161185
0.0103674
0.0130824
0.0124437
0.0272763
0.0509734
0.0180249
0.0172893
0.0454216
0.0172903
0.0119917
0.0542366
0.0104242
0.0166957
0.0133584
0.0861108
0.0110554
0.0108279
0.0175501
0.013781
0.108221
0.0527693
0.0208609
0.016144
0.0523507
0.0116123
0.0801445
0.0142653
0.0096332
0.0115942
0.0105694
0.0134581
0.0485098
0.0126084
0.059402
0.0137856
0.0154496
0.0905688
0.0139116
0.0099816
0.0628973
0.0127114
0.0433154
0.0318333
0.0111078
0.0149561
0.0102418
0.015771
0.0119169
0.0110572
0.0152087
0.0474296
0.0454954
0.0134433
0.050703
0.0804961
0.0811363
0.0429677
0.0160859
0.0137579
0.0618305
0.0227273
0.0232943
0.0349136
0.0214857
0.0462404
0.0375373
0.0320642
0.011679
0.0257149
0.0395898
0.0164748
0.0779427
0.0136055
0.0091357
0.0112684
0.0122378
0.0112724
0.0173558
0.0297121
0.0761972
0.0160916
0.0839208
0.0097063
0.00932089
0.0204443
0.078681
0.0128896
0.0224586
0.0188714
0.0402798
0.015352
0.0545659
0.0255025
0.0499043
0.00940654
0.105302
0.0179278
0.0100199
0.0137686
0.0146013
0.0207376
0.256398
0.0205981
0.0239977
0.0584157
0.0109701
0.0124361
0.0276031
0.119302
0.01902
0.0187814
0.0311492
0.101703
0.0359398
0.0340797
0.0651423
0.120084
0.0239247
0.010376
0.0366654
0.0097238
0.0923098
0.0154278
0.0300636
0.0499072
0.0331037
0.0154016
0.0483503
0.0159472
0.011128
0.0126603
0.0333306
0.0629526
0.0135026
0.0738283
0.100953
0.0407962
0.00976918
0.0429485
0.0645501
0.094544
0.0180245
0.0247821
0.0157917
0.0463114
0.0110472
0.0417137
0.0121279
0.0715223
0.0456709
0.0586772
0.0215657
0.0122622
0.0322925
0.0092606
0.022268
0.100954
0.0170719
0.0139659
0.0094431
0.0129703
0.0992267
0.020036
0.0512551
0.0888073
0.0142387
0.0446944
0.0197253
0.0108382
0.0141081
0.0122068
0.0455884
0.0124589
0.0458236
0.0219535
0.0115701
0.0544337
0.0109727
0.0106047
0.0536183
0.0484073
0.0106699
0.0426537
0.010474
0.0105522
0.0093557
0.0652468
0.0651773
0.0613842
0.0422092
0.0227934
0.012287
0.0480636
0.00921746
0.0932826
0.0443842
0.0847682
0.00958215
0.0268369
0.0136086
0.0334359
0.0105809
0.0222526
0.011147
0.0143985
0.00909396
0.0135774
0.0135346
0.0117545
0.047436
0.0127749
0.0490936
0.039507
0.0166472
0.0117997
0.0201287
0.0100598
0.0255022
0.0437899
0.0117267
0.0268829
0.0435683
0.0488406
0.0264252
0.010657
0.0225031
0.0267973
0.0112987
0.0263085
0.0777983
0.0115532
0.0623935
0.0526001
0.00955014
0.0148155
0.0714597
0.0188446
0.0176436
0.0106002
0.00966681
0.0763576
0.00966956
0.00921348
0.0104572
0.0160961
0.01565
0.0251027
0.0105845
0.0473759
0.0116594
0.0140084
0.00919571
0.0106891
0.018558
0.0403032
0.0790144
0.0481274
0.0113672
0.0958532
0.0324525
0.0483154
0.0107101
0.0100446
0.0120913
0.0409423
0.0224003
0.0557159
0.0510667
0.0121827
0.0245729
0.011988
0.0278152
0.0550441
0.036815
0.0224475
0.0101749
0.00931488
0.00924078
0.0118628
0.0291285
0.0167286
0.0111851
0.0121532
0.0116682
0.0411415
0.0801889
0.01332
0.0481551
0.0654479
0.011583
0.0145244
0.0443144
0.0105066
0.0112
0.00952493
0.0103403
0.0600247
0.0119539
0.010147
0.0448746
0.00947608
0.0102888
0.0165731
0.017193
0.0129506
0.0139991
0.038543
0.0734091
0.0537457
0.0245358
0.0567932
0.100626
0.0334336
0.0208169
0.0151962
0.00955055
0.0120052
0.0156543
0.0133091
0.0135372
0.0639547
0.0368517
0.0449537
0.0530142
0.0560657
0.01218
0.0248605
0.0118518
0.0888763
0.0170135
0.0555711
0.0115076
0.0536609
0.0381562
0.0209849
0.00938336
0.0941937
0.0420215
0.0157639
0.0726052
0.0181595
0.020436
0.0154896
0.0267349
0.027056
0.0114445
0.0727229
0.00944951
0.0317881
0.0353947
0.036747
0.00976593
0.00978547
0.0486761
0.0157433
0.025886
0.00958486
0.00972756
0.0437134
0.0169585
0.0136398
0.0134807
0.0123723
0.0761511
0.0799114
0.0166365
0.0101352
0.00946006
0.0608263
0.0111367
0.0200569
0.0100849
0.00986007
0.00938583
0.0103572
0.0105135
0.027317
0.00980313
0.0373436
0.0111511
0.022023
0.0128383
0.0102313
0.0136208
0.0140574
0.0529412
0.0640961
0.0855688
0.0111972
0.00905633
0.0147762
0.0172695
0.0638007
0.0870942
0.0201823
0.0130419
0.0100651
0.0122269
0.0147335
0.00902986
0.0147355
0.0616435
0.0176498
0.0443107
0.118885
0.0125483
0.0249047
0.0139422
0.0914166
0.00968268
0.00965482
0.00998035
0.0277139
0.0131334
0.0104484
0.0178158
0.00954595
0.0277555
0.0105886
0.013273
0.0815562
0.00983939
0.0192875
0.04534
0.0263287
0.0108828
0.0166425
0.0321989
0.0839934
0.0102256
0.0163979
0.0117727
0.0168535
0.0574286
0.0142741
0.0865442
0.0116508
0.0170559
0.0110026
0.0429417
0.0223344
0.0251219
0.0577158
0.00910219
0.0104793
0.0977375
0.0113501
0.00928226
0.0575337
0.0369126
0.0397592
0.0125253
0.00973197
0.113887
0.0471629
0.0435371
0.0206335
0.00955202
0.0729064
0.0119062
0.0128322
0.00978469
0.114401
0.0106027
0.067103
0.0111236
0.0836748
0.0393903
0.0133333
0.0403538
0.0893021
0.0606164
0.0427513
0.0440583
0.0133895
0.0494308
0.0369192
0.0139748
0.0108571
0.0572532
0.0207135
0.0728466
0.0104525
0.0470339
0.0114812
0.0464479
0.0176396
0.0100946
0.0449354
0.0105435
0.0668954
0.106934
0.0133875
0.00961208
0.0169457
0.0175898
0.00963731
0.0406852
0.0108294
0.0403559
0.0104449
0.0173011
0.0599204
0.0122822
0.0435947
0.0600925
0.0133885
0.0541931
0.015176
0.00968125
0.0156306
0.0417435
0.00974773
0.0293349
0.00918354
0.00968039
0.00948581
0.00972757
0.0518507
0.0467258
0.00996095
0.0119051
0.0706822
0.0118715
0.00959609
0.00994285
0.00949247
0.0194735
0.0925739
0.010129
0.0235606
0.0131583
0.0239323
0.0543615
0.00957509
0.0280598
0.0150524
0.00924978
0.0145943
0.106744
0.0836149
0.0100704
0.0112072
0.00919845
0.013342
0.0279309
0.0141015
0.0101313
0.0731487
0.00977751
0.0165129
0.0587575
0.0374249
0.0137254
0.0146772
0.0154946
0.0183023
0.0235662
0.00926503
0.0268798
0.0100381
0.0107196
0.00920058
0.0101315
0.0537198
0.0111846
0.0702931
0.0966043
0.0396667
0.0120526
0.015288
0.0314651
0.0107927
0.0101205
0.0122405
0.0104917
0.0625578
0.0104809
0.0148414
0.00989718
0.0210972
0.0155499
0.0101728
0.0199283
0.0548063
0.0470259
0.0528191
0.0939127
0.0586236
0.0164634
0.0147379
0.103057
0.0885421
0.00906408
0.0682344
0.0608942
0.0142229
0.0214767
0.0160091
0.0602698
0.0449055
0.0206664
0.0106506
0.0129863
0.0666297
0.0679164
0.0599173
0.0692079
0.0149975
0.0673726
0.0238946
0.01001
0.0100096
0.0529739
0.023399
0.0633842
0.0730128
0.0101405
0.100541
0.0112429
0.0453
0.0124762
0.0145163
0.0858722
0.0435665
0.0138023
0.0584058
0.0119276
0.048273
0.0221777
0.00959154
0.0591981
0.0797931
0.0459311
0.0194005
0.0235928
0.0478141
0.0312473
0.0762729
0.00949347
0.0604213
0.0107445
0.0140056
0.0111149
0.101
0.0128695
0.0284758
0.0119069
0.0511906
0.0143726
0.0118427
0.0571819
0.00906497
0.0298695
0.0180151
0.067079
0.0427767
0.00973082
0.0163127
0.0643463
0.0193985
0.0393876
0.0724539
0.010028
0.0122678
0.0159039
0.0106766
0.0102575
0.0109118
0.0155481
0.0475847
0.0508472
0.00967119
0.0128272
0.0199051
0.0166537
0.0337868
0.0133513
0.0116746
0.0238603
0.0230126
0.062566
0.0288992
0.062669
0.0129484
0.010271
0.0276448
0.0235545
0.090814
0.033363
0.0471876
0.0103982
0.0101361
0.0129422
0.0118823
0.0330683
0.0160847
0.0154417
0.0874179
0.0101248
0.0504992
0.0151588
0.0751307
0.0104285
0.0107028
0.0124639
0.0200004
0.0141545
0.0136315
0.00948253
0.055061
0.042191
0.0783534
0.0103118
0.012355
0.016076
0.0118281
0.124748
0.0239579
0.0282216
0.010318
0.0171386
0.0143209
0.0234422
0.0096956
0.0844974
0.0310792
0.0133113
0.0590908
0.0496923
0.0376018
0.089103
0.0275589
0.0112251
0.0387009
0.0969184
0.0222499
0.0511925
0.0228157
0.0103182
0.00910623
0.0106268
0.0114998
0.0102376
0.0156914
0.0656233
0.0101926
0.0168374
0.0296606
0.0235853
0.0113722
0.019172
0.0358064
0.0123064
0.0586984
0.0278475
0.0268303
0.0381681
0.0124339
0.0434552
0.0198196
0.0658206
0.0755877
0.0411972
0.0885742
0.0170142
0.0131967
0.0172234
0.0339315
0.016298
0.0141214
0.0817322
0.0126756
0.0114236
0.0522467
0.0857127
0.0203366
0.020531
0.0692965
0.01169
0.0829722
0.0102873
0.0126275
0.0182172
0.0127507
0.0122712
0.0228229
0.00979368
0.119388
0.0641203
0.0244239
0.0248972
0.0988296
0.0147372
0.0144102
0.00996087
0.0112272
0.0342037
0.0129398
0.00910903
0.0283142
0.0465548
0.0109298
0.0244622
0.0570832
0.0118515
0.0104156
0.012609
0.0256558
0.0161614
0.0215111
0.0298917
0.0238743
0.024736
0.0154371
0.0407758
0.0123594
0.0101245
0.00944833
0.0138282
0.0211638
0.017709
0.0594331
0.041455
0.0174813
0.0145104
0.0154369
0.00926035
0.0130425
0.00922163
0.00929706
0.233308
0.0198949
0.00982722
0.079072
0.0142899
0.0134626
0.0770093
0.0123118
0.0100544
0.0232571
0.0100698
0.0093444
0.0101869
0.0395872
0.0107438
0.052141
0.0198851
0.0105529
0.0693631
0.0490503
0.0423847
0.0181955
0.053277
0.0132647
0.0105226
0.010816
0.0120805
0.0294735
0.040872
0.0124228
0.0112949
0.0194263
0.0303624
0.0127475
0.00977417
0.0095135
0.0638748
0.00976932
0.0258775
0.0326682
0.0627896
0.0436756
0.0281283
0.0102901
0.0492824
0.0110473
0.0108446
0.0112404
0.00975292
0.0110198
0.00964858
0.0103196
0.00950302
0.00981518
0.0152213
0.0186627
0.0596752
0.050055
0.0119709
0.017018
0.0637248
0.0110972
0.022947
0.00920299
0.00914738
0.00967375
0.0142268
0.0283393
0.00982474
0.125726
0.0252471
0.00972422
0.0724865
0.0101109
0.0603448
0.0295957
0.011933
0.0331123
0.0556756
0.0115811
0.0128133
0.0131542
0.0578991
0.0105537
0.0592967
0.0272165
0.0375303
0.0419939
0.0237544
0.00926242
0.0390573
0.0127517
0.0112677
0.0211368
0.00943835
0.00921067
0.0198359
0.00911178
0.0106275
0.0345641
0.00934775
0.0431942
0.0617684
0.0112296
0.0120664
0.0476289
0.00995464
0.0218763
0.0308501
0.010631
0.0972365
0.0106717
0.0102261
0.0205399
0.0697783
0.0470519
0.0247923
0.0454988
0.0154056
0.0161895
0.0230151
0.0928013
0.0198404
0.0109325
0.0124818
0.00935134
0.00997975
0.0347412
0.0120619
0.00965391
0.0201482
0.0142072
0.0635443
0.0198912
0.0125395
0.00920622
0.03674
0.0119656
0.0264715
0.0209424
0.0792187
0.0196575
0.0299659
0.0565688
0.0189448
0.0538145
0.0120813
0.0216057
0.0098406
0.0730437
0.00911153
0.0268439
0.0460315
0.0242377
0.0149755
0.0774843
0.0117534
0.0131298
0.0472398
0.110066
0.0482552
0.00911597
0.0135232
0.0104048
0.023512
0.0500092
0.0138424
0.0743939
0.0228092
0.00984076
0.0137424
0.0462191
0.0135698
0.0810648
0.0296414
0.0126877
0.00943296
0.0647003
0.012745
0.0173916
0.046013
0.0111447
0.0122432
0.00916672
0.0144608
0.0254789
0.0458466
0.0110504
0.0134225
0.0806545
0.0564371
0.044263
0.0103469
0.0258299
0.0116366
0.0499699
0.0104665
0.0608157
0.0156311
0.021464
0.0111057
0.0098004
0.0142644
0.0154878
0.0734643
0.0659853
0.0141023
0.0159318
0.0790646
0.0656012
0.0112947
0.012613
0.0117398
0.0232002
0.0152998
0.0106788
0.0108209
0.0408479
0.0303448
0.037299
0.0134645
0.02915
0.0634412
0.0615746
0.0101018
0.0212151
0.0260542
0.0117165
0.0116085
0.0715976
0.0108886
0.0101148
0.0549338
0.0796916
0.0105694
0.00942844
0.0755897
0.103605
0.0099761
0.0236101
0.0843529
0.0363621
0.0099231
0.0103879
0.0102883
0.014028
0.0112989
0.0762474
0.0624124
0.00989541
0.0108241
0.0246764
0.0127743
0.0490393
0.0453085
0.0490266
0.0126549
0.102143
0.0128548
0.0141575
0.0259698
0.0436639
0.0868629
0.00940204
0.00956207
0.0189578
0.00974812
0.0226299
0.012285
0.0514834
0.0440072
0.215249
0.0213815
0.0144717
0.0231981
0.046102
0.0278456
0.0193849
0.0142381
0.0249392
0.0129068
0.0106015
0.0225595
0.0452885
0.0702398
0.0117581
0.0735765
0.0193582
0.0177102
0.0291259
0.0783666
0.0135019
0.0395185
0.101402
0.0845716
0.0161138
0.00984226
0.0168825
0.016423
0.0304369
0.0211676
0.0744163
0.0604072
0.0531371
0.00941357
0.0233715
0.0139577
0.021983
0.0226069
0.0166251
0.0821215
0.0186363
0.0801434
0.0115994
0.0210975
0.0746734
0.00950786
0.0269662
0.0162166
0.0287494
0.0456776
0.0821393
0.0123736
0.0509092
0.0097024
0.00925853
0.0180158
0.0363332
0.0738657
0.0118075
0.0552904
0.0113765
0.0114061
0.0104601
0.0486411
0.0117079
0.0116705
0.0123106
0.0117243
0.0859151
0.0506786
0.0108781
0.0212045
0.0389821
0.00932553
0.0179592
0.017134
0.0241184
0.0619078
0.143635
0.0515514
0.0122623
0.0106548
0.0182499
0.0776161
0.0597275
0.0134279
0.0195007
0.036597
0.00933836
0.0118984
0.0112769
0.0105194
0.00949707
0.0115011
0.0139403
0.0206934
0.0193604
0.0208238
0.0332056
0.0384669
0.00929928
0.0168317
0.0640984
0.0441237
0.010469
0.0553504
0.0138259
0.0248852
0.0110854
0.0136233
0.0202739
0.00986866
0.0105041
0.0112321
0.0449095
0.0537356
0.0103466
0.0092274
0.0834826
0.0299533
0.0177192
0.010353
0.0149956
0.101763
0.0236898
0.0155252
0.0307282
0.0101046
0.0189912
0.090389
0.0175043
0.074322
0.0263895
0.0990822
0.0121133
0.0131729
0.0101231
0.0892418
0.0451545
0.0288256
0.0127067
0.0500959
0.0485568
0.0265141
0.00996554
0.0616224
0.00917404
0.0127361
0.0382
0.0393377
0.0522755
0.0112355
0.00958453
0.0142202
0.0184587
0.0248944
0.0228415
0.0252046
0.0732672
0.0692756
0.0588822
0.0273478
0.00922924
0.0628543
0.104411
0.0483383
0.077457
0.0126911
0.0744992
0.0104819
0.00936284
0.0137924
0.037489
0.0103069
0.0622601
0.0406872
0.00946529
0.0109382
0.0187547
0.00997058
0.0111225
0.0847822
0.0163967
0.0129428
0.0102065
0.0267277
0.0124431
0.0097805
0.0226367
0.0576235
0.0730759
0.0230506
0.00948603
0.068219
0.0309061
0.0110066
0.0584628
0.064886
0.0245069
0.0557085
0.0361084
0.0843228
0.048177
0.0631801
0.0919843
0.0575505
0.0945209
0.0222297
0.0314571
0.00974999
0.0904778
0.0102228
0.0171431
0.0134592
0.0191418
0.0131511
0.0639535
0.011642
0.0108435
0.0260603
0.00922854
0.0164076
0.108353
0.0193698
0.0294385
0.0645203
0.067489
0.0149679
0.0271986
0.0748594
0.0139862
0.0151648
0.00969
0.0115109
0.0520058
0.0197521
0.0299296
0.013823
0.0149374
0.0142468
0.0107588
0.0269278
0.0126416
0.0161881
0.0126463
0.0226614
0.0218297
0.0183038
0.0282277
0.00966951
0.0163746
0.0562883
0.0147122
0.0600511
0.129077
0.0456205
0.0144501
0.0153655
0.00965494
0.0127172
0.0200245
0.0324062
0.0206394
0.0969383
0.0808515
0.0686708
0.0446161
0.0493604
0.0114743
0.0506683
0.0196499
0.0721127
0.0689847
0.00921741
0.0449262
0.0122027
0.0165503
0.0109491
0.0583862
0.0516289
0.017782
0.0135798
0.0927046
0.0146508
0.0428739
0.0222637
0.00999675
0.0124926
0.010003
0.024202
0.0249885
0.0294981
0.0375897
0.0589664
0.0503436
0.0721608
0.0217134
0.0106694
0.0335401
0.0418368
0.0235631
0.0130041
0.0131888
0.0444055
0.0159421
0.0746671
0.0387439
0.0135686
0.0500015
0.0306397
0.0261224
0.0188338
0.0220356
0.0135293
0.0264945
0.0235426
0.011328
0.0213031
0.0114996
0.0812755
0.0824963
0.0175092
0.0227679
0.0131422
0.0217151
0.025042
0.0891934
0.0160579
0.0164365
0.0141099
0.026727
0.0573548
0.0441643
0.0533887
0.0182742
0.0391336
0.0223893
0.0833621
0.0196629
0.0540986
0.031531
0.0102943
0.044954
0.0129899
0.0121871
0.058614
0.071417
0.0191815
0.0986916
0.0125615
0.0113447
0.0289947
0.01437
0.02622
0.0188289
0.0671744
0.0218473
0.0179038
0.00916332
0.101911
0.0120045
0.0173277
0.0314988
0.0152703
0.0612962
0.0115809
0.0674872
0.0132112
0.0176281
0.0142874
0.0157935
0.0544312
0.0816528
0.0100194
0.0100173
0.0558746
0.0224999
0.0667298
0.0166956
0.0421851
0.0903707
0.0256103
0.0137035
0.0281855
0.00986413
0.0200217
0.0142516
0.0675797
0.00963208
0.0630122
0.0325279
0.0101183
0.00974001
0.0177743
0.0825598
0.0508291
0.00916272
0.00926263
0.0147462
0.0133735
0.0134358
0.116934
0.0150624
0.0150991
0.016259
0.0479376
0.0165078
0.0103804
0.0168397
0.0108173
0.00927289
0.0427564
0.0122948
0.0526351
0.0127811
0.0267534
0.0169232
0.0129016
0.010846
0.0102006
0.0617169
0.00911151
0.0447134
0.0729987
0.0176219
0.0483897
0.0126927
0.0889341
0.0469823
0.0479731
0.0312943
0.0181408
0.0656247
0.066101
0.0145267
0.0262343
0.0103053
0.02373
0.0810529
0.0285899
0.0557354
0.0213399
0.0132074
0.0463805
0.0132606
0.0102557
0.0120989
0.0115409
0.0101559
0.0122672
0.0101475
0.0134938
0.0459754
0.0947418
0.0142316
0.0945288
0.017968
0.0181221
0.0297476
0.00940894
0.0173892
0.057884
0.00919597
0.0522823
0.0249074
0.0397313
0.0160039
0.00932377
0.0313027
0.0229654
0.0546736
0.0180635
0.018468
0.0283023
0.0150483
0.105768
0.073605
0.0100428
0.0173064
0.010679
0.0236625
0.121214
0.00913748
0.0389102
0.00909618
0.0120662
0.063167
0.0127485
0.0113271
0.0630362
0.0461529
0.00919693
0.024673
0.0786363
0.0127717
0.0445151
0.078387
0.0261411
0.0100653
0.00949843
0.0142469
0.0108203
0.0135619
0.010085
0.0204282
0.0230113
0.0102935
0.0138157
0.0926986
0.0593974
0.0181785
0.0110899
0.0190258
0.0840948
0.0755621
0.0138942
0.0532458
0.0131094
0.0111791
0.0095321
0.0523816
0.031889
0.0103099
0.0207807
0.0132589
0.015103
0.0425211
0.067475
0.0104477
0.0739751
0.035978
0.0634815
0.0529926
0.0111555
0.00945439
0.0138536
0.0222451
0.0263965
0.027573
0.0109795
0.0130137
0.046598
0.00942353
0.011858
0.0116221
0.0735224
0.01788
0.0780204
0.0270106
0.0510114
0.0123393
0.0145987
0.0118099
0.0685308
0.0296227
0.0402924
0.098524
0.0131329
0.0784441
0.0442187
0.0106518
0.0112795
0.00935077
0.0569363
0.0214546
0.0480204
0.00965506
0.0119722
0.0108659
0.0103241
0.0539136
0.014255
0.0193334
0.00942338
0.0112633
0.0108901
0.0115068
0.00941343
0.0890522
0.05379
0.0195241
0.00926076
0.0139416
0.0561183
0.0101726
0.0418511
0.0178091
0.0142675
0.0296051
0.0369131
0.042393
0.101697
0.0121934
0.0140622
0.0443191
0.0189015
0.0933304
0.012791
0.00954451
0.0837462
0.0181476
0.0165055
0.0114712
0.0946702
0.0992916
0.0685711
0.0372786
0.040129
0.0795888
0.0694128
0.0984854
0.0298496
0.0113467
0.0155338
0.0120756
0.0175945
0.0849754
0.0117782
0.0201425
0.104105
0.0994349
0.0657269
0.0286817
0.0535058
0.0123129
0.0166097
0.00932273
0.0136178
0.0538666
0.0287382
0.0125374
0.00969823
0.0137843
0.0116232
0.0107809
0.0484181
0.0221604
0.0129058
0.0115125
0.109299
0.0188217
0.0220956
0.0172
0.0193036
0.0100193
0.0430095
0.0632766
0.0895955
0.0243742
0.00916004
0.00921322
0.0122769
0.0401119
0.0213324
0.0488927
0.024856
0.0113286
0.0521883
0.0422091
0.010392
0.0141172
0.0123762
0.0117401
0.0284485
0.0370405
0.0139337
0.0237035
0.0182343
0.0142441
0.0166826
0.0106082
0.0302301
0.0146047
0.0914895
0.0669126
0.102536
0.0257737
0.019328
0.0240814
0.0503336
0.0127049
0.0523185
0.0424303
0.0895345
0.0192721
0.0097165
0.0108647
0.0890597
0.0422719
0.0511132
0.0746579
0.0435979
0.00997587
0.00935344
0.0692262
0.057595
0.0436354
0.00977827
0.00939813
0.0143585
0.0259432
0.0124157
0.0141133
0.0251339
0.0588748
0.00911612
0.0144964
0.0147686
0.0180037
0.0142363
0.0108639
0.0344936
0.0183646
0.0367886
0.0115368
0.011026
0.0105296
0.10293
0.0106674
0.0775866
0.0119054
0.0128248
0.0110514
0.011639
0.0456248
0.0809219
0.0468048
0.00981441
0.00997617
0.0174239
0.0109986
0.0722793
0.0268524
0.0117246
0.0102315
0.0210348
0.0571687
0.0184505
0.0207508
0.0104893
0.0106986
0.011379
0.0099078
0.0129185
0.0137353
0.0284494
0.010825
0.0104356
0.0139534
0.0283952
0.0625304
0.0840181
0.0336377
0.0221892
0.0100796
0.0101807
0.0717456
0.0211364
0.0152548
0.0152359
0.0257823
0.0114955
0.0145883
0.0164949
0.00926255
0.0237395
0.0157526
0.0478647
0.0211497
0.0146635
0.0785426
0.0178083
0.0128846
0.0155001
0.012064
0.0100727
0.0782507
0.0112126
0.0301671
0.0101793
0.0328036
0.0108574
0.0167358
0.027025
0.0181591
0.0821221
0.0171619
0.051082
0.0579268
0.0141782
0.0753372
0.0103458
0.0117299
0.0101274
0.0489257
0.0238166
0.0809784
0.0159175
0.0590453
0.0254122
0.0125614
0.0113227
0.0102233
0.0135908
0.0126724
0.00991583
0.0131235
0.0124618
0.0130181
0.0527638
0.0245069
0.00917224
0.00942429
0.0423868
0.0139626
0.0114933
0.0106266
0.0780228
0.0158274
0.0806183
0.00960325
0.0715957
0.0565874
0.0193262
0.0160038
0.0152388
0.0194322
0.0648774
0.0115539
0.0645984
0.0636057
0.013018
0.0467438
0.0293342
0.0166214
0.012185
0.0871569
0.0409736
0.0628933
0.0105254
0.0117079
0.0384979
0.0124202
0.0266839
0.0398067
0.00994517
0.059025
0.0152976
0.0129221
0.0105806
0.0114772
0.0102717
0.00996337
0.0185906
0.00904448
0.0128547
0.0103644
0.0228631
0.0252292
0.00959268
0.0327775
0.0126716
0.0138242
0.0127024
0.0144408
0.00961038
0.015001
0.0580956
0.0120756
0.0094813
0.0409382
0.0186809
0.00936991
0.124811
0.0124992
0.0109048
0.0258832
0.0168595
0.0470976
0.0202508
0.0102855
0.0133004
0.0259328
0.0417052
0.0411964
0.0172231
0.0542716
0.0570284
0.071777
0.0147978
0.0104775
0.00940978
0.0160259
0.013559
0.0153232
0.0405438
0.0210975
0.00984455
0.00951524
0.00908537
0.0091513
0.0730075
0.10724
0.0924075
0.0356411
0.0129644
0.0101672
0.00958399
0.0280786
0.0131052
0.0112421
0.0877127
0.00920866
0.0115721
0.0100015
0.00991361
0.0348202
0.0472974
0.0188051
0.0488915
0.0116052
0.0142035
0.0246268
0.0131592
0.0256046
0.0384815
0.0236135
0.00946959
0.0290582
0.0165416
0.0104374
0.0227219
0.0549997
0.01063
0.00950777
0.0449057
0.0578048
0.0271158
0.0535341
0.0100741
0.0200468
0.0475247
0.00952415
0.00941123
0.010791
0.0175257
0.0115297
0.0127618
0.0120343
0.014081
0.0292894
0.0140298
0.0358405
0.0309261
0.0466714
0.00998421
0.019614
0.011773
0.0149246
0.0264349
0.0232704
0.0877694
0.0232377
0.0869268
0.0264583
0.0143172
0.0123439
0.0105133
0.0124923
0.0626225
0.0499927
0.0109678
0.0306859
0.0375479
0.0167542
0.052408
0.0103125
0.0137081
0.0117061
0.019717
0.0109237
0.0184905
0.0125066
0.0590924
0.0106231
0.0622372
0.0657604
0.0380851
0.0156793
0.0192385
0.00924032
0.0635551
0.00962249
0.0127486
0.0240483
0.0311079
0.0279439
0.0545611
0.0421366
0.055878
0.0382917
0.00938159
0.0462842
0.0131852
0.0412819
0.0941709
0.0253743
0.0535713
0.109249
0.0849145
0.0149834
0.0198142
0.0106998
0.038845
0.00918067
0.0628475
0.0204973
0.0400107
0.0127745
0.0118403
0.0889309
0.0163196
0.012045
0.0126984
0.0158374
0.0166897
0.0108006
0.0124308
0.0112648
0.0145349
0.0617642
0.0277032
0.0487956
0.0125929
0.0730037
0.0278457
0.0131877
0.0340116
0.0208301
0.0882635
0.0210053
0.0237388
0.00996427
0.0181129
0.0109718
0.0147251
0.0108188
0.0153502
0.00925378
0.0451762
0.0449346
0.012384
0.0116459
0.0155565
0.0131818
0.0116072
0.0135529
0.013025
0.0616866
0.0125591
0.00946205
0.0659118
0.0171116
0.0646023
0.0167876
0.0370157
0.05128
0.0120751
0.0549114
0.065682
0.0840314
0.0691068
0.0592897
0.0105207
0.0175942
0.00966224
0.0156338
0.0415145
0.0116432
0.00947075
0.0112635
0.0849918
0.0138013
0.0203697
0.0194675
0.0124629
0.071145
0.0651729
0.0137707
0.0602172
0.00998785
0.0504722
0.0184171
0.0357174
0.009103
0.0091486
0.0122206
0.0551568
0.0823908
0.0602686
0.0119719
0.0412559
0.108656
0.019898
0.02596
0.070673
0.0246836
0.0454913
0.0167842
0.0133733
0.0100598
0.0127887
0.128157
0.0216859
0.0782978
0.00954587
0.0128324
0.0180434
0.0119158
0.0264482
0.0210132
0.0820311
0.0140673
0.0237854
0.00950551
0.00975428
0.0434511
0.103567
0.0106672
0.0117944
0.0104071
0.0378812
0.0149469
0.0836759
0.0592583
0.051045
0.0108608
0.067621
0.0207421
0.0977563
0.0490914
0.0144338
0.0466223
0.0603441
0.0646419
0.0135837
0.0130001
0.0101167
0.0448324
0.0169626
0.0109349
0.0184195
0.0183756
0.0136088
0.0104597
0.0102617
0.0844122
0.0129255
0.0194859
0.0361286
0.0511644
0.0101413
0.0106658
0.0249653
0.0140753
0.0979812
0.0200051
0.0170261
0.0902496
0.0120237
0.0113896
0.0136574
0.0437822
0.0102148
0.0476312
0.0093822
0.0421039
0.0857808
0.00996967
0.0113979
0.0385818
0.0140052
0.0111545
0.0107615
0.0101018
0.0435728
0.0669752
0.0107647
0.0136029
0.0139598
0.0122183
0.046919
0.0155089
0.0440216
0.0378911
0.0119322
0.00926311
0.0238885
0.0134229
0.019125
0.0587937
0.0710177
0.00984309
0.0119544
0.047919
0.0679636
0.0290825
0.0134768
0.0142388
0.0850776
0.0264177
0.0122587
0.0108239
0.0117145
0.0135217
0.0206514
0.00938669
0.012759
0.0113358
0.0282273
0.0686169
0.086419
0.0184398
0.0215099
0.0137656
0.012322
0.0107165
0.0114704
0.0101349
0.0117429
0.0124372
0.0107965
0.0244402
0.0121384
0.0119914
0.0261225
0.011972
0.0244469
0.0683802
0.0181306
0.0158633
0.0160011
0.0170439
0.0158577
0.0274724
0.0470972
0.0137503
0.0122815
0.0141532
0.0186557
0.0739411
0.0120385
0.0228015
0.0794524
0.014389
0.0636585
0.0183408
0.0131053
0.0144325
0.015551
0.0201621
0.0570985
0.077751
0.0790215
0.00960867
0.0480316
0.0122923
0.0114727
0.0527264
0.0090573
0.025082
0.00957832
0.01905
0.0189474
0.0327464
0.00908751
0.0103881
0.0988771
0.0115204
0.0587464
0.10091
0.0152788
0.0368861
0.0109547
0.0114939
0.00999881
0.0233418
0.0294639
0.0142455
0.0117323
0.0139135
0.0443576
0.0755652
0.0191406
0.0122395
0.0204762
0.00976107
0.0289678
0.025264
0.0116853
0.0112399
0.0113691
0.0268136
0.021209
0.0285826
0.0159512
0.0138426
0.0204285
0.0224633
0.0600938
0.0131989
0.0141563
0.0121127
0.0110392
0.013787
0.00990944
0.0550977
0.0175124
0.0317222
0.0441005
0.012369
0.030065
0.00959325
0.0108399
0.0135161
0.0820689
0.0232806
0.0137265
0.0105867
0.0396415
0.0117142
0.0311481
0.0156394
0.0291537
0.0206313
0.0125137
0.0115734
0.103467
0.0150796
0.0112573
0.012139
0.0263891
0.0128284
0.0122321
0.134156
0.00912317
0.052644
0.0135322
0.01059
0.0114051
0.0192679
0.025526
0.0330465
0.042265
0.0602511
0.0109135
0.0109182
0.0970165
0.0552973
0.0137823
0.0148593
0.0444147
0.022193
0.014185
0.0150221
0.0140409
0.0853583
0.0124046
0.0270832
0.0517828
0.0112444
0.0439333
0.0288155
0.0775854
0.0516495
0.0290113
0.0447533
0.0180479
0.042534
0.0205358
0.0599228
0.078785
0.0173832
0.0674285
0.040737
0.0140456
0.0702233
0.0132099
0.0427647
0.0354365
0.0446726
0.0102389
0.0691666
0.0625244
0.0160563
0.0130021
0.0170412
0.0479512
0.0161703
0.0278367
0.0178114
0.0379271
0.0239017
0.00916169
0.0243679
0.0102626
0.0155295
0.0154408
0.0110975
0.101994
0.0172264
0.019005
0.0126184
0.0718488
0.0183768
0.102318
0.024512
0.025204
0.0109054
0.0120602
0.0194457
0.0133631
0.0209033
0.00957442
0.0118975
0.0299618
0.00921963
0.0371258
0.0123155
0.0163112
0.0391468
0.0157401
0.0373439
0.0108072
0.0138669
0.0381921
0.0161355
0.0179283
0.0905352
0.0117879
0.0855448
0.0488277
0.0202291
0.0133862
0.0147623
0.0456082
0.0108536
0.0120116
0.022563
0.0409724
0.0284651
0.0643527
0.0139458
0.0265123
0.0163267
0.0266264
0.00958351
0.0147298
0.0606213
0.0160109
0.00956072
0.0260106
0.10366
0.0372414
0.0139864
0.0431817
0.0269386
0.041411
0.0143524
0.0274896
0.0484671
0.0475071
0.0102035
0.0812714
0.0127762
0.0712096
0.0111383
0.0237891
0.0128307
0.0607931
0.0141942
0.0100574
0.0114531
0.0106817
0.0245693
0.0936855
0.0910885
0.0325296
0.102679
0.0126698
0.0594329
0.0102582
0.0129281
0.0174826
0.0118045
0.0778828
0.0418391
0.0440536
0.0132799
0.0651985
0.0135024
0.0237185
0.014781
0.0387515
0.0580791
0.0691505
0.0124386
0.0455599
0.0113925
0.0172699
0.0180537
0.0452246
0.0449577
0.0174282
0.0238113
0.0507206
0.0103127
0.0124128
0.0295355
0.0242192
0.0146114
0.0123311
0.0117908
0.0102411
0.0107726
0.0233471
0.028653
0.0108711
0.103141
0.0662162
0.016778
0.0129716
0.00949272
0.068448
0.049922
0.009339
0.0242036
0.00918719
0.0562187
0.00953025
0.0103467
0.0129733
0.0414171
0.0286441
0.0721249
0.0809105
0.0186304
0.0868738
0.0173001
0.0335073
0.0175437
0.0160888
0.0115498
0.0754541
0.111125
0.0112271
0.0173977
0.0620187
0.0117885
0.0119145
0.0628905
0.0876836
0.0926126
0.0538497
0.0318471
0.0825969
0.0281931
0.0097478
0.0601741
0.0792549
0.0173943
0.0125938
0.0110469
0.0142001
0.0250905
0.109792
0.0104325
0.0581679
0.0111061
0.0522974
0.022658
0.0176332
0.0218125
0.0201957
0.0678465
0.0109038
0.0127889
0.0100427
0.0817962
0.0185677
0.0445966
0.0236188
0.036809
0.0755359
0.0209324
0.0213676
0.0184426
0.0314799
0.0134405
0.0459053
0.0603175
0.0492293
0.016019
0.0199635
0.0163081
0.061009
0.0203719
0.0763262
0.11239
0.0143399
0.0102923
0.0465227
0.0581338
0.0255301
0.011169
0.0185043
0.0119667
0.0179868
0.015075
0.0117512
0.0145803
0.00972894
0.0435037
0.0877605
0.0168158
0.00953624
0.0103683
0.0272416
0.101529
0.0243474
0.0111484
0.0431617
0.0227358
0.0181055
0.0238786
0.0105282
0.0127885
0.00966081
0.0649819
0.0173843
0.0116386
0.0143198
0.0106886
0.0204116
0.0439162
0.0106828
0.025243
0.0884744
0.0101082
0.0100371
0.0203946
0.0269253
0.012943
0.010858
0.0139754
0.00950432
0.0190376
0.0260502
0.0577486
0.0462058
0.0113573
0.0176201
0.00945453
0.0147793
0.052141
0.0595883
0.0503469
0.0796251
0.0395935
0.0752441
0.011987
0.0788156
0.0172811
0.0300419
0.0101459
0.0628459
0.0124103
0.0571974
0.0118951
0.102815
0.0506778
0.0480197
0.00917472
0.0103287
0.0317513
0.0272151
0.0973685
0.0755145
0.0104403
0.016978
0.0184583
0.0102277
0.0103687
0.0138267
0.0137484
0.0113029
0.0391082
0.0185483
0.0370972
0.0445354
0.0849624
0.00998769
0.038476
0.0832709
0.010503
0.0428479
0.012115
0.0739101
0.013705
0.0107988
0.0199948
0.0241266
0.0120668
0.0159834
0.0792629
0.0120883
0.0100682
0.0532863
0.0547217
0.0131377
0.0196257
0.0926936
0.0351049
0.0122031
0.00971795
0.0191209
0.0123431
0.0186224
0.0208588
0.0093701
0.00924838
0.0262755
0.0149411
0.0228391
0.026757
0.0129152
0.0187313
0.0901231
0.00937182
0.0184578
0.0981356
0.0130736
0.0345134
0.0150155
0.097218
0.0135854
0.0226009
0.0175029
0.0140452
0.0146165
0.0501511
0.0127642
0.0210369
0.0190568
0.0747112
0.0128949
0.0271278
0.0105035
0.0165538
0.0496723
0.0616176
0.0157927
0.0612958
0.0356545
0.020606
0.064022
0.0893759
0.02627
0.0103162
0.015346
0.0106769
0.0781396