/*--------------------------------*- C++ -*----------------------------------*\
| =========                 |                                                 |
| \\      /  F ield         | OpenFOAM: The Open Source CFD Toolbox           |
|  \\    /   O peration     | Version:  2406                                  |
|   \\  /    A nd           | Website:  www.openfoam.com                      |
|    \\/     M anipulation  |                                                 |
\*---------------------------------------------------------------------------*/
FoamFile
{
    version     2.0;
    format      ascii;
    arch        "LSB;label=32;scalar=64";
    class       volScalarField;
    location    "22";
    object      k;
}
// * * * * * * * * * * * * * * * * * * * * * * * * * * * * * * * * * * * * * //

dimensions      [0 2 -2 0 0 0 0];

internalField   nonuniform List<scalar> 
59516
(
0.00296744
0.00374353
0.00319781
0.00436363
0.00830069
0.0174012
0.00370461
0.00310198
0.00301799
0.00556784
0.0073036
0.00450539
0.00297658
0.011013
0.00475825
0.00475123
0.00643907
0.00513524
0.00315939
0.00555922
0.00642971
0.00447528
0.00489472
0.00687292
0.00491265
0.00445259
0.0067192
0.00716463
0.00481635
0.00943043
0.00718258
0.00683483
0.00418872
0.00364857
0.00480143
0.00404588
0.00902108
0.00511493
0.00318809
0.00514783
0.00304195
0.0053824
0.00459522
0.00373777
0.00431739
0.0048988
0.00355068
0.00634222
0.00793295
0.00581727
0.00906023
0.00618539
0.00300337
0.00333615
0.00625727
0.00361244
0.00622227
0.00671136
0.00663727
0.00433242
0.00500353
0.00901347
0.00639701
0.00624369
0.00369923
0.00523519
0.0111919
0.00614762
0.00654603
0.00391829
0.00862984
0.00608342
0.00920453
0.00461759
0.006857
0.00550056
0.00635602
0.00469513
0.00599521
0.00597306
0.00659475
0.00545867
0.00466571
0.00921418
0.00532821
0.00647814
0.00653465
0.00431318
0.00472162
0.00356596
0.0070233
0.00492323
0.0061467
0.00465106
0.00606802
0.00823194
0.00484053
0.00480572
0.00487746
0.00489754
0.00654729
0.00933462
0.00913695
0.00466275
0.00402644
0.00549022
0.00707218
0.00309963
0.00329423
0.00452333
0.00542419
0.0078898
0.00487928
0.00513874
0.00519477
0.00310593
0.00451373
0.00441745
0.00871815
0.00473204
0.00732803
0.00647382
0.00536583
0.0063572
0.00526452
0.00322327
0.00966554
0.00457371
0.0106887
0.00680239
0.00728744
0.00312157
0.00874045
0.00426075
0.00314206
0.00300265
0.00513901
0.00314276
0.00643464
0.00364952
0.00611421
0.00704317
0.00917803
0.00403838
0.00686911
0.00426398
0.00404758
0.00341591
0.019993
0.00307527
0.0033494
0.00635955
0.00555226
0.00489832
0.0031064
0.00996143
0.00352361
0.00291049
0.00316838
0.00931268
0.0047666
0.00453901
0.00686142
0.0111164
0.00301505
0.00603141
0.0044393
0.00659002
0.00892621
0.00489921
0.00312573
0.00472406
0.00382203
0.00438338
0.005535
0.00367008
0.0064735
0.00476078
0.0044649
0.00623177
0.00448262
0.00720198
0.0109003
0.00416255
0.00690148
0.00451356
0.00614809
0.00941904
0.00314555
0.00327869
0.00448441
0.00473747
0.00556535
0.00387376
0.00456706
0.0066038
0.00462915
0.00605348
0.00386704
0.00445981
0.00405164
0.00742903
0.00290684
0.0092649
0.00366845
0.00433777
0.00674137
0.00582794
0.00954275
0.00354647
0.00538832
0.00956258
0.00458825
0.00499581
0.00340457
0.0062445
0.00420128
0.00497504
0.00498679
0.00533651
0.00507225
0.00374583
0.00644989
0.00673818
0.00650403
0.00641901
0.00799955
0.00585399
0.00627343
0.00476403
0.00625863
0.00646713
0.00737976
0.00829112
0.0067229
0.0061236
0.00426341
0.00296044
0.0055542
0.0052669
0.00728952
0.00947734
0.00449779
0.00984987
0.00701443
0.0028032
0.00500721
0.00455622
0.0058873
0.0029658
0.00560892
0.00458223
0.00744561
0.00472908
0.0046222
0.00513407
0.00489257
0.00528497
0.00604515
0.00480568
0.0037644
0.00585538
0.00330977
0.00633226
0.00313375
0.00434118
0.00561249
0.0031225
0.006312
0.00454238
0.00365045
0.00664846
0.0027318
0.00336921
0.0059672
0.00286841
0.00833934
0.00549902
0.00829665
0.00616208
0.00721195
0.00441531
0.00883558
0.00350765
0.00351357
0.00642015
0.00704141
0.00947781
0.00713817
0.00754107
0.0067811
0.00416694
0.00461225
0.00321047
0.00594332
0.00788601
0.00577146
0.00407356
0.00740749
0.00642976
0.00292654
0.00426594
0.00888525
0.00738657
0.00506843
0.00935376
0.00489394
0.00528145
0.00588991
0.00567257
0.00453685
0.00443007
0.00335006
0.0067951
0.00489064
0.00599142
0.00307921
0.00845665
0.00358484
0.00596638
0.00488155
0.00333236
0.00681968
0.00719209
0.00741321
0.00530391
0.00368284
0.00398422
0.00641923
0.00575948
0.00559091
0.00445446
0.00892535
0.00511762
0.00570372
0.00662767
0.00583574
0.00486581
0.00454287
0.00666893
0.00587768
0.00727274
0.00659503
0.00618583
0.00524204
0.00715405
0.00475065
0.00721484
0.00686122
0.00414455
0.00395466
0.00545323
0.00443668
0.00358339
0.00705475
0.00640609
0.00329018
0.00647456
0.0113985
0.00348094
0.00362116
0.00364006
0.00730218
0.0047274
0.00370616
0.00516867
0.00538118
0.00675182
0.00701189
0.0049856
0.00597308
0.00643791
0.00602695
0.00329166
0.00557084
0.00871687
0.00395382
0.00638083
0.0062668
0.00459636
0.00451139
0.00276177
0.00744356
0.00960657
0.00466363
0.0043248
0.00875981
0.00401411
0.00365487
0.00384812
0.0036553
0.00345385
0.00544021
0.00693027
0.00730103
0.00434238
0.0044769
0.0045613
0.00692364
0.00658431
0.0045497
0.003333
0.00318102
0.00700645
0.00690958
0.00583731
0.00411152
0.00447149
0.00475661
0.00532446
0.00902787
0.00866852
0.00356458
0.00666659
0.00724755
0.00664497
0.00671427
0.0026137
0.00708443
0.00658695
0.00688758
0.00679216
0.00662412
0.00299229
0.00724229
0.00436434
0.00612234
0.00331207
0.00557242
0.00680409
0.00435893
0.00475279
0.00587956
0.00683092
0.00879884
0.00658555
0.00707601
0.00458065
0.0035938
0.00637107
0.00934148
0.00353803
0.00543734
0.00687436
0.00504815
0.00375053
0.00714734
0.00372112
0.00844426
0.00350861
0.00473553
0.0120918
0.00544001
0.00316741
0.00464888
0.00936573
0.00683862
0.00680176
0.0072065
0.0029112
0.00569284
0.00663295
0.00413769
0.00736235
0.00342689
0.00638546
0.00470723
0.00871577
0.00700873
0.00357415
0.00580862
0.0027368
0.00607013
0.00363187
0.00330919
0.00867912
0.00665268
0.00336844
0.00545267
0.00356922
0.00604556
0.00437654
0.00931865
0.00595225
0.0095315
0.00633987
0.00591523
0.00327304
0.00298309
0.00563103
0.00735796
0.0069844
0.0098911
0.00586826
0.007452
0.00678701
0.00441957
0.00431754
0.00531827
0.00715723
0.0116444
0.00466072
0.00440606
0.00341142
0.00723056
0.00855969
0.00498876
0.00529053
0.00695117
0.0136682
0.00560343
0.00815449
0.00562511
0.00930585
0.00411195
0.0055025
0.00449715
0.00909419
0.00683517
0.00556442
0.00482393
0.00414368
0.00490387
0.00414299
0.00625316
0.00667577
0.0081711
0.0027901
0.00668118
0.00634873
0.00480958
0.00657162
0.00514543
0.00416433
0.0070893
0.00527166
0.00663701
0.00728395
0.00954075
0.00467604
0.00712663
0.0041011
0.00372166
0.00664554
0.00517237
0.00571612
0.00438937
0.00696295
0.00374119
0.00824315
0.00459974
0.00600634
0.00831486
0.00430139
0.00582572
0.00428147
0.00714233
0.00380805
0.00438639
0.00653588
0.00323383
0.00714927
0.00671634
0.00696186
0.00712677
0.00591993
0.00494792
0.00677349
0.00575325
0.00726252
0.0057546
0.00646116
0.00625426
0.00674001
0.00296038
0.009166
0.00637309
0.00365619
0.00560704
0.00294937
0.00809056
0.0073127
0.00339676
0.00372666
0.00699475
0.00456523
0.00886691
0.00889947
0.00696598
0.00647447
0.00743879
0.00558949
0.00296443
0.00503668
0.00665654
0.00831114
0.0072214
0.00486188
0.00684554
0.00418681
0.00400925
0.00456737
0.00415329
0.00343504
0.00298868
0.00708632
0.00357853
0.00630487
0.00639049
0.00709865
0.00666781
0.00656368
0.0054398
0.00698575
0.0103032
0.0043816
0.00690835
0.00395504
0.00505168
0.0066993
0.00612564
0.00485054
0.00643827
0.00652111
0.00963913
0.007669
0.00689672
0.00324798
0.00485392
0.00686369
0.00312826
0.00602361
0.00427869
0.00752109
0.00989904
0.00870644
0.00375832
0.00456056
0.0100419
0.00903554
0.00753923
0.00834813
0.00674652
0.00469779
0.00295445
0.00406816
0.00688189
0.0047315
0.00322873
0.0064193
0.00487122
0.00691944
0.00826236
0.0101148
0.00889103
0.00385403
0.00861718
0.00343184
0.00707625
0.00615221
0.00598502
0.00318334
0.00631047
0.00908865
0.00688563
0.0090332
0.00621529
0.0061272
0.00535851
0.00451747
0.00900536
0.00460144
0.00499939
0.00627179
0.00620676
0.00505594
0.00286234
0.00724136
0.00641763
0.00871852
0.00583152
0.00797552
0.00308781
0.00474345
0.0027837
0.00695155
0.00728517
0.00824601
0.00559291
0.00412106
0.00638337
0.00917652
0.00425968
0.00315849
0.00509675
0.00537467
0.0085122
0.00505321
0.00600622
0.00736161
0.00811051
0.00321378
0.00673195
0.00591654
0.00711607
0.00356153
0.00663595
0.00290576
0.00439222
0.00869691
0.00686294
0.0091544
0.00339635
0.00647041
0.0067508
0.00629453
0.00375509
0.0058494
0.00612605
0.00675255
0.00865059
0.00314143
0.00372708
0.0033765
0.00444639
0.00594508
0.00323679
0.00285111
0.00739633
0.00431297
0.00719917
0.00517251
0.00628319
0.00304304
0.00288778
0.00901778
0.00340641
0.00512835
0.00690802
0.00683361
0.00895958
0.00589716
0.00307219
0.00956646
0.004156
0.0102125
0.00686385
0.00484935
0.00438899
0.00959568
0.00641687
0.00954122
0.00542135
0.00311285
0.00511796
0.00472707
0.00734006
0.00631656
0.00604281
0.00671722
0.00694394
0.00538499
0.00453195
0.00510418
0.010023
0.00355506
0.00347195
0.00676185
0.00380132
0.00513558
0.00372805
0.00729039
0.00877766
0.00319212
0.00577166
0.00844161
0.00556794
0.00439386
0.00904407
0.00387282
0.00649981
0.00438278
0.00912309
0.00301237
0.00750493
0.00279022
0.00659934
0.00744885
0.00652738
0.0055769
0.00675822
0.00333134
0.00640141
0.0065154
0.00362221
0.00310273
0.00371161
0.00590589
0.00299432
0.00404611
0.00498084
0.00647218
0.0030892
0.00341496
0.00453885
0.00537517
0.00745824
0.00381936
0.00673241
0.00931313
0.00434876
0.00918122
0.0034202
0.00574625
0.00386637
0.0043426
0.00471958
0.00551293
0.00944256
0.00590632
0.00697835
0.00573798
0.00927389
0.00337651
0.00284933
0.00852875
0.00546351
0.00912416
0.00678089
0.00553202
0.0040164
0.00527363
0.00530888
0.00333753
0.00720093
0.00990406
0.00661012
0.00327512
0.003253
0.00922536
0.00486439
0.00569262
0.00644421
0.0063876
0.00343975
0.00556824
0.00735532
0.00351481
0.00609434
0.00624243
0.00296325
0.00685832
0.00575886
0.00707152
0.0051923
0.00308219
0.00353689
0.00288654
0.00336081
0.00315778
0.00335554
0.00341671
0.00410134
0.00607628
0.0067329
0.00908136
0.00382888
0.00329213
0.00382909
0.00676973
0.00529484
0.00365944
0.004187
0.00383019
0.00726995
0.00469636
0.00723767
0.0068087
0.0175392
0.00355493
0.00657613
0.00903932
0.00421424
0.00533786
0.00713719
0.00517016
0.00691478
0.00317975
0.00670939
0.00739443
0.00637567
0.00453037
0.00932043
0.00650687
0.00279373
0.00662445
0.00878843
0.00501899
0.00440953
0.00354587
0.00575557
0.0052334
0.00641624
0.0065271
0.00513766
0.00344195
0.00585098
0.00537272
0.0055519
0.00347556
0.00359629
0.00539018
0.00716247
0.00683366
0.00704914
0.00701027
0.00318783
0.00382866
0.0071835
0.00458608
0.00287403
0.00671395
0.00541449
0.00623917
0.00623811
0.00620681
0.00719686
0.00646915
0.00638466
0.00637202
0.00726222
0.00894014
0.00382188
0.00371053
0.00683659
0.00498181
0.00587939
0.00343097
0.00707147
0.006003
0.00321465
0.00759
0.00756643
0.00718903
0.00508317
0.00315284
0.00688365
0.0153194
0.00306867
0.00711257
0.00765052
0.00719635
0.00647415
0.00303117
0.00623896
0.00402326
0.00631541
0.00644005
0.00583248
0.00466951
0.00618261
0.00688752
0.0063248
0.00330878
0.00414469
0.00420387
0.00312232
0.00733285
0.00450867
0.00522815
0.0060605
0.00329457
0.00717344
0.00727563
0.00316377
0.0070244
0.00675829
0.0044552
0.00724073
0.00553785
0.00670614
0.00695219
0.00564497
0.00811427
0.00681649
0.00312673
0.002874
0.00655445
0.0100617
0.0058709
0.00686528
0.00314853
0.00915531
0.00663242
0.00328029
0.00575654
0.00397512
0.00378514
0.00326297
0.00890601
0.00281144
0.00613753
0.00582709
0.00755869
0.00708788
0.00391898
0.00560873
0.00686924
0.0030304
0.00463808
0.00676286
0.00366654
0.00552934
0.00724559
0.00408202
0.00558839
0.00310656
0.00338137
0.00872814
0.00378979
0.00332806
0.00637847
0.00379279
0.0065626
0.00584378
0.00305005
0.00695568
0.00828699
0.00715517
0.00348532
0.00442169
0.00314916
0.00455653
0.00855501
0.00593143
0.00514996
0.00447391
0.0106871
0.00635826
0.00733639
0.00499674
0.00693254
0.00363583
0.00449807
0.00523487
0.00661844
0.00342678
0.00702094
0.00453843
0.00480853
0.00404708
0.0094093
0.00334738
0.00505229
0.00715422
0.00686957
0.00516212
0.00331367
0.00734708
0.0057907
0.00566609
0.00685294
0.00501748
0.00341166
0.00747158
0.0058779
0.00445222
0.00939252
0.00618041
0.00570525
0.00602224
0.00334839
0.00581068
0.00478346
0.00639791
0.00783773
0.00399004
0.00356185
0.00564947
0.00725409
0.00373011
0.00474554
0.00683576
0.00682412
0.0051674
0.00432918
0.00896389
0.0090366
0.00609157
0.00441031
0.00579594
0.003046
0.00432669
0.00526818
0.00650349
0.00479353
0.0040177
0.00422629
0.0045794
0.00308468
0.00677631
0.00869385
0.00654229
0.0030998
0.00284628
0.00603239
0.00580615
0.00649711
0.00603221
0.00681064
0.00678634
0.00958607
0.00663529
0.00668307
0.00753055
0.00927348
0.00689701
0.00331295
0.00969936
0.00345185
0.00689884
0.00591069
0.00677735
0.00430882
0.00578929
0.00870701
0.00608004
0.00700564
0.00656119
0.0029639
0.00555937
0.00464177
0.00474377
0.00595583
0.00478954
0.0101932
0.0046966
0.00382697
0.00305113
0.00518733
0.00927551
0.00719599
0.00685629
0.00325889
0.0066626
0.0031942
0.00463041
0.00643546
0.00536989
0.0175202
0.00292075
0.00473126
0.00284317
0.00434187
0.00348278
0.00324266
0.0046043
0.00309855
0.00519689
0.0061733
0.00359809
0.00479346
0.00909546
0.0060905
0.00701864
0.00368118
0.00378993
0.00352815
0.00861576
0.00474366
0.0044027
0.00907741
0.00888621
0.00429119
0.00673343
0.00401145
0.00406085
0.00337475
0.00308632
0.00717234
0.00635307
0.00663357
0.00706289
0.00288869
0.00452144
0.00324934
0.00311001
0.00412205
0.0100366
0.00348092
0.00859536
0.00599976
0.00321733
0.00844008
0.00714685
0.00312587
0.00374937
0.00317532
0.00392592
0.00687562
0.00468165
0.00642426
0.00732342
0.00755871
0.0041754
0.00354801
0.00690432
0.0056849
0.00650795
0.00614614
0.00605507
0.00655598
0.00532393
0.00570972
0.00602234
0.00551209
0.005886
0.00732471
0.00638514
0.00634721
0.00297615
0.00463725
0.00738177
0.00385288
0.0040887
0.00302849
0.00897355
0.0129602
0.00499387
0.00567945
0.00624895
0.00402055
0.00838325
0.0062559
0.00465494
0.00374372
0.00465791
0.00742643
0.00578312
0.00601653
0.00654946
0.00709216
0.00567338
0.00460011
0.00394016
0.00364673
0.00323612
0.00301053
0.00398457
0.00727927
0.0042749
0.0069949
0.00447907
0.00622107
0.00489916
0.0043954
0.00309352
0.00604749
0.00493558
0.00320439
0.00652991
0.00601594
0.00553255
0.00550258
0.00830679
0.00679432
0.00720861
0.00906543
0.00321573
0.00395533
0.00687983
0.00445688
0.00956047
0.00332544
0.00478112
0.00332402
0.0063237
0.00317816
0.00962366
0.00349148
0.00887843
0.00275027
0.0094897
0.00519206
0.00446519
0.00666394
0.00935613
0.00507258
0.00279054
0.00463353
0.0046003
0.0049482
0.00298365
0.00720246
0.00684115
0.00704476
0.00431403
0.0045361
0.00448208
0.00779926
0.00549377
0.00676146
0.00415673
0.0038514
0.00293326
0.00307754
0.00300339
0.00853332
0.00668068
0.00810325
0.00341339
0.0075101
0.00630342
0.0089633
0.00462043
0.00927404
0.00585025
0.00932339
0.00606601
0.00760968
0.00436019
0.00455988
0.0071236
0.00636466
0.00493986
0.00703686
0.00572224
0.0035715
0.00936058
0.00607457
0.00905555
0.00368911
0.00565118
0.00720256
0.00328576
0.00537502
0.00663243
0.00369761
0.00531726
0.00687477
0.00351005
0.00722262
0.00691929
0.00334762
0.00530753
0.00655621
0.00868792
0.00312955
0.00520989
0.00469994
0.00919101
0.00442643
0.0067672
0.00883248
0.00644654
0.00969513
0.0030459
0.0030523
0.00705729
0.00902617
0.00654845
0.0035719
0.00461592
0.00313295
0.00592946
0.0065167
0.00550683
0.00921401
0.00340733
0.00747258
0.0037004
0.00924507
0.00396591
0.00311832
0.00905789
0.00655629
0.00406731
0.00313243
0.00826256
0.00524373
0.00474571
0.0072195
0.00605754
0.00626584
0.0030875
0.00350665
0.00531767
0.0042731
0.00412688
0.00655319
0.00302777
0.0052464
0.00392698
0.00574869
0.0029427
0.00319576
0.00340068
0.00341005
0.00734589
0.00436261
0.00757685
0.00391446
0.00797908
0.0133114
0.00497537
0.00429026
0.00448095
0.00727377
0.00540727
0.0035988
0.00333318
0.00295594
0.00981054
0.00951698
0.00994831
0.0047908
0.0083029
0.00529363
0.00640455
0.00379379
0.00682136
0.00845308
0.00740073
0.00444909
0.00627927
0.00361408
0.00654517
0.00657401
0.00647492
0.0034974
0.00509013
0.00968615
0.00372575
0.00456523
0.00389789
0.00688329
0.00490299
0.00694968
0.00292898
0.00302721
0.003623
0.00545161
0.00591994
0.00528221
0.00678603
0.0030413
0.00672622
0.00474831
0.00468334
0.00261181
0.00451261
0.00550416
0.00444832
0.00367785
0.00830606
0.00514292
0.00508682
0.00633123
0.00307732
0.00331922
0.00343899
0.00319882
0.00497304
0.00302593
0.00352199
0.00622965
0.00315173
0.00608431
0.00896673
0.00816861
0.00393139
0.00276857
0.00486694
0.00387263
0.00302677
0.00869532
0.00439903
0.00348571
0.00496091
0.00307009
0.00677622
0.00465004
0.00551714
0.00354927
0.00428667
0.00325631
0.00897802
0.00311737
0.00643562
0.00328831
0.00691534
0.0048356
0.00462311
0.00553471
0.0064033
0.00855469
0.00338765
0.0104594
0.0053933
0.00625113
0.00336298
0.00522247
0.00308112
0.00339064
0.0084
0.00319513
0.00313001
0.0072394
0.00915564
0.00591149
0.00352552
0.00330738
0.00395255
0.00647964
0.00637452
0.00830985
0.0054657
0.00341348
0.00449697
0.00329937
0.00619379
0.00907267
0.00713428
0.00667874
0.00627633
0.00308959
0.00641126
0.00328956
0.00492986
0.00911838
0.00291612
0.00491758
0.0033732
0.00656855
0.0031551
0.0039576
0.0069329
0.00698785
0.0085349
0.00395309
0.00657955
0.00697168
0.00421118
0.00992301
0.00601256
0.00771143
0.00761135
0.00544842
0.00436914
0.00570178
0.00973431
0.00342663
0.00514099
0.00403794
0.00521744
0.00348282
0.0067119
0.00451004
0.00630241
0.00763665
0.00438117
0.00497367
0.00612971
0.00590783
0.00343475
0.00447725
0.00526884
0.00588837
0.0066559
0.0065483
0.00739824
0.00477789
0.00881558
0.00386462
0.00621808
0.00530883
0.00905647
0.00617288
0.00466344
0.00393543
0.00411968
0.0060766
0.00845321
0.00450307
0.00372567
0.00666079
0.00322191
0.0085949
0.00327741
0.00652862
0.00307815
0.00553871
0.00446836
0.00546973
0.00666305
0.00565029
0.0059574
0.0067256
0.00544128
0.00664616
0.00414183
0.0078186
0.00966024
0.00414713
0.0100511
0.00285974
0.0032187
0.00311615
0.00722392
0.00344317
0.00661487
0.00714519
0.00464021
0.00310048
0.00562546
0.00336621
0.00714219
0.00335959
0.00318576
0.00622558
0.00390909
0.00305832
0.00316636
0.004653
0.00943116
0.00878691
0.00648373
0.00360982
0.00640086
0.00337689
0.0106982
0.00756143
0.00415603
0.0071167
0.00587764
0.00664052
0.00458675
0.00582851
0.00685069
0.00775646
0.00737981
0.0036261
0.0089846
0.00474973
0.00580512
0.0093441
0.00365437
0.00670815
0.00732108
0.00480924
0.00645631
0.00465669
0.00650377
0.00319591
0.00301132
0.00661356
0.00493871
0.00924232
0.00654436
0.00322191
0.00609
0.00338084
0.00909256
0.00902439
0.00441461
0.0079162
0.00484729
0.00584875
0.00690635
0.00620406
0.00445563
0.00644875
0.00361296
0.00512804
0.00403945
0.00440488
0.00892465
0.00644004
0.0093551
0.00545039
0.00644837
0.00599547
0.00590935
0.00741554
0.00486486
0.00312206
0.0029879
0.00321935
0.00609632
0.00592612
0.00467968
0.00686066
0.00619518
0.00577004
0.00651945
0.00390285
0.00938409
0.00332991
0.00617809
0.00550879
0.00427394
0.00948613
0.00837119
0.00292268
0.00500166
0.00919182
0.00488851
0.00865256
0.00461059
0.00634445
0.00574725
0.00725502
0.00608817
0.00307644
0.00461771
0.0071263
0.00568731
0.00575625
0.00645373
0.00611282
0.00421652
0.00315491
0.00736724
0.0061427
0.00601775
0.00562237
0.00741512
0.00896706
0.00592772
0.00310723
0.00728579
0.00435225
0.00587397
0.00657204
0.00430209
0.0030871
0.00401857
0.00317808
0.00451996
0.00438803
0.00914024
0.00514758
0.00372437
0.00459218
0.00351254
0.00885046
0.00526374
0.00663926
0.00956757
0.00323323
0.00360536
0.00575743
0.0102039
0.0100522
0.00746026
0.0046815
0.00417288
0.009373
0.008783
0.0104327
0.00318819
0.0059982
0.00486462
0.00571518
0.00395458
0.0090855
0.00509312
0.00355434
0.00915234
0.00928897
0.00868302
0.00378511
0.00824819
0.00537869
0.00565946
0.00721938
0.00453689
0.00580074
0.00286053
0.00520614
0.00714269
0.00444905
0.00533466
0.0066436
0.0047853
0.0030966
0.0048562
0.00582124
0.00902309
0.0034796
0.00308804
0.00303056
0.00298194
0.00650564
0.00431374
0.00626643
0.00973496
0.00286297
0.00742237
0.00705233
0.00563496
0.00555197
0.0027357
0.00484018
0.00283728
0.00611093
0.00571455
0.00584284
0.00647071
0.00515399
0.00542692
0.00592519
0.00378058
0.00396602
0.00471033
0.00320436
0.00344593
0.00459526
0.0039687
0.00700685
0.00294042
0.00404842
0.0090876
0.0060056
0.0102355
0.0028045
0.00343718
0.00337316
0.00448229
0.00437572
0.00556263
0.00432684
0.00874887
0.00323445
0.00665945
0.00635478
0.00877409
0.00551585
0.00529632
0.00872771
0.00593488
0.00658214
0.00710058
0.00841516
0.00648867
0.00445223
0.00728796
0.00694537
0.00458227
0.00300687
0.00521235
0.00388015
0.00319356
0.00631132
0.00697594
0.00414173
0.00418109
0.0034327
0.00443414
0.00624236
0.00394631
0.00360541
0.00496669
0.00629187
0.00543755
0.00648865
0.00932946
0.00659113
0.00885666
0.00469755
0.00492883
0.00586919
0.00570929
0.00459214
0.00942468
0.00483317
0.00738021
0.00664114
0.00409563
0.00589582
0.00715826
0.0036067
0.00559681
0.00628229
0.00318313
0.00894859
0.003999
0.00287475
0.00590962
0.00665645
0.00626073
0.00628359
0.00486421
0.00453354
0.00290399
0.00639683
0.00646709
0.00459186
0.00363773
0.00844226
0.00881029
0.00330134
0.00297093
0.00655313
0.00673415
0.00879972
0.00336145
0.00397308
0.00415883
0.00332925
0.00563208
0.00416529
0.00421262
0.00694514
0.00290568
0.00358195
0.00574743
0.00330202
0.00433893
0.00893421
0.00335338
0.00487047
0.0041277
0.00516361
0.00680279
0.00712753
0.00598767
0.00351815
0.00596534
0.00314437
0.00630653
0.00319603
0.00339855
0.00318367
0.00901502
0.00309532
0.00604299
0.00660452
0.00438154
0.00844976
0.00663515
0.00542992
0.00641372
0.00446913
0.00330015
0.00880595
0.00381345
0.00614402
0.00312057
0.00505877
0.00526812
0.00640353
0.00494638
0.00532839
0.00710657
0.00566027
0.00565753
0.00552137
0.00644218
0.0038199
0.00725598
0.0068876
0.00470543
0.0045626
0.00594523
0.00635515
0.00862315
0.00437754
0.00941569
0.00701437
0.00874305
0.00593176
0.00365172
0.00374571
0.00439825
0.0031672
0.00773706
0.00616993
0.00861982
0.00790779
0.00481124
0.00497485
0.00313331
0.00360907
0.00534685
0.00908721
0.00449728
0.00651255
0.00647042
0.00609151
0.00426309
0.00481293
0.00324078
0.00441636
0.00682767
0.00828532
0.00435743
0.00564478
0.0069286
0.00503777
0.00663038
0.00645737
0.00316502
0.00713311
0.0046327
0.00667382
0.00354299
0.00367767
0.00670583
0.00354361
0.00559166
0.00482069
0.00560486
0.00518259
0.00703001
0.00471433
0.00664653
0.00586844
0.00704848
0.00419409
0.00330986
0.0071533
0.011383
0.00571202
0.00663105
0.00317758
0.0035716
0.00599
0.00293349
0.00611481
0.00555641
0.00330003
0.00446973
0.0046135
0.00360206
0.00618837
0.00621148
0.00951924
0.00397394
0.0060283
0.00701005
0.00418948
0.00442271
0.00473385
0.00532366
0.00317207
0.00660891
0.00692237
0.00731515
0.00755509
0.0070707
0.00982544
0.00928949
0.00405397
0.00570322
0.00688121
0.00684124
0.00340549
0.00519055
0.00632652
0.0091258
0.00760125
0.00607869
0.00626988
0.00718337
0.00465393
0.00529498
0.0029895
0.00600112
0.00543739
0.00452023
0.00338933
0.00499962
0.0030652
0.00397509
0.00306002
0.00707812
0.00300028
0.00380562
0.00655568
0.00407392
0.00629608
0.00632753
0.00714355
0.00468906
0.00678919
0.00307105
0.00670121
0.00663933
0.00415708
0.00580515
0.00726856
0.00711595
0.00595319
0.00376905
0.00637625
0.00528503
0.00603479
0.00468415
0.00347488
0.00513484
0.00431172
0.00343612
0.00467353
0.00685601
0.00347145
0.00649448
0.00429369
0.00321728
0.00345958
0.00885063
0.0036146
0.00875247
0.0033927
0.00471145
0.00461784
0.00631448
0.00513761
0.00656662
0.00652106
0.00594491
0.00288792
0.0050308
0.00358442
0.00615228
0.00629117
0.00370615
0.00529165
0.00329358
0.00584776
0.00334725
0.00563131
0.00613769
0.00663594
0.00686797
0.00659978
0.00451419
0.00371419
0.00360412
0.00732519
0.00678839
0.00715938
0.00500059
0.0033769
0.00316618
0.00326979
0.00614576
0.00531717
0.00644566
0.00438985
0.00683817
0.0048102
0.00545008
0.00422433
0.00841513
0.0031038
0.00584447
0.0101986
0.00923245
0.00498898
0.00309327
0.00658834
0.00444587
0.0071331
0.00721445
0.00320665
0.00400254
0.00549059
0.00570093
0.00936517
0.00391768
0.00581289
0.00585281
0.0045284
0.00364393
0.00633741
0.00543617
0.00615942
0.00418549
0.00904322
0.00319812
0.00473914
0.00504704
0.00704688
0.0034062
0.00450066
0.00368441
0.00283134
0.00856797
0.00352072
0.00335105
0.00656627
0.00418786
0.00523528
0.00448256
0.00566491
0.00381484
0.00697734
0.00470309
0.00465489
0.00463201
0.00606861
0.00424707
0.0048892
0.00573025
0.00533177
0.00441039
0.00658164
0.00451051
0.00739668
0.0075328
0.00336325
0.00751558
0.00394267
0.00413915
0.00606727
0.00497659
0.00590652
0.0087468
0.00880741
0.0068867
0.00621141
0.00616287
0.0034971
0.00666744
0.00343203
0.00477503
0.00581409
0.00708712
0.00571936
0.00906038
0.00404433
0.0029399
0.00285903
0.00517449
0.00846058
0.00642736
0.0041204
0.0087156
0.00695011
0.0063756
0.00359457
0.00386607
0.00738708
0.00741383
0.00579139
0.00638415
0.00857869
0.00657438
0.00465402
0.00425632
0.00870797
0.0032396
0.00317341
0.00851674
0.00318519
0.00777347
0.00343104
0.00450841
0.00704243
0.0057086
0.0110739
0.0030363
0.00667041
0.00679376
0.00518999
0.00364752
0.00573473
0.00331312
0.00309222
0.0074934
0.00469617
0.00314391
0.00740679
0.00688756
0.00459975
0.00923182
0.00590617
0.00556622
0.0067642
0.004035
0.00439022
0.00969023
0.00876878
0.00613395
0.0066511
0.00702788
0.00303997
0.00939874
0.00615238
0.00506362
0.00455478
0.00638734
0.00668011
0.00435643
0.00558962
0.00700076
0.004479
0.0042572
0.00558784
0.00315872
0.00338742
0.00539499
0.00681926
0.00663239
0.00952346
0.00500691
0.00339496
0.00445445
0.00757508
0.00676305
0.00638424
0.00305723
0.00528008
0.00984624
0.00312324
0.00376109
0.00938372
0.00520496
0.00561536
0.00472223
0.00562697
0.00638768
0.00576527
0.00694967
0.00435039
0.00879475
0.00616516
0.00581154
0.00428544
0.00442382
0.00588603
0.00591583
0.00651382
0.0048414
0.00853237
0.00613988
0.00466487
0.00419989
0.00571202
0.00477052
0.00402139
0.00498103
0.00426502
0.00481069
0.00767161
0.00280033
0.00535918
0.00391538
0.00647365
0.0064164
0.00608179
0.00531974
0.00568625
0.00709747
0.00320264
0.00460986
0.00472058
0.00924129
0.00314371
0.00587967
0.00626115
0.00515615
0.00451871
0.00314413
0.0073251
0.00418266
0.00600631
0.00328741
0.00888408
0.00962735
0.00360123
0.00321459
0.00505474
0.00529457
0.00642958
0.00560072
0.00684437
0.0058527
0.00523228
0.0064682
0.0033586
0.00562514
0.00577538
0.0031309
0.00591472
0.00300703
0.00819475
0.00327832
0.00444354
0.00398372
0.00334337
0.00379133
0.00317851
0.00631889
0.00431908
0.00556436
0.00481865
0.00310865
0.00635355
0.00596258
0.0028064
0.00959082
0.00451744
0.00669449
0.003436
0.00491266
0.00418706
0.00389918
0.00260785
0.00617338
0.00903907
0.0109088
0.00696886
0.00621164
0.0051769
0.00584008
0.00605749
0.00729334
0.00278403
0.00645929
0.00357486
0.00344696
0.00344749
0.00721939
0.00581696
0.00959753
0.00583513
0.00640802
0.00959521
0.00477497
0.00397029
0.00581346
0.00564035
0.00650868
0.00342928
0.00320341
0.00491034
0.00547726
0.00445194
0.00525073
0.0076382
0.00370473
0.0050378
0.00356544
0.00705459
0.00299285
0.00309992
0.00504937
0.00548332
0.00546762
0.00335274
0.00317592
0.00371725
0.00335646
0.00428128
0.00332687
0.00322619
0.00678786
0.00443284
0.00405
0.00481389
0.00648897
0.00410877
0.00634611
0.00632165
0.00326822
0.00432102
0.00532013
0.0049563
0.00295492
0.00710662
0.00637288
0.0041729
0.00872408
0.00310197
0.0051893
0.00623489
0.00418886
0.00594803
0.0034062
0.00330648
0.00357034
0.00319153
0.00440705
0.00518893
0.00963106
0.00408204
0.00527227
0.00581496
0.00317432
0.0046498
0.00517828
0.0125165
0.00723447
0.00605965
0.00406033
0.00619374
0.00560929
0.00390742
0.00318538
0.00336883
0.00583619
0.00849406
0.00600932
0.00556798
0.00945917
0.0060637
0.00426824
0.00452816
0.00510055
0.00276075
0.00376231
0.00373199
0.00434837
0.009094
0.00465229
0.00326897
0.0063499
0.00543349
0.00437616
0.00305314
0.0086079
0.0067225
0.002975
0.00458914
0.00354538
0.00502336
0.00365067
0.00651722
0.00725985
0.00317673
0.00842409
0.00513951
0.00410123
0.00848224
0.00464926
0.00539247
0.00437936
0.00503649
0.00663412
0.00694155
0.00684016
0.0038426
0.00533177
0.00378094
0.00486268
0.00463788
0.00301489
0.00349056
0.00436916
0.00327198
0.0071921
0.00296599
0.00641221
0.0049782
0.0034323
0.00595307
0.0107593
0.0035558
0.00337838
0.00517558
0.00725118
0.00291308
0.00997538
0.00338487
0.00354055
0.00637532
0.00584759
0.0027722
0.00498966
0.0084855
0.00697829
0.00567985
0.00320995
0.00722268
0.00438741
0.00517517
0.00411707
0.00438112
0.00695083
0.00426669
0.00598791
0.00560364
0.00415654
0.00381703
0.00337989
0.00912752
0.0053664
0.00969963
0.00601402
0.00321788
0.00511448
0.00402865
0.00757106
0.00605407
0.00542678
0.00319314
0.00430164
0.00336751
0.0066166
0.00480126
0.00324305
0.00378294
0.00313406
0.00720071
0.00449041
0.00859093
0.00407717
0.00724015
0.00328518
0.00896198
0.00529472
0.00459232
0.00459959
0.00293526
0.00419621
0.00478393
0.00293269
0.00491643
0.00580548
0.00680744
0.00947498
0.00522917
0.00742266
0.00590992
0.00307607
0.00494876
0.00613338
0.0045522
0.00617003
0.00584562
0.00648459
0.00354486
0.00940431
0.0090181
0.0061387
0.00888584
0.00525519
0.00647996
0.0062917
0.00416335
0.00367653
0.00627502
0.00732771
0.0049399
0.00483767
0.00435378
0.00665702
0.00532011
0.00273596
0.00411686
0.00416164
0.00609525
0.00699399
0.00497641
0.00488122
0.00536832
0.0034689
0.00356117
0.00592841
0.00579778
0.00252829
0.00349042
0.00491069
0.00683016
0.0058273
0.00313635
0.00272609
0.00416872
0.00481249
0.00585175
0.00646191
0.00672144
0.00306711
0.00386674
0.00672983
0.00913337