/*--------------------------------*- C++ -*----------------------------------*\
| =========                 |                                                 |
| \\      /  F ield         | OpenFOAM: The Open Source CFD Toolbox           |
|  \\    /   O peration     | Version:  2406                                  |
|   \\  /    A nd           | Website:  www.openfoam.com                      |
|    \\/     M anipulation  |                                                 |
\*---------------------------------------------------------------------------*/
FoamFile
{
    version     2.0;
    format      ascii;
    arch        "LSB;label=32;scalar=64";
    class       volVectorField;
    location    "22";
    object      momentum:momentum;
}
// * * * * * * * * * * * * * * * * * * * * * * * * * * * * * * * * * * * * * //

dimensions      [1 1 -1 0 0 0 0];

internalField   nonuniform List<vector> 
59516
(
(2.4846e-07 1.44981e-09 -1.44028e-09)
(1.87261e-07 7.04863e-10 8.21301e-11)
(2.22751e-07 -3.75583e-09 5.85508e-10)
(1.79908e-07 4.01882e-09 1.54955e-09)
(2.00729e-07 7.42612e-10 -7.0976e-09)
(5.03765e-08 -2.43709e-09 -5.37404e-09)
(2.20474e-07 -3.98892e-10 -2.75146e-09)
(2.19886e-07 1.34833e-09 -7.52289e-10)
(1.71654e-07 1.07207e-09 -3.36221e-10)
(1.00789e-07 -1.08689e-09 4.26719e-09)
(1.91897e-07 9.13535e-10 -7.75298e-10)
(1.15882e-07 6.90193e-10 -4.434e-09)
(3.51661e-07 3.27738e-09 8.5287e-10)
(1.9985e-08 -7.06316e-11 -1.81793e-10)
(1.83948e-07 5.66945e-09 7.68985e-09)
(1.03096e-07 6.12255e-09 -4.15399e-09)
(2.36459e-07 3.3449e-10 -2.41371e-10)
(1.64015e-07 8.35946e-09 -6.78878e-09)
(3.40423e-07 9.51932e-09 4.25593e-09)
(3.34451e-07 -2.10993e-09 6.63401e-10)
(1.0939e-07 6.52996e-10 -3.82813e-10)
(3.11937e-07 1.64447e-10 5.33467e-10)
(3.34382e-07 8.15863e-10 3.62148e-10)
(4.42714e-08 -1.27605e-09 -3.72503e-10)
(2.96843e-07 -2.21939e-09 3.51797e-09)
(2.42127e-07 2.97839e-09 3.21826e-09)
(6.62036e-08 1.44126e-09 -3.28237e-09)
(7.85842e-08 6.18109e-09 9.01728e-10)
(1.58679e-07 3.36609e-09 1.66071e-09)
(1.74322e-08 -2.80442e-09 7.95995e-10)
(1.89447e-07 -3.57952e-08 -7.7542e-09)
(8.88865e-08 6.81321e-09 -7.58921e-10)
(1.78823e-07 -2.60562e-10 6.83953e-10)
(1.92137e-07 -6.80308e-10 4.01272e-09)
(1.29571e-07 1.16097e-09 1.14605e-09)
(3.96027e-07 -2.0104e-09 -4.80261e-10)
(1.73397e-08 -1.55038e-09 -2.14163e-09)
(1.35885e-07 4.6365e-09 -1.1221e-08)
(2.87925e-07 -6.19948e-09 -1.11683e-09)
(2.6163e-07 -5.60086e-09 3.47372e-09)
(2.89704e-07 -2.74813e-09 1.83026e-09)
(3.98238e-07 -1.20375e-08 -1.20468e-08)
(3.32848e-07 -1.12567e-11 8.00387e-10)
(1.27183e-07 -9.86188e-10 9.91934e-11)
(2.64817e-07 -1.15676e-09 2.65909e-10)
(1.25753e-07 -2.12371e-09 -2.95313e-09)
(3.28465e-07 -7.20885e-10 -5.60339e-10)
(2.30754e-07 -3.79175e-11 -1.12532e-10)
(2.5168e-07 -1.88857e-08 2.72879e-08)
(2.2511e-07 3.49125e-09 3.08853e-09)
(1.63864e-07 1.60851e-08 -2.25347e-08)
(9.9569e-08 -6.04168e-09 3.54478e-09)
(3.44252e-07 2.76973e-09 -4.99431e-09)
(3.17364e-07 -2.34768e-10 -1.36567e-09)
(9.42748e-08 4.55636e-09 -3.52622e-10)
(2.49748e-07 -8.03131e-11 -8.69229e-10)
(1.93581e-07 7.15279e-09 7.77836e-09)
(1.03183e-07 6.86297e-09 -4.08464e-09)
(1.78733e-07 -2.52513e-09 3.71029e-10)
(1.42807e-07 3.82995e-09 4.27498e-09)
(2.03561e-07 -2.36291e-10 9.80255e-10)
(1.95558e-08 2.03839e-09 -8.6546e-10)
(2.30664e-07 -2.9286e-09 -1.16916e-09)
(2.98598e-07 5.81924e-10 -1.78576e-09)
(3.22495e-07 2.79623e-09 5.51878e-11)
(2.03124e-07 1.79795e-09 1.19652e-09)
(2.42406e-08 -1.53064e-09 2.11643e-09)
(8.25601e-08 3.31904e-10 -2.07149e-10)
(1.97468e-07 -7.16013e-09 3.45369e-08)
(1.69188e-07 1.75357e-09 1.86864e-09)
(6.56322e-08 1.62193e-09 3.25407e-10)
(1.4049e-07 4.733e-10 -8.44861e-10)
(3.04173e-08 1.99719e-09 -4.4395e-09)
(1.81652e-07 -5.7172e-10 -1.17438e-09)
(3.12879e-07 -2.71637e-09 8.39247e-10)
(3.36395e-07 1.36448e-09 1.25259e-09)
(1.93638e-07 9.89421e-10 2.51283e-11)
(2.18774e-07 1.25423e-09 -1.17831e-09)
(1.04699e-07 -3.31898e-09 2.70962e-09)
(1.78624e-07 1.93512e-09 2.65635e-09)
(6.77397e-08 2.4491e-09 3.60274e-10)
(1.61483e-07 2.05301e-09 1.64543e-09)
(1.77036e-07 9.8282e-10 1.87414e-09)
(2.38937e-08 -9.66839e-10 3.26965e-09)
(2.03169e-07 2.03319e-09 2.05745e-09)
(3.22225e-07 -2.08006e-09 -1.83186e-10)
(4.00372e-08 -1.51442e-09 6.3834e-10)
(4.86039e-07 -1.51055e-09 2.29071e-09)
(1.34919e-07 2.03405e-09 5.29155e-09)
(1.69235e-07 1.10407e-08 -6.50356e-09)
(1.81294e-07 -4.20661e-10 -1.20307e-08)
(1.82423e-07 6.50982e-10 9.96411e-11)
(2.22072e-07 8.784e-11 9.52707e-10)
(1.7768e-07 -2.16344e-10 -5.84748e-10)
(1.60501e-07 -1.51787e-09 1.2662e-10)
(1.8377e-07 -1.63401e-08 6.85105e-09)
(1.22906e-07 -7.67474e-10 1.66957e-09)
(1.0138e-07 -3.04656e-09 -6.96471e-09)
(1.2386e-07 3.18087e-09 7.89155e-11)
(2.00271e-07 -1.43195e-10 2.09875e-09)
(7.91316e-08 2.18332e-09 2.66639e-09)
(3.4672e-08 1.59914e-09 -3.9917e-09)
(2.96993e-08 1.31126e-09 4.13886e-09)
(1.0473e-07 -1.97052e-09 -4.34318e-09)
(2.39721e-07 1.07025e-09 -3.28686e-10)
(1.53705e-07 4.44321e-10 9.04619e-10)
(7.18062e-08 5.4617e-09 -2.13548e-09)
(1.53824e-07 3.8761e-10 -9.42201e-10)
(1.95931e-07 -9.77365e-10 -1.56414e-09)
(2.25329e-07 1.46453e-09 -9.53134e-09)
(2.79903e-07 2.55614e-08 -2.63439e-08)
(5.71489e-08 5.39117e-09 -2.25192e-10)
(2.21236e-07 1.53641e-09 -1.07418e-08)
(2.19345e-07 2.92554e-08 -1.44404e-08)
(2.02694e-07 -7.5814e-10 1.46835e-09)
(1.54699e-07 1.39732e-09 3.86274e-10)
(1.54772e-07 1.24958e-09 -6.15717e-09)
(1.44948e-07 5.12056e-10 8.67303e-10)
(2.27312e-08 9.90902e-11 1.10837e-09)
(2.54775e-07 3.62747e-09 4.23324e-10)
(3.35283e-07 6.59054e-10 7.36005e-12)
(1.54531e-07 1.34732e-09 1.6721e-10)
(1.50769e-07 6.61362e-11 -2.15426e-10)
(1.59899e-07 5.74397e-10 2.82816e-10)
(1.32452e-07 -1.41171e-08 2.53344e-09)
(1.52139e-07 1.21753e-09 -1.07059e-09)
(4.42467e-08 -7.60912e-10 3.25459e-09)
(2.10555e-07 -1.34264e-08 -8.17923e-10)
(1.63605e-07 -4.58709e-09 2.35154e-08)
(1.32031e-07 3.69032e-10 9.36306e-10)
(2.31323e-07 6.89227e-10 2.79295e-09)
(3.58107e-07 3.7282e-09 7.04085e-09)
(2.84991e-08 1.26064e-09 -2.07858e-09)
(2.48314e-07 -5.19764e-10 1.54423e-09)
(3.47969e-07 2.1986e-09 1.49812e-09)
(2.15469e-07 -2.3902e-09 -2.29368e-09)
(1.5279e-07 1.64659e-08 -1.13849e-08)
(3.27479e-07 -1.71127e-09 1.48363e-09)
(6.65025e-08 4.30501e-09 9.87752e-11)
(1.75891e-07 2.03151e-09 -2.47629e-09)
(9.71717e-08 -1.69172e-09 -4.64112e-09)
(2.72305e-07 7.19133e-10 -1.07721e-09)
(1.73463e-08 8.74491e-10 1.65692e-09)
(1.58173e-07 -1.44796e-09 -9.51802e-10)
(1.79491e-07 5.20321e-10 1.23705e-10)
(2.75568e-07 3.30797e-09 -3.03582e-10)
(2.03356e-07 -1.38784e-09 4.70768e-10)
(2.17718e-07 3.89792e-10 -2.63452e-09)
(6.42048e-08 -1.12112e-09 1.89408e-09)
(2.25109e-07 -4.12062e-10 -2.00531e-09)
(3.51516e-07 -1.4961e-09 -2.47472e-09)
(6.94203e-08 -2.63794e-09 2.18227e-10)
(3.45758e-07 -6.86567e-10 2.38812e-09)
(2.08718e-07 -4.8807e-12 2.23975e-09)
(1.78113e-07 -1.59337e-09 2.67417e-09)
(1.92779e-08 -6.82232e-10 2.11723e-09)
(3.07563e-07 1.64248e-09 -1.29948e-09)
(3.53228e-07 2.39937e-09 -1.09163e-09)
(1.45021e-07 2.07021e-09 -9.80138e-11)
(2.02472e-08 2.16835e-09 -2.91212e-09)
(1.02871e-07 2.51272e-09 -4.34115e-09)
(1.2901e-07 -6.15356e-09 -3.46393e-09)
(5.01804e-08 -2.99752e-09 5.0981e-10)
(2.96697e-08 -1.90031e-10 -5.47734e-10)
(1.8387e-07 1.77948e-09 3.15691e-09)
(2.88965e-07 4.56299e-10 1.84323e-09)
(1.8979e-07 -6.15784e-10 1.76046e-09)
(2.35074e-07 8.99803e-10 5.51333e-10)
(2.11732e-08 -1.11117e-09 2.63322e-09)
(2.09646e-07 -1.80451e-10 1.18802e-09)
(9.85216e-08 1.57079e-09 1.18723e-09)
(8.03307e-08 1.10475e-09 -7.24571e-10)
(1.26763e-07 3.83318e-09 1.88995e-09)
(1.50921e-07 -1.02278e-09 1.02952e-09)
(1.03724e-07 -2.06195e-09 5.4112e-10)
(4.54411e-07 2.0601e-09 -2.34731e-09)
(2.16253e-07 3.22883e-10 -1.30537e-09)
(3.0156e-07 -1.3282e-09 -6.80435e-10)
(1.78876e-07 -3.38135e-09 1.03093e-08)
(7.686e-08 -7.06694e-10 2.4152e-11)
(2.98711e-07 3.2353e-09 2.94177e-09)
(5.41377e-08 -4.30221e-09 -1.65704e-09)
(3.81815e-08 -3.17018e-10 -2.82507e-09)
(1.24752e-07 -3.53999e-09 -5.41345e-10)
(1.71305e-07 1.1927e-10 1.68025e-09)
(1.17343e-07 5.35176e-10 1.22708e-09)
(5.77086e-08 -1.17929e-09 -3.90318e-09)
(2.664e-08 -1.8251e-10 4.27014e-10)
(2.00557e-07 5.29384e-10 1.43935e-09)
(2.52238e-07 -2.11953e-09 5.95644e-10)
(1.60343e-07 -1.2131e-09 3.09411e-09)
(1.41788e-07 7.21711e-09 9.3207e-10)
(1.93618e-07 -5.26791e-10 -2.04161e-10)
(1.13505e-07 5.02329e-09 -8.15263e-10)
(3.20075e-07 -2.19666e-09 -4.28852e-10)
(3.58723e-08 -2.68472e-10 9.03957e-10)
(1.17766e-07 1.44849e-09 -1.10591e-09)
(7.1843e-08 -1.17979e-09 4.03249e-10)
(2.05113e-07 4.85803e-09 5.11629e-09)
(2.49473e-07 -7.5755e-10 1.78108e-09)
(9.20254e-08 -2.50177e-09 5.95511e-10)
(1.58246e-07 4.08667e-10 -8.40964e-10)
(3.48637e-07 -7.8595e-10 2.10796e-09)
(2.02002e-08 2.43382e-09 -1.24168e-09)
(2.34868e-07 -3.42121e-09 -1.09612e-09)
(2.3521e-07 -3.46137e-10 -5.07268e-10)
(2.89113e-07 -6.03598e-10 2.9098e-10)
(1.82232e-07 1.05232e-09 7.15257e-11)
(2.26981e-08 -5.21925e-10 1.98332e-10)
(3.26819e-07 -4.42942e-09 -3.44059e-10)
(7.53892e-08 4.61087e-09 3.40643e-09)
(2.77843e-08 -4.6327e-09 -6.67301e-10)
(2.30495e-07 7.00141e-10 -1.89897e-09)
(1.15582e-07 -1.8095e-09 2.47215e-09)
(3.17794e-07 1.35799e-09 -1.47348e-09)
(2.54603e-07 -1.97319e-09 1.41657e-09)
(2.66349e-07 2.13233e-09 4.4401e-10)
(1.97171e-07 -8.54748e-10 4.37425e-10)
(1.0074e-07 4.07692e-09 -3.89545e-09)
(2.06517e-07 -1.28615e-09 -2.31322e-10)
(1.44732e-07 6.90416e-09 3.52617e-09)
(2.06871e-07 2.66699e-09 -5.84395e-11)
(1.59048e-07 9.34727e-10 1.63795e-09)
(9.7297e-08 5.55807e-10 2.62773e-09)
(2.56697e-07 -3.07509e-09 1.69263e-09)
(2.70461e-07 7.27798e-10 -1.43702e-09)
(3.93903e-08 -5.27229e-10 2.33454e-09)
(8.03464e-08 2.73524e-09 -3.42009e-09)
(1.72717e-07 -1.38486e-09 2.05351e-09)
(1.45739e-07 3.60949e-10 -8.80282e-09)
(2.13012e-07 -1.95871e-09 1.87049e-10)
(1.56049e-07 1.11381e-09 -9.5141e-10)
(2.6084e-07 2.05577e-10 3.14663e-09)
(3.41025e-08 -2.72601e-09 -1.78623e-09)
(3.94073e-08 1.28013e-09 -1.87159e-09)
(4.86831e-08 1.76378e-09 -1.77277e-09)
(1.29685e-07 6.17076e-10 2.09485e-09)
(1.97735e-07 -3.64944e-09 1.7386e-09)
(3.85604e-07 -2.82323e-11 5.00455e-09)
(1.06097e-07 -1.24771e-09 1.95131e-09)
(2.04773e-07 2.07417e-10 2.14729e-09)
(2.38278e-08 8.35566e-10 3.31704e-09)
(1.32203e-07 -5.93472e-10 7.08924e-10)
(3.53125e-08 4.1982e-10 3.72664e-09)
(1.35751e-07 3.66697e-10 9.84248e-10)
(1.7388e-07 -8.02918e-10 -1.09467e-09)
(1.88338e-07 -6.21441e-10 7.50397e-10)
(2.24127e-07 -1.11739e-09 -2.52396e-09)
(2.48741e-07 -1.02014e-09 1.55268e-09)
(2.17558e-07 3.43404e-10 4.48035e-10)
(3.48507e-07 -5.92499e-09 5.48067e-09)
(2.09317e-07 -6.06303e-10 1.80425e-09)
(1.56155e-07 2.6873e-10 1.63767e-09)
(2.74307e-07 1.32346e-09 -3.65085e-10)
(2.70214e-07 1.23059e-09 6.26878e-10)
(2.7668e-07 2.97433e-10 9.16905e-10)
(1.35198e-07 6.43642e-10 7.27441e-11)
(2.65381e-07 -5.52929e-10 3.11085e-09)
(1.00693e-07 -6.89168e-10 -5.66269e-09)
(1.14658e-07 1.61681e-09 3.25075e-09)
(2.27101e-07 1.23513e-09 -2.12212e-10)
(2.36944e-07 -2.91426e-09 1.40586e-09)
(2.56018e-07 2.30629e-09 3.65884e-09)
(2.43937e-07 -2.59771e-09 2.17155e-09)
(8.27922e-08 -1.97072e-10 1.68601e-09)
(1.31295e-07 5.15814e-09 -2.2305e-09)
(2.82623e-07 2.91135e-09 -1.89202e-09)
(2.47422e-07 3.0513e-09 1.49482e-09)
(7.43574e-08 -1.24125e-09 -2.31243e-09)
(9.06535e-08 -3.9649e-10 -2.54164e-09)
(1.81675e-07 1.17752e-09 -3.93932e-09)
(1.61166e-07 -1.05052e-09 -6.20286e-10)
(3.52566e-07 -5.38366e-09 2.30703e-10)
(1.72147e-07 -1.12737e-09 1.93356e-09)
(2.99274e-07 -4.35662e-09 1.16038e-09)
(2.15348e-07 -4.92386e-10 5.77093e-09)
(2.47232e-08 2.89391e-09 -1.8701e-09)
(2.74067e-07 -2.8339e-09 1.96336e-09)
(3.56626e-08 2.51675e-09 -3.0115e-09)
(6.58933e-08 -2.30046e-09 1.27408e-09)
(2.90215e-07 -8.61115e-10 3.21686e-09)
(2.50241e-07 -1.66495e-09 9.39832e-10)
(3.46576e-08 3.02555e-09 4.09653e-09)
(3.18302e-07 1.00681e-09 -2.52627e-09)
(2.62664e-07 2.46752e-09 -7.04663e-10)
(2.19718e-07 1.06253e-09 -8.06373e-10)
(2.67775e-07 -4.26445e-10 1.18206e-09)
(3.03363e-08 3.51441e-09 1.05414e-09)
(2.31092e-07 -2.35353e-09 2.43046e-09)
(1.19545e-07 -1.77967e-09 -2.08486e-10)
(1.36029e-07 -2.59996e-10 1.54126e-09)
(2.53831e-07 -4.0512e-10 3.35577e-09)
(1.65819e-07 6.16711e-10 1.16615e-09)
(1.99146e-07 9.3996e-10 -3.63674e-10)
(2.36136e-07 1.68783e-10 5.00846e-10)
(4.87706e-08 -1.96002e-09 -2.10213e-09)
(2.54839e-07 -4.27152e-09 -2.81454e-10)
(1.93394e-07 -2.28323e-09 -1.48843e-09)
(2.96608e-07 -3.21073e-09 2.07232e-09)
(2.291e-07 -3.46854e-09 -3.55844e-10)
(3.33901e-07 -2.80965e-09 -1.35404e-09)
(1.67871e-07 8.04218e-10 2.38177e-09)
(2.49327e-08 -1.32456e-10 1.92085e-09)
(4.41499e-08 -1.53876e-09 9.09719e-10)
(4.74166e-07 -6.22225e-09 9.67978e-10)
(2.35352e-08 -1.70471e-09 3.11575e-09)
(2.04305e-07 -4.67626e-10 -3.67906e-09)
(8.67412e-08 4.53833e-09 1.0418e-09)
(2.79933e-07 -3.22882e-09 6.85651e-11)
(3.2963e-07 7.53031e-10 -1.09089e-09)
(3.05494e-07 -2.22307e-09 2.87889e-10)
(1.44621e-07 -1.31834e-09 -3.16614e-09)
(3.25602e-07 1.77967e-09 -5.30771e-09)
(8.36292e-08 -6.35802e-09 5.38249e-09)
(9.80444e-08 1.43102e-09 4.12274e-09)
(1.79795e-07 -2.29208e-09 -5.47804e-10)
(1.74548e-07 2.90757e-09 -1.31417e-09)
(2.6931e-07 2.97781e-08 9.33256e-09)
(2.12484e-07 -3.946e-09 1.71879e-09)
(8.05463e-08 -4.48585e-10 -6.60477e-10)
(1.21361e-07 -1.52913e-09 3.00112e-09)
(2.23873e-07 -7.51201e-11 -2.39588e-09)
(1.84859e-07 2.7643e-10 -9.55539e-11)
(3.48602e-07 2.5624e-09 4.37532e-10)
(1.84883e-07 3.472e-10 2.01077e-09)
(4.5121e-07 -7.011e-09 9.56997e-10)
(1.72213e-07 4.50312e-09 5.59379e-09)
(3.43978e-07 3.50706e-09 7.96489e-11)
(2.40575e-07 1.46879e-09 -9.00981e-10)
(1.79583e-07 4.52683e-10 3.33042e-10)
(3.0807e-07 -1.12827e-09 1.06458e-09)
(1.19666e-07 3.18014e-09 -6.84016e-09)
(2.8569e-08 -2.14574e-09 -3.62533e-09)
(2.79279e-07 -2.76235e-10 1.18022e-09)
(7.17705e-08 -2.90317e-09 3.334e-09)
(3.47068e-08 4.52227e-10 -3.17712e-10)
(3.53646e-07 -1.07177e-09 4.55903e-09)
(1.95266e-07 -3.15634e-10 1.07179e-09)
(1.14629e-07 -2.83898e-09 -2.97433e-09)
(2.16953e-07 -4.1545e-10 1.52677e-09)
(2.94742e-07 -2.30504e-09 7.12002e-10)
(3.4958e-07 -4.93139e-10 -2.61842e-09)
(2.30519e-07 1.13371e-09 -4.14026e-10)
(3.89511e-08 1.1553e-09 -6.32035e-11)
(2.98055e-07 6.01306e-10 -1.77593e-09)
(1.82065e-07 -1.15182e-09 5.96777e-10)
(1.18939e-07 -4.62967e-10 1.86955e-09)
(2.42062e-07 -9.53703e-10 2.81385e-09)
(2.12586e-07 7.79714e-10 3.05749e-10)
(1.77149e-07 -3.4796e-10 -1.16551e-09)
(2.06468e-07 -5.31595e-11 9.04428e-11)
(2.5653e-07 -6.33223e-11 1.81537e-09)
(1.99071e-07 -1.90433e-09 -5.84961e-11)
(9.1331e-08 -7.4e-10 -4.50793e-10)
(2.47574e-08 8.21528e-10 -7.14023e-10)
(4.93505e-08 -3.37656e-09 -8.73769e-10)
(2.50533e-07 1.41735e-09 2.77445e-09)
(2.69807e-07 -1.83461e-08 3.17632e-08)
(1.16335e-07 -6.2508e-09 -9.10175e-09)
(1.27504e-07 4.11464e-10 -6.83238e-10)
(2.68619e-07 2.86155e-10 4.06554e-09)
(3.12169e-07 9.0361e-10 -5.78945e-10)
(2.07398e-07 7.87386e-10 1.88269e-09)
(3.42617e-07 1.37322e-09 1.11345e-09)
(3.52356e-07 -2.00854e-09 2.57162e-11)
(2.12408e-07 9.74787e-10 5.22723e-10)
(1.30217e-07 9.9945e-10 2.42042e-10)
(2.86111e-08 -4.15178e-10 -3.61579e-10)
(2.40924e-07 -4.57796e-08 5.99139e-09)
(1.02199e-07 3.06673e-09 1.61175e-09)
(7.97501e-08 -3.10475e-09 -1.3982e-09)
(8.53145e-08 4.62126e-10 5.11128e-10)
(1.57321e-07 7.93152e-10 7.11474e-10)
(1.94701e-07 1.75456e-10 1.03471e-09)
(2.18348e-07 9.30485e-10 -3.59735e-10)
(2.06095e-08 1.3446e-09 -1.94955e-09)
(1.74307e-07 -2.02653e-10 3.10941e-10)
(7.85163e-08 1.83602e-09 -5.59326e-10)
(1.66711e-07 -1.29954e-09 -2.90395e-10)
(6.60545e-08 -1.19594e-09 -5.30997e-10)
(1.68688e-07 -3.17624e-09 4.15519e-09)
(2.47739e-07 -3.67595e-09 2.08168e-09)
(1.7105e-07 6.84768e-10 1.5154e-09)
(2.45349e-08 2.17735e-09 -2.64484e-09)
(1.34195e-07 -6.13078e-10 6.88627e-09)
(2.397e-07 9.05083e-10 8.16729e-10)
(3.25151e-08 -1.90508e-09 -1.81406e-09)
(2.87484e-07 2.37355e-09 1.02295e-08)
(1.92302e-07 -3.91946e-10 2.72817e-09)
(3.12322e-07 2.25336e-09 -1.3269e-09)
(2.25883e-07 4.88296e-09 -2.95672e-09)
(1.06131e-07 -1.19711e-09 2.20764e-09)
(3.66033e-07 4.73606e-09 -9.98581e-10)
(1.43055e-07 -1.35881e-08 -1.31914e-08)
(2.71582e-07 3.27296e-09 1.13377e-09)
(1.55749e-07 9.96355e-09 1.11909e-08)
(1.71596e-07 -5.84198e-09 1.95897e-09)
(1.71995e-07 -4.47582e-12 -2.31049e-09)
(2.29293e-07 1.03221e-09 6.66015e-10)
(4.63843e-07 4.62137e-09 1.32062e-09)
(9.42088e-08 -6.96138e-10 3.95791e-10)
(3.50678e-07 5.73446e-10 -7.69667e-10)
(1.33818e-07 -1.12621e-09 -2.42338e-09)
(3.64965e-07 -1.94362e-09 1.54404e-09)
(2.77924e-07 -1.17486e-09 1.98034e-09)
(8.76729e-08 2.1501e-09 -5.3267e-09)
(2.23524e-07 -1.11939e-09 -5.45052e-10)
(3.75111e-07 -2.27808e-09 1.20237e-09)
(2.22347e-07 -3.8998e-10 -3.60872e-10)
(2.08839e-07 -6.11845e-10 -1.40534e-10)
(3.09228e-08 -7.23317e-10 -3.52042e-09)
(2.49185e-08 9.71012e-10 -3.2173e-09)
(3.04971e-07 1.03799e-09 -3.47224e-09)
(2.43409e-07 9.36093e-10 -7.19274e-11)
(1.83829e-07 -8.3643e-10 -1.60609e-09)
(4.52741e-08 7.47098e-10 -2.81088e-09)
(7.6894e-08 -1.86048e-10 7.63996e-11)
(3.39043e-07 -3.33387e-09 1.88843e-09)
(1.39361e-07 1.16641e-09 6.87592e-10)
(2.66203e-07 2.71861e-09 -5.85965e-11)
(2.3724e-07 4.60841e-10 -5.38097e-11)
(1.89049e-07 1.90667e-09 1.37577e-09)
(2.03717e-07 2.28875e-09 1.43684e-09)
(1.38742e-07 3.04731e-12 -5.92403e-10)
(1.77148e-07 2.18973e-09 3.95053e-10)
(1.04612e-07 -1.44682e-09 -4.66473e-09)
(2.54753e-07 -2.6853e-09 -8.71777e-11)
(2.09774e-07 -7.69525e-11 -2.64272e-09)
(1.98029e-07 1.87368e-09 -1.5287e-10)
(1.87728e-07 8.03979e-10 -1.00738e-10)
(3.40424e-07 2.46281e-10 -1.33367e-09)
(2.58566e-07 3.13418e-09 5.02207e-10)
(8.2444e-08 4.89783e-09 3.58575e-09)
(5.69213e-08 1.1274e-09 9.89857e-10)
(2.42128e-08 2.10764e-09 -2.66378e-09)
(2.13204e-07 3.32406e-09 4.65654e-09)
(2.42079e-07 -9.92461e-11 -2.36999e-10)
(2.6541e-07 -6.20621e-10 1.40186e-10)
(2.02233e-07 3.36859e-09 1.4548e-09)
(3.79347e-08 -3.51122e-11 1.12163e-09)
(2.78647e-08 -6.91979e-10 2.99666e-09)
(1.97085e-07 8.24237e-10 2.29167e-09)
(2.14635e-07 -2.71007e-10 1.1858e-09)
(2.63466e-07 1.23381e-09 1.33604e-09)
(3.06814e-07 2.01431e-09 -1.02207e-09)
(2.04697e-07 -1.63666e-11 -2.39713e-09)
(2.7887e-07 2.51357e-09 -3.48973e-10)
(3.8596e-07 3.54004e-09 -1.00347e-09)
(3.94202e-08 -8.82185e-10 4.07852e-09)
(1.94417e-07 -1.61743e-09 3.48109e-10)
(8.82926e-08 8.85133e-10 4.00387e-09)
(9.82735e-08 -9.50014e-09 2.00025e-09)
(1.19588e-07 -6.22802e-11 -6.01516e-10)
(1.6654e-07 -2.87638e-10 4.618e-10)
(2.45622e-07 1.60178e-09 -9.37678e-10)
(2.4522e-08 -4.30301e-09 -2.02735e-09)
(3.02234e-07 4.10278e-09 5.44893e-10)
(2.23493e-07 -3.06818e-10 -3.62989e-10)
(1.78197e-07 1.66513e-09 4.68126e-10)
(2.358e-07 2.56185e-09 1.33062e-09)
(1.57988e-07 3.63391e-10 4.33591e-10)
(2.21973e-07 1.91554e-09 6.94698e-10)
(2.58296e-07 3.18573e-10 -3.97957e-10)
(2.45639e-07 3.59258e-10 7.77071e-10)
(1.76404e-07 5.14671e-09 -2.41758e-09)
(2.33774e-07 -1.53359e-09 2.69747e-10)
(2.82237e-07 -3.64763e-09 -4.97576e-10)
(2.36342e-08 -1.78973e-09 1.5081e-09)
(2.56604e-07 -8.08161e-10 -2.50354e-09)
(2.02887e-07 1.60088e-09 -7.23567e-10)
(8.15887e-08 -2.35407e-09 5.84695e-09)
(1.97519e-07 1.29016e-09 -3.369e-09)
(3.03847e-07 1.83669e-10 -2.5175e-09)
(2.3547e-07 -1.56524e-10 1.73138e-10)
(1.38452e-07 -9.83897e-11 -3.3466e-09)
(2.32675e-08 -1.66553e-09 -2.38914e-09)
(2.2042e-07 -8.47383e-10 -9.24559e-10)
(3.54975e-07 4.69485e-09 -2.72093e-09)
(2.1851e-07 -4.29007e-10 1.3656e-10)
(1.98647e-07 9.17875e-10 1.02974e-09)
(7.26322e-08 3.26584e-09 2.89043e-09)
(2.48964e-07 7.05206e-10 -1.24155e-09)
(2.92089e-08 2.754e-09 -3.3638e-09)
(1.55848e-07 4.61636e-10 -4.78697e-11)
(2.08616e-07 2.29904e-08 -7.28415e-09)
(2.22907e-07 8.18423e-10 -3.49802e-10)
(1.06534e-07 -5.61706e-10 3.57556e-09)
(2.03841e-07 -1.46997e-09 -3.34836e-09)
(1.31199e-07 1.01428e-09 -2.46393e-09)
(5.89864e-08 4.1796e-09 2.8583e-09)
(3.74708e-07 1.68283e-09 3.94285e-10)
(1.76888e-07 2.02471e-09 1.27469e-11)
(2.29121e-08 1.0025e-09 2.34849e-09)
(2.48472e-07 -3.00341e-09 -2.16229e-10)
(2.26187e-07 -3.48461e-09 6.25957e-10)
(4.85241e-08 -2.02262e-10 -2.14406e-09)
(1.52898e-07 6.8964e-09 2.726e-10)
(1.21395e-07 2.80716e-09 2.81931e-09)
(1.7676e-07 1.33417e-09 5.72771e-10)
(2.12901e-07 -2.72513e-09 3.66945e-10)
(3.76382e-08 -7.74788e-10 1.72865e-09)
(1.12918e-07 -2.85122e-09 -1.44944e-09)
(1.2459e-07 3.20071e-09 -8.29694e-11)
(1.8934e-07 3.20613e-09 1.2332e-09)
(2.73291e-07 -3.62859e-09 7.41714e-10)
(2.95233e-08 1.235e-09 -4.04846e-09)
(3.41267e-07 -3.92642e-09 9.93103e-10)
(2.24581e-07 1.52642e-09 -1.10965e-09)
(2.25715e-07 1.84053e-09 9.26218e-10)
(1.14207e-07 4.93756e-09 -4.70299e-09)
(2.98532e-07 2.03787e-09 2.05114e-10)
(2.94038e-08 -1.85766e-10 -3.22713e-09)
(2.66301e-07 -2.12421e-09 -2.97586e-10)
(3.41895e-08 -6.84755e-10 -6.91307e-11)
(1.54036e-07 -6.13562e-09 -5.7938e-10)
(2.12957e-07 1.24344e-10 5.06145e-10)
(1.63429e-07 -5.44284e-09 -9.5429e-10)
(2.44374e-08 3.11498e-09 2.87303e-09)
(6.33269e-08 1.30195e-09 -2.74829e-09)
(9.37418e-08 -5.6146e-09 2.78393e-09)
(1.57845e-07 3.78274e-09 -3.97423e-09)
(3.16932e-07 -1.24395e-09 -1.60486e-09)
(6.95641e-08 -1.59688e-09 -2.68976e-10)
(1.67037e-07 4.55533e-09 -3.17028e-09)
(2.24374e-07 -9.39092e-09 -2.05148e-08)
(1.8263e-07 2.13361e-09 -6.28156e-11)
(3.61099e-08 2.31769e-09 1.29816e-11)
(2.5099e-07 -9.04958e-10 -2.08704e-09)
(1.48833e-07 1.48869e-08 -4.91967e-09)
(1.7479e-07 -2.06595e-09 -8.07287e-10)
(1.17204e-07 4.25772e-12 -2.59402e-09)
(1.53068e-07 2.02021e-09 -1.1056e-10)
(1.28904e-07 -6.34642e-09 -2.85265e-09)
(1.68018e-07 3.89621e-10 1.15153e-09)
(1.35224e-07 1.19794e-09 -3.33011e-10)
(8.81588e-08 4.90656e-09 -7.46489e-09)
(2.55075e-07 3.56368e-10 -2.11586e-10)
(7.24003e-08 2.75557e-09 3.58332e-09)
(1.99514e-08 3.00782e-09 1.2689e-09)
(3.065e-07 3.77791e-10 8.61889e-10)
(1.5668e-07 1.62336e-09 1.99291e-10)
(3.00272e-07 1.455e-09 9.7567e-10)
(2.38929e-07 4.19574e-09 -1.58533e-09)
(3.88689e-07 -5.21676e-09 2.07268e-10)
(1.61833e-07 3.56172e-09 -2.1028e-09)
(3.63572e-07 -4.54592e-09 -7.45223e-10)
(1.13644e-07 -2.88216e-09 4.84256e-09)
(1.29982e-07 1.11244e-09 -4.98689e-10)
(3.21229e-07 -3.80085e-09 -3.11045e-09)
(4.1379e-08 1.12564e-09 -5.93453e-09)
(2.90986e-07 -1.32903e-09 -1.32861e-09)
(1.41898e-07 5.3016e-10 4.98312e-09)
(3.81665e-08 -3.07859e-09 -2.81899e-09)
(2.74818e-07 6.50354e-10 -3.07925e-10)
(7.63142e-08 -1.81385e-09 1.42746e-09)
(2.01031e-07 3.4548e-10 -2.73173e-11)
(1.82375e-07 5.52851e-10 2.44501e-10)
(3.78137e-07 5.02905e-09 4.14222e-09)
(1.18431e-07 -4.69873e-09 -5.3821e-09)
(2.46302e-07 1.55289e-09 1.07386e-10)
(1.73786e-07 -1.38487e-09 1.94224e-09)
(2.65325e-07 -5.02411e-10 1.57269e-09)
(2.7232e-07 1.35027e-09 -1.55654e-09)
(2.38931e-07 1.93783e-09 4.64887e-10)
(1.40208e-07 1.30935e-09 1.1635e-10)
(6.04687e-08 -3.39354e-09 -2.16003e-09)
(8.42776e-08 2.16757e-10 -1.55223e-09)
(1.52345e-07 1.34854e-09 -2.1917e-10)
(2.62845e-07 1.93604e-09 4.63736e-10)
(3.62793e-08 -2.49391e-09 -1.27275e-09)
(2.23497e-07 1.03548e-09 -8.8571e-10)
(4.09506e-07 -6.79415e-10 2.0979e-09)
(3.0399e-07 -3.60402e-09 -8.59997e-10)
(3.18121e-07 -3.83925e-09 -1.18758e-09)
(2.69335e-07 -1.40348e-10 -2.05443e-09)
(2.49659e-08 2.24101e-09 2.42115e-09)
(1.99197e-07 5.75541e-11 5.53277e-10)
(1.61706e-07 -2.20979e-09 -3.43097e-09)
(2.45827e-07 -1.70737e-09 -3.76102e-11)
(1.81823e-07 -2.06599e-10 -4.91886e-10)
(4.59868e-08 3.64067e-09 -1.01654e-09)
(1.7461e-07 1.75789e-09 -3.60983e-10)
(1.6986e-07 2.47081e-09 1.6131e-09)
(2.54242e-07 -1.56108e-09 -1.08927e-09)
(2.2526e-07 -3.28596e-09 -7.13401e-10)
(1.97505e-07 -1.55544e-09 -3.49591e-10)
(1.71062e-08 1.37066e-09 -2.19198e-09)
(2.57827e-08 -1.61205e-09 -2.70862e-09)
(1.56187e-07 -2.4185e-09 -5.36353e-10)
(2.65864e-07 8.71404e-10 6.13035e-11)
(1.90088e-07 1.59324e-09 7.52739e-10)
(1.70539e-07 1.08631e-09 6.2933e-10)
(1.8139e-07 -1.96337e-09 1.01411e-09)
(2.45496e-07 -2.39975e-09 -7.29861e-10)
(2.49411e-07 9.63724e-10 -9.67156e-10)
(2.51851e-08 1.91998e-09 4.84888e-10)
(1.23e-07 -2.01075e-09 -3.49652e-10)
(1.73454e-07 -1.34718e-08 -1.15088e-10)
(6.06236e-08 -9.52346e-10 3.01921e-09)
(1.0162e-07 -6.67723e-09 1.38593e-09)
(3.07116e-07 -2.51153e-09 -2.04527e-09)
(2.13566e-07 -2.24291e-09 -5.13568e-10)
(2.00815e-07 1.18718e-09 -1.68071e-09)
(2.53227e-07 -1.14312e-09 -1.69102e-10)
(1.55559e-07 -4.27095e-09 1.12835e-09)
(2.79527e-07 1.84394e-10 -1.04428e-09)
(2.03782e-07 3.12003e-09 -4.89839e-09)
(3.76949e-07 4.62494e-09 -2.75067e-11)
(1.89669e-07 -1.52511e-09 -1.03311e-09)
(2.0016e-07 -2.95537e-09 3.01409e-09)
(2.69238e-07 -3.18612e-09 -9.95757e-10)
(5.93978e-08 -1.60996e-09 3.31206e-09)
(4.97976e-07 -2.98933e-09 -9.24777e-10)
(4.26261e-08 1.04755e-09 -1.4869e-09)
(1.49272e-07 -1.40898e-08 8.46344e-09)
(1.37936e-07 3.26374e-09 4.12706e-09)
(1.60526e-07 -2.31612e-09 -1.35137e-08)
(2.21994e-07 -1.36035e-09 8.41217e-10)
(2.91282e-07 -4.3577e-08 -9.68393e-09)
(1.20978e-07 -1.12763e-10 8.34551e-11)
(2.85713e-07 4.61453e-10 2.13706e-10)
(3.16294e-07 1.39684e-09 -8.15174e-10)
(1.8702e-07 -1.29468e-10 1.96047e-09)
(4.52161e-08 2.36295e-10 -5.26633e-10)
(1.18503e-07 -4.46288e-09 -2.95716e-09)
(2.09994e-07 -3.74982e-09 -2.87204e-08)
(1.84092e-07 2.50123e-10 5.49539e-10)
(1.09518e-07 -2.42157e-09 3.35555e-11)
(2.16126e-07 -1.50247e-08 -5.45192e-09)
(2.18494e-07 -7.8518e-11 2.5151e-09)
(3.41849e-07 3.14704e-09 6.53337e-10)
(5.62898e-08 -1.32705e-09 1.59248e-09)
(6.47262e-08 -2.27711e-09 2.30628e-09)
(3.54012e-08 -3.28655e-10 -2.13248e-10)
(2.50758e-08 -4.52058e-12 -1.98331e-09)
(5.56621e-08 -7.41973e-10 1.64887e-10)
(2.23404e-07 -6.35233e-09 5.97872e-09)
(1.81918e-07 4.87472e-10 3.08626e-10)
(2.41399e-08 -4.86829e-10 3.5033e-09)
(2.59667e-08 2.02157e-09 3.16033e-09)
(2.93743e-07 3.19087e-09 -3.37657e-10)
(1.67055e-07 -2.0987e-08 1.43125e-08)
(5.78509e-08 2.12115e-09 1.15394e-09)
(2.22093e-07 9.7134e-10 -1.50443e-10)
(1.20723e-07 -1.60245e-09 -1.56013e-09)
(2.07301e-07 -7.52634e-12 1.25263e-09)
(5.54133e-08 2.62879e-09 -1.51804e-09)
(1.13184e-07 2.31925e-09 -1.22854e-09)
(2.098e-07 -1.62306e-09 -1.34878e-11)
(2.37002e-07 1.29476e-09 -3.22253e-10)
(3.7952e-07 2.57724e-09 -1.52003e-09)
(5.56991e-08 5.30545e-09 -2.05887e-09)
(3.14962e-08 -1.93726e-09 1.78398e-09)
(2.01616e-07 -2.87045e-08 -2.10529e-08)
(3.56851e-08 -4.42586e-09 -4.96633e-10)
(3.18363e-07 -2.02459e-09 -2.57777e-09)
(3.69753e-08 1.72157e-09 -4.92168e-09)
(1.6453e-07 -8.7138e-10 3.09565e-09)
(2.62536e-07 -9.01449e-10 -8.3601e-11)
(3.8386e-07 -3.41085e-09 1.7723e-09)
(7.31401e-08 2.11175e-10 -1.53425e-09)
(1.58505e-07 -1.73142e-09 -1.73066e-09)
(4.92083e-08 1.70797e-09 -1.77312e-09)
(3.8156e-08 4.56833e-09 -1.75112e-09)
(2.23653e-07 -7.12285e-10 -1.20095e-09)
(1.86492e-08 -1.38978e-09 -2.67311e-09)
(1.60748e-07 -2.49894e-09 4.15758e-10)
(7.69784e-08 1.25513e-09 -3.54105e-09)
(3.07283e-07 -1.14873e-09 -7.60242e-11)
(2.25814e-07 -8.73543e-10 -6.82563e-10)
(2.49583e-08 -5.10563e-10 3.80688e-09)
(1.59521e-07 -7.10293e-09 3.9275e-10)
(2.37958e-07 8.96724e-11 -5.82695e-10)
(3.94534e-08 -1.91884e-09 3.76226e-11)
(2.60263e-07 -1.59731e-09 -3.1111e-10)
(9.75172e-08 -3.52098e-09 5.89532e-09)
(2.37594e-07 1.26084e-10 -1.69942e-09)
(1.91856e-07 1.59679e-10 -1.49834e-09)
(7.18717e-08 1.80501e-09 1.63656e-09)
(2.70585e-08 1.00601e-09 -3.65362e-09)
(1.14901e-07 2.2117e-09 6.19528e-10)
(2.43499e-07 3.72993e-08 8.67225e-09)
(2.57167e-07 1.66407e-09 6.79407e-10)
(9.56059e-08 -2.85239e-09 4.71309e-09)
(2.19108e-07 6.97408e-11 4.04691e-09)
(3.09487e-08 -1.09104e-09 7.27542e-10)
(1.69273e-07 3.20613e-10 -1.29304e-09)
(3.01399e-08 -3.93384e-10 -1.64619e-09)
(3.02034e-07 -4.61609e-09 9.99049e-10)
(3.01665e-07 -2.8984e-09 1.7359e-09)
(1.97628e-07 -7.82867e-10 5.17598e-10)
(1.86745e-08 2.02532e-09 5.00402e-11)
(3.33266e-07 -3.79741e-09 4.17507e-10)
(1.76586e-07 8.05291e-10 -1.49699e-09)
(3.34596e-07 2.85156e-09 1.70887e-09)
(7.61857e-08 -4.72302e-10 -3.9457e-11)
(2.22392e-07 -2.61378e-08 1.37619e-08)
(2.46063e-07 -2.52235e-09 4.67446e-10)
(8.60743e-08 -2.97439e-10 -8.37752e-10)
(2.08455e-07 -3.93215e-10 7.70169e-11)
(2.09962e-07 3.64477e-09 -3.88461e-08)
(1.95408e-07 4.21799e-10 -4.13284e-10)
(4.13449e-08 1.16657e-09 -2.36652e-09)
(1.27111e-07 -1.8554e-09 -6.47029e-09)
(1.6155e-07 -1.07252e-10 3.70288e-10)
(2.27034e-07 1.896e-09 -6.35746e-10)
(4.06451e-08 3.40861e-09 8.29285e-10)
(2.41356e-07 2.32325e-09 -2.40655e-09)
(1.90075e-07 -5.16647e-09 -3.26863e-09)
(3.17406e-08 -2.99761e-09 1.88558e-09)
(1.73838e-07 1.16615e-10 2.44974e-10)
(1.58229e-07 -1.93015e-09 1.54455e-08)
(3.40568e-07 4.50165e-09 -4.31661e-09)
(1.76071e-07 -2.81409e-11 4.20665e-10)
(1.57418e-07 1.31056e-11 6.54638e-10)
(2.73264e-07 -3.21934e-11 -1.7593e-09)
(2.68667e-07 1.47788e-09 2.09451e-09)
(8.97012e-08 2.4442e-09 1.7402e-09)
(9.3289e-08 -5.94319e-09 -4.19114e-09)
(3.24078e-07 3.87387e-09 -1.35058e-13)
(2.2471e-07 -1.89644e-08 1.81544e-08)
(2.23307e-07 -5.38652e-10 5.94081e-10)
(2.00005e-07 -8.27187e-10 -2.35895e-10)
(1.49869e-07 3.03033e-09 1.37836e-09)
(3.18337e-07 -5.39973e-11 -4.26983e-10)
(1.84159e-07 8.82238e-10 -2.90959e-10)
(2.07465e-07 -1.77416e-09 -2.91956e-09)
(2.51619e-07 4.13543e-09 1.11253e-09)
(5.24921e-08 -3.03053e-10 -3.55818e-09)
(2.01222e-07 1.57422e-09 -2.00831e-09)
(5.32647e-08 -4.22177e-10 -2.50553e-09)
(2.96618e-07 4.43288e-10 1.36966e-09)
(2.82589e-07 -1.14969e-09 1.72806e-09)
(1.91587e-07 8.64324e-10 -5.29242e-09)
(1.8068e-07 3.12311e-10 -1.23871e-09)
(2.26698e-08 2.44608e-09 -2.26233e-10)
(1.23909e-07 -1.49337e-09 -1.27907e-09)
(9.08904e-08 -3.26151e-09 -3.86107e-09)
(2.26808e-07 1.83154e-10 -1.01622e-09)
(2.02421e-07 -2.09162e-10 -1.52062e-09)
(2.20561e-07 -1.97713e-08 1.27382e-08)
(2.80197e-07 -4.28527e-11 1.81345e-09)
(9.57681e-08 -2.76582e-09 -2.00138e-09)
(1.36516e-07 -3.32358e-09 1.06636e-08)
(2.52916e-07 1.22223e-09 2.05171e-09)
(3.78268e-08 -3.41095e-09 2.96809e-10)
(2.07771e-07 -1.49123e-10 -1.4323e-09)
(6.78768e-08 1.96499e-09 -2.20618e-10)
(2.05474e-07 -3.61263e-10 8.58386e-10)
(4.10163e-08 5.66326e-09 3.74683e-10)
(3.1528e-07 3.62553e-09 -2.71383e-09)
(2.03974e-07 -8.59387e-09 5.42318e-09)