/*--------------------------------*- C++ -*----------------------------------*\
| =========                 |                                                 |
| \\      /  F ield         | OpenFOAM: The Open Source CFD Toolbox           |
|  \\    /   O peration     | Version:  2406                                  |
|   \\  /    A nd           | Website:  www.openfoam.com                      |
|    \\/     M anipulation  |                                                 |
\*---------------------------------------------------------------------------*/
FoamFile
{
    version     2.0;
    format      ascii;
    arch        "LSB;label=32;scalar=64";
    class       volVectorField;
    location    "22";
    object      momentum:angularMomentum;
}
// * * * * * * * * * * * * * * * * * * * * * * * * * * * * * * * * * * * * * //

dimensions      [1 1 -1 0 0 0 0];

internalField   nonuniform List<vector> 
59516
(
(1.62752e-09 -1.23593e-09 2.4846e-07)
(1.44515e-10 6.94761e-10 1.87261e-07)
(4.15574e-10 3.77841e-09 2.22751e-07)
(-3.96246e-09 1.68848e-09 1.79908e-07)
(-7.13613e-09 5.48942e-11 2.00729e-07)
(-5.19492e-09 2.79867e-09 5.03765e-08)
(-1.12006e-09 -2.54462e-09 2.20474e-07)
(-1.14666e-09 -1.03398e-09 2.19886e-07)
(-1.02179e-09 4.67256e-10 1.71654e-07)
(4.23666e-09 1.2004e-09 1.00789e-07)
(-5.35359e-10 -1.07193e-09 1.91897e-07)
(-3.32023e-09 -3.01873e-09 1.15882e-07)
(-2.05606e-09 -2.69095e-09 3.51661e-07)
(9.19413e-11 -1.72001e-10 1.9985e-08)
(-1.53832e-09 -9.42921e-09 1.83948e-07)
(-1.56262e-09 7.23183e-09 1.03096e-07)
(2.61829e-10 -3.18731e-10 2.36459e-07)
(-9.845e-09 -4.36396e-09 1.64015e-07)
(-9.06769e-09 -5.14854e-09 3.40423e-07)
(-1.46204e-09 1.65962e-09 3.34451e-07)
(-7.56784e-10 1.50557e-11 1.0939e-07)
(5.00911e-10 -2.46411e-10 3.11937e-07)
(7.75711e-10 -4.41651e-10 3.34382e-07)
(1.09295e-09 7.5666e-10 4.42714e-08)
(1.60189e-09 3.83872e-09 2.96843e-07)
(-2.2015e-09 3.79229e-09 2.42127e-07)
(-1.07966e-09 3.41841e-09 6.62036e-08)
(-5.49897e-09 -2.96316e-09 7.85842e-08)
(-2.05431e-09 -3.14139e-09 1.58679e-07)
(2.31827e-09 1.7675e-09 1.74322e-08)
(-3.65605e-08 2.18128e-09 1.89447e-07)
(-5.61961e-09 3.92629e-09 8.88865e-08)
(-4.04597e-10 -6.09906e-10 1.78823e-07)
(-3.94393e-09 -1.00505e-09 1.92137e-07)
(-1.61127e-09 -2.55122e-10 1.29571e-07)
(1.11436e-09 1.74085e-09 3.96027e-07)
(-2.32283e-09 1.26282e-09 1.73397e-08)
(-1.15173e-08 -3.84175e-09 1.35885e-07)
(-6.29737e-09 1.54844e-10 2.87925e-07)
(4.98472e-09 -4.31149e-09 2.6163e-07)
(-9.4005e-10 -3.16518e-09 2.89704e-07)
(-1.7017e-08 -6.68606e-10 3.98238e-07)
(6.09053e-10 5.19423e-10 3.32848e-07)
(-9.795e-10 1.51608e-10 1.27183e-07)
(-1.0731e-09 5.07214e-10 2.64817e-07)
(3.57562e-09 6.67858e-10 1.25753e-07)
(-8.58243e-10 3.11568e-10 3.28465e-07)
(-7.14554e-11 -9.48439e-11 2.30754e-07)
(-3.29724e-08 3.75745e-09 2.5168e-07)
(-4.65988e-09 -1.15457e-10 2.2511e-07)
(-2.76705e-08 9.42836e-10 1.63864e-07)
(-6.09608e-09 -3.45038e-09 9.9569e-08)
(1.33201e-09 -5.5534e-09 3.44252e-07)
(-1.11303e-09 -8.2543e-10 3.17364e-07)
(-4.3332e-09 1.45195e-09 9.42748e-08)
(-2.67722e-11 8.72521e-10 2.49748e-07)
(-1.05643e-08 -2.47788e-10 1.93581e-07)
(-7.25188e-09 -3.34589e-09 1.03183e-07)
(1.68127e-09 1.92022e-09 1.78733e-07)
(-5.73784e-09 1.45714e-10 1.42807e-07)
(4.24357e-10 9.14688e-10 2.03561e-07)
(-1.17753e-09 1.87549e-09 1.95558e-08)
(2.44203e-09 -1.99501e-09 2.30664e-07)
(6.0839e-10 1.77692e-09 2.98598e-07)
(-2.39705e-09 -1.44086e-09 3.22495e-07)
(-1.99747e-09 8.21216e-10 2.03124e-07)
(2.09027e-10 2.60355e-09 2.42406e-08)
(-2.12143e-10 3.28734e-10 8.25601e-08)
(-3.52486e-08 1.26556e-09 1.97468e-07)
(1.64711e-09 -1.96312e-09 1.69188e-07)
(-1.08639e-09 -1.24752e-09 6.56322e-08)
(-7.7983e-10 5.74167e-10 1.4049e-07)
(4.57315e-09 -1.6686e-09 3.04173e-08)
(7.78681e-10 1.04866e-09 1.81652e-07)
(-2.46172e-09 1.4223e-09 3.12879e-07)
(1.81518e-09 -3.68679e-10 3.36395e-07)
(5.54453e-10 -8.19859e-10 1.93638e-07)
(-1.65172e-09 -4.8306e-10 2.18774e-07)
(3.61791e-09 2.2953e-09 1.04699e-07)
(-3.09665e-09 1.10074e-09 1.78624e-07)
(-2.36229e-09 7.39927e-10 6.77397e-08)
(-2.45848e-09 9.37102e-10 1.61483e-07)
(-2.05557e-09 5.02957e-10 1.77036e-07)
(-3.03272e-09 1.5582e-09 2.38937e-08)
(-2.64039e-09 1.18122e-09 2.03169e-07)
(-1.80938e-09 1.04227e-09 3.22225e-07)
(7.90671e-10 1.44076e-09 4.00372e-08)
(6.08353e-10 2.67564e-09 4.86039e-07)
(-5.15853e-09 -2.35105e-09 1.34919e-07)
(-1.21872e-08 -3.95807e-09 1.69235e-07)
(-1.20266e-08 -5.24645e-10 1.81294e-07)
(-5.8012e-10 3.11715e-10 1.82423e-07)
(5.49759e-10 -7.83027e-10 2.22072e-07)
(6.2342e-10 9.06196e-12 1.7768e-07)
(8.32343e-10 -1.2756e-09 1.60501e-07)
(-1.77085e-08 5.88109e-10 1.8377e-07)
(-1.61505e-09 -8.76418e-10 1.22906e-07)
(3.46718e-09 6.76516e-09 1.0138e-07)
(-2.18507e-09 -2.31293e-09 1.2386e-07)
(2.04768e-09 4.8196e-10 2.00271e-07)
(-2.09543e-09 2.736e-09 7.91316e-08)
(3.89872e-09 1.81409e-09 3.4672e-08)
(3.9489e-09 1.80436e-09 2.96993e-08)
(-2.5672e-09 4.01941e-09 1.0473e-07)
(1.11565e-09 -9.38215e-11 2.39721e-07)
(-5.60053e-10 8.37913e-10 1.53705e-07)
(2.98211e-09 -5.0495e-09 7.18062e-08)
(-8.99576e-10 -4.78274e-10 1.53824e-07)
(-1.84045e-09 -1.20449e-10 1.95931e-07)
(-5.15375e-09 8.15047e-09 2.25329e-07)
(-3.6698e-08 -8.00352e-10 2.79903e-07)
(4.31535e-09 -3.23932e-09 5.71489e-08)
(-6.1436e-09 8.9444e-09 2.21236e-07)
(-3.26238e-08 -3.01588e-10 2.19345e-07)
(-1.15135e-09 1.18542e-09 2.02694e-07)
(2.64804e-10 -1.42534e-09 1.54699e-07)
(-5.57276e-09 -2.90112e-09 1.54772e-07)
(-9.28119e-10 -3.91166e-10 1.44948e-07)
(-7.52807e-10 -8.19502e-10 2.27312e-08)
(-2.03857e-09 3.03018e-09 2.54775e-07)
(-3.76886e-10 -5.40707e-10 3.35283e-07)
(1.29998e-09 3.91513e-10 1.54531e-07)
(-2.02238e-10 -9.94089e-11 1.50769e-07)
(4.79513e-10 4.24245e-10 1.59899e-07)
(-1.42855e-08 1.27921e-09 1.32452e-07)
(-1.48534e-09 -6.49843e-10 1.52139e-07)
(-3.08499e-09 -1.28613e-09 4.42467e-08)
(-1.32507e-08 2.31447e-09 2.10555e-07)
(-2.32409e-08 5.82053e-09 1.63605e-07)
(7.70218e-10 6.47779e-10 1.32031e-07)
(2.57476e-09 -1.28305e-09 2.31323e-07)
(3.52757e-09 7.14348e-09 3.58107e-07)
(-9.94551e-10 -2.21824e-09 2.84991e-08)
(5.51057e-10 1.53334e-09 2.48314e-07)
(2.11422e-09 1.61503e-09 3.47969e-07)
(-1.83385e-09 2.7588e-09 2.15469e-07)
(-1.99474e-08 1.68579e-09 1.5279e-07)
(6.21027e-10 2.17806e-09 3.27479e-07)
(-4.96058e-10 4.27747e-09 6.65025e-08)
(-2.96847e-09 1.20299e-09 1.75891e-07)
(-2.19338e-09 4.42618e-09 9.71717e-08)
(1.22948e-09 4.07319e-10 2.72305e-07)
(-9.51283e-10 -1.61405e-09 1.73463e-08)
(-9.01022e-10 1.48009e-09 1.58173e-07)
(-3.06233e-10 4.38472e-10 1.79491e-07)
(-2.67798e-09 1.96552e-09 2.75568e-07)
(-8.85921e-10 1.16742e-09 2.03356e-07)
(-1.92991e-09 1.83522e-09 2.17718e-07)
(1.05768e-09 -1.93022e-09 6.42048e-08)
(-1.27639e-09 1.60059e-09 2.25109e-07)
(-1.22613e-09 -2.619e-09 3.51516e-07)
(5.05766e-10 2.59818e-09 6.94203e-08)
(2.30834e-09 9.19819e-10 3.45758e-07)
(2.13538e-09 -6.75775e-10 2.08718e-07)
(2.06994e-10 -3.10598e-09 1.78113e-07)
(-2.04287e-09 8.80229e-10 1.92779e-08)
(1.89554e-09 -8.90691e-10 3.07563e-07)
(-1.7271e-09 1.99142e-09 3.53228e-07)
(-1.64296e-09 1.26335e-09 1.45021e-07)
(-3.15923e-09 -1.78927e-09 2.02472e-08)
(3.43758e-09 3.65273e-09 1.02871e-07)
(5.95236e-09 -3.79928e-09 1.2901e-07)
(-1.45511e-09 2.66977e-09 5.01804e-08)
(-2.15454e-10 -5.38241e-10 2.96697e-08)
(3.57132e-09 6.15073e-10 1.8387e-07)
(-1.66373e-09 9.15249e-10 2.88965e-07)
(1.27153e-09 -1.36441e-09 1.8979e-07)
(-6.01986e-10 -8.66733e-10 2.35074e-07)
(1.52933e-09 2.41448e-09 2.11732e-08)
(-1.20057e-09 -5.08673e-11 2.09646e-07)
(-1.59264e-09 -1.15776e-09 9.85216e-08)
(-1.2028e-09 5.46577e-10 8.03307e-08)
(-1.8564e-10 -4.26975e-09 1.26763e-07)
(8.16916e-10 -1.19943e-09 1.50921e-07)
(1.11727e-09 1.81553e-09 1.03724e-07)
(-1.39447e-09 -2.79452e-09 4.54411e-07)
(-1.32535e-09 -2.27375e-10 2.16253e-07)
(-1.47113e-09 2.50735e-10 3.0156e-07)
(2.00074e-09 -1.06636e-08 1.78876e-07)
(5.06933e-10 -4.9297e-10 7.686e-08)
(-5.94641e-10 -4.33216e-09 2.98711e-07)
(1.53914e-09 4.34579e-09 5.41377e-08)
(-1.15492e-09 -2.59763e-09 3.81815e-08)
(3.58063e-10 3.5632e-09 1.24752e-07)
(4.80784e-10 -1.61441e-09 1.71305e-07)
(-6.59855e-10 1.16479e-09 1.17343e-07)
(-3.91649e-09 1.13431e-09 5.77086e-08)
(1.9927e-11 4.63954e-10 2.664e-08)
(-5.67608e-10 -1.42471e-09 2.00557e-07)
(2.17925e-09 3.13127e-10 2.52238e-07)
(-3.21526e-09 -8.40999e-10 1.60343e-07)
(-1.27147e-09 -7.16511e-09 1.41788e-07)
(-4.12225e-10 -3.86343e-10 1.93618e-07)
(3.22055e-09 -3.94032e-09 1.13505e-07)
(-1.06672e-09 1.96757e-09 3.20075e-07)
(4.85102e-10 8.08636e-10 3.58723e-08)
(1.7706e-09 -4.31464e-10 1.17766e-07)
(2.45651e-10 -1.22236e-09 7.1843e-08)
(-7.04411e-09 3.96811e-10 2.05113e-07)
(-1.81526e-10 1.92696e-09 2.49473e-07)
(-1.77152e-09 -1.8642e-09 9.20254e-08)
(9.3456e-10 2.87534e-11 1.58246e-07)
(1.15373e-09 1.93135e-09 3.48637e-07)
(2.01823e-09 -1.84174e-09 2.02002e-08)
(2.72164e-09 2.34496e-09 2.34868e-07)
(2.52637e-10 5.59738e-10 2.3521e-07)
(4.59116e-10 4.8807e-10 2.89113e-07)
(-6.06441e-10 8.62976e-10 1.82232e-07)
(1.26739e-10 -5.43764e-10 2.26981e-08)
(3.79777e-09 2.30544e-09 3.26819e-07)
(-1.15627e-10 5.73154e-09 7.53892e-08)
(-4.56473e-09 1.03463e-09 2.77843e-08)
(-1.61674e-09 1.21755e-09 2.30495e-07)
(4.24195e-10 3.03412e-09 1.15582e-07)
(-2.00041e-09 -1.16801e-10 3.17794e-07)
(-2.2804e-09 -8.36599e-10 2.54603e-07)
(-1.96381e-09 9.42049e-10 2.66349e-07)
(-6.65329e-10 6.92294e-10 1.97171e-07)
(-3.44688e-09 4.46261e-09 1.0074e-07)
(1.62396e-10 1.29665e-09 2.06517e-07)
(-4.46171e-09 -6.33991e-09 1.44732e-07)
(-1.33684e-09 2.30849e-09 2.06871e-07)
(-1.05679e-09 -1.56198e-09 1.59048e-07)
(4.11826e-10 -2.65411e-09 9.7297e-08)
(-3.34871e-09 -1.05231e-09 2.56697e-07)
(5.62449e-10 1.50942e-09 2.70461e-07)
(-1.63621e-09 -1.74667e-09 3.93903e-08)
(-4.33169e-09 6.44195e-10 8.03464e-08)
(-2.11727e-09 1.28527e-09 1.72717e-07)
(-4.37305e-09 7.64829e-09 1.45739e-07)
(4.51659e-10 1.91508e-09 2.13012e-07)
(-1.3362e-09 6.00286e-10 1.56049e-07)
(-1.36603e-09 -2.84209e-09 2.6084e-07)
(-1.76777e-09 -2.73801e-09 3.41025e-08)
(-1.55404e-09 -1.65123e-09 3.94073e-08)
(-2.47303e-09 -3.71128e-10 4.86831e-08)
(1.88501e-09 -1.10269e-09 1.29685e-07)
(-3.92872e-09 -9.52007e-10 1.97735e-07)
(-4.52566e-09 -2.13651e-09 3.85604e-07)
(2.23221e-09 -6.17749e-10 1.06097e-07)
(2.14712e-09 2.0919e-10 2.04773e-07)
(3.01758e-09 1.61094e-09 2.38278e-08)
(1.75245e-10 9.07784e-10 1.32203e-07)
(3.30093e-09 1.77988e-09 3.53125e-08)
(4.91819e-10 9.28076e-10 1.35751e-07)
(-2.77459e-10 -1.32891e-09 1.7388e-07)
(-7.47787e-10 -6.24579e-10 1.88338e-07)
(1.39264e-09 2.38316e-09 2.24127e-07)
(1.24028e-09 1.38319e-09 2.48741e-07)
(-5.12523e-10 -2.36605e-10 2.17558e-07)
(6.38724e-09 -4.93421e-09 3.48507e-07)
(-1.8763e-09 -3.20068e-10 2.09317e-07)
(1.35089e-09 9.63981e-10 1.56155e-07)
(-4.3306e-10 1.3028e-09 2.74307e-07)
(-4.34166e-10 1.31104e-09 2.70214e-07)
(-5.34395e-10 8.02249e-10 2.7668e-07)
(-1.90209e-10 -6.19183e-10 1.35198e-07)
(-2.80704e-09 -1.45039e-09 2.65381e-07)
(2.75994e-09 4.99238e-09 1.00693e-07)
(3.56291e-10 3.6131e-09 1.14658e-07)
(-1.22515e-09 -2.63791e-10 2.27101e-07)
(-2.51699e-09 2.03325e-09 2.36944e-07)
(3.14123e-09 2.973e-09 2.56018e-07)
(-1.33741e-09 3.11048e-09 2.43937e-07)
(1.66641e-09 3.23305e-10 8.27922e-08)
(1.00563e-09 -5.52903e-09 1.31295e-07)
(1.99343e-09 -2.84288e-09 2.82623e-07)
(3.27889e-09 8.90945e-10 2.47422e-07)
(-5.9504e-10 -2.55616e-09 7.43574e-08)
(-9.02793e-12 2.57237e-09 9.06535e-08)
(-3.01251e-09 2.79813e-09 1.81675e-07)
(-8.87975e-10 -8.36564e-10 1.61166e-07)
(-3.25975e-09 4.2908e-09 3.52566e-07)
(4.96917e-11 2.23767e-09 1.72147e-07)
(-4.14503e-09 1.7735e-09 2.99274e-07)
(1.00287e-09 5.70441e-09 2.15348e-07)
(-1.63915e-09 -3.0307e-09 2.47232e-08)
(-8.34428e-10 3.34508e-09 2.74067e-07)
(3.23017e-09 -2.22916e-09 3.56626e-08)
(2.22949e-09 1.39455e-09 6.58933e-08)
(-1.63195e-09 -2.90283e-09 2.90215e-07)
(8.37358e-10 1.71877e-09 2.50241e-07)
(-4.81533e-09 1.65775e-09 3.46576e-08)
(-2.64462e-09 6.3379e-10 3.18302e-07)
(-1.87751e-09 -1.74934e-09 2.62664e-07)
(1.31936e-09 1.9617e-10 2.19718e-07)
(-3.50351e-10 -1.2068e-09 2.67775e-07)
(2.83223e-09 -2.33255e-09 3.03363e-08)
(-3.379e-09 1.69198e-10 2.31092e-07)
(-6.2705e-10 -1.67854e-09 1.19545e-07)
(-3.79702e-10 -1.51622e-09 1.36029e-07)
(-2.94278e-09 -1.66295e-09 2.53831e-07)
(-1.31146e-09 1.42529e-10 1.65819e-07)
(-6.39335e-10 -7.79124e-10 1.99146e-07)
(4.83759e-10 -2.12865e-10 2.36136e-07)
(2.53401e-10 2.86294e-09 4.87706e-08)
(3.2654e-09 -2.76808e-09 2.54839e-07)
(2.00386e-09 1.84746e-09 1.93394e-07)
(-1.86624e-09 -3.33473e-09 2.96608e-07)
(1.19826e-09 -3.27438e-09 2.291e-07)
(2.8832e-09 1.18942e-09 3.33901e-07)
(2.09217e-09 -1.39371e-09 1.67871e-07)
(-1.0684e-09 -1.60179e-09 2.49327e-08)
(1.4581e-09 1.03407e-09 4.41499e-08)
(-2.99016e-09 5.54187e-09 4.74166e-07)
(-3.42416e-09 9.42918e-10 2.35352e-08)
(-2.18723e-09 -2.99502e-09 2.04305e-07)
(-7.80931e-10 4.59041e-09 8.67412e-08)
(3.22941e-09 3.0268e-11 2.79933e-07)
(7.61675e-11 -1.32337e-09 3.2963e-07)
(1.89904e-09 1.19103e-09 3.05494e-07)
(3.38464e-09 5.53762e-10 1.44621e-07)
(5.41555e-09 -1.41805e-09 3.25602e-07)
(2.95811e-10 8.32515e-09 8.36292e-08)
(2.76091e-09 -3.37967e-09 9.80444e-08)
(1.24368e-09 -2.00175e-09 1.79795e-07)
(1.83193e-09 -2.61247e-09 1.74548e-07)
(-3.08704e-08 -4.56622e-09 2.6931e-07)
(6.55972e-10 -4.25381e-09 2.12484e-07)
(-7.97332e-10 4.14815e-11 8.05463e-08)
(3.36639e-09 -1.11152e-10 1.21361e-07)
(2.88541e-10 -2.37963e-09 2.23873e-07)
(-1.81336e-12 -2.92473e-10 1.84859e-07)
(-2.51709e-09 6.49278e-10 3.48602e-07)
(-1.22962e-09 1.62843e-09 1.84883e-07)
(-2.12543e-10 7.07282e-09 4.5121e-07)
(-7.13406e-09 -8.20801e-10 1.72213e-07)
(-2.68379e-09 2.259e-09 3.43978e-07)
(1.89782e-10 1.71263e-09 2.40575e-07)
(-2.76613e-10 -4.89208e-10 1.79583e-07)
(1.5157e-09 3.30129e-10 3.0807e-07)
(-5.33787e-09 -5.32994e-09 1.19666e-07)
(3.84672e-09 -1.71754e-09 2.8569e-08)
(5.85652e-10 -1.06124e-09 2.79279e-07)
(1.77704e-09 4.04797e-09 7.17705e-08)
(-3.68807e-10 -4.11621e-10 3.47068e-08)
(-3.96057e-09 -2.49947e-09 3.53646e-07)
(1.10379e-09 1.73214e-10 1.95266e-07)
(-1.26609e-09 3.91196e-09 1.14629e-07)
(-1.55824e-09 -2.7485e-10 2.16953e-07)
(7.46045e-10 2.29425e-09 2.94742e-07)
(-2.15795e-09 -1.56287e-09 3.4958e-07)
(9.24626e-10 -7.75752e-10 2.30519e-07)
(-1.74345e-10 -1.14382e-09 3.89511e-08)
(-2.53084e-12 -1.87496e-09 2.98055e-07)
(-1.29696e-09 2.69678e-11 1.82065e-07)
(-3.20911e-11 1.92576e-09 1.18939e-07)
(4.76295e-10 -2.93265e-09 2.42062e-07)
(7.27118e-10 4.15615e-10 2.12586e-07)
(1.14102e-09 4.21386e-10 1.77149e-07)
(-3.35009e-11 -9.94159e-11 2.06468e-07)
(-1.26226e-09 -1.30625e-09 2.5653e-07)
(4.22436e-10 1.8578e-09 1.99071e-07)
(-8.20176e-10 2.79512e-10 9.1331e-08)
(-3.48405e-10 1.03119e-09 2.47574e-08)
(-1.72442e-10 3.48351e-09 4.93505e-08)
(1.31996e-09 2.82208e-09 2.50533e-07)
(-3.66522e-08 1.44842e-09 2.69807e-07)
(-1.09855e-08 1.11092e-09 1.16335e-07)
(-6.85314e-10 -4.07998e-10 1.27504e-07)
(3.02091e-09 -2.7358e-09 2.68619e-07)
(9.65788e-10 4.67913e-10 3.12169e-07)
(-1.4071e-09 1.47803e-09 2.07398e-07)
(1.64027e-09 -6.59562e-10 3.42617e-07)
(-1.74702e-09 -9.91381e-10 3.52356e-07)
(-9.88674e-10 -4.95956e-10 2.12408e-07)
(-1.02774e-09 3.51424e-11 1.30217e-07)
(-4.0357e-10 3.7449e-10 2.86111e-08)
(-4.61254e-08 2.02774e-09 2.40924e-07)
(4.47422e-10 3.43546e-09 1.02199e-07)
(-2.28239e-09 2.52687e-09 7.97501e-08)
(4.53073e-10 5.19171e-10 8.53145e-08)
(-2.30912e-10 -1.04018e-09 1.57321e-07)
(7.08867e-10 7.73894e-10 1.94701e-07)
(-9.23472e-10 -3.77374e-10 2.18348e-07)
(-1.5833e-09 1.76122e-09 2.06095e-08)
(1.72301e-10 -3.28732e-10 1.74307e-07)
(1.89682e-09 -2.93085e-10 7.85163e-08)
(-5.97809e-10 1.18986e-09 1.66711e-07)
(-5.80464e-10 1.17273e-09 6.60545e-08)
(5.15149e-09 9.03506e-10 1.68688e-07)
(2.01428e-09 3.71331e-09 2.47739e-07)
(-8.94731e-10 1.40171e-09 1.7105e-07)
(3.42426e-09 -1.02363e-10 2.45349e-08)
(8.06803e-10 6.86627e-09 1.34195e-07)
(-1.07611e-09 -5.72888e-10 2.397e-07)
(-3.06653e-10 -2.61268e-09 3.25151e-08)
(-1.04815e-08 6.42845e-10 2.87484e-07)
(1.1144e-10 -2.75393e-09 1.92302e-07)
(2.34337e-09 -1.16056e-09 3.12322e-07)
(5.10428e-09 -2.55575e-09 2.25883e-07)
(2.40719e-09 7.15634e-10 1.06131e-07)
(3.92901e-09 -2.82672e-09 3.66033e-07)
(-1.78518e-08 -6.32162e-09 1.43055e-07)
(-3.2212e-09 -1.2734e-09 2.71582e-07)
(-1.49765e-08 4.63436e-10 1.55749e-07)
(-4.19791e-09 4.51041e-09 1.71596e-07)
(-1.17652e-09 1.98852e-09 1.71995e-07)
(-9.26354e-11 -1.22493e-09 2.29293e-07)
(2.11025e-09 -4.31832e-09 4.63843e-07)
(7.49545e-10 -2.81852e-10 9.42088e-08)
(-5.06336e-10 -8.15384e-10 3.50678e-07)
(-2.28584e-09 1.38423e-09 1.33818e-07)
(2.2334e-09 -1.08335e-09 3.64965e-07)
(1.53667e-09 -1.71485e-09 2.77924e-07)
(-1.5726e-09 -5.52482e-09 8.76729e-08)
(-1.0292e-09 7.00618e-10 2.23524e-07)
(2.54203e-09 4.16478e-10 3.75111e-07)
(-1.67735e-10 5.04161e-10 2.22347e-07)
(5.46873e-11 6.25391e-10 2.08839e-07)
(3.27609e-09 -1.47777e-09 3.09228e-08)
(-3.31151e-09 -5.72519e-10 2.49185e-08)
(-1.72629e-09 3.1865e-09 3.04971e-07)
(6.93352e-10 -6.33015e-10 2.43409e-07)
(4.13074e-10 1.7631e-09 1.83829e-07)
(-2.70745e-09 1.06252e-09 4.52741e-08)
(1.40897e-10 -1.43524e-10 7.6894e-08)
(-1.99917e-09 3.26866e-09 3.39043e-07)
(-1.31983e-09 3.02223e-10 1.39361e-07)
(2.53422e-09 9.85902e-10 2.66203e-07)
(3.64013e-10 2.87687e-10 2.3724e-07)
(-2.6113e-10 -2.33665e-09 1.89049e-07)
(1.27756e-10 -2.69936e-09 2.03717e-07)
(-5.92313e-10 1.07713e-11 1.38742e-07)
(-2.20034e-09 3.30901e-10 1.77148e-07)
(-3.37174e-09 3.53332e-09 1.04612e-07)
(1.82167e-09 1.97483e-09 2.54753e-07)
(-1.6538e-09 -2.06272e-09 2.09774e-07)
(-1.23927e-09 1.4136e-09 1.98029e-07)
(-3.98982e-10 -7.05227e-10 1.87728e-07)
(-8.49791e-10 -1.05697e-09 3.40424e-07)
(2.03375e-09 2.43703e-09 2.58566e-07)
(3.94327e-09 4.61486e-09 8.2444e-08)
(1.3753e-09 5.99502e-10 5.69213e-08)
(-2.49089e-09 -2.30941e-09 2.42128e-08)
(-5.68295e-09 6.6095e-10 2.13204e-07)
(2.40571e-10 -9.02437e-11 2.42079e-07)
(-6.12359e-10 -1.72738e-10 2.6541e-07)
(5.43953e-10 -3.62877e-09 2.02233e-07)
(1.11e-09 1.64895e-10 3.79347e-08)
(1.05772e-09 -2.88792e-09 2.78647e-08)
(-2.02586e-09 -1.35166e-09 1.97085e-07)
(-9.6648e-10 7.38563e-10 2.14635e-07)
(-1.78156e-09 3.65163e-10 2.63466e-07)
(1.10853e-09 -1.96806e-09 3.06814e-07)
(-1.58942e-09 -1.79451e-09 2.04697e-07)
(-1.2262e-09 2.22177e-09 2.7887e-07)
(1.79385e-09 -3.21262e-09 3.8596e-07)
(-1.8241e-09 3.75303e-09 3.94202e-08)
(-1.23694e-09 1.09875e-09 1.94417e-07)
(3.49304e-09 -2.14781e-09 8.82926e-08)
(-9.64631e-09 -1.09657e-09 9.82735e-08)
(5.87682e-10 -1.42585e-10 1.19588e-07)
(-4.27033e-11 5.42375e-10 1.6654e-07)
(1.28768e-09 -1.33672e-09 2.45622e-07)
(-4.23642e-09 2.16305e-09 2.4522e-08)
(3.93267e-09 -1.28987e-09 3.02234e-07)
(-4.35555e-10 1.90236e-10 2.23493e-07)
(-1.61027e-09 6.31522e-10 1.78197e-07)
(2.65352e-09 -1.13688e-09 2.358e-07)
(-4.20073e-10 -3.78936e-10 1.57988e-07)
(-2.03761e-09 6.14002e-12 2.21973e-07)
(4.47661e-10 2.4384e-10 2.58296e-07)
(-7.49686e-10 -4.13373e-10 2.45639e-07)
(-5.32931e-09 -1.98287e-09 1.76404e-07)
(8.78428e-10 1.28571e-09 2.33774e-07)
(-3.33449e-09 1.56013e-09 2.82237e-07)
(1.96864e-09 -1.26567e-09 2.36342e-08)
(-5.08277e-10 2.58118e-09 2.56604e-07)
(1.58101e-09 7.66012e-10 2.02887e-07)
(-4.418e-09 -4.49554e-09 8.15887e-08)
(-1.66576e-09 3.19999e-09 1.97519e-07)
(1.55743e-09 1.98644e-09 3.03847e-07)
(7.72382e-11 -2.20252e-10 2.3547e-07)
(1.67717e-09 2.89767e-09 1.38452e-07)
(-2.58533e-09 1.34091e-09 2.32675e-08)
(-6.37973e-10 1.07975e-09 2.2042e-07)
(-3.78583e-10 5.41311e-09 3.54975e-07)
(-1.89328e-10 4.08474e-10 2.1851e-07)
(-1.22623e-09 6.31825e-10 1.98647e-07)
(-4.14561e-09 1.35433e-09 7.26322e-08)
(1.33338e-09 5.10731e-10 2.48964e-07)
(-4.34288e-09 -1.97596e-10 2.92089e-08)
(-4.18265e-10 2.01132e-10 1.55848e-07)
(-2.40899e-08 1.13616e-09 2.08616e-07)
(-7.47961e-10 4.82423e-10 2.22907e-07)
(-1.03012e-09 3.46973e-09 1.06534e-07)
(-2.92117e-09 2.19979e-09 2.03841e-07)
(-9.99596e-10 2.46992e-09 1.31199e-07)
(3.32194e-09 -3.82148e-09 5.89864e-08)
(1.71458e-09 -2.18182e-10 3.74708e-07)
(-1.02922e-09 1.74366e-09 1.76888e-07)
(-2.43306e-09 -7.75009e-10 2.29121e-08)
(2.03189e-09 -2.2223e-09 2.48472e-07)
(-5.1149e-10 -3.50325e-09 2.26187e-07)
(-4.50944e-10 2.10584e-09 4.85241e-08)
(3.42813e-09 5.99021e-09 1.52898e-07)
(-2.82547e-09 2.80095e-09 1.21395e-07)
(-4.03208e-10 1.39481e-09 1.7676e-07)
(2.71503e-09 -4.354e-10 2.12901e-07)
(-1.19911e-09 1.46651e-09 3.76382e-08)
(3.08127e-09 -8.57978e-10 1.12918e-07)
(-7.33226e-10 3.11669e-09 1.2459e-07)
(2.42998e-09 2.42802e-09 1.8934e-07)
(3.28317e-09 -1.71395e-09 2.73291e-07)
(-3.70134e-09 -2.05313e-09 2.95233e-08)
(2.24887e-09 3.36833e-09 3.41267e-07)
(-1.8368e-09 4.32943e-10 2.24581e-07)
(-2.00678e-09 -4.6721e-10 2.25715e-07)
(-2.94523e-09 -6.15006e-09 1.14207e-07)
(2.00125e-09 4.35864e-10 2.98532e-07)
(1.66813e-09 -2.76879e-09 2.94038e-08)
(-2.13211e-09 2.34365e-10 2.66301e-07)
(2.53511e-10 -6.39844e-10 3.41895e-08)
(2.35369e-09 -5.69576e-09 1.54036e-07)
(5.17305e-10 -6.35602e-11 2.12957e-07)
(-2.45911e-09 4.94853e-09 1.63429e-07)
(-3.68228e-09 2.09719e-09 2.44374e-08)
(4.40201e-10 -3.00905e-09 6.33269e-08)
(1.15778e-10 6.26582e-09 9.37418e-08)
(2.85957e-09 -4.68257e-09 1.57845e-07)
(-1.69439e-09 1.11894e-09 3.16932e-07)
(-3.44532e-10 1.5823e-09 6.95641e-08)
(2.28657e-09 -5.057e-09 1.67037e-07)
(-2.25613e-08 -1.73944e-10 2.24374e-07)
(-1.68325e-09 1.31259e-09 1.8263e-07)
(2.28706e-09 -3.75741e-10 3.61099e-08)
(1.71785e-09 1.49121e-09 2.5099e-07)
(-1.3557e-08 -7.87596e-09 1.48833e-07)
(2.11993e-09 6.52491e-10 1.7479e-07)
(-2.18457e-09 1.39879e-09 1.17204e-07)
(-1.22743e-09 1.60838e-09 1.53068e-07)
(4.37689e-09 5.40902e-09 1.28904e-07)
(-1.17755e-09 3.01989e-10 1.68018e-07)
(-8.99575e-10 -8.58323e-10 1.35224e-07)
(5.58227e-09 -6.97404e-09 8.81588e-08)
(3.80857e-10 -1.63446e-10 2.55075e-07)
(-4.25839e-09 -1.5164e-09 7.24003e-08)
(2.8293e-09 -1.62855e-09 1.99514e-08)
(-7.38256e-10 -5.83573e-10 3.065e-07)
(1.00981e-10 -1.63243e-09 1.5668e-07)
(-1.56651e-09 -7.84233e-10 3.00272e-07)
(2.06448e-09 -3.98188e-09 2.38929e-07)
(5.20404e-09 4.18922e-10 3.88689e-07)
(3.63137e-09 -1.9801e-09 1.61833e-07)
(4.43649e-09 1.2403e-09 3.63572e-07)
(2.852e-09 4.86039e-09 1.13644e-07)
(-1.12993e-09 -4.57698e-10 1.29982e-07)
(4.60538e-09 1.70641e-09 3.21229e-07)
(-5.00321e-09 -3.38432e-09 4.1379e-08)
(2.20483e-10 1.86625e-09 2.90986e-07)
(3.02919e-09 -3.99206e-09 1.41898e-07)
(2.20713e-09 3.54302e-09 3.81665e-08)
(2.92691e-10 -6.57351e-10 2.74818e-07)
(-2.30811e-09 -1.71692e-11 7.63142e-08)
(6.53547e-11 3.4034e-10 2.01031e-07)
(5.88647e-10 1.3755e-10 1.82375e-07)
(-2.46352e-09 6.03161e-09 3.78137e-07)
(-4.19809e-12 7.14458e-09 1.18431e-07)
(1.51388e-09 -3.62144e-10 2.46302e-07)
(2.38512e-09 3.65713e-11 1.73786e-07)
(-1.60695e-09 3.78794e-10 2.65325e-07)
(2.05901e-09 -8.05002e-11 2.7232e-07)
(1.87002e-09 6.88739e-10 2.38931e-07)
(3.58518e-10 -1.26468e-09 1.40208e-07)
(3.508e-09 -1.96869e-09 6.04687e-08)
(1.41395e-09 6.76117e-10 8.42776e-08)
(-1.22487e-09 6.05217e-10 1.52345e-07)
(-1.6456e-09 -1.1204e-09 2.62845e-07)
(4.6061e-10 2.76176e-09 3.62793e-08)
(-1.30912e-09 -3.7805e-10 2.23497e-07)
(-1.15094e-09 1.88099e-09 4.09506e-07)
(2.26118e-09 2.93524e-09 3.0399e-07)
(2.18691e-09 3.37159e-09 3.18121e-07)
(-1.81807e-09 9.66947e-10 2.69335e-07)
(-2.20476e-09 2.45421e-09 2.49659e-08)
(-1.06264e-10 5.46018e-10 1.99197e-07)
(2.35647e-09 -3.33193e-09 1.61706e-07)
(-1.68877e-10 -1.69942e-09 2.45827e-07)
(4.83002e-10 2.26592e-10 1.81823e-07)
(-3.54855e-09 -1.30215e-09 4.59868e-08)
(-9.48751e-10 1.52327e-09 1.7461e-07)
(-1.29482e-09 2.65149e-09 1.6986e-07)
(1.57624e-09 1.06722e-09 2.54242e-07)
(1.57806e-09 2.9692e-09 2.2526e-07)
(-8.45844e-10 1.35135e-09 1.97505e-07)
(1.76774e-09 1.88642e-09 1.71062e-08)
(-2.89144e-09 1.25496e-09 2.57827e-08)
(1.6982e-10 -2.47143e-09 1.56187e-07)
(-4.70379e-10 7.36103e-10 2.65864e-07)
(-1.5312e-10 1.75545e-09 1.90088e-07)
(-1.04118e-09 7.01484e-10 1.70539e-07)
(-3.14183e-10 2.18736e-09 1.8139e-07)
(-4.5714e-10 2.46627e-09 2.45496e-07)
(1.1564e-09 -7.25871e-10 2.49411e-07)
(7.56658e-10 1.83e-09 2.51851e-08)
(3.80988e-10 -2.00505e-09 1.23e-07)
(-1.34299e-08 1.06873e-09 1.73454e-07)
(-1.07091e-10 3.16403e-09 6.06236e-08)
(-1.03496e-09 6.74056e-09 1.0162e-07)
(7.91223e-10 3.14084e-09 3.07116e-07)
(2.14013e-09 8.45113e-10 2.13566e-07)
(-5.31463e-10 -1.98789e-09 2.00815e-07)
(1.10839e-09 3.26805e-10 2.53227e-07)
(-3.71989e-09 2.38256e-09 1.55559e-07)
(-1.05188e-09 -1.34433e-10 2.79527e-07)
(2.70452e-09 -5.13949e-09 2.03782e-07)
(4.25246e-09 -1.81863e-09 3.76949e-07)
(5.84677e-10 -1.74683e-09 1.89669e-07)
(2.77149e-09 -3.18399e-09 2.0016e-07)
(3.16943e-09 -1.04767e-09 2.69238e-07)
(2.28255e-09 2.88993e-09 5.93978e-08)
(2.79783e-09 1.40122e-09 4.97976e-07)
(-3.97065e-10 -1.77499e-09 4.26261e-08)
(-1.63039e-08 -2.08194e-09 1.49272e-07)
(4.87335e-09 -1.98371e-09 1.37936e-07)
(-1.37058e-08 -3.69205e-10 1.60526e-07)
(1.33565e-09 -8.79897e-10 2.21994e-07)
(-4.46273e-08 1.06986e-09 2.91282e-07)
(2.91837e-11 -1.37218e-10 1.20978e-07)
(5.00152e-10 9.19648e-11 2.85713e-07)
(-1.31477e-09 9.41843e-10 3.16294e-07)
(1.54032e-09 1.21968e-09 1.8702e-07)
(-5.51297e-10 -1.71023e-10 4.52161e-08)
(-5.35011e-09 1.96009e-10 1.18503e-07)
(-2.88938e-08 2.01744e-09 2.09994e-07)
(-2.18485e-10 -5.62867e-10 1.84092e-07)
(-1.3632e-10 2.41796e-09 1.09518e-07)
(-1.5959e-08 8.81621e-10 2.16126e-07)
(-1.90451e-09 1.6446e-09 2.18494e-07)
(2.81574e-09 1.54994e-09 3.41849e-07)
(-1.74957e-09 -1.11177e-09 5.62898e-08)
(2.27984e-09 2.30359e-09 6.47262e-08)
(-2.37741e-10 3.11396e-10 3.54012e-08)
(1.58961e-09 1.18603e-09 2.50758e-08)
(-4.60186e-10 -6.0493e-10 5.56621e-08)
(-8.42912e-09 2.24661e-09 2.23404e-07)
(-3.30443e-10 4.72955e-10 1.81918e-07)
(-2.63578e-09 -2.35855e-09 2.41399e-08)
(-3.62782e-09 9.55692e-10 2.59667e-08)
(2.2243e-09 2.31261e-09 2.93743e-07)
(-2.48014e-08 5.49478e-09 1.67055e-07)
(-2.4101e-09 -1.4928e-10 5.78509e-08)
(-3.83305e-10 -9.05104e-10 2.22093e-07)
(-1.74747e-09 1.39578e-09 1.20723e-07)
(1.24294e-09 -1.55677e-10 2.07301e-07)
(1.72656e-09 2.4968e-09 5.54133e-08)
(-1.85611e-09 -1.85555e-09 1.13184e-07)
(1.82542e-10 1.61282e-09 2.098e-07)
(-3.80919e-11 1.33372e-09 2.37002e-07)
(-1.3497e-09 2.67039e-09 3.7952e-07)
(-3.17561e-09 4.72252e-09 5.56991e-08)
(-1.21372e-09 -2.33719e-09 3.14962e-08)
(-3.55926e-08 5.79361e-10 2.01616e-07)
(-3.95642e-09 2.04489e-09 3.56851e-08)
(-2.86674e-10 3.26522e-09 3.18363e-07)
(-5.0832e-09 -1.16093e-09 3.69753e-08)
(6.11489e-10 3.15728e-09 1.6453e-07)
(-8.73675e-10 -2.37258e-10 2.62536e-07)
(2.17296e-09 3.17068e-09 3.8386e-07)
(-1.21579e-09 -9.59358e-10 7.31401e-08)
(1.20547e-09 -2.1307e-09 1.58505e-07)
(-2.42278e-09 -4.37357e-10 4.92083e-08)
(-4.88734e-09 -2.23591e-10 3.8156e-08)
(1.84961e-11 -1.39617e-09 2.23653e-07)
(-2.82579e-09 1.04492e-09 1.86492e-08)
(2.04155e-09 -1.49987e-09 1.60748e-07)
(-9.75148e-10 -3.62815e-09 7.69784e-08)
(-9.56672e-11 1.14726e-09 3.07283e-07)
(-7.69426e-10 7.98093e-10 2.25814e-07)
(3.60596e-09 1.32291e-09 2.49583e-08)
(-2.41679e-09 -6.69066e-09 1.59521e-07)
(3.99611e-10 -4.33458e-10 2.37958e-07)
(-1.82601e-10 1.9105e-09 3.94534e-08)
(3.45583e-10 -1.5902e-09 2.60263e-07)
(-2.09597e-09 6.53904e-09 9.75172e-08)
(9.40296e-10 -1.42119e-09 2.37594e-07)
(4.88783e-12 1.50681e-09 1.91856e-07)
(2.42053e-09 2.78261e-10 7.18717e-08)
(-3.74546e-09 -5.76676e-10 2.70585e-08)
(-1.19718e-09 -1.96015e-09 1.14901e-07)
(-3.82917e-08 -4.38283e-10 2.43499e-07)
(-1.59881e-09 8.21313e-10 2.57167e-07)
(1.30688e-09 5.35177e-09 9.56059e-08)
(4.033e-09 3.42414e-10 2.19108e-07)
(4.75017e-10 1.22231e-09 3.09487e-08)
(2.43118e-10 1.30983e-09 1.69273e-07)
(1.04952e-09 1.32786e-09 3.01399e-08)
(-1.6721e-10 4.72e-09 3.02034e-07)
(2.27448e-09 2.49816e-09 3.01665e-07)
(7.77594e-10 5.25487e-10 1.97628e-07)
(-2.01531e-09 -2.07292e-10 1.86745e-08)
(2.5236e-09 2.86811e-09 3.33266e-07)
(4.7751e-10 1.6314e-09 1.76586e-07)
(8.65408e-10 3.20978e-09 3.34596e-07)
(2.65283e-10 3.92749e-10 7.61857e-08)
(-2.95196e-08 1.07933e-09 2.22392e-07)
(-1.49715e-09 2.08309e-09 2.46063e-07)
(2.94271e-10 -8.38871e-10 8.60743e-08)
(-2.1263e-10 -3.39614e-10 2.08455e-07)
(-3.87356e-08 4.67534e-09 2.09962e-07)
(-3.62064e-10 -4.66506e-10 1.95408e-07)
(-9.72764e-10 -2.45255e-09 4.13449e-08)
(-2.4353e-09 6.27507e-09 1.27111e-07)
(3.34421e-10 1.91778e-10 1.6155e-07)
(1.54864e-10 -1.99374e-09 2.27034e-07)
(-1.83803e-09 2.98797e-09 4.06451e-08)
(-1.21089e-10 -3.3428e-09 2.41356e-07)
(6.10511e-09 -3.22494e-10 1.90075e-07)
(-2.39315e-09 2.61035e-09 3.17406e-08)
(2.37709e-10 -1.3079e-10 1.73838e-07)
(-1.55454e-08 7.91483e-10 1.58229e-07)
(-1.58995e-09 -6.03076e-09 3.40568e-07)
(4.17947e-10 5.54146e-11 1.76071e-07)
(6.278e-10 1.85985e-10 1.57418e-07)
(1.64985e-09 6.11694e-10 2.73264e-07)
(1.66978e-09 1.94497e-09 2.68667e-07)
(2.43443e-09 1.75384e-09 8.97012e-08)
(-1.11673e-10 7.2715e-09 9.3289e-08)
(3.86078e-09 -3.18249e-10 3.24078e-07)
(-2.62426e-08 -7.44447e-10 2.2471e-07)
(4.3931e-10 6.70884e-10 2.23307e-07)
(8.57047e-10 7.31859e-11 2.00005e-07)
(2.99708e-09 -1.44924e-09 1.49869e-07)
(2.02976e-11 -4.29904e-10 3.18337e-07)
(-8.85937e-10 2.79493e-10 1.84159e-07)
(-3.06146e-09 -1.51623e-09 2.07465e-07)
(-3.45579e-09 2.52924e-09 2.51619e-07)
(-1.09679e-09 3.39846e-09 5.24921e-08)
(-2.48417e-09 -5.8343e-10 2.01222e-07)
(-1.73426e-09 -1.85695e-09 5.32647e-08)
(-4.2544e-10 -1.37531e-09 2.96618e-07)
(-1.22239e-09 -1.67742e-09 2.82589e-07)
(1.49317e-09 5.15046e-09 1.91587e-07)
(-7.60027e-10 -1.02679e-09 1.8068e-07)
(1.56273e-09 -1.89536e-09 2.26698e-08)
(-2.68422e-10 -1.94785e-09 1.23909e-07)
(-4.64025e-09 -2.00334e-09 9.08904e-08)
(-9.87044e-10 3.03307e-10 2.26808e-07)
(5.02572e-10 1.45033e-09 2.02421e-07)
(-2.34819e-08 -1.32885e-09 2.20561e-07)
(-1.40224e-09 1.15073e-09 2.80197e-07)
(-1.42563e-09 3.10208e-09 9.57681e-08)
(-1.11532e-08 6.04087e-10 1.36516e-07)
(-1.96334e-09 -1.35965e-09 2.52916e-07)
(3.29532e-09 9.29261e-10 3.78268e-08)
(5.18851e-10 1.34332e-09 2.07771e-07)
(-1.51158e-10 1.97155e-09 6.78768e-08)
(-8.5645e-10 -3.65829e-10 2.05474e-07)
(5.3614e-09 -1.86234e-09 4.10163e-08)
(4.27878e-09 1.48368e-09 3.1528e-07)