/*--------------------------------*- C++ -*----------------------------------*\
| =========                 |                                                 |
| \\      /  F ield         | OpenFOAM: The Open Source CFD Toolbox           |
|  \\    /   O peration     | Version:  2406                                  |
|   \\  /    A nd           | Website:  www.openfoam.com                      |
|    \\/     M anipulation  |                                                 |
\*---------------------------------------------------------------------------*/
FoamFile
{
    version     2.0;
    format      ascii;
    arch        "LSB;label=32;scalar=64";
    class       volScalarField;
    location    "22";
    object      nut;
}
// * * * * * * * * * * * * * * * * * * * * * * * * * * * * * * * * * * * * * //

dimensions      [0 2 -1 0 0 0 0];

internalField   nonuniform List<scalar> 
59516
(
7.96948e-05
0.000109976
0.000117202
0.000239736
0.00125578
0.000186304
0.000183207
9.10052e-05
9.48731e-05
0.000119964
0.00122882
9.50204e-05
0.00010021
0.000176345
0.000115575
9.77228e-05
0.000965189
0.000110316
0.000102808
0.000686823
0.000167316
0.000320041
0.000426172
0.000160953
0.000431825
0.000111905
0.000154884
0.000180311
0.000117634
0.000156047
0.000247749
0.000173799
0.0002278
0.000143307
0.000305441
0.000256577
0.000153472
0.000101378
7.4642e-05
0.000477874
8.95787e-05
0.000508353
0.000354046
0.000122153
0.000278991
9.87325e-05
0.000162796
0.000931039
0.000920804
0.000602797
0.000627577
0.000154342
0.000106612
0.000129093
0.000181612
0.000171626
0.000700054
0.000175152
0.00102405
0.000245075
0.000425082
0.000170756
0.000838326
0.000855171
0.000168162
0.000446916
0.000221251
0.000151004
0.000458674
0.000203056
0.000242108
0.000771887
0.000194682
0.000308008
0.00113551
0.000606053
0.000917898
0.000361844
0.000149982
0.000643016
0.000151094
0.000489741
0.000311513
0.000177784
0.000464281
0.00101201
0.000147419
0.000307826
0.000102605
8.58113e-05
0.000821437
0.00031624
0.000911857
0.000292262
0.000699473
0.00116858
0.000344617
9.97493e-05
0.000103805
0.000390773
0.00017271
0.000195934
0.000191237
9.81829e-05
0.000225483
0.000467805
0.000164528
9.04056e-05
0.00010122
0.000115767
0.000306191
0.000213552
0.000120599
0.000185267
0.000540387
8.65547e-05
0.000101344
0.000240274
0.000179371
0.000341046
0.00139724
0.000842086
0.000549204
0.000840696
0.00035745
6.84842e-05
0.000214009
0.000289002
0.000283129
0.00111588
0.00134559
0.000102785
0.000171238
0.000314596
8.72076e-05
9.87071e-05
0.000135816
0.000142181
0.000161455
0.000104521
0.00015627
0.00125477
0.000151769
0.000179279
0.0011381
0.000287642
0.000241714
0.000122019
0.000251941
9.63791e-05
9.16769e-05
0.000145724
0.000661576
0.000434333
7.21108e-05
0.000166825
0.000143098
9.68949e-05
6.71322e-05
0.000168521
0.000130833
0.000128354
0.000153926
0.000202372
8.48455e-05
0.000835754
0.000104692
0.00107379
0.000159385
0.000326295
6.9568e-05
9.07475e-05
9.24475e-05
0.000276173
0.000134719
0.000181067
0.000891061
0.000412743
0.000120135
0.000130968
0.000322364
0.000145278
0.000225293
8.8829e-05
0.00118796
9.4802e-05
0.000127164
0.000166121
0.000111524
9.02665e-05
0.000271915
9.54672e-05
0.000681737
7.42696e-05
0.00039357
0.00012459
9.79946e-05
0.000132005
0.000151007
0.000355185
0.000102298
0.00139465
7.82295e-05
0.000156505
0.000172893
0.000286376
0.00114878
0.000600053
0.000171438
0.000131451
0.00010875
0.000196714
0.000326152
0.000107824
0.000127272
0.000844102
0.000253875
0.000445222
0.000107618
0.000510107
0.000111625
0.000120213
0.000849735
0.000176728
0.000933878
0.000953601
0.000206535
0.000150669
0.000913757
0.000102347
0.000918153
0.000950637
0.00140011
0.00018675
0.000145891
0.000128515
8.83712e-05
8.56906e-05
0.00056297
0.000118928
0.0013198
0.000181278
9.37999e-05
0.000203334
0.00123691
6.21112e-05
0.000384722
0.000116174
0.000799253
8.53651e-05
0.00066247
0.000296919
0.00144255
0.000361506
0.000333746
0.000530395
0.000106479
0.000490828
0.000150048
0.000116288
0.000182324
0.00066343
0.000120051
0.000956907
8.57636e-05
8.61999e-05
0.000607822
7.3064e-05
0.000193324
8.70159e-05
9.78259e-05
0.00100556
6.88889e-05
8.04354e-05
0.00076732
6.64161e-05
0.000164655
0.000608385
0.000186768
0.000150715
0.0013379
0.000266972
0.000205386
0.000134639
0.00015409
0.000953049
0.00123161
0.000209476
0.00127053
0.00149294
0.00105117
0.00023085
0.000285403
8.07372e-05
0.000790413
0.00022296
0.000655626
0.000256773
0.00142949
0.00091839
9.68068e-05
8.92637e-05
0.000178811
0.000192871
0.000540727
0.000177672
0.000152328
0.000111952
0.000771514
0.000773261
0.000393069
9.66481e-05
0.000101068
0.00016583
9.62719e-05
0.00066571
7.89268e-05
0.00112605
9.21283e-05
0.000138959
0.000125642
0.000109916
0.00110928
0.00132497
0.00146008
0.000533496
9.30803e-05
0.000201284
0.000834397
0.000619178
0.000600421
9.69636e-05
0.000186848
0.000420897
0.000144499
0.000148963
0.00070342
0.00034577
9.60192e-05
0.000999789
0.000730289
0.00135479
0.000978631
0.000135578
0.000518255
0.00120394
9.9083e-05
0.001263
0.00107417
0.000217636
0.000188538
0.000480859
0.000312518
6.54592e-05
0.00015373
0.000159236
8.88356e-05
0.000152987
0.000267418
7.21908e-05
0.000135155
0.000184357
0.00125299
0.000423309
0.000180717
0.000431298
0.000449738
0.000155655
0.000297501
0.000110842
0.00014104
0.000154045
0.000678855
8.50442e-05
0.000632316
0.000162738
0.000200334
0.000155081
0.000793217
8.19028e-05
0.00010078
8.01139e-05
0.00126572
0.000189344
0.000101538
0.000262653
0.000180038
0.000200307
0.000128524
0.000208972
9.81014e-05
9.04052e-05
0.000589345
0.000135365
0.0013365
0.000131346
0.000111499
0.000112336
0.00114118
0.00107574
8.77476e-05
0.000156579
8.64613e-05
0.0012124
0.00115056
0.000166277
0.000208924
0.000333203
0.000353744
0.000525832
0.000192257
0.000179994
0.000162069
0.00106254
0.00131243
0.000152073
0.000958546
7.48862e-05
0.00114515
0.00106061
0.00119699
0.00104202
0.000953478
7.21566e-05
0.00126968
0.000104707
0.000792092
0.000110243
0.000510627
0.00109332
0.000308621
0.000324511
0.00013684
0.000151929
0.00016781
0.000894752
0.00133685
0.000299809
0.000153029
0.000135007
0.000180192
0.00013412
0.000493767
0.0011277
0.000471971
0.000213797
0.00132278
0.000207047
0.000203092
0.00014445
0.00010295
0.000258243
0.00053659
7.7984e-05
0.000318105
0.00017979
0.00114639
0.00118001
0.00125671
6.46136e-05
0.000541333
0.000985475
0.000212508
0.00132974
8.43683e-05
0.000905892
0.000375235
0.000169813
0.00122378
0.000138591
0.00015838
6.23619e-05
0.000823136
0.000181452
7.32624e-05
0.000174416
0.001022
0.000148227
0.000568585
0.00016743
0.000135063
0.000292394
0.000194604
0.000718081
0.000797303
0.00089675
0.000171725
0.000102115
7.74447e-05
0.000113518
0.00143389
0.00110958
0.000197314
0.000730378
0.00144867
0.000173309
0.000109997
9.47606e-05
0.000496233
0.00126343
0.000228393
9.43502e-05
8.96223e-05
0.000118009
0.00132876
0.000189252
0.000472101
0.000510131
0.00115053
0.000233378
0.000724073
0.000174289
0.000702807
0.000176963
8.72786e-05
0.000511426
9.8122e-05
0.000179098
0.000165942
0.00015549
0.000105303
0.000279754
9.80928e-05
9.45508e-05
0.000591076
0.000953246
0.000199159
8.52578e-05
0.000127545
0.000882374
9.87187e-05
0.000864835
0.000108552
0.000206519
0.00121501
0.000128433
0.000978131
0.000166092
0.00016396
0.00033847
0.00123143
0.000212642
0.000162908
0.00105891
0.000127315
0.000719777
9.4392e-05
0.00112684
0.000174667
0.000198317
0.00038814
0.000168077
0.00019771
0.000300807
0.000136306
0.000251324
0.00125392
0.000191623
8.97552e-05
0.00105557
7.55807e-05
0.00135704
0.00110794
0.00118871
0.00125031
0.000145667
0.000106759
0.00111257
0.000652595
0.00015846
0.000657817
0.00107362
0.000945322
0.00110905
9.9097e-05
0.000168705
0.000951151
0.000112543
0.000543758
8.01316e-05
0.000203947
0.00133419
8.65054e-05
0.000210887
0.00121548
0.000294172
0.000137788
0.00018102
0.00114857
0.00085225
0.00142689
0.000519921
6.84985e-05
0.00040198
0.00102265
0.000166052
0.00131095
0.000311952
0.000168182
9.63683e-05
0.00024585
0.000297234
0.000241599
0.000136027
8.40301e-05
0.00130113
9.86041e-05
0.000961704
0.00089022
0.00130767
0.0010365
0.00017478
0.000619243
0.000148859
0.000209064
9.77724e-05
0.000783047
0.000221134
0.000183896
0.00100442
0.000885486
0.000426327
0.000936047
0.000148536
0.00149121
0.000753423
0.00117542
0.000103416
0.000336113
0.00105733
0.000109794
0.000137618
8.21836e-05
0.000186936
0.000196339
0.000217308
0.00018528
0.000298468
0.000188769
0.000180821
0.00152383
0.000215927
0.000152747
0.000332332
9.14326e-05
0.000204155
0.000171336
9.7483e-05
0.000107504
0.000934667
0.000387034
0.000150326
0.000176626
0.000391826
0.000210716
0.000216915
0.000200518
0.000104243
0.00122463
0.00092356
0.000144322
9.35192e-05
0.000132777
0.00020841
0.00113376
0.000160409
0.000803655
0.000174519
0.000508646
0.000310777
0.000174239
9.72059e-05
0.000393891
0.000148961
0.000736725
0.000103749
8.17743e-05
0.00131621
0.000143511
0.000179427
0.000154486
0.000683208
8.85116e-05
9.6854e-05
5.26169e-05
0.000133531
0.0013305
0.000189264
0.000687669
0.00025645
0.000859091
0.000166455
0.000293738
7.18303e-05
0.000503202
0.000112001
0.000904866
0.000500588
0.00012896
0.00140956
0.00049359
0.00012651
0.000143039
0.000175965
0.00124298
0.000162889
0.000146452
9.53825e-05
9.94838e-05
0.000188518
0.00114573
0.00125534
0.000159254
0.000958072
0.00108262
0.00084632
0.000201226
0.000149148
0.000151195
0.00112135
0.00100699
0.000102693
0.000191364
6.61701e-05
0.000304804
0.00072205
8.79818e-05
7.77928e-05
0.000186401
0.000127065
0.000177537
0.00045777
0.000923366
7.11056e-05
7.7221e-05
0.000160142
7.2051e-05
0.000109199
0.00111068
0.00112601
0.00119592
0.000686338
6.34442e-05
0.000841646
0.000242444
0.000205546
0.00113893
9.41714e-05
0.000253517
0.000210684
0.000955542
0.00135648
0.000550247
0.00010543
0.00042274
0.00033677
0.00134963
0.000160759
0.00017996
0.000125485
0.00111709
0.000538958
0.00026012
0.000508964
0.000152902
0.00010418
8.71749e-05
0.00107108
0.000179078
0.000389674
0.000114046
0.00133895
0.000176427
6.91103e-05
0.000571732
0.000204917
0.000130763
0.000105246
0.000177485
0.000107577
0.000856054
0.000100768
0.000165052
8.96679e-05
0.000186411
7.75369e-05
0.00102072
0.00149233
0.000982614
0.000631443
0.00107771
0.000150554
0.000135245
0.000992646
0.000178305
6.69589e-05
0.000116536
0.000734336
9.82092e-05
9.46971e-05
0.000417544
0.000153398
6.83866e-05
9.03127e-05
0.000112578
0.000489959
0.000271304
0.000163347
0.000144926
0.000211726
9.45775e-05
0.000170447
0.000142917
0.000552933
0.00018
0.000117022
0.000267407
0.000466372
0.000187765
0.000584604
0.000821935
0.000131523
0.000185783
0.000118843
8.77237e-05
0.000186749
0.000605456
0.000180693
0.00109097
0.00054886
0.000184898
0.000456933
0.000536894
9.66194e-05
0.00124119
0.000161994
0.000151787
9.23571e-05
8.99796e-05
0.000161379
0.000359474
0.000479643
0.000987936
0.000870186
7.32782e-05
0.000538116
0.00138299
8.80012e-05
0.000169815
0.000869822
7.79302e-05
0.000172112
0.000666196
0.00117295
0.0004726
7.71267e-05
0.000165859
8.42402e-05
7.74383e-05
8.9585e-05
9.04849e-05
0.000164879
8.57547e-05
0.000668419
0.00106202
0.00162472
0.000224853
0.00011277
0.000171572
0.000168661
0.000143889
0.000163285
0.000261483
0.000208684
0.00129823
0.000360489
0.00133336
0.00117707
0.000225763
0.00014121
0.00102846
0.000178534
0.000259106
0.000466893
0.000141788
0.000491571
0.00115766
9.30641e-05
0.00105524
0.00141399
0.000958632
0.000104947
0.00145859
0.000167081
8.57462e-05
0.00101295
0.000195675
0.000103229
9.28052e-05
0.000143557
0.000130993
0.000475242
0.000964934
0.00096432
0.000493912
7.83003e-05
0.000179927
0.000517916
0.000653003
0.000133471
8.55639e-05
0.000506274
0.00124202
0.00115209
0.000171903
0.00118873
7.92164e-05
9.45481e-05
0.000172495
9.74359e-05
6.32489e-05
0.0010771
0.000120413
0.000863653
0.000862611
0.00082465
0.00129774
0.0009256
0.00101793
0.000940463
0.00134653
0.00146699
0.000207348
0.000161893
0.000162551
9.99962e-05
0.000683242
0.000150759
0.000161159
0.000780635
9.52171e-05
0.00149491
0.00148328
0.00130224
0.00040257
7.78169e-05
0.00117048
0.000296352
7.50767e-05
0.0012682
0.000171476
0.0012101
0.000144751
6.36014e-05
0.000754934
9.89309e-05
0.000152364
0.000779538
0.000606778
0.000365227
0.000138546
0.00106926
0.000140473
8.01184e-05
9.53477e-05
8.85083e-05
8.40001e-05
0.00140866
0.000103708
0.000470284
0.000752286
0.000113206
0.00129103
0.00138273
0.000109201
0.00127067
0.00104889
0.00010971
0.00133058
0.00015214
0.000148994
0.00101017
0.000618735
0.000229666
0.00112226
0.00010048
5.73309e-05
0.000901419
0.000190262
0.000784718
0.00106898
0.000105861
0.00020457
0.000193862
9.37751e-05
0.000150533
0.00022898
0.000177297
9.28257e-05
0.000162129
8.97436e-05
0.000824391
0.000636026
0.00141282
0.00120318
9.29925e-05
0.00061771
0.00115473
0.000100199
0.000322877
0.00014939
0.000138933
0.000550646
0.00135733
9.38163e-05
0.000615638
7.42108e-05
0.000117618
0.00017234
0.000152
7.62654e-05
0.000150792
0.000156926
0.000167013
0.000627957
9.15769e-05
0.00118074
0.000193489
0.00135868
9.29477e-05
8.54857e-05
8.14951e-05
0.00028797
0.000174418
0.000677996
0.000450486
8.60015e-05
0.000205012
0.000175836
0.00138999
0.000388177
0.00111165
0.000108511
8.25882e-05
0.000413365
0.00012462
0.000115255
0.00117692
0.000332859
9.98237e-05
0.000259247
0.000198836
7.62443e-05
0.0004319
0.00128348
0.000154727
0.000444991
0.000137861
0.00019873
0.000711551
0.000563234
0.00124991
0.000382103
9.49653e-05
0.000205085
0.000739494
0.000301864
0.00019781
0.000141411
0.00015031
0.000830945
8.41147e-05
0.000663397
9.3629e-05
0.00093931
0.000182889
0.000225664
0.000136028
0.000677493
0.00128952
0.000207465
0.000296108
0.000139348
0.000148116
0.00044009
0.000231977
0.00018124
0.000217499
0.000755264
0.000342821
0.000660901
8.79937e-05
0.000274127
0.000609249
0.000938092
0.000114369
0.000104237
9.17967e-05
0.000337641
6.54338e-05
0.000148608
0.00020401
0.00102032
9.85566e-05
6.89773e-05
0.000742322
0.000673464
0.000120265
0.000791138
0.00112482
0.000174865
0.000200491
0.00100418
0.00115158
0.000160998
0.000154258
0.00109658
0.000100087
0.000208505
6.61108e-05
0.00115183
0.000808102
0.00107379
0.000289203
0.00068176
0.000178743
0.000125345
0.00117709
0.000925122
7.68593e-05
0.000541768
9.09513e-05
9.78346e-05
0.000153817
0.000413853
0.000202166
0.000379067
0.000233592
7.29631e-05
0.00012093
0.000177426
0.00134706
0.00119704
0.000120169
0.00108022
9.83536e-05
0.000399528
0.000169687
0.000124406
0.000242075
8.83791e-05
0.000327351
7.74169e-05
8.49434e-05
8.28979e-05
0.000112417
0.000328068
7.9501e-05
0.000479345
0.000857517
0.000121277
0.000102194
0.000210334
0.000690682
0.00014676
0.000151414
0.000166931
9.01055e-05
0.000172379
0.000358531
9.82206e-05
0.000147781
0.000168472
0.000226394
0.00106064
0.000209728
0.000207444
7.97388e-05
9.9389e-05
0.00014453
0.000145818
0.000170844
0.00119592
7.73127e-05
0.000310543
0.000106199
8.95649e-05
0.000212837
0.000232154
0.00013483
0.000166971
0.000731422
0.000107379
0.000174048
0.00125429
7.56494e-05
0.000181055
7.0444e-05
7.35496e-05
0.000125038
0.000381476
0.00017274
0.00135265
0.00146402
0.00020231
7.46259e-05
0.000141151
0.000614676
0.000160826
0.000789017
0.000774758
0.000994575
0.000115903
0.000676638
0.00072181
0.000570697
0.000670564
0.00013293
0.000166442
0.000853915
9.27858e-05
0.000107411
0.00141202
0.000179167
0.000217782
7.85907e-05
0.000213799
0.000205201
9.67147e-05
0.000605531
0.000898399
0.00018788
0.000167356
0.000136105
0.000369486
0.000151559
0.000115533
0.00137743
0.00068319
0.000760486
0.000993594
0.00120989
0.000678168
0.000318728
0.000151721
0.00014524
0.000106677
5.70946e-05
8.38416e-05
0.0013157
0.00021112
0.000159717
9.27824e-05
0.000881289
8.96274e-05
0.000306258
8.35705e-05
0.000766829
0.00040259
0.000106337
0.0010602
0.000800417
0.000628606
0.000143208
0.000217264
0.0011007
0.00131335
0.000175499
7.2206e-05
0.000196824
0.00108605
0.000278715
0.000164816
9.92606e-05
0.000302259
7.11096e-05
0.00096334
0.000117923
0.000189397
0.000149469
0.000182279
6.07912e-05
0.00017499
0.000514175
0.000338789
0.00104213
0.000185927
0.000108508
5.60409e-05
0.000369464
8.40056e-05
0.000103406
7.0603e-05
0.00123603
0.000161252
0.00132014
0.000342979
0.000110342
0.00010639
0.000204453
0.000627689
0.00114483
0.0002727
0.000163003
7.58558e-05
9.38506e-05
7.31664e-05
0.000171585
0.000136991
0.00020006
8.46362e-05
0.00147653
0.000136027
0.000139423
9.09529e-05
0.000201104
0.000586372
0.000202019
0.000841794
0.00150714
0.000295174
0.000109677
0.00117391
0.000140985
0.000117508
0.00124341
0.000726558
0.000142171
0.0017403
0.000797532
0.000179656
0.000180339
0.000570495
0.00114312
8.33811e-05
0.000537382
0.00106752
0.000116659
9.3918e-05
0.000140835
0.000113484
0.00130854
0.000150598
7.44323e-05
0.000568321
0.000152204
0.000218474
9.00326e-05
0.000101344
0.000122824
0.000185494
8.12294e-05
0.000159258
0.000157403
0.000152701
0.000181354
9.3254e-05
6.0403e-05
0.00125148
0.000168767
0.00102233
0.000173274
0.000366968
0.000106512
0.000608351
0.000144947
0.000601937
0.00142756
8.7871e-05
0.00146548
0.000179109
0.000158031
0.000163228
6.56602e-05
0.000225778
0.000137565
0.000227083
7.63949e-05
0.000166367
0.000432869
0.000299472
0.00128912
0.000770794
0.000156428
0.000102789
8.55591e-05
0.000454032
0.00026199
0.000251098
0.000936213
7.29083e-05
0.000502544
0.000210764
0.000560552
8.33682e-05
0.00010455
0.000129512
8.57942e-05
0.00135286
0.000249327
0.000214028
0.000229597
0.000223107
0.000232132
0.000108087
0.000258045
0.000294023
0.00113276
0.000506073
0.000138438
6.63194e-05
9.33182e-05
0.000189114
0.00020121
0.000233967
0.000103251
0.000229682
0.000582334
0.000172921
0.000156244
0.00013742
0.000177306
0.00139578
9.3353e-05
0.000777633
0.000173005
0.000961399
0.000158431
0.000171391
0.00014058
0.000412614
0.000193858
0.000208722
9.8805e-05
0.00013025
0.00115718
0.000442489
0.00118438
7.91333e-05
7.99848e-05
9.13739e-05
0.000169583
0.000127724
0.000108744
0.000134625
9.2465e-05
0.00101106
0.000136174
0.000103434
6.39123e-05
0.000339335
0.000512448
9.23209e-05
0.000184919
0.00016991
0.000131806
0.000425747
0.000167576
6.52151e-05
8.76191e-05
0.00012745
9.24437e-05
0.000384851
6.91788e-05
9.78708e-05
0.000813781
0.000101233
0.000771493
0.00018787
0.000147025
0.000183976
6.80347e-05
0.000413043
0.000130964
7.80525e-05
0.000160404
0.000257602
0.000159414
0.000396421
7.48019e-05
0.000169466
9.69264e-05
0.000119002
0.000148997
9.59447e-05
0.000100122
0.000186088
0.000104541
0.000155883
7.40197e-05
0.00112348
0.000109045
0.00037973
0.000572375
0.000148652
0.000193026
0.000132819
0.000206794
0.000529386
0.000815403
7.84591e-05
0.000423315
8.05596e-05
0.000132952
0.000189948
0.000104684
0.000109873
0.00135742
0.000159446
0.000680172
0.00015484
7.40727e-05
0.000219512
0.000142288
0.000831985
0.000180264
0.000529069
0.000149085
0.000308481
0.000148442
0.000146839
0.000180722
0.00120015
0.00108871
0.000149326
9.07295e-05
0.000134519
0.000141215
0.000116226
0.000162609
7.29351e-05
0.000397122
8.15304e-05
0.00107392
0.000104327
0.000235962
0.000155663
0.00118575
0.000213465
9.73892e-05
0.00101654
0.00116244
0.000213786
0.000225098
0.000148089
0.00148901
0.00149966
0.000434188
0.000314662
0.0005483
0.000150931
0.000171138
0.000356807
0.000205722
0.000113311
0.000160671
0.00107105
0.000264334
0.000879567
0.0015117
9.06613e-05
0.000428662
0.000143008
0.000609491
9.23346e-05
0.000252663
0.000468193
0.000769223
0.00105725
0.000147438
0.00143831
0.000103913
0.00019444
0.000178211
0.000170403
0.000509271
0.000182185
0.000166895
8.83915e-05
9.8036e-05
0.000193465
0.000117042
0.000202184
0.000286365
9.75094e-05
0.00102419
9.80895e-05
0.000170174
7.69644e-05
0.00016283
9.97073e-05
0.00053401
8.79298e-05
0.000478986
0.00105641
0.000603864
0.000724302
0.00103891
0.000546675
0.00104398
0.000274598
0.000219004
0.000189606
0.000237399
0.000206707
9.76334e-05
0.000121906
6.58268e-05
0.00127222
0.000146048
0.000157989
0.00133902
8.46949e-05
8.00034e-05
0.000164278
0.000148419
0.00124472
7.51511e-05
9.21234e-05
0.000153512
0.000169119
0.000107396
7.14486e-05
0.000328252
0.000162111
0.000181529
0.0010092
0.00015617
0.000934089
0.000101606
0.000183935
0.00147116
9.1883e-05
0.00134494
0.000621553
0.000145973
0.000372098
0.000701332
0.000159592
0.000226289
0.00141411
0.000103844
0.000184283
0.000412687
0.000164521
0.000200989
0.000100271
0.00110423
0.0013892
0.000354702
0.000890037
0.000337737
0.00101856
0.000107522
9.04121e-05
0.00103062
0.000376936
0.000163545
0.000152006
0.000119889
0.000781641
0.000128714
0.00017599
0.000192956
0.000321247
0.000209341
0.000390841
0.000735848
0.00122459
0.000151509
0.000126911
0.000990848
0.000124015
0.000458777
0.000236454
9.33557e-05
0.000217523
0.000964021
0.000208925
0.000173772
0.000139381
0.000146686
0.000756573
0.00136508
0.00037512
9.86517e-05
7.08751e-05
8.41937e-05
0.000821418
0.00058142
9.50077e-05
0.0012101
0.00072014
0.000656094
0.000124298
0.000170802
0.000208925
8.28823e-05
0.00015744
0.000564617
0.000263248
0.00117486
0.000173336
6.06529e-05
0.00011829
0.000169134
0.000412766
0.000171242
9.62447e-05
0.000920814
0.000683893
0.00133296
0.000137557
9.61821e-05
8.96615e-05
0.00125564
0.000644618
0.000716282
0.000996216
0.000149442
0.00026368
0.000108867
0.00136987
0.000778547
0.000797787
0.000657425
0.00138554
0.000176503
0.00013574
0.000106976
0.00136443
0.000307219
0.000129523
0.00103855
9.04172e-05
0.000119484
0.000258314
6.91094e-05
0.000111129
9.27977e-05
0.00015865
0.000467307
0.000212053
9.61047e-05
0.000144405
0.000162467
0.000497554
0.00109662
0.000204738
0.000128264
0.000171853
0.000657716
0.000227983
0.000190436
0.0001701
0.000110017
8.98423e-05
0.000204226
0.000194471
0.000200009
6.99967e-05
0.000748698
0.000309471
0.000603928
0.000178835
0.000177781
0.0005217
0.000128317
0.000151332
0.000164095
0.000214154
9.44706e-05
0.000223394
0.000526734
0.000422176
0.00127994
0.000346534
0.000132105
5.96028e-05
0.000469435
0.00125167
0.000308674
0.000593681
0.000970872
9.77669e-05
9.2524e-05
0.000414929
0.000701165
0.00014552
0.000146534
9.75681e-05
0.000112023
0.000101071
0.00102503
8.78091e-05
0.000130755
0.000198492
6.83847e-05
0.00138916
0.00127029
0.000606938
0.000155278
7.88572e-05
9.63934e-05
7.16362e-05
0.000799163
0.000132935
0.00017138
0.000982515
0.000404154
0.000520326
0.000671656
9.79084e-05
8.51368e-05
0.000325974
9.26416e-05
0.000134212
0.000311359
0.000195702
0.00113151
6.15633e-05
0.000236922
0.000168116
0.000115612
0.000200886
6.75758e-05
0.000134204
9.39432e-05
8.2765e-05
0.000315446
0.000123344
9.22129e-05
0.000167735
0.000105953
0.0010909
0.00090093
0.000158444
0.00015264
0.000105688
0.000184225
0.000169767
0.00104219
0.00128271
0.000181475
0.000156816
9.31277e-05
0.00133419
0.00120042
0.00031294
7.08373e-05
0.000512948
0.000231287
8.16183e-05
0.00014722
0.00120723
0.000250813
0.000255072
0.000140717
0.000307642
0.000859637
9.1247e-05
0.000156102
0.000129082
0.000709745
0.000631302
0.000927835
0.000154307
0.000950239
0.000189561
0.000433688
0.000433403
0.00074171
0.000657549
9.36791e-05
0.000201385
0.000101008
0.00132739
0.00102476
0.000202661
0.000740054
0.000155891
9.55136e-05
0.000604863
0.000935346
0.000102596
0.000243893
0.000190353
8.52518e-05
0.000812502
0.000980369
0.000777133
0.000962469
0.000396133
0.000319187
6.37451e-05
0.000914362
0.000982749
0.000344491
9.01362e-05
0.000193944
0.000170561
6.64938e-05
8.66592e-05
0.00103085
0.00109987
0.000197298
0.000122798
0.00021119
0.000238452
8.42819e-05
0.000628276
0.000243608
0.000223851
0.00126109
7.74604e-05
0.000168438
0.000145453
0.000111116
0.000259982
0.000175911
0.000129606
0.000411335
0.000231861
0.000496598
0.00111473
0.000142142
0.000752248
8.42031e-05
0.000855206
6.2812e-05
0.000863757
0.00013235
8.31455e-05
0.000115834
0.000178341
0.00012003
0.000152957
0.000158013
0.000274281
0.000169968
0.00102607
0.00059477
0.000984931
8.17628e-05
8.90942e-05
0.000178366
0.000204988
0.000133085
7.91986e-05
0.000443396
0.000564507
0.000971319
0.000387757
0.000482054
0.00125144
0.000525896
0.000567796
0.000515816
0.000164751
0.000116253
0.00134537
0.00121954
0.000107284
0.000330159
0.000734123
0.000917777
0.000166889
0.000261793
0.00019171
0.00124254
0.000198618
0.000131297
0.000145829
0.000183862
0.000282209
0.000115552
0.000171342
0.000777656
0.000205595
0.000176536
0.000386601
0.000107953
7.34747e-05
0.000168441
0.000519061
0.000175496
9.98245e-05
0.000147055
0.00095833
0.000742699
9.49983e-05
0.000397904
7.88916e-05
9.90177e-05
0.00112485
0.000195746
0.000265667
0.000565377
0.00109965
0.000508411
0.0010296
0.00100599
0.000115814
0.00136279
0.000368797
0.00101617
0.000112705
0.000104195
0.00111686
7.76943e-05
0.000558616
0.000356697
0.000546238
0.000410077
0.00122944
0.000309202
0.000159721
0.000665353
0.00122953
9.01225e-05
0.000122179
0.00128579
0.000196506
0.000572929
0.000964651
8.28028e-05
0.000158187
0.000165223
9.41923e-05
0.000869023
0.000505238
8.40093e-05
9.7495e-05
0.00010177
0.000156507
0.000151847
0.000143985
0.000226915
0.000233969
0.000832493
0.00124947
0.000240969
0.000335482
0.000325431
0.000139351
0.00010337
0.00107084
0.00120324
0.0014122
0.00146606
0.000146069
0.000172015
0.000180935
9.71929e-05
0.000565738
0.00112504
0.00118715
8.34617e-05
0.00043247
0.000881255
0.000180858
0.00145579
0.0007093
0.000970378
0.00122688
0.000123756
0.000117843
0.000100908
0.000151672
0.000570163
0.000312193
0.000102161
0.00042561
7.50943e-05
8.69907e-05
8.12103e-05
0.00124924
6.73149e-05
0.000183308
0.00101856
0.000157366
0.000151249
0.000889797
0.00128661
9.98575e-05
0.000169084
7.28665e-05
0.000175121
0.00106983
0.000175195
0.000148136
0.00129208
0.00120907
0.000781299
0.000169238
0.000825981
0.000524007
0.000701525
0.000318594
8.51264e-05
0.000396344
0.000106459
7.88338e-05
9.38119e-05
0.00109629
0.000124799
0.000824961
0.000275895
8.15681e-05
0.000103986
0.000170535
0.000113104
0.000165709
8.83309e-05
0.000320909
0.000390462
0.000925192
0.000483305
0.000144309
0.000180436
0.000760204
5.84587e-05
0.000139042
0.000153747
0.00015151
0.000926016
0.000214333
0.00057517
0.000118125
0.000765274
0.000131267
0.000557393
0.000135327
0.000962639
0.000156628
0.000142729
0.00010803
0.000181275
0.000134936
0.0013595
0.000153898
0.0011474
0.000406589
0.00010071
6.18269e-05
7.83197e-05
0.000147302
0.000140443
0.000157211
0.000102406
0.00120718
9.68979e-05
0.000502069
8.99286e-05
0.000145823
7.91238e-05
0.000135037
0.000178688
0.000177033
0.000335302
9.95089e-05
0.000962172
0.00010835
0.00124396
0.000187704
0.000107905
8.47703e-05
0.000504022
0.000658693
0.000178377
0.000196564
0.000664085
0.000585579
0.000281978
0.000172512
0.000879169
0.000547403
0.000801097
0.00025184
0.000219748
7.37422e-05
9.46319e-05
0.000468751
0.000142652
8.08216e-05
0.000340402
7.9913e-05
8.49211e-05
0.000160984
0.000126549
0.000104838
0.00105378
0.000195211
0.000602096
0.000306486
0.000719385
0.000209578
0.00129013
0.000100753
9.81897e-05
0.000375555
0.000756653
0.000245083
0.000392851
0.000667689
0.000486573
0.00030911
0.000150393
0.00037569
0.00139672
0.000187276
0.00014079
0.00019402
0.000207282
9.53555e-05
0.000151414
0.000468307
0.00013352
0.000196099
0.000159776
0.000150053
0.000142997
0.000844309
0.000144833
0.00110578
0.000161782
0.000106942
0.000693587
0.00126195
0.000674344
0.000180286
0.000250058
9.39823e-05
9.28302e-05
0.000501319
0.000176056
0.00013423
0.000269315
0.000218726
0.00115098
0.00017286
0.000156448
8.75187e-05
0.00143012
0.00137329
0.000606699
0.000152867
0.000161005
0.000153556
0.000418038
9.18112e-05
0.000134621
0.000107181
7.82944e-05
0.000180352
8.68047e-05
0.000207806
0.000146552
0.000311758
0.00119451
0.000563776
0.000193217
9.38093e-05
0.000121419
0.0011683
0.000469324
0.000154594
0.000648359
8.5135e-05
9.97958e-05
0.000142575
0.0003268
8.84602e-05
0.00137978
0.00117124
9.71595e-05
0.000159529
0.000788216
0.000600843
0.00101953
8.802e-05
0.000255215
0.000208248
0.000239547
0.000150467
0.000992495
0.00015515
9.77482e-05
0.000180557
0.000163398
0.000346819
8.96881e-05
0.000140083
0.000142922
0.000316979
0.000532107
0.0011819
8.97665e-05
0.000223765
0.000674098
0.000117522
0.00013396
0.000487399
0.00103832
0.00102995
0.000199098
0.000433855
0.00012336
0.000110032
0.000194477
0.00104041
0.000898368
8.08683e-05
0.000441724
0.000194273
0.000104836
0.000167726
0.000171922
0.000533701
0.000647207
0.000367981
0.000154892
0.000969534
0.000144289
0.00122846
9.33282e-05
0.000172922
0.000897986
0.000689517
9.3417e-05
0.000314235
0.000714225
0.000770884
0.0010289
0.000104975
0.000193695
0.000846055
0.000336224
0.000269172
0.000597014
9.72451e-05
0.000225289
0.000107846
9.48859e-05
0.000435848
0.00148794
7.1271e-05
0.00049413
0.000173759
0.000147627
0.000122885
0.000896477
0.000547489
0.000143938
0.000159118
7.21475e-05
0.000343147
0.000345795
0.000185712
7.79574e-05
0.00067495
0.000864009
0.0004914
0.000318851
9.93191e-05
0.00136542
0.000291142
0.000724202
7.68528e-05
0.00020127
0.000198012
0.000137728
9.6543e-05
0.000414496
0.000530709
0.000905159
0.000617421
0.00109839
0.000671442
0.000486203
0.000904057
9.52866e-05
0.000589455
0.000646914
7.6992e-05
0.000658809
7.46314e-05
0.00017096
0.000119234
0.000251991
0.00021227
0.000147298
0.000193036
7.73958e-05
0.000176052
0.000289362
0.000574639
0.000353021
0.000111069
0.000116959
0.000710462
7.71594e-05
0.000207975
0.000300483
0.000151544
0.000135432
0.000376152
0.000249012
0.000211185
7.35302e-05
0.000140726
0.000197463
0.000264707
0.00122287
0.000170885
0.0004927
0.000694234
0.000149877
0.00142842
6.89593e-05
0.00102611
0.000141153
0.000126064
7.73749e-05
0.00138336
0.000781687
0.000166144
0.000700169
0.000149765
0.000166273
0.00029675
8.88009e-05
0.000747016
0.000601757
0.000974368
9.7946e-05
7.46175e-05
0.000342922
0.000607424
0.000294513
0.000132554
0.00016644
0.000161577
0.000454784
0.000137929
0.00124125
6.19301e-05
7.48418e-05
0.000506169
0.000624699
0.00062694
8.40874e-05
0.000103662
9.40706e-05
0.000160908
0.000283727
0.000116611
9.86285e-05
0.000160456
0.000311573
0.000253627
0.000414859
0.0008812
0.000259515
0.000988267
0.000157547
0.000133114
0.000114866
0.000137821
0.000459231
6.05718e-05
0.00126741
0.000876843
0.000269989
0.000171998