/*--------------------------------*- C++ -*----------------------------------*\
| =========                 |                                                 |
| \\      /  F ield         | OpenFOAM: The Open Source CFD Toolbox           |
|  \\    /   O peration     | Version:  2406                                  |
|   \\  /    A nd           | Website:  www.openfoam.com                      |
|    \\/     M anipulation  |                                                 |
\*---------------------------------------------------------------------------*/
FoamFile
{
    version     2.0;
    format      ascii;
    arch        "LSB;label=32;scalar=64";
    class       volScalarField;
    location    "22";
    object      p;
}
// * * * * * * * * * * * * * * * * * * * * * * * * * * * * * * * * * * * * * //

dimensions      [0 2 -2 0 0 0 0];

internalField   nonuniform List<scalar> 
59516
(
0.148395
0.00944027
0.00972799
0.00200112
0.158247
0.179567
0.1495
0.131638
0.0487773
-0.000893722
0.154694
0.149931
0.109841
0.148196
0.13819
0.0483037
0.149664
0.155843
0.152719
0.147277
0.152135
0.130669
0.148885
0.102662
0.041989
0.100804
0.0613895
0.155253
0.150908
0.1359
0.162536
0.155446
0.0765511
0.00129672
0.153026
0.124644
0.0419167
0.158467
0.151571
0.00838686
0.00998487
0.155009
0.152186
0.0014414
0.15115
0.0240002
0.151712
0.152119
0.160515
0.153487
0.166668
0.00137934
0.0777804
0.132506
0.152254
0.150492
0.156171
0.00162759
0.102763
0.154047
0.00124472
0.123951
0.102982
0.149636
0.00206902
0.151486
0.00483765
0.12728
0.161241
0.151061
0.128636
0.147313
0.0273188
0.14805
0.126406
0.150526
0.151433
0.0176389
0.110724
0.153454
0.00260213
0.153279
0.152572
0.0705339
0.153226
0.14663
0.048397
0.147127
0.0781155
0.15591
0.157273
0.128874
0.142685
0.127179
0.127797
0.160024
0.13564
0.131852
0.153086
0.108727
0.0533781
0.0913452
0.132981
0.00476046
0.0283834
0.00332849
0.00315625
0.0451311
0.0817046
0.112399
0.159636
0.0555556
0.128554
0.160355
0.140472
0.121633
0.0204147
0.132696
0.133669
0.01961
0.133919
0.131897
0.0386441
0.132638
0.158425
0.153336
0.141439
0.156523
0.166646
0.142
0.1398
0.00979013
0.128193
0.142696
0.142991
0.125328
0.158873
0.138384
0.0929957
0.145799
0.0585344
0.0718814
0.131741
0.0569555
0.146687
0.144554
0.151387
0.147912
0.165539
0.143329
0.14657
0.00174117
0.140663
0.00211976
0.142009
0.00403125
0.00212662
0.142952
0.143534
0.138363
0.147262
0.14691
0.1374
0.00367374
0.120593
0.0185282
0.0479979
0.144014
0.144287
0.00222755
0.142107
0.142159
0.139271
0.138724
0.139367
0.152135
0.121044
0.152822
0.0082084
0.121061
0.140437
0.0824778
0.0974589
0.140829
0.140336
0.0536415
0.074554
0.0405026
0.141269
0.139544
0.000426694
0.0818092
0.144628
0.139885
0.145153
0.0123901
0.0933807
0.0927062
0.00254727
0.138768
-0.000658953
0.0391857
0.131787
0.107538
0.12241
0.0833548
0.144678
0.00158228
0.105151
0.134844
0.0246718
0.154948
0.134725
0.122208
0.135796
0.0614897
0.143996
0.0129919
0.116608
0.135825
0.136442
0.144828
0.138048
0.00266606
0.136924
0.120697
0.104949
0.110569
0.138626
0.0221992
0.136562
0.0821353
0.138281
0.0870785
0.0909654
0.139776
0.137854
0.0324441
0.137444
0.0324054
0.141054
0.083105
0.0820723
0.00186784
0.141759
0.141559
0.139352
0.0072659
0.139022
0.140866
0.00857759
0.139231
0.14117
0.0959769
0.140624
0.140979
0.0494285
0.1372
0.114073
0.135076
0.105933
0.136942
0.137998
0.137671
0.124942
0.0365951
0.117882
0.0445758
0.136011
0.101307
0.149793
0.122105
0.0470636
0.101842
0.137209
0.124129
0.101979
0.136475
0.135125
0.0615445
0.13804
0.109825
0.104008
0.135891
0.135402
0.149332
0.14049
0.00411482
0.137524
0.124615
0.136949
0.135574
0.127117
0.0172991
0.129509
0.081221
0.12507
0.123815
0.136152
0.124333
0.124707
0.0374209
0.0643958
0.122196
0.126792
0.100216
0.0134313
0.123659
0.125714
0.0522327
0.0418218
0.125529
0.096635
0.0923819
0.151736
0.125861
0.132052
0.160878
0.125119
0.0401998
0.0822098
0.130967
0.0866927
0.132647
0.109795
0.126288
0.154938
0.131797
0.104673
0.132767
0.0146063
0.145823
0.102315
0.132605
0.115331
0.136415
0.137315
0.122737
0.154749
0.134671
0.123077
0.121821
0.133018
0.0308849
0.0679434
0.134583
0.0636155
0.137037
0.132862
0.114444
0.137542
0.138801
0.0234432
0.0779523
0.104957
0.0305948
0.0047888
0.159807
0.163727
0.121524
0.0204397
0.14331
0.153696
0.129286
0.0204996
0.132613
0.132144
0.143168
0.162966
0.134299
0.0561525
0.053847
0.131978
0.106989
0.119419
0.132856
0.132958
0.1295
0.112514
0.12713
0.143399
0.000303425
0.153935
0.00586249
0.0119624
0.132852
0.00430333
0.154252
0.13236
0.00940629
0.00903286
0.0356104
0.130159
0.158319
0.131519
0.15889
0.00641533
0.0487583
0.130491
0.130552
0.136951
0.128672
0.113529
0.135904
0.136664
0.0383217
0.0929849
0.136591
0.136333
0.135624
0.0233996
0.0152609
0.0158518
0.0858852
0.122691
0.00678861
0.0228741
0.0449718
0.00252671
0.129534
0.128509
0.131762
0.131326
0.137652
0.131396
0.109009
0.128363
0.0955823
0.131628
0.115885
0.133033
0.130634
0.123828
0.0858298
0.13744
0.154498
0.0154097
0.133262
0.107567
0.0537755
0.10862
0.117201
0.134447
0.133082
0.131926
0.131362
0.0521999
0.130709
0.109847
0.0178369
0.118824
0.164021
0.0957667
0.0413196
0.131816
0.116623
0.130353
0.0904895
0.130787
0.0401937
0.131223
0.00207903
0.00452799
0.129363
0.152566
0.128331
0.121711
0.0238395
0.122583
0.121489
0.0274007
0.126012
0.121937
0.120239
0.119715
0.0672608
0.122824
0.121027
0.0882845
0.120483
0.0587981
0.118981
0.155866
0.119891
0.16593
0.120081
0.138386
0.0569659
0.0663854
0.10792
0.0022505
0.0014043
0.115445
0.124211
0.126217
0.104956
0.121562
0.032116
0.128733
0.128096
0.156266
0.0933019
0.0830792
0.109193
0.12772
0.015017
0.12535
0.148493
0.00258695
0.185474
0.128427
0.0430554
0.146207
0.114087
0.150426
0.122064
0.110525
0.12012
0.129134
0.113315
0.129358
0.143023
0.0509425
0.050467
0.158455
0.0017311
0.128357
0.125108
0.15845
0.124568
0.146123
0.00071209
0.124571
0.0574066
0.000266069
0.100983
0.025067
0.157291
0.131508
0.0462447
0.00179422
0.136456
0.0852687
0.125236
0.135866
0.125005
0.143473
0.000299146
0.0708939
0.0464021
0.125219
0.0229109
0.0986375
0.128853
0.0883057
0.127943
0.00142871
0.130407
0.0412753
0.12851
0.108753
0.0773157
0.0724879
0.129678
0.00132547
0.0275101
0.124226
0.0547385
0.105304
0.116488
0.0814906
0.0784196
0.124349
0.124141
0.139799
0.124656
0.0777419
0.12445
0.123555
0.0744816
0.0681702
0.000732535
0.123493
0.12404
0.124446
0.0650688
0.120321
0.00819489
0.124565
0.0032914
0.129635
5.25838e-05
0.0156303
0.11184
0.0833603
0.00667497
0.12477
0.157174
0.00308706
0.0117005
0.123874
0.122533
0.0217892
0.123776
0.123445
0.0908695
0.0264758
0.129987
0.125967
0.00976121
0.124435
0.124095
0.0986233
0.124126
0.164992
0.125151
0.158179
0.11287
0.160963
0.114083
0.0156183
0.145461
0.0033807
0.00499671
0.162025
0.160721
0.114958
0.124621
0.156607
0.154079
0.0853043
0.0701561
0.106605
0.0419612
0.112076
0.0784906
0.154582
0.114356
0.116252
0.123474
0.118251
0.162992
0.109413
0.119652
0.0351146
0.119355
0.0933492
0.0111389
0.119043
0.119004
0.119885
0.09511
0.059543
0.171031
0.0822251
0.0831798
0.0984229
0.135107
0.119971
0.041628
0.114229
0.0959825
0.00877289
0.0436951
0.1202
0.134901
0.100385
0.0957265
0.120246
0.120321
0.0514708
0.138536
0.123381
0.0896055
0.122374
0.103267
0.126343
0.121738
0.00606234
0.0175717
0.114316
0.163507
0.0925944
0.0865632
0.00203117
0.0987526
0.121592
0.0765942
0.125406
0.123785
0.058685
0.0804963
0.124459
0.146262
0.129712
0.106073
0.162786
0.124858
0.0209545
0.128422
0.165716
0.0142183
0.0797896
0.136458
0.120354
0.0503783
0.11808
0.0152282
0.0116292
0.106405
0.120605
0.162746
0.130541
0.120088
0.119931
0.121863
0.0595805
0.00660874
0.0416814
0.130151
0.162088
0.0954717
0.121094
0.0869186
0.0371132
0.120361
0.0403057
0.120401
0.150239
0.0803452
0.00289494
0.132516
0.0633539
0.121874
0.0117133
0.0498348
0.0971716
0.133114
0.121363
0.122062
0.163406
0.134068
0.0239807
0.165604
0.00177374
-0.000285766
0.121976
0.0263094
0.0731822
0.0961443
0.070465
0.162832
0.120899
0.132298
0.119082
0.0284688
0.103988
0.032176
0.0819042
0.131986
0.119523
0.119199
0.118811
0.0477792
0.14158
0.113636
0.0417852
0.119854
0.118409
0.118615
0.111806
0.119588
0.0139893
0.00787771
0.119184
0.00262054
0.077681
0.0873334
0.00790044
0.09123
0.105543
0.14817
0.114028
0.128473
0.107839
0.0821056
0.119491
0.120468
0.1203
0.0711133
0.119889
0.14184
0.0102156
0.00142622
0.0867251
0.0738471
0.00209262
0.119541
0.119401
0.120664
0.0124864
0.0187396
0.118684
0.13533
0.0194982
0.0243013
0.163261
0.15577
0.120904
0.0250625
0.124776
0.112615
0.126889
0.106167
0.117419
0.157761
0.10633
0.105922
0.055442
0.106852
0.15798
0.0205174
0.115801
0.106112
0.0674342
0.1253
0.125939
0.0570699
0.122458
0.134438
0.124416
0.106566
0.150291
0.0315376
0.105561
0.132507
0.0100466
0.112762
0.0453061
0.104644
0.0602516
0.157595
0.108272
0.00165087
0.104208
0.104474
0.109923
0.105733
0.0985619
0.0025122
0.0261529
0.123692
0.111124
0.0946699
0.12427
0.0712165
0.134615
0.0148066
0.111275
0.0516712
0.102268
0.124324
0.0102137
0.11194
0.110626
0.158443
0.0159928
0.12641
0.136191
0.0262575
0.109676
0.0263584
0.0910642
0.12022
0.125936
0.10895
0.108193
0.108073
0.163018
0.0195096
0.125675
0.0690576
0.0121059
0.109101
0.127905
0.114664
0.114357
0.0199982
0.11556
0.116202
0.065623
0.138577
0.16111
0.147967
0.0903302
0.115872
0.00317708
0.153586
0.107277
0.115315
0.0987833
0.115729
0.115407
0.117841
0.12408
0.11671
0.125665
0.115332
0.145498
0.14652
0.115414
0.122096
0.114449
0.126342
0.126528
0.00883416
0.0808561
0.0948428
0.00845892
0.121202
0.116783
0.120437
0.0688374
0.00376757
0.0717145
0.114821
0.121708
0.121793
0.0780883
0.0900501
0.120989
0.159254
0.116895
0.00504405
0.0117636
0.130876
0.117908
0.0744012
0.0979575
0.116824
0.0809067
0.112199
0.112723
0.112494
0.0989302
0.122848
0.11254
0.164
0.0147447
0.112327
0.164586
0.112679
0.138593
0.0255643
0.111394
0.0756723
0.057361
0.112455
0.112271
0.0734875
0.0741565
0.111551
0.0635678
0.111551
0.112317
0.115889
0.0702196
0.110557
0.0182596
0.111868
0.111588
0.0784596
0.110619
0.110921
0.148702
0.108287
0.0935798
0.108191
0.110285
0.0793894
0.0370529
0.0693464
0.154403
0.110936
0.11131
0.0962716
0.0384015
0.15468
0.0964813
0.0993293
0.0964094
0.0966517
0.00766471
0.00322718
0.031309
0.0665417
0.111434
0.110816
0.00379959
0.128987
0.106097
0.0508114
0.154602
0.094621
0.093988
0.156636
0.0953919
0.12702
0.0290473
0.094575
0.123623
0.118978
0.0946512
0.0724103
0.0255744
0.0949132
0.129823
0.120529
0.0738328
0.0342922
0.0580746
0.0994925
0.060269
0.129758
0.0573785
0.0975971
0.10329
0.159941
0.0770719
0.0070761
0.0364872
0.0580695
0.0951884
0.127623
0.102484
0.102458
0.0139505
0.0837919
0.00577058
0.103768
0.10403
0.0587045
0.00827867
0.11965
0.0246206
0.140864
0.114227
0.111205
0.153305
0.0570769
0.125036
0.128981
0.0939804
0.0102777
0.111563
0.151806
0.110691
0.10954
0.0955106
0.0510842
0.111383
0.0112957
0.152704
0.130884
0.0780872
0.111194
0.107477
0.129266
0.147311
0.126012
0.0185839
0.0511265
0.109954
0.114403
0.12348
0.0769279
0.121892
0.156017
0.109557
0.121954
0.0455824
0.113129
0.0884421
0.0556239
0.112632
0.112696
0.110823
0.12227
0.110806
0.0253229
0.111208
0.0505934
0.121217
0.0135572
0.110537
0.123349
0.00238399
0.0146387
0.108383
0.0419974
0.0274255
0.0452888
0.037372
0.0693406
0.0240427
0.109702
0.108861
0.0187761
0.108331
0.109084
0.121644
0.00688228
0.10959
0.105756
0.00258965
0.0154132
0.104497
0.0631005
0.00432985
0.00803823
0.105017
0.0775805
0.107189
0.15031
0.0109333
0.124532
0.0979678
0.106691
0.10529
0.0965932
0.118147
0.111904
0.105884
0.100484
0.15221
0.131424
0.107388
0.108721
0.137475
0.0217779
0.129714
0.118417
0.0768695
0.0728035
0.108619
0.0518831
0.0130087
0.101626
0.105358
0.165162
0.0892391
0.104252
0.103137
0.11756
0.0516435
0.103313
0.103895
0.1449
0.104196
0.0487011
0.105849
0.105888
0.085735
0.0785072
0.0952578
0.10563
0.103912
0.105559
0.0732399
0.0917738
0.108501
0.0937529
0.0726039
0.0772506
0.0774057
0.0783169
0.090644
0.10441
0.0914962
0.155134
0.138051
0.0287886
0.0667012
0.069598
0.0906983
0.0881239
0.0916054
0.11382
0.0907077
0.0888945
0.055352
0.0695827
0.117964
0.0546337
0.0214229
0.0911634
0.0908721
0.0918338
0.140658
0.00945335
0.00430823
0.0646749
0.0963952
0.0953833
0.130246
0.0205497
0.0908204
0.154736
0.0243518
0.0954606
0.0953833
0.111008
0.00294259
0.0944747
0.0952893
0.0943469
0.101537
0.00306194
0.00366088
0.101877
0.102389
0.0993354
0.100554
0.104182
0.0997041
0.0511499
0.00975643
0.158492
0.120385
0.102149
0.101557
0.0780673
0.149325
0.143242
0.132645
0.00117951
0.131974
0.10254
0.103023
0.101794
0.102394
0.102365
0.101792
0.128042
0.0873666
0.125079
0.0919402
0.0521018
0.00899085
0.102969
0.0784057
0.00361591
0.0937725
0.10589
0.152375
0.106648
0.0749159
0.0729813
0.119112
0.082402
0.104406
0.108135
0.106946
0.0885717
0.0941708
0.148673
0.104499
0.124586
0.0487134
0.0390028
0.103367
0.0406099
0.0143331
0.105364
0.105346
0.0808753
0.0558058
0.0634136
0.137378
0.105081
0.030899
0.00416828
0.0979454
0.0171644
0.0771631
0.10225
0.122285
0.0941989
0.0160254
0.141374
0.00976379
0.137591
0.0854508
0.130996
0.098851
0.0270619
0.102666
0.0941807
0.0615417
0.073151
0.103279
0.103392
0.141716
0.12141
0.125283
0.146361
0.122929
0.120312
0.121025
0.128332
0.100736
0.100584
0.0825945
0.0388248
0.0472858
0.0121434
0.131417
0.082634
0.0996456
0.0987728
0.099248
0.029039
0.0971324
0.125211
0.00456684
0.0971855
0.0999494
0.111781
0.160087
0.1262
0.125246
0.098053
0.00816188
0.131431
0.0995895
0.115837
0.103336
0.117047
0.12092
0.0926129
0.129739
0.10068
0.120653
0.10386
0.0134534
0.126779
0.130634
0.0843294
0.157771
0.0475022
0.0544611
0.0469247
0.091142
0.12296
0.0377023
0.115596
0.0382333
0.100718
0.101133
0.0870815
0.104468
0.0958722
0.136327
0.118148
0.0952534
0.120417
0.0987877
0.161275
0.128838
0.0985039
0.096351
0.118971
0.133495
0.0975852
0.0165792
0.115512
0.136295
0.0950028
0.0878928
0.0975091
0.0994766
0.0998371
0.100644
0.00263025
0.0478364
0.101702
0.15684
0.100653
0.0846916
0.122678
0.0830424
0.073001
0.137187
0.156497
0.126907
0.126759
0.12789
0.0225267
0.0953726
0.110447
0.155243
0.146173
0.157226
0.16024
0.146427
0.0853974
0.0835618
0.155389
0.0362399
0.0862685
0.119576
0.0846713
0.125996
0.123941
0.155331
0.140226
0.125606
0.0475454
0.0850222
0.094532
0.0902715
0.093611
0.128352
0.121776
0.0942446
0.0921477
0.0929464
0.0102417
0.134129
0.0256155
0.0949447
0.110724
0.0983865
0.0963667
0.0929718
0.0258608
0.0964382
0.0861062
0.0963951
0.0954084
0.130754
0.0875175
0.0509318
0.0299795
0.123561
0.0705711
0.0704434
0.12266
0.0587627
0.031234
0.0270674
0.020461
0.121432
0.0432181
0.0887603
0.106277
0.0201013
0.13268
0.132739
0.0626507
0.0610032
0.144261
0.0903445
0.0107092
0.103511
0.0204504
0.120523
0.0193462
0.0310789
0.0138207
0.00651349
0.0520396
0.130586
0.0286439
0.0151779
0.0151201
0.0947124
0.0185488
0.0933606
0.133919
0.0950683
0.0929675
0.121206
0.0284096
0.0975252
0.0959229
0.0090674
0.0476069
0.130986
0.0966228
0.0966121
0.121328
0.13346
0.127739
0.132712
0.0344353
0.149739
0.156467
0.0964088
0.096938
0.00818382
0.136895
0.155083
0.0957758
0.0735197
0.0951298
0.0119283
0.128675
0.00606967
0.0277416
0.0908725
0.113226
0.0924167
0.0759235
0.131905
0.0719526
0.12616
0.0915628
0.0919116
0.0455162
0.0864732
0.0787915
0.152301
0.131742
0.119214
0.0913998
0.134741
0.0516141
0.0296747
0.0408998
0.0086855
0.0912455
0.132621
0.0909935
0.00911475
0.00770753
0.130259
0.0918892
0.043054
0.137791
0.0921399
0.0922808
0.129862
0.0123985
0.128756
0.0929158
0.0945144
0.0951941
0.099172
0.0954566
0.126265
0.126311
0.0951569
0.143315
0.100205
0.125608
0.112179
0.093856
0.133389
0.0921453
0.0755846
0.144971
0.101317
0.0936102
0.00811657
0.0958849
0.0948131
0.0733591
0.0920173
0.120471
0.0361554
0.133022
0.0868641
0.123042
0.126801
0.093652
0.102056
0.00753501
0.042668
0.0352259
0.0929314
0.131596
0.0130767
0.0908604
0.145495
0.033638
0.123508
0.0327041
0.0913738
0.107852
0.0905914
0.000931862
0.116095
0.131986
0.0733708
0.0219108
0.0347047
0.0711113
0.0720472
0.0754824
0.131188
0.00786819
0.0218767
0.0795192
0.0810376
0.125557
0.11946
0.0807728
0.0845505
0.0773063
0.111247
0.146054
0.134931
0.10083
0.018359
0.123826
0.124024
0.0627387
0.0308538
0.118137
0.0592073
0.0795798
0.121161
0.100446
0.104281
0.0881803
0.0774571
0.0845161
0.0841952
0.0826725
0.121477
0.0855994
0.111891
0.14271
0.131918
0.120412
0.128509
0.0779441
0.0579085
0.132136
0.0860806
0.121905
0.101357
0.123516
0.150857
0.0824156
0.00431241
0.0863655
0.0876573
0.0912049
0.130582
0.0855499
0.0899662
0.10175
0.0911536
0.101801
0.0876657
0.00222866
0.100478
0.0898585
0.0894866
0.00314367
0.120382
0.147144
0.100922
0.105494
0.0816975
0.0908659
0.0901676
0.0348759
0.146132
0.0912897
0.0909289
0.0920583
0.0219001
0.131419
0.0986298
0.0829995
0.100246
0.0554341
0.0715978
0.125852
0.0852012
0.0831903
0.0684365
0.083168
0.089273
0.0571155
0.0855792
0.130618
0.0956184
0.0496545
0.130349
0.130658
0.0747168
0.075767
0.0637496
0.0854916
0.0361044
0.0874546
0.0407597
0.163652
0.124947
0.108629
0.0547537
0.014485
0.135395
0.0112986
0.0139385
0.0850326
0.00127462
0.0853665
0.0183329
0.109225
0.0618513
0.0846109
0.118644
0.109428
0.0852045
0.0162502
0.013858
0.106582
0.0840545
0.0242447
0.0854601
0.084506
0.0953206
0.0893103
0.150426
0.120975
0.135428
0.107927
0.120528
0.085023
0.120615
0.109115
0.0849059
0.13607
0.153618
0.119832
0.118753
0.0850777
0.127702
0.0837288
0.136193
0.108154
0.120123
0.0133404
0.0268856
0.115651
0.00682217
0.131769
0.163567
0.136169
0.00770165
0.0336652
0.0136095
0.131436
0.134649
0.00329264
0.109283
0.0804922
0.127697
0.111292
0.0799326
0.0846423
0.0192882
0.117925
0.120353
0.0333497
0.150456
0.134755
0.0912721
0.0817685
0.158807
0.0807445
0.153848
0.118488
0.117387
0.0820684
0.140357
0.0732518
0.139149
0.130539
0.14289
0.00462948
0.0843487
0.147975
0.0430594
0.155667
0.0841995
0.143571
0.0645954
0.0642078
0.0681359
0.151304
0.124343
0.141936
0.123035
0.0727939
0.147908
0.148763
0.0647469
0.149529
0.0746011
0.12122
0.0713994
0.123818
0.0895636
0.0622405
0.0858983
0.0606057
0.0860813
0.0125482
0.0752457
0.0701226
0.135984
0.0675265
0.118723
0.0944559
0.10935
0.0740857
0.0247947
0.056003
0.120657
0.0713083
0.136415
0.048161
0.0764427
0.139369
0.120369
0.0784791
0.128591
0.0772792
0.0714208
0.0701982
0.0893466
0.0727367
0.00210181
0.0236994
0.0279187
0.0719387
0.0726139
0.121793
0.0318154
0.0180255
0.067807
0.0444372
0.134991
0.124505
0.021078
0.0788001
0.111032
0.0747676
0.0790819
0.0653044
0.0779237
0.125114
0.0776106
0.104877
0.000572901
0.133383
0.10349
0.15629
0.0799321
0.0781093
0.0139959
0.135937
0.0611786
0.0805234
0.120715
0.0831298
0.0809675
0.0767849
0.0736445
0.0205542
0.0826804
0.0786552
0.0797932
0.0764161
0.0887696
0.0779694
0.133415
0.0658388
0.0814896
0.133492
0.156412
0.107171
0.0679238
0.116585
0.0788495
0.0735284
0.0703208
0.0375814
0.0658701
0.0609031
0.146976
0.0668124
0.0890672
0.085912
0.0201207
0.066572
0.133228
0.0745879
0.0761793
0.102346
0.0973362
0.0727697
0.109874
0.0887407
0.0754107
0.0741052
0.0830266
0.0742953
0.132495
0.12805
0.0673547
0.066218
0.0720095
0.0273417
0.0751193
0.0889303
0.119947
0.073818
0.0760226
0.0703659
0.0766402
0.134094
0.0652756
0.130107
0.0759306
0.0741607
0.0685644
0.0739539
0.0575209
0.0718834
0.0591483
0.0503974
0.0734547
0.144619
0.0821913
0.142773
0.102765
0.0494841
0.0148958
0.0635162
0.133617
0.0736
0.0738665
0.0547722
0.0744943
0.0548144
0.134563
0.1337
0.0565755
0.0573234
0.0597869
0.0600868
0.114233
0.0924516
0.0586605
0.0590905
0.0439255
0.0727879
0.0599481
0.0608914
0.0331013
0.032233
0.00304982
0.0607887
0.116066
0.0195426
0.0924685
0.0628311
0.0648968
0.0675594
0.084629
0.132278
0.0751842
0.0560045
0.00778105
0.0132622
0.0936074
0.0637266
0.0601468
0.0804726
0.0216712
0.0141864
0.0648066
0.133024
0.071934
0.0728468
0.0329008
0.0677315
0.150889
0.0681288
0.067624
0.0918208
0.069086
0.0715221
0.132963
0.0719973
0.0801959
0.0133631
0.00272439
0.111277
0.0238919
0.0150078
0.0740525
0.0618848
0.133034
0.072678
0.136933
0.137427
0.0706644
0.132444
0.004598
0.0689451
0.0728627
0.0234787
0.0733774
0.137617
0.156718
0.0324748
0.135412
0.0728063
0.120157
0.1275
0.0728254
0.0752455
0.136556
0.0709469
0.150811
0.0722255
0.0863214
0.0777961
0.15151
0.134608
0.0872336
0.0741736
0.0724581
0.122454
0.0863858
0.122245
0.134819
0.133467
0.0745305
0.00889444
0.0742738
0.0703371
0.122532
0.0566939
0.123679
0.0282096
0.126704
0.000465507
0.133224
0.0864543
0.0635104
0.0692738
0.133728
0.067565
0.132926
0.129978
0.134159
0.00998659
0.00315275
0.123122
0.00221203
0.0677365
0.0857884
0.110225
0.0658985
0.129846
0.097418
0.132723
0.065091
0.131986
0.114701
0.121817
0.157826
0.0883424
0.146486
0.0647568
0.00616511
0.0960736
0.00685993
0.155702
0.0302817
0.0946064
0.121664
0.0710891
0.0674251
0.00995595
0.0220338
0.0686223
0.123548
0.134159
0.00423052
0.136909
0.0871146
0.150412
0.0392774
0.125883
0.0686784
0.116088
0.134986
0.114159
0.108883
0.119492
0.126525
0.132155
0.107857
0.0286774
0.120281
0.070395
0.0703371
0.0697372
0.0395251
0.145732
0.146369
0.121165
0.0756028
0.129891
0.133467
0.0755159
0.0706438
0.0702579
0.067249
0.145661
0.0329404
0.0664715
0.0998214
0.0675619
0.120011
0.115073
0.0809692
0.0384291
0.0684806
0.0671486
0.092653
0.154293
0.104698
0.0667173
0.130345
0.0473379
0.0358209
0.141804
0.0030334
0.046994
0.00999809
0.0462868
0.0476356
0.131612
0.0666474
0.11465
0.130501
0.0809247
0.0702428
0.135063
0.0496737
0.133668
0.0633749
0.0658431
0.0651921
0.122329
0.108248
0.133291
0.123043
0.128535
0.0563851
0.0946931
0.135082
0.127904
0.0702518
0.127041
0.049108
0.121
0.0302061
0.120503
0.0678094
0.113752
0.0599863
0.0885796
0.127767
0.047203
0.127812
0.0341468
0.0740717
0.0582746
0.0196292
0.0616383
0.057405
0.0802877
0.133386
0.0600853
0.0267154
0.0125175
0.123124
0.0141378
0.128495
0.00234368
0.0638722
0.0332872
0.062773
0.127415
0.129188
0.031392
0.144503
0.0216435
0.00315032
0.121642
0.113173
0.06191
0.128756
0.0456769
0.0138834
0.0779141
0.0015246
0.0960877
0.11872
0.0913768
0.0633995
0.153168
0.0638847
0.0996656
0.121132
0.083313
0.129349
0.0616548
0.0900572
0.0613131
0.0932438
0.143962
0.0654434
0.0555521
0.0919032
0.0617637
0.101587
0.0606426
0.037965
0.0608258
0.143798
0.0604308
0.0573802
0.0598575
0.139044
0.0749269
0.13499
0.147016
0.146113
0.11103
0.0315406
0.0423717
0.114819
0.128886
0.015652
0.0408778
0.0599401
0.0587525
0.128403
0.155595
0.00281206
0.0215576
0.0547825
0.134444
0.0210475
0.0837149
0.12837
0.0585968
0.0573893
0.0583069
0.0563409
0.057807
0.111004
0.0724907
0.129034
0.0156598
0.0605245
0.0580784
0.141087
0.0891818
0.138599
0.149387
0.0295281
0.0586518
0.0420356
0.138747
0.141096
0.137612
0.136738
0.0804213
0.0413503
0.134309
0.0307259
0.0580123
0.124932
0.0643478
0.0577807
0.0450954
0.0570766
0.124202
0.123778
0.0580664
0.0991909
0.064633
0.0650967
0.153432
0.0155615
0.033638
0.0584021
0.0586006
0.00520299
0.0585083
0.043974
0.062841
0.122556
0.0578107
0.0111879
0.0636594
0.00457948
0.141241
0.136574
0.0801037
0.0601956
0.0624751
0.0719391
0.0529052
0.0481808
0.073457
0.0506032
0.0506434
0.0430127
0.0510873
0.141627
0.128691
0.0841914
0.121774
0.0544305
0.123621
0.0419874
0.121773
0.105061
0.118131
0.0521236
0.0944195
0.0121453
0.123839
0.132023
0.0593208
0.159807
0.0539128
0.0547968
0.0909013
0.0153098
0.0715097
0.0554354
0.124087
0.0410062
0.0598823
0.0576008
0.0392556
0.108975
0.0387133
0.0377555
0.0396513
0.0398
0.0394391
0.123429
0.121753
0.127365
0.121563
0.0250839
0.0397757
0.13808
0.0436907
0.0239975
0.0434147
0.0430293
0.0257256
0.0435016
0.0424579
0.0431875
0.0556863
0.0536467
0.0962414
0.0617271
0.0697851
0.0881518
0.0766286
0.071359
0.0261316
0.0562481
0.0562235
0.0414838
0.0446607
0.0544966
0.103399
0.0114394
0.118546
0.15302
0.0977583
0.145687
0.054893
0.0130209
0.0135202
0.0132477
0.0739407
0.0143336
0.052526
0.0540273
0.135593
0.159604
0.090787
0.0492341
0.136436
0.0831487
0.100619
0.0542266
0.10093
0.054076
0.104535
0.0450076
0.0234121
0.0275905
0.0515701
0.00183333
0.0551961
0.136363
0.0397663
0.117127
0.0158149
0.0497972
0.051115
0.127716
0.0701646
0.103956
0.0773708
0.103654
0.0503356
0.0104698
0.136776
0.061305
0.0974898
0.13511
0.134947
0.0521791
0.0431145
0.0531735
0.0791613
0.0523749
0.101746
0.128047
0.0808975
0.0530017
0.0535231
0.0843603
0.0936401
0.111902
0.0530792
0.0541876
0.054533
0.135552
0.0544206
0.0548014
0.0189992
0.0475138
0.0234653
0.0106262
0.0232781
0.0149024
0.0461061
0.0479414
0.00824747
0.0377608
0.00681113
0.134397
0.0492788
0.026733
0.134284
0.110444
0.0730197
0.041768
0.0508514
0.0084226
0.049833
0.107827
0.0772481
0.0490279
0.13741
0.0230764
0.00254128
0.049505
0.166563
0.0769131
0.0994705
0.00913487
0.0498062
0.0492102
0.111745
0.00923353
0.076453
0.0958869
0.0445659
0.0497094
0.0510234
0.159293
0.141952
0.138085
0.0741051
0.0253763
0.0102441
0.00952488
0.138396
0.00908664
0.0307999
0.0517486
0.156107
0.0609819
0.0527021
0.126677
0.138826
0.108804
0.103012
0.0526408
0.0509484
0.134067
0.119019
0.12418
0.0159072
0.118233
0.0318227
0.071817
0.0278686
0.0507116
0.0789958
0.14177
0.0796426
0.0777087
0.149411
0.0470197
0.135194
0.0341101
0.1017
0.115619
0.141523
0.0800936
0.137148
0.0438855
0.0356405
0.0226495
0.0472688
0.137425
0.0346227
0.0313267
0.09391
0.036291
0.0360005
0.0393545
0.0130148
0.0730763
0.0482264
0.0565511
0.0320819
0.0441488
0.0370412
0.0250298
0.137779
0.104638
0.0349552
0.0498109
0.163538
0.091304
0.0471094
0.0968312
0.0479636
0.0880852
0.0460385
0.137506
0.0328976
0.160469
0.0299812
0.0253573
0.0947451
0.0358743
0.102359
0.0908632
0.106468
0.0152987
-0.000532024
0.0206259
0.0165539
0.0289327
0.0107399
0.0320448
0.0299751
0.0293055
0.148059
0.0205849
0.138539
0.138517
0.0232384
0.132577
0.0497521
0.135507
0.127647
0.0330818
0.134778
0.0332396
0.00142294
0.107215
0.0735918
0.130053
0.12741
0.0783889
0.0122919
0.0214107
0.107751
0.115523
0.0348783
0.0334497
0.0465376
0.117198
0.123857
0.0975647
0.0126063
0.00884466
0.0459295
0.10967
0.118176
0.125061
0.147683
0.0472745
0.130359
0.1211
0.0969609
0.16164
0.0735152
0.0905556
0.110568
0.0440232
0.140645
0.00756775
0.0696602
0.122342
0.114105
0.126035
0.139371
0.0145331
0.0695156
0.0460677
0.081525
0.0471013
0.0751735
0.0836631
0.0811971
0.0600035
0.0465864
0.0463102
0.0443362
0.0604117
0.147426
0.0661095
0.058822
0.0639541
0.136476
0.123144
0.0140525
0.140809
0.0464098
0.0440427
0.0908474
0.0380659
0.038409
0.0548908
0.0143488
0.0374125
0.0419868
0.010023
0.0359194
0.0345203
0.0381642
0.0525888
0.042564
0.0432838
0.139328
0.0278459
0.0337981
0.0248715
0.0476534
0.0248731
0.024769
0.0443702
0.0108074
0.0126613
0.0647166
0.0277259
0.0225106
0.140623
0.045409
0.0336134
0.0312099
0.0116034
0.0269013
0.0446226
0.0464616
0.0404993
0.0730854
0.0960085
0.10939
0.0844022
0.0107446
0.0401992
0.0377507
0.0388109
0.120158
0.0636657
0.0460733
0.153285
0.0385625
0.0637219
0.0396209
0.0411165
0.104806
0.109049
0.0390467
0.0679003
0.12792
0.129208
0.0635545
0.0391451
0.13873
0.0393298
0.0861217
0.0401192
0.156259
0.0403228
0.120975
0.0394875
0.105679
0.121629
0.135452
0.12389
0.0378132
0.122938
0.0955894
0.10508
0.0396005
0.0159617
0.0725024
0.0970898
0.0396738
0.0389371
0.0397418
0.0723477
0.0348973
0.14844
0.114137
0.0151269
0.138715
0.0367233
0.135567
0.0164523
0.0333839
0.035576
0.119927
0.0389238
0.107843
0.147022
0.0339469
0.0370308
0.0618226
0.144065
0.119633
0.12014
0.0375223
0.123659
0.112055
0.0369092
0.0639028
0.0545895
0.0365255
0.0367969
0.107063
0.124852
0.0398813
0.0656435
0.0534884
0.137083
0.134816
0.136621
0.038952
0.138392
0.0269599
0.115401
0.126511
0.0810677
0.106375
0.0392402
0.141362
0.0185304
0.0213505
0.0226922
0.0686052
0.0228254
0.0727355
0.0716868
0.0643115
0.0789723
0.118598
0.066242
0.0942067
0.00555435
0.0257223
0.0562358
0.0890461
0.0362198
0.0990494
0.127798
0.0744462
0.114845
0.112572
0.00746793
0.0222218
0.104549
0.0265295
0.000562518
0.140139
0.12206
0.135008
0.0205819
0.139773
0.0615176
0.133324
0.0580513
0.134615
0.0567787
0.137592
0.0244551
0.123358
0.0359772
0.111056
0.0590023
0.113966
0.0615835
0.169858
0.0354429
0.050567
0.119878
0.111076
0.034751
0.0784914
0.11042
0.0361566
0.102368
0.014782
0.102311
0.0329699
0.0315191
0.0511036
0.139811
0.0359201
0.0231373
0.0344125
0.0372412
0.0691751
0.120961
0.0420583
0.0376506
0.0690767
0.067539
0.00409196
0.136126
0.036037
0.049173
0.0876907
0.114324
0.000975528
0.0372492
0.138233
0.0311183
0.0291889
0.0940472
0.0168805
0.0260117
0.126293
0.0381122
0.137101
0.0712984
0.0232431
0.0284109
0.0799685
0.0268007
0.0346211
0.0548239
0.0330023
0.0353869
0.034057
0.0149092
0.0910682
0.0336815
0.048599
0.0314316
0.0454885
0.0499821
0.0323538
0.0311357
0.135757
0.0334326
0.0291674
0.0299897
0.139366
0.037207
0.0293869
0.0430377
0.1096
0.0476064
0.032659
0.0362538
0.0317113
0.00382908
0.137398
0.0472451
0.0316935
0.0235672
0.142655
0.0638048
0.0166411
0.0306146
0.00671783
0.0690596
0.135643
0.0304766
0.135885
0.0279094
0.0187593
0.138853
0.136601
0.141862
0.023617
0.139309
0.00981206
0.0121904
0.0311522
0.0167307
0.015083
0.0388771
0.111683
0.139572
0.133828
0.145892
0.133088
0.0905395
0.0680389
0.0238179
0.0291331
0.0349405
0.0876554
0.0951147
0.0619602
0.122073
0.0464736
0.0320372
0.10299
0.0402061
0.133579
0.13208
0.0177888
0.134509
0.0963024
0.123782
0.143047
0.0299151
0.116929
0.098624
0.102645
0.0972298
0.0304105
0.0758061
0.134141
0.144485
0.0366233
0.132002
0.141774
0.136288
0.119041
0.0253389
0.145533
0.0273994
0.12703
0.128837
0.0269717
0.0291761
0.0240135
0.0867919
0.139812
0.0652228
0.0968718
0.0242965
0.105946
0.140398
0.0321978
0.118801
0.0314886
0.121089
0.13241
0.146434
0.132406
0.0547979
0.0595501
0.0708788
0.11809
0.0320707
0.125798
0.12528
0.0315313
0.12214
0.0763074
0.031097
0.0970799
0.122942
0.0300052
0.134316
0.0246937
0.124607
0.148874
0.0280613
0.0818789
0.0284182
0.0991983
0.0301527
0.0154144
0.140215
0.100577
0.0513889
0.069931
0.0864283
0.081549
0.0134233
0.0801345
0.0767036
0.133853
0.10294
0.151172
0.128959
0.0413746
0.136647
0.0160523
0.0168542
0.107349
0.0934018
0.122581
0.121188
0.0171453
0.0155811
0.0766663
0.138505
0.117754
0.128856
0.14922
0.0161144
0.118848
0.100469
0.119447
0.12113
0.0958153
0.142172
0.124292