/*--------------------------------*- C++ -*----------------------------------*\
| =========                 |                                                 |
| \\      /  F ield         | OpenFOAM: The Open Source CFD Toolbox           |
|  \\    /   O peration     | Version:  2406                                  |
|   \\  /    A nd           | Website:  www.openfoam.com                      |
|    \\/     M anipulation  |                                                 |
\*---------------------------------------------------------------------------*/
FoamFile
{
    version     2.0;
    format      ascii;
    arch        "LSB;label=32;scalar=64";
    class       surfaceScalarField;
    location    "22";
    object      phi;
}
// * * * * * * * * * * * * * * * * * * * * * * * * * * * * * * * * * * * * * //

dimensions      [0 3 -1 0 0 0 0];

oriented        oriented;

internalField   nonuniform List<scalar> 
113358
(
-1.63877e-05
3.40091e-05
-2.3303e-05
5.68279e-06
2.42802e-05
2.85727e-07
-6.66217e-06
-1.78984e-05
-2.74503e-05
2.14585e-05
-3.41443e-06
9.39376e-06
-2.4039e-05
-6.80477e-06
2.44958e-05
6.39576e-06
-1.7226e-05
1.01563e-06
3.01069e-05
-1.38958e-05
1.3619e-05
-1.41971e-05
-7.95914e-06
8.53748e-06
-7.56876e-06
3.61593e-05
-2.60564e-05
-2.53233e-06
-9.32367e-07
-3.50822e-05
1.91813e-05
1.68357e-05
9.23746e-06
5.77929e-07
1.90135e-05
-2.88278e-05
9.25002e-06
4.25349e-06
-1.30025e-05
-4.14438e-07
-5.87024e-06
2.159e-05
-1.97272e-05
4.00783e-06
-1.66231e-05
-2.17867e-07
-2.99329e-07
1.71416e-05
-4.81243e-05
3.93956e-06
1.33288e-05
3.08538e-05
1.48611e-06
-3.21255e-06
1.72696e-06
2.41118e-06
-1.55993e-06
2.30545e-05
-2.39098e-05
1.16455e-06
3.593e-07
1.39561e-05
-1.54928e-05
9.4541e-06
3.05597e-05
-2.56394e-05
-1.43739e-05
-1.98475e-05
1.1146e-05
7.23537e-06
1.46701e-06
1.45267e-05
-3.93728e-05
3.40529e-05
-9.20541e-06
2.26629e-05
3.07496e-06
2.57166e-05
-5.14543e-05
2.06879e-05
5.2362e-07
-4.2515e-07
-2.07849e-05
-1.12791e-05
4.48069e-05
4.10971e-06
-3.7642e-05
-4.48615e-07
-4.26184e-05
4.56736e-05
-2.60549e-06
-1.0856e-06
5.39851e-06
3.75721e-07
-4.6842e-06
-4.4896e-05
1.97172e-05
-3.67246e-06
2.88424e-05
-2.58659e-05
5.80213e-06
2.15329e-05
-1.48432e-06
-1.13323e-05
1.1099e-05
-1.27766e-07
3.6317e-07
-2.32982e-06
-8.0287e-06
5.96915e-06
4.39047e-06
2.11698e-05
-2.80348e-07
-2.00488e-07
-2.7852e-06
2.77127e-06
1.43935e-08
-5.34643e-06
-2.58855e-05
2.73504e-05
3.88232e-06
5.57682e-06
-3.76775e-07
-8.67948e-06
3.48055e-06
2.05643e-05
-1.16135e-06
9.25428e-07
-2.03288e-05
-2.94316e-05
1.28748e-05
-2.96563e-06
1.96022e-05
1.74885e-05
1.63627e-06
-1.97901e-05
6.65919e-07
-3.33117e-05
7.94767e-06
-1.18563e-05
3.72159e-05
-9.37948e-09
-2.71827e-06
2.72721e-06
9.26506e-06
1.12828e-05
1.97234e-06
-2.25197e-05
7.27957e-06
-3.98115e-05
3.27362e-05
-2.0208e-07
-3.19118e-06
4.73086e-06
3.39139e-05
-3.54462e-05
-2.1052e-05
1.74093e-05
-2.15345e-05
2.51779e-05
1.81782e-06
-2.29841e-05
-3.10168e-05
5.21842e-05
-2.86931e-07
4.21062e-05
-1.14255e-05
-3.03922e-05
5.95909e-06
-2.03626e-05
-8.16184e-06
-5.26059e-06
3.23902e-05
-5.26951e-07
-2.66016e-05
-2.80229e-06
1.8676e-05
-1.24055e-05
-3.47031e-06
-3.0603e-05
-1.12253e-05
4.1543e-05
-9.27467e-06
3.24583e-05
7.38232e-07
-2.39214e-05
-3.40771e-05
4.18954e-06
-5.44894e-06
3.53372e-05
3.3024e-05
1.40977e-05
-4.40694e-05
-3.05174e-06
2.3179e-05
-1.61522e-05
1.58106e-06
-8.60724e-06
-1.29177e-05
3.95753e-06
1.30024e-05
-3.9878e-06
3.16783e-05
-7.8928e-06
1.76596e-05
-4.14549e-05
-1.04601e-05
-3.97637e-05
4.26983e-05
7.52797e-06
-2.38176e-06
8.83418e-06
-9.95927e-06
3.50776e-06
2.92315e-05
-1.28235e-05
2.06984e-05
-3.71054e-05
-1.99662e-05
4.1285e-06
3.55425e-05
-1.97042e-05
1.49914e-05
-7.45205e-06
6.03018e-06
-1.35593e-05
3.31207e-05
-8.38213e-06
-2.54959e-05
7.53384e-07
-1.2263e-05
-1.45705e-05
7.39388e-06
1.944e-05
-2.97405e-05
-4.76013e-06
1.42693e-05
2.02002e-05
-3.57733e-06
4.01432e-06
-4.36891e-07
3.13239e-05
-5.16484e-06
-3.03169e-05
4.15971e-06
-1.37114e-05
-3.79406e-05
1.41383e-05
3.75142e-05
-4.36717e-06
4.54982e-06
-3.75866e-05
3.74186e-05
2.18456e-06
2.0859e-05
1.67686e-06
-2.47198e-05
4.5082e-06
-3.74294e-06
-7.55995e-07
-1.76427e-09
7.07886e-08
1.38201e-05
-1.38915e-05
6.05144e-06
-2.9971e-05
3.25189e-05
-8.5989e-06
1.06296e-05
-2.42404e-05
2.24338e-05
-8.8222e-06
9.03998e-06
-9.37232e-06
3.35881e-07
-1.73594e-05
-5.75325e-06
3.02019e-05
-7.08874e-06
-2.62791e-07
4.96941e-06
-4.70656e-06
6.77556e-06
-2.86467e-05
9.49653e-06
1.23755e-05
3.91336e-05
-3.13218e-06
-2.75173e-06
-3.32471e-05
-2.57774e-05
-3.04097e-05
3.3091e-05
2.30976e-05
2.78676e-06
-3.39333e-05
5.36943e-06
3.43366e-05
-2.72435e-05
-8.44093e-07
-6.24916e-06
9.13635e-08
1.91126e-07
-1.80992e-05
1.78246e-05
7.3089e-06
6.65094e-06
1.15629e-05
-2.55221e-05
9.98547e-06
-5.39546e-06
4.26727e-06
-8.75173e-06
-1.53849e-05
-1.01002e-05
2.6492e-05
-1.00641e-06
-2.08928e-05
2.57271e-05
-1.7984e-05
1.31503e-05
-3.82697e-06
-1.20794e-08
3.83754e-06
-2.89687e-05
2.87108e-05
-2.89097e-05
2.28625e-05
-3.48443e-06
-1.16654e-06
-7.93834e-07
5.44664e-06
6.10381e-05
-5.89109e-05
1.86968e-06
-3.99704e-06
-1.38472e-05
4.24211e-06
1.34236e-05
-3.82263e-06
-4.3991e-06
2.5899e-05
-2.88809e-05
7.38167e-06
-1.73296e-05
-2.09718e-05
3.10448e-05
7.25708e-06
8.58898e-06
-1.23744e-05
1.80918e-05
-1.43046e-05
6.87941e-06
2.11301e-05
-4.45655e-05
1.65559e-05
-3.27069e-05
1.17603e-05
1.38848e-05
7.06422e-06
7.06577e-07
-2.64182e-05
2.1306e-05
4.40571e-06
-2.71149e-05
2.64236e-06
9.60236e-06
1.48708e-05
2.31694e-05
-1.98232e-05
7.00405e-06
-1.03532e-05
1.57941e-06
1.40381e-05
-1.53748e-05
-2.46055e-07
1.87943e-05
-2.42593e-06
-3.15748e-06
-1.32102e-05
1.5424e-05
1.74416e-05
-1.48122e-05
-1.80535e-05
2.86757e-06
-8.27e-07
5.15445e-06
-7.19324e-06
5.79125e-06
-3.594e-07
-5.42772e-06
4.89857e-08
4.78561e-06
-4.83418e-06
-5.84652e-07
3.52621e-06
-1.56945e-05
1.27495e-05
-1.99987e-05
4.17938e-05
4.53353e-07
-2.22328e-05
4.45939e-06
-2.04575e-05
1.5853e-05
1.70804e-07
-3.77403e-06
-5.17826e-06
1.42343e-06
7.52591e-06
-6.37889e-06
-1.5431e-05
3.969e-06
1.78319e-05
-3.21616e-06
2.17508e-05
9.10698e-06
-2.76558e-05
4.87929e-06
4.36744e-06
-2.12698e-05
1.20243e-05
-2.82923e-06
2.79447e-05
-3.21558e-05
7.04153e-06
-9.30514e-06
9.5213e-06
-2.33625e-07
2.1321e-05
-2.62238e-05
4.00811e-06
8.92444e-07
1.88079e-05
1.04286e-05
-3.2395e-05
3.1594e-06
-2.51283e-05
-1.345e-05
6.78346e-06
3.17959e-05
-2.54184e-06
-2.31232e-05
9.02605e-07
2.47616e-05
1.51443e-05
-1.57359e-05
2.86732e-07
3.02796e-07
1.63665e-05
-2.82028e-05
-5.63789e-06
1.74771e-05
-4.21325e-06
3.4566e-07
3.86703e-06
-3.97937e-06
-1.46385e-06
2.82898e-05
-2.28532e-05
-1.24911e-05
7.78685e-06
3.95638e-05
-3.48604e-05
-9.35782e-06
1.87477e-05
-2.83416e-05
1.89537e-05
1.46883e-06
-2.39694e-05
1.91656e-05
3.34647e-06
-3.48191e-06
-8.13928e-06
2.90378e-05
-1.74159e-05
2.30771e-05
-1.03115e-05
-9.75844e-06
-3.00678e-06
-2.51499e-06
-1.33716e-05
1.86778e-05
-2.79076e-06
7.40141e-06
-3.62932e-06
-3.77134e-06
-1.14961e-06
-2.56741e-05
-5.78097e-06
3.26054e-05
-1.48155e-05
2.06457e-05
5.92585e-06
-1.17556e-05
4.64891e-06
-1.17426e-05
2.02288e-05
-1.3135e-05
-3.8476e-05
8.82167e-06
-6.26279e-07
3.02819e-05
-2.62787e-06
-4.51886e-05
4.06297e-05
7.19657e-06
8.33031e-08
-4.82893e-06
4.74984e-06
2.10477e-05
-3.19089e-05
4.97105e-07
1.03646e-05
3.88002e-05
4.35517e-06
-4.14947e-05
-1.65845e-06
1.21518e-05
1.10032e-06
-2.80583e-05
1.48101e-05
-9.30814e-06
1.291e-05
1.52065e-05
-2.76816e-05
-2.29629e-05
1.29412e-05
3.77011e-05
7.11448e-06
3.53211e-06
-4.84802e-06
7.49322e-06
-5.86145e-06
-2.85615e-05
2.6931e-05
5.72012e-06
1.73262e-05
-7.98387e-06
-1.50593e-05
-6.15323e-06
1.33591e-05
2.85089e-05
-3.57168e-05
1.85798e-07
2.95948e-06
-3.1459e-06
-2.31518e-05
3.71175e-06
1.40386e-05
5.40798e-06
2.91296e-05
-1.55048e-05
-1.97783e-05
6.15403e-06
3.21384e-05
-7.77187e-06
-3.62214e-06
-2.07437e-05
-2.91534e-05
-1.40904e-07
-9.74746e-07
3.02703e-05
2.62461e-05
1.26998e-05
-3.71987e-05
-1.74627e-06
6.92625e-06
4.84714e-06
-1.17732e-05
1.80259e-06
-2.75613e-05
-6.66472e-08
2.58246e-05
4.41737e-05
-3.39929e-05
-3.4228e-06
-6.75475e-06
5.6157e-06
-8.17767e-07
-4.48899e-06
-2.97712e-07
-3.01784e-05
4.26288e-05
1.72166e-05
-2.96654e-05
1.78078e-05
-2.81763e-05
-2.6429e-06
1.30177e-05
-2.64706e-05
2.87526e-05
-9.35549e-07
-1.34345e-06
-3.69329e-06
1.84103e-06
1.86384e-06
3.83952e-05
-4.19869e-06
1.04956e-05
-4.46978e-05
-2.75242e-05
3.68702e-05
-3.58132e-05
2.05509e-07
2.89381e-06
2.09941e-05
-2.40914e-05
3.33526e-06
-3.22627e-06
-1.0915e-07
-1.32202e-05
-7.05192e-06
1.20185e-06
1.90714e-05
-9.58892e-06
2.4743e-05
-1.91441e-05
3.99175e-06
1.90054e-06
-5.98891e-06
3.70866e-06
3.82039e-07
-2.35632e-06
-2.17965e-06
4.54879e-06
-2.582e-05
2.5188e-05
2.5332e-05
-2.47007e-05
4.58792e-05
-1.17243e-05
-1.00205e-05
-2.41348e-05
1.57242e-05
5.71802e-07
-5.59795e-07
-1.57312e-05
3.01821e-05
-3.68022e-05
4.99819e-06
1.62217e-06
3.84132e-06
-5.28905e-08
-3.78808e-06
-5.51796e-06
2.74071e-05
-2.66287e-05
4.77637e-06
-1.57826e-05
1.64527e-05
-1.84343e-06
1.17411e-06
-1.25622e-05
1.10373e-05
7.62767e-07
7.62465e-07
3.02644e-06
-2.34284e-05
8.1544e-06
1.22475e-05
-1.10525e-05
-1.0747e-05
2.58829e-05
-4.08312e-06
-1.76853e-05
1.73285e-05
3.27607e-07
3.04847e-08
-3.14729e-05
-3.49049e-05
3.57758e-05
-1.029e-05
3.20702e-05
1.00593e-05
-3.18386e-05
5.58402e-06
3.10057e-05
5.55662e-06
-4.21455e-05
-1.58672e-05
6.78224e-06
2.18979e-05
-1.28202e-05
8.96722e-10
9.27967e-08
1.28681e-05
-1.2957e-05
1.65024e-06
3.70669e-05
-5.55632e-06
-3.31593e-05
-4.76955e-06
-3.18326e-06
5.23987e-06
2.7153e-06
5.30603e-06
-4.96376e-06
-3.39288e-07
-4.32099e-06
-1.44726e-05
1.10943e-06
-2.50164e-05
2.58893e-07
-4.96386e-06
2.97217e-05
-1.79255e-05
1.60218e-05
5.65259e-07
1.33756e-06
-5.2254e-07
1.0001e-05
-1.28235e-07
-9.35422e-06
-3.64402e-06
3.48499e-06
1.67399e-07
3.51113e-06
-8.14928e-07
2.18178e-05
-2.45141e-05
3.16473e-05
3.33778e-06
-2.71186e-05
-7.86438e-06
-3.41169e-06
-1.52783e-05
-1.02304e-05
1.6799e-05
-1.84011e-05
1.19365e-06
3.99349e-07
6.74697e-06
-2.885e-05
3.41514e-05
-1.20475e-05
1.32486e-05
2.82975e-06
-7.1109e-06
-8.96325e-06
-1.5496e-05
-3.70358e-05
8.90425e-06
4.36275e-05
9.34169e-08
3.21104e-06
-2.76529e-07
-3.02663e-06
1.17845e-05
-6.86891e-07
1.88389e-06
-1.29719e-05
-1.21288e-05
2.94064e-07
1.20378e-05
-1.96074e-07
2.35878e-05
4.31701e-06
-3.02501e-05
2.34127e-06
-2.912e-05
-1.70013e-05
3.7594e-05
8.52812e-06
-7.84927e-06
3.36077e-06
-7.46799e-06
5.76582e-06
2.42216e-05
-3.09853e-05
9.94984e-07
-2.48291e-05
-2.53587e-05
1.05642e-05
3.96317e-05
-3.42238e-06
3.72354e-06
-3.01816e-07
1.88549e-05
1.08374e-05
-2.17698e-06
-2.7508e-05
-6.6986e-07
-4.28322e-06
-2.83978e-05
3.33457e-05
-1.8682e-05
4.78074e-06
4.54998e-05
-3.15988e-05
2.51711e-05
-1.88939e-05
-9.52423e-06
3.22157e-06
3.22889e-06
-1.39475e-07
-3.09227e-06
4.59678e-05
-2.21825e-05
3.22776e-06
-2.70134e-05
1.15409e-05
-1.21609e-05
1.4739e-06
-8.43827e-07
2.74642e-06
2.58961e-06
-5.33524e-06
-1.61591e-05
-2.14202e-05
4.28637e-06
3.32906e-05
-1.37296e-05
2.44984e-07
1.41893e-05
-6.99224e-07
2.23103e-05
-4.68851e-05
6.44298e-07
2.39315e-05
-1.88348e-05
-2.39679e-05
3.14026e-05
1.13993e-05
-1.31475e-05
1.69849e-05
2.83017e-05
5.14784e-06
2.67702e-05
-2.81722e-05
-3.7454e-06
2.21406e-06
1.6607e-06
-1.52585e-05
1.13862e-05
-3.17556e-05
1.42345e-05
1.1203e-05
6.31959e-06
1.62718e-05
4.3137e-06
-1.81884e-06
-1.8771e-05
-3.67068e-06
-2.75058e-05
2.96412e-06
2.82146e-05
6.20464e-06
-2.37546e-06
2.39485e-05
-2.77771e-05
-2.60123e-06
-1.01729e-08
-6.5699e-06
9.22014e-06
6.72362e-07
9.52902e-06
-3.54372e-05
2.52364e-05
-1.24847e-05
-2.52246e-05
-1.08523e-06
3.87927e-05
4.05952e-07
6.14128e-06
-6.54454e-06
7.5351e-08
-2.02251e-07
1.33547e-05
-1.32299e-05
2.36288e-06
1.48023e-05
1.26791e-05
-2.98438e-05
3.12831e-07
-1.76894e-05
1.66937e-07
1.72076e-05
3.90592e-06
-1.87361e-05
-1.42045e-05
2.90354e-05
1.35928e-05
1.66829e-05
-1.4351e-05
-1.59275e-05
2.75495e-05
1.63875e-05
-3.70477e-05
-6.88921e-06
7.78497e-08
-5.35913e-06
5.28204e-06
3.38757e-06
1.623e-06
-1.0571e-08
-4.99996e-06
2.46805e-06
3.05236e-06
4.11038e-07
-5.9318e-06
3.16453e-06
-3.57465e-06
1.77396e-05
1.83705e-07
-3.17282e-05
1.17434e-05
1.98092e-05
5.29136e-05
5.97077e-06
-1.09807e-05
-4.7906e-05
-9.93659e-06
1.32287e-05
-2.95209e-06
-3.46022e-07
-1.41106e-05
1.35048e-05
-2.25857e-05
2.31927e-05
3.9104e-06
4.39708e-08
-3.95791e-06
1.34006e-06
1.01767e-05
-1.94439e-05
7.9286e-06
4.00746e-06
-5.9807e-06
1.96849e-06
2.36681e-05
-1.26166e-05
-6.40222e-06
-1.85764e-05
6.8527e-06
-1.72815e-05
2.90063e-05
3.15315e-05
-3.06013e-05
4.8245e-06
-5.75337e-06
1.7365e-05
5.82799e-06
-2.06799e-05
-2.52061e-06
2.68538e-06
-3.54072e-05
1.19424e-05
2.07799e-05
2.96272e-05
-5.93758e-06
5.06562e-06
4.48384e-05
-5.05656e-05
2.54071e-06
-3.1366e-05
2.37255e-06
3.25973e-05
-3.60363e-06
-2.48169e-05
-1.60698e-05
2.67768e-05
-1.1846e-05
-1.12156e-05
-1.58078e-05
3.88713e-05
-1.1696e-06
4.44147e-06
3.72319e-05
-4.05014e-05
1.42978e-06
2.63359e-05
-4.64651e-05
1.87002e-05
-1.59458e-07
1.14102e-07
2.11978e-05
-2.11615e-05
-3.88246e-05
6.36945e-06
3.28335e-06
2.91683e-05
1.47235e-05
-1.48066e-05
5.19987e-06
-5.11105e-06
8.65977e-07
1.32091e-05
-1.67665e-05
2.69115e-06
-2.41173e-05
3.615e-05
-4.30986e-06
-7.7208e-06
-3.2597e-05
2.40694e-05
1.51796e-06
7.00794e-06
-3.07351e-05
2.9566e-05
3.92325e-05
-3.80606e-05
2.92156e-05
-2.37409e-05
1.34638e-06
-6.82107e-06
-1.45103e-05
1.88155e-05
-1.15459e-05
7.24089e-06
-8.8665e-06
2.07277e-05
1.71367e-06
-1.356e-05
-3.48342e-05
2.64483e-06
3.80767e-05
-5.88748e-06
-5.29525e-06
-2.786e-05
3.42256e-07
3.28419e-05
2.84351e-06
-1.00239e-05
8.04633e-06
1.14612e-05
9.81018e-07
-1.10258e-05
-1.4134e-06
1.06547e-05
2.0451e-05
-2.37394e-05
-7.36457e-06
-9.31799e-06
1.25712e-05
2.15447e-05
-2.47997e-05
1.03314e-06
4.87475e-06
-4.03915e-05
3.44938e-05
1.93336e-05
-2.91229e-05
9.52345e-06
2.73746e-07
-3.66257e-05
-6.02919e-06
1.0059e-05
-3.58287e-06
-9.39312e-07
-2.73385e-05
3.18596e-05
-3.98646e-06
1.9612e-09
3.98599e-06
-4.65011e-06
-6.39457e-06
3.9955e-05
-2.89097e-05
6.47221e-06
-6.13879e-06
-3.30102e-07
3.13766e-07
1.71363e-07
-1.15342e-05
1.10551e-05
-1.66029e-05
1.57361e-05
2.84164e-05
6.12142e-06
3.22095e-05
-2.34199e-05
-1.49084e-05
5.38142e-06
-5.49603e-06
1.1321e-07
-4.66526e-06
5.27565e-05
-2.98948e-05
-1.81905e-05
-2.8037e-05
3.06161e-05
1.97311e-05
-2.13143e-06
2.23306e-05
1.05441e-05
-3.07426e-05
-2.86898e-05
-1.06967e-05
3.83665e-05
1.02105e-06
-5.94371e-06
5.41344e-06
5.31241e-07
2.80563e-05
-2.99874e-05
-4.48498e-08
1.97826e-06
-1.80593e-05
-1.12232e-05
1.6104e-05
1.31793e-05
-3.42091e-06
1.51878e-06
-1.94508e-05
2.1354e-05
-2.81634e-05
-7.86715e-06
8.52446e-07
3.5179e-05
-1.74139e-05
-8.3927e-06
-6.89954e-06
1.75883e-05
-3.98665e-05
-3.64409e-06
2.59019e-05
7.32423e-06
-3.13299e-05
-9.37918e-06
3.33841e-05
9.07843e-06
-8.63703e-06
-4.41421e-07
-2.6543e-05
4.44774e-05
-6.27754e-06
-1.16526e-05
-6.36911e-06
-2.70523e-05
3.06649e-05
2.75749e-06
-3.91428e-05
4.0065e-05
-4.77376e-06
3.85155e-06
-2.34772e-05
-5.93696e-06
1.64866e-05
1.29293e-05
-2.80957e-05
-5.87126e-06
3.41313e-05
-1.56266e-07
-6.10634e-07
3.474e-08
-1.50893e-05
1.5665e-05
4.1922e-06
2.37671e-07
-4.43136e-06
-7.6928e-06
7.82689e-06
-1.35641e-07
4.12251e-05
-3.42294e-05
-4.73369e-05
4.03336e-05
3.59158e-06
1.72404e-07
-3.76306e-06
-3.34807e-05
3.29644e-05
-4.35353e-07
9.47022e-07
-1.2334e-05
1.05405e-05
1.72573e-07
1.62545e-06
4.16346e-06
4.54596e-05
-2.45199e-05
-2.5103e-05
-2.55544e-05
-8.00317e-06
3.37732e-06
3.01653e-05
3.273e-05
1.42771e-05
-1.44413e-05
-3.25672e-05
1.50798e-05
-5.57054e-06
2.03893e-06
-1.15484e-05
3.94623e-05
-3.4696e-06
-2.83578e-05
-7.64298e-06
-4.85661e-06
7.23003e-06
-7.87679e-06
5.50301e-06
-3.17865e-06
9.60037e-06
3.65911e-06
-1.008e-05
-1.31458e-05
-6.64206e-06
3.72023e-05
-1.74113e-05
7.22643e-06
2.7067e-05
-2.669e-05
-7.60277e-06
-2.2481e-05
2.32403e-05
1.4925e-05
-1.56837e-05
2.5131e-05
-2.28877e-05
-3.12495e-06
8.89119e-07
-4.10633e-08
-1.32823e-05
-1.20942e-07
1.34592e-05
-8.43061e-06
1.58357e-05
-1.57933e-06
-5.82591e-06
-3.50011e-05
-1.23804e-05
1.80182e-05
2.93613e-05
2.11651e-05
-1.80087e-05
-3.58226e-06
4.2862e-07
8.15412e-06
-2.80055e-05
-3.12237e-05
5.10775e-05
1.74165e-05
-2.29438e-05
-1.11084e-05
1.66392e-05
-6.0911e-06
-5.04973e-05
1.41373e-05
4.24493e-05
1.87471e-05
-1.68481e-05
2.17916e-06
-4.07713e-06
3.16251e-05
-1.14919e-05
-3.65857e-05
1.64478e-05
1.20007e-05
1.93528e-05
-4.54274e-05
1.40707e-05
-7.57643e-06
2.87027e-05
-2.49988e-05
3.87265e-06
-2.78179e-05
3.07945e-05
3.15424e-05
-3.45197e-05
-1.89692e-07
-1.63192e-05
1.42657e-05
2.24454e-06
4.94323e-06
-4.64875e-06
-2.87201e-07
3.62431e-05
-4.51054e-05
1.28669e-06
-4.80021e-06
6.73689e-06
3.33634e-06
-5.2698e-06
-3.65803e-06
1.40013e-07
-1.75238e-06
5.27218e-06
1.65409e-05
-2.45134e-06
1.79693e-05
-2.69542e-05
1.09979e-06
7.88566e-06
-9.90632e-06
-2.23987e-06
9.63125e-06
2.20775e-05
-2.93275e-05
1.68002e-05
-9.54896e-06
-2.51999e-05
-3.7686e-06
3.04392e-05
-1.4693e-06
-4.79853e-05
-7.54791e-06
4.24646e-05
1.30642e-05
-3.68205e-05
9.77771e-06
8.11164e-07
2.62325e-05
-4.95657e-06
4.83789e-07
9.40776e-07
3.52327e-06
-2.51724e-05
-2.99475e-05
2.34132e-05
3.17118e-05
1.65885e-05
1.45376e-05
-2.49024e-05
-6.22196e-06
2.19341e-07
1.70499e-05
-1.45043e-05
-2.76837e-06
-2.10559e-07
-1.64579e-05
3.23501e-05
-1.56814e-05
3.45058e-05
-2.47385e-05
-1.32489e-05
2.81747e-05
-3.20357e-05
6.62188e-06
-2.76364e-06
-3.90348e-06
-2.69939e-05
2.91337e-05
1.76625e-06
3.76851e-05
-2.56259e-06
-3.90236e-05
2.32026e-05
-2.58676e-05
6.15598e-06
-3.49864e-06
2.04269e-06
-1.35409e-05
-1.12096e-06
1.26218e-05
-3.02466e-06
2.88892e-06
-3.52277e-06
3.65896e-06
-2.18611e-06
5.32978e-06
1.84831e-06
-5.01181e-06
-8.30799e-06
-2.10386e-05
-1.41532e-06
3.07713e-05
1.11524e-05
8.32909e-06
-2.98712e-05
1.03908e-05
-1.87726e-05
5.81387e-07
6.66682e-06
1.15249e-05
-1.97607e-06
-2.01745e-05
1.96122e-05
-2.49682e-05
2.93064e-05
8.87407e-06
-1.32024e-05
-3.46178e-05
3.95081e-05
-1.20301e-05
7.14218e-06
-5.1851e-06
-1.82319e-05
2.58841e-06
2.0829e-05
1.33534e-06
3.33456e-05
-3.88694e-05
4.18678e-06
1.73942e-05
-5.63938e-05
1.25481e-05
2.64415e-05
4.87045e-06
-3.63391e-05
1.98725e-05
1.15982e-05
1.48044e-06
1.95284e-05
-6.67768e-06
-1.43301e-05
-4.81155e-06
2.23657e-06
4.71831e-06
-2.14196e-06
-3.77656e-06
7.81247e-06
-2.92549e-05
2.52198e-05
-1.70868e-06
-1.31242e-05
4.00541e-07
1.44325e-05
2.90303e-07
1.34729e-05
-2.84222e-07
-1.34867e-05
9.72408e-08
2.99739e-07
1.39951e-05
-1.43725e-05
-8.69199e-06
-1.48914e-05
2.60771e-05
-2.49164e-06
3.90109e-06
-3.61952e-05
1.94082e-05
1.28917e-05
3.12241e-05
8.31606e-07
2.31341e-06
-3.43703e-05
3.22798e-06
-3.3165e-06
8.88463e-08
1.08667e-05
2.2255e-05
-2.82502e-05
-1.32239e-05
3.22934e-08
1.18132e-07
1.30776e-05
1.92096e-06
-2.48857e-05
8.97438e-06
1.39911e-05
1.05518e-06
8.66856e-06
-8.79322e-06
-9.31698e-07
-6.46145e-06
-1.39516e-05
2.63075e-05
-5.89174e-06
3.13205e-05
-3.37246e-05
2.91513e-05
-2.6731e-05
1.81415e-05
-8.23649e-06
-3.04351e-05
2.05303e-05
-2.3672e-06
-2.30526e-06
4.67145e-06
1.36697e-05
2.98154e-06
-3.94542e-06
-1.2708e-05
-2.4988e-05
3.73344e-05
3.6212e-06
2.9395e-06
-6.55669e-06
9.68793e-07
-3.00442e-05
-3.03655e-08
2.91066e-05
-3.57417e-07
7.49576e-07
2.18644e-05
-9.42277e-07
2.3724e-05
-4.5554e-05
2.27641e-05
-7.81308e-06
-2.2616e-05
-3.33242e-06
3.37705e-05
6.10656e-06
-1.02736e-05
1.06143e-05
-6.45141e-06
-6.76423e-06
-3.29212e-05
-4.12953e-06
4.38185e-05
2.001e-05
3.50639e-06
-2.28827e-05
-6.33006e-07
5.4346e-06
2.66057e-05
-4.40694e-05
1.20282e-05
-2.25927e-06
-1.453e-05
-8.21764e-06
2.50074e-05
-2.21408e-05
-7.18296e-06
1.12908e-05
1.80424e-05
-1.15073e-06
-1.26275e-06
-1.53928e-05
1.78038e-05
3.42012e-05
-1.42919e-05
-8.33993e-06
-1.15684e-05
-2.13482e-05
5.22551e-05
-2.92448e-05
-1.6621e-06
1.30582e-05
3.48188e-07
3.3521e-07
-1.37446e-05
3.06979e-05
-3.60487e-05
3.65766e-05
-3.12265e-05
-5.69949e-06
1.80268e-05
-1.47326e-05
2.40658e-06
1.25482e-05
-4.61902e-05
2.04756e-06
3.15954e-05
8.76298e-06
4.07385e-05
-3.51168e-05
-1.43839e-05
7.7494e-06
-7.6438e-06
-1.21302e-05
1.20335e-05
-2.31271e-05
-1.35084e-05
4.04883e-05
-3.85797e-06
3.48957e-05
-2.72959e-05
-4.27471e-05
3.51448e-05
1.72818e-05
1.51284e-05
-9.06e-06
-2.3346e-05
2.82759e-07
-1.47561e-05
7.63243e-08
4.7942e-06
-4.86087e-06
-4.03206e-06
3.89953e-06
1.29552e-07
2.60524e-05
-2.50985e-05
-2.32489e-05
2.22907e-05
-6.44022e-06
8.0361e-06
-2.31069e-05
2.15057e-05
3.37229e-05
-2.65195e-05
-5.46515e-06
-1.73811e-06
-5.81513e-06
1.41726e-06
3.80808e-06
-7.68704e-06
2.68294e-05
-7.35664e-06
-1.17845e-05
-4.65508e-05
1.2451e-06
1.57064e-05
2.95755e-05
1.27888e-05
-5.41372e-06
-1.27794e-05
5.40903e-06
7.17887e-06
3.34618e-05
-3.12358e-05
-9.40256e-06
-1.87453e-05
-3.86785e-06
3.60661e-05
-1.34514e-05
2.11079e-06
2.1391e-05
4.53891e-06
-2.80406e-05
7.32839e-06
2.36822e-05
-2.89001e-05
2.13993e-05
-1.58831e-05
-8.15458e-06
2.63743e-06
1.96319e-05
-2.5338e-05
1.1141e-05
-1.52197e-05
9.91284e-06
8.80232e-06
-3.495e-06
8.46613e-06
1.06443e-05
2.0414e-05
-3.95218e-05
4.76435e-06
-2.91206e-05
-4.51729e-06
2.88644e-05
6.05314e-07
2.52408e-05
2.41673e-06
-2.82607e-05
1.10953e-05
2.13716e-05
-3.5433e-05
2.96555e-06
-5.46017e-05
4.50869e-05
-9.45645e-07
-7.8021e-09
3.76143e-05
-3.07237e-06
-3.45369e-05
-3.99581e-06
8.67698e-06
-1.19168e-05
7.23978e-06
-1.03802e-06
-4.24608e-06
3.42649e-07
4.9465e-06
-4.158e-06
4.0123e-06
1.45547e-07
-5.22373e-06
-7.0206e-06
3.48614e-05
-2.26167e-05
-2.62389e-05
3.92693e-06
-1.14142e-05
3.37247e-05
4.25625e-05
-1.05077e-05
-1.36384e-05
-1.84111e-05
3.72147e-06
-3.27848e-05
1.15065e-05
1.75617e-05
4.14671e-06
-3.74392e-06
-1.42258e-06
1.01178e-06
-4.79764e-06
4.61932e-06
1.81024e-07
2.04871e-06
2.89806e-05
-5.21087e-06
-2.58148e-05
-5.16412e-06
2.45681e-05
-3.22888e-05
1.28878e-05
1.06568e-05
1.75421e-05
-4.0751e-05
1.25527e-05
-2.30665e-06
2.54731e-05
1.84751e-05
-4.16416e-05
-4.25808e-05
2.21082e-05
2.52697e-05
-4.79698e-06
3.32379e-05
-3.37328e-05
6.58951e-06
-6.09187e-06
-3.17038e-05
-7.93081e-07
-1.00822e-05
2.26561e-07
6.42927e-06
-6.65645e-06
3.113e-05
4.30592e-06
-2.56047e-05
-9.84465e-06
-2.17231e-06
-3.1727e-06
1.50731e-05
-9.72747e-06
2.99054e-06
5.37196e-07
1.00648e-05
-1.35923e-05
-3.18092e-05
1.39362e-05
1.55506e-05
2.32224e-06
1.53217e-05
-2.39403e-05
-3.61598e-06
1.22197e-05
-2.39937e-05
5.86689e-06
3.91626e-05
-2.10346e-05
-3.82546e-06
-2.26765e-07
4.04648e-06
-1.32289e-05
3.39113e-05
2.32559e-05
-4.39381e-05
2.90649e-05
7.43299e-07
-4.64228e-05
1.66167e-05
-2.07989e-06
2.9589e-05
-2.65437e-06
-2.4854e-05
2.08491e-05
-1.66039e-05
1.25743e-05
-1.67953e-05
-1.2324e-06
-2.2361e-05
2.52496e-05
-1.65564e-06
-1.85531e-05
-2.83906e-06
-1.32374e-05
3.46144e-05
-8.15798e-06
-8.45136e-06
-1.51825e-05
3.17643e-05
-1.12952e-06
3.03879e-05
-3.41255e-06
-2.58451e-05
2.4569e-05
-2.40762e-05
8.48574e-08
-5.77052e-07
3.38869e-05
5.80353e-08
-2.32878e-05
-1.06552e-05
-8.45745e-06
-4.04015e-06
-2.41459e-05
3.6642e-05
-4.01699e-07
-3.76748e-06
4.16349e-06
-2.73909e-05
4.11959e-05
-3.2151e-06
-1.05886e-05
2.6863e-06
1.97083e-05
6.32478e-06
-2.87243e-05
-5.10495e-06
1.19892e-05
4.3278e-06
-1.12233e-05
-1.80358e-05
-4.44805e-06
1.87633e-05
3.72784e-06
1.84767e-05
1.36439e-05
-4.74725e-05
1.53524e-05
1.25369e-05
-9.43667e-06
3.20327e-05
-3.51298e-05
-2.78773e-06
2.21796e-05
1.84676e-06
-2.12372e-05
3.60909e-06
-3.58342e-06
-2.63919e-08
2.34309e-06
2.8555e-05
1.33596e-06
-3.22341e-05
2.94951e-05
-4.9188e-06
-2.79335e-05
3.36136e-06
-5.00454e-06
6.32153e-06
-2.8676e-05
2.73679e-05
-2.9595e-05
-4.57503e-06
2.33132e-05
1.0867e-05
1.25728e-05
-1.19633e-05
-8.52559e-08
-5.30346e-07
-4.16298e-05
2.65567e-05
-1.63695e-06
1.67115e-05
-5.28632e-06
4.52385e-06
7.62676e-07
1.26196e-05
-1.09252e-05
1.63398e-05
-1.80359e-05
1.9539e-05
1.64197e-05
-8.54239e-06
1.30517e-05
-3.54025e-05
-1.52754e-05
3.76236e-05
1.18021e-07
-1.81348e-05
1.82766e-05
-2.60716e-07
9.22751e-06
-1.56803e-05
-1.77318e-05
2.41939e-05
1.57227e-05
6.59211e-06
-2.48203e-06
-1.98302e-05
-5.08995e-06
1.26604e-06
6.42284e-06
-2.59837e-06
-3.68327e-06
4.72596e-05
-1.61258e-05
-2.74244e-05
1.28942e-05
1.53636e-05
-4.14613e-07
-2.78413e-05
1.53346e-07
3.66221e-06
-3.81432e-06
-1.21551e-06
5.25546e-06
2.96568e-05
-3.36937e-05
3.45649e-05
4.61647e-06
-1.65205e-05
-2.26596e-05
-1.23241e-06
6.78199e-06
-5.36902e-06
-1.82907e-07
1.59632e-05
-1.39169e-06
-1.72858e-05
2.72093e-06
-4.82152e-06
-1.51292e-05
7.54838e-06
1.24111e-05
-5.5536e-06
2.58689e-05
4.31415e-06
-2.46303e-05
2.55601e-05
-3.15999e-06
-2.8115e-05
5.71599e-06
-3.22319e-06
6.28059e-06
-3.05721e-06
3.05353e-06
-1.35202e-05
1.19806e-05
-1.51567e-06
7.65706e-07
1.27546e-05
-1.33538e-05
-1.68984e-07
1.15234e-05
1.34965e-05
-1.43557e-06
-2.35844e-05
1.83615e-05
2.42524e-05
-1.70536e-05
-1.64153e-07
4.74387e-06
-4.58176e-06
-3.80421e-05
1.91007e-05
3.50245e-05
-1.6087e-05
3.8193e-05
6.51725e-06
-3.99311e-05
-4.77889e-06
2.38266e-05
-1.56971e-05
-2.66719e-05
8.3441e-06
1.43246e-05
-3.1685e-05
-1.68393e-06
-7.05156e-06
4.04216e-05
-1.8956e-08
4.65162e-06
-4.63793e-06
3.56532e-05
-1.36544e-06
-3.85491e-06
-3.04322e-05
4.96562e-06
-4.98299e-06
2.04161e-08
-1.37675e-05
3.56299e-06
-8.64342e-06
1.88493e-05
-2.08067e-05
-1.67992e-05
1.56779e-05
2.19292e-05
2.38241e-05
-1.84199e-05
-4.81934e-06
-5.79215e-07
-6.86788e-08
3.7939e-06
-3.72886e-06
-8.14256e-07
-5.02613e-06
-1.07251e-08
5.85387e-06
9.23201e-06
3.55176e-06
-6.35032e-06
-6.43414e-06
-1.42187e-05
1.52605e-05
-1.85504e-06
-3.28762e-08
4.03645e-05
-1.31637e-06
-3.90142e-05
-8.72469e-06
-8.27416e-07
1.13909e-05
-1.84288e-06
4.03604e-06
-1.66007e-05
1.30999e-05
-5.36591e-07
1.08161e-05
-2.04189e-05
1.38624e-05
-4.25895e-06
7.64162e-06
1.78384e-05
2.73731e-06
-2.82051e-05
6.78104e-06
-6.94316e-06
1.61673e-07
1.7015e-05
-1.37772e-05
-3.5524e-05
3.228e-05
8.39487e-07
1.31451e-06
1.61906e-05
-1.83442e-05
3.6178e-06
1.70026e-05
-2.14191e-05
7.98651e-07
1.38083e-05
-6.42019e-07
-2.13138e-06
-1.10337e-05
9.36322e-06
1.95654e-05
-2.90689e-05
1.31504e-07
1.69382e-05
-1.14359e-07
-1.44247e-06
-1.53804e-05
-2.65375e-05
9.78716e-06
1.22801e-06
1.55133e-05
-1.07357e-05
-9.85742e-06
-1.22738e-06
1.21021e-05
-2.08184e-05
1.55682e-05
-6.85896e-06
-3.8071e-06
-1.58272e-05
-2.39489e-05
4.35818e-05
-6.3296e-06
8.04555e-06
-1.91998e-06
2.04993e-07
5.85436e-08
3.18406e-06
-3.24347e-06
-7.32234e-06
3.83151e-05
1.22579e-05
-4.32623e-05
2.62947e-05
1.09629e-05
-9.87751e-06
-2.73966e-05
2.74025e-05
-2.3668e-05
2.78664e-05
-3.15994e-05
3.6485e-05
-4.04409e-05
4.69299e-06
-7.36067e-07
-4.9269e-05
2.12494e-05
8.87934e-06
1.91402e-05
-1.40132e-05
-1.73088e-06
1.5356e-05
3.88567e-07
3.07211e-05
-4.11636e-05
1.45519e-05
-4.10853e-06
1.25581e-05
-1.37776e-05
4.30766e-06
-3.08684e-06
-1.52916e-05
1.37013e-05
-9.13415e-06
-1.5695e-05
5.02336e-05
5.74529e-06
-4.02679e-05
-6.52035e-06
1.207e-07
6.3949e-06
-4.67798e-06
1.03158e-05
-3.8952e-05
-2.37728e-05
-5.28123e-07
2.69394e-07
2.40263e-05
5.75578e-06
1.31548e-07
-5.87948e-06
8.20202e-06
-5.01749e-07
-3.0485e-05
2.27864e-05
-6.12505e-08
-1.87359e-07
1.26147e-05
-1.23716e-05
8.43576e-06
1.76092e-05
-2.98462e-05
3.80327e-06
2.26684e-05
1.67623e-06
1.51203e-06
-2.58412e-05
-3.16181e-06
5.86093e-06
4.01873e-05
-4.28834e-05
-1.06372e-05
-1.45653e-06
-2.71693e-07
1.2371e-05
-8.39238e-06
7.07243e-06
-2.78788e-05
2.91974e-05
-1.7122e-06
2.81639e-05
-2.43672e-05
-2.07984e-06
3.30596e-05
1.00173e-05
-1.52679e-05
-2.7805e-05
7.11524e-06
-3.95441e-05
2.62751e-05
-3.34296e-05
4.26536e-05
-2.04482e-06
1.83129e-05
-7.0739e-06
1.50461e-05
-1.64252e-05
-4.14854e-06
8.07645e-06
1.2496e-05
-8.49807e-06
8.84802e-07
7.79039e-06
-1.79925e-07
-1.09861e-05
2.69096e-05
-1.88151e-05
2.88664e-06
-3.17833e-05
2.78013e-05
2.93236e-05
-2.53413e-05
-4.10537e-06
3.75867e-06
1.99134e-07
1.49172e-07
3.05359e-05
-4.53627e-05
-1.67831e-05
3.16028e-05
-4.02203e-05
-1.56205e-05
2.70357e-05
2.88049e-05
3.58554e-05
3.83266e-06
2.06271e-06
-4.17517e-05
3.0658e-05
-2.02226e-05
2.54201e-05
-4.08806e-05
-3.81534e-06
1.65168e-05
2.81833e-05
3.96664e-06
3.38891e-07
-4.30385e-06
3.44001e-05
-3.18288e-05
-1.08585e-05
8.28667e-06
-2.22775e-05
-7.80226e-06
6.64816e-06
2.34277e-05
1.48943e-05
2.47092e-05
-1.39322e-05
-2.56716e-05
7.57212e-06
2.44083e-05
-2.36576e-05
-8.31532e-06
6.07281e-07
-7.98872e-06
7.38356e-06
-1.54251e-05
-1.31199e-05
1.31302e-05
1.5427e-05
1.97327e-06
2.21329e-05
-5.2815e-06
-1.88266e-05
-3.60595e-05
3.62184e-05
-6.5309e-06
-2.78691e-06
3.31254e-05
-3.22407e-05
1.90344e-06
1.97571e-05
4.1588e-06
1.11833e-05
-3.50935e-05
-8.49489e-08
-2.74283e-06
2.82982e-06
-3.98894e-06
3.9707e-06
2.31615e-08
-2.17095e-05
-1.07972e-05
1.29284e-05
1.95798e-05
-2.81231e-05
-8.25746e-07
3.45194e-05
-5.55831e-06
-8.41211e-06
3.07248e-05
-3.18641e-05
9.55167e-06
-2.4474e-05
1.98803e-05
-8.81133e-06
1.33998e-05
2.78801e-07
2.30316e-05
-2.57566e-05
2.44032e-06
-3.4471e-05
8.00335e-06
2.22174e-05
4.25012e-06
1.80493e-06
4.21019e-05
-1.59492e-05
-2.79622e-05
2.73758e-06
-5.10408e-06
-1.99148e-05
-1.00076e-05
8.21281e-06
1.96235e-05
-1.38581e-06
4.2567e-06
-2.24939e-05
-2.48751e-06
-5.87494e-06
7.33252e-06
1.05719e-06
1.59363e-05
-4.79423e-06
-1.13648e-05
2.28784e-07
1.28978e-05
-4.3245e-05
4.17191e-05
-1.13678e-05
-1.74908e-05
3.01504e-05
4.30887e-06
-1.69652e-05
-3.9148e-06
3.9748e-06
2.8745e-05
-2.88102e-05
-4.03067e-05
2.99271e-06
3.83331e-07
3.69398e-05
-2.32121e-05
3.00525e-06
1.83427e-05
1.86699e-06
-2.2558e-05
1.39678e-05
3.17073e-05
-2.31137e-05
-1.58628e-05
-2.92127e-05
8.34996e-06
3.67368e-05
4.65664e-06
-3.72977e-05
-4.16776e-06
3.68108e-05
-2.76076e-05
3.95223e-06
-1.65699e-06
2.53116e-05
-2.83051e-05
-1.73225e-06
-2.10981e-06
3.21507e-05
6.56773e-06
-3.38602e-06
3.08525e-05
-3.4032e-05
8.51835e-06
-4.91704e-06
-3.30973e-08
-3.56613e-06
4.50839e-06
-4.55985e-05
-7.34169e-06
4.84309e-05
-4.94878e-06
3.18304e-06
2.4508e-06
-6.86881e-07
-2.88451e-05
-7.56061e-06
1.58561e-05
2.05501e-05
-1.72332e-06
1.64061e-05
3.0112e-06
-1.76926e-05
-1.31005e-05
-1.3981e-05
9.75224e-06
-6.22131e-06
2.58582e-06
3.25217e-05
-2.88817e-05
2.51787e-05
-3.39227e-05