/*--------------------------------*- C++ -*----------------------------------*\
| =========                 |                                                 |
| \\      /  F ield         | OpenFOAM: The Open Source CFD Toolbox           |
|  \\    /   O peration     | Version:  2406                                  |
|   \\  /    A nd           | Website:  www.openfoam.com                      |
|    \\/     M anipulation  |                                                 |
\*---------------------------------------------------------------------------*/
FoamFile
{
    version     2.0;
    format      ascii;
    arch        "LSB;label=32;scalar=64";
    class       volVectorField;
    location    "22";
    object      U;
}
// * * * * * * * * * * * * * * * * * * * * * * * * * * * * * * * * * * * * * //

dimensions      [0 1 -1 0 0 0 0];

internalField   nonuniform List<vector> 
59516
(
(0.115092 0.00067158 -0.000667167)
(0.107581 0.000404944 4.71837e-05)
(0.121744 -0.00205274 0.000320008)
(0.132956 0.00297 0.00114515)
(0.114085 0.000422065 -0.00403393)
(0.101114 -0.00489166 -0.0107866)
(0.13371 -0.000241915 -0.00166867)
(0.112926 0.00069246 -0.00038635)
(0.121219 0.000757075 -0.000237433)
(0.0671101 -0.000723707 0.00284131)
(0.141824 0.000675163 -0.000572996)
(0.0681208 0.000405729 -0.00260652)
(0.128485 0.00119744 0.000311609)
(0.0246271 -8.70379e-05 -0.00022402)
(0.0717375 0.00221102 0.00299895)
(0.0617456 0.00366688 -0.00248788)
(0.148786 0.000210469 -0.000151877)
(0.0718987 0.00366452 -0.00297598)
(0.118038 0.00330073 0.0014757)
(0.148743 -0.000938366 0.000295039)
(0.0591334 0.000352994 -0.000206939)
(0.145574 7.67436e-05 0.000248957)
(0.147071 0.000358841 0.000159283)
(0.0415991 -0.00119903 -0.000350018)
(0.152938 -0.00114347 0.00181252)
(0.0773211 0.000951124 0.00102773)
(0.0515684 0.00112265 -0.00255676)
(0.0469424 0.00369228 0.000538648)
(0.0717442 0.00152192 0.000750864)
(0.0219267 -0.00352747 0.00100122)
(0.108352 -0.0204726 -0.00443492)
(0.0483581 0.00370668 -0.000412885)
(0.135545 -0.000197501 0.000518425)
(0.121817 -0.000431324 0.00254411)
(0.135226 0.00121164 0.00119607)
(0.144758 -0.000734855 -0.000175548)
(0.0217167 -0.00194174 -0.00268223)
(0.0721722 0.00246256 -0.00595973)
(0.10264 -0.00221 -0.00039813)
(0.148206 -0.00317273 0.00196777)
(0.112422 -0.00106643 0.000710249)
(0.140951 -0.00426051 -0.00426381)
(0.143905 -4.86677e-06 0.000346042)
(0.121474 -0.000941924 9.47412e-05)
(0.142614 -0.000622962 0.000143202)
(0.0661464 -0.00111708 -0.00155335)
(0.133924 -0.000293925 -0.000228466)
(0.148116 -2.43385e-05 -7.22322e-05)
(0.111802 -0.00838943 0.0121219)
(0.141069 0.00218785 0.00193548)
(0.104023 0.010211 -0.0143053)
(0.0556935 -0.00337939 0.00198276)
(0.129497 0.00104189 -0.00187871)
(0.133265 -9.85817e-05 -0.000573463)
(0.0541896 0.00261902 -0.000202689)
(0.131488 -4.22836e-05 -0.000457636)
(0.137927 0.00509637 0.00554209)
(0.0606817 0.00403609 -0.00240216)
(0.148527 -0.00209838 0.000308325)
(0.132435 0.00355178 0.00396448)
(0.145658 -0.000169077 0.000701418)
(0.0236767 0.00246793 -0.00104784)
(0.144383 -0.00183314 -0.000731827)
(0.14494 0.000282468 -0.000866816)
(0.134038 0.00116219 2.29375e-05)
(0.139197 0.0012321 0.000819949)
(0.0335051 -0.00211564 0.00292531)
(0.0496932 0.000199774 -0.000124684)
(0.120998 -0.00438734 0.0211623)
(0.135713 0.00140661 0.00149892)
(0.0448744 0.00110896 0.000222489)
(0.145574 0.000490425 -0.000875431)
(0.0291132 0.00191156 -0.00424915)
(0.139223 -0.000438182 -0.00090008)
(0.149947 -0.00130182 0.000402209)
(0.147558 0.000598522 0.000549444)
(0.147933 0.000755882 1.91971e-05)
(0.143343 0.000821784 -0.000772041)
(0.0547876 -0.00173678 0.00141791)
(0.140319 0.00152014 0.0020867)
(0.0494338 0.00178726 0.000262914)
(0.138327 0.00175862 0.00140949)
(0.135285 0.000751038 0.00143215)
(0.0254348 -0.0010292 0.00348054)
(0.138529 0.00138632 0.00140286)
(0.14832 -0.00095745 -8.43206e-05)
(0.0399425 -0.00151084 0.00063683)
(0.144958 -0.00045051 0.000683189)
(0.0649069 0.00097854 0.00254566)
(0.1087 0.00709146 -0.00417725)
(0.130023 -0.000301694 -0.00862828)
(0.133994 0.000478161 7.31886e-05)
(0.147786 5.84563e-05 0.000634013)
(0.13357 -0.000162636 -0.000439582)
(0.141607 -0.00133919 0.000111714)
(0.110139 -0.00979313 0.00410604)
(0.138391 -0.000864169 0.00187992)
(0.0620786 -0.00186551 -0.00426474)
(0.0692488 0.00177839 4.41207e-05)
(0.142929 -0.000102195 0.00149783)
(0.0464923 0.00128277 0.00156659)
(0.031056 0.00143236 -0.00357539)
(0.028471 0.00125703 0.00396769)
(0.0651795 -0.00122637 -0.00270301)
(0.138157 0.000616813 -0.00018943)
(0.138307 0.00039981 0.000813998)
(0.0499831 0.0038018 -0.00148647)
(0.116056 0.000292441 -0.000710865)
(0.111392 -0.000555659 -0.000889258)
(0.0768782 0.00049967 -0.00325192)
(0.12477 0.0113942 -0.0117431)
(0.0394037 0.00371717 -0.000155268)
(0.0769016 0.000534056 -0.00373384)
(0.118105 0.0157523 -0.00777535)
(0.146742 -0.00054886 0.00106302)
(0.111894 0.00101068 0.000279393)
(0.0645747 0.000521356 -0.00256892)
(0.133909 0.000473061 0.000801255)
(0.0262826 0.000114572 0.00128154)
(0.142591 0.00203021 0.000236925)
(0.149058 0.000292998 3.27208e-06)
(0.147252 0.00128386 0.000159335)
(0.149468 6.55656e-05 -0.000213567)
(0.145568 0.000522914 0.000257468)
(0.131776 -0.014045 0.00252051)
(0.0951005 0.000761062 -0.000669215)
(0.0355826 -0.000611916 0.0026173)
(0.137234 -0.00875097 -0.0005331)
(0.0900573 -0.002525 0.0129442)
(0.147106 0.000411166 0.00104321)
(0.147111 0.000438317 0.00177619)
(0.123704 0.00128787 0.00243219)
(0.0284074 0.00125658 -0.0020719)
(0.14407 -0.000301563 0.000895949)
(0.11135 0.000703555 0.000479401)
(0.125932 -0.00139696 -0.00134055)
(0.108201 0.0116606 -0.00806241)
(0.135398 -0.000707536 0.000613416)
(0.0490289 0.00317387 7.2822e-05)
(0.108242 0.00125017 -0.00152388)
(0.0542453 -0.000944388 -0.00259087)
(0.149612 0.000395113 -0.000591851)
(0.0225922 0.00113896 0.00215801)
(0.13137 -0.0012026 -0.000790517)
(0.14491 0.000420076 9.98723e-05)
(0.137684 0.00165279 -0.000151681)
(0.140708 -0.000960291 0.000325739)
(0.124671 0.000223205 -0.00150859)
(0.0622946 -0.00108777 0.00183772)
(0.115491 -0.000211406 -0.00102881)
(0.113399 -0.000482644 -0.000798346)
(0.0448661 -0.00170489 0.000141039)
(0.149044 -0.000295955 0.00102943)
(0.14747 -3.44847e-06 0.0015825)
(0.0993302 -0.000888592 0.00149133)
(0.0238087 -0.000842573 0.00261483)
(0.124766 0.000666289 -0.00052715)
(0.121212 0.000823358 -0.000374599)
(0.092169 0.00131574 -6.22933e-05)
(0.0238335 0.00255242 -0.00342793)
(0.0732861 0.00179008 -0.00309266)
(0.0754079 -0.00359683 -0.00202471)
(0.042499 -0.00253867 0.00043177)
(0.0320682 -0.000205393 -0.000592014)
(0.111597 0.00108002 0.00191603)
(0.151555 0.000239318 0.000966729)
(0.0729949 -0.000236836 0.000677089)
(0.146965 0.000562541 0.000344684)
(0.0234363 -0.00122994 0.00291467)
(0.132934 -0.000114422 0.000753309)
(0.0939588 0.00149804 0.00113225)
(0.0604031 0.000830698 -0.000544827)
(0.0744915 0.00225254 0.00111061)
(0.136169 -0.000922812 0.000928892)
(0.0590842 -0.00117454 0.000308236)
(0.135343 0.000613586 -0.000699128)
(0.147031 0.000219529 -0.000887524)
(0.145427 -0.000640522 -0.000328139)
(0.078666 -0.00148705 0.0045338)
(0.0486325 -0.000447155 1.52819e-05)
(0.141631 0.00153399 0.00139481)
(0.0407769 -0.00324046 -0.0012481)
(0.0354166 -0.000294061 -0.0026205)
(0.0744619 -0.00211295 -0.000323118)
(0.146975 0.00010233 0.00144161)
(0.0690409 0.000314881 0.000721979)
(0.0427031 -0.000872648 -0.00288827)
(0.0290237 -0.00019884 0.000465221)
(0.127292 0.000335994 0.000913542)
(0.110736 -0.000930507 0.000261497)
(0.13662 -0.00103362 0.00263633)
(0.0618203 0.00314671 0.000406389)
(0.146984 -0.000399912 -0.000154988)
(0.0663265 0.00293534 -0.000476396)
(0.145667 -0.000999702 -0.000195171)
(0.0354904 -0.000265614 0.000894333)
(0.0668308 0.000822006 -0.000627593)
(0.049514 -0.000813107 0.000277918)
(0.120156 0.00284584 0.00299712)
(0.144979 -0.000440245 0.00103506)
(0.0944643 -0.00256808 0.000611293)
(0.14767 0.000381354 -0.000784757)
(0.113329 -0.000255483 0.000685218)
(0.0236384 0.00284807 -0.00145302)
(0.13575 -0.00197741 -0.000633541)
(0.14281 -0.000210161 -0.000307993)
(0.147546 -0.00030804 0.000148499)
(0.140189 0.000809537 5.50237e-05)
(0.0275629 -0.000633789 0.00024084)
(0.122269 -0.00165713 -0.000128719)
(0.0606649 0.00371033 0.00274112)
(0.0261236 -0.0043558 -0.000627416)
(0.142644 0.000433288 -0.00117519)
(0.0656086 -0.00102714 0.00140329)
(0.12465 0.000532651 -0.00057795)
(0.149523 -0.00115882 0.000831921)
(0.13646 0.00109247 0.000227483)
(0.148955 -0.000645731 0.000330459)
(0.0636504 0.00257592 -0.00246125)
(0.147515 -0.000918693 -0.000165233)
(0.0650849 0.00310476 0.0015857)
(0.110041 0.00141866 -3.10858e-05)
(0.14449 0.00084917 0.00148803)
(0.0499008 0.000285057 0.00134769)
(0.144726 -0.00173374 0.000954307)
(0.147557 0.000397069 -0.000784002)
(0.0335729 -0.000449365 0.00198976)
(0.0555944 0.0018926 -0.00236648)
(0.145897 -0.00116982 0.00173464)
(0.0651487 0.000161353 -0.00393507)
(0.150072 -0.00137995 0.00013178)
(0.147494 0.00105275 -0.000899249)
(0.144855 0.000114165 0.00174744)
(0.0306438 -0.00244954 -0.00160507)
(0.0398057 0.00129308 -0.00189051)
(0.0409501 0.00148361 -0.00149117)
(0.0731368 0.000348004 0.0011814)
(0.108327 -0.0019993 0.00095247)
(0.14321 -1.04852e-05 0.00185865)
(0.0679774 -0.000799421 0.00125023)
(0.146062 0.000147948 0.00153164)
(0.0250631 0.000878883 0.003489)
(0.0634063 -0.000284638 0.00034001)
(0.0313821 0.000373093 0.00331185)
(0.14583 0.000393923 0.00105732)
(0.104004 -0.000480253 -0.000654758)
(0.139134 -0.000459085 0.000554351)
(0.0765412 -0.000381597 -0.00086195)
(0.150019 -0.000615258 0.000936443)
(0.112946 0.00017828 0.0002326)
(0.150139 -0.00255251 0.0023611)
(0.137927 -0.000399515 0.00118889)
(0.145097 0.0002497 0.00152169)
(0.140681 0.000678751 -0.000187238)
(0.140254 0.000638732 0.000325378)
(0.144822 0.000155685 0.000479935)
(0.0653112 0.00031093 3.51411e-05)
(0.143186 -0.000298332 0.00167846)
(0.0508096 -0.000347755 -0.0028574)
(0.0685888 0.000967184 0.00194461)
(0.13508 0.000734653 -0.000126223)
(0.14553 -0.00178992 0.000863475)
(0.122564 0.00110409 0.0017516)
(0.148231 -0.00157852 0.00131956)
(0.108829 -0.000259046 0.00221622)
(0.0690118 0.00271124 -0.0011724)
(0.147544 0.00151988 -0.000987735)
(0.105608 0.0013024 0.000638041)
(0.0545965 -0.000911379 -0.00169789)
(0.0615097 -0.000269024 -0.00172454)
(0.106209 0.000688389 -0.00230296)
(0.146434 -0.000954488 -0.000563586)
(0.111725 -0.00170604 7.31081e-05)
(0.106129 -0.00069503 0.00119205)
(0.14644 -0.00213177 0.000567796)
(0.103956 -0.000237692 0.00278583)
(0.0261491 0.00306082 -0.00197796)
(0.148155 -0.00153195 0.00106135)
(0.0308269 0.00217549 -0.00260315)
(0.0497414 -0.00173657 0.000961774)
(0.144629 -0.000429138 0.00160313)
(0.1394 -0.000927484 0.000523547)
(0.030639 0.00267474 0.00362154)
(0.128684 0.000407038 -0.00102133)
(0.132452 0.00124428 -0.000355336)
(0.14639 0.000707924 -0.000537258)
(0.145408 -0.00023157 0.000641886)
(0.0308129 0.00356964 0.00107071)
(0.144874 -0.00147545 0.00152368)
(0.143442 -0.00213542 -0.000250163)
(0.145306 -0.000277728 0.00164638)
(0.13561 -0.000216437 0.00179283)
(0.133666 0.000497128 0.000940025)
(0.106736 0.00050379 -0.000194918)
(0.15119 0.000108066 0.000320676)
(0.0348191 -0.00139933 -0.00150079)
(0.143457 -0.00240457 -0.000158439)
(0.141736 -0.00167335 -0.00109085)
(0.146362 -0.00158435 0.00102259)
(0.142862 -0.00216291 -0.000221897)
(0.126084 -0.00106095 -0.000511297)
(0.0718924 0.000344414 0.00102001)
(0.028454 -0.000151163 0.00219214)
(0.0347983 -0.00121282 0.000717027)
(0.151933 -0.00199374 0.000310161)
(0.0260079 -0.00188382 0.00344311)
(0.0741573 -0.000169736 -0.0013354)
(0.0607816 0.00318011 0.000730016)
(0.148457 -0.00171235 3.63622e-05)
(0.152723 0.000348891 -0.000505428)
(0.15019 -0.00109293 0.000141535)
(0.0686146 -0.00062548 -0.00150216)
(0.113426 0.000619964 -0.00184899)
(0.0488275 -0.00371217 0.0031426)
(0.0611675 0.000892777 0.00257207)
(0.141356 -0.00180205 -0.000430687)
(0.109529 0.00182451 -0.000824647)
(0.10767 0.0119053 0.00373115)
(0.0995111 -0.001848 0.000804948)
(0.0532038 -0.000296307 -0.000436269)
(0.0749549 -0.000944417 0.00185354)
(0.116792 -3.91893e-05 -0.0012499)
(0.14943 0.000223451 -7.72405e-05)
(0.148793 0.0010937 0.000186751)
(0.148066 0.00027806 0.00161035)
(0.149224 -0.00231868 0.000316498)
(0.100214 0.00262045 0.00325513)
(0.129486 0.00132018 2.99827e-05)
(0.143732 0.000877533 -0.000538292)
(0.146366 0.000368952 0.000271441)
(0.149021 -0.000545773 0.000514965)
(0.0647502 0.00172074 -0.00370113)
(0.0271696 -0.00204063 -0.00344775)
(0.142859 -0.000141302 0.000603714)
(0.0482994 -0.00195375 0.00224368)
(0.0385491 0.000502292 -0.000352885)
(0.14444 -0.000437747 0.00186205)
(0.142641 -0.000230569 0.000782937)
(0.0643562 -0.00159389 -0.00166989)
(0.146664 -0.000280851 0.00103212)
(0.14938 -0.00116823 0.000360854)
(0.148038 -0.000208831 -0.00110883)
(0.148945 0.000732527 -0.000267515)
(0.0404256 0.00119904 -6.55961e-05)
(0.150299 0.000303218 -0.00089554)
(0.145563 -0.000920896 0.000477131)
(0.0689598 -0.000268423 0.00108395)
(0.146225 -0.000576113 0.00169979)
(0.146551 0.000537515 0.000210775)
(0.134322 -0.000263837 -0.000883737)
(0.127237 -3.27598e-05 5.57359e-05)
(0.141062 -3.482e-05 0.000998245)
(0.141861 -0.00135705 -4.16851e-05)
(0.081653 -0.000661585 -0.000403024)
(0.038767 0.00128641 -0.00111807)
(0.0434867 -0.00297536 -0.000769949)
(0.108174 0.000611979 0.00119794)
(0.0868822 -0.00590774 0.0102283)
(0.0749578 -0.00402755 -0.00586449)
(0.095203 0.000307226 -0.000510151)
(0.124554 0.000132685 0.00188512)
(0.133361 0.000386029 -0.00024733)
(0.142471 0.000540893 0.00129331)
(0.150003 0.000601218 0.000487484)
(0.137846 -0.000785765 1.00605e-05)
(0.14165 0.000650062 0.000348592)
(0.140598 0.00107912 0.000261336)
(0.037285 -0.000541044 -0.000471196)
(0.113848 -0.0216331 0.00283123)
(0.0679051 0.00203766 0.00107091)
(0.0511328 -0.00199065 -0.00089647)
(0.0520718 0.000282059 0.000311968)
(0.146699 0.000739602 0.000663439)
(0.105449 9.50258e-05 0.000560391)
(0.148689 0.000633635 -0.000244969)
(0.023991 0.00156522 -0.00226943)
(0.130242 -0.000151423 0.000232335)
(0.0537271 0.00125635 -0.000382735)
(0.147241 -0.00114778 -0.000256482)
(0.0566959 -0.0010265 -0.000455765)
(0.0704198 -0.00132594 0.00173461)
(0.120313 -0.00178521 0.00101096)
(0.140114 0.00056092 0.00124132)
(0.0253 0.00224525 -0.00272731)
(0.0645125 -0.00029473 0.00331049)
(0.133944 0.00050576 0.000456387)
(0.0298623 -0.00174965 -0.00166606)
(0.129862 0.00107218 0.00462084)
(0.122606 -0.000249893 0.0017394)
(0.135917 0.000980622 -0.000577442)
(0.10674 0.00230743 -0.00139719)
(0.0998959 -0.00112677 0.00207793)
(0.150347 0.00194532 -0.000410165)
(0.07776 -0.00738603 -0.00717041)
(0.148213 0.00178618 0.000618744)
(0.111549 0.00713602 0.00801507)
(0.0715645 -0.00243642 0.000816995)
(0.074505 -1.93885e-06 -0.00100086)
(0.149538 0.000673176 0.000434357)
(0.15236 0.00151799 0.000433786)
(0.0611974 -0.000452207 0.000257103)
(0.139041 0.000227367 -0.000305167)
(0.109264 -0.000919566 -0.00197872)
(0.148481 -0.000790737 0.000628171)
(0.147766 -0.000624648 0.0010529)
(0.0567475 0.00139169 -0.00344778)
(0.136246 -0.000682313 -0.00033223)
(0.143117 -0.000869165 0.000458743)
(0.144508 -0.000253456 -0.000234538)
(0.147573 -0.000432351 -9.93061e-05)
(0.0278465 -0.00065136 -0.0031702)
(0.0261358 0.00101844 -0.00337446)
(0.131617 0.000447968 -0.00149852)
(0.14918 0.00057371 -4.40826e-05)
(0.148621 -0.000676235 -0.00129849)
(0.0431418 0.000711911 -0.0026785)
(0.145042 -0.000350935 0.000144109)
(0.119501 -0.00117508 0.000665608)
(0.143663 0.00120241 0.000708818)
(0.15044 0.00153638 -3.31148e-05)
(0.148947 0.000289332 -3.37836e-05)
(0.148891 0.00150165 0.00108353)
(0.149855 0.00168361 0.00105695)
(0.100648 2.21063e-06 -0.00042975)
(0.146683 0.00181315 0.000327112)
(0.0658771 -0.000911107 -0.00293751)
(0.147229 -0.00155191 -5.03825e-05)
(0.120303 -4.41314e-05 -0.00151557)
(0.141494 0.00133876 -0.000109227)
(0.147587 0.000632068 -7.91978e-05)
(0.145213 0.000105055 -0.0005689)
(0.140803 0.00170673 0.000273479)
(0.0483763 0.00287394 0.00210403)
(0.0424386 0.000840554 0.000738004)
(0.0258623 0.00225123 -0.00284526)
(0.140721 0.00219398 0.00307345)
(0.151802 -6.22349e-05 -0.000148616)
(0.136061 -0.000318158 7.18654e-05)
(0.132288 0.00220351 0.000951634)
(0.0385013 -3.56366e-05 0.00113838)
(0.0287635 -0.0007143 0.00309333)
(0.12405 0.000518793 0.00144243)
(0.140882 -0.000177884 0.000778333)
(0.147753 0.000691926 0.000749259)
(0.148256 0.000973339 -0.000493875)
(0.139312 -1.11387e-05 -0.00163143)
(0.149205 0.00134485 -0.000186713)
(0.138028 0.001266 -0.000358863)
(0.0322905 -0.00072263 0.00334087)
(0.129981 -0.00108136 0.000232735)
(0.0684276 0.000685986 0.00310303)
(0.0709808 -0.00686174 0.00144473)
(0.143367 -7.4664e-05 -0.000721122)
(0.108263 -0.000186984 0.000300201)
(0.142382 0.000928515 -0.00054355)
(0.0255345 -0.00448069 -0.00211106)
(0.151524 0.00205692 0.00027318)
(0.149583 -0.000205351 -0.000242946)
(0.145748 0.00136191 0.000382881)
(0.105814 0.00114962 0.000597107)
(0.141513 0.000325495 0.000388375)
(0.146376 0.00126316 0.000458104)
(0.126534 0.000156062 -0.000194951)
(0.145191 0.000212348 0.000459306)
(0.103473 0.0030189 -0.00141808)
(0.148807 -0.000976201 0.000171706)
(0.14473 -0.00187049 -0.000255155)
(0.0256452 -0.00194201 0.00163642)
(0.149061 -0.000469459 -0.0014543)
(0.123171 0.00097188 -0.00043927)
(0.0568067 -0.00163904 0.00407098)
(0.103502 0.000676058 -0.00176539)
(0.147788 8.93347e-05 -0.00122448)
(0.134839 -8.96321e-05 9.91455e-05)
(0.0972135 -6.90838e-05 -0.0023498)
(0.0254152 -0.00181927 -0.00260967)
(0.149554 -0.000574946 -0.000627309)
(0.131061 0.0017334 -0.0010046)
(0.148963 -0.000292464 9.30958e-05)
(0.130412 0.000602587 0.000676024)
(0.0453037 0.00203704 0.00180288)
(0.139413 0.000394898 -0.000695236)
(0.0284187 0.00267949 -0.00327279)
(0.145751 0.000431727 -4.47682e-05)
(0.102257 0.0112691 -0.00357045)
(0.14666 0.000538475 -0.000230149)
(0.0607477 -0.000320295 0.00203885)
(0.117191 -0.000845109 -0.00192502)
(0.106672 0.000824662 -0.00200331)
(0.04195 0.00297245 0.00203277)
(0.145102 0.000651661 0.000152683)
(0.142974 0.00163653 1.0303e-05)
(0.0274722 0.00120202 0.0028159)
(0.143476 -0.00173426 -0.000124857)
(0.144303 -0.00222312 0.000399349)
(0.0450197 -0.000187655 -0.00198922)
(0.0719123 0.00324358 0.000128212)
(0.0641023 0.00148231 0.00148873)
(0.142938 0.00107888 0.000463176)
(0.145363 -0.00186064 0.000250539)
(0.0348884 -0.000718183 0.00160235)
(0.0649567 -0.00164019 -0.000833801)
(0.0672599 0.00172791 -4.47912e-05)
(0.122704 0.00207777 0.000799192)
(0.145265 -0.00192874 0.000394249)
(0.0283256 0.00118489 -0.00388422)
(0.148999 -0.00171429 0.000433593)
(0.143937 0.000978301 -0.000711185)
(0.146779 0.00119687 0.000602305)
(0.0901092 0.00389573 -0.00371066)
(0.151379 0.00103335 0.000104008)
(0.0282175 -0.000178272 -0.00309694)
(0.147731 -0.00117841 -0.000165086)
(0.0325134 -0.000651185 -6.57416e-05)
(0.066431 -0.00264611 -0.000249869)
(0.145236 8.48023e-05 0.000345189)
(0.0700126 -0.00233171 -0.000408816)
(0.025312 0.00322646 0.00297586)
(0.0444566 0.00091399 -0.00192934)
(0.0541974 -0.00324611 0.00160955)
(0.0682695 0.00163608 -0.0017189)
(0.142575 -0.000559604 -0.000721966)
(0.0587727 -0.00134916 -0.00022725)
(0.0705221 0.00192323 -0.00133847)
(0.127445 -0.00533405 -0.0116524)
(0.144655 0.00168996 -4.97541e-05)
(0.0287665 0.00184635 1.03416e-05)
(0.117296 -0.000422918 -0.000975346)
(0.082124 0.00821439 -0.0027146)
(0.148229 -0.001752 -0.000684609)
(0.0664887 2.41535e-06 -0.00147156)
(0.143859 0.00189866 -0.000103908)
(0.0673407 -0.00331543 -0.00149025)
(0.127322 0.000295249 0.000872616)
(0.147976 0.00131091 -0.000364415)
(0.0601209 0.00334609 -0.00509077)
(0.15077 0.000210642 -0.000125065)
(0.0484204 0.00184289 0.00239648)
(0.0237042 0.00357359 0.00150757)
(0.141275 0.000174135 0.000397271)
(0.146366 0.00151649 0.000186172)
(0.131856 0.000638926 0.000428439)
(0.130601 0.00229343 -0.000866557)
(0.148482 -0.00199284 7.91778e-05)
(0.0694292 0.00152804 -0.000902137)
(0.148998 -0.001863 -0.000305405)
(0.0642244 -0.00162881 0.0027367)
(0.148275 0.001269 -0.000568873)
(0.131747 -0.00155886 -0.00127571)
(0.0344829 0.000938044 -0.0049455)
(0.147934 -0.000675663 -0.00067545)
(0.0628289 0.000234742 0.0022064)
(0.0320775 -0.00258744 -0.00236926)
(0.147333 0.000348662 -0.000165082)
(0.0509756 -0.00121159 0.000953497)
(0.13615 0.00023398 -1.85009e-05)
(0.145313 0.000440502 0.000194814)
(0.131997 0.0017555 0.00144593)
(0.0642694 -0.00254988 -0.00292073)
(0.151276 0.000953765 6.59555e-05)
(0.100852 -0.000803671 0.00112712)
(0.152489 -0.000288748 0.000903863)
(0.15114 0.000749409 -0.000863891)
(0.15047 0.00122037 0.000292768)
(0.14674 0.00137035 0.00012177)
(0.0530255 -0.00297582 -0.00189415)
(0.0602578 0.00015498 -0.00110983)
(0.148912 0.00131815 -0.000214231)
(0.147681 0.00108778 0.000260554)
(0.0390606 -0.00268511 -0.00137033)
(0.145418 0.000673735 -0.000576285)
(0.153148 -0.000254089 0.000784575)
(0.15077 -0.00178748 -0.000426531)
(0.149672 -0.00180632 -0.000558745)
(0.124613 -6.49349e-05 -0.000950521)
(0.0255094 0.0022898 0.00247387)
(0.152801 4.41489e-05 0.000424411)
(0.108171 -0.00147821 -0.0022951)
(0.139468 -0.000968666 -2.13379e-05)
(0.106662 -0.000121196 -0.000288553)
(0.036356 0.00287822 -0.000803654)
(0.14585 0.00146835 -0.000301526)
(0.101159 0.00147148 0.000960672)
(0.137693 -0.00084545 -0.000589931)
(0.148034 -0.00215942 -0.000468824)
(0.13899 -0.00109461 -0.000246017)
(0.0207889 0.00166575 -0.00266388)
(0.0271702 -0.0016988 -0.00285438)
(0.143305 -0.00221902 -0.000492114)
(0.143068 0.000468924 3.29889e-05)
(0.147225 0.00123398 0.000583005)
(0.14124 0.000899678 0.000521207)
(0.102173 -0.00110593 0.00057123)
(0.142852 -0.0013964 -0.000424701)
(0.148831 0.000575083 -0.000577131)
(0.0250643 0.00191078 0.000482563)
(0.143034 -0.00233827 -0.000406603)
(0.134465 -0.0104436 -8.92183e-05)
(0.0470004 -0.000738338 0.00234074)
(0.0633017 -0.00415941 0.000863329)
(0.144025 -0.00117781 -0.00095915)
(0.141291 -0.00148386 -0.000339766)
(0.139521 0.000824821 -0.00116771)
(0.131845 -0.000595176 -8.80445e-05)
(0.115535 -0.00317207 0.00083804)
(0.14865 9.80591e-05 -0.000555339)
(0.109145 0.00167107 -0.00262356)
(0.152118 0.0018664 -1.11004e-05)
(0.145881 -0.00117301 -0.000794601)
(0.149602 -0.00220889 0.00225277)
(0.145414 -0.00172081 -0.000537804)
(0.0478858 -0.00129793 0.00267015)
(0.149645 -0.000898316 -0.000277903)
(0.0395379 0.000971655 -0.00137918)
(0.0946406 -0.00893311 0.00536594)
(0.0688295 0.00162859 0.00205939)
(0.126362 -0.00182319 -0.0106377)
(0.134614 -0.000824894 0.000510102)
(0.11768 -0.0176054 -0.00391237)
(0.145379 -0.000135508 0.000100288)
(0.153204 0.00024744 0.000114593)
(0.14318 0.000632322 -0.000369012)
(0.146662 -0.000101529 0.00153741)
(0.0414198 0.000216456 -0.000482418)
(0.100957 -0.0038021 -0.00251932)
(0.112328 -0.00200582 -0.0153628)
(0.146287 0.000198758 0.000436687)
(0.120663 -0.002668 3.69703e-05)
(0.135629 -0.00942874 -0.00342134)
(0.143677 -5.16319e-05 0.00165388)
(0.121258 0.00111629 0.000231746)
(0.0427286 -0.00100734 0.00120882)
(0.0621095 -0.00218506 0.00221305)
(0.0301177 -0.000279605 -0.000181422)
(0.0280496 -5.05667e-06 -0.00221851)
(0.0412811 -0.000550274 0.000122287)
(0.134723 -0.00383074 0.00360543)
(0.137228 0.000367718 0.000232808)
(0.028806 -0.00058093 0.00418046)
(0.0266599 0.00207554 0.0032447)
(0.147338 0.00160051 -0.000169365)
(0.096663 -0.0121438 0.00828164)
(0.043602 0.00159871 0.000869724)
(0.1434 0.000627171 -9.71372e-05)
(0.116555 -0.00154713 -0.00150627)
(0.136437 -4.95351e-06 0.000824428)
(0.0494966 0.0023481 -0.00135595)
(0.0629379 0.00128966 -0.000683153)
(0.11959 -0.000925176 -7.68829e-06)
(0.146534 0.000800528 -0.000199243)
(0.14354 0.000974749 -0.000574898)
(0.0436468 0.00415744 -0.00161336)
(0.0289299 -0.00177941 0.00163862)
(0.106236 -0.0151251 -0.0110932)
(0.0307813 -0.00381766 -0.000428385)
(0.136789 -0.000869891 -0.00110757)
(0.0326459 0.00151999 -0.0043454)
(0.113842 -0.000602927 0.00214195)
(0.146629 -0.000503469 -4.66921e-05)
(0.154883 -0.00137624 0.000715104)
(0.0510765 0.000147472 -0.00107142)
(0.109208 -0.00119294 -0.00119241)
(0.0420551 0.00145969 -0.00151537)
(0.0345545 0.00413713 -0.00158583)
(0.146903 -0.000467856 -0.000788827)
(0.0225859 -0.00168314 -0.00323737)
(0.145151 -0.00225647 0.000375418)
(0.0566139 0.000923086 -0.00260427)
(0.145466 -0.000543805 -3.59896e-05)
(0.140079 -0.000541887 -0.000423416)
(0.0264482 -0.00054104 0.00403413)
(0.063725 -0.00283746 0.000156895)
(0.141792 5.34333e-05 -0.000347212)
(0.0402467 -0.00195743 3.83792e-05)
(0.142366 -0.000873737 -0.00017018)
(0.0626402 -0.0022617 0.00378686)
(0.117762 6.24926e-05 -0.000842308)
(0.147527 0.000122785 -0.00115214)
(0.0440853 0.00110717 0.00100384)
(0.0280169 0.00104165 -0.00378304)
(0.0589264 0.00113426 0.000317722)
(0.110731 0.0169619 0.00394372)
(0.116534 0.000754066 0.00030787)
(0.0653976 -0.00195113 0.00322391)
(0.0983658 3.13093e-05 0.00181681)
(0.0360411 -0.00127057 0.000847254)
(0.147249 0.000278898 -0.00112481)
(0.0283352 -0.00036983 -0.00154763)
(0.151185 -0.00231061 0.000500079)
(0.144437 -0.00138775 0.000831149)
(0.148278 -0.000587374 0.000388347)
(0.0233835 0.00253603 6.26586e-05)
(0.146182 -0.00166568 0.000183134)
(0.0908494 0.000414304 -0.000770169)
(0.146381 0.00124751 0.000747606)
(0.0623027 -0.000386237 -3.22669e-05)
(0.108081 -0.0127027 0.00668815)
(0.148935 -0.00152671 0.000282932)
(0.0486885 -0.000168249 -0.000473881)
(0.147042 -0.00027737 5.4327e-05)
(0.108817 0.00188897 -0.0201328)
(0.125302 0.000270472 -0.000265011)
(0.0387013 0.00109197 -0.0022152)
(0.0597661 -0.000872381 -0.00304224)
(0.147545 -9.79537e-05 0.000338186)
(0.136892 0.00114321 -0.000383329)
(0.0381727 0.00320126 0.00077884)
(0.119562 0.00115088 -0.00119215)
(0.0691229 -0.00187885 -0.00118868)
(0.0294004 -0.0027766 0.00174656)
(0.147913 9.92235e-05 0.000208441)
(0.103284 -0.00125991 0.010082)
(0.13612 0.00179925 -0.00172529)
(0.148128 -2.36748e-05 0.000353904)
(0.14805 1.23257e-05 0.000615679)
(0.146343 -1.72408e-05 -0.000942174)
(0.138546 0.000762112 0.0010801)
(0.0518999 0.00141418 0.00100686)
(0.0483791 -0.0030821 -0.0021735)
(0.151085 0.001806 -6.2964e-08)
(0.107544 -0.00907622 0.00868856)
(0.128648 -0.000310319 0.000342252)
(0.13538 -0.00055991 -0.000159674)
(0.0929618 0.00187968 0.000854978)
(0.14556 -2.46903e-05 -0.000195238)
(0.146586 0.00070224 -0.000231596)
(0.111278 -0.000951601 -0.00156596)
(0.114156 0.00187618 0.000504737)
(0.0432254 -0.000249553 -0.00293003)
(0.0815223 0.000637773 -0.000813636)
(0.0550782 -0.00043655 -0.00259083)
(0.14303 0.000213756 0.000660456)
(0.149156 -0.000606827 0.000912105)
(0.106122 0.000478759 -0.00293153)
(0.108238 0.000187092 -0.000742058)
(0.0250653 0.00270456 -0.000250139)
(0.0906666 -0.00109272 -0.000935917)
(0.0665529 -0.00238818 -0.0028272)
(0.147997 0.000119512 -0.000663104)
(0.148144 -0.000153077 -0.00111288)
(0.10482 -0.00939614 0.00605372)
(0.143933 -2.20127e-05 0.000931543)
(0.0925889 -0.00267401 -0.00193494)
(0.101665 -0.00247513 0.00794135)
(0.136736 0.000660787 0.00110924)
(0.033873 -0.00305443 0.000265786)
(0.148103 -0.000106298 -0.00102097)
(0.0594951 0.00172235 -0.000193375)
(0.138148 -0.000242892 0.000577128)
(0.0340981 0.00470804 0.000311485)
(0.150339 0.0017288 -0.00129407)
(0.101654 -0.0042829 0.00270274)
(0.145989 -0.000250993 -4.7362e-05)
(0.123784 0.000718421 -0.00034973)
(0.141395 0.000391917 9.22472e-06)
(0.146123 -0.00040464 -0.000135479)
(0.146794 -0.00127215 -0.000680748)
(0.041761 -0.00243332 -0.000172771)
(0.0557083 0.00113881 -0.00181245)
(0.0341722 -0.000798025 -0.000361362)
(0.146744 0.000107678 0.000320621)
(0.1447 -7.48079e-05 -0.000783032)
(0.136448 0.00156463 -0.000509738)
(0.149475 0.000533179 0.000549751)
(0.0244022 0.000589286 0.000546932)
(0.10899 0.000412588 9.17475e-05)
(0.100571 0.000364616 -0.00196792)
(0.147762 -0.000130232 0.000527502)
(0.132088 -0.000841586 -0.000897697)
(0.140091 0.000100567 -7.05911e-05)
(0.113752 -0.00062518 0.0014356)
(0.146884 -4.84267e-05 0.00060245)
(0.0248935 -0.00289955 -0.00309459)
(0.0959125 -0.00334442 0.00046356)
(0.142193 0.000273746 0.000354943)
(0.0321489 -0.00233433 0.00245707)
(0.0515966 -0.00062009 -0.00226443)
(0.0705256 -0.00176368 0.000195327)
(0.0262214 0.00126357 -0.00305171)
(0.105706 -7.65969e-05 -0.00114318)
(0.146595 0.00111138 -0.000455152)
(0.0672944 -0.00154155 -0.0015447)
(0.0234317 -0.00314585 -0.00183797)
(0.115276 0.00040058 -0.00108187)
(0.0298547 0.000200135 0.000501439)
(0.109875 0.0018366 -0.00052426)
(0.146598 2.99861e-05 -0.000235789)
(0.14677 -0.000160655 -0.000428861)
(0.1471 0.000568828 -0.00047667)
(0.149665 0.00179372 -0.00119906)
(0.146482 0.000112743 -0.000242342)
(0.133561 0.000690404 0.000617525)
(0.0547093 0.00138217 -0.00100992)
(0.147797 0.000553087 0.000866383)
(0.131852 0.000244485 0.000799185)
(0.0998558 0.00108443 -0.0014807)
(0.106444 -0.000904073 0.00108897)
(0.145761 -6.21061e-06 -0.000237856)
(0.124422 -0.00148198 -0.000463709)
(0.0755592 -4.39453e-06 0.00157894)
(0.14626 -0.00118044 0.0011654)
(0.0399937 0.00114974 0.000316138)
(0.0985856 5.06168e-05 0.000709562)
(0.105082 -0.000356806 0.000867334)
(0.0710792 4.85999e-05 0.00107068)
(0.147808 -0.000220371 -0.000118517)
(0.106048 -0.0119911 0.0131875)
(0.126329 0.00509696 0.00377293)
(0.0398017 0.000683999 -0.00354253)
(0.0323405 -0.00248291 0.0012583)
(0.0643429 0.00239423 -0.00145327)
(0.0246809 -0.00140035 -0.00221842)
(0.131149 -0.000111248 -0.000142935)
(0.139874 0.00160426 -0.000610018)
(0.133078 0.00204627 -0.000692316)
(0.110914 0.00907427 -0.0100418)
(0.131402 0.000680194 -0.00031794)
(0.137358 0.00137526 -0.000355156)
(0.0307089 -0.00207374 0.0053676)
(0.141008 0.0014371 -0.000241042)
(0.126108 -0.00262246 0.0109665)
(0.0526362 0.000949795 -0.00127895)
(0.0270552 -0.00422979 0.00121797)
(0.121917 -0.000111613 0.000967003)
(0.122604 -0.000840789 -0.00123084)
(0.0307994 -0.00224528 0.00369193)
(0.149073 -0.00129898 -0.00015248)
(0.0284743 -0.00302077 0.00196839)
(0.148118 -0.00076303 -0.000616868)
(0.142916 -0.000378996 0.000817615)
(0.123087 -0.00200648 0.000820468)