/*--------------------------------*- C++ -*----------------------------------*\
| =========                 |                                                 |
| \\      /  F ield         | OpenFOAM: The Open Source CFD Toolbox           |
|  \\    /   O peration     | Version:  2406                                  |
|   \\  /    A nd           | Website:  www.openfoam.com                      |
|    \\/     M anipulation  |                                                 |
\*---------------------------------------------------------------------------*/
FoamFile
{
    version     2.0;
    format      ascii;
    arch        "LSB;label=32;scalar=64";
    class       volVectorField;
    location    "22";
    object      U:Transformed;
}
// * * * * * * * * * * * * * * * * * * * * * * * * * * * * * * * * * * * * * //

dimensions      [0 1 -1 0 0 0 0];

internalField   nonuniform List<vector> 
59516
(
(0.000753902 -0.000572506 0.115092)
(8.30235e-05 0.00039914 0.107581)
(0.000227131 0.00206508 0.121744)
(-0.00292835 0.00124782 0.132956)
(-0.00405583 3.11992e-05 0.114085)
(-0.0104271 0.00561742 0.101114)
(-0.000679277 -0.00154323 0.13371)
(-0.000588885 -0.000531019 0.112926)
(-0.000721567 0.000329968 0.121219)
(0.00282098 0.000799285 0.0671101)
(-0.000395665 -0.000792224 0.141824)
(-0.00195179 -0.00177456 0.0681208)
(-0.000751213 -0.000983181 0.128485)
(0.000113297 -0.000211953 0.0246271)
(-0.000599928 -0.00367728 0.0717375)
(-0.000935876 0.00433125 0.0617456)
(0.000164749 -0.000200553 0.148786)
(-0.00431573 -0.00191302 0.0718987)
(-0.00314414 -0.00178521 0.118038)
(-0.000650225 0.000738097 0.148743)
(-0.000409099 8.13877e-06 0.0591334)
(0.000233763 -0.000114994 0.145574)
(0.000341181 -0.000194251 0.147071)
(0.00102698 0.000710986 0.0415991)
(0.000825319 0.00197777 0.152938)
(-0.00070303 0.00121104 0.0773211)
(-0.000840987 0.00266272 0.0515684)
(-0.00328482 -0.00177004 0.0469424)
(-0.000928825 -0.00142033 0.0717442)
(0.00291597 0.0022232 0.0219267)
(-0.0209103 0.00124756 0.108352)
(-0.00305731 0.00213607 0.0483581)
(-0.000306678 -0.000462299 0.135545)
(-0.0025005 -0.000637214 0.121817)
(-0.0016816 -0.000266257 0.135226)
(0.000407328 0.000636328 0.144758)
(-0.00290917 0.0015816 0.0217167)
(-0.00611712 -0.00204045 0.0721722)
(-0.0022449 5.5199e-05 0.10264)
(0.00282371 -0.00244234 0.148206)
(-0.000364794 -0.00122828 0.112422)
(-0.00602296 -0.000236644 0.140951)
(0.00026332 0.00022457 0.143905)
(-0.000935537 0.000144803 0.121474)
(-0.000577906 0.000273154 0.142614)
(0.00188078 0.000351294 0.0661464)
(-0.000349929 0.000127035 0.133924)
(-4.58658e-05 -6.08784e-05 0.148116)
(-0.0146471 0.00166914 0.111802)
(-0.00292019 -7.23532e-05 0.141069)
(-0.0175656 0.000598523 0.104023)
(-0.00340982 -0.00192996 0.0556935)
(0.000501061 -0.00208902 0.129497)
(-0.000467376 -0.000346608 0.133265)
(-0.00249074 0.000834586 0.0541896)
(-1.40951e-05 0.000459369 0.131488)
(-0.00752706 -0.000176549 0.137927)
(-0.0042648 -0.0019677 0.0606817)
(0.00139714 0.0015957 0.148527)
(-0.00532109 0.000135131 0.132435)
(0.000303648 0.000654502 0.145658)
(-0.00142567 0.00227071 0.0236767)
(0.00152858 -0.00124877 0.144383)
(0.000295315 0.000862524 0.14494)
(-0.000996277 -0.000598861 0.134038)
(-0.00136882 0.000562761 0.139197)
(0.000288916 0.0035986 0.0335051)
(-0.00012769 0.000197866 0.0496932)
(-0.0215984 0.000775467 0.120998)
(0.00132122 -0.0015747 0.135713)
(-0.000742797 -0.000852959 0.0448744)
(-0.000808047 0.000594942 0.145574)
(0.00437707 -0.00159706 0.0291132)
(0.000596803 0.000803726 0.139223)
(-0.00117978 0.000681636 0.149947)
(0.000796219 -0.000161719 0.147558)
(0.000423582 -0.000626342 0.147933)
(-0.00108222 -0.000316505 0.143343)
(0.0018932 0.0012011 0.0547876)
(-0.00243258 0.000864691 0.140319)
(-0.0017239 0.00053997 0.0494338)
(-0.00210595 0.000802728 0.138327)
(-0.0015708 0.000384342 0.135285)
(-0.00322833 0.00165871 0.0254348)
(-0.00180033 0.000805406 0.138529)
(-0.000832858 0.000479757 0.14832)
(0.0007888 0.00143735 0.0399425)
(0.000181437 0.000797989 0.144958)
(-0.00248167 -0.00113105 0.0649069)
(-0.00782784 -0.00254228 0.1087)
(-0.00862535 -0.000376271 0.130023)
(-0.000426111 0.000228962 0.133994)
(0.000365857 -0.000521094 0.147786)
(0.000468654 6.81229e-06 0.13357)
(0.00073436 -0.00112544 0.141607)
(-0.0106132 0.000352472 0.110139)
(-0.00181853 -0.000986838 0.138391)
(0.00212307 0.00414254 0.0620786)
(-0.00122165 -0.00129313 0.0692488)
(0.00146138 0.000343964 0.142929)
(-0.00123113 0.00160749 0.0464923)
(0.00349211 0.00162489 0.031056)
(0.00378559 0.00172974 0.028471)
(-0.00159772 0.00250151 0.0651795)
(0.000642976 -5.40717e-05 0.138157)
(-0.000503949 0.000753974 0.138307)
(0.0020758 -0.00351488 0.0499831)
(-0.000678706 -0.000360845 0.116056)
(-0.00104635 -6.84785e-05 0.111392)
(-0.00175836 0.00278079 0.0768782)
(-0.0163585 -0.000356765 0.12477)
(0.0029754 -0.00223348 0.0394037)
(-0.00213552 0.00310908 0.0769016)
(-0.0175661 -0.000162388 0.118105)
(-0.000833524 0.000858194 0.146742)
(0.000191534 -0.00103095 0.111894)
(-0.00232509 -0.00121042 0.0645747)
(-0.000857439 -0.000361377 0.133909)
(-0.000870422 -0.000947538 0.0262826)
(-0.00114094 0.00169592 0.142591)
(-0.000167553 -0.000240383 0.149058)
(0.00123875 0.000373072 0.147252)
(-0.000200493 -9.85512e-05 0.149468)
(0.000436535 0.00038622 0.145568)
(-0.0142125 0.00127268 0.131776)
(-0.000928471 -0.00040621 0.0951005)
(-0.00248091 -0.00103429 0.0355826)
(-0.00863644 0.00150851 0.137234)
(-0.0127931 0.00320395 0.0900573)
(0.000858159 0.00072174 0.147106)
(0.00163743 -0.000815962 0.147111)
(0.00121856 0.00246764 0.123704)
(-0.000991351 -0.0022111 0.0284074)
(0.000319719 0.000889631 0.14407)
(0.000676551 0.000516812 0.11135)
(-0.0010718 0.0016124 0.125932)
(-0.0141261 0.00119382 0.108201)
(0.000256767 0.000900531 0.135398)
(-0.000365718 0.00315357 0.0490289)
(-0.00182677 0.00074031 0.108242)
(-0.00122443 0.00247088 0.0542453)
(0.000675513 0.000223793 0.149612)
(-0.00123897 -0.00210218 0.0225922)
(-0.000748342 0.00122929 0.13137)
(-0.000247235 0.000353996 0.14491)
(-0.00133802 0.000982046 0.137684)
(-0.000612997 0.000807774 0.140708)
(-0.00110512 0.0010509 0.124671)
(0.00102621 -0.00187279 0.0622946)
(-0.000654844 0.000821177 0.115491)
(-0.000395551 -0.000844892 0.113399)
(0.000326875 0.00167919 0.0448661)
(0.000995043 0.000396502 0.149044)
(0.00150876 -0.00047747 0.14747)
(0.000115437 -0.00173215 0.0993302)
(-0.00252299 0.0010871 0.0238087)
(0.000768945 -0.000361318 0.124766)
(-0.000592666 0.000683367 0.121212)
(-0.00104419 0.000802933 0.092169)
(-0.0037188 -0.0021062 0.0238335)
(0.00244895 0.00260223 0.0732861)
(0.00347922 -0.00222073 0.0754079)
(-0.00123237 0.0022611 0.042499)
(-0.000232872 -0.000581754 0.0320682)
(0.00216754 0.000373307 0.111597)
(-0.000872589 0.000480027 0.151555)
(0.000489043 -0.000524764 0.0729949)
(-0.000376351 -0.000541867 0.146965)
(0.00169278 0.00267255 0.0234363)
(-0.000761266 -3.22544e-05 0.132934)
(-0.00151888 -0.00110414 0.0939588)
(-0.000904425 0.000410988 0.0604031)
(-0.00010909 -0.00250908 0.0744915)
(0.000737069 -0.0010822 0.136169)
(0.000636428 0.00103418 0.0590842)
(-0.000415333 -0.000832325 0.135343)
(-0.000901106 -0.000154592 0.147031)
(-0.000709453 0.000120917 0.145427)
(0.000879881 -0.00468961 0.078666)
(0.000320757 -0.000311922 0.0486325)
(-0.000281943 -0.00205405 0.141631)
(0.00115929 0.00327328 0.0407769)
(-0.00107129 -0.00240953 0.0354166)
(0.00021372 0.0021268 0.0744619)
(0.0004125 -0.00138512 0.146975)
(-0.000388239 0.000685328 0.0690409)
(-0.00289811 0.000839362 0.0427031)
(2.171e-05 0.000505467 0.0290237)
(-0.000360255 -0.000904249 0.127292)
(0.000956727 0.000137468 0.110736)
(-0.00273955 -0.00071657 0.13662)
(-0.000554368 -0.00312404 0.0618203)
(-0.000312939 -0.000293291 0.146984)
(0.00188192 -0.00230251 0.0663265)
(-0.000485468 0.000895443 0.145667)
(0.000479937 0.000800026 0.0354904)
(0.0010048 -0.000244852 0.0668308)
(0.000169302 -0.000842448 0.049514)
(-0.00412644 0.000232452 0.120156)
(-0.000105492 0.00111984 0.144979)
(-0.00181847 -0.0019136 0.0944643)
(0.000872098 2.68317e-05 0.14767)
(0.000375035 0.000627809 0.113329)
(0.00236174 -0.00215522 0.0236384)
(0.00157307 0.00135535 0.13575)
(0.000153391 0.000339851 0.14281)
(0.000234305 0.000249082 0.147546)
(-0.000466527 0.000663876 0.140189)
(0.000153902 -0.000660307 0.0275629)
(0.00142082 0.000862508 0.122269)
(-9.30437e-05 0.00461212 0.0606649)
(-0.00429189 0.000972792 0.0261236)
(-0.00100053 0.000753488 0.142644)
(0.00024079 0.00172228 0.0656086)
(-0.00078463 -4.58135e-05 0.12465)
(-0.00133924 -0.000491318 0.149523)
(-0.00100613 0.000482647 0.13646)
(-0.000502632 0.000523003 0.148955)
(-0.00217783 0.0028196 0.0636504)
(0.000115999 0.000926199 0.147515)
(-0.00200641 -0.00285102 0.0650849)
(-0.000711109 0.00122796 0.110041)
(-0.000960061 -0.00141901 0.14449)
(0.000211214 -0.00136122 0.0499008)
(-0.001888 -0.000593292 0.144726)
(0.000306859 0.000823505 0.147557)
(-0.00139456 -0.00148871 0.0335729)
(-0.00299724 0.00044574 0.0555944)
(-0.00178849 0.0010857 0.145897)
(-0.00195486 0.00341897 0.0651487)
(0.000318204 0.00134922 0.150072)
(-0.00126294 0.000567375 0.147494)
(-0.000758611 -0.00157832 0.144855)
(-0.00158848 -0.00246033 0.0306438)
(-0.00156975 -0.00166792 0.0398057)
(-0.0020802 -0.000312177 0.0409501)
(0.00106306 -0.000621869 0.0731368)
(-0.0021523 -0.000521545 0.108327)
(-0.00168079 -0.000793483 0.14321)
(0.0014302 -0.000395799 0.0679774)
(0.00153152 0.000149214 0.146062)
(0.00317402 0.00169446 0.0250631)
(8.40498e-05 0.000435386 0.0634063)
(0.00293352 0.00158177 0.0313821)
(0.000528335 0.000996981 0.14583)
(-0.000165958 -0.000794865 0.104004)
(-0.000552423 -0.000461404 0.139134)
(0.000475598 0.000813868 0.0765412)
(0.000748027 0.000834221 0.150019)
(-0.000266079 -0.000122835 0.112946)
(0.00275165 -0.00212568 0.150139)
(-0.00123636 -0.000210905 0.137927)
(0.00125523 0.000895716 0.145097)
(-0.000222099 0.000668157 0.140681)
(-0.000225352 0.00068049 0.140254)
(-0.000279718 0.000419921 0.144822)
(-9.18861e-05 -0.000299114 0.0653112)
(-0.00151454 -0.000782557 0.143186)
(0.00139267 0.00251916 0.0508096)
(0.000213135 0.00216137 0.0685888)
(-0.000728718 -0.000156903 0.13508)
(-0.00154593 0.00124881 0.14553)
(0.00150381 0.00142327 0.122564)
(-0.000812687 0.00189011 0.148231)
(0.00219046 0.000424978 0.108829)
(0.000528582 -0.00290619 0.0690118)
(0.00104068 -0.00148413 0.147544)
(0.00139954 0.000380286 0.105608)
(-0.000436905 -0.00187685 0.0545965)
(-6.12559e-06 0.00174539 0.0615097)
(-0.00176114 0.00163582 0.106209)
(-0.000806805 -0.000760094 0.146434)
(-0.00103299 0.00135972 0.111725)
(3.06351e-05 0.00137953 0.106129)
(-0.00202824 0.000867804 0.14644)
(0.000484121 0.00275372 0.103956)
(-0.00173369 -0.0032055 0.0261491)
(-0.000451074 0.00180828 0.148155)
(0.00279217 -0.0019269 0.0308269)
(0.001683 0.00105271 0.0497414)
(-0.000813285 -0.00144663 0.144629)
(0.000466463 0.000957466 0.1394)
(-0.00425699 0.00146553 0.030639)
(-0.00106918 0.000256231 0.128684)
(-0.00094676 -0.000882127 0.132452)
(0.000879045 0.000130701 0.14639)
(-0.000190249 -0.000655323 0.145408)
(0.00287673 -0.00236921 0.0308129)
(-0.00211832 0.000106072 0.144874)
(-0.000752396 -0.00201408 0.143442)
(-0.000405599 -0.00161963 0.145306)
(-0.00157219 -0.000888435 0.13561)
(-0.00105716 0.000114892 0.133666)
(-0.000342664 -0.000417587 0.106736)
(0.000309736 -0.00013629 0.15119)
(0.000180912 0.00204396 0.0348191)
(0.00183819 -0.00155824 0.143457)
(0.00146861 0.00135398 0.141736)
(-0.000920902 -0.00164553 0.146362)
(0.000747211 -0.00204183 0.142862)
(0.00108872 0.000449136 0.126084)
(0.000895989 -0.00059687 0.0718924)
(-0.00121929 -0.00182802 0.028454)
(0.00114925 0.000815041 0.0347983)
(-0.000958112 0.00177573 0.151933)
(-0.00378392 0.00104199 0.0260079)
(-0.000793907 -0.00108711 0.0741573)
(-0.000547216 0.00321661 0.0607816)
(0.00171266 1.60521e-05 0.148457)
(3.52896e-05 -0.000613137 0.152723)
(0.000933626 0.00058555 0.15019)
(0.00160582 0.000262729 0.0686146)
(0.00188655 -0.000493989 0.113426)
(0.000172711 0.0048607 0.0488275)
(0.00172246 -0.00210849 0.0611675)
(0.000977788 -0.00157379 0.141356)
(0.00114954 -0.00163933 0.109529)
(-0.012342 -0.00182557 0.10767)
(0.000307206 -0.00199215 0.0995111)
(-0.000526667 2.74e-05 0.0532038)
(0.00207914 -6.86495e-05 0.0749549)
(0.000150528 -0.00124142 0.116792)
(-1.46582e-06 -0.000236419 0.14943)
(-0.00107437 0.00027713 0.148793)
(-0.000984758 0.00130415 0.148066)
(-7.02921e-05 0.00233912 0.149224)
(-0.00415144 -0.000477639 0.100214)
(-0.00101027 0.000850369 0.129486)
(0.000113385 0.00102321 0.143732)
(-0.000225449 -0.000398721 0.146366)
(0.000733182 0.000159692 0.149021)
(-0.00288826 -0.00288397 0.0647502)
(0.0036583 -0.00163341 0.0271696)
(0.000299577 -0.000542854 0.142859)
(0.0011959 0.00272417 0.0482994)
(-0.000409637 -0.000457191 0.0385491)
(-0.00161762 -0.00102086 0.14444)
(0.000806314 0.000126532 0.142641)
(-0.000710823 0.0021963 0.0643562)
(-0.00105339 -0.000185803 0.146664)
(0.000378107 0.00116276 0.14938)
(-0.000913834 -0.000661836 0.148038)
(0.000597429 -0.000501237 0.148945)
(-0.000180944 -0.00118712 0.0404256)
(-1.27622e-06 -0.000945479 0.150299)
(-0.00103694 2.15611e-05 0.145563)
(-1.86061e-05 0.00111653 0.0689598)
(0.00028772 -0.00177155 0.146225)
(0.000501256 0.000286514 0.146551)
(0.000865166 0.000319512 0.134322)
(-2.06451e-05 -6.12656e-05 0.127237)
(-0.000694097 -0.000718286 0.141062)
(0.000301034 0.0013239 0.141861)
(-0.000733265 0.000249893 0.081653)
(-0.000545557 0.00161471 0.038767)
(-0.000151953 0.00306961 0.0434867)
(0.000569927 0.00121851 0.108174)
(-0.0118026 0.000466417 0.0868822)
(-0.00707821 0.000715796 0.0749578)
(-0.0005117 -0.000304638 0.095203)
(0.00140075 -0.00126854 0.124554)
(0.000412592 0.000199896 0.133361)
(-0.000966603 0.00101533 0.142471)
(0.000718135 -0.000288767 0.150003)
(-0.000683453 -0.00038784 0.137846)
(-0.000659323 -0.000330742 0.14165)
(-0.00110967 3.79438e-05 0.140598)
(-0.000525917 0.000488022 0.037285)
(-0.0217965 0.000958209 0.113848)
(0.000297285 0.00228266 0.0679051)
(-0.00146338 0.00162013 0.0511328)
(0.000276534 0.000316877 0.0520718)
(-0.000215322 -0.000969949 0.146699)
(0.000383918 0.000419136 0.105449)
(-0.00062886 -0.000256981 0.148689)
(-0.00184308 0.00205019 0.023991)
(0.000128743 -0.000245629 0.130242)
(0.00129796 -0.000200552 0.0537271)
(-0.000527994 0.0010509 0.147241)
(-0.000498224 0.00100658 0.0566959)
(0.00215052 0.000377174 0.0704198)
(0.000978226 0.00180336 0.120313)
(-0.00073291 0.0011482 0.140114)
(0.00353104 -0.000105555 0.0253)
(0.000387861 0.00330088 0.0645125)
(-0.000601331 -0.000320129 0.133944)
(-0.000281634 -0.00239952 0.0298623)
(-0.0047347 0.000290385 0.129862)
(7.10505e-05 -0.00175582 0.122606)
(0.00101979 -0.000505056 0.135917)
(0.00241201 -0.00120771 0.10674)
(0.00226576 0.000673589 0.0998959)
(0.00161383 -0.00116107 0.150347)
(-0.00970364 -0.00343621 0.07776)
(-0.00175793 -0.000694946 0.148213)
(-0.0107263 0.000331918 0.111549)
(-0.00175075 0.00188108 0.0715645)
(-0.000509649 0.00086139 0.074505)
(-6.04143e-05 -0.000798863 0.149538)
(0.000693159 -0.00141845 0.15236)
(0.000486899 -0.000183089 0.0611974)
(-0.000200758 -0.000323293 0.139041)
(-0.00186642 0.00113024 0.109264)
(0.000908628 -0.000440748 0.148481)
(0.000817012 -0.000911746 0.147766)
(-0.00101789 -0.00357602 0.0567475)
(-0.000627338 0.000427053 0.136246)
(0.000969868 0.0001589 0.143117)
(-0.000109014 0.000327664 0.144508)
(3.86439e-05 0.000441923 0.147573)
(0.00295017 -0.00133075 0.0278465)
(-0.00347327 -0.000600485 0.0261358)
(-0.000745021 0.0013752 0.131617)
(0.000424939 -0.00038796 0.14918)
(0.000333961 0.00142542 0.148621)
(-0.00257993 0.00101247 0.0431418)
(0.000265767 -0.000270723 0.145042)
(-0.000704639 0.0011521 0.119501)
(-0.00136057 0.000311552 0.143663)
(0.00143217 0.000557165 0.15044)
(0.00022854 0.00018062 0.148947)
(-0.000205661 -0.0018403 0.148891)
(9.39776e-05 -0.00198566 0.149855)
(-0.000429685 7.81387e-06 0.100648)
(-0.00182193 0.000273994 0.146683)
(-0.00212328 0.00222504 0.0658771)
(0.00105279 0.00114131 0.147229)
(-0.000948435 -0.00118295 0.120303)
(-0.000885471 0.00101003 0.141494)
(-0.000313669 -0.000554431 0.147587)
(-0.000362492 -0.000450869 0.145213)
(0.00110749 0.0013271 0.140803)
(0.00231382 0.0027079 0.0483763)
(0.00102538 0.000446969 0.0424386)
(-0.00266058 -0.00246674 0.0258623)
(-0.00375091 0.000436246 0.140721)
(0.000150856 -5.65897e-05 0.151802)
(-0.000313923 -8.85533e-05 0.136061)
(0.000355818 -0.0023737 0.132288)
(0.00112658 0.000167358 0.0385013)
(0.00109183 -0.00298107 0.0287635)
(-0.00127512 -0.000850767 0.12405)
(-0.000634378 0.000484778 0.140882)
(-0.000999106 0.000204785 0.147753)
(0.000535654 -0.000950988 0.148256)
(-0.00108172 -0.0012213 0.139312)
(-0.000656062 0.00118872 0.149205)
(0.000641521 -0.00114891 0.138028)
(-0.00149419 0.00307425 0.0322905)
(-0.000826977 0.00073459 0.129981)
(0.00270714 -0.00166457 0.0684276)
(-0.00696731 -0.00079203 0.0709808)
(0.000704536 -0.000170937 0.143367)
(-2.77601e-05 0.000352581 0.108263)
(0.000746437 -0.000774867 0.142382)
(-0.00441135 0.00225237 0.0255345)
(0.00197163 -0.000646672 0.151524)
(-0.000291514 0.000127324 0.149583)
(-0.00131704 0.000516523 0.145748)
(0.00119075 -0.000510167 0.105814)
(-0.000376266 -0.00033942 0.141513)
(-0.00134366 4.04891e-06 0.146376)
(0.0002193 0.000119452 0.126534)
(-0.000443119 -0.000244334 0.145191)
(-0.00312601 -0.00116309 0.103473)
(0.000559158 0.000818409 0.148807)
(-0.00170991 0.000800031 0.14473)
(0.00213615 -0.00137337 0.0256452)
(-0.000295257 0.00149941 0.149061)
(0.000959817 0.000465039 0.123171)
(-0.00307606 -0.00313005 0.0568067)
(-0.000872876 0.00167683 0.103502)
(0.000757517 0.000966184 0.147788)
(4.42297e-05 -0.000126125 0.134839)
(0.00117762 0.00203458 0.0972135)
(-0.00282397 0.00146468 0.0254152)
(-0.000432862 0.000732605 0.149554)
(-0.000139778 0.00199859 0.131061)
(-0.000129069 0.000278466 0.148963)
(-0.000805025 0.000414795 0.130412)
(-0.00258579 0.000844749 0.0453037)
(0.000746661 0.000285996 0.139413)
(-0.00422539 -0.000192251 0.0284187)
(-0.000391165 0.000188101 0.145751)
(-0.0118081 0.000556908 0.102257)
(-0.000492115 0.000317407 0.14666)
(-0.000587394 0.0019785 0.0607477)
(-0.00167942 0.00126469 0.117191)
(-0.000812724 0.00200818 0.106672)
(0.0023625 -0.00271776 0.04195)
(0.000663955 -8.44889e-05 0.145102)
(-0.000831893 0.00140936 0.142974)
(-0.0029173 -0.000929256 0.0274722)
(0.00117328 -0.00128323 0.143476)
(-0.000326321 -0.00223501 0.144303)
(-0.000418377 0.00195376 0.0450197)
(0.00161235 0.00281737 0.0719123)
(-0.00149198 0.00147903 0.0641023)
(-0.000326058 0.00112792 0.142938)
(0.00185374 -0.000297279 0.145363)
(-0.00111151 0.00135937 0.0348884)
(0.00177252 -0.000493558 0.0649567)
(-0.000395833 0.00168255 0.0672599)
(0.00157478 0.00157351 0.122704)
(0.00174513 -0.000911031 0.145265)
(-0.00355118 -0.00196984 0.0283256)
(0.000981865 0.00147063 0.148999)
(-0.00117723 0.000277478 0.143937)
(-0.00130498 -0.00030382 0.146779)
(-0.00232379 -0.0048524 0.0901092)
(0.00101479 0.000221016 0.151379)
(0.00160083 -0.00265709 0.0282175)
(-0.00118279 0.000130014 0.147731)
(0.000241082 -0.000608476 0.0325134)
(0.00101507 -0.00245641 0.066431)
(0.0003528 -4.33477e-05 0.145236)
(-0.00105348 0.00211994 0.0700126)
(-0.00381407 0.00217225 0.025312)
(0.000309029 -0.0021124 0.0444566)
(6.69378e-05 0.00362263 0.0541974)
(0.00123679 -0.00202526 0.0682695)
(-0.000762243 0.000503367 0.142575)
(-0.000291085 0.00133684 0.0587727)
(0.000965373 -0.00213503 0.0705221)
(-0.0128149 -9.88003e-05 0.127445)
(-0.00133325 0.00103966 0.144655)
(0.00182196 -0.000299329 0.0287665)
(0.000802809 0.000696891 0.117296)
(-0.00748058 -0.00434584 0.082124)
(0.00179778 0.000553337 0.148229)
(-0.00123928 0.00079352 0.0664887)
(-0.00115358 0.00151161 0.143859)
(0.00228653 0.00282572 0.0673407)
(-0.000892335 0.000228843 0.127322)
(-0.000984407 -0.000939265 0.147976)
(0.00380689 -0.00475603 0.0601209)
(0.000225118 -9.661e-05 0.15077)
(-0.00284796 -0.00101415 0.0484204)
(0.00336148 -0.00193487 0.0237042)
(-0.000340284 -0.000268986 0.141275)
(9.43331e-05 -0.00152496 0.146366)
(-0.00068789 -0.000344375 0.131856)
(0.00112847 -0.00217654 0.130601)
(0.00198798 0.000160031 0.148482)
(0.00155792 -0.000849497 0.0694292)
(0.00181815 0.000508294 0.148998)
(0.00161176 0.00274678 0.0642244)
(-0.00128895 -0.000522113 0.148275)
(0.00188883 0.000699857 0.131747)
(-0.00416939 -0.0028203 0.0344829)
(0.000112091 0.000948782 0.147934)
(0.00134125 -0.00176759 0.0628289)
(0.00185501 0.00297778 0.0320775)
(0.000156915 -0.000352413 0.147333)
(-0.00154175 -1.14685e-05 0.0509756)
(4.42621e-05 0.000230499 0.13615)
(0.000469023 0.000109597 0.145313)
(-0.000859947 0.00210547 0.131997)
(-2.2782e-06 0.00387719 0.0642694)
(0.000929809 -0.000222424 0.151276)
(0.00138414 2.12232e-05 0.100852)
(-0.000923553 0.000217702 0.152489)
(0.00114277 -4.46783e-05 0.15114)
(0.00117766 0.000433741 0.15047)
(0.00037522 -0.00132359 0.14674)
(0.00307619 -0.00172636 0.0530255)
(0.00101096 0.000483419 0.0602578)
(-0.00119727 0.00059158 0.148912)
(-0.000924596 -0.000629507 0.147681)
(0.000495923 0.00297349 0.0390606)
(-0.000851774 -0.000245977 0.145418)
(-0.00043043 0.000703454 0.153148)
(0.00112147 0.00145578 0.15077)
(0.00102892 0.00158629 0.149672)
(-0.000841166 0.000447377 0.124613)
(-0.00225277 0.00250764 0.0255094)
(-8.15136e-05 0.000418843 0.152801)
(0.00157633 -0.00222885 0.108171)
(-9.58114e-05 -0.000964152 0.139468)
(0.000283342 0.000132925 0.106662)
(-0.00280539 -0.00102945 0.036356)
(-0.000792482 0.00127237 0.14585)
(-0.000771122 0.00157908 0.101159)
(0.000853661 0.000577985 0.137693)
(0.00103705 0.00195126 0.148034)
(-0.000595244 0.000950985 0.13899)
(0.00214831 0.00229254 0.0207889)
(-0.00304703 0.0013225 0.0271702)
(0.000155813 -0.00226758 0.143305)
(-0.000253123 0.000396115 0.143068)
(-0.000118593 0.00135961 0.147225)
(-0.000862297 0.000580965 0.14124)
(-0.000176974 0.0012321 0.102173)
(-0.000266007 0.00143511 0.142852)
(0.00069006 -0.000433149 0.148831)
(0.00075303 0.00182123 0.0250643)
(0.000443045 -0.00233164 0.143034)
(-0.0104111 0.000828501 0.134465)
(-8.30255e-05 0.00245302 0.0470004)
(-0.000644699 0.00419886 0.0633017)
(0.000371053 0.00147293 0.144025)
(0.00141587 0.000559109 0.141291)
(-0.000369246 -0.00138113 0.139521)
(0.000577091 0.000170154 0.131845)
(-0.0027628 0.00176955 0.115535)
(-0.000559381 -7.14904e-05 0.14865)
(0.00144853 -0.00275269 0.109145)
(0.00171609 -0.000733912 0.152118)
(0.000449695 -0.00134355 0.145881)
(0.00207145 -0.00237976 0.149602)
(0.0017118 -0.000565842 0.145414)
(0.00184017 0.00232983 0.0478858)
(0.000840771 0.000421077 0.149645)
(-0.000368298 -0.00164639 0.0395379)
(-0.0103369 -0.00131998 0.0946406)
(0.00243178 -0.000989863 0.0688295)
(-0.0107889 -0.00029063 0.126362)
(0.00080992 -0.000533557 0.134614)
(-0.0180297 0.000432232 0.11768)
(3.50701e-05 -0.000164894 0.145379)
(0.000268191 4.93133e-05 0.153204)
(-0.000595167 0.000426352 0.14318)
(0.00120793 0.000956481 0.146662)
(-0.000505011 -0.000156664 0.0414198)
(-0.00455796 0.000166987 0.100957)
(-0.0154556 0.00107915 0.112328)
(-0.000173617 -0.000447277 0.146287)
(-0.000150193 0.00266402 0.120663)
(-0.010015 0.00055326 0.135629)
(-0.00125237 0.00108145 0.143677)
(0.000998772 0.00054978 0.121258)
(-0.00132807 -0.000843925 0.0427286)
(0.00218767 0.00221046 0.0621095)
(-0.00020226 0.000264922 0.0301177)
(0.00177813 0.00132669 0.0280496)
(-0.00034129 -0.000448638 0.0412811)
(-0.00508313 0.0013548 0.134723)
(-0.000249266 0.000356768 0.137228)
(-0.00314525 -0.00281444 0.028806)
(-0.00372467 0.000981205 0.0266599)
(0.00111569 0.00115998 0.147338)
(-0.0143509 0.00317945 0.096663)
(-0.00181649 -0.000112512 0.043602)
(-0.000247491 -0.000584404 0.1434)
(-0.00168715 0.0013476 0.116555)
(0.000818051 -0.00010246 0.136437)
(0.00154221 0.0022302 0.0494966)
(-0.00103212 -0.00103181 0.0629379)
(0.000104053 0.000919338 0.11959)
(-2.35515e-05 0.000824614 0.146534)
(-0.000510477 0.00100998 0.14354)
(-0.00248846 0.00370065 0.0436468)
(-0.00111482 -0.00214676 0.0289299)
(-0.0187546 0.000305279 0.106236)
(-0.00341273 0.00176388 0.0307813)
(-0.000123173 0.00140295 0.136789)
(-0.00448801 -0.001025 0.0326459)
(0.000423103 0.00218459 0.113842)
(-0.000487957 -0.000132511 0.146629)
(0.000876764 0.00127933 0.154883)
(-0.00084903 -0.000669957 0.0510765)
(0.000830555 -0.00146803 0.109208)
(-0.00207059 -0.000373781 0.0420551)
(-0.00442603 -0.000202487 0.0345545)
(1.21489e-05 -0.000917055 0.146903)
(-0.00342229 0.0012655 0.0225859)
(0.00184346 -0.00135434 0.145151)
(-0.000717175 -0.00266833 0.0566139)
(-4.52885e-05 0.000543109 0.145466)
(-0.0004773 0.000495083 0.140079)
(0.00382121 0.00140188 0.0264482)
(-0.000965452 -0.00267277 0.063725)
(0.000238117 -0.000258285 0.141792)
(-0.000186273 0.00194892 0.0402467)
(0.000189036 -0.000869852 0.142366)
(-0.00134635 0.00420035 0.0626402)
(0.000466052 -0.000704403 0.117762)
(3.75848e-06 0.00115866 0.147527)
(0.00148472 0.000170682 0.0440853)
(-0.00387813 -0.000597104 0.0280169)
(-0.000613967 -0.00100525 0.0589264)
(-0.0174132 -0.00019931 0.110731)
(-0.000724491 0.000372174 0.116534)
(0.000893949 0.00366079 0.0653976)
(0.00181057 0.000153723 0.0983658)
(0.000553178 0.00142344 0.0360411)
(0.000211486 0.00113941 0.147249)
(0.000986679 0.00124835 0.0283352)
(-8.36978e-05 0.00236262 0.151185)
(0.00108902 0.00119612 0.144437)
(0.000583418 0.000394265 0.148278)
(-0.00252349 -0.000259564 0.0233835)
(0.00110694 0.00125806 0.146182)
(0.000245668 0.000839318 0.0908494)
(0.000378603 0.00140423 0.146381)
(0.000216941 0.00032118 0.0623027)
(-0.0143462 0.000524545 0.108081)
(-0.000906187 0.00126084 0.148935)
(0.000166456 -0.000474513 0.0486885)
(-0.000149987 -0.000239561 0.147042)
(-0.0200755 0.00242309 0.108817)
(-0.000232168 -0.000299139 0.125302)
(-0.000910564 -0.00229573 0.0387013)
(-0.00114504 0.00295045 0.0597661)
(0.000305429 0.000175152 0.147545)
(9.33765e-05 -0.00120215 0.136892)
(-0.00172622 0.00280622 0.0381727)
(-5.99845e-05 -0.00165595 0.119562)
(0.00222019 -0.000117279 0.0691229)
(-0.00221671 0.00241789 0.0294004)
(0.000202259 -0.000111285 0.147913)
(-0.0101473 0.000516642 0.103284)
(-0.00063548 -0.00241041 0.13612)
(0.000351617 4.662e-05 0.148128)
(0.000590438 0.000174917 0.14805)
(0.00088356 0.000327585 0.146343)
(0.000861073 0.00100298 0.138546)
(0.00140853 0.00101475 0.0518999)
(-5.79128e-05 0.00377096 0.0483791)
(0.0017999 -0.000148368 0.151085)
(-0.0125595 -0.000356287 0.107544)
(0.000253088 0.000386498 0.128648)
(0.000580122 4.95384e-05 0.13538)
(0.00185905 -0.000898947 0.0929618)
(9.28109e-06 -0.000196574 0.14556)
(-0.000705184 0.000222469 0.146586)
(-0.00164207 -0.000813255 0.111278)
(-0.00156784 0.00114747 0.114156)
(-0.000903167 0.00279851 0.0432254)
(-0.00100642 -0.000236368 0.0815223)
(-0.0017933 -0.00192017 0.0550782)
(-0.000205149 -0.000663179 0.14303)
(-0.000645204 -0.000885374 0.149156)
(0.000827081 0.0028529 0.106122)
(-0.0004553 -0.000615106 0.108238)
(0.00172787 -0.00209564 0.0250653)
(-0.000196409 -0.00142528 0.0906666)
(-0.00339774 -0.00146691 0.0665529)
(-0.000644065 0.000197913 0.147997)
(0.000367813 0.00106144 0.148144)
(-0.0111596 -0.000631528 0.10482)
(-0.000720309 0.000591109 0.143933)
(-0.00137831 0.0029991 0.0925889)
(-0.00830596 0.000449873 0.101665)
(-0.00106146 -0.000735082 0.136736)
(0.00295088 0.000832131 0.033873)
(0.000369848 0.000957545 0.148103)
(-0.000132492 0.0017281 0.0594951)
(-0.000575826 -0.000245962 0.138148)
(0.00445709 -0.00154822 0.0340981)
(0.0020403 0.00070748 0.150339)
(-0.005059 -0.000233476 0.101654)
(-0.000255348 6.15908e-06 0.145989)
(-0.000413991 -0.000683412 0.123784)
(0.000341992 0.000191639 0.141395)
(-5.17011e-05 -0.000423575 0.146123)
(0.00142267 0.000240404 0.146794)
(9.32605e-05 0.00243766 0.041761)
(-0.00014993 -0.00213527 0.0557083)
(-0.000457029 0.000747363 0.0341722)
(0.000180315 0.000286145 0.146744)
(0.000579635 -0.000531751 0.1447)
(0.0015993 0.000387459 0.136448)
(0.000421877 0.00063916 0.149475)
(0.000125315 -0.00079416 0.0244022)
(-0.000302467 -0.000295229 0.10899)
(0.00100045 -0.00173342 0.100571)
(0.000225104 0.000494517 0.147762)
(-0.000988417 -0.00073291 0.132088)
(0.000114273 -4.51482e-05 0.140091)
(-0.00154005 0.000282883 0.113752)
(0.000125872 0.00059114 0.146884)
(-0.00344836 0.00246833 0.0248935)
(0.000362948 0.00335683 0.0959125)
(0.000147483 0.000423285 0.142193)
(0.000152891 0.00338569 0.0321489)
(0.000135602 0.00234387 0.0515966)
(-0.00111447 -0.00138082 0.0705256)
(-0.00317815 -0.000899371 0.0262214)
(0.00104578 -0.000468048 0.105706)
(-0.00105503 0.000573807 0.146595)
(-0.000606123 0.00209644 0.0672944)
(0.00298302 0.00209192 0.0234317)
(-0.000537683 -0.00102069 0.115276)
(0.00052481 0.000126766 0.0298547)
(-0.00037563 0.00187266 0.109875)
(0.000236579 -2.29408e-05 0.146598)
(0.000441444 0.0001219 0.14677)
(-5.2801e-06 0.000742127 0.1471)
(0.0019999 0.000809668 0.149665)
(0.00024001 0.000117626 0.146482)
(0.000265666 0.000887365 0.133561)
(0.00146113 -0.000891874 0.0547093)
(0.00102071 0.000121144 0.147797)
(-0.000432395 -0.000715195 0.131852)
(-0.000346012 -0.00180243 0.0998558)
(-0.0012944 -0.000572487 0.106444)
(0.000232496 -5.05925e-05 0.145761)
(-0.00120475 0.000979722 0.124422)
(0.000831259 0.00134242 0.0755592)
(0.000746065 -0.00148155 0.14626)
(0.000182234 -0.00117841 0.0399937)
(0.000604266 0.000375369 0.0985856)
(0.000349566 -0.000870277 0.105082)
(-0.000976555 0.000441667 0.0710792)
(-0.000219449 0.000120215 0.147808)
(-0.0178229 -0.000207516 0.106048)
(-0.00633978 -0.0001455 0.126329)
(-0.000657302 0.00354758 0.0398017)
(0.00275094 -0.000424874 0.0323405)
(-2.00747e-05 0.0028007 0.0643429)
(0.00260798 -0.000284311 0.0246809)
(9.45057e-05 0.000154516 0.131149)
(-0.000112476 0.00171263 0.139874)
(-0.000387377 0.0021252 0.133078)
(-0.0135096 0.000818648 0.110914)
(8.6403e-05 0.000745845 0.131402)
(-3.17989e-05 0.00142002 0.137358)
(0.00482449 0.00313621 0.0307089)
(-0.000451317 0.00138552 0.141008)
(-0.011261 0.000575135 0.126108)
(-0.00152899 -0.000447231 0.0526362)
(0.0035057 0.0026617 0.0270552)
(-3.3741e-05 -0.000972838 0.121917)
(-0.00101526 -0.00109139 0.122604)
(-0.00354146 -0.00247582 0.0307994)
(0.000447273 0.00122905 0.149073)
(0.00301147 -0.00198259 0.0284743)
(-0.000961907 -0.000193584 0.148118)