/*--------------------------------*- C++ -*----------------------------------*\
| =========                 |                                                 |
| \\      /  F ield         | OpenFOAM: The Open Source CFD Toolbox           |
|  \\    /   O peration     | Version:  2406                                  |
|   \\  /    A nd           | Website:  www.openfoam.com                      |
|    \\/     M anipulation  |                                                 |
\*---------------------------------------------------------------------------*/
FoamFile
{
    version     2.0;
    format      ascii;
    arch        "LSB;label=32;scalar=64";
    class       volScalarField;
    location    "16";
    object      epsilon;
}
// * * * * * * * * * * * * * * * * * * * * * * * * * * * * * * * * * * * * * //

dimensions      [0 2 -3 0 0 0 0];

internalField   nonuniform List<scalar> 
59516
(
0.0313069
0.0297867
0.0240449
0.0203537
0.00952969
0.347699
0.0207928
0.0284349
0.0269186
0.0619321
0.00926404
0.0577319
0.024687
0.205241
0.0520673
0.0615348
0.0109797
0.0580076
0.0271582
0.0120331
0.0689232
0.0158729
0.0142318
0.0873508
0.0139407
0.045773
0.0848704
0.0797277
0.0494504
0.15375
0.048347
0.0741012
0.01912
0.0251571
0.0173372
0.016217
0.137721
0.0629754
0.0354336
0.013687
0.0286508
0.0133568
0.0150962
0.0312864
0.0166794
0.0623633
0.0195464
0.0107783
0.0133093
0.0130378
0.0275048
0.0680134
0.0230788
0.0216192
0.0616369
0.0212903
0.0119811
0.0724327
0.0108117
0.0189446
0.015296
0.122687
0.0114349
0.0114383
0.0220099
0.0152748
0.152431
0.0733127
0.0216635
0.0192471
0.0740272
0.0122768
0.108879
0.0166748
0.00988064
0.0127185
0.0109619
0.0156025
0.0656895
0.0131093
0.0795515
0.0148878
0.0176068
0.125649
0.0151412
0.0104606
0.0840578
0.0150658
0.0582809
0.0378306
0.0109273
0.0170994
0.0107711
0.0180921
0.0125103
0.0110777
0.0173951
0.0637699
0.0591065
0.0154019
0.0688268
0.113312
0.114308
0.0577459
0.0194506
0.0153018
0.0851252
0.0292444
0.0301466
0.0472544
0.0227518
0.066433
0.0499749
0.0340913
0.0133593
0.0333353
0.0525486
0.0192094
0.110128
0.0158276
0.00911351
0.011625
0.0136164
0.0117274
0.0183373
0.0382707
0.105038
0.0177466
0.0875927
0.0099262
0.00937073
0.0262032
0.109943
0.0153618
0.0295616
0.0241841
0.0442331
0.0193318
0.0744584
0.0331028
0.0685211
0.0094945
0.14929
0.0215399
0.0101666
0.0163717
0.0174536
0.0261845
0.262742
0.0264882
0.031183
0.0776867
0.0119412
0.0143345
0.036564
0.167968
0.0237924
0.0242696
0.0413206
0.1398
0.0471896
0.0450659
0.0891838
0.167047
0.0313025
0.0111809
0.0498979
0.00999677
0.129034
0.0177991
0.0398953
0.0666078
0.0444027
0.0179524
0.0652666
0.0190864
0.0115334
0.0142508
0.0440805
0.0862517
0.0158536
0.0998996
0.138147
0.0540392
0.00990096
0.0571924
0.0872777
0.133637
0.0228695
0.0325382
0.0187617
0.0615734
0.0123136
0.0562156
0.0140991
0.096722
0.0607411
0.0799246
0.0268211
0.0145624
0.0412948
0.00923794
0.0294372
0.142579
0.0212202
0.0167349
0.00963926
0.0139545
0.136929
0.0252194
0.067507
0.120364
0.0165309
0.0602193
0.024867
0.0113322
0.0167889
0.0138882
0.0612135
0.0137581
0.0607453
0.0279022
0.0117712
0.0745139
0.0111482
0.0110389
0.0748118
0.0668407
0.0112662
0.0570154
0.0109439
0.0109846
0.0093332
0.0910384
0.0879211
0.0843655
0.0559977
0.0296259
0.0134719
0.0636876
0.00926399
0.129719
0.0589343
0.120155
0.00973875
0.0360923
0.0155577
0.044792
0.0113647
0.0288514
0.0123401
0.0170814
0.00910153
0.0157813
0.0157485
0.0134913
0.0639892
0.0143139
0.0674823
0.052589
0.0203873
0.0127679
0.0260592
0.0105667
0.032879
0.0585949
0.0129458
0.0355263
0.059707
0.0658992
0.0342245
0.0109232
0.0301513
0.0351734
0.0120324
0.0347013
0.109889
0.0127992
0.0889617
0.0724067
0.00958489
0.0172925
0.0997803
0.0235085
0.0219528
0.0111854
0.00974558
0.108335
0.00970111
0.0091991
0.0105845
0.0193132
0.0180078
0.0326065
0.0113073
0.067373
0.0126526
0.0168416
0.0091333
0.0112094
0.0238781
0.0537919
0.111089
0.0689199
0.0128481
0.131023
0.0444573
0.0645196
0.0114844
0.0110131
0.0142394
0.0548598
0.0288317
0.0764724
0.0686736
0.0128343
0.03247
0.0120572
0.0360972
0.0743838
0.0491903
0.0291178
0.0103738
0.00929261
0.00917642
0.0131533
0.036505
0.0202781
0.0115054
0.0130274
0.0126074
0.0550316
0.112952
0.014902
0.0658936
0.0883518
0.0124673
0.0164886
0.0578898
0.0107309
0.0118524
0.00949936
0.0105804
0.0819865
0.0135508
0.0101117
0.0602576
0.00945979
0.0103835
0.0198387
0.0208776
0.014261
0.0164689
0.0512799
0.101008
0.0733317
0.0320037
0.0626302
0.106546
0.0436468
0.026207
0.0190383
0.00942895
0.0138642
0.0193962
0.0147865
0.0149154
0.0873222
0.0379793
0.0603435
0.0714179
0.0774051
0.012848
0.0327345
0.0129726
0.125787
0.0206686
0.0759058
0.0119067
0.0715575
0.0506422
0.027122
0.00920665
0.133261
0.0565464
0.0186651
0.100297
0.0210722
0.0255582
0.01896
0.0348766
0.035872
0.0127225
0.0799396
0.00939471
0.0354145
0.0476356
0.0500414
0.00989209
0.010119
0.0645441
0.019629
0.0335092
0.00964304
0.00980921
0.0607623
0.0204438
0.0160445
0.0154229
0.0136128
0.10598
0.110899
0.0205939
0.0104015
0.00946915
0.0830441
0.0113191
0.0266196
0.0101053
0.0102477
0.00959429
0.0104818
0.0107534
0.0355141
0.00971898
0.0498793
0.0118112
0.0284664
0.0139419
0.010442
0.0160666
0.0161501
0.0720428
0.0860001
0.119304
0.0111529
0.00909809
0.017171
0.0214719
0.0849783
0.121314
0.0253771
0.014418
0.0101283
0.0139292
0.0181454
0.00907064
0.0181593
0.0858114
0.0222541
0.0583676
0.124923
0.0139808
0.0333813
0.0162457
0.129009
0.00991449
0.0097828
0.00992555
0.0367348
0.0141689
0.0107476
0.0215906
0.00947537
0.0359021
0.0110141
0.0153223
0.114932
0.00993159
0.0240506
0.062102
0.0347736
0.0115791
0.0205709
0.0427146
0.116101
0.0104655
0.0205522
0.0130483
0.0210696
0.078364
0.0171378
0.11828
0.0124244
0.0171426
0.0114748
0.0595076
0.0285314
0.0330971
0.0784376
0.00912352
0.0104831
0.137724
0.0123128
0.00928844
0.078347
0.0489588
0.0541022
0.0139979
0.00976624
0.147099
0.0634876
0.0582935
0.0258809
0.00955741
0.101007
0.0134663
0.0142866
0.00991526
0.114828
0.0116799
0.0937681
0.0122336
0.117695
0.0529057
0.0144684
0.0535373
0.12624
0.0818973
0.0581367
0.0586839
0.0158679
0.0653759
0.0497443
0.0142877
0.0110621
0.0816464
0.0272383
0.0793963
0.0108801
0.0621872
0.0116857
0.0627558
0.0213371
0.010165
0.0614498
0.0107305
0.0829713
0.149401
0.0155247
0.00969902
0.0201355
0.0218813
0.00996053
0.0542777
0.0117877
0.0543421
0.0105297
0.0214829
0.0860524
0.0142469
0.0596003
0.0856255
0.0159008
0.0734796
0.018149
0.00970479
0.0192366
0.0570125
0.0101315
0.0387921
0.00915113
0.00988996
0.00966313
0.00981905
0.0714759
0.0628669
0.0100669
0.0127099
0.0960285
0.0128497
0.00984413
0.0104472
0.00971122
0.0251081
0.13015
0.0104459
0.0302557
0.0141563
0.0315303
0.0779508
0.00951158
0.036679
0.0185469
0.00938946
0.0168935
0.150288
0.117465
0.0102223
0.0115717
0.00919794
0.0146693
0.0373184
0.0157368
0.0104736
0.104343
0.00980403
0.0178252
0.0795753
0.0500795
0.0167149
0.0172019
0.018669
0.0231281
0.0307697
0.00928956
0.035273
0.0106015
0.0111892
0.00928568
0.010419
0.0725789
0.012485
0.0953246
0.0995728
0.052385
0.0119703
0.0186651
0.0332965
0.0109811
0.0107195
0.0141001
0.0109892
0.0838849
0.0104936
0.015113
0.0101074
0.0265915
0.0168991
0.0102163
0.0255583
0.0748082
0.0629156
0.0735974
0.131507
0.0814648
0.0192892
0.0173661
0.144813
0.124267
0.00902659
0.0718025
0.0820232
0.0162563
0.0281273
0.0191506
0.082033
0.059682
0.0262004
0.0111283
0.0148816
0.0915707
0.0953788
0.0604195
0.0959383
0.0184385
0.0942112
0.0307816
0.00999319
0.0105089
0.0724942
0.030514
0.0861851
0.104342
0.0102801
0.139038
0.0117583
0.0631918
0.0138614
0.016954
0.118235
0.058589
0.0155028
0.0801362
0.0123893
0.0638612
0.0290842
0.00958852
0.0819376
0.111546
0.0632648
0.0197233
0.0308704
0.0645587
0.04037
0.102969
0.00948734
0.0862106
0.0117627
0.0165788
0.0115761
0.139812
0.0153171
0.0375231
0.0135063
0.0687665
0.0145661
0.0134591
0.0785677
0.00908661
0.0304175
0.0229802
0.0909297
0.0578217
0.00978282
0.0203019
0.0893135
0.0253358
0.0532943
0.100505
0.0101795
0.0123553
0.0199425
0.0110644
0.0104668
0.011378
0.0192998
0.0659002
0.0692186
0.00995859
0.0129704
0.0253972
0.0204966
0.0446799
0.0157842
0.0124948
0.0316058
0.0301319
0.0851696
0.0382823
0.0836512
0.0143449
0.010732
0.0368302
0.03074
0.12926
0.0436496
0.0633466
0.0104999
0.0103207
0.0130567
0.0127318
0.0440431
0.016195
0.018516
0.123026
0.0102726
0.0677899
0.0179262
0.105333
0.0109228
0.0107353
0.0137434
0.0255106
0.0158545
0.0156774
0.00941852
0.0749417
0.0574216
0.105788
0.0104225
0.0138697
0.0189127
0.0134021
0.174465
0.0316311
0.0376917
0.0105623
0.0209544
0.016063
0.030025
0.00964206
0.11723
0.0405913
0.0142659
0.0845111
0.0683825
0.0500203
0.124553
0.0355945
0.0113441
0.0512651
0.136327
0.0289008
0.0728837
0.0298895
0.0106853
0.00907049
0.0109695
0.0126881
0.0104669
0.0199071
0.0886603
0.0106406
0.0209075
0.0393917
0.0302872
0.0123017
0.024723
0.0482562
0.0141434
0.0786475
0.0369336
0.0342736
0.0504265
0.0138761
0.0449017
0.0226877
0.0900448
0.105529
0.0554791
0.124632
0.0212811
0.0140168
0.0211385
0.0377154
0.0187081
0.0152295
0.111794
0.0134304
0.0114153
0.0698119
0.119141
0.0255897
0.0270314
0.0975143
0.0128296
0.116167
0.010427
0.0137642
0.0220789
0.0140939
0.0136413
0.0298522
0.00968844
0.165293
0.0864483
0.0312844
0.0324673
0.137369
0.0167628
0.0149531
0.0103524
0.0116271
0.0450116
0.0140699
0.00907323
0.036752
0.0634673
0.0115633
0.0318259
0.0789314
0.0126493
0.010411
0.0138999
0.0339961
0.0200805
0.0283128
0.0386643
0.0311216
0.0325206
0.0193836
0.0545447
0.0130347
0.0102362
0.0094097
0.0168489
0.0272943
0.0217816
0.0808263
0.0564934
0.0216479
0.0173077
0.0188871
0.0093319
0.0149438
0.00919721
0.00946239
0.241954
0.0251759
0.0101875
0.111711
0.0170939
0.0147839
0.106127
0.0140801
0.010226
0.0302515
0.0103603
0.00935115
0.0106784
0.0534151
0.0107622
0.0712254
0.0259791
0.0109316
0.0959314
0.0634845
0.0566395
0.0229064
0.0733873
0.0147808
0.0109588
0.011033
0.0136862
0.0388113
0.0563674
0.013726
0.012519
0.0243751
0.0397439
0.0141012
0.00982271
0.00973343
0.0875554
0.00982429
0.0340049
0.0422325
0.0859767
0.0581008
0.0375436
0.0105124
0.0675169
0.0117179
0.0113509
0.0118173
0.00974872
0.0114111
0.00996854
0.0106542
0.00948203
0.00978499
0.0188354
0.0231923
0.0797322
0.0667804
0.0128467
0.0214171
0.0878775
0.0118878
0.0294504
0.00915441
0.0091056
0.00966709
0.0160135
0.0371224
0.0100255
0.131226
0.0333294
0.00974846
0.0758628
0.0100844
0.0820557
0.0399072
0.0124297
0.0445367
0.076735
0.012025
0.0137157
0.015202
0.0779373
0.0106424
0.0816298
0.0352653
0.0494824
0.0554008
0.0314338
0.00922386
0.0525534
0.0142451
0.0118914
0.0272863
0.009436
0.00918624
0.0252421
0.00919198
0.010759
0.0463907
0.00933296
0.0585728
0.0827098
0.011352
0.0129732
0.0680303
0.010121
0.0282979
0.0406653
0.0107745
0.1376
0.0116792
0.0104449
0.0262786
0.0969665
0.064402
0.0330728
0.0628277
0.018765
0.0200695
0.0297989
0.128256
0.0261245
0.0115112
0.0131197
0.00930755
0.0100669
0.0411722
0.0132806
0.00990168
0.0265468
0.016632
0.0860914
0.0247501
0.0137935
0.00922912
0.0492873
0.0131753
0.034753
0.0264394
0.11145
0.0246115
0.0393779
0.0776786
0.0232613
0.0735324
0.01288
0.0281207
0.00989499
0.082419
0.00910564
0.035056
0.0621678
0.032142
0.0175155
0.108162
0.0125069
0.0147411
0.0624802
0.151513
0.0650976
0.00908398
0.0152301
0.0105317
0.030463
0.0676302
0.0155442
0.102219
0.0290004
0.00987831
0.0155627
0.0618176
0.0163312
0.112966
0.0388328
0.0143018
0.0094496
0.0869929
0.0141578
0.0216972
0.0647264
0.0121031
0.0132361
0.00929466
0.0162405
0.0325948
0.0655457
0.01185
0.0156854
0.112499
0.0773947
0.0613345
0.011162
0.0339185
0.0123881
0.0659531
0.0108746
0.0862661
0.0189491
0.0252701
0.0119996
0.0097507
0.0176033
0.0176939
0.10012
0.0892805
0.015658
0.0187432
0.110423
0.0921673
0.0119157
0.0149498
0.0125006
0.0301557
0.0180165
0.0118792
0.0111297
0.0542133
0.0392492
0.0502865
0.0156911
0.0391166
0.0852055
0.0872332
0.0104409
0.0275444
0.0344518
0.0124436
0.0125426
0.0962097
0.0116363
0.0103083
0.0742169
0.113142
0.0108449
0.00967125
0.10127
0.144121
0.0100442
0.0307303
0.119868
0.0478554
0.00997893
0.0110422
0.0104869
0.0166472
0.0121737
0.107315
0.0837663
0.00993448
0.0109452
0.0322283
0.0141096
0.0651785
0.0608095
0.0666033
0.0142747
0.142883
0.014747
0.0171756
0.0341158
0.0582495
0.122842
0.00946411
0.00965694
0.0242758
0.0100187
0.029361
0.0142944
0.0709974
0.0586889
0.223175
0.0280671
0.0166561
0.030162
0.0620534
0.0366127
0.0245084
0.0164857
0.0325356
0.0143449
0.0111715
0.0286458
0.0606094
0.0987438
0.0122523
0.0984411
0.0241424
0.0217557
0.0383524
0.109702
0.0154555
0.0530468
0.140038
0.118993
0.0190789
0.00996075
0.0204837
0.0199891
0.0403726
0.0275318
0.0967853
0.0816821
0.072808
0.00954426
0.0306728
0.0163804
0.0286624
0.0292152
0.0200076
0.114073
0.0235966
0.110309
0.0124644
0.0274466
0.104218
0.00958185
0.0354282
0.0199763
0.0379719
0.0611589
0.111727
0.0145374
0.0705835
0.00971779
0.00922091
0.0217481
0.0481723
0.100364
0.0123807
0.0751687
0.0120492
0.0121789
0.0106616
0.0635007
0.0128001
0.0123769
0.0135218
0.0125596
0.117168
0.0684815
0.0113125
0.0275238
0.05294
0.00933574
0.0219808
0.0206673
0.0321692
0.0870293
0.162026
0.0680803
0.0132337
0.0113468
0.0225659
0.107795
0.081852
0.0154737
0.0243362
0.0490869
0.00931158
0.0129137
0.0121112
0.0110212
0.00956548
0.0127682
0.0164755
0.0261339
0.0242441
0.0266463
0.0444951
0.0517649
0.00927101
0.0198742
0.0868799
0.0586313
0.0108866
0.0730923
0.0161123
0.0324588
0.0117515
0.0156428
0.0257434
0.0101702
0.0111605
0.0122642
0.0615958
0.0772083
0.0105374
0.00922115
0.118683
0.0397045
0.0219418
0.0104495
0.0177612
0.141984
0.0303932
0.0179186
0.0401657
0.0105262
0.0245687
0.126514
0.0218079
0.102582
0.0343276
0.135921
0.0135823
0.0152713
0.0103978
0.126102
0.0601546
0.0380968
0.0144485
0.0664577
0.0641925
0.0353294
0.00991161
0.083466
0.00923891
0.0150094
0.0513337
0.0523597
0.0749383
0.0123227
0.00979841
0.0167047
0.0225557
0.032679
0.0296618
0.0331238
0.103793
0.0948837
0.0832927
0.0358624
0.00924442
0.084878
0.147389
0.0638299
0.108028
0.0136135
0.103789
0.011381
0.00927025
0.0166279
0.0502433
0.0103434
0.0843933
0.0534268
0.00960235
0.0121617
0.0232767
0.00996098
0.0117607
0.119065
0.020471
0.0140322
0.010125
0.0354358
0.0138074
0.0100521
0.0291917
0.0770104
0.0984452
0.0292834
0.00959689
0.0918874
0.0407273
0.0121743
0.0801147
0.0919498
0.0320953
0.0674283
0.0484903
0.114949
0.0649496
0.0867718
0.127257
0.0782782
0.130467
0.0290784
0.0419451
0.00982085
0.127478
0.0104714
0.021172
0.0154738
0.0247568
0.0137365
0.0862831
0.0128251
0.0108728
0.0337029
0.00921804
0.0203802
0.152083
0.0237896
0.0387953
0.0910394
0.0916623
0.0178273
0.0355547
0.106074
0.0156138
0.0174727
0.00964748
0.0121608
0.0711299
0.0252598
0.0394296
0.0145076
0.0178191
0.017102
0.0110741
0.0355105
0.0140456
0.0196221
0.0130461
0.0296043
0.0282014
0.0229375
0.0372541
0.00963487
0.019064
0.0698546
0.0176417
0.0736039
0.144009
0.060943
0.0171127
0.0178762
0.00944367
0.0140371
0.0253054
0.0428558
0.0265449
0.136527
0.112788
0.0853124
0.0589951
0.0699214
0.0127949
0.0694406
0.0242133
0.0982382
0.0960678
0.0092256
0.0602748
0.0127509
0.0202857
0.0112409
0.0792756
0.0706738
0.0221012
0.0154336
0.129544
0.0181789
0.0575653
0.0283235
0.0101356
0.0144592
0.010078
0.0319267
0.0329794
0.038263
0.0514161
0.0797684
0.0672365
0.100435
0.0281236
0.0109243
0.0441723
0.0561535
0.0319212
0.0153157
0.0141705
0.0588521
0.0197324
0.104773
0.0515425
0.0150854
0.0688239
0.0404219
0.0347618
0.0236874
0.0290341
0.0153198
0.0348698
0.0304443
0.0118745
0.0274548
0.0120704
0.112368
0.115813
0.021643
0.0301847
0.0150046
0.0278634
0.032815
0.12464
0.0191323
0.0205998
0.0161619
0.0350265
0.0791492
0.0593689
0.0717932
0.022976
0.0519847
0.0288495
0.115606
0.0250018
0.0741756
0.0412076
0.0104579
0.0600289
0.0150928
0.0133387
0.0793314
0.0981831
0.0244121
0.130934
0.0141401
0.0119387
0.0381015
0.0158564
0.0322875
0.0237893
0.0957014
0.0282453
0.0228205
0.00921619
0.139366
0.0127458
0.0216123
0.0411792
0.0186678
0.0830651
0.0118823
0.0949856
0.0144929
0.0221637
0.016762
0.0199003
0.0737884
0.113
0.00996438
0.0102427
0.0762494
0.0292925
0.0913092
0.0212224
0.056176
0.12459
0.0333653
0.0155046
0.0369402
0.0101285
0.0254748
0.0174446
0.0917339
0.00973794
0.090697
0.0437307
0.0104768
0.0098796
0.0211658
0.112545
0.0700407
0.00910061
0.00921665
0.0159024
0.0158077
0.0142994
0.163616
0.0187809
0.0167201
0.0194795
0.0640573
0.0206763
0.010517
0.0197637
0.0112984
0.00921002
0.0575493
0.014071
0.0723983
0.0136679
0.0349371
0.0196045
0.0144153
0.0116309
0.0103851
0.084818
0.00908962
0.0592571
0.101614
0.0215924
0.0662863
0.0141925
0.125152
0.0639468
0.0655978
0.0409147
0.0216504
0.0885527
0.0911504
0.0172584
0.0337683
0.0104708
0.0307151
0.116899
0.0380405
0.0766721
0.0279245
0.0142913
0.0614776
0.0145889
0.0104603
0.0132712
0.0123025
0.0103395
0.0135797
0.0104208
0.0161746
0.0654401
0.133513
0.0171362
0.129557
0.0232521
0.0229741
0.0397417
0.00948059
0.0218473
0.0790106
0.0092488
0.0691541
0.0330994
0.0538195
0.0199069
0.0093844
0.0425458
0.0303083
0.07408
0.0220789
0.0238163
0.0374168
0.0172712
0.148475
0.104065
0.0102764
0.0215093
0.0111844
0.0303141
0.171458
0.00910685
0.0518722
0.00914662
0.0129662
0.0856183
0.0147218
0.0120622
0.0864747
0.0653877
0.00919782
0.03192
0.107377
0.0148664
0.0605504
0.107901
0.0336476
0.0102998
0.00948169
0.016167
0.0112381
0.0157876
0.0103541
0.0264501
0.0302418
0.0105987
0.0156842
0.128124
0.0813088
0.0229298
0.0116486
0.0244149
0.119046
0.107349
0.0165438
0.0742601
0.0151156
0.0118927
0.00960129
0.0725751
0.0421353
0.0105868
0.0256479
0.0147287
0.0182253
0.0565837
0.0961988
0.0108737
0.104446
0.0492432
0.0866356
0.0723882
0.0119865
0.0094643
0.0160282
0.0286856
0.0348629
0.0360052
0.0116602
0.0138851
0.0630985
0.00954379
0.0124435
0.0126389
0.0988507
0.0222121
0.110067
0.0353382
0.0692005
0.0135878
0.017322
0.0118677
0.0975033
0.0391517
0.0537754
0.136238
0.0148421
0.109378
0.0597847
0.0111417
0.0124053
0.00938386
0.0775098
0.0278518
0.0634575
0.0097174
0.0131703
0.0117251
0.0107669
0.073049
0.0170118
0.0247249
0.00942768
0.0118368
0.0116348
0.0126802
0.00937085
0.124162
0.0729838
0.0251552
0.00924413
0.0164273
0.0759646
0.0105169
0.0552471
0.0227529
0.0173278
0.0390321
0.048349
0.0565507
0.141717
0.0138474
0.0171262
0.0589015
0.0236664
0.129878
0.0142359
0.00981958
0.116675
0.0233354
0.0208591
0.0123135
0.099136
0.138781
0.0936275
0.0498089
0.0536009
0.111228
0.0974635
0.138778
0.0393459
0.0121077
0.0176425
0.0130738
0.0217202
0.119394
0.0134895
0.0248739
0.145744
0.136063
0.0915024
0.0370903
0.0743815
0.0136663
0.0173492
0.00934879
0.0154694
0.0735472
0.0386394
0.0141358
0.00984699
0.0162201
0.0130694
0.0110176
0.0653509
0.0285387
0.0149593
0.0123908
0.151401
0.0223917
0.0286935
0.0219066
0.0251875
0.0103632
0.0580146
0.0863056
0.12534
0.0322265
0.00911393
0.00930196
0.013424
0.0555712
0.0283859
0.0650335
0.0328976
0.0119847
0.0710541
0.0574148
0.0106837
0.015761
0.0137893
0.0125619
0.0372144
0.0504999
0.0160887
0.030961
0.0226931
0.0168677
0.0199954
0.0106092
0.0398806
0.0176647
0.129696
0.0889903
0.143442
0.0341325
0.0243311
0.0317765
0.0666493
0.0152348
0.0707702
0.0564904
0.12374
0.0245949
0.0100398
0.0114795
0.12438
0.0579369
0.0666546
0.102833
0.0599031
0.0102601
0.009411
0.0979457
0.0786408
0.0579565
0.0098151
0.00951032
0.0166664
0.0340045
0.0141088
0.0170916
0.0329771
0.079552
0.0091875
0.0174184
0.0176034
0.0227014
0.0165928
0.0112588
0.0448265
0.0228488
0.0491621
0.0116054
0.0122258
0.0107104
0.143544
0.0108621
0.107226
0.0137394
0.0146122
0.0119006
0.0126556
0.0605921
0.112295
0.0635574
0.00976211
0.0101483
0.0213194
0.0117229
0.0978909
0.0347417
0.0128076
0.0107161
0.0270592
0.0800246
0.020925
0.027078
0.0113944
0.0109919
0.0117256
0.0103659
0.0149975
0.0161957
0.0372213
0.0112152
0.010955
0.0162544
0.0369493
0.0879416
0.117495
0.0441705
0.0287548
0.01036
0.0103039
0.100002
0.027112
0.0184087
0.0182859
0.0338621
0.0125925
0.0174866
0.0196101
0.00939232
0.0307989
0.0195934
0.0648741
0.0268677
0.0174137
0.111424
0.0227437
0.0145933
0.0184923
0.0134894
0.0101422
0.104484
0.0118857
0.039762
0.0109915
0.043258
0.0112629
0.0214316
0.035408
0.0231667
0.115069
0.0220325
0.0690262
0.0787771
0.0167109
0.105229
0.0106271
0.0130047
0.010507
0.0660089
0.0312063
0.111626
0.0192592
0.0802609
0.0337571
0.0140342
0.012672
0.0106079
0.0154891
0.0140685
0.0099629
0.0141376
0.0133949
0.0141099
0.0731862
0.0313623
0.00923205
0.00960346
0.0558131
0.0161513
0.0121297
0.0111111
0.108392
0.0188807
0.111019
0.00969503
0.101883
0.0764406
0.0242819
0.0196875
0.0179191
0.0253538
0.0928205
0.0120179
0.0907579
0.0908181
0.014984
0.0610358
0.038078
0.0206709
0.013422
0.12194
0.0544444
0.0851029
0.0108306
0.0122615
0.0513016
0.0142471
0.0351742
0.0540571
0.0100906
0.0842688
0.0183641
0.0140896
0.0107436
0.013189
0.0105209
0.0103843
0.0236352
0.00909061
0.0150995
0.0105705
0.0295462
0.0323589
0.00980422
0.0427361
0.0139248
0.0158889
0.0137311
0.0160738
0.00972256
0.0174166
0.0776321
0.0131583
0.00952015
0.0544805
0.0237293
0.00940003
0.152067
0.0133362
0.0110874
0.034136
0.021038
0.0637359
0.0266387
0.0108504
0.0145472
0.0343311
0.0558312
0.0561257
0.0214363
0.07376
0.0780059
0.101902
0.0179448
0.011136
0.00949843
0.0191687
0.0160288
0.0174792
0.0541437
0.0272078
0.0101651
0.0096818
0.00910633
0.00914547
0.0989975
0.150285
0.127555
0.0473276
0.0137773
0.0102833
0.00975149
0.0366493
0.0146956
0.0119362
0.12374
0.00919403
0.0123863
0.0105451
0.00988455
0.0463034
0.0625538
0.024419
0.066657
0.0130243
0.0165896
0.0315222
0.0149121
0.0338906
0.0515884
0.0312013
0.00948053
0.0382989
0.0203217
0.0107842
0.0252424
0.0752534
0.0112321
0.0094714
0.0606587
0.0786975
0.0358641
0.0690475
0.0103195
0.0241088
0.0654976
0.00953873
0.00958366
0.0116006
0.0216508
0.0120616
0.0140903
0.0127193
0.0165726
0.0384231
0.0159064
0.0479955
0.040654
0.0624617
0.0102832
0.0249741
0.0120758
0.0179284
0.0348822
0.0302867
0.123251
0.0300721
0.122422
0.0351051
0.016514
0.0145276
0.0111349
0.0142346
0.0853629
0.0694052
0.0117818
0.0404485
0.0519908
0.0209725
0.0712693
0.0107445
0.0169571
0.0132613
0.0251144
0.0118785
0.0235514
0.0135745
0.0814301
0.0109091
0.084273
0.0883121
0.0505934
0.0193806
0.0242677
0.00928878
0.0865816
0.00951894
0.0145569
0.0312124
0.0409379
0.0368388
0.074301
0.058185
0.0761984
0.0512083
0.00957499
0.0620605
0.0146066
0.0549823
0.134205
0.0332838
0.0726079
0.150654
0.118323
0.0169989
0.0253132
0.0109648
0.0526062
0.00926241
0.0879891
0.0262235
0.0532905
0.014075
0.012698
0.123667
0.0197362
0.0130647
0.0135668
0.0184284
0.0206891
0.011292
0.0135755
0.0119122
0.0175526
0.0866708
0.0366001
0.0641432
0.0143208
0.0979986
0.0365711
0.0153455
0.0447763
0.0273152
0.121743
0.0263322
0.0303034
0.0102978
0.0217111
0.0122265
0.0172675
0.011752
0.0191263
0.00936876
0.0598817
0.0592913
0.0143496
0.01236
0.018448
0.0151306
0.0124884
0.0148553
0.0155057
0.0833045
0.0147664
0.00941141
0.0885432
0.0215374
0.0876701
0.020354
0.0493838
0.0709083
0.0138313
0.0739948
0.0923811
0.116355
0.093394
0.0800565
0.0111407
0.0215198
0.00992388
0.0196043
0.0552268
0.0125542
0.00954403
0.0121926
0.120547
0.0165796
0.0263019
0.0253438
0.0140198
0.1009
0.0875956
0.0164797
0.0836361
0.00996917
0.069127
0.0228312
0.0477227
0.00907273
0.00915855
0.0131735
0.0756146
0.115427
0.0822006
0.0138514
0.0550458
0.155726
0.0259612
0.034791
0.100523
0.032598
0.064843
0.0210639
0.0157787
0.0101651
0.0138885
0.165055
0.0281176
0.106167
0.00970231
0.0144048
0.0228505
0.0129276
0.0345321
0.0273568
0.11207
0.0163654
0.0306345
0.00950215
0.00984199
0.0584755
0.147216
0.0113273
0.0128872
0.0104254
0.05099
0.0177106
0.117981
0.0844645
0.069211
0.0111817
0.0922845
0.0268664
0.137919
0.067172
0.0165773
0.0616334
0.0826643
0.0888579
0.0161631
0.0140256
0.010192
0.059992
0.0199284
0.01196
0.023974
0.0232797
0.0148898
0.0104607
0.0106101
0.121198
0.0146683
0.0235956
0.0483242
0.0739007
0.0102058
0.0109607
0.0325285
0.0155368
0.136287
0.025886
0.0207732
0.126564
0.0134486
0.012433
0.0160123
0.0601695
0.0106152
0.0652539
0.00948008
0.057093
0.120298
0.0105831
0.0123677
0.0519797
0.0163285
0.011903
0.0115829
0.0104311
0.0582889
0.0931571
0.0113961
0.0158494
0.0168642
0.0131851
0.0613043
0.0185188
0.0587504
0.0507749
0.0135499
0.00920908
0.0313303
0.0147643
0.0235317
0.0804125
0.0780988
0.0105105
0.0135568
0.0653804
0.0913803
0.0386391
0.0160553
0.0165598
0.115605
0.0351182
0.013173
0.0112279
0.0130581
0.0158752
0.026868
0.00936665
0.0154962
0.0119195
0.0372721
0.0979414
0.122347
0.0227377
0.0282648
0.0154321
0.0138244
0.0110816
0.0125545
0.0102478
0.0126148
0.0140883
0.011125
0.0316102
0.0132071
0.0129465
0.0342798
0.0126713
0.0321739
0.0971159
0.0231237
0.0187989
0.0194679
0.0218127
0.0196273
0.036049
0.0642547
0.016426
0.013398
0.0161455
0.0237219
0.0995347
0.0125696
0.0299732
0.112616
0.0169886
0.0863648
0.0233064
0.0148944
0.0171986
0.0190269
0.0264493
0.0778132
0.108427
0.0958039
0.00968055
0.0664602
0.0137387
0.0124161
0.0722902
0.00905457
0.0332093
0.00996757
0.0236995
0.0240744
0.043264
0.00906278
0.0110781
0.137117
0.0125932
0.079279
0.141511
0.0177056
0.0494642
0.0118348
0.0123467
0.010321
0.0302452
0.0389438
0.0162775
0.0127968
0.0164641
0.0607551
0.103676
0.0238415
0.0139427
0.0255739
0.00978213
0.0383904
0.0335601
0.0133254
0.0122777
0.0126577
0.0351936
0.0274655
0.0371699
0.0200133
0.0164799
0.026134
0.0292362
0.0809666
0.015523
0.0173103
0.014049
0.0113142
0.0166229
0.0103374
0.0741346
0.0223552
0.042696
0.0606565
0.0142728
0.0400471
0.009615
0.0112218
0.0163499
0.114122
0.0305121
0.0151722
0.0111092
0.0536654
0.0123672
0.0412096
0.0197905
0.0384981
0.026916
0.0147224
0.0129573
0.143343
0.018183
0.0124658
0.0130079
0.0344246
0.0149975
0.0137289
0.137148
0.00909006
0.0723122
0.0163209
0.0111105
0.0124215
0.0239277
0.0333039
0.0439337
0.0584142
0.0838724
0.0115217
0.0118131
0.109136
0.075412
0.0164183
0.0175191
0.0592739
0.0290483
0.0173354
0.0182262
0.0166027
0.117435
0.0143833
0.0326984
0.0708137
0.0122611
0.0585213
0.0377608
0.110035
0.0715759
0.038376
0.06052
0.0224528
0.0565453
0.0257139
0.0817041
0.107116
0.0226707
0.0943846
0.0548578
0.0169046
0.0992098
0.0152957
0.058396
0.0476255
0.059922
0.0105342
0.0940621
0.0856552
0.0195385
0.0144169
0.0207818
0.0639482
0.0187148
0.0367432
0.0227206
0.051579
0.031269
0.00920889
0.0324081
0.0106432
0.0174029
0.0194951
0.0118529
0.141492
0.0214284
0.0243625
0.0144008
0.098211
0.0239738
0.140191
0.0325481
0.0329539
0.0113728
0.012913
0.0257748
0.015246
0.0211652
0.00962714
0.0129241
0.0391207
0.00921107
0.0489961
0.0138195
0.0194039
0.0529167
0.0161346
0.0501919
0.0115578
0.01516
0.0509761
0.0197677
0.0226832
0.125319
0.0129691
0.121394
0.0659059
0.026158
0.0149217
0.0177848
0.0639826
0.0114581
0.0131841
0.0292863
0.0540781
0.0372359
0.0885317
0.0160681
0.0348022
0.0198345
0.0348881
0.00961017
0.0171086
0.0844621
0.0191182
0.00955653
0.0338468
0.14529
0.050692
0.0163632
0.0577244
0.0354178
0.0547222
0.0167279
0.0366775
0.0651488
0.0643905
0.0103248
0.111842
0.0143092
0.0980029
0.0118316
0.030864
0.0145198
0.0822645
0.0165666
0.0106618
0.0122987
0.0109629
0.0314047
0.129748
0.126004
0.0339659
0.143444
0.0139206
0.0805357
0.0107966
0.0156029
0.0216827
0.0123599
0.106306
0.056142
0.0583576
0.0156077
0.0877984
0.0152821
0.0317199
0.0177082
0.0522249
0.0789579
0.0938419
0.0141499
0.0613055
0.0127192
0.0217589
0.0226787
0.061597
0.0625897
0.0231658
0.0303642
0.0669001
0.0104333
0.0132733
0.0386164
0.0321185
0.0174206
0.0141233
0.0126203
0.0106894
0.0109159
0.0303556
0.0382272
0.0110033
0.140587
0.0912517
0.0205452
0.0147836
0.00950835
0.0927528
0.067243
0.00935444
0.0320856
0.00920378
0.0763797
0.00958099
0.0107858
0.013785
0.0557914
0.0375462
0.098172
0.113317
0.0236336
0.120484
0.0217041
0.0483614
0.0223343
0.0194206
0.0125223
0.104708
0.149326
0.0124537
0.0216702
0.0842479
0.0131376
0.0129899
0.0859199
0.124271
0.128982
0.0763173
0.0427324
0.115097
0.0369217
0.00983407
0.0827879
0.110088
0.022745
0.0140981
0.0114929
0.0163286
0.0324566
0.155142
0.0107916
0.0805133
0.0117566
0.0756111
0.0296555
0.0220897
0.0287409
0.0257533
0.0968764
0.0113798
0.0128984
0.0101873
0.115458
0.024054
0.0598298
0.0310093
0.0487935
0.105734
0.0274343
0.02712
0.0233635
0.0414119
0.016048
0.0607334
0.0824233
0.0672123
0.0202294
0.0261995
0.0206305
0.0835539
0.0263524
0.108116
0.155655
0.0176134
0.0111496
0.0631923
0.0784671
0.0336176
0.0115975
0.0235843
0.0132474
0.0229611
0.0179897
0.0135599
0.0164291
0.00997095
0.0572554
0.125085
0.0210288
0.00955042
0.0108194
0.0352085
0.139755
0.0325345
0.011912
0.0593067
0.0303187
0.023765
0.0313256
0.0113662
0.014871
0.00974475
0.0874256
0.020831
0.0121189
0.015741
0.0115809
0.0257202
0.0595283
0.0112662
0.0326106
0.124028
0.010395
0.0106302
0.0260958
0.035486
0.014518
0.0116367
0.0164312
0.00963187
0.024133
0.0344174
0.0785811
0.0616
0.0124054
0.021525
0.00941617
0.01808
0.0702663
0.0809924
0.0692773
0.108087
0.0536704
0.105275
0.0130722
0.109544
0.0210725
0.0393735
0.0103269
0.0858358
0.0139547
0.0754525
0.0133405
0.144802
0.0681645
0.0642106
0.0091781
0.0107282
0.0419899
0.035836
0.135139
0.106163
0.0106324
0.0212012
0.0225028
0.0106081
0.0105523
0.0158134
0.0154626
0.0123806
0.0394533
0.0232633
0.0494734
0.0595502
0.116044
0.0101092
0.0511485
0.115362
0.0108455
0.0568745
0.0131861
0.104134
0.0158141
0.0112842
0.025462
0.0312979
0.0128342
0.0192981
0.1124
0.0137113
0.0104298
0.0708369
0.0740969
0.0155243
0.0244403
0.130988
0.046585
0.0126195
0.00992753
0.0251574
0.0135382
0.0235801
0.0259474
0.00934958
0.00929155
0.0344718
0.017583
0.0295164
0.0352956
0.0146957
0.0231178
0.126844
0.00944245
0.0234641
0.139628
0.0145662
0.0458891
0.0176236
0.13557
0.0154836
0.0288789
0.021746
0.0163284
0.0170674
0.0708113
0.0151015
0.0278135
0.0244065
0.104517
0.0150485
0.0352355
0.0107175
0.0204958
0.0673518
0.0826126
0.0192035
0.0833631
0.0480343
0.0264568
0.0855505
0.124048
0.0347488
0.0105789
0.0191476
0.0111182
0.107997
0.0893918
0.116637
0.011899
0.0759494
0.0262802
0.00963503
0.0364542
0.0100029
0.0135007
0.0118278
0.0959702
0.0157752
0.0223262
0.130372
0.0293283
0.169614
0.014948
0.0195473
0.0919008
0.1359
0.0141932
0.130956
0.00967632
0.0347053
0.0888612