/*--------------------------------*- C++ -*----------------------------------*\
| =========                 |                                                 |
| \\      /  F ield         | OpenFOAM: The Open Source CFD Toolbox           |
|  \\    /   O peration     | Version:  2406                                  |
|   \\  /    A nd           | Website:  www.openfoam.com                      |
|    \\/     M anipulation  |                                                 |
\*---------------------------------------------------------------------------*/
FoamFile
{
    version     2.0;
    format      ascii;
    arch        "LSB;label=32;scalar=64";
    class       volScalarField;
    location    "16";
    object      k;
}
// * * * * * * * * * * * * * * * * * * * * * * * * * * * * * * * * * * * * * //

dimensions      [0 2 -2 0 0 0 0];

internalField   nonuniform List<scalar> 
59516
(
0.00471885
0.00548993
0.00513852
0.0063477
0.00884384
0.0174531
0.00572034
0.00479765
0.00495181
0.00721059
0.00851207
0.00591198
0.00473505
0.0137857
0.00621838
0.00621236
0.00801153
0.00624976
0.00496125
0.00728362
0.00793194
0.00648124
0.00676853
0.00862514
0.00693763
0.00586509
0.00842909
0.00861523
0.00627619
0.0116501
0.00750594
0.00829384
0.00622592
0.0054303
0.00677245
0.00604889
0.0111957
0.00614275
0.00479633
0.00699092
0.00470144
0.0071714
0.00656619
0.00555702
0.00635841
0.00638788
0.00552317
0.00795677
0.00839048
0.00765086
0.00914668
0.00782937
0.0049096
0.005224
0.0078748
0.00555136
0.00787367
0.00843302
0.00809841
0.00642074
0.00695993
0.0113108
0.00795894
0.00779383
0.00567237
0.00711517
0.0140479
0.00784424
0.00720049
0.00606108
0.0107537
0.00774653
0.0114339
0.00642674
0.00826525
0.00732718
0.00797177
0.0066217
0.00757034
0.00776921
0.00829192
0.007372
0.00664879
0.0114795
0.0072588
0.0079384
0.00814211
0.0062418
0.00617592
0.00502053
0.00820275
0.00675248
0.00781232
0.00672591
0.00778799
0.00871627
0.00688233
0.00623656
0.00627375
0.00676287
0.0082199
0.0117109
0.011331
0.00609822
0.00611303
0.00721949
0.00895398
0.00510705
0.00499569
0.0060326
0.00649416
0.0100675
0.00636677
0.00607225
0.00702798
0.00478006
0.00586998
0.00648271
0.0108186
0.0066647
0.00849265
0.00807531
0.00727856
0.00796378
0.00674538
0.00482388
0.0117792
0.00645095
0.0109915
0.00825767
0.00852552
0.0048741
0.0108195
0.00628949
0.00468854
0.00497979
0.00611961
0.00510123
0.00814256
0.00538208
0.00781084
0.00838433
0.0114149
0.00606285
0.00826679
0.0062156
0.00610273
0.00532925
0.0202774
0.00487615
0.00497777
0.00792183
0.00741226
0.00681718
0.00477098
0.0123148
0.00533693
0.0047483
0.00464472
0.0113583
0.00630789
0.00602574
0.00860919
0.0137729
0.004645
0.00765437
0.00594291
0.00807049
0.0108982
0.00669414
0.0047122
0.00612844
0.00522313
0.00655734
0.00702153
0.00566263
0.00800743
0.00676592
0.00592642
0.00784796
0.00654087
0.00891852
0.0133918
0.00559601
0.0083212
0.00588472
0.00772035
0.0119138
0.00523363
0.00500943
0.00635632
0.00611409
0.00728368
0.00518444
0.00656232
0.00821127
0.00606404
0.00764055
0.00575316
0.0064103
0.00563519
0.00858715
0.00465698
0.0115172
0.0057525
0.00630299
0.00815308
0.00759028
0.0117897
0.00539558
0.00691279
0.0114487
0.00657792
0.00650817
0.00527373
0.00792674
0.0061659
0.0070011
0.00643324
0.00724742
0.00651129
0.00554719
0.00809505
0.00848284
0.0081291
0.00795651
0.00994183
0.00746579
0.00791799
0.00616811
0.00789927
0.00802362
0.00856285
0.0102985
0.00840192
0.00771296
0.00565536
0.00469948
0.00733036
0.00674237
0.00852865
0.0117102
0.0058809
0.0123385
0.00838583
0.00429407
0.00690766
0.00603144
0.0076101
0.00480644
0.00736498
0.0064864
0.00861972
0.00660428
0.00660495
0.00696672
0.00629321
0.00712769
0.00767418
0.00629983
0.0058856
0.00765503
0.00521363
0.00791832
0.00510652
0.00569392
0.00734255
0.00469939
0.00799683
0.00589068
0.00539978
0.00813645
0.00431023
0.00504281
0.007753
0.00443467
0.0103731
0.00733557
0.0103798
0.00783068
0.00844028
0.00641966
0.0109549
0.00540561
0.00549546
0.00795702
0.00839442
0.0119267
0.00844794
0.00866539
0.00823839
0.00610197
0.00665664
0.0047823
0.00766531
0.00992074
0.00744771
0.00620415
0.00856084
0.00794119
0.00478164
0.00566206
0.0111101
0.00928783
0.00700946
0.0115774
0.00639629
0.00675671
0.00761657
0.00744144
0.00648872
0.00584372
0.00500676
0.00854782
0.00636287
0.00775186
0.004742
0.00877233
0.00512995
0.00749841
0.00647503
0.00504766
0.00827483
0.00843906
0.00858725
0.00724203
0.00532181
0.005912
0.00798699
0.00758903
0.00752108
0.00586121
0.0110326
0.00707017
0.0072487
0.00821809
0.00754834
0.0069028
0.00590828
0.00812327
0.00772968
0.00850442
0.00809809
0.00785909
0.00702218
0.00843638
0.00625277
0.00846105
0.00827448
0.00622294
0.00586968
0.00729344
0.00654022
0.00509812
0.00887189
0.00807999
0.00488228
0.00716445
0.0118599
0.00502587
0.00552979
0.0054615
0.00854805
0.00671151
0.00568963
0.00712737
0.00727595
0.00839762
0.0074003
0.00638961
0.00749967
0.00816016
0.00778957
0.00487946
0.00736201
0.0107713
0.00595366
0.00802882
0.00797083
0.00596006
0.00600331
0.0044242
0.0085948
0.0120301
0.00616562
0.00632247
0.0108834
0.00598934
0.00556705
0.00586724
0.00535473
0.00520125
0.00725675
0.00759266
0.00852355
0.00547293
0.00587493
0.00608863
0.00828172
0.00806064
0.00590652
0.00541809
0.00501304
0.00832662
0.00827783
0.00751669
0.00607743
0.00640219
0.0067541
0.00725886
0.011387
0.0107519
0.00569223
0.00815005
0.00851026
0.00832745
0.00826663
0.00420575
0.00842522
0.00802796
0.00823588
0.00825206
0.00813631
0.00466275
0.00851334
0.00578692
0.00776081
0.00506812
0.00739406
0.00822765
0.00633247
0.00665637
0.00739829
0.00850699
0.0107954
0.00817573
0.00839091
0.00641395
0.00576861
0.00793922
0.0114662
0.00543948
0.0071608
0.00828379
0.00692694
0.00576335
0.00840475
0.0056855
0.0104363
0.00548784
0.00627717
0.012572
0.00726155
0.00484522
0.0065514
0.0115913
0.00822432
0.00819313
0.00849317
0.0044559
0.0075345
0.0081328
0.00590583
0.00855464
0.00512913
0.00798386
0.00662533
0.0109198
0.00838838
0.00540426
0.00747086
0.00436728
0.00768336
0.00560308
0.00480774
0.0107911
0.00818674
0.00528482
0.00733089
0.00549162
0.00759842
0.0062913
0.0112212
0.00768618
0.00956363
0.0079555
0.00756953
0.00513462
0.00473839
0.00709404
0.00851461
0.00838155
0.0123004
0.00756662
0.00861606
0.00848196
0.00576101
0.00574874
0.00717642
0.00842749
0.0135277
0.00611912
0.00575932
0.00530213
0.00847261
0.0106023
0.0069314
0.00717277
0.0083197
0.0136986
0.00740203
0.010192
0.00736341
0.0115175
0.00541317
0.00742473
0.00591786
0.0113012
0.00850504
0.00711911
0.00629595
0.00628033
0.00637565
0.0055281
0.00758893
0.00818955
0.0101704
0.00445285
0.00732817
0.0079901
0.0062338
0.00814608
0.00671056
0.0060332
0.00847735
0.00684162
0.00817776
0.0084929
0.0118188
0.00666498
0.00844609
0.00616022
0.00571237
0.00808843
0.00672018
0.00748586
0.00583194
0.00842909
0.00562292
0.0103863
0.00661184
0.00768233
0.0104323
0.00638357
0.00734399
0.00626303
0.0084478
0.00558053
0.00577412
0.00804984
0.00481783
0.00845875
0.00819127
0.00828942
0.00845446
0.00756654
0.00643373
0.00824541
0.00759497
0.00906346
0.00756329
0.00806143
0.00787252
0.00818051
0.00487975
0.0112725
0.00802681
0.00553804
0.00751243
0.00457384
0.0102514
0.00854867
0.00512385
0.00589192
0.00832178
0.00665204
0.010966
0.011075
0.00832595
0.00803424
0.0085709
0.00737439
0.00447717
0.00703106
0.00809917
0.0104008
0.00848691
0.00661034
0.00859666
0.00554331
0.0060474
0.00661791
0.00611322
0.00544713
0.00482036
0.0083365
0.00526725
0.00786422
0.00797616
0.00839841
0.00814948
0.00823696
0.0072187
0.0087224
0.010555
0.00588336
0.00807348
0.00595018
0.00583259
0.00821893
0.00781607
0.00672851
0.00798061
0.00811163
0.00969614
0.00820937
0.00826954
0.00541463
0.00658777
0.00828993
0.0048444
0.00759912
0.00565356
0.00938999
0.01224
0.0108465
0.00570763
0.00648122
0.0124781
0.0111704
0.00863344
0.00883185
0.00840479
0.0067935
0.00480779
0.00613223
0.00864006
0.00610804
0.00519631
0.00798027
0.00677518
0.0087191
0.0103554
0.0101806
0.0110257
0.00580445
0.010711
0.00530078
0.00841703
0.00782013
0.00757363
0.00473047
0.00790911
0.0115583
0.00828489
0.0110791
0.00785215
0.00789679
0.0071733
0.006485
0.0112169
0.00598762
0.00699303
0.00793168
0.00787057
0.00649063
0.00469783
0.00847795
0.00813333
0.0108801
0.00738845
0.00825491
0.0048327
0.0061623
0.00411842
0.00860958
0.00848978
0.0104755
0.00740402
0.00629844
0.00799048
0.0114295
0.00625674
0.00463467
0.00686228
0.00704087
0.00875436
0.00702991
0.00760103
0.00851822
0.00831833
0.00521264
0.00842747
0.00750736
0.00840318
0.00568303
0.0083746
0.0047114
0.00580521
0.0107372
0.00824803
0.00927442
0.00540367
0.00800988
0.00819729
0.00785741
0.00565674
0.00749558
0.00774745
0.00815476
0.00888528
0.00518223
0.00569132
0.0048103
0.00643297
0.00768115
0.00495879
0.00449681
0.00918579
0.00585876
0.00905188
0.00710541
0.00791677
0.00459523
0.00449146
0.0113073
0.00487008
0.00661729
0.00830765
0.00823079
0.00911564
0.00754474
0.00460212
0.00960057
0.00606813
0.0129199
0.00825023
0.00630028
0.00639795
0.0119327
0.00799497
0.00960809
0.00728813
0.00497824
0.00709417
0.00675945
0.00852562
0.0079734
0.00765939
0.00834942
0.00832592
0.00714724
0.00654082
0.00700241
0.0122751
0.00518713
0.00512657
0.00820077
0.00579467
0.00704144
0.0055184
0.00853556
0.0108822
0.00487771
0.00760014
0.0106134
0.00712334
0.00583549
0.0111704
0.00548812
0.00813425
0.00578639
0.0114334
0.00485888
0.00939405
0.00436368
0.00806597
0.00856828
0.00805586
0.00740343
0.00818413
0.00508088
0.00803534
0.00803623
0.00558268
0.00467784
0.00528296
0.00757179
0.00473999
0.00553143
0.00688792
0.00804152
0.00459908
0.00510801
0.00601342
0.00722409
0.00779169
0.00564597
0.00841316
0.0116505
0.00571748
0.0114475
0.00544751
0.00761507
0.00588378
0.00550614
0.00673476
0.00745684
0.0117358
0.00770096
0.00806812
0.00714595
0.0115293
0.00539262
0.0045504
0.0105762
0.0073233
0.0114001
0.00825423
0.00729651
0.00603364
0.00725284
0.00718829
0.00489873
0.00848823
0.0122565
0.00826778
0.00501465
0.00519274
0.0114627
0.0068904
0.00710529
0.00794518
0.00800591
0.00493903
0.00735567
0.00853591
0.00518865
0.00777029
0.00782672
0.00466756
0.00868416
0.00754211
0.00846486
0.00729496
0.0046338
0.00547101
0.00461102
0.0049036
0.00508605
0.00500399
0.00550033
0.00540304
0.00779477
0.00820528
0.0093013
0.00590659
0.00509762
0.00571429
0.00849176
0.00679504
0.00553803
0.00618362
0.0058122
0.008479
0.00671536
0.00845741
0.00818282
0.0179325
0.00539284
0.00804525
0.0113933
0.00628451
0.00728217
0.00889852
0.00699855
0.00830622
0.00483879
0.00813871
0.00854898
0.00794751
0.00603639
0.00944901
0.00818747
0.00442398
0.00807817
0.010888
0.0063514
0.00572376
0.00540498
0.00733484
0.00708848
0.00794278
0.00813149
0.00709723
0.00508541
0.00751589
0.00718224
0.0073253
0.0053118
0.00529773
0.00725559
0.00845063
0.00822794
0.00883064
0.00840353
0.00487397
0.00542664
0.00903273
0.00596961
0.00438773
0.00816939
0.00693015
0.00782583
0.00791241
0.00785289
0.00847428
0.00804564
0.00798991
0.00794674
0.00846909
0.00920016
0.00574088
0.00553666
0.00851176
0.00642452
0.00760279
0.00551685
0.00891205
0.00764613
0.00506076
0.00866525
0.00865411
0.0084686
0.00709314
0.00474707
0.00824539
0.0157014
0.00481833
0.0084145
0.00807255
0.00849394
0.00806164
0.00449937
0.00791446
0.00543014
0.00800941
0.00801254
0.00764577
0.00669581
0.00779642
0.00830868
0.00800553
0.00490837
0.0055065
0.00563681
0.00471881
0.00852529
0.00594466
0.00711383
0.00774459
0.00523414
0.00843467
0.00848575
0.00504955
0.00829967
0.00818326
0.00587148
0.00847423
0.00706773
0.00838542
0.00840731
0.00742185
0.0102349
0.0082194
0.00496191
0.00429267
0.00806998
0.0126365
0.0075234
0.00823303
0.00509336
0.0113884
0.00835282
0.00511475
0.00737774
0.00594587
0.00571338
0.00493102
0.0110113
0.00453366
0.00784429
0.0076035
0.00866419
0.00840663
0.00529374
0.00737324
0.00822177
0.00484507
0.00661964
0.00847091
0.00558171
0.007389
0.00850887
0.00546464
0.00740223
0.00457226
0.00517511
0.0108837
0.0057656
0.00501434
0.00805438
0.00583799
0.00821611
0.00763566
0.00469495
0.00831201
0.0090735
0.0084535
0.00518395
0.00583451
0.00471798
0.00656229
0.0106131
0.00763195
0.00705865
0.00576823
0.0131721
0.00797432
0.00850444
0.00693937
0.00835135
0.00529916
0.00591673
0.00714591
0.00828259
0.00535786
0.00835487
0.00657195
0.00621915
0.00608311
0.0116178
0.00492136
0.00708212
0.00840812
0.00849324
0.00707113
0.0051531
0.00923242
0.00754583
0.00745197
0.00825108
0.0069773
0.00511786
0.00944958
0.00758322
0.00655973
0.011619
0.00778838
0.00728386
0.00762884
0.00501868
0.00761542
0.00624995
0.00802993
0.00982139
0.00599313
0.00545045
0.00745895
0.00849598
0.00574289
0.00680915
0.00851183
0.00853368
0.00716173
0.00639884
0.0111367
0.0112507
0.0077813
0.00646511
0.0075663
0.00482703
0.00628031
0.00717183
0.00807734
0.00625321
0.00564749
0.00564353
0.00646057
0.00457954
0.00847805
0.0109248
0.00809487
0.00493588
0.00453376
0.00772995
0.00753566
0.00810441
0.00765789
0.00822017
0.00845059
0.0120017
0.00813782
0.00814127
0.00945082
0.0115645
0.00829265
0.0050822
0.0121832
0.00484151
0.00830774
0.00771305
0.00821529
0.0061893
0.00752006
0.0108517
0.00762137
0.00836104
0.00814496
0.00478479
0.00739592
0.00601776
0.0061613
0.0075685
0.00680021
0.0125511
0.00676627
0.00581744
0.00470747
0.00687506
0.0114791
0.00844691
0.00830318
0.0052087
0.00807513
0.00510888
0.00659561
0.0081684
0.00691665
0.0178666
0.00465342
0.00663819
0.00451006
0.00568149
0.00514539
0.00511834
0.00664112
0.00463746
0.00716765
0.00784951
0.00531909
0.00616379
0.0114618
0.00786405
0.00869145
0.00556602
0.00561676
0.00509578
0.0107625
0.00657442
0.00586455
0.0112603
0.0110286
0.00628299
0.00821516
0.00598722
0.00608688
0.00487967
0.00481549
0.00861879
0.00788924
0.00838669
0.00833097
0.00454101
0.00652991
0.00506924
0.00492642
0.00618128
0.0124306
0.00542575
0.0106917
0.00769548
0.00496843
0.0105479
0.0084071
0.00485933
0.00576009
0.00479378
0.00517309
0.00856351
0.00652338
0.00820978
0.00851113
0.00866913
0.00612813
0.00480626
0.00861473
0.00743523
0.008217
0.00778854
0.00771261
0.00809333
0.00681585
0.00744407
0.0077421
0.00735141
0.0075976
0.00912086
0.0080309
0.00791452
0.00461286
0.00614038
0.00853795
0.00578697
0.00605695
0.00470995
0.0112226
0.0138655
0.00643179
0.00747602
0.00778446
0.00595578
0.0102461
0.00782513
0.00669772
0.00569853
0.00611445
0.00858073
0.00749514
0.0076403
0.00801096
0.00839699
0.00732691
0.00637125
0.00579657
0.00545256
0.00509833
0.00444581
0.00528959
0.00848607
0.00637199
0.00874678
0.00580422
0.00792991
0.0063004
0.00658864
0.00469918
0.00777328
0.00685418
0.00507567
0.0080631
0.00768688
0.00741337
0.00706961
0.0104608
0.00822976
0.00842988
0.0113387
0.00486196
0.00576112
0.00828206
0.00636897
0.0119735
0.00519665
0.00666793
0.00484596
0.00791829
0.00505973
0.0118875
0.0054136
0.0111061
0.00429899
0.0117171
0.00705664
0.00664035
0.00816006
0.0116445
0.00653338
0.00424864
0.00677604
0.0060015
0.00634195
0.00465501
0.00849582
0.00850963
0.00832986
0.00635556
0.00599132
0.00595059
0.00988513
0.00734216
0.00816306
0.00637078
0.00576751
0.00471876
0.00464707
0.0047172
0.0106957
0.00835964
0.0100894
0.00510485
0.0086133
0.0078651
0.011231
0.0060683
0.0115471
0.00760439
0.0116251
0.00762858
0.00869226
0.00632006
0.00604056
0.00843843
0.0079444
0.00645269
0.00834376
0.00735725
0.00545174
0.00948137
0.00780439
0.0111929
0.00573871
0.00755689
0.00851264
0.00496438
0.00721838
0.00811764
0.0053492
0.00676136
0.00852746
0.00522824
0.00843953
0.00857334
0.00499505
0.00719816
0.00824448
0.0108473
0.00494135
0.00640169
0.00624323
0.0114344
0.00580384
0.00853982
0.0108474
0.00810121
0.0118045
0.00479006
0.00455016
0.00834942
0.0113796
0.00812211
0.0056904
0.00668648
0.0048122
0.00781687
0.00811607
0.00732536
0.00935404
0.00495796
0.0085908
0.00568047
0.011591
0.00575581
0.00480631
0.0113559
0.00818086
0.00616003
0.00492005
0.0103214
0.00718893
0.00669388
0.00848316
0.00780014
0.00797672
0.00513909
0.00519256
0.00710058
0.00626986
0.00606393
0.00806563
0.00471826
0.00719803
0.00593352
0.0073361
0.0046916
0.00494794
0.00521578
0.00500313
0.00858245
0.00647499
0.0088704
0.00598415
0.00922703
0.0141264
0.00642172
0.00622604
0.00657365
0.00845271
0.00730999
0.00552963
0.00478924
0.00478475
0.0121839
0.0117536
0.0113155
0.00618153
0.0103862
0.00719884
0.00811146
0.00561166
0.00850523
0.0105028
0.00858746
0.00583389
0.00791691
0.00540404
0.00802306
0.00826536
0.00816764
0.005486
0.00706915
0.0119478
0.00559826
0.00605883
0.00555228
0.00827113
0.00675265
0.00831879
0.00464182
0.00469015
0.0052621
0.00702642
0.00749357
0.0068264
0.00855837
0.00483052
0.00824474
0.00629878
0.0061357
0.00413714
0.00649734
0.00746765
0.00579843
0.00573756
0.0103308
0.00667831
0.00699857
0.00798244
0.00459313
0.00505912
0.00531936
0.00476961
0.00692061
0.00469438
0.00520541
0.00786218
0.00497744
0.00775598
0.0111971
0.0101451
0.0058051
0.00446798
0.00673516
0.00567096
0.00483709
0.0108541
0.00635574
0.00538893
0.00684419
0.0045479
0.00861609
0.0061409
0.00698611
0.0055331
0.0056887
0.0050172
0.0110793
0.0051562
0.00809658
0.00481546
0.00828108
0.00629362
0.00659118
0.00737289
0.00800563
0.0106823
0.00534979
0.0124361
0.00711318
0.00786128
0.00491853
0.00734564
0.0048137
0.00522818
0.0105763
0.00494013
0.00505634
0.00846648
0.0113201
0.00770899
0.00548007
0.00494981
0.00579685
0.00812569
0.00803523
0.0104522
0.00729983
0.00528196
0.00642748
0.0053379
0.00777555
0.0112446
0.00847422
0.00816124
0.00789391
0.00488836
0.00802638
0.00511591
0.00644071
0.0112881
0.0046252
0.00687764
0.00487412
0.0080282
0.00504119
0.00587902
0.00863805
0.00827174
0.0109249
0.0053428
0.00801781
0.008271
0.00620888
0.0122495
0.00765234
0.00871133
0.0086951
0.00746858
0.00634398
0.00765748
0.0119532
0.00552033
0.00721617
0.00598571
0.00677179
0.00545032
0.0081956
0.00649345
0.00792587
0.0086824
0.00582039
0.00683958
0.00781658
0.00760699
0.00509416
0.0066713
0.00716961
0.00765086
0.0080918
0.00827219
0.00855844
0.00617053
0.0109263
0.00586979
0.00786371
0.00713362
0.0113479
0.0078087
0.00613058
0.00559085
0.00614523
0.00758099
0.0105055
0.00639645
0.00544278
0.00817533
0.00487433
0.0108146
0.00490888
0.0082489
0.00494875
0.00744394
0.00592895
0.00736773
0.00818966
0.00747106
0.00769573
0.00823284
0.00732499
0.00813879
0.0061743
0.00986054
0.0121739
0.00617553
0.0124022
0.00470252
0.00506383
0.00463259
0.00844517
0.00547668
0.0082871
0.00837513
0.00594553
0.00469025
0.00715927
0.00550657
0.00842379
0.0048779
0.00509148
0.00785008
0.00593326
0.00496056
0.00475391
0.00673048
0.0117008
0.0109252
0.00810322
0.00554334
0.00794795
0.00523487
0.0134129
0.00865738
0.00559351
0.00840784
0.0076325
0.00827167
0.00665124
0.00770367
0.00867025
0.0096393
0.008544
0.00529361
0.0111142
0.00681121
0.00736436
0.0115541
0.005285
0.00814518
0.00854478
0.00679002
0.00800479
0.00651317
0.0080259
0.00503203
0.00483804
0.00813425
0.00690238
0.0116247
0.00824923
0.00522138
0.00779668
0.00524255
0.0113093
0.0112557
0.00639332
0.0098573
0.00675797
0.00756452
0.00826701
0.00791377
0.00593313
0.00797019
0.00558936
0.00698801
0.00616267
0.00573963
0.0112075
0.00800077
0.0116941
0.00697177
0.00812688
0.00755901
0.0076644
0.00858471
0.00679057
0.00493502
0.00462361
0.00496865
0.00775256
0.00769682
0.00612663
0.00828601
0.00785844
0.00745589
0.00815392
0.00577577
0.0117458
0.00492586
0.00778351
0.00738197
0.00636414
0.00954582
0.0105513
0.00444288
0.00658724
0.0114525
0.00692026
0.010715
0.00607594
0.00792161
0.00750897
0.0084644
0.00766276
0.00468518
0.00606574
0.00841214
0.00744675
0.00747508
0.00795377
0.00772811
0.00636036
0.00504312
0.00855918
0.00790109
0.0076255
0.00735462
0.00859595
0.0111351
0.00745048
0.00489516
0.00848451
0.00641545
0.00744408
0.00803675
0.00566227
0.00504589
0.00586653
0.00478153
0.00596171
0.00578131
0.0113156
0.0069098
0.00585287
0.00608071
0.00545917
0.0110059
0.00711397
0.00811931
0.0119536
0.00496829
0.00543747
0.00758261
0.0106212
0.0123533
0.00937093
0.00621911
0.00554159
0.0116006
0.0108199
0.0131128
0.00472579
0.0077266
0.00688903
0.00747154
0.00592408
0.0113449
0.00689155
0.00555858
0.0112881
0.0115535
0.0107394
0.0055154
0.0102391
0.00721404
0.0069556
0.00845378
0.00664043
0.00734686
0.00431652
0.00704443
0.00846416
0.00651956
0.00720449
0.00814518
0.00621695
0.00490843
0.00672374
0.00754769
0.011351
0.00531809
0.00488458
0.00506549
0.00474278
0.00802915
0.00566657
0.0078129
0.0121145
0.00450558
0.00858845
0.0083793
0.0073825
0.00711183
0.00441159
0.00628934
0.0045597
0.00777905
0.00721818
0.00748897
0.0080443
0.0071706
0.00720712
0.00771002
0.00549626
0.00541591
0.00674488
0.00498484
0.00541487
0.00643859
0.006108
0.00840317
0.00436897
0.00611386
0.0114384
0.00748828
0.0126753
0.00432803
0.00535152
0.00511373
0.00574877
0.00624877
0.00706572
0.00572479
0.0107833
0.0052394
0.00813088
0.00796853
0.0108714
0.00708751
0.00679026
0.0108727
0.00757761
0.00811579
0.00842907
0.0105471
0.00818973
0.00591942
0.00851461
0.00831793
0.00657764
0.00469757
0.006984
0.00599547
0.00490765
0.00791359
0.00831015
0.00619526
0.00638302
0.00531041
0.00665953
0.0079595
0.00555614
0.00551605
0.00651193
0.00776892
0.00728988
0.00813566
0.0115265
0.00812268
0.0110016
0.00668651
0.00687944
0.00758449
0.00750124
0.00598507
0.0116759
0.0063632
0.00859914
0.00816269
0.00610032
0.00766964
0.00890093
0.00520327
0.00743628
0.00790922
0.00503703
0.0111269
0.00559301
0.00466758
0.00749902
0.00811558
0.00798393
0.00788278
0.00675708
0.00646792
0.00450976
0.00800968
0.00797844
0.00663475
0.00538922
0.0105161
0.0110381
0.00484599
0.00473354
0.00804947
0.0082217
0.0109153
0.00520241
0.0060133
0.00606204
0.00502243
0.00736024
0.00637026
0.00623749
0.00829298
0.00466964
0.00568356
0.00730576
0.00522959
0.0064365
0.0112952
0.00537178
0.00687937
0.00612957
0.00712099
0.00828263
0.00883468
0.00771026
0.00515037
0.00767469
0.0045487
0.00793314
0.00512228
0.00502078
0.00511034
0.0112616
0.00496203
0.00762301
0.00828282
0.00641864
0.0103378
0.00812932
0.00726048
0.00800175
0.00583634
0.00509537
0.0109397
0.00585424
0.00775495
0.00473695
0.00702904
0.00717312
0.00799535
0.00688178
0.00718524
0.00838735
0.00748425
0.00752007
0.00745398
0.00814834
0.00547604
0.00845261
0.00822167
0.00619985
0.00667936
0.00770327
0.00799406
0.0107439
0.00643034
0.011779
0.00837318
0.0110229
0.00747815
0.00541157
0.0058471
0.00648958
0.00490861
0.00969038
0.00789525
0.0108435
0.00993764
0.00673626
0.00636182
0.00467308
0.00568967
0.00723074
0.0113209
0.00590016
0.00814208
0.0080456
0.00783014
0.00567777
0.00681734
0.00487614
0.00584391
0.00824148
0.0103905
0.00622453
0.00742019
0.0083714
0.00688514
0.00813091
0.00802465
0.00518316
0.00841394
0.00660518
0.00813736
0.00547825
0.00541522
0.00817295
0.00517785
0.0073978
0.00681255
0.00756479
0.00713728
0.00838668
0.00666619
0.0082742
0.00759535
0.00839267
0.00549983
0.00531511
0.0084358
0.0126203
0.00755992
0.00814695
0.0047908
0.00544174
0.00755798
0.00472145
0.00779116
0.00748905
0.00501638
0.00585497
0.00607599
0.00558801
0.00783133
0.00780257
0.011829
0.00599138
0.00775155
0.00837375
0.00613268
0.00644292
0.00680403
0.00685046
0.0048587
0.00808094
0.00830251
0.00850312
0.00867799
0.00879352
0.0122689
0.0114949
0.00537891
0.00759478
0.00830923
0.00822716
0.00501449
0.00718288
0.00795257
0.0112935
0.00867013
0.00771972
0.00784689
0.00843402
0.00613373
0.00683924
0.00492879
0.00760195
0.00713569
0.00656212
0.00515259
0.00696327
0.00467466
0.00530489
0.00477908
0.00841272
0.0046411
0.00561836
0.00804088
0.00571451
0.00794096
0.00788233
0.00845484
0.00613433
0.00849351
0.0046277
0.00810919
0.00817806
0.00617802
0.00741573
0.00854136
0.00835188
0.00764063
0.0057693
0.0080078
0.00725964
0.00771302
0.00654399
0.00509648
0.00706858
0.00580067
0.00479702
0.00619536
0.00822898
0.0052554
0.00807514
0.00623379
0.0048656
0.00515187
0.0109634
0.0053734
0.0108617
0.00508254
0.00668676
0.00650499
0.00788342
0.00705565
0.00827405
0.00819395
0.00756953
0.00422518
0.00655574
0.00558158
0.00772672
0.0079251
0.00560793
0.00713116
0.005176
0.00752598
0.00524837
0.00747578
0.00775984
0.00812058
0.00854403
0.00819988
0.00601058
0.00578459
0.00562804
0.00849269
0.00846962
0.00842884
0.00684282
0.00522526
0.00478851
0.00483947
0.00775158
0.00681435
0.00808065
0.0058406
0.00823495
0.00625072
0.00738429
0.00564169
0.0105832
0.0046564
0.0073544
0.012587
0.0115575
0.00690418
0.00496723
0.00808873
0.00595111
0.00840308
0.00912631
0.0049922
0.00533239
0.00725946
0.00759871
0.0115564
0.00594574
0.00759088
0.00765883
0.00655686
0.00567841
0.00789397
0.00735441
0.00778431
0.00619412
0.0112147
0.00482212
0.00613338
0.00691888
0.00870815
0.00499281
0.00660196
0.00513001
0.00439637
0.010678
0.00550016
0.00519376
0.00808883
0.00624061
0.00708504
0.0063695
0.00739123
0.00570362
0.00831893
0.00609648
0.00604558
0.00667449
0.0077658
0.00635861
0.00689694
0.00759254
0.00726695
0.00631309
0.00828464
0.00648275
0.00860364
0.00949523
0.00524471
0.00935903
0.00607209
0.0055083
0.00774601
0.0068939
0.00744591
0.0109261
0.0109566
0.0085729
0.00778484
0.00786253
0.00545104
0.00817383
0.00542573
0.00624954
0.00759789
0.00837947
0.00747462
0.011275
0.00602343
0.00458704
0.00474261
0.00711005
0.010595
0.00799557
0.00609785
0.0107885
0.00836512
0.0081112
0.00560092
0.00519873
0.00855621
0.00854879
0.00761186
0.00804507
0.0107341
0.0082482
0.00658237
0.0056063
0.0108769
0.00524523
0.00478484
0.0106088
0.00476688
0.00976651
0.00544468
0.00639727
0.00837902
0.00742186
0.0128298
0.00481435
0.0083301
0.00820913
0.007064
0.00548377
0.00751512
0.00490512
0.0048933
0.00936517
0.00669823
0.0048415
0.00857719
0.00825679
0.00602181
0.0115091
0.00770868
0.00739428
0.00822995
0.00549039
0.00643079
0.0120017
0.0109325
0.00774879
0.00815613
0.00884419
0.00486621
0.011654
0.00778388
0.00702232
0.00596225
0.00804708
0.00836198
0.00645246
0.00744015
0.00836008
0.00582726
0.00632671
0.00741859
0.00502803
0.00516595
0.00735849
0.00827038
0.00811387
0.0120164
0.00701827
0.00513021
0.00603427
0.00964164
0.0082094
0.00796818
0.00485143
0.00720403
0.012302
0.00498385
0.00569705
0.0116156
0.00713049
0.00746228
0.00659668
0.00719708
0.00795453
0.00738351
0.00827351
0.00582694
0.0110199
0.00774504
0.00760251
0.00574888
0.00658342
0.00765743
0.00763545
0.00806676
0.00632855
0.0105376
0.00775615
0.00658672
0.00619327
0.0075681
0.00617446
0.00599148
0.00645719
0.00567384
0.00692227
0.0087299
0.00456541
0.00731971
0.00594925
0.0081718
0.00712964
0.00765979
0.0070703
0.00726078
0.00880477
0.00484859
0.0064666
0.00668757
0.0113976
0.00465773
0.00763006
0.00792193
0.00703415
0.00657279
0.00512865
0.0085356
0.00618482
0.00776763
0.00489202
0.0111854
0.0119836
0.00553868
0.00488792
0.0070791
0.00726372
0.0080079
0.00744242
0.00828315
0.00761032
0.00709857
0.00804489
0.00528905
0.007435
0.00747324
0.0048929
0.00776655
0.00457656
0.0102767
0.00523559
0.00644843
0.00599569
0.00517387
0.00573349
0.00490184
0.00799575
0.00627666
0.00735063
0.0067571
0.00493619
0.00792071
0.00774314
0.0045067
0.0117973
0.00637703
0.00834419
0.00532606
0.00692399
0.00626769
0.00592959
0.0043321
0.00778882
0.0111735
0.0121819
0.00828482
0.0079285
0.00707143
0.00756489
0.00768426
0.00848166
0.00444568
0.00793736
0.00549645
0.0055173
0.00488317
0.00844544
0.00765709
0.0120834
0.00749859
0.00798178
0.012028
0.00671983
0.00532065
0.00757072
0.00755987
0.00803248
0.00512127
0.00466905
0.00691323
0.0073926
0.00643932
0.00678218
0.00949051
0.00571827
0.00686398
0.00542369
0.00835992
0.00448834
0.00482287
0.00693804
0.00744951
0.00727303
0.00499749
0.00484119
0.00538231
0.00532342
0.0063228
0.00512642
0.00491375
0.00847001
0.00646529
0.00603139
0.0066925
0.00804378
0.0061208
0.00789122
0.00791459
0.00517492
0.00580053
0.00680211
0.00686179
0.00439932
0.00842414
0.00801872
0.0060189
0.0108367
0.00462569
0.00717201
0.00791073
0.00553498
0.00769437
0.00500463
0.00518286
0.00507342
0.00503851
0.0063927
0.00715297
0.0118265
0.00615359
0.00720891
0.00759083
0.00493948
0.00666295
0.00713784
0.0127349
0.00850298
0.00767533
0.00601505
0.0078804
0.00745719
0.00573376
0.00485994
0.00492709
0.00752475
0.0105881
0.00780254
0.00750874
0.0102774
0.00760531
0.0062229
0.00648845
0.00657741
0.00448997
0.00579981
0.0058242
0.00636589
0.0113378
0.00677429
0.00482804
0.00800414
0.0073791
0.00578688
0.00466743
0.0107475
0.0085292
0.00450537
0.00600542
0.0054661
0.00641777
0.00570039
0.00812313
0.00899599
0.00510842
0.010614
0.00669706
0.00616262
0.010583
0.00660351
0.00692105
0.00585271
0.00652919
0.00816376
0.00863741
0.00860942
0.0058518
0.00715439
0.00575628
0.0062947
0.00664293
0.0044996
0.00550559
0.00577734
0.00498465
0.00842647
0.00461356
0.00801259
0.00699512
0.00533084
0.0076982
0.0134444
0.00557473
0.00520148
0.00706134
0.00912325
0.00473278
0.0124203
0.00517053
0.00523232
0.00792899
0.00757247
0.00438185
0.00696648
0.00866361
0.00827951
0.00748753
0.00474917
0.0084841
0.00581269
0.00709216
0.00616313
0.00576771
0.00765698
0.00577767
0.00771479
0.00746467
0.00553769
0.00588133
0.00521306
0.0112826
0.00726082
0.0122747
0.00754629
0.00504233
0.00714058
0.00598279
0.00952501
0.00777557
0.00734101
0.00483711
0.00560562
0.00499365
0.00829201
0.0067225
0.0047714
0.00590827
0.00475831
0.00846785
0.0065662
0.0106168
0.00616397
0.00851576
0.00490702
0.0112446
0.00678611
0.00661158
0.00600214
0.00443623
0.005636
0.00667249
0.00452009
0.00649148
0.00738215
0.0082808
0.0116489
0.00714006
0.00934407
0.00770085
0.00479225
0.00693547
0.00767369
0.0065811
0.00781068
0.0075627
0.00808546
0.00529093
0.0115577
0.0111862
0.00675664
0.0111312
0.00718513
0.00810127
0.0078752
0.00612995
0.00562887
0.00793463
0.00913194
0.00649665
0.00629885
0.00643421
0.0082852
0.00711805
0.00420872
0.00613911
0.00548634
0.00765199
0.00870306
0.00690367
0.00638472
0.00723505
0.00534708
0.00564346
0.00753547
0.00739389
0.00418713
0.00523209
0.00637249
0.00824409
0.00762627
0.00459699
0.00437029
0.00632252
0.00689414
0.00756774
0.00796431
0.00821702
0.00477638
0.00541114
0.0082296
0.0113434
0.00823595
0.00583359
0.00695202
0.0084622
0.00811305
0.00769446
0.00843395
0.00480277
0.00839578
0.00812444
0.00838826
0.00795314
0.00771866
0.00584199
0.00476822
0.00845072
0.0106211
0.00530034
0.0113956
0.00584924
0.00860614
0.00539204