/*--------------------------------*- C++ -*----------------------------------*\
| =========                 |                                                 |
| \\      /  F ield         | OpenFOAM: The Open Source CFD Toolbox           |
|  \\    /   O peration     | Version:  2406                                  |
|   \\  /    A nd           | Website:  www.openfoam.com                      |
|    \\/     M anipulation  |                                                 |
\*---------------------------------------------------------------------------*/
FoamFile
{
    version     2.0;
    format      ascii;
    arch        "LSB;label=32;scalar=64";
    class       volVectorField;
    location    "16";
    object      momentum:momentum;
}
// * * * * * * * * * * * * * * * * * * * * * * * * * * * * * * * * * * * * * //

dimensions      [1 1 -1 0 0 0 0];

internalField   nonuniform List<vector> 
59516
(
(2.60179e-07 3.22638e-09 -2.12331e-09)
(1.99707e-07 2.57881e-09 2.23537e-09)
(2.31251e-07 -4.59078e-09 1.7312e-09)
(1.82091e-07 5.38787e-09 8.51102e-10)
(2.01754e-07 7.91135e-10 -5.87746e-09)
(5.04131e-08 -2.4542e-09 -5.37401e-09)
(2.23035e-07 -2.17611e-09 -3.27973e-09)
(2.32151e-07 -6.25414e-10 -2.69387e-09)
(1.80436e-07 9.93892e-10 -1.63031e-09)
(1.15431e-07 -1.74663e-09 6.4627e-09)
(1.80878e-07 6.63495e-10 -3.27302e-10)
(1.2572e-07 -1.73622e-09 -1.98147e-09)
(3.64287e-07 6.1761e-09 3.72469e-09)
(2.318e-08 -6.96486e-11 -6.49154e-11)
(2.03371e-07 9.27409e-09 7.10231e-09)
(1.17284e-07 6.55715e-09 -6.20427e-09)
(2.22892e-07 -8.83145e-10 -2.02729e-10)
(1.66471e-07 8.72795e-09 -1.86466e-09)
(3.47706e-07 1.02921e-08 6.37709e-09)
(3.17186e-07 -3.08966e-09 7.39243e-10)
(1.15927e-07 1.17057e-09 1.15964e-09)
(3.06111e-07 -1.002e-09 -2.14018e-10)
(3.21908e-07 -1.30375e-09 1.25134e-09)
(5.16902e-08 -1.13871e-09 -5.32153e-10)
(2.92395e-07 -2.95988e-09 4.08603e-09)
(2.74956e-07 9.38919e-10 6.17976e-09)
(7.73702e-08 1.61371e-09 -1.938e-09)
(8.14306e-08 7.34529e-09 5.26403e-11)
(1.68801e-07 3.42446e-09 3.79149e-09)
(1.99674e-08 -3.40661e-09 1.05694e-09)
(1.90205e-07 -3.40518e-08 -6.92957e-09)
(9.26065e-08 9.33219e-09 3.07465e-10)
(1.80785e-07 -8.38749e-11 -3.10003e-10)
(2.03114e-07 -1.58715e-09 6.32398e-09)
(1.26478e-07 1.41351e-09 4.92425e-10)
(3.94354e-07 -2.59837e-09 -1.08773e-09)
(2.09536e-08 -1.48363e-09 -2.4713e-09)
(1.40837e-07 3.12693e-09 -9.71677e-09)
(2.99808e-07 -6.42992e-09 -4.63713e-09)
(2.54745e-07 -7.83101e-09 5.96623e-09)
(3.09212e-07 -2.7379e-09 5.46807e-09)
(3.87784e-07 -7.06724e-09 -7.01849e-09)
(3.2209e-07 -8.20446e-11 2.79513e-10)
(1.36929e-07 -2.00207e-09 6.34455e-10)
(2.60672e-07 -1.3299e-09 -1.47077e-09)
(1.462e-07 -3.77686e-09 -4.538e-09)
(3.2581e-07 -5.38869e-10 5.2291e-09)
(2.17954e-07 5.44522e-10 -6.86253e-10)
(2.52976e-07 -1.56304e-08 2.50005e-08)
(2.14039e-07 1.83526e-09 1.24348e-09)
(1.64244e-07 1.4836e-08 -2.13518e-08)
(1.16899e-07 -5.97549e-09 3.70922e-09)
(3.61332e-07 3.71471e-09 -6.04887e-09)
(3.23174e-07 -5.05052e-10 -2.19596e-09)
(1.0648e-07 5.04155e-09 -1.13118e-09)
(2.50601e-07 1.9606e-09 -2.45474e-09)
(1.84589e-07 4.65686e-09 4.6767e-09)
(1.21199e-07 6.27812e-09 -4.80596e-09)
(1.69129e-07 -3.90876e-09 4.09472e-10)
(1.3984e-07 2.94706e-09 1.85551e-09)
(2.00757e-07 -9.71205e-10 1.44386e-09)
(2.24612e-08 1.75826e-09 -1.0818e-09)
(2.19773e-07 -5.57308e-09 -7.62438e-10)
(2.80364e-07 1.62757e-10 -2.2796e-09)
(3.32542e-07 5.69203e-09 1.24995e-09)
(1.95074e-07 1.26476e-09 6.41529e-11)
(2.86921e-08 -1.57577e-09 2.49233e-09)
(9.5102e-08 1.03473e-09 -4.68292e-10)
(1.98194e-07 -4.91592e-09 3.1089e-08)
(1.65331e-07 1.86412e-09 3.26722e-09)
(7.41455e-08 1.05231e-09 -1.1028e-10)
(1.32878e-07 1.04624e-09 -1.28232e-09)
(3.67023e-08 2.81049e-09 -5.23083e-09)
(1.77143e-07 1.64676e-10 -2.09948e-09)
(2.93804e-07 -3.34214e-09 9.25391e-10)
(3.21523e-07 1.08033e-09 1.72782e-09)
(1.82372e-07 1.19223e-09 -2.95923e-10)
(2.17845e-07 3.03753e-09 -1.57261e-09)
(1.17089e-07 -2.98952e-09 3.03399e-09)
(1.68629e-07 7.59308e-10 9.4183e-11)
(8.20066e-08 2.34269e-09 1.03864e-10)
(1.54592e-07 1.76739e-09 4.11207e-10)
(1.71013e-07 -2.08493e-10 5.32476e-10)
(2.83566e-08 -1.14934e-09 4.2029e-09)
(1.93761e-07 1.21332e-09 1.07425e-10)
(3.01866e-07 -2.87618e-09 -6.06424e-10)
(4.64924e-08 -2.3833e-09 5.02535e-10)
(4.72364e-07 -4.28747e-09 2.88197e-09)
(1.55135e-07 3.98808e-09 4.94904e-09)
(1.70184e-07 8.73914e-09 -4.2901e-09)
(1.79196e-07 -2.01824e-10 -8.75778e-09)
(1.80283e-07 -1.7175e-09 -1.56954e-10)
(2.08659e-07 6.98647e-10 1.60705e-09)
(1.74418e-07 -1.62452e-09 -1.10474e-09)
(1.52233e-07 -2.97394e-09 -5.00208e-11)
(1.85366e-07 -1.35198e-08 6.4302e-09)
(1.22023e-07 -4.08254e-10 2.38916e-09)
(1.11779e-07 -3.56123e-09 -6.79448e-09)
(1.30141e-07 3.10344e-09 1.36006e-09)
(1.95969e-07 9.47334e-10 2.3328e-09)
(9.44155e-08 3.99682e-09 3.1881e-09)
(4.12281e-08 2.26513e-09 -4.90727e-09)
(3.35752e-08 2.14684e-09 4.69225e-09)
(1.17021e-07 -3.33552e-09 -3.41335e-09)
(2.44546e-07 4.45306e-10 -5.26202e-10)
(1.50345e-07 2.54476e-10 9.23599e-10)
(8.36463e-08 6.3671e-09 -1.81394e-09)
(1.61763e-07 7.41299e-10 -1.25837e-09)
(2.08391e-07 -5.02425e-10 -4.67485e-09)
(2.46307e-07 1.67211e-09 -1.2474e-08)
(2.81556e-07 2.10492e-08 -2.09039e-08)
(6.94159e-08 6.60734e-09 -5.12138e-11)
(2.42517e-07 3.59444e-10 -9.32544e-09)
(2.19571e-07 2.53233e-08 -1.19869e-08)
(1.93622e-07 -1.18776e-09 3.28813e-09)
(1.6305e-07 8.73987e-10 -1.3334e-09)
(1.7894e-07 2.03204e-09 -8.4443e-09)
(1.43377e-07 7.07518e-11 4.53575e-10)
(2.51288e-08 1.1557e-09 1.23766e-09)
(2.53705e-07 3.97884e-09 5.46076e-11)
(3.15237e-07 1.87412e-09 -4.02651e-10)
(1.46906e-07 1.87654e-09 7.79765e-11)
(1.47154e-07 2.67309e-10 -6.39438e-10)
(1.51323e-07 7.38482e-10 2.90358e-10)
(1.32896e-07 -1.0215e-08 1.36208e-09)
(1.58288e-07 1.36848e-09 2.50282e-09)
(4.85321e-08 -1.19302e-09 4.47457e-09)
(2.09325e-07 -8.17931e-09 -1.92618e-09)
(1.65026e-07 -3.21372e-09 2.3658e-08)
(1.22969e-07 4.65086e-11 1.72609e-09)
(2.16382e-07 2.96319e-10 3.76703e-09)
(3.77495e-07 2.52868e-09 9.90843e-09)
(3.19912e-08 6.90398e-10 -2.63688e-09)
(2.41046e-07 -1.42205e-09 1.94986e-09)
(3.58256e-07 1.66799e-09 2.72056e-09)
(2.2273e-07 -2.94917e-09 -1.6418e-09)
(1.53333e-07 1.52749e-08 -9.4697e-09)
(3.28378e-07 -3.33475e-09 6.21536e-10)
(7.84208e-08 5.46537e-09 -1.45462e-10)
(1.83046e-07 4.1282e-09 -3.22877e-09)
(1.14074e-07 -1.8401e-09 -5.65276e-09)
(2.58944e-07 1.01418e-09 -2.34194e-09)
(1.96272e-08 1.15653e-09 2.13609e-09)
(1.61556e-07 -1.03043e-09 -1.88582e-09)
(1.66355e-07 7.18326e-10 5.17353e-10)
(2.67734e-07 4.33254e-09 2.58116e-10)
(2.01511e-07 -1.195e-09 8.49284e-11)
(2.20514e-07 9.53821e-10 -1.47557e-09)
(6.45593e-08 -1.23367e-09 2.02772e-09)
(2.3197e-07 1.5847e-09 -3.56006e-09)
(3.60589e-07 -1.63398e-09 -2.93208e-09)
(8.22897e-08 -3.99515e-09 8.68471e-12)
(3.29828e-07 -3.91335e-10 1.37948e-09)
(2.04456e-07 1.50358e-09 2.8451e-09)
(1.83239e-07 -3.20222e-09 1.99569e-09)
(2.19849e-08 -1.31604e-09 2.60339e-09)
(3.23909e-07 1.29483e-09 -3.7262e-09)
(3.5452e-07 1.01569e-09 -2.17283e-09)
(1.49653e-07 1.97777e-09 -2.31512e-10)
(2.26679e-08 1.92288e-09 -3.79117e-09)
(1.0851e-07 3.82878e-09 -3.62725e-09)
(1.35771e-07 -6.88728e-09 -1.82022e-09)
(5.74376e-08 -5.13678e-09 6.94104e-10)
(3.44938e-08 -3.97658e-10 -6.87841e-10)
(1.95173e-07 1.32613e-10 1.74231e-09)
(2.77185e-07 1.46188e-10 2.69278e-09)
(2.20023e-07 -2.41705e-10 2.71351e-09)
(2.20208e-07 7.97684e-10 1.21238e-09)
(2.25825e-08 -7.4382e-10 3.38519e-09)
(2.06664e-07 4.67875e-10 2.7627e-09)
(1.03714e-07 2.02567e-09 5.64268e-10)
(8.77865e-08 1.33046e-09 -1.32554e-10)
(1.39082e-07 6.29225e-09 2.18859e-09)
(1.48415e-07 -1.09975e-09 9.73178e-10)
(1.15095e-07 -2.54946e-09 2.63031e-10)
(4.46882e-07 1.85987e-09 3.98069e-09)
(2.04774e-07 1.22993e-10 -1.32422e-09)
(2.92917e-07 4.45737e-10 -1.15035e-09)
(1.9923e-07 -6.5189e-09 1.33628e-08)
(8.50443e-08 -1.61769e-09 1.963e-09)
(2.92889e-07 4.26271e-09 3.44219e-09)
(6.26273e-08 -4.92393e-09 -1.31422e-09)
(4.41668e-08 -2.63698e-10 -2.62473e-09)
(1.3693e-07 -3.49434e-09 -2.23139e-09)
(1.60879e-07 6.52017e-10 2.63059e-09)
(1.3487e-07 4.7097e-10 1.26599e-09)
(6.57768e-08 -1.26528e-09 -3.69061e-09)
(3.19805e-08 -1.12164e-09 8.11914e-10)
(2.02349e-07 1.12392e-09 2.51993e-09)
(2.65792e-07 1.24146e-09 1.70444e-09)
(1.61707e-07 -1.05409e-09 3.78255e-09)
(1.62052e-07 6.06597e-09 2.49787e-09)
(1.83341e-07 -2.53151e-10 -3.16423e-10)
(1.25191e-07 5.50028e-09 -2.56859e-09)
(3.07858e-07 -3.62297e-09 -1.76306e-09)
(4.12963e-08 -2.75462e-10 1.22281e-09)
(1.30645e-07 2.20334e-09 -1.84374e-09)
(8.39802e-08 -1.01976e-09 -1.1763e-10)
(2.14918e-07 5.61975e-09 3.41666e-09)
(2.40419e-07 -2.73271e-09 4.07009e-09)
(1.02307e-07 -1.64403e-09 5.69264e-10)
(1.49505e-07 1.00272e-09 -1.63363e-09)
(3.64517e-07 6.97713e-10 4.5461e-10)
(2.28585e-08 3.39276e-09 -1.19128e-09)
(2.41872e-07 -4.13037e-09 -1.30334e-09)
(2.34602e-07 1.87821e-10 -1.34821e-09)
(2.69512e-07 -7.71665e-10 4.6188e-10)
(1.75469e-07 2.71208e-09 2.68601e-10)
(2.61251e-08 -4.17825e-10 2.67795e-10)
(3.37084e-07 -3.89882e-09 1.33521e-10)
(8.86565e-08 4.90404e-09 2.60452e-09)
(2.97785e-08 -5.92064e-09 -7.8486e-10)
(2.27667e-07 4.35524e-10 -9.98881e-10)
(1.29453e-07 -2.02856e-09 4.15673e-09)
(3.28414e-07 4.97596e-11 -3.70765e-09)
(2.43397e-07 -2.88302e-09 1.05994e-09)
(2.57652e-07 3.24914e-09 9.75779e-10)
(1.92837e-07 -4.5712e-10 5.24898e-10)
(1.12604e-07 4.58967e-09 -2.30851e-09)
(1.99271e-07 -1.82596e-09 -1.48704e-09)
(1.60823e-07 1.02105e-08 3.87894e-09)
(2.08357e-07 5.01718e-09 9.72121e-10)
(1.50882e-07 1.15506e-09 1.98513e-09)
(1.11201e-07 2.38218e-09 3.6819e-09)
(2.4193e-07 -2.80743e-09 2.42632e-09)
(2.57073e-07 1.13586e-09 -1.64019e-09)
(4.52099e-08 -7.73633e-10 3.4071e-09)
(9.038e-08 3.42615e-09 -3.43734e-09)
(1.61716e-07 -2.87393e-09 2.72234e-09)
(1.69069e-07 8.19019e-10 -8.03197e-09)
(2.02048e-07 -2.78471e-09 -3.6439e-10)
(1.48151e-07 1.97257e-09 -1.55885e-09)
(2.42916e-07 -4.70816e-10 4.4798e-09)
(3.92924e-08 -3.48393e-09 -1.94744e-09)
(4.6091e-08 2.36026e-09 -2.57096e-09)
(5.43091e-08 3.55807e-09 -2.43675e-09)
(1.41293e-07 7.24944e-10 3.08296e-09)
(2.116e-07 -5.18486e-09 3.49619e-09)
(3.7001e-07 -1.67035e-09 8.09199e-09)
(1.25215e-07 -3.66087e-10 1.66053e-09)
(1.90623e-07 3.35921e-10 3.16382e-09)
(2.71811e-08 1.88007e-09 3.64378e-09)
(1.49165e-07 -2.87667e-09 -3.00913e-09)
(4.10343e-08 8.84166e-10 4.16129e-09)
(1.25954e-07 -1.18044e-10 1.88945e-09)
(1.83333e-07 -1.61217e-09 -1.03649e-09)
(1.82927e-07 -1.25062e-09 7.37736e-10)
(2.4889e-07 -5.14188e-09 -1.25105e-09)
(2.37533e-07 -1.40816e-09 1.26628e-09)
(2.23387e-07 -2.09514e-10 5.38331e-10)
(3.35888e-07 -7.22929e-09 9.57208e-09)
(2.06349e-07 -2.4478e-09 3.30234e-09)
(1.44513e-07 2.00673e-10 2.34441e-09)
(2.70003e-07 3.01772e-09 -2.44325e-10)
(2.61215e-07 -1.03166e-09 -2.11915e-11)
(2.63983e-07 -5.75958e-10 6.95055e-10)
(1.52767e-07 8.41345e-10 3.69326e-10)
(2.56148e-07 -1.49731e-09 5.30233e-09)
(1.15091e-07 -1.46669e-09 -7.2268e-09)
(1.24323e-07 4.06607e-09 1.95676e-09)
(2.30973e-07 3.05799e-10 1.40962e-09)
(2.25992e-07 -5.07872e-09 -1.32423e-10)
(2.61548e-07 -4.10293e-10 4.25018e-09)
(2.29885e-07 -4.53357e-09 2.14186e-09)
(8.59928e-08 1.19734e-10 1.45515e-09)
(1.51982e-07 4.93132e-09 -1.12057e-09)
(2.74382e-07 6.15832e-09 -2.64638e-09)
(2.73347e-07 -7.64984e-10 1.31505e-09)
(8.26088e-08 -1.51938e-09 -5.76601e-09)
(1.0249e-07 -8.76575e-10 -2.9303e-09)
(1.91581e-07 3.9514e-09 -4.38853e-09)
(1.5314e-07 -1.10875e-09 -9.54785e-10)
(3.84806e-07 -1.87813e-09 -7.76955e-10)
(1.87295e-07 2.62342e-10 4.27e-09)
(2.84232e-07 -6.36566e-09 -9.60112e-12)
(2.29279e-07 9.02299e-10 4.60639e-09)
(2.77374e-08 3.60678e-09 -2.56743e-09)
(2.63786e-07 -5.14984e-09 8.1654e-10)
(3.98124e-08 3.48502e-09 -3.79091e-09)
(7.73508e-08 -1.92868e-09 1.0098e-09)
(2.70826e-07 -1.55237e-09 4.42937e-09)
(2.47662e-07 -1.89082e-09 2.36612e-09)
(3.985e-08 1.95412e-09 5.58842e-09)
(3.26823e-07 -1.33274e-09 -6.46016e-09)
(2.67236e-07 1.23636e-10 -2.00601e-09)
(2.06508e-07 8.41841e-10 -1.97602e-09)
(2.49804e-07 3.66797e-10 2.3512e-09)
(3.57172e-08 4.57915e-09 1.80187e-09)
(2.15458e-07 -3.7311e-09 3.35047e-09)
(1.1031e-07 -2.19405e-09 -5.00844e-10)
(1.27913e-07 -1.73596e-10 2.0505e-09)
(2.52224e-07 1.13312e-09 5.00703e-09)
(1.62936e-07 -7.75788e-10 3.08317e-10)
(2.15305e-07 1.21558e-09 9.55919e-10)
(2.24074e-07 -1.51575e-09 6.95528e-10)
(5.70334e-08 -2.89847e-09 -2.83026e-09)
(2.44135e-07 -4.60329e-09 -1.93458e-09)
(1.9417e-07 -3.02205e-09 -2.03141e-09)
(2.7823e-07 -3.19573e-09 2.84513e-09)
(2.15619e-07 -4.54723e-09 -1.37945e-09)
(3.48921e-07 -2.84466e-09 -5.14045e-09)
(1.95969e-07 -4.19111e-09 9.92034e-10)
(2.89247e-08 6.58999e-10 2.58324e-09)
(4.95093e-08 -2.78967e-09 1.3175e-09)
(4.55741e-07 -6.60099e-09 2.34717e-09)
(2.79399e-08 -2.87719e-09 3.26285e-09)
(2.26054e-07 3.18376e-11 -5.94324e-09)
(9.59962e-08 5.44378e-09 -5.13123e-10)
(2.67801e-07 -4.52361e-09 -1.36127e-09)
(3.1909e-07 3.13375e-10 -5.89384e-10)
(3.05489e-07 -4.37652e-09 1.4932e-09)
(1.59298e-07 -1.78286e-09 -3.6981e-09)
(3.48743e-07 -7.41252e-10 -5.04918e-09)
(9.56127e-08 -7.58383e-09 5.44485e-09)
(1.04914e-07 1.95971e-09 6.87767e-09)
(1.71491e-07 -3.36953e-09 -1.68675e-09)
(1.84858e-07 4.05802e-09 -1.48004e-09)
(2.69985e-07 2.60788e-08 1.02569e-08)
(2.25336e-07 -2.71382e-09 1.24694e-09)
(9.43232e-08 -4.01872e-10 -9.5583e-11)
(1.35198e-07 -1.53511e-09 3.57248e-09)
(2.32381e-07 2.32442e-10 -1.31092e-09)
(1.76485e-07 7.96111e-10 2.84802e-13)
(3.27275e-07 3.36854e-09 -6.73556e-10)
(1.74353e-07 8.32686e-10 2.38765e-09)
(4.34326e-07 -9.20016e-09 1.41241e-10)
(1.7696e-07 7.02764e-09 3.1725e-09)
(3.45164e-07 2.41565e-09 -1.73248e-09)
(2.26458e-07 -1.19065e-09 -1.81511e-09)
(1.71639e-07 4.24397e-10 4.38871e-10)
(2.98576e-07 -2.34806e-09 6.88193e-10)
(1.27206e-07 4.79765e-09 -8.93439e-09)
(3.2059e-08 -3.67972e-09 -4.39751e-09)
(2.70552e-07 -8.1179e-10 9.62304e-10)
(8.07413e-08 -3.06507e-09 2.98818e-09)
(3.82703e-08 1.21994e-09 -1.13039e-09)
(3.37328e-07 -3.03176e-09 7.24916e-09)
(1.91332e-07 8.35375e-10 1.50413e-09)
(1.2117e-07 -1.34266e-09 -3.84415e-10)
(2.05089e-07 7.68053e-10 2.13592e-09)
(2.8256e-07 -1.06943e-09 1.00345e-09)
(3.29745e-07 9.81445e-10 -3.8822e-09)
(2.18101e-07 1.76494e-09 -5.81504e-11)
(4.55187e-08 4.49249e-10 1.86345e-10)
(2.92086e-07 4.3324e-11 -3.18169e-09)
(1.70707e-07 -1.01995e-09 2.88606e-10)
(1.34419e-07 -1.1424e-09 2.80781e-09)
(2.26732e-07 -1.15018e-09 3.32673e-09)
(1.99942e-07 1.16945e-09 1.62743e-10)
(1.76606e-07 -9.17988e-10 -9.53258e-10)
(2.10417e-07 7.74051e-10 1.99961e-09)
(2.47967e-07 1.53931e-09 2.59902e-09)
(1.98741e-07 -2.27971e-09 -9.03268e-10)
(1.02777e-07 -1.70737e-09 -8.72712e-10)
(2.88539e-08 5.27232e-10 -3.93138e-10)
(5.96297e-08 -4.84462e-09 -1.60489e-09)
(2.70586e-07 2.17848e-09 4.82302e-09)
(2.73658e-07 -1.4204e-08 3.17695e-08)
(1.17724e-07 -5.75916e-09 -8.76452e-09)
(1.37462e-07 1.48323e-10 -2.6999e-09)
(2.86151e-07 7.59724e-10 4.9545e-09)
(3.10433e-07 1.54206e-09 -3.02658e-09)
(1.93803e-07 9.31374e-10 7.20895e-10)
(3.34365e-07 1.04473e-09 1.51131e-09)
(3.62792e-07 -2.61511e-09 -1.89999e-09)
(2.05705e-07 4.13331e-10 -2.94987e-10)
(1.25608e-07 3.22414e-10 -2.47095e-10)
(3.07699e-08 4.96727e-10 -4.81972e-10)
(2.41941e-07 -4.23721e-08 5.55848e-09)
(1.12335e-07 3.33376e-09 2.85165e-09)
(9.34504e-08 -2.55655e-09 -3.15238e-09)
(1.01119e-07 -6.88771e-11 -2.02628e-10)
(1.50636e-07 9.45823e-10 1.42038e-09)
(2.07906e-07 1.22244e-09 2.26332e-09)
(2.11084e-07 1.70048e-09 -4.47956e-10)
(2.25762e-08 1.7895e-09 -2.83214e-09)
(1.74615e-07 2.03033e-10 2.95784e-10)
(8.79753e-08 2.05994e-09 1.40547e-09)
(1.59681e-07 -1.38167e-09 -9.2223e-10)
(7.23102e-08 -2.05223e-09 -5.62043e-10)
(1.79049e-07 -2.78196e-09 7.43712e-09)
(2.63629e-07 -1.75289e-09 2.97941e-09)
(1.60409e-07 7.71093e-10 1.80636e-09)
(2.89125e-08 2.8765e-09 -3.32411e-09)
(1.49566e-07 2.16325e-10 9.38006e-09)
(2.37765e-07 1.47947e-09 9.33177e-12)
(3.85209e-08 -2.1684e-09 -1.24854e-09)
(2.84981e-07 1.67446e-09 4.07669e-09)
(1.96429e-07 3.45104e-10 7.54269e-10)
(3.17318e-07 4.43632e-09 3.08367e-09)
(2.44401e-07 5.20712e-09 1.50248e-09)
(1.15184e-07 -2.3605e-09 3.04903e-09)
(3.54712e-07 6.39371e-09 -1.66984e-09)
(1.44146e-07 -1.24774e-08 -1.41023e-08)
(2.54658e-07 2.98092e-09 1.30534e-09)
(1.56913e-07 7.60964e-09 9.26916e-09)
(1.94546e-07 -2.47503e-09 5.02314e-09)
(1.9858e-07 2.78951e-10 -2.94839e-10)
(2.16135e-07 -1.91137e-10 1.06179e-09)
(4.41104e-07 3.79539e-09 1.43761e-09)
(1.01909e-07 -4.87405e-10 -6.32013e-10)
(3.54519e-07 -1.45143e-09 3.31471e-10)
(1.41176e-07 -1.6405e-09 -1.75199e-09)
(3.43913e-07 -1.83177e-09 1.40309e-09)
(2.60769e-07 -1.37426e-09 2.25667e-09)
(1.02463e-07 1.77117e-09 -4.41798e-09)
(2.2699e-07 -1.51176e-09 -1.25643e-09)
(3.713e-07 -3.46616e-10 -1.49193e-09)
(2.18116e-07 -1.4642e-09 -7.52951e-10)
(2.01336e-07 -1.54585e-09 -5.49808e-10)
(3.82349e-08 6.6263e-11 -3.8869e-09)
(2.90752e-08 2.64819e-10 -4.3085e-09)
(3.12273e-07 -9.33083e-10 -3.65644e-09)
(2.31693e-07 2.15467e-09 4.34455e-10)
(1.73814e-07 -2.60463e-12 -2.61052e-09)
(5.17822e-08 1.64926e-09 -2.8498e-09)
(7.26345e-08 1.31992e-10 -4.0702e-10)
(3.62693e-07 -4.90371e-09 6.31474e-09)
(1.30948e-07 2.06769e-09 3.47636e-10)
(2.52071e-07 2.79146e-09 -6.15458e-10)
(2.22799e-07 -1.43851e-10 1.11821e-10)
(1.79316e-07 1.78202e-09 1.95227e-09)
(1.94077e-07 1.86326e-09 1.81331e-09)
(1.46163e-07 -1.22214e-09 -2.33854e-09)
(1.65597e-07 1.9745e-09 4.4816e-10)
(1.15283e-07 3.6759e-11 -3.37063e-09)
(2.42732e-07 -5.13575e-09 -5.76496e-11)
(2.22219e-07 2.11058e-10 -2.99639e-09)
(1.89645e-07 1.01545e-09 -1.3368e-09)
(1.76728e-07 1.16068e-09 3.97394e-10)
(3.33088e-07 5.19223e-11 -2.67214e-09)
(2.53699e-07 3.82964e-09 2.02848e-09)
(9.13908e-08 5.86943e-09 2.76607e-09)
(6.75029e-08 1.31779e-09 2.94689e-09)
(2.65212e-08 2.63658e-09 -3.39905e-09)
(2.00047e-07 2.14895e-09 2.05455e-09)
(2.28473e-07 -5.45966e-10 -7.41292e-10)
(2.61989e-07 3.38382e-10 -7.07976e-10)
(2.05804e-07 3.46959e-09 1.68301e-09)
(4.53097e-08 8.65578e-11 1.24643e-09)
(3.07299e-08 -1.00047e-09 2.85847e-09)
(2.06942e-07 2.68921e-09 1.51283e-09)
(2.06953e-07 -3.73859e-10 2.95839e-10)
(2.48725e-07 1.86206e-09 1.39856e-09)
(3.00332e-07 1.7704e-09 -2.23934e-09)
(2.06191e-07 8.53158e-10 -3.37866e-09)
(2.62746e-07 3.05341e-09 -6.20499e-11)
(3.90119e-07 4.32319e-09 -3.53714e-09)
(4.41622e-08 -7.54848e-10 5.18863e-09)
(2.00703e-07 -2.41981e-09 1.42323e-09)
(9.84745e-08 8.03439e-10 3.86326e-09)
(1.00343e-07 -9.32501e-09 1.48214e-09)
(1.16146e-07 -3.18791e-10 -9.20988e-10)
(1.84697e-07 -2.15444e-09 5.07404e-10)
(2.41916e-07 2.38817e-09 -2.05957e-09)
(2.74661e-08 -4.51142e-09 -3.09591e-09)
(2.85999e-07 3.96904e-09 6.83019e-10)
(2.12177e-07 -6.74689e-10 -1.40755e-09)
(1.66042e-07 9.84922e-10 5.11978e-10)
(2.62871e-07 4.14621e-09 2.88157e-09)
(1.51007e-07 1.53392e-11 -1.64587e-10)
(2.09457e-07 3.02921e-09 -3.70341e-10)
(2.6483e-07 -1.13645e-09 1.1082e-09)
(2.28263e-07 -1.15492e-09 1.04618e-09)
(1.82219e-07 5.87802e-09 -1.06418e-09)
(2.2182e-07 -3.31802e-09 4.40818e-10)
(2.76923e-07 -3.86406e-09 1.37056e-09)
(2.76878e-08 -2.5744e-09 1.22153e-09)
(2.42862e-07 -1.00954e-09 -3.83048e-09)
(2.09421e-07 -6.54391e-10 -1.34657e-09)
(9.67133e-08 -2.4407e-09 6.53445e-09)
(2.11966e-07 2.29461e-09 -3.44985e-09)
(2.90245e-07 3.35417e-10 -3.55367e-09)
(2.40232e-07 1.86715e-10 -9.37043e-10)
(1.50078e-07 -9.46346e-10 -2.83638e-09)
(2.75205e-08 -8.13294e-10 -2.94308e-09)
(2.09605e-07 1.18928e-11 -4.07443e-10)
(3.67234e-07 3.55416e-09 -8.0053e-10)
(2.13351e-07 -8.21082e-11 5.03548e-10)
(2.03411e-07 2.50302e-09 1.22584e-09)
(8.47913e-08 4.18453e-09 2.64956e-09)
(2.46997e-07 2.4273e-09 -1.33639e-09)
(3.13515e-08 3.89409e-09 -3.22624e-09)
(1.47965e-07 1.12428e-09 -6.08597e-11)
(2.08561e-07 2.22277e-08 -6.8655e-09)
(2.10482e-07 2.1802e-09 -7.3179e-10)
(1.16585e-07 -1.22887e-09 3.82629e-09)
(2.16236e-07 3.84849e-11 -4.70916e-09)
(1.41324e-07 2.10704e-09 -3.73884e-09)
(6.66177e-08 5.74756e-09 3.68609e-09)
(3.5138e-07 1.91484e-09 -1.84303e-10)
(1.6628e-07 3.10897e-09 -6.33607e-10)
(2.64081e-08 1.43294e-09 2.91717e-09)
(2.36171e-07 -2.26644e-09 -4.41871e-10)
(2.09223e-07 -4.30147e-09 5.64179e-11)
(5.5586e-08 -2.74646e-10 -1.62746e-09)
(1.70659e-07 9.07407e-09 4.5757e-10)
(1.38978e-07 1.53947e-09 2.29141e-09)
(1.7026e-07 1.12972e-09 5.27795e-12)
(1.99343e-07 -4.8345e-09 2.64645e-10)
(4.0046e-08 -8.25396e-10 1.88783e-09)
(1.29896e-07 -1.6407e-09 -2.8818e-09)
(1.42302e-07 4.62004e-09 -1.28221e-09)
(1.96612e-07 5.35384e-09 2.75523e-09)
(2.55507e-07 -5.99363e-09 6.13518e-10)
(3.40659e-08 9.47892e-10 -5.25259e-09)
(3.30813e-07 -5.58239e-09 -5.35184e-10)
(2.16404e-07 2.34859e-09 -3.0096e-09)
(2.11903e-07 3.25447e-09 5.75303e-11)
(1.14252e-07 5.20339e-09 -4.68848e-09)
(2.85696e-07 2.18958e-09 -4.60637e-10)
(3.46355e-08 -5.40825e-10 -4.75239e-09)
(2.52389e-07 -2.28921e-09 -2.44241e-10)
(3.80504e-08 -8.48831e-10 4.70517e-11)
(1.66957e-07 -9.79302e-09 -7.92597e-10)
(2.0518e-07 1.4205e-09 9.9941e-10)
(1.7923e-07 -7.32139e-09 1.1794e-10)
(2.77387e-08 4.30908e-09 3.85414e-09)
(7.13239e-08 2.2786e-09 -4.76189e-09)
(1.05787e-07 -8.61433e-09 3.21391e-09)
(1.73459e-07 6.87663e-09 -3.75702e-09)
(3.08097e-07 -1.78038e-09 -2.91721e-09)
(7.84588e-08 -2.15019e-09 -1.3754e-09)
(1.9233e-07 4.14224e-09 -2.56551e-09)
(2.24339e-07 -6.13012e-09 -1.71864e-08)
(1.72155e-07 3.2598e-09 -6.92276e-10)
(3.97873e-08 2.76383e-09 -6.43115e-10)
(2.66486e-07 -2.26874e-09 -2.34164e-09)
(1.51226e-07 1.40356e-08 -2.16519e-09)
(1.66627e-07 -1.52346e-09 -1.38733e-09)
(1.26523e-07 1.19158e-09 -2.67238e-09)
(1.45153e-07 3.00439e-09 -9.39111e-10)
(1.43994e-07 -8.89103e-09 -2.39533e-09)
(1.72423e-07 6.1694e-10 1.83151e-09)
(1.27137e-07 1.15342e-09 -1.58137e-10)
(9.63425e-08 7.20931e-09 -8.22212e-09)
(2.44965e-07 -3.81072e-11 -1.25108e-09)
(7.10208e-08 3.19519e-09 3.22122e-09)
(2.30215e-08 3.39478e-09 1.77059e-09)
(3.04127e-07 1.18052e-09 7.74365e-10)
(1.47136e-07 2.11029e-09 2.36004e-10)
(2.98923e-07 3.68683e-10 3.4139e-09)
(2.44915e-07 6.47477e-09 -2.93895e-09)
(3.66793e-07 -5.39573e-09 -8.47937e-10)
(1.76788e-07 3.72734e-09 -6.17452e-09)
(3.4928e-07 -4.00471e-09 -2.33814e-09)
(1.20193e-07 -1.67378e-09 5.65627e-09)
(1.22613e-07 1.24604e-09 -7.86605e-10)
(3.29597e-07 -3.42455e-09 -4.78936e-09)
(4.7116e-08 2.05066e-09 -8.05562e-09)
(2.8466e-07 -2.27703e-09 -1.20573e-09)
(1.64662e-07 1.03996e-09 7.12493e-09)
(4.34042e-08 -4.34917e-09 -4.24735e-09)
(2.71908e-07 1.92709e-09 -5.60318e-10)
(8.57563e-08 -1.8499e-09 1.37268e-09)
(1.98587e-07 -5.49678e-10 -9.0993e-10)
(1.72041e-07 5.19482e-11 -5.13562e-10)
(3.78128e-07 7.72986e-09 5.89042e-09)
(1.40692e-07 -7.19238e-09 -5.64276e-09)
(2.3266e-07 8.00439e-10 -2.28067e-10)
(1.87495e-07 -1.50122e-10 2.17649e-09)
(2.52785e-07 -1.38704e-09 1.20584e-09)
(2.60725e-07 1.41961e-09 -2.80285e-09)
(2.25391e-07 2.12502e-09 -2.84577e-10)
(1.31761e-07 1.70013e-09 -9.72937e-11)
(6.97736e-08 -4.74148e-09 -2.01252e-09)
(9.42863e-08 5.15548e-10 -2.76452e-09)
(1.4444e-07 1.54881e-09 -1.60222e-10)
(2.52423e-07 6.2328e-10 -8.52266e-10)
(4.25692e-08 -3.60224e-09 -1.52401e-09)
(2.14678e-07 1.79081e-09 -2.04051e-09)
(3.91583e-07 -2.10473e-09 2.33293e-09)
(2.89749e-07 -3.45969e-09 -3.23245e-10)
(3.00275e-07 -3.44354e-09 -1.4016e-09)
(2.79184e-07 3.0828e-09 -2.38651e-09)
(2.73651e-08 2.26289e-09 3.12364e-09)
(1.90498e-07 -8.58618e-10 2.97841e-10)
(1.69083e-07 -3.61876e-09 -4.67048e-09)
(2.3582e-07 -2.18657e-09 -4.05555e-10)
(1.9694e-07 1.57371e-10 -2.15333e-09)
(5.42612e-08 5.09897e-09 -2.14728e-09)
(1.65036e-07 2.32855e-09 -1.09845e-09)
(1.81234e-07 7.51287e-10 -1.62205e-09)
(2.57814e-07 -2.35982e-09 -2.36562e-09)
(2.10757e-07 -3.88665e-09 -1.26124e-09)
(1.97021e-07 2.35361e-10 2.70716e-10)
(1.90961e-08 1.52433e-09 -2.83239e-09)
(2.92993e-08 -2.25219e-09 -3.53337e-09)
(1.4543e-07 -3.31144e-09 -1.08552e-09)
(2.50182e-07 3.0349e-09 -4.17163e-10)
(1.77146e-07 1.16101e-09 3.1049e-10)
(1.64932e-07 1.89788e-09 4.78827e-10)
(1.97601e-07 -9.32512e-11 9.07597e-10)
(2.38412e-07 -2.40384e-09 -8.17512e-10)
(2.37019e-07 1.35824e-09 -2.81477e-09)
(2.88898e-08 1.8925e-09 7.0376e-10)
(1.14068e-07 -2.73933e-09 -9.38904e-10)
(1.73489e-07 -8.51475e-09 -1.1559e-09)
(7.11887e-08 -2.13364e-09 3.83024e-09)
(1.13362e-07 -8.36864e-09 7.73236e-10)
(3.0603e-07 -3.30465e-09 -1.3342e-09)
(2.1259e-07 -2.43787e-09 -2.1979e-09)
(2.04026e-07 9.8627e-10 -3.54379e-09)
(2.61639e-07 -1.15933e-09 -2.00202e-09)
(1.65229e-07 -3.62144e-09 2.95841e-10)
(2.64062e-07 9.63259e-11 -2.23741e-09)
(2.21961e-07 3.25117e-09 -4.09437e-09)
(3.58575e-07 5.47779e-09 -1.62004e-10)
(1.78567e-07 -2.41211e-09 -1.80685e-09)
(1.87445e-07 -3.58449e-09 4.92625e-09)
(2.52521e-07 -2.65796e-09 -2.56698e-09)
(6.75312e-08 -3.76245e-09 5.10644e-09)
(4.83371e-07 -7.62624e-10 -4.93122e-09)
(4.97533e-08 9.4969e-10 -1.41853e-09)
(1.5068e-07 -1.31584e-08 8.24165e-09)
(1.50548e-07 2.26586e-09 6.91084e-09)
(1.60073e-07 -1.52174e-09 -1.08795e-08)
(2.24526e-07 -1.62415e-09 1.9883e-09)
(2.93424e-07 -3.83221e-08 -9.18177e-09)
(1.1415e-07 7.06711e-11 5.43751e-10)
(2.74686e-07 7.48603e-10 8.46423e-11)
(3.03128e-07 3.13757e-09 -8.60081e-10)
(1.77949e-07 -3.55672e-11 2.36301e-09)
(5.18425e-08 8.24275e-10 -1.05994e-09)
(1.18625e-07 -4.15783e-09 -2.63242e-09)
(2.1039e-07 -3.40878e-09 -2.59284e-08)
(1.73078e-07 3.94042e-10 1.52274e-09)
(1.12825e-07 -2.43892e-09 7.66717e-10)
(2.14457e-07 -1.05779e-08 -4.94246e-09)
(2.06376e-07 1.05256e-09 1.16037e-09)
(3.61819e-07 1.91613e-09 -1.58561e-09)
(6.64455e-08 -2.29467e-09 1.58793e-09)
(7.14524e-08 -1.06674e-09 3.41081e-09)
(4.19787e-08 -1.12355e-09 -5.21245e-10)
(2.83086e-08 -4.41013e-10 -2.33621e-09)
(6.44738e-08 -1.61866e-09 -5.47697e-10)
(2.23371e-07 -4.54053e-10 3.76249e-09)
(1.80459e-07 7.90777e-10 -4.11635e-10)
(2.78514e-08 -1.62439e-10 4.47e-09)
(2.90363e-08 2.79942e-09 4.02862e-09)
(2.77384e-07 5.1108e-09 -5.08548e-10)
(1.70029e-07 -2.00094e-08 1.31954e-08)
(6.52758e-08 1.84042e-09 1.13539e-09)
(2.17222e-07 2.08209e-09 -9.6077e-10)
(1.30489e-07 -3.1228e-09 -1.61576e-09)
(2.06706e-07 1.91985e-10 4.29954e-10)
(6.27109e-08 3.31543e-09 -1.9958e-09)
(1.28638e-07 -2.91701e-10 -8.33017e-10)
(2.16723e-07 -1.1872e-09 -7.22739e-10)
(2.24592e-07 2.42914e-09 -5.79136e-10)
(3.65717e-07 4.46375e-09 -2.19997e-09)
(6.61645e-08 8.42214e-09 -4.01338e-09)
(3.7225e-08 -1.22339e-09 2.74888e-09)
(2.01577e-07 -2.84417e-08 -2.02806e-08)
(4.16238e-08 -5.18699e-09 -1.8192e-09)
(3.21736e-07 -4.15754e-10 -1.84249e-09)
(4.21395e-08 1.72321e-09 -6.5949e-09)
(1.72335e-07 -4.5304e-10 2.17928e-09)
(2.47783e-07 -7.33479e-10 -3.27205e-10)
(3.71035e-07 -4.87626e-09 1.60052e-09)
(8.1477e-08 -1.63966e-09 -1.64322e-09)
(1.72891e-07 -4.3591e-09 -2.41282e-09)
(5.62486e-08 1.51742e-09 -2.36403e-09)
(4.60826e-08 5.9846e-09 -2.16638e-09)
(2.11492e-07 -1.68337e-09 -1.29898e-09)
(2.09061e-08 -1.12989e-09 -3.51576e-09)
(1.5335e-07 -2.7017e-09 8.20892e-10)
(8.89591e-08 9.77733e-10 -4.33971e-09)
(2.97595e-07 -1.0402e-09 2.1493e-10)
(2.23588e-07 -2.00629e-09 -1.56949e-09)
(2.96608e-08 -3.7181e-10 4.61347e-09)
(1.72891e-07 -6.80042e-09 1.12334e-09)
(2.32267e-07 -1.22286e-09 -1.79448e-09)
(4.55255e-08 -3.06426e-09 -4.17416e-10)
(2.47924e-07 -1.40181e-09 3.91188e-10)
(1.0993e-07 -3.87019e-09 6.92878e-09)
(2.4727e-07 -1.16418e-09 -4.48739e-09)
(1.80718e-07 8.49464e-10 -1.49797e-09)
(8.55341e-08 2.47783e-09 2.0045e-09)
(3.15739e-08 8.98677e-10 -4.84456e-09)
(1.29955e-07 3.19084e-09 3.60212e-09)
(2.44035e-07 3.41679e-08 9.49741e-09)
(2.76433e-07 2.17428e-09 5.45991e-10)
(1.09731e-07 -1.56569e-09 6.117e-09)
(2.43183e-07 -2.82108e-10 4.22149e-09)
(3.49746e-08 -9.13127e-10 7.66291e-10)
(1.5917e-07 9.63188e-10 -1.19946e-09)
(3.67416e-08 3.0413e-11 -1.19714e-09)
(2.89042e-07 -6.15998e-09 2.00333e-09)
(2.99615e-07 -3.88324e-09 2.68199e-09)
(1.8933e-07 -4.74702e-10 9.05552e-10)
(2.21996e-08 2.68277e-09 -1.84347e-11)
(3.28674e-07 -4.41202e-09 -1.92899e-10)
(1.84484e-07 7.9953e-10 -3.00919e-09)
(3.21287e-07 4.91667e-09 2.50958e-09)
(8.46954e-08 -1.30795e-09 9.99643e-11)
(2.22755e-07 -2.36502e-08 1.30368e-08)
(2.38539e-07 -2.47294e-09 4.31674e-10)
(1.01232e-07 -2.81646e-09 -2.10435e-09)
(1.93974e-07 -1.26794e-09 -1.60762e-10)
(2.10302e-07 3.21789e-09 -3.67651e-08)
(2.04102e-07 5.82314e-11 -1.59427e-11)
(4.82386e-08 1.56594e-09 -3.73757e-09)
(1.46416e-07 -3.33689e-09 -8.18942e-09)
(1.52804e-07 -1.02319e-10 5.16857e-10)
(2.32275e-07 9.72567e-10 -4.85446e-10)
(4.6935e-08 7.25648e-09 1.23324e-09)
(2.5847e-07 3.26076e-09 -2.53887e-09)
(2.13171e-07 -1.17424e-08 2.66978e-09)
(3.62035e-08 -3.93468e-09 2.66065e-09)
(1.64189e-07 6.79875e-12 6.07522e-10)
(1.5826e-07 -1.48646e-09 1.49999e-08)
(3.44341e-07 5.04127e-09 -2.72244e-09)
(1.67526e-07 1.59313e-11 7.7726e-10)
(1.49344e-07 -1.2711e-10 6.75134e-10)
(2.59471e-07 5.62456e-10 -2.23763e-09)
(2.77976e-07 1.5617e-09 3.15036e-09)
(1.02391e-07 3.49508e-09 4.1553e-09)
(1.13025e-07 -1.07498e-08 -5.22743e-09)
(3.06424e-07 4.10088e-09 -7.43276e-10)
(2.25326e-07 -1.66792e-08 1.68107e-08)
(2.28009e-07 3.00552e-09 6.05371e-11)
(2.04688e-07 2.50605e-10 -1.2223e-09)
(1.67512e-07 4.08721e-09 7.52032e-10)
(3.19576e-07 -8.66635e-10 -9.88742e-10)
(1.75742e-07 1.48392e-09 -1.34183e-10)
(2.27439e-07 -3.478e-09 -4.36374e-09)
(2.64347e-07 3.73177e-09 3.34312e-09)
(5.94294e-08 -1.24834e-09 -5.01756e-09)
(2.2233e-07 2.15844e-09 -3.68879e-09)
(6.53206e-08 1.38392e-10 -2.49199e-09)
(2.87106e-07 -2.46129e-10 -7.63293e-11)
(2.69089e-07 -1.15619e-09 2.97694e-09)
(2.07756e-07 -2.14367e-09 -5.77776e-09)
(1.91536e-07 -2.61335e-09 -2.67206e-09)
(2.61426e-08 3.07561e-09 1.2955e-10)
(1.38541e-07 -3.19898e-09 -1.94901e-09)
(1.00658e-07 -3.69041e-09 -3.89207e-09)
(2.14704e-07 4.50259e-10 -2.60599e-10)
(1.91296e-07 9.35933e-10 -2.24407e-09)
(2.21118e-07 -1.8143e-08 1.18486e-08)
(2.67221e-07 1.13483e-09 1.11286e-09)
(1.04955e-07 -3.62225e-09 -1.37516e-09)
(1.36353e-07 -2.83645e-09 1.06013e-08)
(2.53975e-07 3.90425e-09 -6.85825e-10)
(4.65944e-08 -5.27109e-09 4.64077e-10)
(1.96405e-07 3.55987e-10 -1.73884e-09)
(8.11283e-08 2.60158e-09 -4.53384e-10)
(2.06725e-07 -3.13261e-11 -9.1984e-11)
(4.74372e-08 6.30061e-09 2.23438e-09)
(3.03966e-07 4.9563e-09 -3.33542e-09)
(2.0423e-07 -7.793e-09 5.00133e-09)