/*--------------------------------*- C++ -*----------------------------------*\
| =========                 |                                                 |
| \\      /  F ield         | OpenFOAM: The Open Source CFD Toolbox           |
|  \\    /   O peration     | Version:  2406                                  |
|   \\  /    A nd           | Website:  www.openfoam.com                      |
|    \\/     M anipulation  |                                                 |
\*---------------------------------------------------------------------------*/
FoamFile
{
    version     2.0;
    format      ascii;
    arch        "LSB;label=32;scalar=64";
    class       volVectorField;
    location    "16";
    object      momentum:angularMomentum;
}
// * * * * * * * * * * * * * * * * * * * * * * * * * * * * * * * * * * * * * //

dimensions      [1 1 -1 0 0 0 0];

internalField   nonuniform List<vector> 
59516
(
(3.47881e-09 -1.67805e-09 2.60179e-07)
(-1.30728e-09 3.15248e-09 1.99707e-07)
(1.52245e-09 4.66416e-09 2.31251e-07)
(-4.4579e-09 3.14335e-09 1.82091e-07)
(-5.92905e-09 -1.29624e-10 2.01754e-07)
(-5.19372e-09 2.81574e-09 5.04131e-08)
(-2.97382e-09 -2.57847e-09 2.23035e-07)
(-2.34862e-09 1.46015e-09 2.32151e-07)
(-7.82882e-10 1.7415e-09 1.80436e-07)
(6.41378e-09 1.9185e-09 1.15431e-07)
(-1.59824e-10 -7.22364e-10 1.80878e-07)
(-2.61016e-09 3.5739e-10 1.2572e-07)
(-2.56999e-09 -6.73889e-09 3.64287e-07)
(3.89447e-12 -9.51302e-11 2.318e-08)
(-5.0142e-09 -1.05503e-08 2.03371e-07)
(-4.61833e-10 9.01531e-09 1.17284e-07)
(-9.0564e-10 2.93264e-11 2.22892e-07)
(-5.62547e-09 -6.92879e-09 1.66471e-07)
(-9.63365e-09 -7.33398e-09 3.47706e-07)
(-2.2611e-09 2.23157e-09 3.17186e-07)
(-4.54947e-10 -1.58367e-09 1.15927e-07)
(-5.35411e-11 1.02321e-09 3.06111e-07)
(2.33236e-10 1.79198e-09 3.21908e-07)
(9.12197e-10 8.64728e-10 5.16902e-08)
(1.64082e-09 4.77119e-09 2.92395e-07)
(-5.6314e-09 2.71262e-09 2.74956e-07)
(-1.39579e-09 2.10041e-09 7.73702e-08)
(-6.88349e-09 -2.56389e-09 8.14306e-08)
(-1.02129e-09 -5.00593e-09 1.68801e-07)
(2.88812e-09 2.09305e-09 1.99674e-08)
(-3.46593e-08 2.50547e-09 1.90205e-07)
(-8.34178e-09 4.19513e-09 9.26065e-08)
(3.00917e-10 1.12185e-10 1.80785e-07)
(-6.1736e-09 -2.09723e-09 2.03114e-07)
(-1.43574e-09 4.2325e-10 1.26478e-07)
(1.1162e-09 2.58627e-09 3.94354e-07)
(-2.64121e-09 1.15433e-09 2.09536e-08)
(-9.91137e-09 -2.44089e-09 1.40837e-07)
(-7.2322e-09 -3.24687e-09 2.99808e-07)
(6.79503e-09 -7.12378e-09 2.54745e-07)
(-4.41963e-09 -4.22644e-09 3.09212e-07)
(-9.95393e-09 -3.52734e-10 3.87784e-07)
(1.62848e-10 2.41536e-10 3.2209e-07)
(-1.96542e-09 7.40247e-10 1.36929e-07)
(-1.61375e-09 -1.15223e-09 2.60672e-07)
(5.86575e-09 6.71588e-10 1.462e-07)
(4.13824e-09 3.24172e-09 3.2581e-07)
(3.00453e-10 -8.22906e-10 2.17954e-07)
(-2.91074e-08 4.70092e-09 2.52976e-07)
(-2.20487e-09 2.30135e-10 2.14039e-07)
(-2.59717e-08 1.21459e-09 1.64244e-07)
(-6.20518e-09 -3.31067e-09 1.16899e-07)
(1.96026e-09 -6.82241e-09 3.61332e-07)
(-1.88196e-09 -1.23916e-09 3.23174e-07)
(-4.61411e-09 2.32525e-09 1.0648e-07)
(-2.24653e-09 2.19608e-09 2.50601e-07)
(-6.59896e-09 1.07537e-10 1.84589e-07)
(-7.5155e-09 -2.45547e-09 1.21199e-07)
(2.46401e-09 3.06181e-09 1.69129e-07)
(-3.32313e-09 1.04157e-09 1.3984e-07)
(1.36961e-10 1.73471e-09 2.00757e-07)
(-8.24014e-10 1.89282e-09 2.24612e-08)
(3.36794e-09 -4.50527e-09 2.19773e-07)
(1.24022e-09 1.91961e-09 2.80364e-07)
(-4.31273e-09 -3.91944e-09 3.32542e-07)
(-7.60563e-10 1.01255e-09 1.95074e-07)
(4.18651e-10 2.91882e-09 2.86921e-08)
(-7.36936e-10 8.64228e-10 9.5102e-08)
(-3.13656e-08 2.62467e-09 1.98194e-07)
(3.02265e-09 -2.23903e-09 1.65331e-07)
(-9.00976e-10 -5.54759e-10 7.41455e-08)
(-1.48226e-09 7.36128e-10 1.32878e-07)
(5.7075e-09 -1.63855e-09 3.67023e-08)
(2.25708e-10 2.0938e-09 1.77143e-07)
(-3.05267e-09 1.64544e-09 2.93804e-07)
(2.03292e-09 1.40405e-10 3.21523e-07)
(3.9334e-10 -1.16373e-09 1.82372e-07)
(-2.89621e-09 -1.81979e-09 2.17845e-07)
(3.82185e-09 1.88036e-09 1.17089e-07)
(-3.06015e-10 7.01266e-10 1.68629e-07)
(-2.15502e-09 9.24609e-10 8.20066e-08)
(-1.24956e-09 1.3158e-09 1.54592e-07)
(-4.66659e-10 -3.30499e-10 1.71013e-07)
(-3.83381e-09 2.07057e-09 2.83566e-08)
(-5.26652e-10 1.09833e-09 1.93761e-07)
(-2.70434e-09 1.15185e-09 3.01866e-07)
(7.44925e-10 2.319e-09 4.64924e-08)
(-8.86464e-10 5.08943e-09 4.72364e-07)
(-6.31297e-09 -7.37728e-10 1.55135e-07)
(-9.00429e-09 -3.7014e-09 1.70184e-07)
(-8.74662e-09 -4.85995e-10 1.79196e-07)
(1.46686e-09 -9.0706e-10 1.80283e-07)
(5.07765e-10 -1.67717e-09 2.08659e-07)
(1.6162e-09 -1.11687e-09 1.74418e-07)
(1.86605e-09 -2.31618e-09 1.52233e-07)
(-1.4923e-08 1.19841e-09 1.85366e-07)
(-2.35686e-09 -5.65669e-10 1.22023e-07)
(3.97047e-09 6.56374e-09 1.11779e-07)
(-1.22134e-09 -3.1606e-09 1.30141e-07)
(2.45563e-09 -5.56118e-10 1.95969e-07)
(-2.18791e-09 4.62078e-09 9.44155e-08)
(4.77668e-09 2.52894e-09 4.12281e-08)
(4.91986e-09 1.556e-09 3.35752e-08)
(-1.04362e-09 4.65698e-09 1.17021e-07)
(5.46927e-10 -4.19591e-10 2.44546e-07)
(-6.71636e-10 6.83154e-10 1.50345e-07)
(3.89311e-09 -5.35482e-09 8.36463e-08)
(-1.17948e-09 -8.61306e-10 1.61763e-07)
(-4.08778e-09 -2.32309e-09 2.08391e-07)
(-6.52073e-09 1.07646e-08 2.46307e-07)
(-2.96414e-08 -1.19656e-09 2.81556e-07)
(5.41615e-09 -3.78482e-09 6.94159e-08)
(-4.46036e-09 8.19745e-09 2.42517e-07)
(-2.80079e-08 -7.18629e-10 2.19571e-07)
(-2.09019e-09 2.80244e-09 1.93622e-07)
(-1.40355e-09 -7.56205e-10 1.6305e-07)
(-7.55493e-09 -4.28467e-09 1.7894e-07)
(-3.27171e-10 -3.22017e-10 1.43377e-07)
(-1.67013e-09 -2.79463e-10 2.51288e-08)
(-1.87187e-09 3.51145e-09 2.53705e-07)
(-1.4165e-09 -1.2915e-09 3.15237e-07)
(1.83667e-09 3.92593e-10 1.46906e-07)
(-5.89052e-10 -3.65175e-10 1.47154e-07)
(6.35805e-10 4.74778e-10 1.51323e-07)
(-1.02953e-08 4.5636e-10 1.32896e-07)
(1.68818e-09 -2.29932e-09 1.58288e-07)
(-4.21723e-09 -1.91312e-09 4.85321e-08)
(-8.40303e-09 2.08953e-11 2.09325e-07)
(-2.27874e-08 7.1247e-09 1.65026e-07)
(8.62507e-10 1.49588e-09 1.22969e-07)
(3.61116e-09 -1.11256e-09 2.16382e-07)
(2.24743e-09 9.97599e-09 3.77495e-07)
(-1.77795e-09 -2.06608e-09 3.19912e-08)
(9.54433e-11 2.41145e-09 2.41046e-07)
(1.51816e-09 2.80692e-09 3.58256e-07)
(-1.09325e-09 3.19342e-09 2.2273e-07)
(-1.79616e-08 6.16748e-10 1.53333e-07)
(-8.46602e-10 3.28483e-09 3.28378e-07)
(-3.60061e-10 5.45543e-09 7.84208e-08)
(-5.16969e-09 8.60962e-10 1.83046e-07)
(-2.82348e-09 5.23141e-09 1.14074e-07)
(2.52716e-09 3.55988e-10 2.58944e-07)
(-1.25549e-09 -2.07946e-09 1.96272e-08)
(-1.84896e-09 1.09521e-09 1.61556e-07)
(-7.45099e-10 4.7799e-10 1.66355e-07)
(-3.84547e-09 2.01242e-09 2.67734e-07)
(-9.42324e-10 7.39778e-10 2.01511e-07)
(-1.66032e-09 5.74829e-10 2.20514e-07)
(1.16574e-09 -2.06753e-09 6.45593e-08)
(-3.74919e-09 1.06249e-09 2.3197e-07)
(-1.31489e-09 -3.08837e-09 3.60589e-07)
(4.46097e-10 3.97018e-09 8.22897e-08)
(1.33392e-09 5.26097e-10 3.29828e-07)
(2.25385e-09 -2.29685e-09 2.04456e-07)
(1.94857e-09 -3.23111e-09 1.83239e-07)
(-2.82607e-09 7.23168e-10 2.19849e-08)
(2.11044e-09 -3.33275e-09 3.23909e-07)
(-1.89219e-11 2.39843e-09 3.5452e-07)
(-1.49081e-09 1.32009e-09 1.49653e-07)
(-4.00092e-09 -1.43636e-09 2.26679e-08)
(2.37606e-09 4.70859e-09 1.0851e-07)
(4.84736e-09 -5.22024e-09 1.35771e-07)
(-2.63459e-09 4.46399e-09 5.74376e-08)
(-4.2941e-10 -6.68479e-10 3.44938e-08)
(1.43434e-09 9.97947e-10 1.95173e-07)
(-2.56448e-09 8.34196e-10 2.77185e-07)
(1.31213e-09 -2.38744e-09 2.20023e-07)
(-2.42563e-10 -1.43085e-09 2.20208e-07)
(2.35652e-09 2.54157e-09 2.25825e-08)
(-2.69587e-09 7.64009e-10 2.06664e-07)
(-2.03583e-09 -5.26425e-10 1.03714e-07)
(-1.33505e-09 -7.30522e-11 8.77865e-08)
(-1.106e-09 -6.56956e-09 1.39082e-07)
(9.02905e-10 -1.15814e-09 1.48415e-07)
(9.92946e-10 2.36284e-09 1.15095e-07)
(4.38837e-09 -2.17239e-10 4.46882e-07)
(-1.32965e-09 -2.6644e-11 2.04774e-07)
(-3.3214e-10 -1.18814e-09 2.92917e-07)
(4.71093e-09 -1.41021e-08 1.9923e-07)
(-1.22079e-10 -2.54075e-09 8.50443e-08)
(-1.06175e-09 -5.37514e-09 2.92889e-07)
(2.20389e-09 4.59512e-09 6.26273e-08)
(-1.04361e-09 -2.42272e-09 4.41668e-08)
(-1.29002e-09 3.94023e-09 1.3693e-07)
(3.17303e-10 -2.69156e-09 1.60879e-07)
(-7.29517e-10 1.13681e-09 1.3487e-07)
(-3.70492e-09 1.22274e-09 6.57768e-08)
(-6.60679e-10 1.21688e-09 3.19805e-08)
(-1.19077e-09 -2.48903e-09 2.02349e-07)
(-4.45427e-10 -2.06105e-09 2.65792e-07)
(-3.88023e-09 -6.02169e-10 1.61707e-07)
(5.67161e-10 -6.53557e-09 1.62052e-07)
(-1.16458e-10 -3.88132e-10 1.83341e-07)
(2.4154e-09 -5.56925e-09 1.25191e-07)
(-2.7667e-09 2.92911e-09 3.07858e-07)
(7.15463e-10 1.0292e-09 4.12963e-08)
(2.75813e-09 -8.04244e-10 1.30645e-07)
(6.15103e-10 -8.21826e-10 8.39802e-08)
(-6.2403e-09 2.07695e-09 2.14918e-07)
(-1.36919e-09 4.7073e-09 2.40419e-07)
(-1.318e-09 -1.13568e-09 1.02307e-07)
(1.90092e-09 2.46423e-10 1.49505e-07)
(7.91027e-10 -2.60286e-10 3.64517e-07)
(2.95629e-09 -2.04702e-09 2.28585e-08)
(3.2936e-09 2.81263e-09 2.41872e-07)
(-4.19442e-10 1.295e-09 2.34602e-07)
(6.72667e-10 5.96924e-10 2.69512e-07)
(-1.63501e-09 2.18043e-09 1.75469e-07)
(1.09997e-11 -4.96156e-10 2.61251e-08)
(3.53971e-09 1.63984e-09 3.37084e-07)
(7.08253e-10 5.5074e-09 8.86565e-08)
(-5.80945e-09 1.38573e-09 2.97785e-08)
(-9.06961e-10 6.04041e-10 2.27667e-07)
(1.44065e-09 4.39522e-09 1.29453e-07)
(-2.89973e-09 2.311e-09 3.28414e-07)
(-2.49649e-09 -1.78964e-09 2.43397e-07)
(-3.17404e-09 1.19771e-09 2.57652e-07)
(-2.60916e-10 6.45291e-10 1.92837e-07)
(-4.19173e-09 2.97047e-09 1.12604e-07)
(-8.75445e-10 2.1861e-09 1.99271e-07)
(-7.22159e-09 -8.19443e-09 1.60823e-07)
(-3.43916e-09 3.78011e-09 2.08357e-07)
(-1.30293e-09 -1.89136e-09 1.50882e-07)
(-9.22232e-10 -4.28727e-09 1.11201e-07)
(-3.69391e-09 -3.51753e-10 2.4193e-07)
(4.3501e-10 1.94709e-09 2.57073e-07)
(-2.38559e-09 -2.55261e-09 4.52099e-08)
(-4.84964e-09 1.86602e-10 9.038e-08)
(-3.74957e-09 1.26939e-09 1.61716e-07)
(-4.42481e-09 6.7531e-09 1.69069e-07)
(1.76626e-11 2.80839e-09 2.02048e-07)
(-2.33099e-09 9.42082e-10 1.48151e-07)
(-1.23657e-09 -4.33142e-09 2.42916e-07)
(-2.39525e-09 -3.19265e-09 3.92924e-08)
(-2.00589e-09 -2.85606e-09 4.6091e-08)
(-4.07076e-09 -1.42357e-09 5.43091e-08)
(2.81819e-09 -1.44499e-09 1.41293e-07)
(-6.22871e-09 -5.56171e-10 2.116e-07)
(-6.63237e-09 -4.92768e-09 3.7001e-07)
(1.38205e-09 -9.90617e-10 1.25215e-07)
(3.16939e-09 2.78474e-10 1.90623e-07)
(3.96158e-09 1.05722e-09 2.71811e-08)
(-4.1497e-09 3.31786e-10 1.49165e-07)
(3.92276e-09 1.64622e-09 4.10343e-08)
(1.29159e-10 1.88872e-09 1.25954e-07)
(-1.03813e-09 -1.61111e-09 1.83333e-07)
(-7.32491e-10 -1.2537e-09 1.82927e-07)
(5.24953e-09 6.6817e-10 2.4889e-07)
(8.64196e-10 1.68509e-09 2.37533e-07)
(-6.52452e-11 -5.73968e-10 2.23387e-07)
(8.04889e-09 -8.89397e-09 3.35888e-07)
(-3.64107e-09 -1.90781e-09 2.06349e-07)
(1.80413e-09 1.5105e-09 1.44513e-07)
(-1.47613e-09 2.64337e-09 2.70003e-07)
(-1.34601e-10 -1.02306e-09 2.61215e-07)
(-9.02451e-10 -2.02864e-11 2.63983e-07)
(2.81043e-12 -9.18834e-10 1.52767e-07)
(-4.62e-09 -3.00205e-09 2.56148e-07)
(4.06668e-09 6.15142e-09 1.15091e-07)
(3.1055e-09 3.27379e-09 1.24323e-07)
(2.42042e-10 -1.42196e-09 2.30973e-07)
(-4.97516e-09 1.02894e-09 2.25992e-07)
(6.56001e-10 4.21924e-09 2.61548e-07)
(-3.07813e-09 3.95802e-09 2.29885e-07)
(1.46004e-09 -9.96387e-12 8.59928e-08)
(1.80329e-09 -4.72459e-09 1.51982e-07)
(4.72328e-09 -4.75593e-09 2.74382e-07)
(-5.02548e-10 1.43597e-09 2.73347e-07)
(3.73693e-11 -5.96272e-09 8.26088e-08)
(4.03806e-10 3.03183e-09 1.0249e-07)
(-5.63108e-09 1.77868e-09 1.91581e-07)
(-8.71052e-10 -1.17567e-09 1.5314e-07)
(-1.79711e-09 9.49428e-10 3.84806e-07)
(2.45577e-09 3.50298e-09 1.87295e-07)
(-6.30117e-09 9.03893e-10 2.84232e-07)
(2.05257e-09 4.22136e-09 2.29279e-07)
(-2.27887e-09 -3.7957e-09 2.77374e-08)
(-3.33146e-09 4.0111e-09 2.63786e-07)
(4.37155e-09 -2.72138e-09 3.98124e-08)
(1.81812e-09 1.19747e-09 7.73508e-08)
(-1.98478e-09 -4.25322e-09 2.70826e-07)
(2.24736e-09 2.03053e-09 2.47662e-07)
(-5.91722e-09 1.88228e-10 3.985e-08)
(-4.51014e-09 4.81337e-09 3.26823e-07)
(-1.78177e-09 9.29867e-10 2.67236e-07)
(2.00154e-09 -7.79239e-10 2.06508e-07)
(-1.67952e-09 -1.68579e-09 2.49804e-07)
(4.04612e-09 -2.80075e-09 3.57172e-08)
(-5.01368e-09 -9.90011e-11 2.15458e-07)
(-5.56136e-10 -2.18069e-09 1.1031e-07)
(-6.63006e-10 -1.9481e-09 1.27913e-07)
(-5.0582e-09 -8.76916e-10 2.52224e-07)
(-6.86565e-14 -8.34809e-10 1.62936e-07)
(5.27919e-10 -1.45352e-09 2.15305e-07)
(8.28198e-10 1.44753e-09 2.24074e-07)
(5.45862e-10 4.01416e-09 5.70334e-08)
(4.65338e-09 -1.81079e-09 2.44135e-07)
(2.64209e-09 2.50575e-09 1.9417e-07)
(-2.63846e-09 -3.36838e-09 2.7823e-07)
(2.4558e-09 -4.06808e-09 2.15619e-07)
(3.13694e-09 4.96749e-09 3.48921e-07)
(2.04379e-09 3.79111e-09 1.95969e-07)
(-2.09965e-09 -1.64283e-09 2.89247e-08)
(2.34051e-09 2.00999e-09 4.95093e-08)
(-2.12041e-09 6.67729e-09 4.55741e-07)
(-4.34548e-09 2.02984e-10 2.79399e-08)
(-2.84408e-09 -5.21865e-09 2.26054e-07)
(8.23166e-10 5.40559e-09 9.59962e-08)
(4.47983e-09 1.49906e-09 2.67801e-07)
(-3.86959e-11 -6.66393e-10 3.1909e-07)
(4.32757e-09 1.62964e-09 3.05489e-07)
(4.08173e-09 4.40488e-10 1.59298e-07)
(3.81852e-09 -3.38564e-09 3.48743e-07)
(-4.13497e-10 9.32683e-09 9.56127e-08)
(4.82994e-09 -5.27394e-09 1.04914e-07)
(2.66462e-09 -2.66433e-09 1.71491e-07)
(2.73725e-09 -3.34149e-09 1.84858e-07)
(-2.73609e-08 -6.05707e-09 2.69985e-07)
(3.96317e-10 -2.96017e-09 2.25336e-07)
(-2.89967e-10 2.94204e-10 9.43232e-08)
(3.86953e-09 -3.81964e-10 1.35198e-07)
(4.28267e-10 -1.26061e-09 2.32381e-07)
(2.55692e-10 -7.53933e-10 1.76485e-07)
(-2.79801e-09 1.99295e-09 3.27275e-07)
(-1.17258e-09 2.24037e-09 1.74353e-07)
(-1.37822e-09 9.09744e-09 4.34326e-07)
(-7.23135e-09 2.67582e-09 1.7696e-07)
(-6.6685e-10 2.89693e-09 3.45164e-07)
(2.14933e-09 -3.04414e-10 2.26458e-07)
(-2.07472e-10 -5.74174e-10 1.71639e-07)
(1.89377e-09 1.5494e-09 2.98576e-07)
(-6.75169e-09 -7.56673e-09 1.27206e-07)
(4.78908e-09 -3.15327e-09 3.2059e-08)
(1.04214e-09 -7.06383e-10 2.70552e-07)
(1.3952e-09 4.04688e-09 8.07413e-08)
(-1.26632e-09 -1.07818e-09 3.82703e-08)
(-5.86477e-09 -5.22937e-09 3.37328e-07)
(1.38238e-09 -1.02433e-09 1.91332e-07)
(3.00447e-10 1.3639e-09 1.2117e-07)
(-2.0572e-09 9.59155e-10 2.05089e-07)
(1.01917e-09 1.05446e-09 2.8256e-07)
(-1.95558e-09 -3.49435e-09 3.29745e-07)
(1.63937e-09 -6.56412e-10 2.18101e-07)
(1.42143e-10 -4.65129e-10 4.55187e-08)
(-9.83427e-10 -3.0262e-09 2.92086e-07)
(-1.04258e-09 -1.91325e-10 1.70707e-07)
(-4.83907e-10 2.99244e-09 1.34419e-07)
(5.85447e-10 -3.47092e-09 2.26732e-07)
(1.13348e-09 3.30654e-10 1.99942e-07)
(1.31346e-09 -1.6192e-10 1.76606e-07)
(-2.01781e-09 -7.2527e-10 2.10417e-07)
(-2.93908e-09 -6.97296e-10 2.47967e-07)
(-3.0074e-10 2.43362e-09 1.98741e-07)
(-1.76382e-09 7.52124e-10 1.02777e-07)
(-2.56477e-10 6.05599e-10 2.88539e-08)
(-5.91376e-10 5.06915e-09 5.96297e-08)
(2.00934e-09 4.8959e-09 2.70586e-07)
(-3.44458e-08 4.95394e-09 2.73658e-07)
(-1.04535e-08 8.41679e-10 1.17724e-07)
(-2.70062e-09 -1.34646e-10 1.37462e-07)
(3.42764e-09 -3.65726e-09 2.86151e-07)
(3.38629e-09 -2.66715e-10 3.10433e-07)
(-2.85487e-10 1.14265e-09 1.93803e-07)
(1.8285e-09 -1.79183e-10 3.34365e-07)
(-1.29891e-09 -2.96e-09 3.62792e-07)
(-4.05136e-10 3.06144e-10 2.05705e-07)
(-2.44247e-10 3.24576e-10 1.25608e-07)
(-4.26575e-10 -5.4504e-10 3.07699e-08)
(-4.26933e-08 1.88981e-09 2.41941e-07)
(-4.12731e-10 4.36755e-09 1.12335e-07)
(-3.78418e-09 1.46747e-09 9.34504e-08)
(-6.53057e-11 -2.03807e-10 1.01119e-07)
(5.75155e-11 -1.70551e-09 1.50636e-07)
(2.255e-09 1.23772e-09 2.07906e-07)
(-1.54384e-09 -8.41941e-10 2.11084e-07)
(-2.13761e-09 2.57953e-09 2.25762e-08)
(-2.30128e-10 -2.75231e-10 1.74615e-07)
(1.83961e-09 1.6836e-09 8.79753e-08)
(-1.23064e-09 1.11581e-09 1.59681e-07)
(-6.47233e-10 2.02697e-09 7.23102e-08)
(7.88226e-09 -9.59115e-10 1.79049e-07)
(2.94694e-09 1.80695e-09 2.63629e-07)
(-1.0912e-09 1.63304e-09 1.60409e-07)
(4.39584e-09 -2.33267e-11 2.89125e-08)
(2.12822e-09 9.138e-09 1.49566e-07)
(-1.43758e-09 3.49692e-10 2.37765e-07)
(-8.70524e-10 -2.34584e-09 3.85209e-08)
(-4.29806e-09 9.74624e-10 2.84981e-07)
(-4.20289e-10 -7.15106e-10 1.96429e-07)
(4.20184e-09 3.39624e-09 3.17318e-07)
(5.06991e-09 1.91508e-09 2.44401e-07)
(3.47061e-09 1.68029e-09 1.15184e-07)
(5.17421e-09 -4.11041e-09 3.54712e-07)
(-1.72222e-08 -7.61273e-09 1.44146e-07)
(-2.92206e-09 -1.43226e-09 2.54658e-07)
(-1.19922e-08 -1.09328e-10 1.56913e-07)
(2.2345e-10 5.59533e-09 1.94546e-07)
(-3.90427e-10 1.10952e-10 1.9858e-07)
(9.61685e-10 -4.88981e-10 2.16135e-07)
(2.08065e-09 -3.48463e-09 4.41104e-07)
(3.82381e-10 7.00563e-10 1.01909e-07)
(-2.22836e-10 1.47203e-09 3.54519e-07)
(-1.56228e-09 1.82209e-09 1.41176e-07)
(2.09351e-09 -9.70169e-10 3.43913e-07)
(1.78588e-09 -1.94725e-09 2.60769e-07)
(-1.3139e-09 -4.57485e-09 1.02463e-07)
(-1.84151e-09 6.87662e-10 2.2699e-07)
(-6.24206e-10 1.3987e-09 3.713e-07)
(-8.14728e-11 1.64444e-09 2.18116e-07)
(-4.71113e-11 1.64004e-09 2.01336e-07)
(3.80681e-09 -7.87781e-10 3.82349e-08)
(-4.30872e-09 2.61142e-10 2.90752e-08)
(1.65424e-10 3.76999e-09 3.12273e-07)
(1.96535e-09 -9.84244e-10 2.31693e-07)
(-6.4333e-10 2.53001e-09 1.73814e-07)
(-3.27304e-09 3.58592e-10 5.17822e-08)
(3.9054e-11 4.26101e-10 7.26345e-08)
(-1.2246e-09 7.9008e-09 3.62693e-07)
(-1.74085e-09 1.16861e-09 1.30948e-07)
(2.81456e-09 4.9927e-10 2.52071e-07)
(-1.80795e-10 -2.25862e-11 2.22799e-07)
(2.49733e-10 -2.63146e-09 1.79316e-07)
(6.64649e-10 -2.51358e-09 1.94077e-07)
(-2.3094e-09 1.27636e-09 1.46163e-07)
(-2.01366e-09 2.11333e-10 1.65597e-07)
(-2.9628e-09 1.60758e-09 1.15283e-07)
(3.56176e-09 3.70043e-09 2.42732e-07)
(-1.63705e-09 -2.51852e-09 2.22219e-07)
(2.00943e-10 1.66667e-09 1.89645e-07)
(-7.39733e-11 -1.22459e-09 1.76728e-07)
(-1.99078e-09 -1.78321e-09 3.33088e-07)
(1.55587e-09 4.04477e-09 2.53699e-07)
(5.07716e-09 4.04027e-09 9.13908e-08)
(2.15263e-09 2.4056e-09 6.75029e-08)
(-3.18256e-09 -2.89421e-09 2.65212e-08)
(-2.83704e-09 8.89035e-10 2.00047e-07)
(7.61342e-10 -5.17641e-10 2.28473e-07)
(6.35043e-10 -4.60926e-10 2.61989e-07)
(7.38705e-10 -3.78483e-09 2.05804e-07)
(1.24806e-09 5.85121e-11 4.53097e-08)
(1.34673e-09 -2.71259e-09 3.07299e-08)
(-3.06156e-09 3.83861e-10 2.06942e-07)
(-4.76611e-10 -1.15246e-11 2.06953e-07)
(-2.15994e-09 8.7057e-10 2.48725e-07)
(2.30118e-10 -2.84535e-09 3.00332e-07)
(-1.58033e-09 -3.10576e-09 2.06191e-07)
(-1.77932e-09 2.48218e-09 2.62746e-07)
(5.56203e-10 -5.55805e-09 3.90119e-07)
(-1.96362e-09 4.86167e-09 4.41622e-08)
(-1.40662e-09 2.4295e-09 2.00703e-07)
(3.38695e-09 -2.02457e-09 9.84745e-08)
(-9.31678e-09 -1.53305e-09 1.00343e-07)
(8.69767e-10 -4.39719e-10 1.16146e-07)
(-1.67885e-09 1.4424e-09 1.84697e-07)
(1.74055e-09 -2.62976e-09 2.41916e-07)
(-5.20913e-09 1.67408e-09 2.74661e-08)
(3.87214e-09 -1.10738e-09 2.85999e-07)
(-1.54169e-09 2.44123e-10 2.12177e-07)
(-1.09433e-09 1.86089e-10 1.66042e-07)
(4.85746e-09 -1.37825e-09 2.62871e-07)
(7.66141e-12 1.65123e-10 1.51007e-07)
(-2.71728e-09 1.38911e-09 2.09457e-07)
(-1.29034e-09 -9.24471e-10 2.6483e-07)
(3.11011e-10 -1.52696e-09 2.28263e-07)
(-4.87479e-09 -3.45253e-09 1.82219e-07)
(1.77045e-09 2.84061e-09 2.2182e-07)
(-2.50319e-09 3.24706e-09 2.76923e-07)
(2.71e-09 -8.80665e-10 2.76878e-08)
(-9.76122e-10 3.83913e-09 2.42862e-07)
(6.15014e-10 -1.36501e-09 2.09421e-07)
(-5.01351e-09 -4.84983e-09 9.67133e-08)
(-2.67288e-09 3.16582e-09 2.11966e-07)
(2.1421e-09 2.85526e-09 2.90245e-07)
(1.90833e-10 9.36213e-10 2.40232e-07)
(2.18073e-09 2.04574e-09 1.50078e-07)
(-3.02381e-09 4.23909e-10 2.75205e-08)
(-3.93272e-10 1.07182e-10 2.09605e-07)
(-1.32944e-09 3.39197e-09 3.67234e-07)
(3.15609e-10 4.00865e-10 2.13351e-07)
(-1.81175e-09 2.11786e-09 2.03411e-07)
(-4.40272e-09 2.2686e-09 8.47913e-08)
(1.6858e-09 2.19905e-09 2.46997e-07)
(-4.91398e-09 -1.19387e-09 3.13515e-08)
(-1.03749e-09 4.374e-10 1.47965e-07)
(-2.32453e-08 9.27403e-10 2.08561e-07)
(-2.02613e-09 1.08793e-09 2.10482e-07)
(-1.7246e-09 3.62993e-09 1.16585e-07)
(-4.59208e-09 1.04425e-09 2.16236e-07)
(-2.08475e-09 3.75131e-09 1.41324e-07)
(4.32529e-09 -5.28333e-09 6.66177e-08)
(1.72993e-09 -8.41362e-10 3.5138e-07)
(-1.0158e-09 3.00588e-09 1.6628e-07)
(-3.14482e-09 -8.20562e-10 2.64081e-08)
(1.75197e-09 -1.5042e-09 2.36171e-07)
(8.44983e-11 -4.30101e-09 2.09223e-07)
(-2.26764e-10 1.63482e-09 5.5586e-08)
(4.42681e-09 7.9342e-09 1.70659e-07)
(-2.29479e-09 1.53443e-09 1.38978e-07)
(1.34611e-10 1.12168e-09 1.7026e-07)
(4.82631e-09 -3.86211e-10 1.99343e-07)
(-1.28951e-09 1.60696e-09 4.0046e-08)
(3.15669e-09 1.01588e-09 1.29896e-07)
(6.59078e-11 4.79421e-09 1.42302e-07)
(3.77538e-09 4.69056e-09 1.96612e-07)
(5.5918e-09 -2.24317e-09 2.55507e-07)
(-4.93888e-09 -2.02379e-09 3.40659e-08)
(1.36228e-09 5.44001e-09 3.30813e-07)
(-3.32981e-09 1.86706e-09 2.16404e-07)
(-3.17665e-09 7.09742e-10 2.11903e-07)
(-2.84921e-09 -6.39836e-09 1.14252e-07)
(2.2278e-09 -2.08278e-10 2.85696e-07)
(2.23593e-09 -4.22827e-09 3.46355e-08)
(-2.2789e-09 3.26677e-10 2.52389e-07)
(1.86554e-10 -8.29412e-10 3.80504e-08)
(3.63037e-09 -9.12972e-09 1.66957e-07)
(1.16052e-09 -1.29222e-09 2.0518e-07)
(-1.96384e-09 7.05408e-09 1.7923e-07)
(-4.97927e-09 2.9376e-09 2.77387e-08)
(7.84475e-10 -5.22036e-09 7.13239e-08)
(-7.78216e-10 9.16134e-09 1.05787e-07)
(5.92968e-09 -5.12271e-09 1.73459e-07)
(-3.04357e-09 1.55453e-09 3.08097e-07)
(-1.476e-09 2.08242e-09 7.84588e-08)
(2.24184e-09 -4.32599e-09 1.9233e-07)
(-1.81657e-08 -1.71966e-09 2.24339e-07)
(-2.21904e-09 2.48624e-09 1.72155e-07)
(2.61691e-09 -1.09735e-09 3.97873e-08)
(3.05777e-09 1.13159e-09 2.66486e-07)
(-1.09312e-08 -9.06618e-09 1.51226e-07)
(1.62177e-09 1.27101e-09 1.66627e-07)
(-2.89237e-09 4.42304e-10 1.26523e-07)
(-1.23615e-09 2.89487e-09 1.45153e-07)
(6.85415e-09 6.14888e-09 1.43994e-07)
(-1.87269e-09 4.77569e-10 1.72423e-07)
(-7.26578e-10 -9.09654e-10 1.27137e-07)
(7.94567e-09 -7.51291e-09 9.63425e-08)
(1.2491e-10 -1.24541e-09 2.44965e-07)
(-4.4314e-09 -9.73764e-10 7.10208e-08)
(3.46286e-09 -1.63343e-09 2.30215e-08)
(-1.40589e-09 -1.29375e-10 3.04127e-07)
(1.08247e-10 -2.12068e-09 1.47136e-07)
(-7.96602e-10 -3.34007e-09 2.98923e-07)
(2.85697e-09 -6.51136e-09 2.44915e-07)
(5.25536e-09 1.48797e-09 3.66793e-07)
(3.93576e-09 -6.0438e-09 1.76788e-07)
(3.72349e-09 2.76409e-09 3.4928e-07)
(4.14762e-09 4.1943e-09 1.20193e-07)
(-1.43019e-09 -3.54826e-10 1.22613e-07)
(4.79512e-09 3.41647e-09 3.29597e-07)
(-6.58438e-09 -5.07387e-09 4.7116e-08)
(1.04086e-09 2.35696e-09 2.8466e-07)
(4.12588e-09 -5.90112e-09 1.64662e-07)
(3.04682e-09 5.26044e-09 4.34042e-08)
(1.09671e-09 -1.68072e-09 2.71908e-07)
(-2.30208e-09 -8.24692e-11 8.57563e-08)
(8.43562e-10 -6.46931e-10 1.98587e-07)
(-4.43534e-11 -5.14273e-10 1.72041e-07)
(-3.33164e-09 9.12951e-09 3.78128e-07)
(1.7018e-09 8.98192e-09 1.40692e-07)
(6.95537e-10 -4.57104e-10 2.3266e-07)
(1.87657e-09 -1.11271e-09 1.87495e-07)
(-1.7478e-09 -5.68468e-10 2.52785e-07)
(3.01529e-09 -8.82771e-10 2.60725e-07)
(2.14372e-09 -3.363e-11 2.25391e-07)
(2.21508e-10 -1.68844e-09 1.31761e-07)
(4.01544e-09 -3.22616e-09 6.97736e-08)
(2.47908e-09 1.3276e-09 9.42863e-08)
(-1.43362e-09 6.0763e-10 1.4444e-07)
(-8.85089e-10 5.75719e-10 2.52423e-07)
(9.18003e-10 3.80211e-09 4.25692e-08)
(-2.68899e-09 -3.74141e-10 2.14678e-07)
(-2.59171e-09 1.77637e-09 3.91583e-07)
(2.48654e-09 2.42715e-09 2.89749e-07)
(1.74596e-09 3.28238e-09 3.00275e-07)
(-3.43724e-09 -1.8397e-09 2.79184e-07)
(-2.90225e-09 2.54061e-09 2.73651e-08)
(-9.08152e-10 3.45548e-11 1.90498e-07)
(2.97957e-09 -5.10206e-09 1.69083e-07)
(1.38497e-10 -2.21955e-09 2.3582e-07)
(1.32641e-09 1.70359e-09 1.9694e-07)
(-5.39271e-09 -1.23653e-09 5.42612e-08)
(-8.0696e-10 2.44491e-09 1.65036e-07)
(1.70257e-09 5.44708e-10 1.81234e-07)
(2.39285e-09 2.33221e-09 2.57814e-07)
(1.5479e-09 3.78163e-09 2.10757e-07)
(3.33469e-10 -1.32213e-10 1.97021e-07)
(2.34742e-09 2.19901e-09 1.90961e-08)
(-3.79081e-09 1.78516e-09 2.92993e-08)
(5.7973e-10 -3.43626e-09 1.4543e-07)
(-1.08427e-09 2.86514e-09 2.50182e-07)
(1.11667e-10 1.19661e-09 1.77146e-07)
(-1.26092e-09 1.49711e-09 1.64932e-07)
(6.84834e-10 6.02852e-10 1.97601e-07)
(-5.43785e-10 2.48014e-09 2.38412e-07)
(1.95599e-09 -2.43759e-09 2.37019e-07)
(5.64632e-10 1.93857e-09 2.88898e-08)
(9.81539e-10 -2.72435e-09 1.14068e-07)
(-8.58337e-09 -4.0349e-10 1.73489e-07)
(-1.02738e-09 4.26235e-09 7.11887e-08)
(-2.20011e-09 8.11119e-09 1.13362e-07)
(1.85208e-09 3.04477e-09 3.0603e-07)
(2.07951e-09 2.53961e-09 2.1259e-07)
(-2.09151e-09 -3.02601e-09 2.04026e-07)
(8.6892e-10 2.14409e-09 2.61639e-07)
(-3.35667e-09 1.3911e-09 1.65229e-07)
(-2.23946e-09 1.03777e-11 2.64062e-07)
(2.90167e-09 -4.34905e-09 2.21961e-07)
(4.98644e-09 -2.27329e-09 3.58575e-07)
(1.09123e-09 -2.8093e-09 1.78567e-07)
(3.28613e-09 -5.13009e-09 1.87445e-07)
(3.65593e-09 5.36954e-10 2.52521e-07)
(2.96249e-09 5.60851e-09 6.75312e-08)
(-5.41236e-11 4.98954e-09 4.83371e-07)
(-4.12201e-10 -1.65657e-09 4.97533e-08)
(-1.54353e-08 -1.67922e-09 1.5068e-07)
(7.26854e-09 -2.4928e-10 1.50548e-07)
(-1.09671e-08 -6.33518e-10 1.60073e-07)
(1.56644e-09 -2.03407e-09 2.24526e-07)
(-3.94056e-08 2.94726e-10 2.93424e-07)
(-4.13156e-10 -3.60501e-10 1.1415e-07)
(7.46078e-10 -1.04587e-10 2.74686e-07)
(-3.04372e-09 1.14883e-09 3.03128e-07)
(1.925e-09 1.37094e-09 1.77949e-07)
(-1.15166e-09 -6.90357e-10 5.18425e-08)
(-4.91299e-09 2.82272e-10 1.18625e-07)
(-2.60864e-08 1.84477e-09 2.1039e-07)
(-3.06858e-10 -1.54267e-09 1.73078e-07)
(5.9382e-10 2.48668e-09 1.12825e-07)
(-1.16689e-08 -3.94882e-10 2.14457e-07)
(-1.41708e-10 1.56021e-09 2.06376e-07)
(2.2977e-09 -9.51988e-10 3.61819e-07)
(-1.86921e-09 -2.07199e-09 6.64455e-08)
(3.39827e-09 1.10604e-09 7.14524e-08)
(-6.05587e-10 1.08043e-09 4.19787e-08)
(2.1338e-09 1.04846e-09 2.83086e-08)
(-1.79749e-10 -1.69933e-09 6.44738e-08)
(-2.18573e-09 3.09598e-09 2.23371e-07)
(3.75302e-10 8.08654e-10 1.80459e-07)
(-3.61902e-09 -2.62868e-09 2.78514e-08)
(-4.69272e-09 1.42999e-09 2.90363e-08)
(3.53717e-09 3.72389e-09 2.77384e-07)
(-2.34788e-08 4.8207e-09 1.70029e-07)
(-2.14783e-09 -2.5112e-10 6.52758e-08)
(-1.44056e-09 -1.7841e-09 2.17222e-07)
(-1.99192e-09 2.89738e-09 1.30489e-07)
(4.01289e-10 -2.46346e-10 2.06706e-07)
(2.25851e-09 3.14236e-09 6.27109e-08)
(-7.10441e-10 5.23718e-10 1.28638e-07)
(-5.74138e-10 1.26577e-09 2.16723e-07)
(-9.59769e-11 2.49538e-09 2.24592e-07)
(-2.57115e-09 4.26077e-09 3.65717e-07)
(-4.61515e-09 8.10802e-09 6.61645e-08)
(-2.33202e-09 -1.90124e-09 3.7225e-08)
(-3.49165e-08 1.03569e-09 2.01577e-07)
(-5.32388e-09 1.36771e-09 4.16238e-08)
(-9.5717e-10 1.62833e-09 3.21736e-07)
(-6.74613e-09 -9.7563e-10 4.21395e-08)
(5.7379e-10 2.15064e-09 1.72335e-07)
(-6.66344e-10 -4.48376e-10 2.47783e-07)
(2.18021e-09 4.6461e-09 3.71035e-07)
(-2.24743e-09 5.81162e-10 8.1477e-08)
(1.16118e-09 -4.84512e-09 1.72891e-07)
(-2.8087e-09 4.89961e-11 5.62486e-08)
(-6.35143e-09 -4.09862e-10 4.60826e-08)
(-7.58977e-10 -1.98621e-09 2.11492e-07)
(-3.62937e-09 6.81798e-10 2.09061e-08)
(2.03942e-09 -1.95291e-09 1.5335e-07)
(-1.65665e-09 -4.1285e-09 8.89591e-08)
(1.97101e-10 1.04372e-09 2.97595e-07)
(-1.76898e-09 1.83282e-09 2.23588e-07)
(4.42345e-09 1.36214e-09 2.96608e-08)
(-3.02967e-09 -6.19102e-09 1.72891e-07)
(-1.31912e-11 -2.17148e-09 2.32267e-07)
(-7.65951e-10 2.9962e-09 4.55255e-08)
(-3.60778e-10 -1.40994e-09 2.47924e-07)
(-2.20233e-09 7.62471e-09 1.0993e-07)
(1.17663e-09 -4.48415e-09 2.4727e-07)
(-6.80813e-10 1.58177e-09 1.80718e-07)
(3.18172e-09 1.85244e-10 8.55341e-08)
(-4.91599e-09 -3.32317e-10 3.15739e-08)
(1.177e-10 -4.81071e-09 1.29955e-07)
(-3.54114e-08 -1.91829e-09 2.44035e-07)
(-1.82954e-09 1.29551e-09 2.76433e-07)
(3.2093e-09 5.43778e-09 1.09731e-07)
(4.17087e-09 7.10201e-10 2.43183e-07)
(5.51239e-10 1.05695e-09 3.49746e-08)
(-3.80596e-10 1.4905e-09 1.5917e-07)
(4.7612e-10 1.09881e-09 3.67416e-08)
(4.26408e-10 6.4635e-09 2.89042e-07)
(3.39655e-09 3.2766e-09 2.99615e-07)
(1.01825e-09 9.24052e-11 1.8933e-07)
(-2.67609e-09 -1.9012e-10 2.21996e-08)
(2.37715e-09 3.72187e-09 3.28674e-07)
(1.54326e-09 2.70422e-09 1.84484e-07)
(1.79549e-09 5.21995e-09 3.21287e-07)
(8.97684e-10 9.565e-10 8.46954e-08)
(-2.69635e-08 1.50354e-09 2.22755e-07)
(-1.48625e-09 2.02308e-09 2.38539e-07)
(-8.71763e-10 -3.40599e-09 1.01232e-07)
(-3.0362e-10 -1.2415e-09 1.93974e-07)
(-3.66114e-08 4.65124e-09 2.10302e-07)
(-9.14398e-12 -5.96779e-11 2.04102e-07)
(-1.72179e-09 -3.66838e-09 4.82386e-08)
(-2.29508e-09 8.54014e-09 1.46416e-07)
(4.77999e-10 2.21647e-10 1.52804e-07)
(-6.72541e-11 -1.08491e-09 2.32275e-07)
(-3.40655e-09 6.52479e-09 4.6935e-08)
(4.34108e-10 -4.10974e-09 2.5847e-07)
(8.03378e-09 -8.97047e-09 2.13171e-07)
(-3.09223e-09 3.60539e-09 3.62035e-08)
(6.06076e-10 -4.24387e-11 1.64189e-07)
(-1.50294e-08 1.15072e-09 1.5826e-07)
(6.58089e-11 -5.72903e-09 3.44341e-07)
(7.76653e-10 3.46056e-11 1.67526e-07)
(6.0482e-10 3.25815e-10 1.49344e-07)
(1.87835e-09 1.33984e-09 2.59471e-07)
(1.85332e-09 2.98812e-09 2.77976e-07)
(3.47179e-09 4.17478e-09 1.02391e-07)
(1.7418e-09 1.18258e-08 1.13025e-07)
(4.02599e-09 -1.07752e-09 3.06424e-07)
(-2.3681e-08 -6.19238e-11 2.25326e-07)
(8.15365e-10 -2.89344e-09 2.28009e-07)
(-1.19886e-11 1.24767e-09 2.04688e-07)
(3.19103e-09 -2.66235e-09 1.67512e-07)
(-6.83528e-10 -1.12315e-09 3.19576e-07)
(-1.48554e-09 1.14927e-10 1.75742e-07)
(-5.27371e-09 -1.82393e-09 2.27439e-07)
(-4.94295e-09 8.18437e-10 2.64347e-07)
(-7.89547e-10 5.10988e-09 5.94294e-08)
(-4.2545e-09 -4.06586e-10 2.2233e-07)
(-1.25922e-09 -2.15488e-09 6.53206e-08)
(2.45116e-10 7.95236e-11 2.87106e-07)
(-2.39158e-09 -2.11643e-09 2.69089e-07)
(4.41794e-09 4.29647e-09 2.07756e-07)
(-3.72322e-09 3.27259e-10 1.91536e-07)
(2.25874e-09 -2.09147e-09 2.61426e-08)
(-1.09983e-09 -3.58085e-09 1.38541e-07)
(-5.03804e-09 -1.83998e-09 1.00658e-07)
(-4.38075e-10 -2.80597e-10 2.14704e-07)
(-4.78884e-10 2.3838e-09 1.91296e-07)
(-2.16418e-08 -1.09043e-09 2.21118e-07)
(-1.02923e-10 1.5861e-09 2.67221e-07)
(-6.44894e-10 3.82045e-09 1.04955e-07)
(-1.09249e-08 1.03889e-09 1.36353e-07)
(-3.26777e-09 2.24393e-09 2.53975e-07)
(5.09432e-09 1.43097e-09 4.65944e-08)
(1.11598e-10 1.7714e-09 1.96405e-07)
(-4.16859e-11 2.64046e-09 8.11283e-08)
(9.21495e-11 -3.08358e-11 2.06725e-07)
(6.6732e-09 -3.9815e-10 4.74372e-08)
(5.53905e-09 2.23803e-09 3.03966e-07)