/*--------------------------------*- C++ -*----------------------------------*\
| =========                 |                                                 |
| \\      /  F ield         | OpenFOAM: The Open Source CFD Toolbox           |
|  \\    /   O peration     | Version:  2406                                  |
|   \\  /    A nd           | Website:  www.openfoam.com                      |
|    \\/     M anipulation  |                                                 |
\*---------------------------------------------------------------------------*/
FoamFile
{
    version     2.0;
    format      ascii;
    arch        "LSB;label=32;scalar=64";
    class       volScalarField;
    location    "16";
    object      nut;
}
// * * * * * * * * * * * * * * * * * * * * * * * * * * * * * * * * * * * * * //

dimensions      [0 2 -1 0 0 0 0];

internalField   nonuniform List<scalar> 
59516
(
0.000152343
0.000182391
0.00024035
0.000435125
0.00145105
0.000186535
0.000365114
0.000165527
0.000195242
0.000148264
0.00170776
0.000122924
0.000197166
0.000192705
0.000148658
0.000124756
0.00137157
0.000133601
0.000201853
0.00104778
0.00019174
0.000594456
0.000750087
0.000184898
0.000791971
0.000148049
0.000178112
0.0002028
0.000152553
0.000170165
0.000262255
0.000196505
0.000427883
0.000261246
0.000566196
0.000489829
0.000170098
0.000123406
0.000126702
0.000832191
0.000165074
0.000847857
0.000635709
0.000216377
0.000527489
0.00012384
0.00032789
0.00133847
0.00100898
0.00101936
0.000635476
0.00018247
0.00022527
0.0002585
0.000211585
0.000331946
0.00118194
0.000205258
0.00142234
0.000474624
0.000754088
0.000189698
0.00135487
0.0012718
0.000321735
0.000781958
0.000244741
0.000176248
0.000527941
0.000410404
0.000265972
0.00116725
0.000215114
0.000534493
0.00154309
0.00100132
0.00134722
0.000651932
0.000175711
0.00109821
0.000175918
0.000877549
0.000570412
0.00019614
0.000824526
0.00136189
0.000170088
0.000561778
0.000130189
0.00014021
0.00117936
0.000576799
0.00135041
0.000558939
0.00113882
0.00129051
0.000634014
0.00012518
0.000132644
0.000679784
0.000200208
0.000215824
0.000208576
0.000124661
0.000444699
0.000812906
0.000191585
0.000188474
0.000180418
0.000151986
0.000408259
0.000235804
0.000154146
0.000241622
0.000879482
0.000157541
0.000128698
0.000458277
0.000197042
0.000633197
0.00185817
0.00130987
0.000917739
0.00130581
0.000548354
0.000116778
0.000232961
0.000525671
0.000288051
0.00152349
0.00171661
0.000196871
0.000187913
0.00060268
0.00014521
0.000207145
0.000174588
0.000304825
0.000188407
0.000172882
0.000184217
0.00166181
0.000166022
0.000347976
0.00160784
0.000529469
0.000472954
0.000234079
0.000253462
0.000186861
0.000153289
0.000168141
0.00109621
0.000782216
0.000124922
0.000181039
0.000266886
0.000197221
0.000107075
0.000182731
0.000175041
0.00017135
0.000177234
0.000221719
0.000152956
0.00121157
0.00013718
0.00149503
0.000173046
0.000563555
0.000117145
0.000114511
0.000127794
0.000551783
0.0001601
0.0003582
0.00133479
0.000758931
0.000161717
0.000151738
0.000602284
0.00016385
0.000246073
0.000120355
0.00165949
0.000120283
0.00014753
0.000184229
0.000242577
0.000158598
0.000488342
0.000118681
0.00101581
9.80947e-05
0.000724441
0.000142108
0.000126352
0.000153012
0.000269979
0.000643858
0.000154979
0.00187492
0.000147775
0.000171619
0.000351628
0.000534014
0.00156242
0.00100812
0.000188299
0.000241738
0.000134701
0.000210874
0.000602279
0.000135075
0.000242525
0.00130452
0.000474805
0.000828926
0.000133002
0.000904703
0.000139227
0.000204879
0.00132792
0.000204512
0.00138396
0.0013462
0.000228165
0.000177385
0.00133221
0.000127879
0.00135857
0.00129879
0.0018269
0.00020522
0.000168693
0.000148757
0.000116709
0.00016448
0.000950347
0.00014726
0.00169055
0.000199002
0.000120469
0.000224377
0.00170105
0.000106127
0.000671721
0.000152095
0.00122296
0.000170552
0.00105524
0.000530067
0.00189879
0.000642022
0.000600462
0.000869593
0.000129414
0.000851197
0.000175728
0.000149834
0.00037293
0.00108568
0.000230075
0.00135979
0.000174116
0.000110328
0.000989999
0.000122601
0.000225555
0.00010801
0.000163683
0.00140018
0.000124392
0.000133414
0.00120044
0.000118574
0.000181022
0.000998647
0.000206446
0.000175269
0.00176096
0.000513916
0.000225248
0.000256035
0.000306883
0.00126647
0.0017341
0.000231525
0.00173748
0.00197342
0.00156123
0.000432238
0.000539379
0.000134802
0.00123135
0.000245586
0.00101622
0.000512906
0.00188805
0.00132345
0.000201095
0.000117192
0.000197196
0.000213989
0.000927108
0.000195558
0.0001883
0.000137001
0.00119321
0.00111917
0.000724329
0.000126367
0.000173018
0.000191857
0.00012144
0.00111343
0.000138766
0.00120002
0.00014388
0.000160691
0.000165684
0.000192142
0.00152726
0.00187015
0.00190969
0.000953471
0.000151149
0.000376491
0.00128731
0.00104216
0.00106036
0.000125909
0.000203281
0.000753015
0.000170177
0.000170362
0.001104
0.000642701
0.000123882
0.00148567
0.00119207
0.00184422
0.00138287
0.000158886
0.000874577
0.00167292
0.000127358
0.00170858
0.00156025
0.00041337
0.000353105
0.000838772
0.00059516
9.85327e-05
0.000176391
0.000184087
0.000148034
0.000169728
0.000274284
0.000113297
0.000249843
0.000344488
0.0016798
0.000788292
0.000350511
0.00077424
0.000811431
0.000176254
0.000320461
0.000136648
0.000163538
0.000177244
0.00111736
0.000140108
0.00101805
0.000177123
0.000384598
0.000179651
0.00125469
0.000103053
0.000134449
0.000157988
0.00178996
0.000208543
0.000131059
0.000499286
0.000197947
0.000385983
0.000236975
0.000409045
0.0001581
0.000153591
0.00100754
0.000147427
0.00177372
0.000186691
0.000141234
0.000148089
0.00155334
0.00152001
0.000111373
0.000332532
0.000164324
0.00167792
0.0016089
0.000197724
0.000387995
0.0005996
0.000666175
0.000938468
0.000213243
0.000197295
0.000341174
0.00151832
0.00182033
0.000175039
0.00142478
0.000145404
0.00163514
0.00148045
0.00163901
0.00148338
0.00137868
0.000132965
0.00173547
0.000137722
0.00121136
0.000199399
0.000894067
0.00153076
0.000572596
0.000582614
0.000159183
0.000173779
0.000182869
0.00141557
0.00184678
0.000533152
0.00031407
0.000156001
0.000196732
0.000255609
0.000825192
0.00163784
0.000803465
0.000415815
0.00177027
0.000396796
0.000224621
0.00028649
0.000137533
0.000265779
0.000910871
0.000133386
0.000558798
0.000196843
0.00151851
0.00161507
0.00171949
0.000112375
0.000938467
0.00135651
0.000373548
0.00178572
0.000143998
0.00132143
0.000680613
0.000187521
0.00164904
0.000258811
0.000190359
0.000119141
0.00122191
0.000359593
0.000116151
0.000192436
0.00142638
0.000293066
0.000988896
0.000321536
0.000155749
0.000518566
0.000209566
0.00113798
0.000812476
0.00131475
0.000204215
0.000197798
0.000147541
0.000131817
0.00186448
0.00158236
0.00021619
0.0010739
0.00188715
0.000198343
0.000142013
0.000123699
0.000865596
0.00168091
0.000240964
0.000120675
0.000114024
0.000228366
0.00181547
0.000208043
0.000844869
0.000872577
0.00156433
0.000233622
0.00108015
0.000192187
0.00105534
0.000194868
0.00011214
0.000898685
0.000127783
0.000195174
0.000190265
0.000186256
0.000135044
0.00055691
0.000125124
0.000124643
0.000838871
0.00133728
0.000220306
0.00016516
0.000140791
0.00124682
0.00012569
0.00125828
0.000136454
0.00037218
0.00166652
0.000156736
0.00148358
0.000183948
0.000179379
0.000627847
0.00167291
0.000409071
0.000314542
0.00142406
0.000162672
0.00107465
0.000123331
0.00161337
0.000319358
0.00021945
0.000714136
0.000200119
0.00021798
0.000580702
0.000159277
0.00047112
0.00165134
0.000336048
0.000113753
0.00142913
0.000124102
0.00186224
0.00151308
0.00151479
0.0016629
0.000171767
0.000133425
0.00155181
0.00106472
0.000179954
0.00107809
0.00159164
0.00132502
0.00150876
0.000206984
0.000183176
0.00146704
0.000196675
0.000946283
0.000145597
0.000225446
0.00183698
0.000149381
0.000433649
0.00157106
0.000571082
0.000150298
0.000199161
0.00159055
0.00128263
0.00185234
0.000878867
0.000114535
0.000738993
0.00133679
0.000182545
0.00177893
0.000529794
0.00019576
0.000126335
0.000475293
0.000570296
0.000456641
0.000271753
0.000165102
0.00174523
0.000161674
0.00136718
0.0013292
0.00175661
0.00141636
0.000204259
0.000987361
0.000170563
0.000212213
0.000132089
0.00109124
0.000421688
0.000231193
0.00146097
0.00131239
0.000743235
0.00125617
0.000171428
0.00153729
0.000848361
0.0015419
0.00022557
0.000563338
0.00145145
0.000205835
0.000159952
0.00010657
0.00020531
0.000214986
0.000240262
0.000364358
0.000535785
0.000206365
0.000197173
0.00197188
0.000230301
0.000176477
0.000620436
0.000184637
0.000399757
0.000196908
0.000121626
0.000220481
0.00138155
0.000681351
0.000172992
0.000194296
0.000394253
0.000231342
0.000416642
0.000220826
0.000193659
0.00170949
0.00135992
0.000168329
0.00015998
0.000153051
0.00023168
0.0016237
0.000174559
0.00126247
0.000206635
0.000873461
0.000584395
0.000192789
0.000122299
0.000719834
0.000174027
0.00116292
0.000129409
0.000165748
0.00175606
0.000165547
0.0001976
0.000179417
0.000723165
0.000164175
0.000119834
8.71196e-05
0.000151116
0.00173743
0.000210934
0.00107911
0.000534064
0.00123954
0.000184196
0.000556544
0.000114592
0.00083868
0.000142377
0.000952308
0.000893318
0.000149123
0.00182305
0.000508059
0.000265311
0.000164927
0.000207777
0.00164665
0.00033653
0.000168388
0.000192533
0.000128226
0.000206346
0.00158543
0.00129176
0.000326126
0.00134395
0.00152632
0.00125412
0.000391076
0.000176259
0.000175757
0.00152565
0.00105098
0.000217073
0.000371566
9.98615e-05
0.000574302
0.001109
0.000151877
0.000146927
0.000209849
0.000176076
0.000207656
0.000822547
0.00140686
0.000120695
0.000141893
0.000176269
0.000111054
0.000135877
0.00152421
0.00151491
0.00123906
0.00106645
0.000105098
0.000851412
0.000441983
0.000224623
0.00156506
0.000117012
0.000475467
0.000231415
0.00128873
0.00139618
0.000933082
0.000211128
0.000748418
0.000618251
0.00181127
0.00018692
0.000211996
0.000143637
0.00154114
0.00089189
0.000477661
0.000871892
0.000165299
0.000167431
0.000138738
0.00149427
0.000349765
0.000698003
0.000193512
0.00182058
0.000193457
0.000120534
0.000992407
0.00022601
0.000154062
0.000140563
0.00019376
0.000165671
0.00131712
0.000132776
0.00018193
0.000178886
0.000206454
0.000144305
0.00145935
0.00193354
0.00139756
0.00102419
0.00153108
0.000285788
0.000156697
0.00134276
0.000346423
0.000112604
0.00018302
0.00112986
0.000188485
0.000130864
0.000734952
0.000176193
0.000112634
0.000156883
0.000149333
0.000869263
0.00028673
0.000307556
0.000165493
0.00023378
0.000122304
0.000188172
0.000293231
0.000960919
0.000350347
0.000167051
0.000504624
0.00083032
0.000207768
0.000959927
0.00109626
0.000151707
0.000203893
0.000242593
0.000169817
0.000204871
0.000993762
0.000199168
0.00150797
0.000915181
0.000353641
0.000846349
0.00090743
0.000157503
0.00170387
0.000177314
0.000175445
0.000168466
0.000174768
0.000177489
0.000675701
0.000727258
0.00144656
0.00131697
0.000113861
0.000893674
0.00181754
0.000144996
0.00020044
0.00118851
0.000145253
0.000198751
0.0010762
0.00165588
0.000872909
0.000128826
0.000324365
0.000161212
0.000125324
0.00017672
0.0001508
0.000342627
0.000111474
0.00111583
0.00153694
0.0017029
0.000443746
0.000210431
0.00031504
0.000194572
0.000173568
0.000313151
0.000505087
0.000404421
0.0016832
0.000671163
0.0017852
0.00161931
0.000227773
0.000258678
0.00140966
0.000197693
0.000498564
0.000831819
0.000159336
0.000831452
0.00157039
0.000166681
0.0014055
0.00183825
0.00135663
0.000138553
0.00151503
0.000194134
0.000164654
0.001388
0.000214921
0.000127767
0.000117333
0.000270167
0.000153919
0.000827036
0.00135132
0.00143938
0.000879988
0.000126481
0.000214035
0.000901809
0.00104328
0.000250804
0.000137885
0.000905135
0.00165421
0.00155056
0.00019739
0.00165093
0.000138277
0.000146148
0.000198624
0.000123846
0.000107851
0.00149274
0.000142773
0.00119792
0.00131974
0.00118529
0.00172575
0.00133949
0.00154236
0.00144443
0.00181125
0.00155736
0.000386695
0.000292406
0.000188089
0.000125273
0.00109886
0.000311228
0.000185788
0.00111286
0.000182927
0.00192936
0.00189706
0.0017728
0.000732015
0.000134494
0.00154128
0.000299021
0.000138705
0.0017369
0.000182745
0.00172218
0.000165629
0.000101998
0.00120977
0.000133753
0.000176122
0.00125955
0.00100241
0.000672515
0.000161857
0.00155785
0.000162825
0.00013354
0.00012724
0.000120108
0.000141972
0.0019058
0.000133761
0.000795044
0.00110647
0.000218836
0.00172656
0.00184065
0.000219212
0.00170662
0.00145694
0.000142886
0.00176568
0.000181502
0.000172747
0.00147178
0.000991131
0.000253632
0.00147397
0.000196088
9.53007e-05
0.00131647
0.000210036
0.00113642
0.00146963
0.000220995
0.000225233
0.000225202
0.00016962
0.00017757
0.000430176
0.000338514
0.000160848
0.000177772
0.000176877
0.00128567
0.00100124
0.00175622
0.00161979
0.000139964
0.000978887
0.00150196
0.000194001
0.000587535
0.000172928
0.000264668
0.000938585
0.0017733
0.000124975
0.000994298
0.000121178
0.000219128
0.000188973
0.000283771
0.000128662
0.000173508
0.000309235
0.000192603
0.00103887
0.000168093
0.00163712
0.000206444
0.00187672
0.000155054
0.000109633
0.000136727
0.000539353
0.000191082
0.00111608
0.000784459
0.000107578
0.000225017
0.000204209
0.00177796
0.000721855
0.00147384
0.000176731
0.000105097
0.000757159
0.000141974
0.000220029
0.00159392
0.000620247
0.000124579
0.000511717
0.000217848
0.00012443
0.000818917
0.00168135
0.000176427
0.000777662
0.000268365
0.000219149
0.00111531
0.000950785
0.00173404
0.000675658
0.000166763
0.000226686
0.00115155
0.000584728
0.000217336
0.000164138
0.000176426
0.00112647
0.000141287
0.00109423
0.00012107
0.00140458
0.00020206
0.000436192
0.000268951
0.00112488
0.00171461
0.000412352
0.000554067
0.00015792
0.000169954
0.000778266
0.000450559
0.000200574
0.000238775
0.00122743
0.000672243
0.00109053
0.0001694
0.000508161
0.00104404
0.00141131
0.000146992
0.00015696
0.000119973
0.000595894
0.000104611
0.000172552
0.00022675
0.00149047
0.000191957
0.000130909
0.00116581
0.00109948
0.000137797
0.00122104
0.00156833
0.000200912
0.000220634
0.00147764
0.00158354
0.000187437
0.000170484
0.00157363
0.000180719
0.000228808
9.81017e-05
0.00160882
0.00129951
0.00155504
0.000538488
0.00113481
0.000196032
0.000145131
0.00162992
0.00139097
0.0001525
0.000914843
0.000114623
0.000123201
0.000182536
0.000769511
0.000219642
0.000715747
0.00045184
0.000128782
0.000159518
0.000193375
0.0018111
0.00169054
0.000240221
0.0015019
0.000190982
0.000719568
0.000196893
0.000154995
0.000243898
0.000172327
0.000590001
0.000148294
0.000107682
0.000134682
0.000223826
0.000615044
0.000135271
0.000867636
0.00131321
0.000209304
0.000126703
0.000232187
0.00114303
0.000168333
0.000280276
0.000306478
0.00014146
0.000190476
0.000640108
0.00012927
0.000162636
0.000184693
0.00043778
0.00148321
0.000389668
0.000402133
0.000124163
0.000186335
0.000161953
0.000166963
0.000197409
0.00152685
0.000145365
0.000582196
0.000198784
0.000174578
0.000402377
0.000254883
0.000264134
0.000184073
0.00104924
0.000194696
0.000192191
0.00157213
0.000137437
0.000357844
0.000119041
9.47071e-05
0.000140695
0.000680481
0.000202881
0.00179106
0.00191539
0.000370696
0.000103333
0.000161168
0.00102428
0.000187228
0.0012355
0.00114255
0.00145029
0.000145294
0.000979867
0.00116835
0.000917711
0.00107073
0.000150978
0.000194085
0.00131165
0.000168916
0.000139301
0.00185558
0.000335745
0.000410842
0.000139218
0.000236613
0.000210572
0.000121114
0.0010139
0.00122906
0.000336394
0.00018252
0.000156121
0.000687661
0.000283517
0.000149638
0.00179272
0.00101654
0.00114121
0.00133496
0.00159945
0.00100133
0.00054339
0.000261182
0.000264441
0.000206518
9.11853e-05
0.000109313
0.00178409
0.000410297
0.000183693
0.00011733
0.00136092
0.000112733
0.000618771
0.000146651
0.00125614
0.000719956
0.000210001
0.00151625
0.00124676
0.00107226
0.000170664
0.000239837
0.00150884
0.00174513
0.000194102
0.000122566
0.000346913
0.00155305
0.000504337
0.000183013
0.000188584
0.000542431
0.000114573
0.00137092
0.000233667
0.000207086
0.000293438
0.000202192
0.00011111
0.000192616
0.000876232
0.000678338
0.00141652
0.000203795
0.000135507
9.61954e-05
0.000728463
0.00010714
0.000128248
0.000126468
0.00167226
0.00018464
0.00176339
0.000644578
0.000143214
0.000140455
0.000226326
0.00102884
0.00157093
0.000553118
0.000305987
0.000147415
0.000164972
0.000133957
0.000189492
0.000156515
0.000219142
0.000141013
0.001886
0.000156693
0.000153823
0.000118516
0.000221387
0.000972119
0.000223261
0.00114954
0.00196238
0.00054475
0.000143545
0.00160244
0.000161868
0.000151313
0.00165881
0.00103153
0.000273162
0.00178847
0.00123935
0.000195687
0.00035651
0.000976915
0.00159757
0.000140676
0.0009072
0.00144527
0.000188951
0.000113143
0.000161255
0.00019661
0.00169876
0.000171313
0.000123712
0.000982479
0.000176606
0.000239626
0.000170605
0.000126002
0.000161096
0.000205087
0.00010251
0.000184065
0.000172664
0.000175488
0.000197107
0.000175558
9.9167e-05
0.00167582
0.000187298
0.00145936
0.000356336
0.000684488
0.000197602
0.00104924
0.000166689
0.00100281
0.00148102
0.000143096
0.00189943
0.000350026
0.000174887
0.000287481
0.000116737
0.00024831
0.000157241
0.000448563
0.000143085
0.000182961
0.000776641
0.000551556
0.0017441
0.00116805
0.000184431
0.00022267
0.000139345
0.000785673
0.000506448
0.000485026
0.00132445
0.000132124
0.0008904
0.000406711
0.000893748
0.000160543
0.000192664
0.000244998
0.000137644
0.00179899
0.000478924
0.000237426
0.000454395
0.000244818
0.000237727
0.000135909
0.000480332
0.000573926
0.00165922
0.000873325
0.000260739
0.000102259
0.000187254
0.000207018
0.000220192
0.000246924
0.000130163
0.000252688
0.000990054
0.000201553
0.000278204
0.000156669
0.000194693
0.00185764
0.000120066
0.00118746
0.000326149
0.00135663
0.000183308
0.000198689
0.000277247
0.000786459
0.000211249
0.000397935
0.000128814
0.000208796
0.00161275
0.000755873
0.00163814
0.000150459
0.000144817
0.000145871
0.000204295
0.00014984
0.000135266
0.000154239
0.00018011
0.00139685
0.000184659
0.000132038
0.000117317
0.000642098
0.000934851
0.000118122
0.000363645
0.000186522
0.000166826
0.000766438
0.000192805
0.000108884
0.00014997
0.000242665
0.000152343
0.000702712
0.000124212
0.0001641
0.00121923
0.000195195
0.00118936
0.000207509
0.00016139
0.000333932
0.000130274
0.000717255
0.000219489
0.000150257
0.000176524
0.000474525
0.000305697
0.000698542
0.000123044
0.000197082
0.000125032
0.000140843
0.000294275
0.000125809
0.000184025
0.00020383
0.000222719
0.000179874
0.000119433
0.00147962
0.000137908
0.000682687
0.000965705
0.000172786
0.000213215
0.000262909
0.000221883
0.000873784
0.00122391
0.000125112
0.000788527
0.000158087
0.000258062
0.000210217
0.00019264
0.000225279
0.00180835
0.000175833
0.00113229
0.0003062
0.00012412
0.000405423
0.000163757
0.00130479
0.000198777
0.000861454
0.000292907
0.000573384
0.000312005
0.000170411
0.000198277
0.00170174
0.00151324
0.000172978
0.000173163
0.00015375
0.000274755
0.000149223
0.000178079
0.000140699
0.000710459
0.000128477
0.00149168
0.000208355
0.000446878
0.000177812
0.00153592
0.000236988
0.000132169
0.00136268
0.00154221
0.000398942
0.000247302
0.000173725
0.00183948
0.001912
0.000797735
0.0005862
0.000997795
0.000163919
0.000363105
0.000680209
0.000379788
0.000142771
0.000324001
0.00155133
0.000490219
0.00134481
0.00191804
0.000118295
0.000752739
0.000169304
0.00103
0.000152522
0.000496696
0.00084353
0.00122088
0.00147795
0.000171521
0.00188517
0.000130908
0.000212987
0.000341441
0.000199232
0.000847874
0.000201141
0.000196121
0.000110083
0.000150155
0.000358391
0.000134841
0.000222386
0.000518295
0.000161204
0.00149833
0.000173548
0.000186575
0.000126735
0.000188461
0.000198544
0.000903278
0.000115657
0.000840179
0.00154867
0.00101503
0.00115916
0.00150317
0.000921889
0.00150211
0.00052258
0.000240861
0.000209204
0.000466311
0.000227416
0.000203245
0.00024151
0.000106712
0.00162341
0.000301648
0.000181177
0.00176645
0.000104973
0.000134329
0.000195406
0.000316135
0.00163815
0.000113975
0.000175607
0.000179273
0.000330611
0.000221758
0.000118941
0.000622814
0.000177142
0.000199516
0.00153818
0.000303691
0.0012684
0.000188046
0.000202496
0.00185211
0.000123691
0.00183871
0.00103824
0.000167676
0.00071807
0.00116521
0.000184457
0.000250557
0.00185326
0.000168564
0.000202519
0.000748511
0.000193896
0.000220932
0.000161276
0.00154553
0.0017998
0.00064987
0.00137708
0.000604384
0.00147992
0.000204217
0.000175808
0.00139791
0.000674913
0.000181595
0.000175435
0.000248639
0.00127366
0.000244224
0.000192546
0.000212528
0.000592675
0.000230066
0.000710879
0.00116434
0.00166822
0.000176236
0.000170569
0.00142023
0.000240289
0.000797407
0.000470748
0.000118867
0.00023986
0.00134359
0.000229763
0.000206655
0.000161288
0.000170618
0.00117126
0.00177173
0.000688562
0.000191934
0.000125427
0.00015209
0.00120003
0.000972357
0.000119729
0.00166216
0.00115792
0.0010649
0.000143144
0.000304366
0.000229563
0.000136209
0.000183507
0.000984969
0.000520326
0.00121019
0.000192005
0.000103547
0.000153752
0.000187048
0.000746046
0.000187399
0.000122938
0.0013322
0.00102457
0.00173865
0.000158961
0.000172086
0.000116756
0.00167959
0.001015
0.0011183
0.00137725
0.000175005
0.000523693
0.000219287
0.00180161
0.00121609
0.00119337
0.00102516
0.00179061
0.000193684
0.000157718
0.000206031
0.00179706
0.000574631
0.000153302
0.00142962
0.000117963
0.000249509
0.000475456
0.000116808
0.000147374
0.000120054
0.000173822
0.000835195
0.000436854
0.000125492
0.000274522
0.000179024
0.00085685
0.00152091
0.000225521
0.00023887
0.000313874
0.00108298
0.000236118
0.000207697
0.000196178
0.000145537
0.000117834
0.000223367
0.000213121
0.000220573
0.000114107
0.00113299
0.000594957
0.00100626
0.000340892
0.000195901
0.000823755
0.000252846
0.000164632
0.000181924
0.000233752
0.000153141
0.000246498
0.000888736
0.000608813
0.00165016
0.000679228
0.000154354
9.97175e-05
0.000816277
0.00168003
0.000590996
0.000934953
0.00142495
0.000122037
0.000180078
0.00072148
0.00111951
0.000162485
0.000288733
0.000185504
0.000244708
0.000196866
0.00146463
0.00011148
0.000149724
0.000218436
0.000124638
0.00179137
0.00168931
0.000985592
0.000184697
0.000152412
0.000122489
0.00013849
0.00122072
0.000154727
0.000205996
0.00145804
0.000726265
0.000907067
0.00113729
0.000155053
0.000115602
0.000602802
0.000171937
0.000266847
0.00055335
0.000389637
0.00158466
0.000100751
0.000466244
0.000185043
0.000133657
0.000219692
0.000120514
0.000256245
0.000161123
0.000102498
0.000562502
0.000146102
0.000120423
0.000183806
0.00021467
0.00144279
0.00127056
0.000173947
0.000183157
0.000131957
0.000202931
0.000200794
0.00145449
0.00171714
0.000199544
0.000181708
0.000123074
0.00175766
0.00160959
0.000580567
0.000128521
0.000841116
0.000472562
0.000143021
0.000170875
0.00160543
0.000490203
0.00051131
0.000267276
0.000611689
0.00136814
0.000138173
0.000297194
0.000166969
0.00109636
0.00103864
0.00148022
0.00016919
0.00140121
0.00020863
0.00076385
0.000775201
0.00111478
0.00104406
0.000119265
0.000221038
0.000129693
0.00175094
0.00144232
0.000372957
0.00118071
0.000178086
0.000151693
0.00104084
0.00135142
0.000196786
0.000268392
0.000326265
0.000172233
0.00112819
0.00143623
0.00124843
0.00135087
0.00069544
0.000596363
0.000117084
0.00131348
0.00135285
0.000634578
0.000148391
0.000213732
0.00018855
0.000107429
0.000167772
0.00145415
0.00158195
0.000216203
0.000229434
0.000413195
0.000430541
0.00014302
0.00103393
0.000494623
0.000440887
0.00170303
0.000151725
0.000348526
0.000171853
0.000218012
0.0005006
0.000195192
0.0002573
0.000785381
0.000444396
0.000911517
0.00163876
0.00016196
0.00117326
0.000134416
0.00120725
9.78796e-05
0.00136493
0.000270447
0.000137909
0.000235642
0.000196135
0.000243915
0.000177933
0.000182636
0.000527655
0.000185462
0.00140696
0.000972305
0.0014146
0.000102771
0.000160286
0.000196955
0.0004066
0.000153937
0.000134845
0.000821221
0.00097349
0.00136383
0.000693502
0.000835856
0.00169137
0.000909267
0.000997011
0.00091334
0.000190253
0.000186218
0.00173676
0.00165519
0.000141182
0.000638331
0.0011152
0.00135706
0.000183933
0.00048751
0.000211137
0.00171559
0.000219509
0.000152852
0.000259089
0.000381082
0.000543965
0.000214411
0.000187259
0.00124533
0.000227109
0.000195076
0.00070634
0.000134965
0.000125069
0.000340841
0.0008931
0.000193016
0.000128579
0.000169667
0.00140122
0.00119397
0.000125297
0.000748091
0.000132694
0.000126377
0.00155886
0.000216093
0.000479076
0.000919117
0.00147
0.000858788
0.00152903
0.00133058
0.000243464
0.00187478
0.000678532
0.00147605
0.000210704
0.000173716
0.00151632
0.000124662
0.000923522
0.000647711
0.0009884
0.000727919
0.00157962
0.000551588
0.000184153
0.00103942
0.00166785
0.00011611
0.000251202
0.00171598
0.000202574
0.00100686
0.00141254
0.000140368
0.000295623
0.000194521
0.000182973
0.00131626
0.000891454
0.000143765
0.000125104
0.000129139
0.000309277
0.000178009
0.000166028
0.000248428
0.000457558
0.00124689
0.00171106
0.000431629
0.000613546
0.000615957
0.000175006
0.000185847
0.0015192
0.00163773
0.00183284
0.00182146
0.000166678
0.000189172
0.000198663
0.000128912
0.000990281
0.00157763
0.00161283
0.000135437
0.000808567
0.00120385
0.000197534
0.00183801
0.0011487
0.0013858
0.00172111
0.000161183
0.000148951
0.000211524
0.00017736
0.000877755
0.000601651
0.000182616
0.000766208
0.000128699
0.000115953
0.000146265
0.00168243
0.000119065
0.000334141
0.00140348
0.000275333
0.000174864
0.0013063
0.00175931
0.000125903
0.000193965
0.000122175
0.000198888
0.00157211
0.000323184
0.000174572
0.0016777
0.00154402
0.00119657
0.0003286
0.0012244
0.000864627
0.00108764
0.000584665
0.000136776
0.000720095
0.000144392
0.000116247
0.000122365
0.00140175
0.000223431
0.00124221
0.000508118
0.000139016
0.000174273
0.000186647
0.000191051
0.000181221
0.000146907
0.000612862
0.000698165
0.00124132
0.000846659
0.000166844
0.000206511
0.00116451
9.33114e-05
0.000169459
0.000303129
0.000174774
0.00138465
0.000415278
0.000897023
0.000233008
0.00113636
0.000256773
0.00100359
0.000156122
0.00139122
0.000179099
0.00016461
0.000143333
0.000372456
0.000265278
0.00178237
0.000175107
0.00158787
0.000708697
0.000184896
0.000105383
0.000128478
0.000170466
0.000166762
0.000180889
0.000135974
0.00166062
0.000121351
0.000878621
0.000120247
0.000160601
0.000134315
0.000157369
0.000195489
0.000195704
0.000604954
0.000204919
0.00146123
0.000142667
0.001616
0.000213208
0.000204107
0.000113182
0.000867392
0.00107354
0.000195615
0.000383564
0.00104362
0.000994449
0.000522018
0.000345829
0.00126287
0.000960489
0.00123527
0.000479221
0.00024189
0.000123902
0.000120355
0.000768134
0.000161306
0.000130377
0.000647031
0.000116931
0.00015511
0.000178346
0.000247156
0.000197672
0.00152798
0.000371956
0.000979339
0.000550757
0.00109314
0.000390509
0.00177515
0.00012739
0.000125563
0.000723996
0.00117218
0.000476055
0.000732182
0.00109961
0.000840703
0.000556423
0.000174652
0.000687053
0.00185702
0.000219202
0.000278464
0.00022123
0.000407504
0.000126343
0.000176644
0.000829581
0.000156329
0.000216152
0.000175875
0.000172464
0.000165475
0.00130199
0.000291076
0.00153964
0.000324481
0.000137742
0.0010724
0.00174296
0.00108885
0.000196596
0.000474626
0.000178274
0.000192553
0.000874907
0.000193642
0.00015387
0.000510081
0.000239796
0.00165285
0.000205069
0.000313801
0.000118573
0.00192779
0.00177116
0.00105834
0.00017728
0.000177839
0.000177756
0.00073784
0.000119818
0.000146434
0.000215441
0.000129521
0.000197574
0.000145308
0.000231295
0.000299307
0.00057248
0.00164304
0.000924547
0.000203301
0.000185212
0.000138558
0.0016533
0.000827539
0.000281091
0.00100815
0.000141566
0.000193053
0.000162037
0.000626793
0.000163696
0.00177291
0.0016672
0.000122913
0.000174485
0.001277
0.000995188
0.00147475
0.000120561
0.000493589
0.000227224
0.000262886
0.000176147
0.00141604
0.000178846
0.000193616
0.000197637
0.000191985
0.000618774
0.000115719
0.000160885
0.000162918
0.000612053
0.000944404
0.00163767
0.000114003
0.000427151
0.00109548
0.000230287
0.00024656
0.000859032
0.00147631
0.00137727
0.000218757
0.000798334
0.000230885
0.000150988
0.000214546
0.00147312
0.00132736
0.000154824
0.000783236
0.000214277
0.000207019
0.000322331
0.000187673
0.000913865
0.00107769
0.000641685
0.000183205
0.00137681
0.000171988
0.00163869
0.000122256
0.00019094
0.0013208
0.00114454
0.000123944
0.00061206
0.00117935
0.0011559
0.0014677
0.000134479
0.000213307
0.00125283
0.000626971
0.000505851
0.00103349
0.000123607
0.000426069
0.000135452
0.000125163
0.000828909
0.00189223
0.000142872
0.000869297
0.000324858
0.000171559
0.000137748
0.00127437
0.000869848
0.000171908
0.000182301
0.000121404
0.000604318
0.000629499
0.000204404
0.000126731
0.00100574
0.00130429
0.000856038
0.000625481
0.000197831
0.0018138
0.000565817
0.00121354
0.000127005
0.000221702
0.000217439
0.000268391
0.000165693
0.000752768
0.000910307
0.00135359
0.00106726
0.00160177
0.00108736
0.000854158
0.00139677
0.000180331
0.000996551
0.00102369
0.000139724
0.00110627
0.000129087
0.000188117
0.000242916
0.000456732
0.000419094
0.000277994
0.000378644
0.000135639
0.000206063
0.000540447
0.00098094
0.000633558
0.000222983
0.000134511
0.00108399
0.000150929
0.000225831
0.000530704
0.000173787
0.000251426
0.000714741
0.000498006
0.000412444
0.000153121
0.000162458
0.000216121
0.000276774
0.00168886
0.000199527
0.000873955
0.00105177
0.000174695
0.00194465
0.000132191
0.00139466
0.000270421
0.000246758
0.000115958
0.00185279
0.00125217
0.000184738
0.00100015
0.000172878
0.000183382
0.000553907
0.000118673
0.0011667
0.00106822
0.00138395
0.000167557
0.0001188
0.000636352
0.00101903
0.00056308
0.000160257
0.000188008
0.000308508
0.000805336
0.000252136
0.00170096
0.000102771
0.0001331
0.000877597
0.00107519
0.000992245
0.000139793
0.000185396
0.000148978
0.000331229
0.000548491
0.000215052
0.000174941
0.000184848
0.000610086
0.000482961
0.000758587
0.00133806
0.000503289
0.00140084
0.000182562
0.000267436
0.000154408
0.000163078
0.000803728
9.89232e-05
0.00176058
0.00135357
0.000494466
0.000188362
0.000138255
0.000780439
0.00132152
0.000114603
0.00112477
0.000118508
0.000288431
0.000135125
0.000203728
0.000666875
0.000961724
0.000187425
0.000435171
0.000971834
0.0010155
0.000141044
0.00070505
0.000882832
0.000248214
0.0018689
0.000170552
0.000517584
0.0013222
0.00108394