/*--------------------------------*- C++ -*----------------------------------*\
| =========                 |                                                 |
| \\      /  F ield         | OpenFOAM: The Open Source CFD Toolbox           |
|  \\    /   O peration     | Version:  2406                                  |
|   \\  /    A nd           | Website:  www.openfoam.com                      |
|    \\/     M anipulation  |                                                 |
\*---------------------------------------------------------------------------*/
FoamFile
{
    version     2.0;
    format      ascii;
    arch        "LSB;label=32;scalar=64";
    class       volScalarField;
    location    "16";
    object      p;
}
// * * * * * * * * * * * * * * * * * * * * * * * * * * * * * * * * * * * * * //

dimensions      [0 2 -2 0 0 0 0];

internalField   nonuniform List<scalar> 
59516
(
-0.371658
-0.019466
-0.0154906
0.000200868
-0.380844
-0.357803
-0.369906
-0.33531
-0.108809
-0.00319867
-0.375821
-0.374855
-0.262308
-0.371
-0.350844
-0.113631
-0.371678
-0.375726
-0.37505
-0.36917
-0.374514
-0.337703
-0.371899
-0.241193
-0.100589
-0.226923
-0.133587
-0.373025
-0.374975
-0.357008
-0.374094
-0.372495
-0.173672
-0.00105862
-0.374148
-0.319717
-0.0902555
-0.37428
-0.374479
-0.0156775
-0.0199263
-0.375841
-0.374108
0.000369301
-0.373167
-0.0636351
-0.374292
-0.374403
-0.377242
-0.375026
-0.371189
-0.00106826
-0.178584
-0.347804
-0.371307
-0.375015
-0.375733
-0.000949857
-0.23978
-0.374771
-0.00140581
-0.307688
-0.241641
-0.372199
-0.00459325
-0.373235
-0.0112701
-0.322689
-0.37518
-0.373688
-0.329839
-0.370209
-0.0691668
-0.370996
-0.329065
-0.373665
-0.374396
-0.0402478
-0.26938
-0.373852
0.00201056
-0.373543
-0.373442
-0.148216
-0.374017
-0.369131
-0.109686
-0.370081
-0.172128
-0.375432
-0.378473
-0.333469
-0.367513
-0.330021
-0.330603
-0.37824
-0.357124
-0.337309
-0.374411
-0.258406
-0.116528
-0.219478
-0.352995
-0.0141217
-0.0648632
-0.0104003
-0.0107758
-0.104648
-0.184912
-0.268157
-0.376108
-0.133419
-0.336774
-0.374945
-0.3651
-0.298272
-0.0393898
-0.348203
-0.344876
-0.0454279
-0.349258
-0.345011
-0.0872928
-0.347514
-0.375863
-0.374319
-0.362022
-0.375056
-0.369875
-0.366405
-0.364563
-0.0204468
-0.322438
-0.3663
-0.367212
-0.323565
-0.375364
-0.35991
-0.216527
-0.367951
-0.125611
-0.161851
-0.33611
-0.127857
-0.368298
-0.367704
-0.373989
-0.371341
-0.371892
-0.367503
-0.36778
-0.0050508
-0.365402
-0.0039531
-0.366295
-0.00452122
-0.00793408
-0.366042
-0.36754
-0.353353
-0.365556
-0.366
-0.354583
-0.00375843
-0.29676
-0.0404852
-0.109926
-0.368184
-0.371064
-0.00643134
-0.366663
-0.36666
-0.360891
-0.365219
-0.361572
-0.37466
-0.303547
-0.374511
-0.0198121
-0.296833
-0.365701
-0.194792
-0.22538
-0.361475
-0.365482
-0.122706
-0.16439
-0.0949122
-0.366305
-0.363022
-0.000230116
-0.193776
-0.367222
-0.362712
-0.368309
-0.0283297
-0.217531
-0.218075
-0.00461925
-0.360147
-0.0020708
-0.0945057
-0.341159
-0.265762
-0.312977
-0.189862
-0.368463
-0.005778
-0.247191
-0.353587
-0.0676824
-0.373575
-0.350782
-0.317101
-0.350743
-0.136086
-0.366976
-0.0259281
-0.28581
-0.350877
-0.348587
-0.365727
-0.36335
-0.00781733
-0.355906
-0.302929
-0.245369
-0.255119
-0.361308
-0.0559752
-0.355891
-0.188273
-0.363
-0.194238
-0.206604
-0.359802
-0.361998
-0.0718222
-0.361301
-0.0840183
-0.365023
-0.194274
-0.181457
-0.00670504
-0.366381
-0.364655
-0.364887
-0.0180113
-0.361075
-0.366445
-0.0150818
-0.363665
-0.365964
-0.227419
-0.365355
-0.365874
-0.110409
-0.359733
-0.273784
-0.358039
-0.251327
-0.356769
-0.35772
-0.358913
-0.317276
-0.0862092
-0.285443
-0.0997548
-0.357045
-0.236229
-0.371546
-0.311645
-0.107002
-0.244491
-0.357144
-0.32228
-0.233718
-0.356003
-0.363396
-0.137909
-0.362255
-0.260707
-0.239172
-0.353012
-0.350191
-0.370263
-0.366192
-0.0133449
-0.359841
-0.322464
-0.358858
-0.354115
-0.331538
-0.0446746
-0.334073
-0.183127
-0.324031
-0.316585
-0.355404
-0.322544
-0.321617
-0.0922728
-0.142732
-0.311944
-0.325535
-0.227717
-0.0232242
-0.324036
-0.322544
-0.118299
-0.0994577
-0.320871
-0.228265
-0.214034
-0.372499
-0.325702
-0.341754
-0.377511
-0.326065
-0.093592
-0.187616
-0.342354
-0.201344
-0.346149
-0.261114
-0.326469
-0.373409
-0.34203
-0.246825
-0.343643
-0.0303618
-0.371515
-0.246434
-0.344028
-0.276975
-0.352876
-0.360291
-0.308256
-0.372616
-0.352545
-0.313997
-0.310295
-0.346377
-0.0764003
-0.15143
-0.352052
-0.139728
-0.358527
-0.347717
-0.274269
-0.364443
-0.363909
-0.0526924
-0.177466
-0.245801
-0.0814029
-0.0121518
-0.374663
-0.37355
-0.298392
-0.048034
-0.366839
-0.375008
-0.336652
-0.0457537
-0.344301
-0.344242
-0.368377
-0.373888
-0.349744
-0.122472
-0.126006
-0.343221
-0.254938
-0.293059
-0.338785
-0.343949
-0.339019
-0.270218
-0.32837
-0.369928
-0.00526688
-0.376353
-0.0175812
-0.0274329
-0.343901
-0.0109861
-0.374604
-0.343497
-0.0178508
-0.0166243
-0.0855875
-0.338103
-0.376348
-0.34134
-0.375142
-0.0201678
-0.111588
-0.336471
-0.338941
-0.350363
-0.335972
-0.271839
-0.354913
-0.356389
-0.0925363
-0.215547
-0.357286
-0.35339
-0.353009
-0.0644173
-0.0258316
-0.0316683
-0.195659
-0.312793
-0.0117221
-0.0515307
-0.105039
-0.00757213
-0.337392
-0.334304
-0.341133
-0.341536
-0.356098
-0.341055
-0.256226
-0.333312
-0.224227
-0.34236
-0.28022
-0.348283
-0.341299
-0.322433
-0.200649
-0.350363
-0.375179
-0.0304186
-0.349453
-0.24958
-0.123315
-0.256217
-0.284788
-0.349997
-0.348466
-0.342321
-0.339409
-0.117946
-0.341149
-0.256721
-0.0417933
-0.28629
-0.372631
-0.221075
-0.0974716
-0.343969
-0.271529
-0.339679
-0.208973
-0.339146
-0.0971393
-0.341106
-0.00703986
-0.0119852
-0.334817
-0.373331
-0.331659
-0.30404
-0.0569431
-0.310778
-0.308546
-0.0606015
-0.320491
-0.306966
-0.299136
-0.299471
-0.142978
-0.312061
-0.301269
-0.205245
-0.296756
-0.129299
-0.294731
-0.370972
-0.293145
-0.372045
-0.295266
-0.360195
-0.125825
-0.14224
-0.255202
-0.00659971
-0.00483458
-0.275452
-0.319804
-0.326208
-0.24481
-0.301303
-0.0746727
-0.335519
-0.331548
-0.373365
-0.218121
-0.189899
-0.262002
-0.331625
-0.0223285
-0.323638
-0.372149
-0.00730101
-0.352537
-0.333655
-0.101204
-0.368824
-0.275279
-0.373449
-0.309704
-0.266455
-0.291404
-0.338239
-0.266809
-0.33813
-0.366953
-0.10988
-0.113231
-0.377509
-0.00443502
-0.336849
-0.320597
-0.376654
-0.317255
-0.369026
-0.00134134
-0.328868
-0.126586
-0.00101844
-0.243171
-0.0583619
-0.373545
-0.350397
-0.106303
-0.00421536
-0.353662
-0.193328
-0.322125
-0.352545
-0.320644
-0.368378
-0.00185207
-0.15372
-0.0999939
-0.320562
-0.0519103
-0.233323
-0.33601
-0.201448
-0.3331
-0.00402786
-0.338792
-0.105635
-0.334179
-0.255116
-0.175307
-0.161613
-0.336764
-0.00366117
-0.0658549
-0.319879
-0.119906
-0.247424
-0.285539
-0.186341
-0.179074
-0.318788
-0.317903
-0.364312
-0.312405
-0.177313
-0.317628
-0.314688
-0.170763
-0.146322
-0.000721316
-0.319505
-0.316709
-0.320337
-0.14205
-0.307956
-0.00854162
-0.322076
-0.00834587
-0.337482
-0.0019388
-0.0350262
-0.26661
-0.188677
-0.0176305
-0.32277
-0.375447
-0.00314568
-0.0227881
-0.316245
-0.31071
-0.0476468
-0.312481
-0.317196
-0.209839
-0.0601561
-0.337012
-0.326509
-0.0172945
-0.319447
-0.320884
-0.229818
-0.309698
-0.372377
-0.318554
-0.378157
-0.270646
-0.374863
-0.273569
-0.0299539
-0.36905
-0.00843621
-0.00477192
-0.3763
-0.377557
-0.275949
-0.318439
-0.37541
-0.3744
-0.191681
-0.151203
-0.258223
-0.0926542
-0.274415
-0.180357
-0.374517
-0.275839
-0.275383
-0.301613
-0.286754
-0.373679
-0.257279
-0.292522
-0.0804765
-0.295837
-0.218841
-0.027436
-0.296505
-0.293548
-0.294526
-0.217712
-0.129232
-0.366717
-0.179106
-0.188055
-0.218932
-0.357804
-0.295179
-0.098245
-0.268362
-0.22691
-0.0165202
-0.0972626
-0.299587
-0.343674
-0.236741
-0.216309
-0.298494
-0.298103
-0.123686
-0.365957
-0.315337
-0.199897
-0.310783
-0.249773
-0.328136
-0.305636
-0.0162926
-0.0312568
-0.274973
-0.374005
-0.218119
-0.205968
-0.00607486
-0.230804
-0.304845
-0.172388
-0.322388
-0.313998
-0.131209
-0.177461
-0.319876
-0.367613
-0.337818
-0.250742
-0.374816
-0.318528
-0.0507028
-0.333948
-0.371556
-0.0290298
-0.178581
-0.354315
-0.296247
-0.116337
-0.285802
-0.0308529
-0.0235366
-0.247967
-0.296823
-0.375116
-0.341495
-0.297032
-0.29629
-0.306874
-0.133068
-0.0159216
-0.0990432
-0.337054
-0.375989
-0.225106
-0.301779
-0.202234
-0.0866918
-0.294605
-0.0894365
-0.296699
-0.370649
-0.181767
0.00279048
-0.345384
-0.140157
-0.309215
-0.0231227
-0.116643
-0.228444
-0.353532
-0.305275
-0.30777
-0.374607
-0.350522
-0.0585166
-0.371632
-0.00693092
-0.00216757
-0.306257
-0.0614573
-0.16467
-0.231624
-0.157366
-0.375483
-0.30023
-0.344986
-0.293812
-0.0687445
-0.242609
-0.0795178
-0.186924
-0.340754
-0.29123
-0.297431
-0.29249
-0.107838
-0.365972
-0.273687
-0.0950129
-0.293504
-0.293446
-0.290148
-0.271802
-0.293845
-0.0198421
-0.0151321
-0.290887
-0.00487505
-0.176085
-0.204486
-0.00860741
-0.215268
-0.249297
-0.368538
-0.279682
-0.331602
-0.255009
-0.186762
-0.296695
-0.298897
-0.299401
-0.157009
-0.298383
-0.367633
-0.0264619
-0.00455655
-0.194363
-0.171637
-0.00462132
-0.298105
-0.291469
-0.291208
-0.0218734
-0.0440962
-0.292008
-0.355153
-0.0350047
-0.0573362
-0.373426
-0.375426
-0.301847
-0.0584991
-0.317289
-0.283712
-0.325652
-0.251117
-0.288626
-0.375812
-0.250892
-0.250753
-0.134968
-0.252642
-0.378525
-0.0457365
-0.287277
-0.252175
-0.14921
-0.307671
-0.326466
-0.134793
-0.313757
-0.350892
-0.315451
-0.249106
-0.374018
-0.0799528
-0.250999
-0.339649
-0.0182897
-0.267972
-0.105015
-0.246272
-0.135838
-0.377049
-0.256314
-0.00543565
-0.250873
-0.246087
-0.262856
-0.247984
-0.230024
-0.00801621
-0.0628912
-0.311075
-0.266485
-0.21853
-0.31606
-0.154244
-0.352588
-0.0341559
-0.263542
-0.120835
-0.239816
-0.318191
-0.0200983
-0.270912
-0.264112
-0.381618
-0.0333237
-0.327706
-0.360517
-0.0553497
-0.257029
-0.0612659
-0.211478
-0.298066
-0.325118
-0.258611
-0.257432
-0.256131
-0.374227
-0.0443829
-0.323106
-0.160049
-0.0257277
-0.26074
-0.331936
-0.274783
-0.273875
-0.0477597
-0.278647
-0.281723
-0.146385
-0.361246
-0.37775
-0.370387
-0.210902
-0.282029
-0.00238226
-0.375081
-0.253448
-0.276212
-0.230811
-0.280871
-0.278039
-0.28545
-0.315945
-0.290002
-0.326747
-0.28019
-0.367848
-0.371354
-0.276746
-0.311133
-0.277238
-0.324663
-0.325827
-0.0171972
-0.182078
-0.216622
-0.0168371
-0.293534
-0.279918
-0.300509
-0.155426
-0.00906558
-0.160957
-0.276316
-0.30591
-0.306416
-0.179478
-0.207309
-0.30187
-0.379996
-0.284378
-0.0104569
-0.0246422
-0.335058
-0.284852
-0.173176
-0.22788
-0.281074
-0.184678
-0.271734
-0.271414
-0.271599
-0.23078
-0.309194
-0.270341
-0.373766
-0.0352088
-0.270012
-0.371803
-0.271274
-0.357537
-0.0611206
-0.269868
-0.165348
-0.128075
-0.271511
-0.269848
-0.16639
-0.172804
-0.269391
-0.141826
-0.263265
-0.263231
-0.273161
-0.15649
-0.26272
-0.0474561
-0.26696
-0.266069
-0.179658
-0.263777
-0.264378
-0.370692
-0.256749
-0.215465
-0.26261
-0.261298
-0.181825
-0.0908573
-0.15521
-0.374012
-0.266046
-0.266983
-0.225557
-0.091932
-0.374448
-0.235038
-0.233136
-0.227569
-0.225031
-0.0118197
-0.0102676
-0.0741336
-0.147593
-0.266439
-0.267899
-0.00730241
-0.342514
-0.252401
-0.113487
-0.374684
-0.218825
-0.217804
-0.375018
-0.222576
-0.326995
-0.0663502
-0.217948
-0.320902
-0.289543
-0.219572
-0.159822
-0.0558978
-0.220578
-0.339871
-0.299926
-0.171833
-0.0830103
-0.129104
-0.228392
-0.132619
-0.338907
-0.127359
-0.226779
-0.242635
-0.374191
-0.175906
-0.0123746
-0.0841898
-0.132737
-0.224006
-0.341548
-0.241134
-0.240064
-0.0236706
-0.188584
-0.0106898
-0.24473
-0.243969
-0.133138
-0.0171696
-0.293884
-0.0586565
-0.36424
-0.268289
-0.268188
-0.374683
-0.134873
-0.318982
-0.33311
-0.219998
-0.0219558
-0.267065
-0.372188
-0.264713
-0.261214
-0.223293
-0.114904
-0.26556
-0.0222154
-0.373198
-0.33968
-0.180005
-0.266186
-0.252609
-0.339391
-0.371208
-0.319814
-0.0415281
-0.118499
-0.261825
-0.272919
-0.313186
-0.170823
-0.307471
-0.37372
-0.259618
-0.31196
-0.105347
-0.267452
-0.202288
-0.124696
-0.267976
-0.269715
-0.272719
-0.31395
-0.261915
-0.0614389
-0.263303
-0.115855
-0.304951
-0.0257166
-0.260456
-0.30701
-0.00650518
-0.0301163
-0.257042
-0.104251
-0.0696624
-0.105597
-0.0886143
-0.158019
-0.0555124
-0.259977
-0.25829
-0.0457483
-0.2566
-0.258287
-0.309595
-0.0127655
-0.260611
-0.251092
0.00182417
-0.0330911
-0.245259
-0.142259
0.000293657
-0.0182475
-0.245466
-0.176877
-0.254401
-0.37032
-0.0216143
-0.300685
-0.229206
-0.253945
-0.248828
-0.226193
-0.288487
-0.260056
-0.2648
-0.231796
-0.374684
-0.342806
-0.253654
-0.258415
-0.355465
-0.0502348
-0.341449
-0.288215
-0.174054
-0.161931
-0.257445
-0.117021
-0.0255256
-0.238025
-0.240719
-0.371634
-0.20795
-0.245129
-0.243272
-0.278706
-0.114924
-0.242966
-0.243615
-0.368348
-0.244122
-0.110094
-0.247574
-0.247625
-0.205098
-0.183316
-0.216444
-0.247554
-0.245411
-0.247794
-0.172531
-0.210902
-0.248742
-0.227669
-0.169324
-0.178849
-0.179684
-0.178537
-0.20428
-0.246972
-0.210952
-0.37351
-0.358419
-0.0549324
-0.148424
-0.156139
-0.208546
-0.210168
-0.211977
-0.26988
-0.204835
-0.208369
-0.1207
-0.154197
-0.292323
-0.123474
-0.0462664
-0.211043
-0.20778
-0.214812
-0.360908
-0.0163525
-0.0093703
-0.148031
-0.226097
-0.220731
-0.339903
-0.0525942
-0.211086
-0.375433
-0.0638327
-0.2228
-0.22451
-0.265907
0.00283029
-0.220875
-0.220184
-0.220901
-0.238287
-0.00702975
-0.0136837
-0.239001
-0.236589
-0.238213
-0.23733
-0.245746
-0.229946
-0.116027
-0.0215441
-0.377262
-0.299698
-0.239611
-0.236768
-0.181921
-0.368372
-0.365793
-0.344995
-0.00180778
-0.348856
-0.240961
-0.240882
-0.238513
-0.2389
-0.241597
-0.239128
-0.332166
-0.200853
-0.324893
-0.210916
-0.111455
-0.0167403
-0.243252
-0.181947
-0.00410971
-0.20954
-0.248825
-0.373291
-0.25081
-0.17196
-0.165139
-0.295212
-0.185767
-0.246887
-0.25567
-0.252226
-0.20801
-0.226646
-0.372014
-0.245334
-0.320979
-0.112285
-0.0936313
-0.242287
-0.0967606
-0.0294028
-0.251302
-0.247926
-0.184999
-0.121961
-0.142039
-0.363167
-0.248593
-0.0740329
-0.00619804
-0.215694
-0.0394141
-0.176716
-0.240556
-0.292512
-0.227377
-0.0353797
-0.365233
-0.0190621
-0.354217
-0.194365
-0.339709
-0.226846
-0.0659511
-0.244904
-0.220209
-0.137169
-0.167267
-0.244246
-0.245042
-0.36557
-0.299996
-0.322982
-0.368204
-0.311538
-0.298774
-0.297477
-0.32677
-0.241628
-0.237754
-0.184828
-0.1013
-0.107253
-0.0204772
-0.341236
-0.186565
-0.233935
-0.229843
-0.23181
-0.0594054
-0.228393
-0.328378
-0.00111022
-0.227425
-0.234347
-0.267567
-0.37963
-0.327697
-0.327891
-0.229706
-0.0169433
-0.339154
-0.2304
-0.280376
-0.243406
-0.287372
-0.310499
-0.212531
-0.336324
-0.236591
-0.303056
-0.239744
-0.025285
-0.326952
-0.334747
-0.189691
-0.373008
-0.107101
-0.126626
-0.110795
-0.210825
-0.323404
-0.0873985
-0.279121
-0.0906388
-0.239682
-0.237454
-0.210975
-0.247164
-0.224268
-0.354135
-0.289791
-0.220311
-0.297202
-0.231214
-0.377513
-0.334053
-0.230982
-0.223384
-0.285447
-0.351507
-0.224808
-0.0356898
-0.277632
-0.353612
-0.225205
-0.203789
-0.228916
-0.231926
-0.235481
-0.236067
-0.00539001
-0.106716
-0.235453
-0.375092
-0.236106
-0.192473
-0.313201
-0.189502
-0.163134
-0.352102
-0.376748
-0.329151
-0.329887
-0.331152
-0.0453223
-0.220475
-0.265868
-0.376477
-0.369207
-0.374888
-0.375417
-0.367706
-0.196619
-0.192279
-0.377467
-0.0852342
-0.196509
-0.299057
-0.192666
-0.330987
-0.298772
-0.377246
-0.366566
-0.331433
-0.106875
-0.199121
-0.214092
-0.211369
-0.223041
-0.331103
-0.294332
-0.217416
-0.210728
-0.214693
-0.0204716
-0.349868
-0.0626966
-0.221423
-0.254598
-0.226494
-0.219897
-0.214794
-0.0612122
-0.224809
-0.198795
-0.222923
-0.223923
-0.334349
-0.204057
-0.116087
-0.0713805
-0.318531
-0.158217
-0.155056
-0.305226
-0.130408
-0.073067
-0.0625568
-0.0465158
-0.301638
-0.100742
-0.196775
-0.251939
-0.0442102
-0.345265
-0.347989
-0.140609
-0.135487
-0.366481
-0.207991
-0.0174357
-0.244513
-0.0455152
-0.290151
-0.043173
-0.0659406
-0.0199841
-0.0139811
-0.119594
-0.339816
-0.0683263
-0.0340223
-0.040073
-0.216898
-0.0401473
-0.214765
-0.345444
-0.222604
-0.221267
-0.300666
-0.069047
-0.223749
-0.224575
-0.0107855
-0.108085
-0.341267
-0.225696
-0.227428
-0.306203
-0.349181
-0.333476
-0.348709
-0.0796038
-0.369869
-0.372511
-0.225892
-0.22822
-0.0184991
-0.359114
-0.37453
-0.223205
-0.1731
-0.223794
-0.0208094
-0.333453
-0.00276335
-0.0690982
-0.209833
-0.267724
-0.209371
-0.171776
-0.342652
-0.149764
-0.324838
-0.209023
-0.21019
-0.106112
-0.201666
-0.18533
-0.373135
-0.342738
-0.288389
-0.209905
-0.347953
-0.115725
-0.0588635
-0.10144
-0.0183032
-0.211208
-0.346222
-0.210266
-0.0174071
-0.0132152
-0.335542
-0.213143
-0.102515
-0.360639
-0.213228
-0.214474
-0.339716
-0.0261903
-0.337662
-0.214223
-0.218849
-0.219888
-0.232404
-0.22059
-0.334301
-0.32333
-0.221283
-0.366126
-0.237838
-0.324779
-0.2693
-0.219123
-0.345427
-0.213269
-0.169256
-0.367945
-0.245479
-0.21626
-0.0124651
-0.221168
-0.221388
-0.163696
-0.211293
-0.29276
-0.0857017
-0.338548
-0.205811
-0.312345
-0.332112
-0.217301
-0.233785
-0.0115171
-0.107933
-0.0803881
-0.214651
-0.346113
-0.0210711
-0.210809
-0.367714
-0.0825282
-0.304164
-0.0737169
-0.21037
-0.261523
-0.209977
-0.00223004
-0.274818
-0.345361
-0.164141
-0.0516361
-0.0846652
-0.158803
-0.161638
-0.175139
-0.339181
-0.0117105
-0.0514294
-0.181857
-0.18267
-0.322689
-0.296596
-0.182323
-0.191666
-0.176652
-0.272779
-0.368578
-0.353271
-0.234229
-0.0414386
-0.321532
-0.317592
-0.137626
-0.0712888
-0.285965
-0.131377
-0.181311
-0.3001
-0.235224
-0.234691
-0.208495
-0.175567
-0.189439
-0.189174
-0.185952
-0.310596
-0.193172
-0.255693
-0.366655
-0.345452
-0.296948
-0.333922
-0.177204
-0.127964
-0.339349
-0.194201
-0.299103
-0.224516
-0.31398
-0.372463
-0.176669
-0.0100233
-0.196988
-0.200278
-0.211296
-0.339963
-0.197661
-0.207388
-0.239901
-0.211672
-0.239674
-0.199325
0.00114311
-0.239455
-0.208008
-0.20584
-0.00671624
-0.300184
-0.37265
-0.237323
-0.245116
-0.187422
-0.209711
-0.208079
-0.088672
-0.369867
-0.209942
-0.210861
-0.21208
-0.050202
-0.338247
-0.219743
-0.188855
-0.239512
-0.119868
-0.15675
-0.319482
-0.194498
-0.189063
-0.153369
-0.19058
-0.206884
-0.129558
-0.193276
-0.339416
-0.219145
-0.111129
-0.337935
-0.339813
-0.171234
-0.169534
-0.145842
-0.194572
-0.0903242
-0.199795
-0.0962371
-0.373893
-0.311382
-0.25643
-0.123453
-0.0218559
-0.353671
-0.0285891
-0.0284771
-0.194211
-0.00241695
-0.19403
-0.0455267
-0.258533
-0.128497
-0.191844
-0.292977
-0.260986
-0.19399
-0.0379353
-0.0287199
-0.256253
-0.19021
-0.0544114
-0.194834
-0.193058
-0.220525
-0.20023
-0.371623
-0.303412
-0.352177
-0.25575
-0.290461
-0.193789
-0.30364
-0.256066
-0.194419
-0.355971
-0.371029
-0.289737
-0.278844
-0.194068
-0.330716
-0.187136
-0.351403
-0.243216
-0.299949
-0.0240084
-0.0530815
-0.282385
-0.0127564
-0.343799
-0.373077
-0.361164
-0.0173834
-0.0907137
-0.0189029
-0.331882
-0.351522
-0.0116016
-0.26136
-0.185537
-0.328448
-0.269367
-0.1864
-0.200433
-0.0447864
-0.285226
-0.288141
-0.0874881
-0.370513
-0.354186
-0.205842
-0.186137
-0.376298
-0.18577
-0.374652
-0.289989
-0.287832
-0.186803
-0.364855
-0.165533
-0.362726
-0.338991
-0.362831
-0.00916519
-0.188668
-0.371763
-0.106147
-0.373782
-0.190923
-0.366254
-0.143543
-0.142007
-0.151609
-0.371062
-0.316497
-0.362938
-0.316674
-0.16117
-0.371039
-0.371095
-0.144614
-0.372207
-0.170991
-0.302886
-0.158636
-0.317418
-0.206
-0.13676
-0.195391
-0.133945
-0.197102
-0.0307791
-0.172742
-0.155665
-0.354101
-0.152034
-0.290798
-0.217533
-0.25712
-0.16737
-0.0506794
-0.12276
-0.289395
-0.159249
-0.350567
-0.107719
-0.177002
-0.362812
-0.30159
-0.177327
-0.325487
-0.174771
-0.158348
-0.154921
-0.200606
-0.172274
-0.000340557
-0.0549451
-0.0586871
-0.158858
-0.159221
-0.291812
-0.0689943
-0.038953
-0.151881
-0.103319
-0.350968
-0.321905
-0.0484507
-0.178844
-0.258754
-0.168878
-0.182157
-0.142838
-0.177927
-0.317513
-0.177642
-0.247319
-0.000666916
-0.346951
-0.24283
-0.37689
-0.183138
-0.176111
-0.0285068
-0.354417
-0.130152
-0.183045
-0.304091
-0.190479
-0.185039
-0.171116
-0.176623
-0.0438911
-0.189314
-0.182836
-0.183045
-0.174716
-0.201706
-0.178361
-0.346003
-0.145361
-0.184347
-0.354513
-0.375364
-0.255088
-0.150407
-0.283006
-0.183931
-0.164875
-0.155575
-0.0839506
-0.148455
-0.133551
-0.368356
-0.149752
-0.201868
-0.207174
-0.0541751
-0.145507
-0.345594
-0.169412
-0.173763
-0.242408
-0.227404
-0.168458
-0.266131
-0.205417
-0.17015
-0.16651
-0.191085
-0.16689
-0.344103
-0.333134
-0.152334
-0.143211
-0.16026
-0.0703747
-0.173276
-0.204884
-0.296075
-0.166312
-0.173968
-0.158765
-0.177123
-0.345674
-0.14498
-0.336864
-0.172636
-0.16381
-0.155991
-0.166954
-0.133655
-0.163482
-0.13272
-0.12063
-0.162667
-0.365578
-0.188767
-0.365862
-0.243061
-0.113021
-0.0368298
-0.146613
-0.345173
-0.171699
-0.165399
-0.123361
-0.169287
-0.120908
-0.348057
-0.346267
-0.127722
-0.128339
-0.13522
-0.13588
-0.271898
-0.216121
-0.13213
-0.132448
-0.0999587
-0.164329
-0.13568
-0.133556
-0.0818072
-0.0753011
0.0029137
-0.134487
-0.271019
-0.047211
-0.216936
-0.140664
-0.14267
-0.150458
-0.193971
-0.343153
-0.174963
-0.121585
-0.0164279
-0.0256364
-0.219738
-0.140652
-0.13531
-0.192239
-0.0426132
-0.0281803
-0.14296
-0.344434
-0.157855
-0.16138
-0.0791658
-0.14992
-0.374524
-0.158228
-0.153357
-0.213725
-0.155001
-0.159893
-0.345071
-0.160798
-0.185372
-0.0247387
-0.00622847
-0.267036
-0.0562765
-0.0270155
-0.165893
-0.135372
-0.345411
-0.162925
-0.358848
-0.357121
-0.158189
-0.343068
-0.0101393
-0.152079
-0.163064
-0.0493042
-0.165557
-0.358336
-0.376005
-0.0782781
-0.353162
-0.161175
-0.292409
-0.326556
-0.16378
-0.172947
-0.356291
-0.16197
-0.3713
-0.164643
-0.199422
-0.178395
-0.371234
-0.355553
-0.200524
-0.167217
-0.161445
-0.307845
-0.198009
-0.310083
-0.35521
-0.348035
-0.166958
-0.0161425
-0.169324
-0.154117
-0.304035
-0.130005
-0.301959
-0.0612396
-0.328769
7.53154e-05
-0.347464
-0.20068
-0.138927
-0.153255
-0.354919
-0.151265
-0.34663
-0.336935
-0.351887
-0.0139868
-0.00323101
-0.311327
-0.0067985
-0.149789
-0.196554
-0.266529
-0.148831
-0.339462
-0.224043
-0.341411
-0.14319
-0.338009
-0.280168
-0.305615
-0.375277
-0.208797
-0.367967
-0.142979
-0.0167341
-0.229482
-0.0118854
-0.374136
-0.0717512
-0.217281
-0.30739
-0.157689
-0.150137
-0.0181416
-0.051089
-0.153484
-0.317221
-0.350708
-0.00944042
-0.361455
-0.200079
-0.369409
-0.0939312
-0.316613
-0.152363
-0.276355
-0.353043
-0.275748
-0.257165
-0.290312
-0.319047
-0.343524
-0.252722
-0.0663325
-0.300471
-0.15532
-0.155661
-0.156915
-0.0976022
-0.367523
-0.368888
-0.302492
-0.171512
-0.339013
-0.34788
-0.172264
-0.156529
-0.154244
-0.15064
-0.367515
-0.0746413
-0.146766
-0.236144
-0.150728
-0.30102
-0.272218
-0.17765
-0.091555
-0.149201
-0.148926
-0.213454
-0.374999
-0.246182
-0.15065
-0.342155
-0.107712
-0.080408
-0.367123
-0.00906997
-0.106875
-0.0182525
-0.11156
-0.106271
-0.340908
-0.146083
-0.278912
-0.340387
-0.190138
-0.15809
-0.352534
-0.11472
-0.348541
-0.141157
-0.144872
-0.147118
-0.3041
-0.253188
-0.348155
-0.316638
-0.335598
-0.124382
-0.219005
-0.354303
-0.329117
-0.156268
-0.329687
-0.10941
-0.299701
-0.0727398
-0.307744
-0.147764
-0.266658
-0.131876
-0.206128
-0.329212
-0.107717
-0.331213
-0.0852712
-0.156443
-0.131759
-0.0486281
-0.13714
-0.128567
-0.183021
-0.347859
-0.135424
-0.0611069
-0.0240769
-0.303461
-0.0258931
-0.33375
-0.00623037
-0.137193
-0.0776359
-0.138467
-0.331005
-0.336551
-0.0712151
-0.367269
-0.0475929
0.00330119
-0.304413
-0.273307
-0.137297
-0.32797
-0.104464
-0.0265996
-0.179282
-0.0058633
-0.231794
-0.289507
-0.209634
-0.140098
-0.374502
-0.14244
-0.230913
-0.306443
-0.190046
-0.334445
-0.137119
-0.208588
-0.134769
-0.212639
-0.367763
-0.146138
-0.129392
-0.219429
-0.135024
-0.244389
-0.136571
-0.0913793
-0.134642
-0.36848
-0.134368
-0.130328
-0.132837
-0.362292
-0.174527
-0.346181
-0.369351
-0.366356
-0.262002
-0.0741704
-0.103861
-0.274826
-0.327973
-0.0284483
-0.0978408
-0.132212
-0.131185
-0.333623
-0.375161
-0.000344263
-0.0453244
-0.119539
-0.349312
-0.0465413
-0.192567
-0.335402
-0.128434
-0.12857
-0.128723
-0.124233
-0.130075
-0.26649
-0.155649
-0.321398
-0.0320359
-0.134294
-0.131502
-0.360714
-0.204896
-0.355535
-0.367553
-0.0734595
-0.130913
-0.103565
-0.363461
-0.36284
-0.35812
-0.355875
-0.177801
-0.102256
-0.352295
-0.0725181
-0.132212
-0.324184
-0.149892
-0.130286
-0.104601
-0.12554
-0.320894
-0.317501
-0.129818
-0.231927
-0.149163
-0.145908
-0.375222
-0.036365
-0.0841035
-0.130933
-0.132575
-0.0122924
-0.132234
-0.100254
-0.137154
-0.312384
-0.137346
-0.0219362
-0.141161
-0.0117169
-0.363486
-0.355834
-0.18495
-0.1357
-0.137851
-0.155436
-0.119516
-0.108654
-0.1593
-0.115897
-0.11159
-0.101159
-0.115554
-0.367989
-0.324713
-0.192548
-0.305324
-0.119365
-0.318922
-0.0992872
-0.306111
-0.255717
-0.293206
-0.1171
-0.219275
-0.0251152
-0.318599
-0.344475
-0.13679
-0.375586
-0.120964
-0.124953
-0.20602
-0.025349
-0.161068
-0.125301
-0.315535
-0.100373
-0.132467
-0.130497
-0.0915918
-0.258426
-0.0929927
-0.0915793
-0.093274
-0.0953318
-0.0927566
-0.306307
-0.314953
-0.314141
-0.305224
-0.0556335
-0.0927964
-0.360673
-0.102928
-0.0549061
-0.101375
-0.100111
-0.0592456
-0.102392
-0.103829
-0.101053
-0.125164
-0.122473
-0.222261
-0.137658
-0.154123
-0.199744
-0.170899
-0.158811
-0.0554214
-0.126559
-0.122767
-0.0964262
-0.104531
-0.12364
-0.24365
-0.0208829
-0.288678
-0.375264
-0.222599
-0.365389
-0.123701
-0.0219721
-0.0247746
-0.0263522
-0.169347
-0.025091
-0.120633
-0.123987
-0.347178
-0.373864
-0.209725
-0.110772
-0.356151
-0.189877
-0.23099
-0.120477
-0.23871
-0.121082
-0.243104
-0.103339
-0.0503131
-0.0670375
-0.115382
0.000499438
-0.125755
-0.351676
-0.0944982
-0.285424
-0.0341704
-0.112119
-0.115584
-0.332891
-0.154925
-0.246261
-0.175182
-0.243618
-0.113722
-0.0173664
-0.359664
-0.135247
-0.227273
-0.35215
-0.352744
-0.117931
-0.10301
-0.117081
-0.17854
-0.116164
-0.239675
-0.32999
-0.184846
-0.118559
-0.118923
-0.188513
-0.218529
-0.27021
-0.11861
-0.120893
-0.120892
-0.355007
-0.117653
-0.120779
-0.0408398
-0.108252
-0.0579951
-0.0159098
-0.0555526
-0.0325613
-0.106456
-0.108684
-0.0143528
-0.0833154
-0.0158522
-0.349504
-0.109628
-0.0629281
-0.351541
-0.265415
-0.165798
-0.0946794
-0.115611
-0.0150977
-0.111248
-0.249199
-0.179458
-0.109668
-0.358836
-0.0514246
-0.00537665
-0.11152
-0.370707
-0.174615
-0.227469
-0.016838
-0.111953
-0.111319
-0.269489
-0.0157644
-0.170812
-0.222791
-0.108275
-0.111049
-0.114742
-0.375018
-0.368434
-0.358883
-0.166522
-0.0530534
-0.0194798
-0.0151292
-0.364096
-0.0162089
-0.0665036
-0.114787
-0.374479
-0.134643
-0.118207
-0.326331
-0.359744
-0.246909
-0.238717
-0.116889
-0.11536
-0.352569
-0.301354
-0.318693
-0.0283783
-0.291774
-0.0783962
-0.15208
-0.0596598
-0.111168
-0.181087
-0.367394
-0.180838
-0.181756
-0.370629
-0.106967
-0.354643
-0.0835158
-0.236489
-0.280003
-0.365741
-0.178173
-0.35656
-0.103244
-0.0865792
-0.0447904
-0.105054
-0.358202
-0.0825781
-0.0734206
-0.218472
-0.0839842
-0.083155
-0.0896728
-0.0258465
-0.162618
-0.108919
-0.131181
-0.0791049
-0.0974713
-0.0905841
-0.0590518
-0.363338
-0.248605
-0.080806
-0.110404
-0.374481
-0.210074
-0.107306
-0.22635
-0.107461
-0.198585
-0.106815
-0.35995
-0.0843651
-0.376859
-0.0637501
-0.0614563
-0.219339
-0.081159
-0.23996
-0.211393
-0.257417
-0.029613
-0.00168695
-0.038232
-0.0351365
-0.0678021
-0.0212116
-0.0738446
-0.0695471
-0.0697991
-0.369116
-0.0395805
-0.363688
-0.365236
-0.0535187
-0.346423
-0.113953
-0.355878
-0.33066
-0.0806172
-0.345936
-0.0814203
-0.00259063
-0.25178
-0.154547
-0.337018
-0.329052
-0.177044
-0.0225301
-0.0457782
-0.257517
-0.280274
-0.080243
-0.0790087
-0.105324
-0.285236
-0.315747
-0.233026
-0.0253393
-0.0188596
-0.10543
-0.261652
-0.288876
-0.320871
-0.371268
-0.108561
-0.338678
-0.311599
-0.230137
-0.374611
-0.154523
-0.208913
-0.266067
-0.1022
-0.363713
-0.0181533
-0.155296
-0.305923
-0.272564
-0.330787
-0.362853
-0.0268497
-0.154124
-0.105449
-0.186354
-0.104526
-0.175098
-0.192885
-0.185054
-0.133223
-0.105545
-0.103634
-0.101168
-0.137356
-0.368263
-0.146044
-0.132912
-0.136482
-0.357273
-0.313935
-0.0233019
-0.362355
-0.105916
-0.101793
-0.21127
-0.0903142
-0.0901454
-0.125554
-0.0237272
-0.0901465
-0.0908425
-0.0187412
-0.0838679
-0.0834376
-0.092256
-0.115227
-0.0997656
-0.0998227
-0.359965
-0.0654958
-0.0837979
-0.0580585
-0.108001
-0.0574771
-0.0461046
-0.105347
-0.02151
-0.0181462
-0.142808
-0.0497718
-0.0506888
-0.360447
-0.102266
-0.078458
-0.073503
-0.0249437
-0.0677531
-0.102774
-0.103742
-0.0940115
-0.16255
-0.226753
-0.257204
-0.19644
-0.0255815
-0.0921827
-0.095999
-0.099845
-0.299437
-0.141352
-0.105163
-0.370588
-0.0967556
-0.138922
-0.0922714
-0.0945962
-0.251833
-0.256508
-0.0923657
-0.149051
-0.331535
-0.323349
-0.142299
-0.0948348
-0.359664
-0.0937283
-0.196458
-0.093186
-0.376372
-0.0943188
-0.288223
-0.0913405
-0.247168
-0.305222
-0.354915
-0.326939
-0.0945191
-0.30896
-0.220269
-0.247988
-0.0929546
-0.0381884
-0.156396
-0.22589
-0.093005
-0.0934247
-0.0939127
-0.156652
-0.0844077
-0.373459
-0.265857
-0.0339583
-0.361073
-0.0882967
-0.350837
-0.0281157
-0.0810534
-0.0870903
-0.297832
-0.0922305
-0.253341
-0.369346
-0.0822346
-0.0876527
-0.138934
-0.363226
-0.299628
-0.295676
-0.0887279
-0.316219
-0.260909
-0.0872034
-0.140508
-0.117336
-0.0853566
-0.0838803
-0.256158
-0.31995
-0.0969402
-0.144172
-0.114457
-0.359082
-0.352468
-0.358863
-0.0938531
-0.358912
-0.0573903
-0.279447
-0.330353
-0.181455
-0.250255
-0.0934828
-0.363982
-0.0436914
-0.0473715
-0.052423
-0.151562
-0.0526464
-0.166361
-0.161358
-0.141738
-0.176382
-0.287704
-0.143501
-0.217683
-0.0129398
-0.0629291
-0.122591
-0.21232
-0.0923046
-0.235852
-0.33669
-0.167831
-0.287207
-0.272636
-0.0143956
-0.0523113
-0.246507
-0.0621674
-0.000935619
-0.364935
-0.295482
-0.348733
-0.053998
-0.364507
-0.135742
-0.348711
-0.130418
-0.355855
-0.134791
-0.360171
-0.058067
-0.318312
-0.0855894
-0.263457
-0.132431
-0.272403
-0.135483
-0.367053
-0.0891128
-0.115494
-0.284612
-0.265832
-0.0843266
-0.176204
-0.268583
-0.0874443
-0.23489
-0.030776
-0.233721
-0.078596
-0.0768882
-0.115925
-0.363622
-0.0885025
-0.0521229
-0.0909305
-0.0885726
-0.1535
-0.302705
-0.0977834
-0.0889671
-0.153087
-0.158128
-0.00197206
-0.35452
-0.0866108
-0.112078