/*--------------------------------*- C++ -*----------------------------------*\
| =========                 |                                                 |
| \\      /  F ield         | OpenFOAM: The Open Source CFD Toolbox           |
|  \\    /   O peration     | Version:  2406                                  |
|   \\  /    A nd           | Website:  www.openfoam.com                      |
|    \\/     M anipulation  |                                                 |
\*---------------------------------------------------------------------------*/
FoamFile
{
    version     2.0;
    format      ascii;
    arch        "LSB;label=32;scalar=64";
    class       surfaceScalarField;
    location    "16";
    object      phi;
}
// * * * * * * * * * * * * * * * * * * * * * * * * * * * * * * * * * * * * * //

dimensions      [0 3 -1 0 0 0 0];

oriented        oriented;

internalField   nonuniform List<scalar> 
113358
(
-1.74155e-05
3.54884e-05
-2.41032e-05
6.03277e-06
2.52767e-05
1.24667e-07
-6.98762e-06
-1.83998e-05
-2.80328e-05
2.22731e-05
-3.37122e-06
9.098e-06
-2.38314e-05
-6.94745e-06
2.47446e-05
6.15606e-06
-1.70577e-05
1.05573e-06
2.99095e-05
-1.39052e-05
1.36265e-05
-1.41988e-05
-7.95749e-06
8.53045e-06
-7.71201e-06
3.66051e-05
-2.64236e-05
-2.46389e-06
-1.03312e-06
-3.65867e-05
2.00204e-05
1.7606e-05
9.63195e-06
6.70179e-07
1.92622e-05
-2.95614e-05
1.04887e-05
4.65216e-06
-1.43003e-05
-6.00543e-07
-5.58661e-06
2.04086e-05
-1.85599e-05
3.73865e-06
-1.78943e-05
-2.31742e-07
-3.68495e-07
1.8499e-05
-4.91201e-05
4.19235e-06
1.36126e-05
3.13101e-05
1.62837e-06
-3.57356e-06
1.94702e-06
2.68824e-06
-1.5837e-06
2.50196e-05
-2.61378e-05
1.06604e-06
3.74265e-07
1.54026e-05
-1.68789e-05
8.84082e-06
2.87627e-05
-2.41374e-05
-1.34647e-05
-2.01293e-05
1.13578e-05
7.8375e-06
9.36418e-07
1.44298e-05
-4.03935e-05
3.53026e-05
-9.33544e-06
2.14721e-05
2.91135e-06
2.44728e-05
-4.88559e-05
2.20608e-05
6.0667e-07
-3.66161e-07
-2.22964e-05
-1.10036e-05
4.35618e-05
3.97466e-06
-3.65447e-05
-5.83974e-07
-4.06752e-05
4.36946e-05
-2.43265e-06
-1.13567e-06
5.99284e-06
4.06131e-07
-5.25043e-06
-4.36366e-05
1.91545e-05
-3.63083e-06
2.80932e-05
-2.79486e-05
5.85686e-06
2.35933e-05
-1.54464e-06
-1.2459e-05
1.23453e-05
-7.23835e-09
1.27286e-07
-2.73702e-06
-8.56379e-06
6.50511e-06
4.79938e-06
2.27807e-05
-2.79789e-07
-4.36794e-07
-3.02664e-06
2.9984e-06
2.95748e-08
-5.22875e-06
-2.58856e-05
2.72263e-05
3.89054e-06
5.90878e-06
-4.05255e-07
-9.259e-06
3.75897e-06
2.02609e-05
-1.12228e-06
7.79283e-07
-1.9919e-05
-3.00267e-05
1.28638e-05
-2.984e-06
2.03555e-05
1.71821e-05
1.39824e-06
-1.94369e-05
8.58086e-07
-3.27204e-05
7.66781e-06
-1.18893e-05
3.69306e-05
6.36217e-08
-2.97777e-06
2.91314e-06
9.25687e-06
1.18097e-05
2.17325e-06
-2.32396e-05
7.42044e-06
-4.14285e-05
3.41355e-05
-1.20812e-07
-3.06917e-06
4.7036e-06
3.2743e-05
-3.43598e-05
-2.19141e-05
1.80746e-05
-2.20885e-05
2.59288e-05
2.63908e-06
-2.21836e-05
-3.05761e-05
5.01238e-05
-2.64731e-07
4.08336e-05
-1.10115e-05
-2.95526e-05
6.39781e-06
-2.12795e-05
-8.573e-06
-5.13753e-06
3.1873e-05
-4.96189e-07
-2.62365e-05
-3.27933e-06
2.04246e-05
-1.33087e-05
-3.84415e-06
-3.03326e-05
-1.11338e-05
4.12068e-05
-8.64357e-06
3.07006e-05
6.1237e-07
-2.26683e-05
-3.41337e-05
3.97428e-06
-5.20571e-06
3.53676e-05
3.13332e-05
1.31771e-05
-4.1876e-05
-2.63292e-06
2.30864e-05
-1.60852e-05
1.63423e-06
-8.6335e-06
-1.44968e-05
4.52209e-06
1.48264e-05
-4.7008e-06
3.27811e-05
-7.84366e-06
1.80046e-05
-4.29685e-05
-1.03676e-05
-4.0256e-05
4.30568e-05
7.57261e-06
-2.74888e-06
9.83598e-06
-1.08936e-05
3.80918e-06
2.94228e-05
-1.28631e-05
2.10085e-05
-3.75657e-05
-1.87958e-05
3.58343e-06
3.39078e-05
-1.8694e-05
1.71963e-05
-8.70457e-06
6.8779e-06
-1.53451e-05
3.12505e-05
-7.8929e-06
-2.39266e-05
5.59299e-07
-1.18928e-05
-1.4253e-05
6.99968e-06
1.91474e-05
-2.90514e-05
-4.60582e-06
1.39854e-05
1.9601e-05
-4.04027e-06
4.40977e-06
-3.69517e-07
2.97983e-05
-4.85888e-06
-2.8545e-05
3.61017e-06
-1.28991e-05
-3.55613e-05
1.31247e-05
3.53372e-05
-4.51828e-06
4.54459e-06
-3.85074e-05
3.85115e-05
2.23272e-06
1.99799e-05
1.44104e-06
-2.36519e-05
5.08717e-06
-4.25851e-06
-8.00848e-07
-3.76408e-08
1.19859e-07
1.5132e-05
-1.52211e-05
5.75093e-06
-2.98102e-05
3.24965e-05
-8.43634e-06
1.05489e-05
-2.37679e-05
2.17378e-05
-8.51645e-06
9.91214e-06
-1.03503e-05
4.48167e-07
-1.64568e-05
-5.3756e-06
2.8547e-05
-6.71367e-06
-2.4265e-07
5.34803e-06
-5.10535e-06
6.5414e-06
-2.79359e-05
9.36306e-06
1.20343e-05
3.64545e-05
-2.97039e-06
-2.51933e-06
-3.09583e-05
-2.44144e-05
-2.92317e-05
3.15033e-05
2.21477e-05
2.60574e-06
-3.20732e-05
5.0536e-06
3.33077e-05
-2.63938e-05
-7.03008e-07
-6.21226e-06
4.33631e-08
1.30415e-07
-1.94781e-05
1.93258e-05
7.31993e-06
5.99245e-06
1.0725e-05
-2.40358e-05
1.1612e-05
-6.42268e-06
5.0198e-06
-9.90255e-06
-1.48074e-05
-9.54483e-06
2.55051e-05
-1.15155e-06
-2.01735e-05
2.50957e-05
-1.7469e-05
1.25482e-05
-4.20559e-06
-6.30786e-08
4.26432e-06
-2.76606e-05
2.68611e-05
-2.68845e-05
2.14975e-05
-3.6775e-06
-1.26014e-06
-9.60635e-07
5.90318e-06
5.8995e-05
-5.68869e-05
1.9671e-06
-4.07673e-06
-1.51789e-05
4.4856e-06
1.45745e-05
-3.89178e-06
-4.13887e-06
2.61706e-05
-2.95549e-05
7.52473e-06
-1.67107e-05
-2.05675e-05
3.04544e-05
6.82493e-06
8.22939e-06
-1.21821e-05
1.79577e-05
-1.40003e-05
6.57749e-06
1.97952e-05
-4.20168e-05
1.56435e-05
-3.18088e-05
1.15366e-05
1.33113e-05
6.96632e-06
5.97979e-07
-2.49952e-05
2.00075e-05
4.38996e-06
-2.71236e-05
2.92008e-06
9.50672e-06
1.46985e-05
2.28389e-05
-1.93953e-05
6.93983e-06
-1.03914e-05
1.6784e-06
1.51928e-05
-1.66393e-05
-2.41629e-07
2.01167e-05
-2.45717e-06
-3.58329e-06
-1.40739e-05
1.5113e-05
1.67967e-05
-1.42591e-05
-1.76515e-05
3.13286e-06
-6.71876e-07
5.46223e-06
-7.91779e-06
6.41358e-06
-4.4396e-07
-5.95877e-06
4.45155e-08
5.24303e-06
-5.28605e-06
-6.56567e-07
3.84613e-06
-1.72026e-05
1.40026e-05
-1.96058e-05
4.16809e-05
4.86072e-07
-2.25198e-05
4.17846e-06
-1.97035e-05
1.53226e-05
2.61793e-07
-4.25529e-06
-5.88708e-06
1.67263e-06
8.46027e-06
-6.60179e-06
-1.59622e-05
4.15062e-06
1.83904e-05
-3.32851e-06
2.28677e-05
9.27466e-06
-2.88522e-05
5.44741e-06
4.71147e-06
-2.31539e-05
1.29995e-05
-2.95316e-06
2.75448e-05
-3.20748e-05
7.48675e-06
-1.05885e-05
1.06491e-05
-1.1273e-07
2.30237e-05
-2.81804e-05
4.2032e-06
9.46684e-07
1.92483e-05
9.92779e-06
-3.23533e-05
3.17998e-06
-2.421e-05
-1.261e-05
6.35368e-06
3.04692e-05
-2.69567e-06
-2.38842e-05
8.59293e-07
2.57181e-05
1.65058e-05
-1.721e-05
6.57382e-07
3.91126e-08
1.61488e-05
-2.76823e-05
-5.59079e-06
1.71316e-05
-4.64226e-06
4.3368e-07
4.20675e-06
-3.66663e-06
-1.45166e-06
2.74903e-05
-2.23883e-05
-1.18256e-05
7.31095e-06
3.71208e-05
-3.26087e-05
-8.81221e-06
1.76087e-05
-2.68864e-05
1.80946e-05
1.31719e-06
-2.30423e-05
1.84808e-05
3.26928e-06
-3.2914e-06
-7.74702e-06
2.75083e-05
-1.64683e-05
2.30281e-05
-1.07568e-05
-9.2448e-06
-3.02564e-06
-2.39427e-06
-1.40008e-05
1.91092e-05
-2.71247e-06
8.08946e-06
-3.97188e-06
-4.1152e-06
-1.30825e-06
-2.59e-05
-5.2047e-06
3.24151e-05
-1.49306e-05
2.06054e-05
6.00705e-06
-1.16802e-05
4.23448e-06
-1.09188e-05
1.88909e-05
-1.22064e-05
-3.58736e-05
8.0503e-06
-5.66252e-07
2.83934e-05
-2.58007e-06
-4.63515e-05
4.15472e-05
7.4101e-06
1.44854e-07
-5.2634e-06
5.13082e-06
2.07231e-05
-3.10888e-05
3.61135e-07
1.00055e-05
3.99453e-05
4.35631e-06
-4.24707e-05
-1.82491e-06
1.25068e-05
1.04476e-06
-2.86898e-05
1.51487e-05
-9.25877e-06
1.28242e-05
1.56842e-05
-2.80048e-05
-2.31259e-05
1.27355e-05
3.8389e-05
7.91229e-06
3.63894e-06
-5.11752e-06
7.75359e-06
-6.17821e-06
-2.9505e-05
2.79333e-05
6.62168e-06
1.9381e-05
-9.04796e-06
-1.69464e-05
-5.61644e-06
1.22478e-05
2.69934e-05
-3.36286e-05
1.6455e-07
3.27238e-06
-3.4389e-06
-2.30986e-05
3.74892e-06
1.38459e-05
5.51972e-06
2.7042e-05
-1.43335e-05
-1.84602e-05
5.75318e-06
3.13546e-05
-7.36296e-06
-3.5999e-06
-2.03903e-05
-2.88884e-05
-5.27409e-09
-9.21595e-07
2.98193e-05
2.63215e-05
1.31337e-05
-3.77523e-05
-1.70097e-06
6.93129e-06
4.86561e-06
-1.17963e-05
1.74834e-06
-2.85569e-05
1.36004e-07
2.66694e-05
4.58715e-05
-3.53077e-05
-3.74239e-06
-6.81259e-06
6.17487e-06
-9.16921e-07
-4.92126e-06
-3.04206e-07
-2.89306e-05
4.08387e-05
1.62881e-05
-2.81915e-05
1.7374e-05
-2.74381e-05
-2.32355e-06
1.24046e-05
-2.72423e-05
2.96929e-05
-9.53906e-07
-1.48728e-06
-4.01406e-06
2.02843e-06
2.0193e-06
3.99857e-05
-4.50332e-06
1.09433e-05
-4.64389e-05
-2.76953e-05
3.70268e-05
-3.6564e-05
3.57259e-07
3.16367e-06
2.18856e-05
-2.54006e-05
3.60734e-06
-3.49963e-06
-1.08305e-07
-1.42433e-05
-7.28736e-06
1.21187e-06
2.03224e-05
-9.97087e-06
2.63612e-05
-2.0532e-05
4.14685e-06
2.11749e-06
-6.57332e-06
4.0225e-06
4.403e-07
-2.5683e-06
-2.38252e-06
4.98886e-06
-2.76041e-05
2.64231e-05
2.67443e-05
-2.55652e-05
4.35211e-05
-1.11423e-05
-9.53694e-06
-2.28431e-05
1.74906e-05
3.63513e-07
-6.04458e-07
-1.7237e-05
2.83069e-05
-3.44608e-05
4.59834e-06
1.55596e-06
4.21705e-06
-6.06104e-08
-4.15553e-06
-5.28311e-06
2.65862e-05
-2.59698e-05
4.75944e-06
-1.65134e-05
1.71827e-05
-1.96277e-06
1.2955e-06
-1.36487e-05
1.19862e-05
8.45041e-07
8.18184e-07
3.29037e-06
-2.52816e-05
8.56722e-06
1.34229e-05
-1.06443e-05
-1.05877e-05
2.52195e-05
-3.98732e-06
-1.91429e-05
1.87485e-05
3.65155e-07
3.28726e-08
-3.11059e-05
-3.44145e-05
3.51908e-05
-9.69646e-06
3.02075e-05
9.44865e-06
-2.99571e-05
5.45214e-06
3.04888e-05
5.09407e-06
-4.10329e-05
-1.71653e-05
7.21404e-06
2.4078e-05
-1.41481e-05
3.21551e-08
1.36862e-07
1.39082e-05
-1.40648e-05
1.72989e-06
3.6116e-05
-5.50876e-06
-3.23332e-05
-5.19786e-06
-3.53813e-06
5.74845e-06
2.99457e-06
5.84497e-06
-5.35758e-06
-4.78713e-07
-4.69351e-06
-1.56011e-05
1.15491e-06
-2.33538e-05
1.63692e-07
-4.70599e-06
2.78968e-05
-1.9876e-05
1.76106e-05
7.92098e-07
1.47248e-06
-5.29459e-07
1.07312e-05
-9.32165e-08
-1.01198e-05
-4.00079e-06
3.6661e-06
3.5975e-07
3.67318e-06
-7.72139e-07
2.17459e-05
-2.46479e-05
3.28165e-05
3.30169e-06
-2.7833e-05
-8.27871e-06
-3.38773e-06
-1.49764e-05
-1.02791e-05
1.86168e-05
-2.02345e-05
1.31815e-06
2.76154e-07
6.37142e-06
-2.73966e-05
3.25243e-05
-1.14969e-05
1.43664e-05
3.11567e-06
-7.82881e-06
-9.63998e-06
-1.48011e-05
-3.58917e-05
8.4435e-06
4.22482e-05
1.51681e-07
3.48346e-06
-3.58122e-07
-3.27677e-06
1.27042e-05
-6.61066e-07
2.06467e-06
-1.40818e-05
-1.33223e-05
4.65306e-07
1.32876e-05
-4.1072e-07
2.37142e-05
4.61849e-06
-3.09567e-05
2.60806e-06
-2.79681e-05
-1.639e-05
3.61576e-05
8.20269e-06
-8.29081e-06
3.59948e-06
-7.9811e-06
5.38143e-06
2.26247e-05
-2.88949e-05
8.81099e-07
-2.57367e-05
-2.63395e-05
1.11696e-05
4.09302e-05
-3.76047e-06
4.07004e-06
-3.11513e-07
1.91223e-05
1.10021e-05
-2.05226e-06
-2.80539e-05
-5.72297e-07
-4.14737e-06
-2.78757e-05
3.25834e-05
-1.74599e-05
4.52295e-06
4.24437e-05
-2.9508e-05
2.39837e-05
-1.80648e-05
-8.97469e-06
2.99686e-06
3.59759e-06
-2.66309e-07
-3.33931e-06
4.71086e-05
-2.23849e-05
3.43284e-06
-2.81588e-05
1.28885e-05
-1.32228e-05
1.62473e-06
-1.2619e-06
2.98702e-06
2.84203e-06
-5.82648e-06
-1.58315e-05
-2.12232e-05
4.25029e-06
3.2798e-05
-1.48948e-05
2.0189e-07
1.5382e-05
-6.73696e-07
2.27193e-05
-4.83032e-05
6.69559e-07
2.49172e-05
-1.7691e-05
-2.27711e-05
2.97255e-05
1.07346e-05
-1.30312e-05
1.64962e-05
2.78914e-05
4.92619e-06
2.57643e-05
-2.72032e-05
-3.48619e-06
2.28261e-06
1.77082e-06
-1.65981e-05
1.25525e-05
-3.05967e-05
1.38556e-05
1.07093e-05
6.0356e-06
1.77225e-05
4.76259e-06
-1.92446e-06
-2.05739e-05
-3.8327e-06
-2.7976e-05
3.14047e-06
2.86745e-05
5.94053e-06
-2.24333e-06
2.25467e-05
-2.62427e-05
-2.89499e-06
2.28055e-08
-7.38115e-06
1.03653e-05
5.90394e-07
8.87208e-06
-3.3215e-05
2.37538e-05
-1.16727e-05
-2.37348e-05
-9.98174e-07
3.6401e-05
4.45116e-07
6.74512e-06
-7.18263e-06
3.27335e-08
-1.56465e-07
1.46435e-05
-1.45256e-05
2.23878e-06
1.39201e-05
1.1751e-05
-2.79088e-05
2.22059e-07
-1.95687e-05
3.02401e-07
1.90384e-05
3.79597e-06
-1.7837e-05
-1.34868e-05
2.75294e-05
1.2782e-05
1.57549e-05
-1.33901e-05
-1.51542e-05
2.55986e-05
1.51359e-05
-3.43688e-05
-6.36577e-06
-2.43576e-08
-5.73601e-06
5.76207e-06
3.6847e-06
1.76233e-06
-3.17432e-08
-5.41462e-06
2.67126e-06
3.24306e-06
4.73633e-07
-6.38959e-06
3.45264e-06
-3.80979e-06
1.91084e-05
1.84167e-07
-3.28994e-05
1.19565e-05
2.07798e-05
5.02984e-05
5.89826e-06
-1.0389e-05
-4.58143e-05
-1.12031e-05
1.48354e-05
-3.00359e-06
-6.46024e-07
-1.31575e-05
1.26484e-05
-2.09337e-05
2.14462e-05
4.27346e-06
5.81653e-09
-4.28935e-06
1.5914e-06
1.10611e-05
-2.1288e-05
8.6393e-06
4.52763e-06
-6.68886e-06
2.14764e-06
2.19636e-05
-1.16889e-05
-6.03959e-06
-1.94868e-05
7.30698e-06
-1.8364e-05
3.05472e-05
3.04423e-05
-2.95885e-05
4.62327e-06
-5.47371e-06
1.9049e-05
6.29267e-06
-2.26951e-05
-2.66963e-06
2.46733e-06
-3.36788e-05
1.13488e-05
1.98637e-05
3.04027e-05
-6.04081e-06
5.33904e-06
4.26832e-05
-4.8371e-05
2.62906e-06
-3.05398e-05
2.19395e-06
3.18957e-05
-3.54963e-06
-2.30021e-05
-1.49596e-05
2.48061e-05
-1.15915e-05
-1.07485e-05
-1.53328e-05
3.76766e-05
-9.92344e-07
4.19021e-06
3.57447e-05
-3.89362e-05
1.41933e-06
2.51084e-05
-4.44716e-05
1.79461e-05
-2.09296e-07
1.58376e-07
2.28523e-05
-2.28282e-05
-3.70735e-05
6.0158e-06
3.1374e-06
2.79099e-05
1.62092e-05
-1.6349e-05
5.84406e-06
-5.68896e-06
8.82355e-07
1.42436e-05
-1.79222e-05
2.79486e-06
-2.42689e-05
3.61144e-05
-4.07238e-06
-7.7686e-06
-3.07766e-05
2.27642e-05
1.3405e-06
6.66727e-06
-3.21415e-05
3.01824e-05
4.04243e-05
-3.84568e-05
2.7331e-05
-2.21673e-05
1.35579e-06
-6.5196e-06
-1.4896e-05
1.93649e-05
-1.20596e-05
7.59039e-06
-9.7794e-06
2.30127e-05
1.6701e-06
-1.486e-05
-3.36411e-05
2.42711e-06
3.67311e-05
-5.51717e-06
-5.6242e-06
-2.96026e-05
3.45362e-07
3.49601e-05
3.0377e-06
-1.08422e-05
8.68663e-06
1.24601e-05
1.11288e-06
-1.22235e-05
-1.3407e-06
1.10386e-05
2.12973e-05
-2.45084e-05
-7.82252e-06
-8.88052e-06
1.1831e-05
2.03515e-05
-2.33063e-05
1.02178e-06
5.54899e-06
-4.26489e-05
3.61031e-05
2.04459e-05
-3.06792e-05
1.00918e-05
1.63886e-07
-3.46645e-05
-5.72292e-06
9.61367e-06
-3.70771e-06
-9.44154e-07
-2.8702e-05
3.33501e-05
-4.21264e-06
-8.29747e-08
4.29952e-06
-4.29744e-06
-6.25286e-06
3.82739e-05
-2.7722e-05
7.03375e-06
-6.66573e-06
-3.57257e-07
3.79158e-07
2.65926e-08
-1.27607e-05
1.23704e-05
-1.54164e-05
1.45227e-05
2.64926e-05
6.2411e-06
3.13616e-05
-2.3016e-05
-1.458e-05
5.75921e-06
-5.96071e-06
1.97338e-07
-4.67605e-06
5.41447e-05
-3.11469e-05
-1.83051e-05
-2.84476e-05
3.15242e-05
1.96421e-05
-2.06912e-06
2.09215e-05
1.00115e-05
-2.88623e-05
-2.66679e-05
-9.97729e-06
3.56891e-05
9.59051e-07
-6.64242e-06
6.09643e-06
5.47536e-07
2.60236e-05
-2.7829e-05
1.0041e-07
1.71113e-06
-1.66448e-05
-1.03452e-05
1.47814e-05
1.22105e-05
-3.20562e-06
1.39433e-06
-1.82139e-05
2.00279e-05
-2.75633e-05
-7.88505e-06
8.1257e-07
3.46378e-05
-1.70384e-05
-7.95137e-06
-6.81731e-06
1.8727e-05
-4.18853e-05
-4.07122e-06
2.71743e-05
6.80445e-06
-2.98175e-05
-8.77741e-06
3.17885e-05
1.0033e-05
-9.51668e-06
-5.15741e-07
-2.53713e-05
4.2258e-05
-5.86993e-06
-1.10059e-05
-6.42141e-06
-2.69766e-05
3.06183e-05
2.78194e-06
-3.66629e-05
3.75005e-05
-4.4996e-06
3.66222e-06
-2.18672e-05
-5.56307e-06
1.52648e-05
1.21693e-05
-2.86012e-05
-5.73757e-06
3.47667e-05
-4.07597e-07
-9.99721e-07
-1.75279e-07
-1.62521e-05
1.74244e-05
4.52972e-06
3.71682e-07
-4.90579e-06
-8.34478e-06
8.58482e-06
-2.44315e-07
3.98671e-05
-3.27763e-05
-4.54435e-05
3.83326e-05
3.87507e-06
2.44811e-07
-4.11734e-06
-3.59629e-05
3.54549e-05
-4.39773e-07
9.3132e-07
-1.31789e-05
1.13965e-05
4.98863e-08
1.74532e-06
3.96015e-06
4.3272e-05
-2.34543e-05
-2.37774e-05
-2.41906e-05
-7.48542e-06
3.17461e-06
2.84635e-05
3.20323e-05
1.38457e-05
-1.38913e-05
-3.19916e-05
1.61324e-05
-5.86906e-06
2.28046e-06
-1.25444e-05
4.09442e-05
-3.27683e-06
-2.94527e-05
-8.23742e-06
-5.32906e-06
7.93004e-06
-8.5828e-06
5.98229e-06
-3.3206e-06
1.01519e-05
3.9548e-06
-1.07834e-05
-1.24285e-05
-6.34093e-06
3.53132e-05
-1.65366e-05
7.62829e-06
2.82627e-05
-2.78953e-05
-7.99396e-06
-2.23531e-05
2.31871e-05
1.47821e-05
-1.56145e-05
2.59387e-05
-2.37936e-05
-3.2862e-06
1.16174e-06
6.12174e-08
-1.44983e-05
-2.71174e-07
1.47513e-05
-9.1867e-06
1.73386e-05
-1.68445e-06
-6.46788e-06
-3.60268e-05
-1.30893e-05
1.90718e-05
3.00376e-05
1.98781e-05
-1.70121e-05
-3.40259e-06
5.43994e-07
7.71262e-06
-2.64106e-05
-2.92048e-05
4.7909e-05
1.625e-05
-2.16212e-05
-1.03584e-05
1.57377e-05
-5.68372e-06
-4.82681e-05
1.35063e-05
4.04412e-05
1.94458e-05
-1.75382e-05
2.16211e-06
-4.06651e-06
3.18363e-05
-1.14502e-05
-3.63618e-05
1.59634e-05
1.13938e-05
1.80984e-05
-4.25836e-05
1.30842e-05
-7.39778e-06
2.73374e-05
-2.37197e-05
3.78038e-06
-2.70202e-05
2.93909e-05
3.04007e-05
-3.2773e-05
-2.2667e-07
-1.7391e-05
1.5247e-05
2.3745e-06
5.29342e-06
-5.00314e-06
-2.69388e-07
3.49024e-05
-4.35386e-05
1.23997e-06
-5.0786e-06
7.30848e-06
3.45733e-06
-5.67808e-06
-3.95514e-06
1.33286e-07
-1.89575e-06
5.72289e-06
1.5667e-05
-2.44071e-06
1.76436e-05
-2.62061e-05
9.95296e-07
7.56827e-06
-1.0503e-05
-2.14373e-06
1.02527e-05
2.07046e-05
-2.7773e-05
1.5947e-05
-8.87547e-06
-2.37615e-05
-3.66366e-06
2.89368e-05
-1.50802e-06
-4.48433e-05
-7.12979e-06
3.9699e-05
1.22633e-05
-3.4712e-05
9.11219e-06
7.09958e-07
2.48922e-05
-5.2683e-06
6.33576e-07
9.09421e-07
3.69929e-06
-2.44094e-05
-2.88353e-05
2.27017e-05
3.05546e-05
1.54745e-05
1.36063e-05
-2.33074e-05
-5.76898e-06
1.84897e-07
1.86134e-05
-1.58564e-05
-2.95178e-06
-1.79336e-07
-1.53329e-05
3.02369e-05
-1.47241e-05
3.23991e-05
-2.3162e-05
-1.25278e-05
2.77361e-05
-3.17247e-05
6.66621e-06
-2.68439e-06
-3.91593e-06
-2.73599e-05
2.95413e-05
1.74079e-06
3.61156e-05
-2.53966e-06
-3.74854e-05
2.28896e-05
-2.55533e-05
5.9815e-06
-3.33602e-06
2.11077e-06
-1.4563e-05
-1.18626e-06
1.36461e-05
-3.32235e-06
3.14654e-06
-3.85969e-06
4.03653e-06
-2.50229e-06
5.72261e-06
2.20102e-06
-5.48099e-06
-9.04498e-06
-2.18796e-05
-1.39013e-06
3.23395e-05
1.14186e-05
7.80954e-06
-2.99988e-05
1.07741e-05
-1.88738e-05
6.23386e-07
6.61231e-06
1.16394e-05
-2.03634e-06
-2.11788e-05
2.0529e-05
-2.59981e-05
3.06712e-05
8.78948e-06
-1.34381e-05
-3.49057e-05
3.95545e-05
-1.17152e-05
7.07293e-06
-4.8628e-06
-1.70746e-05
2.58017e-06
1.93586e-05
1.32734e-06
3.23616e-05
-3.7804e-05
4.11184e-06
1.72604e-05
-5.68943e-05
1.2977e-05
2.66326e-05
4.81787e-06
-3.5083e-05
1.91137e-05
1.11562e-05
1.55182e-06
1.86415e-05
-6.44028e-06
-1.37505e-05
-5.28859e-06
2.41561e-06
5.17773e-06
-2.30066e-06
-3.54386e-06
7.66561e-06
-2.92279e-05
2.51083e-05
-1.77832e-06
-1.44117e-05
4.91455e-07
1.56996e-05
5.2008e-07
1.46273e-05
-4.29197e-07
-1.47405e-05
-1.02393e-07
4.05885e-07
1.56521e-05
-1.58975e-05
-8.32785e-06
-1.42202e-05
2.48339e-05
-2.28064e-06
4.27689e-06
-3.82529e-05
2.04343e-05
1.35565e-05
3.01436e-05
8.33371e-07
2.20848e-06
-3.31879e-05
3.46652e-06
-3.57618e-06
1.10634e-07
1.08143e-05
2.23599e-05
-2.83539e-05
-1.43037e-05
-3.52125e-08
7.74156e-08
1.42732e-05
1.80061e-06
-2.36349e-05
8.51867e-06
1.33171e-05
1.1474e-06
9.26863e-06
-9.46858e-06
-9.51042e-07
-6.79845e-06
-1.50269e-05
2.80288e-05
-6.19549e-06
3.30409e-05
-3.50939e-05
3.04157e-05
-2.83197e-05
1.72252e-05
-7.81453e-06
-2.87651e-05
1.93551e-05
-2.56945e-06
-2.60068e-06
5.16525e-06
1.48472e-05
3.19099e-06
-4.27099e-06
-1.37751e-05
-2.478e-05
3.71439e-05
4.11945e-06
3.20574e-06
-7.31442e-06
3.7798e-07
-2.93663e-05
2.63787e-08
2.89643e-05
-3.70205e-07
8.35634e-07
2.18986e-05
-6.08176e-07
2.43416e-05
-4.5973e-05
2.2217e-05
-8.22499e-06
-2.3714e-05
-3.59556e-06
3.55563e-05
6.32511e-06
-1.0493e-05
1.10565e-05
-6.89982e-06
-6.45993e-06
-3.17787e-05
-4.02509e-06
4.22718e-05
2.02649e-05
3.26183e-06
-2.3044e-05
-4.81118e-07
5.00065e-06
2.49126e-05
-4.11977e-05
1.1282e-05
-2.14921e-06
-1.48486e-05
-8.1312e-06
2.51302e-05
-2.41093e-05
-8.00535e-06
1.20986e-05
2.0041e-05
-1.00857e-06
-1.36328e-06
-1.71961e-05
1.95588e-05
3.20986e-05
-1.33295e-05
-7.8363e-06
-1.09305e-05
-2.01559e-05
4.93794e-05
-2.76362e-05
-1.58771e-06
1.3983e-05
3.93551e-07
3.0993e-07
-1.4696e-05
3.09024e-05
-3.58277e-05
3.66343e-05
-3.17104e-05
-5.80387e-06
1.8589e-05
-1.53341e-05
2.5524e-06
1.17778e-05
-4.33866e-05
2.0122e-06
2.95993e-05
8.29934e-06
3.81531e-05
-3.29949e-05
-1.34555e-05
8.55598e-06
-8.63055e-06
-1.33062e-05
1.34068e-05
-2.32678e-05
-1.33485e-05
4.0418e-05
-3.81412e-06
3.4417e-05
-2.65549e-05
-4.27633e-05
3.4895e-05
1.66616e-05
1.50178e-05
-8.77412e-06
-2.28943e-05
3.14283e-07
-1.4248e-05
3.92846e-09
5.39304e-06
-5.3687e-06
-4.37063e-06
4.19299e-06
1.6877e-07
2.56866e-05
-2.54394e-05
-2.33254e-05
2.30689e-05
-6.0697e-06
7.47938e-06
-2.16527e-05
2.02298e-05
3.15989e-05
-2.50015e-05
-5.09523e-06
-1.50197e-06
-6.42759e-06
1.55759e-06
4.19727e-06
-7.31202e-06
2.52025e-05
-6.89096e-06
-1.09963e-05
-4.89761e-05
1.19398e-06
1.63671e-05
3.13547e-05
1.18149e-05
-5.0583e-06
-1.19512e-05
5.20528e-06
6.7561e-06
3.16679e-05
-2.96089e-05
-8.80886e-06
-1.74499e-05
-3.60386e-06
3.37567e-05
-1.26994e-05
1.9836e-06
2.02786e-05
4.18703e-06
-2.64487e-05
6.85818e-06
2.2528e-05
-2.74034e-05
2.24771e-05
-1.6713e-05
-8.47455e-06
2.70725e-06
1.83008e-05
-2.36609e-05
1.03613e-05
-1.64556e-05
1.08608e-05
9.26133e-06
-3.6653e-06
7.95234e-06
1.03396e-05
1.92969e-05
-3.75828e-05
4.87828e-06
-3.01206e-05
-4.64311e-06
2.98635e-05
5.7155e-07
2.39269e-05
2.47565e-06
-2.6969e-05
1.02957e-05
2.0043e-05
-3.31557e-05
2.81537e-06
-5.31502e-05
4.39166e-05
-1.13525e-06
-6.32332e-09
3.66487e-05
-3.14337e-06
-3.35062e-05
-4.33328e-06
9.42262e-06
-1.28995e-05
7.82244e-06
-1.22256e-06
-4.46178e-06
3.93762e-07
5.30529e-06
-4.51072e-06
4.37226e-06
1.37686e-07
-5.19767e-06
-6.39178e-06
3.27221e-05
-2.11317e-05
-2.46179e-05
3.70198e-06
-1.06213e-05
3.15333e-05
4.17231e-05
-1.03457e-05
-1.32895e-05
-1.80744e-05
3.86145e-06
-3.28593e-05
1.14278e-05
1.75822e-05
4.49813e-06
-4.01873e-06
-1.55803e-06
1.05503e-06
-5.20017e-06
5.00978e-06
1.98018e-07
2.11459e-06
2.98136e-05
-5.25774e-06
-2.6661e-05
-5.12411e-06
2.36089e-05
-3.11014e-05
1.26244e-05
1.01136e-05
1.64411e-05
-3.83725e-05
1.18197e-05
-2.4073e-06
2.50797e-05
1.80187e-05
-4.06914e-05
-4.28342e-05
2.18869e-05
2.56799e-05
-4.73199e-06
3.10771e-05
-3.1446e-05
6.07588e-06
-5.70047e-06
-3.16487e-05
-8.21927e-07
-1.03588e-05
1.76803e-07
7.07686e-06
-7.2554e-06
3.15173e-05
4.45984e-06
-2.59088e-05
-1.01038e-05
-2.42162e-06
-3.35452e-06
1.6266e-05
-1.04882e-05
2.98099e-06
5.196e-07
1.01824e-05
-1.36825e-05
-3.07011e-05
1.33794e-05
1.50297e-05
2.29081e-06
1.63491e-05
-2.51215e-05
-4.12864e-06
1.28575e-05
-2.3489e-05
5.97023e-06
3.81707e-05
-2.0649e-05
-4.19021e-06
-2.59885e-07
4.43431e-06
-1.25397e-05
3.22107e-05
2.18756e-05
-4.15466e-05
2.74525e-05
5.94369e-07
-4.37894e-05
1.57477e-05
-1.90554e-06
2.7495e-05
-2.47934e-06
-2.31085e-05
2.19819e-05
-1.80933e-05
1.35874e-05
-1.74098e-05
-1.14438e-06
-2.12998e-05
2.39794e-05
-1.53391e-06
-1.7242e-05
-2.52251e-06
-1.25637e-05
3.22876e-05
-8.18782e-06
-8.37961e-06
-1.51636e-05
3.16552e-05
-1.04078e-06
2.83236e-05
-3.35958e-06
-2.39214e-05
2.55118e-05
-2.49302e-05
-2.72568e-08
-5.52252e-07
3.21277e-05
7.19352e-08
-2.19368e-05
-1.02579e-05
-8.22896e-06
-3.96464e-06
-2.35609e-05
3.57502e-05
-5.47142e-07
-4.04457e-06
4.57509e-06
-2.56542e-05
3.86662e-05
-3.0255e-06
-9.98343e-06
2.54904e-06
2.00333e-05
6.29417e-06
-2.88894e-05
-5.56382e-06
1.3321e-05
4.76389e-06
-1.25532e-05
-1.92034e-05
-4.58603e-06
1.9945e-05
3.86446e-06
1.74136e-05
1.31136e-05
-4.51041e-05
1.45781e-05
1.25759e-05
-9.29651e-06
3.23744e-05
-3.56457e-05
-3.02897e-06
2.33683e-05
1.89469e-06
-2.22298e-05
3.87517e-06
-3.93621e-06
5.90259e-08
2.29389e-06
2.69238e-05
1.30347e-06
-3.05214e-05
2.97977e-05
-5.14917e-06
-2.79193e-05
3.28084e-06
-4.78594e-06
6.10454e-06
-2.75247e-05
2.62285e-05
-2.97647e-05
-4.70041e-06
2.36612e-05
1.08298e-05
1.35929e-05
-1.30226e-05
-4.21122e-08
-5.4496e-07
-4.08761e-05
2.58381e-05
-1.56377e-06
1.66049e-05
-5.63899e-06
4.91747e-06
7.22181e-07
1.19918e-05
-1.04443e-05
1.54891e-05
-1.70403e-05
1.94723e-05
1.64802e-05
-8.53602e-06
1.23461e-05
-3.35759e-05
-1.42633e-05
3.54874e-05
8.19405e-08
-1.95454e-05
1.97557e-05
-2.95321e-07
9.18393e-06
-1.63988e-05
-1.81241e-05
2.5365e-05
1.67443e-05
6.73966e-06
-2.58397e-06
-2.08932e-05
-5.5412e-06
1.45276e-06
6.85769e-06
-2.76761e-06
-3.42498e-06
4.39818e-05
-1.5024e-05
-2.5463e-05
1.18521e-05
1.44357e-05
-1.87454e-07
-2.60976e-05
1.62028e-07
3.96543e-06
-4.12386e-06
-1.18262e-06
5.06594e-06
2.81214e-05
-3.19978e-05
3.18465e-05
4.30113e-06
-1.51114e-05
-2.10333e-05
-1.34603e-06
7.46313e-06
-5.93247e-06
-1.90897e-07
1.73924e-05
-1.38097e-06
-1.8873e-05
2.87979e-06
-5.29162e-06
-1.62576e-05
7.93597e-06
1.36379e-05
-5.3169e-06
2.47945e-05
4.11905e-06
-2.3599e-05
2.36546e-05
-2.7791e-06
-2.61525e-05
5.27971e-06
-3.46688e-06
6.80653e-06
-3.33915e-06
3.30683e-06
-1.50297e-05
1.31657e-05
-1.44756e-06
7.95511e-07
1.40862e-05
-1.45251e-05
-3.62818e-07
1.1682e-05
1.39536e-05
-1.32297e-06
-2.43141e-05
1.72001e-05
2.23969e-05
-1.59422e-05
-1.99174e-07
5.15731e-06
-4.96441e-06
-3.67038e-05
1.83542e-05
3.37293e-05
-1.53882e-05
3.68892e-05
6.19978e-06
-3.86774e-05
-4.41129e-06
2.21513e-05
-1.4443e-05
-2.49239e-05
8.37178e-06
1.42973e-05
-3.0157e-05
-1.50757e-06
-6.90479e-06
3.85721e-05
2.06128e-07
4.89219e-06
-5.11309e-06
3.39334e-05
-1.29909e-06
-3.54211e-06
-2.90902e-05
5.43151e-06
-5.48383e-06
6.04863e-08
-1.48129e-05
3.87281e-06
-9.16813e-06
2.01125e-05
-2.00584e-05
-1.59244e-05
1.51401e-05
2.08456e-05
2.53918e-05
-1.97154e-05
-5.05905e-06
-6.00764e-07
-1.28321e-07
4.08529e-06
-3.96735e-06
-8.37848e-07
-5.49516e-06
-4.93957e-08
6.39045e-06
1.00481e-05
3.73704e-06
-6.87952e-06
-6.90742e-06
-1.54168e-05
1.63879e-05
-1.80613e-06
1.10681e-07
3.90334e-05
-1.3566e-06
-3.77852e-05
-9.45446e-06
-8.02044e-07
1.22753e-05
-2.03137e-06
4.33133e-06
-1.81667e-05
1.41306e-05
-2.99679e-07
1.07913e-05
-2.05529e-05
1.33082e-05
-3.54501e-06
7.10397e-06
1.68427e-05
2.42797e-06
-2.63455e-05
7.32023e-06
-7.48428e-06
1.62724e-07
1.79259e-05
-1.43583e-05
-3.74303e-05
3.38468e-05
5.45163e-07
1.53883e-06
1.64227e-05
-1.85057e-05
3.38655e-06
1.61498e-05
-2.03238e-05
7.87508e-07
1.48832e-05
-7.32566e-07
-2.25903e-06
-1.18882e-05
8.69587e-06
1.83685e-05
-2.73507e-05
2.62481e-07
1.84442e-05
-1.83415e-07
-1.46369e-06
-1.67944e-05
-2.65547e-05
9.99354e-06
1.10502e-06
1.54323e-05
-1.006e-05
-9.18212e-06
-1.08516e-06
1.32413e-05
-2.25006e-05
1.66952e-05
-7.45537e-06
-3.49e-06
-1.50146e-05
-2.26685e-05
4.11683e-05
-6.6154e-06
8.61298e-06
-2.18341e-06
1.8881e-07
5.89706e-08
3.48384e-06
-3.54582e-06
-7.27105e-06
3.71791e-05
1.23683e-05
-4.23037e-05
2.46749e-05
1.0315e-05
-9.36929e-06
-2.56634e-05
2.68686e-05
-2.35104e-05
2.79504e-05
-3.13033e-05
3.70084e-05
-4.10998e-05
4.86825e-06
-7.73425e-07
-4.62841e-05
1.99113e-05
8.29466e-06
1.80777e-05
-1.51623e-05
-1.85072e-06
1.67238e-05
2.90862e-07
2.9238e-05
-3.91125e-05
1.38997e-05
-4.02339e-06
1.34861e-05
-1.46939e-05
4.5059e-06
-3.29396e-06
-1.44076e-05
1.27989e-05
-8.42458e-06
-1.6383e-05
5.05938e-05
6.07745e-06
-4.02488e-05
-6.72078e-06
2.32356e-08
6.68442e-06
-4.53511e-06
1.0046e-05
-3.82367e-05
-2.603e-05
-7.89355e-07
3.57463e-07
2.64467e-05
6.23099e-06
2.11597e-07
-6.42017e-06
8.08771e-06
-5.15614e-07
-3.0138e-05
2.25704e-05
-7.70194e-08
-1.3053e-07
1.35474e-05
-1.33551e-05
8.29159e-06
1.71158e-05
-2.91006e-05
3.69819e-06
2.11618e-05
1.5978e-06
1.38796e-06
-2.4109e-05
-3.37776e-06
5.61639e-06
4.03033e-05
-4.25339e-05
-1.17958e-05
-1.89802e-06
-2.51694e-08
1.37337e-05
-8.05639e-06
6.67651e-06
-2.6105e-05
2.74815e-05
-1.8975e-06
2.96316e-05
-2.55726e-05
-2.14879e-06
3.11807e-05
9.37835e-06
-1.44359e-05
-2.61127e-05
6.57917e-06
-3.73129e-05
2.5116e-05
-3.14933e-05
4.0114e-05
-1.8641e-06
1.70826e-05
-6.59929e-06
1.41665e-05
-1.84043e-05
-4.64439e-06
9.06431e-06
1.39811e-05
-9.20321e-06
8.62303e-07
8.47766e-06
-1.44557e-07
-1.03873e-05
2.5301e-05
-1.76861e-05
2.76008e-06
-3.05219e-05
2.66543e-05
2.78896e-05
-2.40215e-05
-4.4316e-06
4.0688e-06
2.28008e-07
1.39008e-07
2.90981e-05
-4.34321e-05
-1.60716e-05
3.03885e-05
-3.81809e-05
-1.46879e-05
2.56697e-05
2.71988e-05
3.38522e-05
3.67205e-06
1.94749e-06
-3.94743e-05
2.88713e-05
-1.88704e-05
2.38512e-05
-4.17555e-05
-3.90818e-06
1.71764e-05
2.84989e-05
4.30073e-06
3.84081e-07
-4.68e-06
3.26596e-05
-3.02077e-05
-1.03395e-05
7.88637e-06
-2.30745e-05
-7.95627e-06
6.95994e-06
2.40602e-05
1.43406e-05
2.3516e-05
-1.31477e-05
-2.47097e-05
7.79437e-06
2.56036e-05
-2.47814e-05
-8.59819e-06
6.68955e-07
-8.93533e-06
8.27195e-06
-1.44983e-05
-1.21485e-05
1.23035e-05
1.43734e-05
2.14749e-06
2.29508e-05
-5.47454e-06
-1.96293e-05
-3.64589e-05
3.65365e-05
-6.50623e-06
-2.68142e-06
3.0862e-05
-2.99734e-05
1.79565e-06
1.92157e-05
4.09898e-06
1.11082e-05
-3.44079e-05
-9.74e-08
-2.96596e-06
3.06919e-06
-4.24214e-06
4.2523e-06
4.36339e-09
-2.00718e-05
-1.01018e-05
1.20563e-05
1.81208e-05
-2.60054e-05
-8.15015e-07
3.22988e-05
-5.44714e-06
-7.85017e-06
2.86627e-05
-2.96874e-05
8.8754e-06
-2.34935e-05
1.90928e-05
-8.39567e-06
1.27825e-05
1.18358e-07
2.41757e-05
-2.68141e-05
2.50187e-06
-3.31476e-05
7.73751e-06
2.13322e-05
4.07775e-06
1.59651e-06
3.97921e-05
-1.50918e-05
-2.63095e-05
3.00644e-06
-5.57468e-06
-1.84246e-05
-9.20256e-06
7.5553e-06
1.88613e-05
-1.36026e-06
4.92769e-06
-2.24271e-05
-2.84776e-06
-6.65982e-06
8.2709e-06
1.3154e-06
1.71423e-05
-5.05968e-06
-1.23144e-05
2.49406e-07
1.26537e-05
-4.25032e-05
4.12671e-05
-1.14085e-05
-1.76808e-05
2.99475e-05
4.25422e-06
-1.6513e-05
-4.2513e-06
3.80563e-06
2.89411e-05
-2.85086e-05
-4.11883e-05
3.06238e-06
4.71286e-07
3.76784e-05
-2.41289e-05
3.3604e-06
1.87972e-05
1.97791e-06
-2.11865e-05
1.31349e-05
2.96691e-05
-2.1609e-05
-1.67416e-05
-3.08244e-05
8.96717e-06
3.86282e-05
4.53145e-06
-3.54692e-05
-3.9294e-06
3.4872e-05
-2.57415e-05
3.83842e-06
-1.73624e-06
2.36377e-05
-2.64193e-05
-1.48859e-06
-1.96901e-06
2.98855e-05
6.09885e-06
-3.14009e-06
2.87948e-05
-3.17479e-05
9.23363e-06
-5.33474e-06
-2.06376e-08
-3.87257e-06
4.58767e-06
-4.33837e-05
-7.56301e-06
4.63559e-05
-5.34372e-06
3.52652e-06
2.52353e-06
-7.11423e-07
-2.89859e-05
-7.57905e-06
1.59519e-05
2.06141e-05
-1.85785e-06
1.7531e-05
3.02948e-06
-1.87e-05
-1.303e-05
-1.3704e-05
1.00242e-05
-6.2085e-06
2.71158e-06
3.25211e-05
-2.90124e-05
2.56517e-05
-3.38039e-05
2.07411e-06
6.0813e-06