/*--------------------------------*- C++ -*----------------------------------*\
| =========                 |                                                 |
| \\      /  F ield         | OpenFOAM: The Open Source CFD Toolbox           |
|  \\    /   O peration     | Version:  2406                                  |
|   \\  /    A nd           | Website:  www.openfoam.com                      |
|    \\/     M anipulation  |                                                 |
\*---------------------------------------------------------------------------*/
FoamFile
{
    version     2.0;
    format      ascii;
    arch        "LSB;label=32;scalar=64";
    class       volVectorField;
    location    "16";
    object      U;
}
// * * * * * * * * * * * * * * * * * * * * * * * * * * * * * * * * * * * * * //

dimensions      [0 1 -1 0 0 0 0];

internalField   nonuniform List<vector> 
59516
(
(0.12052 0.00149452 -0.000983561)
(0.114731 0.00148152 0.00128422)
(0.126389 -0.00250908 0.000946182)
(0.134569 0.00398176 0.000628984)
(0.114667 0.000449643 -0.00334046)
(0.101188 -0.004926 -0.0107866)
(0.135263 -0.00131974 -0.00198905)
(0.119225 -0.000321192 -0.00138348)
(0.127421 0.000701869 -0.00115129)
(0.0768599 -0.001163 0.00430319)
(0.13368 0.000490367 -0.000241898)
(0.0739045 -0.00102064 -0.0011648)
(0.133098 0.00225653 0.00136087)
(0.0285643 -8.58265e-05 -7.99939e-05)
(0.0793123 0.00361679 0.00276982)
(0.0702431 0.00392717 -0.00371582)
(0.140249 -0.000555697 -0.000127562)
(0.0729753 0.00382605 -0.000817407)
(0.120564 0.00356868 0.0022112)
(0.141064 -0.00137409 0.000328769)
(0.0626674 0.000632783 0.000626872)
(0.142855 -0.000467612 -9.9877e-05)
(0.141585 -0.000573426 0.000550376)
(0.0485701 -0.00106998 -0.000500031)
(0.150647 -0.00152497 0.00210519)
(0.087805 0.000299836 0.00197346)
(0.0602664 0.00125698 -0.00150958)
(0.0486426 0.00438772 3.14447e-05)
(0.0763206 0.00154831 0.00171426)
(0.0251154 -0.00428492 0.00132945)
(0.108785 -0.0194755 -0.00396328)
(0.0503819 0.00507711 0.000167274)
(0.137032 -6.35758e-05 -0.000234977)
(0.128777 -0.00100627 0.00400948)
(0.131998 0.0014752 0.000513917)
(0.144147 -0.000949772 -0.000397596)
(0.0262429 -0.00185815 -0.00309513)
(0.0748022 0.00166079 -0.00516082)
(0.106876 -0.00229215 -0.00165305)
(0.144306 -0.00443605 0.0033797)
(0.119992 -0.00106247 0.00212193)
(0.137251 -0.00250136 -0.0024841)
(0.139254 -3.54715e-05 0.000120846)
(0.130783 -0.00191221 0.000605978)
(0.140382 -0.000716201 -0.000792067)
(0.0769015 -0.00198663 -0.00238699)
(0.132842 -0.000219712 0.00213205)
(0.139901 0.000349518 -0.000440492)
(0.112378 -0.00694337 0.0111058)
(0.134131 0.0011501 0.000779246)
(0.104264 0.00941804 -0.0135543)
(0.0653869 -0.00334236 0.00207474)
(0.135922 0.00139736 -0.0022754)
(0.135705 -0.000212077 -0.000922108)
(0.0612054 0.00289791 -0.00065021)
(0.131937 0.00103222 -0.00129238)
(0.13152 0.00331802 0.00333216)
(0.0712765 0.00369214 -0.00282637)
(0.140546 -0.00324817 0.000340271)
(0.129683 0.00273301 0.00172074)
(0.143651 -0.000694943 0.00103315)
(0.0271944 0.00212877 -0.00130976)
(0.137566 -0.00348844 -0.000477244)
(0.13609 7.90029e-05 -0.00110652)
(0.138214 0.00236576 0.000519514)
(0.13368 0.00086671 4.39626e-05)
(0.0396579 -0.00217801 0.00344488)
(0.0572423 0.000622809 -0.000281867)
(0.121442 -0.00301221 0.0190497)
(0.132619 0.00149529 0.00262078)
(0.0506952 0.000719491 -7.54011e-05)
(0.137686 0.0010841 -0.00132872)
(0.0351287 0.00268999 -0.00500656)
(0.135768 0.000126212 -0.0016091)
(0.140805 -0.00160172 0.000443493)
(0.141034 0.000473882 0.000757897)
(0.139326 0.000910821 -0.000226074)
(0.142734 0.00199022 -0.00103039)
(0.0612709 -0.00156437 0.00158764)
(0.132467 0.000596476 7.39857e-05)
(0.0598452 0.00170961 7.5796e-05)
(0.132424 0.00151395 0.000352243)
(0.130682 -0.000159323 0.0004069)
(0.0301855 -0.00122347 0.00447398)
(0.132115 0.000827295 7.32473e-05)
(0.138949 -0.00132391 -0.000279137)
(0.0463824 -0.00237766 0.000501347)
(0.140879 -0.00127871 0.000859526)
(0.0746322 0.00191859 0.00238089)
(0.10931 0.00561317 -0.00275554)
(0.128518 -0.000144746 -0.00628101)
(0.132422 -0.00126154 -0.000115286)
(0.13886 0.00046494 0.00106947)
(0.131118 -0.00122122 -0.000830487)
(0.134313 -0.00262385 -4.41324e-05)
(0.111095 -0.00810282 0.00385382)
(0.137397 -0.00045969 0.00269017)
(0.0684461 -0.00218067 -0.00416049)
(0.0727605 0.00173509 0.000760393)
(0.139858 0.000676091 0.00166486)
(0.0554721 0.00234826 0.00187311)
(0.0369283 0.0020289 -0.00439548)
(0.0321867 0.00205806 0.0044982)
(0.072829 -0.00207588 -0.00212432)
(0.140938 0.000256641 -0.000303263)
(0.135284 0.000228984 0.000831076)
(0.0582248 0.00443203 -0.00126266)
(0.122046 0.000559291 -0.00094941)
(0.118476 -0.000285643 -0.00265779)
(0.0840356 0.000570493 -0.0042559)
(0.125506 0.00938291 -0.00931811)
(0.0478616 0.00455571 -3.53114e-05)
(0.0842991 0.000124943 -0.00324153)
(0.118226 0.0136352 -0.00645428)
(0.140174 -0.000859884 0.00238046)
(0.117935 0.000632158 -0.000964454)
(0.0746582 0.000847815 -0.00352316)
(0.132458 6.53638e-05 0.000419033)
(0.0290548 0.00133626 0.00143103)
(0.141993 0.00222686 3.05626e-05)
(0.140146 0.000833183 -0.000179007)
(0.139987 0.00178815 7.43037e-05)
(0.145885 0.000265003 -0.000633921)
(0.13776 0.000672292 0.000264333)
(0.132218 -0.0101629 0.00135512)
(0.0989439 0.000855421 0.00156448)
(0.0390289 -0.000959412 0.00359839)
(0.136432 -0.00533105 -0.00125543)
(0.0908399 -0.00176901 0.0130227)
(0.137009 5.18188e-05 0.00192317)
(0.137609 0.000188445 0.00239565)
(0.130402 0.000873508 0.00342277)
(0.0318883 0.000688176 -0.0026284)
(0.139853 -0.000825064 0.0011313)
(0.114642 0.000533759 0.00087058)
(0.130176 -0.00172366 -0.000959561)
(0.108585 0.0108172 -0.00670612)
(0.13577 -0.00137877 0.000256978)
(0.0578157 0.00402934 -0.000107242)
(0.112645 0.00254045 -0.00198695)
(0.0636811 -0.00102722 -0.00315561)
(0.142272 0.000557222 -0.00128673)
(0.0255629 0.00150629 0.0027821)
(0.13418 -0.000855825 -0.00156627)
(0.134305 0.000579934 0.00041768)
(0.13377 0.0021647 0.000128964)
(0.139432 -0.00082686 5.87646e-05)
(0.126272 0.000546182 -0.000844951)
(0.0626386 -0.00119697 0.0019674)
(0.119011 0.000813022 -0.00182647)
(0.116326 -0.000527124 -0.000945891)
(0.0531835 -0.00258205 5.61289e-06)
(0.142177 -0.000168691 0.000594648)
(0.144459 0.00106236 0.00201021)
(0.102189 -0.00178582 0.00111296)
(0.0271519 -0.00162534 0.00321525)
(0.131397 0.00052526 -0.00151157)
(0.121656 0.000348542 -0.00074562)
(0.0951127 0.00125698 -0.000147139)
(0.0266829 0.00226347 -0.00446269)
(0.0773031 0.00272765 -0.00258407)
(0.0793597 -0.0040257 -0.00106394)
(0.0486453 -0.00435047 0.000587854)
(0.0372824 -0.000429806 -0.000743448)
(0.118457 8.04873e-05 0.00105746)
(0.145377 7.66724e-05 0.0014123)
(0.084623 -9.29619e-05 0.00104364)
(0.13767 0.000498699 0.000757961)
(0.0249962 -0.000823321 0.00374701)
(0.131044 0.000296674 0.0017518)
(0.098911 0.00193186 0.000538135)
(0.0660093 0.00100041 -9.9671e-05)
(0.0817305 0.00369759 0.00128611)
(0.133909 -0.000992261 0.000878058)
(0.065561 -0.00145224 0.00014983)
(0.1331 0.000553947 0.00118562)
(0.139226 8.3623e-05 -0.000900338)
(0.141259 0.000214956 -0.000554757)
(0.087617 -0.00286688 0.00587668)
(0.0538111 -0.00102358 0.00124207)
(0.138871 0.00202112 0.00163208)
(0.0471714 -0.00370874 -0.00098988)
(0.0409685 -0.000244603 -0.00243466)
(0.0817308 -0.0020857 -0.00133187)
(0.13803 0.000559414 0.00225698)
(0.0793537 0.000277105 0.000744868)
(0.0486733 -0.000936283 -0.00273097)
(0.034842 -0.001222 0.00088456)
(0.128429 0.000713341 0.00159937)
(0.116687 0.000545019 0.000748274)
(0.137781 -0.000898131 0.00322291)
(0.0706559 0.0026448 0.00108909)
(0.139183 -0.000192179 -0.000240212)
(0.0731549 0.00321407 -0.00150095)
(0.140107 -0.00164882 -0.000802372)
(0.0408567 -0.000272529 0.00120979)
(0.0741395 0.00125037 -0.00104631)
(0.0578789 -0.000702817 -8.107e-05)
(0.125899 0.00329205 0.00200148)
(0.139718 -0.0015881 0.00236531)
(0.105018 -0.0016876 0.000584351)
(0.139512 0.000935703 -0.00152445)
(0.118491 0.0002268 0.000147776)
(0.0267491 0.00397022 -0.00139404)
(0.139799 -0.0023873 -0.000753315)
(0.142441 0.000114037 -0.00081858)
(0.137543 -0.000393812 0.000235716)
(0.134986 0.00208636 0.000206631)
(0.0317245 -0.000507377 0.000325191)
(0.126109 -0.00145862 4.99527e-05)
(0.071341 0.00394624 0.00209583)
(0.0279986 -0.00556675 -0.000737948)
(0.140894 0.000269527 -0.000618165)
(0.0734825 -0.00115149 0.00235952)
(0.128815 1.95175e-05 -0.00145427)
(0.142942 -0.00169314 0.000622481)
(0.132005 0.00166465 0.000499928)
(0.145681 -0.000345338 0.000396542)
(0.0711464 0.00289988 -0.00145858)
(0.142339 -0.00130428 -0.00106219)
(0.0723211 0.00459159 0.00174434)
(0.110832 0.0026688 0.000517102)
(0.137071 0.00104934 0.00180342)
(0.0570316 0.00122175 0.00188834)
(0.1364 -0.00158283 0.00136796)
(0.140253 0.000619697 -0.000894846)
(0.0385331 -0.000659378 0.00290392)
(0.062537 0.00237067 -0.00237841)
(0.136605 -0.00242766 0.00229961)
(0.0755778 0.000366121 -0.00359048)
(0.142347 -0.00196189 -0.000256721)
(0.140029 0.00186443 -0.00147339)
(0.134901 -0.000261462 0.00248781)
(0.0353074 -0.00313059 -0.00174993)
(0.046557 0.00238412 -0.00259696)
(0.0456825 0.0029929 -0.00204968)
(0.0796831 0.000408837 0.00173866)
(0.115922 -0.00284046 0.00191534)
(0.137419 -0.000620355 0.0030053)
(0.0802269 -0.000234556 0.00106392)
(0.135969 0.000239609 0.00225672)
(0.0285902 0.00197754 0.00383269)
(0.0715416 -0.00137969 -0.00144322)
(0.0364671 0.000785756 0.00369812)
(0.135306 -0.000126808 0.00202973)
(0.109658 -0.000964292 -0.000619961)
(0.135136 -0.000923891 0.000544998)
(0.0849977 -0.00175599 -0.000427244)
(0.143259 -0.000849278 0.000763713)
(0.115972 -0.00010877 0.000279477)
(0.144702 -0.00311441 0.0041237)
(0.135971 -0.00161294 0.00217603)
(0.134279 0.000186462 0.00217839)
(0.138474 0.00154767 -0.000125305)
(0.135583 -0.000535477 -1.09993e-05)
(0.138176 -0.000301473 0.000363812)
(0.0737984 0.000406436 0.000178414)
(0.138204 -0.000807872 0.00286087)
(0.0580752 -0.00074009 -0.00364665)
(0.0743705 0.00243235 0.00117054)
(0.137383 0.000181889 0.000838443)
(0.138803 -0.00311933 -8.13338e-05)
(0.125211 -0.00019642 0.00203469)
(0.139692 -0.00275487 0.00130152)
(0.113036 0.000157388 0.00191277)
(0.0798852 0.00259202 -0.000588999)
(0.143242 0.00321497 -0.00138155)
(0.116674 -0.000326521 0.000561308)
(0.0606551 -0.0011156 -0.00423366)
(0.0695412 -0.000594769 -0.00198825)
(0.112 0.00231003 -0.00256558)
(0.139141 -0.0010074 -0.000867508)
(0.121942 -0.000595165 -0.000246211)
(0.115468 0.000161734 0.00263247)
(0.13908 -0.00311483 -4.698e-06)
(0.110681 0.000435572 0.00222367)
(0.0293372 0.00381481 -0.00271551)
(0.142597 -0.00278389 0.000441404)
(0.034414 0.00301247 -0.00327687)
(0.0583904 -0.00145592 0.000762275)
(0.134966 -0.000773628 0.00220738)
(0.137964 -0.00105331 0.00131808)
(0.0352294 0.00172754 0.00494044)
(0.132129 -0.000538808 -0.00261174)
(0.134757 6.23454e-05 -0.00101156)
(0.137589 0.000560888 -0.00131655)
(0.135649 0.000199179 0.00127676)
(0.0362785 0.0046511 0.00183018)
(0.135073 -0.00233906 0.00210044)
(0.132361 -0.00263264 -0.000600962)
(0.136637 -0.000185436 0.00219035)
(0.134752 0.000605373 0.00267502)
(0.131342 -0.000625359 0.000248533)
(0.115397 0.000651514 0.000512343)
(0.143467 -0.000970485 0.000445324)
(0.0407182 -0.00206932 -0.00202062)
(0.137431 -0.00259133 -0.00108904)
(0.142304 -0.00221482 -0.00148879)
(0.137293 -0.00157694 0.00140394)
(0.134455 -0.00283556 -0.000860198)
(0.131756 -0.00107417 -0.00194108)
(0.0839256 -0.00179488 0.000424848)
(0.0330099 0.000752073 0.00294808)
(0.0390225 -0.00219878 0.00103843)
(0.146029 -0.0021151 0.000752085)
(0.0308754 -0.00317948 0.00360566)
(0.0820515 1.15562e-05 -0.00215724)
(0.0672667 0.00381458 -0.000359557)
(0.142023 -0.00239901 -0.000721925)
(0.147839 0.000145191 -0.000273071)
(0.150188 -0.00215164 0.000734106)
(0.0755778 -0.000845867 -0.00175454)
(0.121488 -0.000258221 -0.00175892)
(0.0558241 -0.00442787 0.00317901)
(0.0654533 0.00122261 0.00429081)
(0.134827 -0.00264915 -0.00132613)
(0.115999 0.00254642 -0.000928732)
(0.10794 0.0104263 0.00410069)
(0.10553 -0.00127094 0.000583969)
(0.062304 -0.000265451 -6.31361e-05)
(0.0835006 -0.000948112 0.00220643)
(0.121231 0.000121262 -0.000683891)
(0.142661 0.000643533 2.30218e-07)
(0.13969 0.00143778 -0.000287492)
(0.139633 0.000666868 0.00191218)
(0.14364 -0.00304268 4.67111e-05)
(0.102976 0.00408951 0.00184613)
(0.129932 0.000909338 -0.000652168)
(0.135298 -0.000711358 -0.00108444)
(0.139892 0.000345899 0.000357695)
(0.144429 -0.00113581 0.000332896)
(0.0688297 0.00259596 -0.0048343)
(0.0304887 -0.00349948 -0.00418211)
(0.138395 -0.000415253 0.000492245)
(0.0543365 -0.0020627 0.00201095)
(0.0425071 0.001355 -0.00125553)
(0.137776 -0.00123827 0.00296079)
(0.139768 0.000610238 0.00109876)
(0.0680289 -0.000753811 -0.000215823)
(0.138643 0.000519216 0.00144391)
(0.143206 -0.000542003 0.000508564)
(0.139638 0.000415616 -0.00164401)
(0.140922 0.00114038 -3.75728e-05)
(0.0472418 0.000466256 0.000193399)
(0.147289 2.18468e-05 -0.00160442)
(0.136483 -0.00081546 0.000230744)
(0.0779346 -0.000662352 0.00162794)
(0.136964 -0.000694802 0.00200961)
(0.137835 0.000806192 0.000112191)
(0.13391 -0.000696056 -0.000722799)
(0.129671 0.000477013 0.00123227)
(0.136353 0.000846444 0.00142916)
(0.141626 -0.00162455 -0.000643682)
(0.0918859 -0.00152645 -0.000780234)
(0.0451815 0.000825577 -0.000615603)
(0.0525446 -0.00426899 -0.0014142)
(0.116833 0.000940616 0.00208247)
(0.0881222 -0.00457392 0.0102303)
(0.0758528 -0.00371077 -0.0056472)
(0.102638 0.000110748 -0.00201592)
(0.132683 0.000352271 0.00229732)
(0.132619 0.000658779 -0.00129298)
(0.133132 0.000639804 0.000495217)
(0.14639 0.000457401 0.000661674)
(0.141928 -0.00102306 -0.000743299)
(0.13718 0.00027564 -0.00019672)
(0.135621 0.000348115 -0.000266792)
(0.0400982 0.000647317 -0.000628088)
(0.114329 -0.0200229 0.00262666)
(0.0746399 0.00221509 0.00189475)
(0.0599169 -0.00163917 -0.00202119)
(0.0617181 -4.20393e-05 -0.000123674)
(0.140466 0.000881966 0.00132448)
(0.112601 0.000662065 0.0012258)
(0.143742 0.00115798 -0.000305046)
(0.0262804 0.00208312 -0.00329682)
(0.130472 0.000151706 0.00022101)
(0.0601997 0.00140957 0.000961731)
(0.141033 -0.00122031 -0.000814528)
(0.0620653 -0.00176147 -0.000482413)
(0.0747452 -0.00116135 0.00310467)
(0.128031 -0.000851283 0.00144694)
(0.131398 0.000631633 0.00147966)
(0.029814 0.0029662 -0.00342777)
(0.0719021 0.000103996 0.00450935)
(0.132863 0.000826727 5.21458e-06)
(0.0353782 -0.00199149 -0.00114667)
(0.128731 0.000756383 0.00184152)
(0.125237 0.000220028 0.000480899)
(0.138091 0.00193061 0.00134196)
(0.115491 0.00246061 0.000709991)
(0.108417 -0.00222181 0.00286989)
(0.145697 0.0026262 -0.000685883)
(0.0783526 -0.00678226 -0.00766551)
(0.138977 0.0016268 0.000712374)
(0.112383 0.00545011 0.00663869)
(0.081136 -0.00103222 0.00209492)
(0.0860214 0.000120837 -0.000127719)
(0.140957 -0.000124654 0.000692473)
(0.14489 0.00124668 0.000472215)
(0.0661995 -0.000316615 -0.000410551)
(0.140564 -0.000575481 0.000131426)
(0.115272 -0.00133949 -0.00143053)
(0.139916 -0.00074523 0.000570827)
(0.138645 -0.000730665 0.00119982)
(0.0663204 0.00114641 -0.0028596)
(0.138359 -0.000921476 -0.000765842)
(0.141663 -0.000132245 -0.00056922)
(0.141758 -0.000951614 -0.000489358)
(0.142271 -0.00109235 -0.000388513)
(0.0344311 5.9671e-05 -0.00350022)
(0.0304954 0.000277755 -0.00451896)
(0.134769 -0.000402693 -0.00157802)
(0.141999 0.00132055 0.000266267)
(0.140524 -2.10578e-06 -0.00211055)
(0.0493434 0.00157158 -0.00271558)
(0.137007 0.00024897 -0.000767744)
(0.127837 -0.00172839 0.00222574)
(0.13499 0.00213152 0.000358367)
(0.142454 0.00157754 -0.000347815)
(0.139881 -9.03149e-05 7.02047e-05)
(0.141226 0.00140348 0.00153757)
(0.142764 0.00137062 0.00133388)
(0.106032 -0.000886584 -0.00169646)
(0.137118 0.00163493 0.000371086)
(0.0725971 2.31482e-05 -0.00212258)
(0.140282 -0.0029681 -3.33174e-05)
(0.12744 0.00012104 -0.0017184)
(0.135503 0.000725549 -0.000955159)
(0.138939 0.000912495 0.000312421)
(0.142084 2.21483e-05 -0.00113985)
(0.138152 0.00208544 0.00110462)
(0.053626 0.00344405 0.00162307)
(0.050328 0.000982499 0.0021971)
(0.028328 0.0028162 -0.00363062)
(0.132037 0.00141837 0.00135606)
(0.14327 -0.000342363 -0.000464847)
(0.134307 0.00017347 -0.00036294)
(0.134624 0.00226958 0.00110092)
(0.0459864 8.78505e-05 0.00126504)
(0.0317212 -0.00103275 0.00295068)
(0.130254 0.00169265 0.000952207)
(0.13584 -0.000245393 0.000194183)
(0.139486 0.00104425 0.000784319)
(0.145124 0.000855478 -0.00108208)
(0.140328 0.000580638 -0.00229943)
(0.140578 0.00163368 -3.31989e-05)
(0.139516 0.00154607 -0.00126496)
(0.0361749 -0.000618323 0.00425019)
(0.134184 -0.00161781 0.000951524)
(0.0763187 0.000622673 0.00299406)
(0.0724752 -0.00673525 0.00107052)
(0.139241 -0.00038218 -0.00110412)
(0.120065 -0.00140053 0.000329847)
(0.140233 0.00138437 -0.00119388)
(0.0286002 -0.0046977 -0.00322374)
(0.143385 0.00198986 0.00034243)
(0.142009 -0.000451565 -0.000942063)
(0.135806 0.000805569 0.000418747)
(0.117962 0.00186059 0.00129309)
(0.13526 1.37396e-05 -0.000147424)
(0.138122 0.00199755 -0.000244214)
(0.129734 -0.000556721 0.000542885)
(0.13492 -0.000682641 0.000618369)
(0.106884 0.00344786 -0.000624214)
(0.141198 -0.00211207 0.0002806)
(0.142005 -0.00198148 0.00070282)
(0.0300437 -0.00279345 0.00132546)
(0.141078 -0.000586442 -0.00222512)
(0.127138 -0.000397275 -0.000817492)
(0.0673373 -0.00169935 0.00454966)
(0.111072 0.0012024 -0.00180776)
(0.141172 0.000163143 -0.00172847)
(0.137566 0.000106921 -0.000536588)
(0.105377 -0.000664472 -0.00199155)
(0.0300608 -0.000888364 -0.00321473)
(0.142216 8.06923e-06 -0.000276448)
(0.135588 0.00131224 -0.000295567)
(0.145446 -5.59751e-05 0.00034328)
(0.13354 0.00164324 0.000804765)
(0.0528878 0.00261007 0.00165264)
(0.138312 0.00135923 -0.000748346)
(0.0305033 0.00378873 -0.00313896)
(0.138378 0.00105144 -5.69166e-05)
(0.10223 0.0108953 -0.00336524)
(0.138485 0.00143445 -0.000481476)
(0.066479 -0.000700722 0.00218182)
(0.124317 2.21255e-05 -0.00270736)
(0.114904 0.00171314 -0.00303987)
(0.0473772 0.00408755 0.00262148)
(0.136069 0.000741502 -7.13696e-05)
(0.1344 0.00251291 -0.00051213)
(0.0316639 0.00171814 0.00349777)
(0.136372 -0.00130872 -0.00025515)
(0.13348 -0.00274426 3.59936e-05)
(0.0515716 -0.000254812 -0.00150993)
(0.080266 0.0042678 0.000215208)
(0.0733867 0.000812914 0.00120997)
(0.137682 0.000913557 4.26805e-06)
(0.136106 -0.00330086 0.000180692)
(0.0371203 -0.000765094 0.0017499)
(0.0747237 -0.000943823 -0.00165778)
(0.0768217 0.00249413 -0.000692203)
(0.127417 0.00346963 0.00178556)
(0.135812 -0.00318584 0.000326108)
(0.0326839 0.000909437 -0.0050395)
(0.144434 -0.0024373 -0.000233664)
(0.138696 0.00150524 -0.00192889)
(0.137797 0.00211633 3.74111e-05)
(0.0901447 0.00410547 -0.00369921)
(0.14487 0.00111028 -0.000233578)
(0.0332382 -0.000519007 -0.00456066)
(0.140013 -0.00126994 -0.000135493)
(0.036185 -0.000807216 4.4745e-05)
(0.0720038 -0.00422344 -0.000341824)
(0.139931 0.000968777 0.000681593)
(0.0767819 -0.00313647 5.05252e-05)
(0.0287314 0.0044633 0.00399207)
(0.0500706 0.00159962 -0.00334293)
(0.0611612 -0.00498043 0.00185814)
(0.075023 0.00297421 -0.00162495)
(0.138601 -0.000800926 -0.00131234)
(0.0662875 -0.00181663 -0.00116204)
(0.0812003 0.00174883 -0.00108314)
(0.127425 -0.00348191 -0.00976187)
(0.136358 0.00258198 -0.000548329)
(0.031696 0.00220177 -0.000512329)
(0.124538 -0.00106026 -0.00109433)
(0.0834442 0.00774463 -0.00119472)
(0.141306 -0.00129195 -0.0011765)
(0.0717752 0.000675967 -0.00151601)
(0.13642 0.00282363 -0.000882608)
(0.0752237 -0.00464476 -0.00125134)
(0.13066 0.000467509 0.00138789)
(0.139127 0.00126219 -0.00017305)
(0.0657019 0.00491648 -0.00560717)
(0.144795 -2.25245e-05 -0.000739489)
(0.0474978 0.0021369 0.00215431)
(0.0273518 0.00403333 0.00210363)
(0.140181 0.000544135 0.000356928)
(0.13745 0.00197137 0.000220468)
(0.131264 0.000161897 0.00149912)
(0.133873 0.00353918 -0.00160646)
(0.140118 -0.00206121 -0.000323918)
(0.0758452 0.00159909 -0.00264897)
(0.143141 -0.0016412 -0.000958209)
(0.0679251 -0.000945909 0.00319655)
(0.139869 0.0014214 -0.00089731)
(0.135179 -0.00140453 -0.00196428)
(0.0392638 0.0017089 -0.00671309)
(0.144718 -0.00115762 -0.000612981)
(0.0729082 0.000460467 0.00315474)
(0.0364796 -0.00365532 -0.00356974)
(0.145773 0.00103313 -0.000300393)
(0.0572826 -0.00123568 0.000916908)
(0.134495 -0.000372275 -0.000616259)
(0.137079 4.13913e-05 -0.000409197)
(0.131994 0.00269828 0.00205618)
(0.07635 -0.00390313 -0.00306219)
(0.142897 0.00049162 -0.000140076)
(0.108808 -8.71192e-05 0.00126307)
(0.145282 -0.000797168 0.00069303)
(0.144704 0.000787898 -0.0015556)
(0.141942 0.00133825 -0.000179215)
(0.137899 0.00177933 -0.000101826)
(0.0611851 -0.00415785 -0.00176479)
(0.067414 0.000368613 -0.00197661)
(0.141185 0.00151391 -0.000156612)
(0.141826 0.000350195 -0.000478853)
(0.0458328 -0.00387842 -0.00164085)
(0.13968 0.00116518 -0.00132765)
(0.146445 -0.000787129 0.000872475)
(0.143706 -0.0017159 -0.000160319)
(0.141276 -0.00162014 -0.000659438)
(0.12917 0.00142632 -0.00110417)
(0.0279608 0.00231216 0.00319164)
(0.146128 -0.000658634 0.00022847)
(0.113106 -0.00242073 -0.00312426)
(0.133791 -0.00124054 -0.000230089)
(0.11553 9.2318e-05 -0.0012632)
(0.0428975 0.00403111 -0.00169758)
(0.137853 0.00194502 -0.000917527)
(0.107933 0.000447425 -0.000966002)
(0.139628 -0.00127804 -0.00128118)
(0.138502 -0.00255418 -0.000828844)
(0.138649 0.00016563 0.00019051)
(0.0232073 0.0018525 -0.00344218)
(0.030876 -0.00237339 -0.00372351)
(0.133435 -0.00303831 -0.00099598)
(0.134629 0.00163315 -0.000224486)
(0.137201 0.000899213 0.000240478)
(0.136596 0.00157182 0.000396562)
(0.111305 -5.25266e-05 0.000511233)
(0.13873 -0.00139878 -0.000475705)
(0.141436 0.0008105 -0.00167966)
(0.0287513 0.00188343 0.000700386)
(0.132648 -0.00318552 -0.00109183)
(0.134492 -0.0066008 -0.000896075)
(0.0551913 -0.00165417 0.00296952)
(0.070616 -0.00521303 0.000481667)
(0.143516 -0.00154975 -0.000625688)
(0.140645 -0.00161284 -0.00145408)
(0.141752 0.000685232 -0.00246212)
(0.136225 -0.000603613 -0.00104237)
(0.122717 -0.00268968 0.000219724)
(0.140426 5.12253e-05 -0.00118984)
(0.118881 0.00174131 -0.00219292)
(0.144703 0.00221057 -6.53769e-05)
(0.137342 -0.00185523 -0.00138971)
(0.140099 -0.0026791 0.00368195)
(0.136385 -0.00143555 -0.00138642)
(0.0544429 -0.00303325 0.00411675)
(0.145257 -0.000229174 -0.00148187)
(0.0461487 0.000880886 -0.00131576)
(0.0955333 -0.00834261 0.00522533)
(0.0751228 0.00113066 0.00344849)
(0.126006 -0.00119788 -0.00856407)
(0.136149 -0.000984863 0.00120567)
(0.118545 -0.0154824 -0.00370949)
(0.137173 8.49254e-05 0.000653425)
(0.147292 0.000401415 4.53868e-05)
(0.137219 0.00142031 -0.000389341)
(0.139548 -2.7892e-05 0.00185309)
(0.0474898 0.00075507 -0.00097095)
(0.101061 -0.00354221 -0.00224266)
(0.11254 -0.00182339 -0.0138694)
(0.137535 0.000313122 0.00121003)
(0.124307 -0.00268712 0.000844742)
(0.134582 -0.00663811 -0.00310163)
(0.135709 0.000692141 0.000763038)
(0.128341 0.000679673 -0.000562432)
(0.0504376 -0.00174184 0.00120537)
(0.0685638 -0.00102361 0.00327292)
(0.0357136 -0.000955865 -0.000443452)
(0.0316657 -0.000493313 -0.00261326)
(0.0478161 -0.00120046 -0.000406192)
(0.134702 -0.000273814 0.00226895)
(0.136127 0.000596513 -0.000310512)
(0.0332349 -0.000193838 0.00533402)
(0.0298114 0.00287415 0.00413616)
(0.139133 0.00256352 -0.000255082)
(0.0983842 -0.0115781 0.00763528)
(0.0491982 0.00138712 0.000855739)
(0.140255 0.00134436 -0.000620346)
(0.125985 -0.003015 -0.00155998)
(0.136045 0.000126356 0.000282978)
(0.0560149 0.00296143 -0.00178269)
(0.0715314 -0.000162205 -0.000463213)
(0.123536 -0.000676729 -0.000411975)
(0.138861 0.00150189 -0.000358069)
(0.138319 0.00168826 -0.000832059)
(0.0518477 0.00659973 -0.00314496)
(0.0341918 -0.00112371 0.0025249)
(0.106216 -0.0149866 -0.0106863)
(0.0359038 -0.00447419 -0.00156921)
(0.138238 -0.000178634 -0.000791652)
(0.0372054 0.00152144 -0.00582271)
(0.119242 -0.000313468 0.00150789)
(0.138389 -0.000409656 -0.000182748)
(0.149708 -0.00196752 0.000645793)
(0.0568985 -0.00114504 -0.00114752)
(0.119121 -0.00300338 -0.00166241)
(0.048072 0.00129684 -0.00202038)
(0.041733 0.00541972 -0.0019619)
(0.138916 -0.0011057 -0.000853216)
(0.0253191 -0.0013684 -0.0042579)
(0.138471 -0.00243956 0.000741242)
(0.0654252 0.000719075 -0.00319165)
(0.14088 -0.000492426 0.000101747)
(0.138699 -0.00124457 -0.000973605)
(0.0314313 -0.000394005 0.00488886)
(0.0690662 -0.00271662 0.000448749)
(0.138402 -0.000728666 -0.00106928)
(0.046441 -0.00312588 -0.00042581)
(0.135616 -0.000766801 0.000213982)
(0.0706139 -0.00248602 0.0044507)
(0.122558 -0.000577019 -0.00222415)
(0.138963 0.000653194 -0.00115186)
(0.0524656 0.00151987 0.00122954)
(0.0326923 0.000930511 -0.00501617)
(0.0666468 0.00163641 0.00184733)
(0.110975 0.0155379 0.00431896)
(0.125264 0.000985262 0.000247413)
(0.07506 -0.00107098 0.00418423)
(0.109174 -0.000126649 0.00189519)
(0.0407294 -0.00106338 0.000892379)
(0.138461 0.000837868 -0.0010434)
(0.0345417 2.8592e-05 -0.00112546)
(0.144682 -0.00308341 0.00100278)
(0.143456 -0.00185929 0.00128414)
(0.142052 -0.000356163 0.000679424)
(0.0277976 0.00335927 -2.30832e-05)
(0.144168 -0.00193527 -8.46126e-05)
(0.0949127 0.00041134 -0.00154816)
(0.140558 0.00215097 0.00109791)
(0.0692617 -0.00106961 8.17482e-05)
(0.108257 -0.0114938 0.00633577)
(0.144381 -0.00149681 0.000261281)
(0.0572625 -0.00159315 -0.00119034)
(0.136827 -0.00089439 -0.0001134)
(0.108993 0.00166773 -0.0190543)
(0.130877 3.73399e-05 -1.0223e-05)
(0.0451541 0.00146581 -0.00349858)
(0.0688428 -0.00156896 -0.00385055)
(0.139557 -9.3449e-05 0.000472049)
(0.140052 0.000586418 -0.000292704)
(0.04408 0.00681508 0.00115822)
(0.12804 0.0016153 -0.00125769)
(0.0775221 -0.00427025 0.000970898)
(0.0335343 -0.00364458 0.00246448)
(0.139703 5.78483e-06 0.000516921)
(0.103304 -0.000970288 0.00979119)
(0.137628 0.00201493 -0.00108812)
(0.140939 1.34029e-05 0.000653906)
(0.140456 -0.000119545 0.000634955)
(0.138956 0.000301217 -0.00119834)
(0.143347 0.000805338 0.00162458)
(0.059242 0.00202221 0.0024042)
(0.0586141 -0.00557476 -0.00271091)
(0.142855 0.00191183 -0.000346515)
(0.107839 -0.00798253 0.00804547)
(0.131357 0.00173149 3.48756e-05)
(0.13855 0.00016963 -0.000827354)
(0.103906 0.00253525 0.000466477)
(0.146127 -0.00039627 -0.000452103)
(0.139887 0.00118117 -0.000106807)
(0.121991 -0.00186549 -0.00234057)
(0.11993 0.00169305 0.00151672)
(0.0489381 -0.00102796 -0.00413179)
(0.0900737 0.00087446 -0.00149446)
(0.0675445 0.000143104 -0.00257683)
(0.138444 -0.000118685 -3.68063e-05)
(0.142031 -0.000610262 0.00157129)
(0.115078 -0.0011874 -0.00320037)
(0.114741 -0.00156555 -0.00160071)
(0.0289051 0.00340061 0.000143239)
(0.101373 -0.00234075 -0.00142612)
(0.0737047 -0.00270224 -0.0028499)
(0.140099 0.000293802 -0.000170046)
(0.140002 0.000684974 -0.00164235)
(0.105085 -0.0086223 0.00563096)
(0.137267 0.000582945 0.000571657)
(0.101471 -0.003502 -0.00132951)
(0.101544 -0.00211235 0.00789493)
(0.137309 0.00211079 -0.000370784)
(0.0417242 -0.00472014 0.00041557)
(0.140001 0.000253755 -0.00123948)
(0.0711103 0.00228033 -0.000397398)
(0.13899 -2.10618e-05 -6.18446e-05)
(0.0394359 0.00523789 0.00185751)
(0.144944 0.00236337 -0.00159047)
(0.101782 -0.00388378 0.0024925)
(0.141679 -0.000822142 0.000393357)
(0.127255 0.000539894 -0.00129631)
(0.138312 0.000966176 0.000451951)
(0.146146 -0.00155634 -0.000607778)
(0.137152 -0.00265415 -0.000664948)
(0.0503801 -0.00329664 -0.000247163)
(0.0635064 0.00205394 -0.00332401)
(0.0392818 -0.000830311 -0.000432778)
(0.138894 0.000613173 -0.000216939)
(0.140492 -0.000582341 -0.000542906)
(0.135374 0.00138595 6.47354e-05)
(0.145516 0.000596997 0.00152828)
(0.0268945 0.00103201 0.000211713)
(0.116925 0.00126241 0.000213886)
(0.110759 -0.000363295 -0.00198856)
(0.140159 0.000214183 0.000738575)
(0.135282 0.000128866 -0.00233245)
(0.136666 0.00105496 0.00010175)
(0.118533 -0.0015839 0.00107788)
(0.138757 5.21897e-05 0.000431322)
(0.0290815 -0.00361005 -0.00400155)
(0.10271 -0.00339916 0.000667175)
(0.137263 0.000861625 0.000385834)
(0.0369009 -0.00205274 0.00282946)
(0.0587441 -0.000337698 -0.00230259)
(0.0779602 -0.00345685 -0.000110101)
(0.029496 0.000590003 -0.00424223)
(0.114147 -0.000896611 -0.00162167)
(0.139329 0.000821419 -0.00127331)
(0.0728348 -0.000339073 -0.00125064)
(0.0274923 -0.00411265 -0.00189509)
(0.121422 0.000678707 -0.00146539)
(0.0335373 1.92744e-06 0.000661321)
(0.11833 0.00283915 -1.08714e-05)
(0.138524 -6.21371e-05 -0.000674883)
(0.137754 -0.000497331 -0.000712884)
(0.139131 0.00121221 -0.000634773)
(0.146392 0.00251847 -0.00182749)
(0.138418 1.55371e-05 -0.000473463)
(0.133726 0.00119796 -0.000691926)
(0.0614878 0.00186141 -0.000532825)
(0.140135 0.00060168 0.000591102)
(0.135947 0.00103634 0.000951447)
(0.110733 0.00310815 -0.00176724)
(0.114343 0.000195007 0.00189964)
(0.139745 -9.82348e-05 -0.00021134)
(0.129808 -0.00177817 -0.000989309)
(0.0831276 -0.000428437 0.000362413)
(0.143132 -0.00231453 0.00278079)
(0.0468266 0.00116581 0.000166451)
(0.106768 5.64114e-05 5.73088e-05)
(0.1104 -0.000688034 0.00209967)
(0.0805083 0.000216918 0.000970669)
(0.144015 -0.000441876 -0.00114361)
(0.106633 -0.0106559 0.0124617)
(0.124627 0.0035627 0.00266148)
(0.0464506 0.000867154 -0.00470192)
(0.0383505 -0.00341628 0.00166183)
(0.0706681 0.00267088 -0.00275573)
(0.0283976 -0.0014594 -0.00328156)
(0.134612 -0.000520334 0.000118251)
(0.133319 0.00108166 -0.000994818)
(0.13481 0.00285675 -0.00192304)
(0.111162 0.00843161 -0.00735304)
(0.130239 0.000219237 -0.00121057)
(0.132727 0.000784795 -0.000868759)
(0.0367675 -0.00167142 0.00559678)
(0.134359 0.00137263 -0.000324023)
(0.125101 -0.00111642 0.00875552)
(0.0606732 0.00148787 -0.00137138)
(0.0315152 -0.00492489 0.00207705)
(0.125834 -0.000561145 -4.26966e-05)
(0.132769 -0.000978613 -0.00168993)
(0.034769 -0.00290845 0.00452755)
(0.143643 -0.00115635 0.000148953)
(0.0335294 -0.00358243 0.00120709)
(0.140478 -0.000480256 -0.000988789)
(0.13797 0.000493341 0.00101154)
(0.124304 -0.00173785 0.000373258)
(0.143207 0.00121366 -0.000298103)
(0.13927 0.000881817 -0.00171644)
(0.120788 -0.0012222 0.00140843)