/*--------------------------------*- C++ -*----------------------------------*\
| =========                 |                                                 |
| \\      /  F ield         | OpenFOAM: The Open Source CFD Toolbox           |
|  \\    /   O peration     | Version:  2406                                  |
|   \\  /    A nd           | Website:  www.openfoam.com                      |
|    \\/     M anipulation  |                                                 |
\*---------------------------------------------------------------------------*/
FoamFile
{
    version     2.0;
    format      ascii;
    arch        "LSB;label=32;scalar=64";
    class       volVectorField;
    location    "16";
    object      U:Transformed;
}
// * * * * * * * * * * * * * * * * * * * * * * * * * * * * * * * * * * * * * //

dimensions      [0 1 -1 0 0 0 0];

internalField   nonuniform List<vector> 
59516
(
(0.00161146 -0.000777304 0.12052)
(-0.000751034 0.0018111 0.114731)
(0.000832093 0.00254919 0.126389)
(-0.00329449 0.00232301 0.134569)
(-0.00336979 -7.36721e-05 0.114667)
(-0.0104247 0.00565167 0.101188)
(-0.00180352 -0.00156376 0.135263)
(-0.00120617 0.000749884 0.119225)
(-0.000552857 0.00122982 0.127421)
(0.00427062 0.00127744 0.0768599)
(-0.00011812 -0.000533874 0.13368)
(-0.00153438 0.000210091 0.0739045)
(-0.000938987 -0.00246216 0.133098)
(4.79907e-06 -0.000117227 0.0285643)
(-0.00195548 -0.00411451 0.0793123)
(-0.000276598 0.0053994 0.0702431)
(-0.000569851 1.84529e-05 0.140249)
(-0.00246602 -0.00303736 0.0729753)
(-0.00334038 -0.00254299 0.120564)
(-0.0010056 0.000992462 0.141064)
(-0.000245933 -0.000856096 0.0626674)
(-2.49864e-05 0.000477506 0.142855)
(0.000102584 0.000788168 0.141585)
(0.000857135 0.000812531 0.0485701)
(0.000845377 0.00245819 0.150647)
(-0.00179834 0.000866254 0.087805)
(-0.00108723 0.00163608 0.0602664)
(-0.00411186 -0.00153154 0.0486426)
(-0.00046176 -0.00226335 0.0763206)
(0.00363275 0.0026327 0.0251154)
(-0.019823 0.00143298 0.108785)
(-0.00453829 0.00228233 0.0503819)
(0.00022809 8.50346e-05 0.137032)
(-0.00391414 -0.00132967 0.128777)
(-0.0014984 0.000441723 0.131998)
(0.000408001 0.000945349 0.144147)
(-0.00330793 0.00144572 0.0262429)
(-0.00526418 -0.00129642 0.0748022)
(-0.00257815 -0.00115745 0.106876)
(0.0038492 -0.00403542 0.144306)
(-0.00171507 -0.0016401 0.119992)
(-0.00352307 -0.000124846 0.137251)
(7.04064e-05 0.000104427 0.139254)
(-0.0018772 0.000707022 0.130783)
(-0.000869064 -0.000620518 0.140382)
(0.00308539 0.000353256 0.0769015)
(0.00168728 0.00132174 0.132842)
(0.000192855 -0.000528207 0.139901)
(-0.0129301 0.00208825 0.112378)
(-0.00138172 0.000144218 0.134131)
(-0.0164871 0.000771035 0.104264)
(-0.00347084 -0.00185181 0.0653869)
(0.000737393 -0.00256638 0.135922)
(-0.000790258 -0.000520339 0.135705)
(-0.00265221 0.00133656 0.0612054)
(-0.00118277 0.0011562 0.131937)
(-0.00470177 7.66204e-05 0.13152)
(-0.00441984 -0.00144405 0.0712765)
(0.00204759 0.00254436 0.140546)
(-0.00308177 0.000965916 0.129683)
(9.80023e-05 0.00124126 0.143651)
(-0.000997656 0.00229169 0.0271944)
(0.00210815 -0.00282005 0.137566)
(0.000602009 0.000931785 0.13609)
(-0.00179248 -0.00162902 0.138214)
(-0.000521197 0.000693882 0.13368)
(0.000578655 0.00403436 0.0396579)
(-0.000443565 0.000520183 0.0572423)
(-0.0192192 0.00160826 0.121442)
(0.0024246 -0.00179602 0.132619)
(-0.000616021 -0.000379303 0.0506952)
(-0.00153589 0.000762764 0.137686)
(0.00546279 -0.0015683 0.0351287)
(0.000172989 0.00160474 0.135768)
(-0.00146299 0.000788578 0.140805)
(0.000891729 6.1588e-05 0.141034)
(0.000300497 -0.000889048 0.139326)
(-0.00189763 -0.00119235 0.142734)
(0.00199992 0.000983967 0.0612709)
(-0.000240391 0.000550881 0.132467)
(-0.00157265 0.000674744 0.0598452)
(-0.00107038 0.00112713 0.132424)
(-0.000356605 -0.000252556 0.130682)
(-0.00408109 0.00220411 0.0301855)
(-0.000359095 0.000748888 0.132115)
(-0.0012448 0.000530194 0.138949)
(0.000743163 0.00231351 0.0463824)
(-0.000264381 0.00151789 0.140879)
(-0.00303705 -0.000354906 0.0746322)
(-0.00578348 -0.00237742 0.10931)
(-0.006273 -0.000348552 0.128518)
(0.00107744 -0.000666256 0.132422)
(0.00033791 -0.00111613 0.13886)
(0.00121497 -0.000839605 0.131118)
(0.00164638 -0.00204352 0.134313)
(-0.00894381 0.000718241 0.111095)
(-0.0026538 -0.000636937 0.137397)
(0.00243126 0.00401921 0.0684461)
(-0.000682838 -0.00176705 0.0727605)
(0.00175253 -0.000396889 0.139858)
(-0.00128547 0.00271485 0.0554721)
(0.0042785 0.00226519 0.0369283)
(0.0047164 0.00149165 0.0321867)
(-0.000649506 0.00289831 0.072829)
(0.000315208 -0.000241821 0.140938)
(-0.000604354 0.000614718 0.135284)
(0.00270993 -0.0037274 0.0582248)
(-0.000889889 -0.000649833 0.122046)
(-0.00232402 -0.00132074 0.118476)
(-0.00222475 0.00367269 0.0840356)
(-0.0132129 -0.000533377 0.125506)
(0.00373439 -0.0026096 0.0478616)
(-0.00155042 0.00284944 0.0842991)
(-0.0150806 -0.00038694 0.118226)
(-0.00151321 0.00202884 0.140174)
(-0.0010152 -0.000546966 0.117935)
(-0.0031521 -0.00178767 0.0746582)
(-0.000302255 -0.000297494 0.132458)
(-0.00193107 -0.000323125 0.0290548)
(-0.00104764 0.00196527 0.141993)
(-0.000629738 -0.000574168 0.140146)
(0.00175016 0.000374102 0.139987)
(-0.000583969 -0.000362024 0.145885)
(0.000578819 0.000432225 0.13776)
(-0.0102428 0.000454031 0.132218)
(0.00105526 -0.00143728 0.0989439)
(-0.00339144 -0.00153851 0.0390289)
(-0.00547686 1.3619e-05 0.136432)
(-0.0125435 0.00392184 0.0908399)
(0.000960985 0.00166667 0.137009)
(0.00229653 -0.000707537 0.137609)
(0.000776353 0.0034461 0.130402)
(-0.00177223 -0.00205943 0.0318883)
(5.53755e-05 0.00139911 0.139853)
(0.000485812 0.000898218 0.114642)
(-0.000638955 0.00186641 0.130176)
(-0.0127198 0.00043676 0.108585)
(-0.000350033 0.00135813 0.13577)
(-0.000265455 0.00402202 0.0578157)
(-0.00318138 0.000529827 0.112645)
(-0.00157618 0.00292039 0.0636811)
(0.00138849 0.00019559 0.142272)
(-0.00163519 -0.00270835 0.0255629)
(-0.00153565 0.000909621 0.13418)
(-0.000601549 0.0003859 0.134305)
(-0.00192134 0.00100548 0.13377)
(-0.000652024 0.000511876 0.139432)
(-0.000950742 0.000329162 0.126272)
(0.00113106 -0.00200601 0.0626386)
(-0.0019235 0.000545106 0.119011)
(-0.000424185 -0.000996311 0.116326)
(0.000288311 0.00256591 0.0531835)
(0.000575006 0.000226782 0.142177)
(0.00159246 -0.00162284 0.144459)
(0.00108668 -0.00180193 0.102189)
(-0.00349026 0.000893129 0.0271519)
(0.000856123 -0.00135197 0.131397)
(-6.49316e-06 0.000823036 0.121656)
(-0.000947496 0.000838991 0.0951127)
(-0.00470958 -0.00169077 0.0266829)
(0.00169272 0.00335443 0.0773031)
(0.00283334 -0.0030513 0.0793597)
(-0.0022313 0.00378066 0.0486453)
(-0.000464125 -0.000722521 0.0372824)
(0.000870548 0.000605686 0.118457)
(-0.00134501 0.000437517 0.145377)
(0.000504657 -0.00091823 0.084623)
(-0.000151646 -0.000894544 0.13767)
(0.00260839 0.00281322 0.0249962)
(-0.00170942 0.00048445 0.131044)
(-0.00194155 -0.000502045 0.098911)
(-0.00100387 -5.49302e-05 0.0660093)
(-0.00064993 -0.00386055 0.0817305)
(0.000814654 -0.00104494 0.133909)
(0.000565609 0.00134593 0.065561)
(0.00130704 -6.4703e-05 0.1331)
(-0.000904032 -1.81153e-05 0.139226)
(-0.000160174 -0.00057298 0.141259)
(0.00207177 -0.00620179 0.087617)
(-7.72446e-05 -0.00160764 0.0538111)
(-0.000503419 -0.00254857 0.138871)
(0.00165999 0.00346108 0.0471714)
(-0.000968042 -0.00224728 0.0409685)
(-0.000769985 0.00235184 0.0817308)
(0.000272238 -0.00230928 0.13803)
(-0.000429226 0.000668865 0.0793537)
(-0.00274156 0.000904802 0.0486733)
(-0.000719794 0.00132576 0.034842)
(-0.000755771 -0.00157976 0.128429)
(-0.000195549 -0.000904832 0.116687)
(-0.00330613 -0.000513076 0.137781)
(0.000247286 -0.00284955 0.0706559)
(-8.84084e-05 -0.000294649 0.139183)
(0.00141143 -0.00325437 0.0731549)
(-0.00125913 0.00133304 0.140107)
(0.000707846 0.00101824 0.0408567)
(0.00156521 -0.0004564 0.0741395)
(0.000423927 -0.0005664 0.0578789)
(-0.00365557 0.00121668 0.125899)
(-0.000795694 0.00273561 0.139718)
(-0.00135293 -0.00116578 0.105018)
(0.00177387 0.000229953 0.139512)
(0.000257133 -8.46092e-05 0.118491)
(0.00345947 -0.00239544 0.0267491)
(0.00190366 0.00162567 0.139799)
(-0.000254668 0.000786271 0.142441)
(0.000343289 0.000304635 0.137543)
(-0.00125779 0.00167737 0.134986)
(1.33573e-05 -0.000602496 0.0317245)
(0.00132427 0.000613495 0.126109)
(0.000569925 0.00443176 0.071341)
(-0.00546221 0.0013029 0.0279986)
(-0.00056128 0.000373816 0.140894)
(0.000817765 0.00249489 0.0734825)
(-0.00113738 0.000906455 0.128815)
(-0.00146614 -0.00105102 0.142942)
(-0.00162618 0.00061363 0.132005)
(-0.000197113 0.000487494 0.145681)
(-0.00264845 0.00187683 0.0711464)
(-0.000625329 0.00156153 0.142339)
(-0.00324751 -0.00368498 0.0723211)
(-0.0018294 0.00201076 0.110832)
(-0.00118367 -0.00171824 0.137071)
(-0.000472986 -0.00219882 0.0570316)
(-0.00208263 -0.000198318 0.1364)
(0.000237331 0.00106228 0.140253)
(-0.00203327 -0.00217563 0.0385331)
(-0.00335563 0.000129116 0.062537)
(-0.00316733 0.00107228 0.136605)
(-0.001978 0.0030188 0.0755778)
(1.24437e-05 0.00197857 0.142347)
(-0.0022032 0.000890433 0.140029)
(-0.000686714 -0.0024054 0.134901)
(-0.00215232 -0.00286886 0.0353074)
(-0.00202617 -0.00288494 0.046557)
(-0.00342414 -0.00119745 0.0456825)
(0.00158934 -0.000814912 0.0796831)
(-0.00341232 -0.000304691 0.115922)
(-0.00246321 -0.0018301 0.137419)
(0.000885494 -0.0006347 0.0802269)
(0.0022607 0.000198633 0.135969)
(0.00416696 0.00111203 0.0285902)
(-0.00199026 0.000159129 0.0715416)
(0.00348614 0.00146299 0.0364671)
(0.000138749 0.00202895 0.135306)
(-0.000620944 -0.000963659 0.109658)
(-0.000541123 -0.000926166 0.135136)
(0.00179275 0.000228185 0.0849977)
(0.000521208 0.0010163 0.143259)
(-3.38723e-05 -0.000297978 0.115972)
(0.0034675 -0.00383157 0.144702)
(-0.00239924 -0.00125713 0.135971)
(0.00167637 0.00140354 0.134279)
(-0.000757048 0.00135568 0.138474)
(-6.98643e-05 -0.000531014 0.135583)
(-0.000472369 -1.06185e-05 0.138176)
(1.35766e-06 -0.000443869 0.0737984)
(-0.00249271 -0.00161976 0.138204)
(0.00205205 0.00310401 0.0580752)
(0.00185773 0.0019584 0.0743705)
(0.000143967 -0.00084578 0.137383)
(-0.00305572 0.000631967 0.138803)
(0.000314048 0.00201988 0.125211)
(-0.00187045 0.00240513 0.139692)
(0.00191919 -1.30973e-05 0.113036)
(0.000947851 -0.00248336 0.0798852)
(0.00246581 -0.00248285 0.143242)
(-0.000214505 0.00061292 0.116674)
(2.74382e-05 -0.0043781 0.0606551)
(0.000273988 0.00205714 0.0695412)
(-0.00329199 0.00103983 0.112)
(-0.00079143 -0.0010682 0.139141)
(-0.000569492 0.000300867 0.121942)
(0.00151399 0.0021596 0.115468)
(-0.00308327 0.000442291 0.13908)
(0.000990848 0.0020378 0.110681)
(-0.00241031 -0.00401462 0.0293372)
(-0.00180092 0.00216832 0.142597)
(0.00377878 -0.00235237 0.034414)
(0.00137246 0.000903941 0.0583904)
(-0.000989116 -0.0021196 0.134966)
(0.00125192 0.00113114 0.137964)
(-0.00523113 0.000166403 0.0352294)
(-0.00182338 0.00194597 0.132129)
(-0.000898482 0.000468899 0.134757)
(0.00133355 -0.000519179 0.137589)
(-0.00091202 -0.000915426 0.135649)
(0.0041097 -0.00284476 0.0362785)
(-0.00314312 -6.20648e-05 0.135073)
(-0.000667307 -0.00261661 0.132361)
(-0.000708226 -0.00208097 0.136637)
(-0.00270236 -0.000468495 0.134752)
(-5.53437e-08 -0.000672936 0.131342)
(0.000282949 -0.000779042 0.115397)
(0.000530268 0.000926806 0.143467)
(0.000389711 0.00286586 0.0407182)
(0.00261953 -0.00101935 0.137431)
(0.00193635 0.00183643 0.142304)
(-0.00130196 -0.00166213 0.137293)
(0.00153138 -0.00253677 0.134455)
(0.00118454 0.00187577 0.131756)
(0.000875271 0.00162358 0.0839256)
(-0.00239619 -0.00187485 0.0330099)
(0.00184476 0.00158425 0.0390225)
(-0.000679426 0.00213955 0.146029)
(-0.00480204 0.000224311 0.0308754)
(-0.00103232 -0.00189423 0.0820515)
(0.000576811 0.00378782 0.0672667)
(0.0023758 0.000794996 0.142023)
(-1.79284e-05 -0.00030875 0.147839)
(0.00212757 0.000801184 0.150188)
(0.00193655 0.000208987 0.0755778)
(0.00133021 -0.00117942 0.121488)
(-0.000241423 0.00544553 0.0558241)
(0.00301328 -0.00329028 0.0654533)
(0.00209494 -0.00209472 0.134827)
(0.00171763 -0.00209679 0.115999)
(-0.0109389 -0.00242161 0.10794)
(0.000185604 -0.00138631 0.10553)
(-0.000191534 0.000194333 0.062304)
(0.00238989 -0.000235908 0.0835006)
(0.000223422 -0.000657643 0.121231)
(0.000206687 -0.000609438 0.142661)
(-0.00119427 0.000850648 0.13969)
(-0.000939078 0.00179423 0.139633)
(-0.000455804 0.0030087 0.14364)
(-0.00420805 0.00155711 0.102976)
(-0.000251026 0.00109051 0.129932)
(0.00128412 -0.000181873 0.135298)
(-0.000169097 -0.000467972 0.139892)
(0.000916063 0.000749482 0.144429)
(-0.00365327 -0.00409427 0.0688297)
(0.0045545 -0.00299882 0.0304887)
(0.000533083 -0.000361334 0.138395)
(0.000938928 0.00272343 0.0543365)
(-0.00140651 -0.00119754 0.0425071)
(-0.00239536 -0.00213584 0.137776)
(0.00100983 -0.000748273 0.139768)
(0.000168681 0.00076574 0.0680289)
(-0.0013907 0.000648404 0.138643)
(0.000516531 0.000534415 0.143206)
(-0.000828135 -0.00147976 0.139638)
(0.00105925 -0.000424128 0.140922)
(0.000147524 -0.000482736 0.0472418)
(-0.000495908 -0.00152601 0.147289)
(-0.000833558 -0.000152967 0.136483)
(-0.000280565 0.00173499 0.0779346)
(0.000353657 -0.00209671 0.136964)
(0.000781392 0.000227945 0.137835)
(0.000995921 -0.000122774 0.13391)
(-0.00124349 -0.000446952 0.129671)
(-0.00161616 -0.000383433 0.136353)
(-0.000214312 0.00173423 0.141626)
(-0.00157691 0.000672424 0.0918859)
(-0.000401609 0.000948291 0.0451815)
(-0.00052111 0.00446684 0.0525446)
(0.000867588 0.00211393 0.116833)
(-0.0110921 0.00159525 0.0881222)
(-0.00673547 0.000542315 0.0758528)
(-0.00201646 -0.000100536 0.102638)
(0.00158934 -0.00169581 0.132683)
(0.00144665 -0.000113943 0.132619)
(-0.000196114 0.000784939 0.133132)
(0.000800546 -7.8449e-05 0.14639)
(-0.000508148 -0.00115799 0.141928)
(-0.000270175 0.00020416 0.13718)
(-0.000263718 0.00035045 0.135621)
(-0.000555897 -0.000710276 0.0400982)
(-0.0201747 0.000893027 0.114329)
(-0.000274235 0.00290198 0.0746399)
(-0.00242627 0.000940889 0.0599169)
(-3.98594e-05 -0.000124394 0.0617181)
(5.36323e-05 -0.00159036 0.140466)
(0.00122129 0.000670339 0.112601)
(-0.00105131 -0.000573339 0.143742)
(-0.00248834 0.00300277 0.0262804)
(-0.000171952 -0.000205653 0.130472)
(0.00125881 0.00115205 0.0601997)
(-0.00108692 0.0009855 0.141033)
(-0.000555533 0.00173979 0.0620653)
(0.0032905 -0.000400389 0.0747452)
(0.00143117 0.000877537 0.128031)
(-0.000893849 0.00133768 0.131398)
(0.00453292 -2.40541e-05 0.029814)
(0.00102312 0.00439298 0.0719021)
(-0.000803319 0.000195407 0.132863)
(-0.000799501 -0.00215445 0.0353782)
(-0.00194151 0.000440256 0.128731)
(-0.000267963 -0.00045593 0.125237)
(0.00182856 0.00147798 0.138091)
(0.00239577 0.000904967 0.115491)
(0.0032667 0.00158157 0.108417)
(0.00212529 -0.00168834 0.145697)
(-0.0093614 -0.00413802 0.0783526)
(-0.00159468 -0.000781639 0.138977)
(-0.00858893 -7.83023e-05 0.112383)
(9.31908e-05 0.00233355 0.081136)
(-0.000169126 4.80623e-05 0.0860214)
(0.000627185 -0.0003189 0.140957)
(0.000683435 -0.0011446 0.14489)
(0.000248392 0.000455081 0.0661995)
(-8.83526e-05 0.000583648 0.140564)
(-0.00127562 0.00148776 0.115272)
(0.000851718 -0.0003947 0.139916)
(0.000949513 -0.00103531 0.138645)
(-0.000850437 -0.00296114 0.0663204)
(-0.00112247 0.000419156 0.138359)
(-0.000238156 0.00053365 0.141663)
(-5.29508e-05 0.00106875 0.141758)
(-3.32905e-05 0.00115891 0.142271)
(0.00342809 -0.00070941 0.0344311)
(-0.00451919 0.000273898 0.0304954)
(7.13926e-05 0.00162702 0.134769)
(0.00120452 -0.00060322 0.141999)
(-0.000520118 0.00204546 0.140524)
(-0.00311889 0.000341703 0.0493434)
(7.36659e-05 0.000803735 0.137007)
(-0.000431632 0.00278477 0.127837)
(-0.00179459 0.00120469 0.13499)
(0.0015906 0.000282153 0.142454)
(-0.000113509 -1.41804e-05 0.139881)
(0.000196685 -0.00207249 0.141226)
(0.000488918 -0.001849 0.142764)
(-0.00167532 0.000925913 0.106032)
(-0.00166736 0.000174989 0.137118)
(-0.00186576 0.00101234 0.0725971)
(0.00205844 0.00213858 0.140282)
(-0.000938832 -0.00144435 0.12744)
(0.000143576 0.00119086 0.135503)
(-5.8156e-05 -0.000962742 0.138939)
(-0.000849201 -0.000760657 0.142084)
(0.000847256 0.00220259 0.138152)
(0.00297916 0.00237074 0.053626)
(0.00160493 0.00179353 0.050328)
(-0.00339938 -0.00309138 0.028328)
(-0.00187253 0.000586789 0.132037)
(0.00047742 -0.000324601 0.14327)
(0.000325551 -0.000236291 0.134307)
(0.000483213 -0.00247579 0.134624)
(0.0012667 5.9386e-05 0.0459864)
(0.00139017 -0.00280009 0.0317212)
(-0.00192702 0.000241611 0.130254)
(-0.000312838 -7.56452e-06 0.13584)
(-0.00121131 0.00048822 0.139486)
(0.000111196 -0.00137491 0.145124)
(-0.00107553 -0.00211371 0.140328)
(-0.000952 0.00132805 0.140578)
(0.000198911 -0.00198769 0.139516)
(-0.00160847 0.00398237 0.0361749)
(-0.000940421 0.00162429 0.134184)
(0.00262492 -0.00156906 0.0763187)
(-0.0067293 -0.00110729 0.0724752)
(0.00104271 -0.000527152 0.139241)
(-0.00109137 0.000937662 0.120065)
(0.00100896 -0.00152441 0.140233)
(-0.00542422 0.0017432 0.0286002)
(0.00194129 -0.000555183 0.143385)
(-0.00103184 0.00016339 0.142009)
(-0.000895056 0.000152203 0.135806)
(0.00217976 -0.000618483 0.117962)
(6.86246e-06 0.000147904 0.13526)
(-0.00179185 0.000916023 0.138122)
(-0.00063211 -0.000452879 0.129734)
(0.00018383 -0.000902544 0.13492)
(-0.0028594 -0.00202515 0.106884)
(0.00112697 0.00180817 0.141198)
(-0.00128363 0.00166508 0.142005)
(0.00294059 -0.000955599 0.0300437)
(-0.000567028 0.00223014 0.141078)
(0.000373369 -0.000828683 0.127138)
(-0.00349069 -0.00337673 0.0673373)
(-0.00140062 0.00165892 0.111072)
(0.00104189 0.00138877 0.141172)
(0.000109278 0.000536113 0.137566)
(0.00153119 0.00143641 0.105377)
(-0.00330292 0.000463038 0.0300608)
(-0.000266834 7.27227e-05 0.142216)
(-0.000490846 0.00125236 0.135588)
(0.000215158 0.000273279 0.145446)
(-0.00118942 0.00139038 0.13354)
(-0.00274616 0.00141502 0.0528878)
(0.000944009 0.00123141 0.138312)
(-0.00478104 -0.00116157 0.0305033)
(-0.000970272 0.000409061 0.138378)
(-0.0113941 0.000454583 0.10223)
(-0.00133308 0.000715794 0.138485)
(-0.000983399 0.00206985 0.066479)
(-0.00264005 0.000600353 0.124317)
(-0.00169501 0.00305002 0.114904)
(0.00307606 -0.0037574 0.0473772)
(0.000669901 -0.000325809 0.136069)
(-0.000821045 0.00242958 0.1344)
(-0.00377072 -0.000983875 0.0316639)
(0.00101164 -0.000868571 0.136372)
(5.39084e-05 -0.00274396 0.13348)
(-0.000210388 0.00151676 0.0515716)
(0.00208206 0.00373169 0.080266)
(-0.00121175 0.000810252 0.0733867)
(0.000108855 0.000907059 0.137682)
(0.00329527 -0.000263693 0.136106)
(-0.0011953 0.00148956 0.0371203)
(0.00181591 0.000584393 0.0747237)
(3.55804e-05 0.00258816 0.0768217)
(0.00244669 0.00303978 0.127417)
(0.00297225 -0.00119233 0.135812)
(-0.00473851 -0.00194169 0.0326839)
(0.000594777 0.00237513 0.144434)
(-0.00213411 0.00119662 0.138696)
(-0.00206573 0.000461535 0.137797)
(-0.00224802 -0.00504831 0.0901447)
(0.00112966 -0.000105612 0.14487)
(0.00214572 -0.00405769 0.0332382)
(-0.00126422 0.000181224 0.140013)
(0.000177408 -0.00078875 0.036185)
(0.00156567 -0.00393738 0.0720038)
(0.000791471 -0.000881289 0.139931)
(-0.000841305 0.00302196 0.0767819)
(-0.00515747 0.00304273 0.0287314)
(0.000550715 -0.00366479 0.0500706)
(-0.00044993 0.00529669 0.0611612)
(0.00256465 -0.00221562 0.075023)
(-0.00136919 0.000699322 0.138601)
(-0.00124703 0.00175938 0.0662875)
(0.000946489 -0.0018264 0.0812003)
(-0.0103181 -0.000976766 0.127425)
(-0.00175763 0.00196927 0.136358)
(0.00208472 -0.000874185 0.031696)
(0.001429 0.000528832 0.124538)
(-0.00603165 -0.00500259 0.0834442)
(0.00137532 0.00107787 0.141306)
(-0.00164081 0.000250914 0.0717752)
(-0.00116177 0.00272069 0.13642)
(0.00358067 0.00321223 0.0752237)
(-0.0014191 0.000361896 0.13066)
(-0.000795096 -0.000995436 0.139127)
(0.00541864 -0.00512352 0.0657019)
(7.38322e-05 -0.000736138 0.144795)
(-0.00296366 -0.000651241 0.0474978)
(0.00411422 -0.00194067 0.0273518)
(-0.000648015 -5.96326e-05 0.140181)
(0.000101121 -0.00198108 0.13745)
(-0.000349806 -0.0014667 0.131264)
(0.00156165 -0.00355918 0.133873)
(0.00200759 0.000568414 0.140118)
(0.00168851 -0.00259289 0.0758452)
(0.00152595 0.00113277 0.143141)
(0.00234396 0.00237034 0.0679251)
(-0.00163147 -0.000404763 0.139869)
(0.00196665 0.00140121 0.135179)
(-0.00548705 -0.00422827 0.0392638)
(0.00052916 0.00119825 0.144718)
(0.00182684 -0.00261287 0.0729082)
(0.00256073 0.0044212 0.0364796)
(0.00058796 -0.000901056 0.145773)
(-0.00153772 -5.50869e-05 0.0572826)
(0.000571312 -0.000438141 0.134495)
(-3.53399e-05 -0.000409764 0.137079)
(-0.00116298 0.00318686 0.131994)
(0.000923524 0.00487427 0.07635)
(0.000427191 -0.000280748 0.142897)
(0.00108902 -0.000645733 0.108808)
(-0.0010045 -0.000326713 0.145282)
(0.00167351 -0.000489945 0.144704)
(0.00135003 -2.11789e-05 0.141942)
(0.000231828 -0.0017671 0.137899)
(0.00352118 -0.00282905 0.0611851)
(0.00177252 0.000949226 0.067414)
(-0.00140132 0.000593939 0.141185)
(-0.000497295 0.000323473 0.141826)
(0.000988383 0.0040936 0.0458328)
(-0.00174959 -0.000243434 0.13968)
(-0.000969251 0.000664332 0.146445)
(0.00123325 0.00120379 0.143706)
(0.000821457 0.00154432 0.141276)
(-0.0015903 -0.000851173 0.12917)
(-0.00296544 0.00259592 0.0279608)
(-0.000696631 2.65065e-05 0.146128)
(0.00199315 -0.00341296 0.113106)
(7.85752e-05 -0.00125925 0.133791)
(0.000778108 0.000999369 0.11553)
(-0.00426333 -0.000977572 0.0428975)
(-0.000674046 0.00204221 0.137853)
(0.00101396 0.000324398 0.107933)
(0.00129592 0.00126308 0.139628)
(0.00101723 0.00248516 0.138502)
(0.000234671 -9.30421e-05 0.138649)
(0.0028528 0.00267243 0.0232073)
(-0.00399481 0.00188123 0.030876)
(0.000531913 -0.00315283 0.133435)
(-0.000583471 0.0015418 0.134629)
(8.64873e-05 0.000926787 0.137201)
(-0.00104429 0.0012399 0.136596)
(0.000385754 0.000339576 0.111305)
(-0.000316425 0.00144317 0.13873)
(0.0011672 -0.00145458 0.141436)
(0.000561926 0.00192927 0.0287513)
(0.00114141 -0.00316809 0.132648)
(-0.00665399 -0.000312793 0.134492)
(-0.000796506 0.00330453 0.0551913)
(-0.0013705 0.00505266 0.070616)
(0.000868554 0.00142788 0.143516)
(0.00137576 0.00168015 0.140645)
(-0.00145313 -0.00210239 0.141752)
(0.000452411 0.00111634 0.136225)
(-0.00249303 0.00103318 0.122717)
(-0.00119093 5.51877e-06 0.140426)
(0.00155412 -0.00232933 0.118881)
(0.00201229 -0.000917392 0.144703)
(0.0008393 -0.00216073 0.137342)
(0.0024561 -0.0038343 0.140099)
(0.00197455 0.000290007 0.136385)
(0.00238832 0.00452152 0.0544429)
(-1.62646e-05 0.0014994 0.145257)
(-0.000382337 -0.00153656 0.0461487)
(-0.0097862 -0.00106465 0.0955333)
(0.00362698 -0.00012439 0.0751228)
(-0.00863305 -0.000498691 0.126006)
(0.000949869 -0.00123343 0.136149)
(-0.0159201 0.000119071 0.118545)
(-0.00049649 -0.000433214 0.137173)
(0.000400061 -5.60815e-05 0.147292)
(-0.00137783 0.000520052 0.137219)
(0.0015096 0.0010751 0.139548)
(-0.00105496 -0.000632395 0.0474898)
(-0.00418557 0.000240478 0.101061)
(-0.0139539 0.000986785 0.11254)
(-0.000243842 -0.00122587 0.137535)
(0.00065425 0.00273974 0.124307)
(-0.00732279 -0.000247807 0.134582)
(-9.31844e-05 0.00102596 0.135709)
(0.00081502 -0.000337681 0.128341)
(-0.00141888 -0.00157281 0.0504376)
(0.00326089 0.00106133 0.0685638)
(-0.000515206 0.000919179 0.0357136)
(0.00238684 0.0011728 0.0316657)
(-0.000133308 -0.00126029 0.0478161)
(-0.00131809 0.00186701 0.134702)
(0.000283104 0.000609998 0.136127)
(-0.00431856 -0.00313678 0.0332349)
(-0.004818 0.00146816 0.0298114)
(0.0017742 0.00186786 0.139133)
(-0.0135856 0.00278941 0.0983842)
(-0.00161881 -0.000189269 0.0491982)
(-0.000930132 -0.00115195 0.140255)
(-0.00192316 0.00279736 0.125985)
(0.000264111 -0.000162134 0.136045)
(0.00201736 0.00280683 0.0560149)
(-0.000395053 0.000291222 0.0715314)
(-0.000327269 0.000721512 0.123536)
(-5.93407e-05 0.00154284 0.138861)
(-0.000972446 0.00161148 0.138319)
(-0.00361651 0.00635359 0.0518477)
(-0.002142 -0.00174633 0.0341918)
(-0.0183983 0.000545726 0.106216)
(-0.00459227 0.00117976 0.0359038)
(-0.000411261 0.000699634 0.138238)
(-0.00595623 -0.000861394 0.0372054)
(0.000397018 0.00148808 0.119242)
(-0.000372161 -0.000250423 0.138389)
(0.00087969 0.00187465 0.149708)
(-0.00156946 0.000405848 0.0568985)
(0.000800044 -0.00333824 0.119121)
(-0.00240042 4.18738e-05 0.048072)
(-0.00575192 -0.000371175 0.041733)
(-0.000498525 -0.00130462 0.138916)
(-0.00439549 0.000825719 0.0253191)
(0.00184153 -0.00176342 0.138471)
(-0.00121839 -0.00303632 0.0654252)
(9.3307e-05 0.000494094 0.14088)
(-0.00109736 0.00113696 0.138699)
(0.0046875 0.00144345 0.0314313)
(-0.00121029 -0.00247317 0.0690662)
(-7.86026e-06 -0.00129393 0.138402)
(-0.000781354 0.00305645 0.046441)
(-0.000197348 -0.00077125 0.135616)
(-0.00141467 0.00489773 0.0706139)
(0.000583187 -0.00222254 0.122558)
(-0.00052351 0.0012163 0.138963)
(0.00195163 0.000113626 0.0524656)
(-0.00509013 -0.000344089 0.0326923)
(6.0362e-05 -0.00246715 0.0666468)
(-0.0161034 -0.000872345 0.110975)
(-0.000829048 0.000587055 0.125264)
(0.00219526 0.00371962 0.07506)
(0.00187246 0.000318836 0.109174)
(0.000641942 0.00123086 0.0407294)
(-0.000331077 0.00129657 0.138461)
(0.000447612 0.00103302 0.0345417)
(0.000213441 0.00323534 0.144682)
(0.00162626 0.00156883 0.143456)
(0.000763977 6.93304e-05 0.142052)
(-0.0033509 -0.000238061 0.0277976)
(0.0010427 0.00163254 0.144168)
(0.000793972 0.00139126 0.0949127)
(0.000785501 0.00228365 0.140558)
(0.000734102 0.000782201 0.0692617)
(-0.013104 0.000730707 0.108257)
(-0.000899587 0.00122452 0.144381)
(-0.000493119 -0.00192662 0.0572625)
(-0.000214171 -0.000875742 0.136827)
(-0.0189746 0.0024106 0.108993)
(-5.86342e-06 -3.82674e-05 0.130877)
(-0.00161169 -0.00343382 0.0451541)
(-0.00107911 0.00401546 0.0688428)
(0.00043656 0.000202431 0.139557)
(-4.05515e-05 -0.000654154 0.140052)
(-0.00319933 0.00612789 0.04408)
(0.000215047 -0.00203587 0.12804)
(0.00292158 -0.00326222 0.0775221)
(-0.00286425 0.00333957 0.0335343)
(0.00051569 -3.61098e-05 0.139703)
(-0.00981044 0.000751136 0.103304)
(2.63029e-05 -0.00228982 0.137628)
(0.000653395 2.91136e-05 0.140939)
(0.000568826 0.000306425 0.140456)
(0.00100593 0.000717536 0.138956)
(0.000955721 0.00154092 0.143347)
(0.00200873 0.00241547 0.059242)
(0.000903287 0.00613278 0.0586141)
(0.00187692 -0.000502341 0.142855)
(-0.0113336 -2.96362e-05 0.107839)
(0.000469734 -0.00166692 0.131357)
(-8.11487e-06 0.000844526 0.13855)
(0.00197936 -0.00165143 0.103906)
(-0.000312544 -0.00051356 0.146127)
(-0.00118245 9.14791e-05 0.139887)
(-0.00282865 -0.000978296 0.121991)
(-0.00224254 0.000371312 0.11993)
(-0.000650165 0.00420781 0.0489381)
(-0.00172365 -0.000164722 0.0900737)
(-0.0013021 -0.00222824 0.0675445)
(0.000118196 3.83466e-05 0.138444)
(-0.00126232 -0.00111709 0.142031)
(0.00244715 0.00237986 0.115078)
(-0.00223042 0.000196047 0.114741)
(0.00249742 -0.00231248 0.0289051)
(-0.000804766 -0.00262017 0.101373)
(-0.00368901 -0.00134729 0.0737047)
(-0.000285853 -0.000183095 0.140099)
(-0.000350477 0.00174461 0.140002)
(-0.0102851 -0.000518217 0.105085)
(-5.287e-05 0.000814752 0.137267)
(-0.000623485 0.00369362 0.101471)
(-0.00813593 0.00077368 0.101544)
(-0.00176668 0.00121316 0.137309)
(0.00456184 0.0012814 0.0417242)
(7.95493e-05 0.00126269 0.140001)
(-3.65384e-05 0.00231441 0.0711103)
(6.19559e-05 -2.07322e-05 0.13899)
(0.00554763 -0.000330994 0.0394359)
(0.00264125 0.00106719 0.144944)
(-0.00461137 -0.000177571 0.101782)
(-0.000721735 0.000556547 0.141679)
(-0.00134027 -0.000419032 0.127255)
(0.000642151 0.000851704 0.138312)
(-0.000120588 -0.00166645 0.146146)
(0.00272776 -0.000214474 0.137152)
(0.000113332 0.00330395 0.0503801)
(-0.00030293 -0.00389564 0.0635064)
(-0.000531882 0.000770594 0.0392818)
(0.000544641 -0.000355542 0.138894)
(8.2077e-05 -0.000791916 0.140492)
(0.00114566 0.000782627 0.135374)
(0.000302964 0.00161253 0.145516)
(-0.000399845 -0.000974679 0.0268945)
(-0.000960657 -0.000846498 0.116925)
(0.000321158 -0.0019958 0.110759)
(0.000626175 0.000446401 0.140159)
(-0.000289887 -0.00231795 0.135282)
(0.00100202 0.000345352 0.136666)
(-0.00177857 -0.000712211 0.118533)
(0.000173351 0.000398386 0.138757)
(-0.00444073 0.00305366 0.0290815)
(0.000564828 0.00341766 0.10271)
(0.00069544 0.000638457 0.137263)
(0.000616478 0.00344086 0.0369009)
(-0.000148553 0.00232248 0.0587441)
(-0.00176905 -0.00297193 0.0779602)
(-0.00428208 -9.16687e-05 0.029496)
(0.00121042 -0.00140307 0.114147)
(-0.000677443 0.0013554 0.139329)
(-0.000930508 0.000901792 0.0728348)
(0.00394178 0.00222883 0.0274923)
(-0.000637373 -0.00148383 0.121422)
(0.000540594 0.000380929 0.0335373)
(-0.00129136 0.0025285 0.11833)
(0.000644396 -0.000209957 0.138524)
(0.000869067 1.6269e-05 0.137754)
(-0.000301557 0.00133471 0.139131)
(0.00292702 0.00105591 0.146392)
(0.000473052 2.51178e-05 0.138418)
(0.00138294 3.65052e-05 0.133726)
(0.00189917 -0.000376696 0.0614878)
(0.000838547 -9.08868e-05 0.140135)
(-0.00123744 -0.000669307 0.135947)
(0.000822109 -0.00347964 0.110733)
(-0.00177426 0.000706139 0.114343)
(0.000189235 -0.000136033 0.139745)
(-0.00180651 0.000936544 0.129808)
(-0.000171973 0.00053416 0.0831276)
(0.0013044 -0.00337467 0.143132)
(3.16908e-05 -0.00117721 0.0468266)
(7.95067e-05 -1.20513e-05 0.106768)
(0.000670512 -0.00210533 0.1104)
(-0.000821315 0.000560976 0.0805083)
(-0.00119972 -0.000252567 0.144015)
(-0.0163935 0.000308812 0.106633)
(-0.00444539 -0.000121521 0.124627)
(-0.00083172 0.00470832 0.0464506)
(0.00376348 -0.000518541 0.0383505)
(0.000943214 0.00371995 0.0706681)
(0.00358911 0.000129354 0.0283976)
(0.000530317 -5.91132e-05 0.134612)
(0.000454819 0.00139742 0.133319)
(0.000295598 0.003431 0.13481)
(-0.0111685 -0.000651551 0.111162)
(0.00107902 0.000590984 0.130239)
(0.000622893 0.000991287 0.132727)
(0.00513172 0.00278981 0.0367675)
(-0.000347918 0.00136676 0.134359)
(-0.00871518 0.00139686 0.125101)
(-0.00180231 -0.000919842 0.0606732)
(0.00460992 0.00270505 0.0315152)
(0.000561241 -4.14048e-05 0.125834)
(-0.00122014 -0.00152473 0.132769)
(-0.00433315 -0.00319086 0.034769)
(0.000652509 0.000966208 0.143643)
(0.00357671 -0.00122394 0.0335294)
(-0.000883419 -0.000654156 0.140478)
(-0.000741355 0.00084675 0.13797)
(-0.000534354 -0.00169526 0.124304)
(-0.0012406 -0.000150777 0.143207)
(-0.00160231 0.00107534 0.13927)